FOO
135168
    1MOL0     O    1   0.212   5.004   7.448 -0.1623  0.0912  0.5705
    1MOL0     C    2   0.265   4.894   7.456  0.4151  0.2223 -0.0836
    1MOL0     O    3   0.202   4.773   7.437  0.4836 -0.2135  1.1237
    1MOL0     C    4   0.070   4.755   7.407 -0.0780  0.2276 -0.3002
    1MOL0     C    5  -0.002   4.661   7.480  0.5749  0.0949  0.2457
    1MOL0     C    6  -0.134   4.640   7.454  1.1359 -0.2888 -0.1022
    1MOL0     C    7  -0.192   4.704   7.347  0.0077 -1.0475 -0.9199
    1MOL0     O    8  -0.326   4.689   7.312 -0.0599 -0.1908 -1.3019
    1MOL0     C    9  -0.406   4.579   7.366  0.5174 -0.5260 -0.5913
    1MOL0     C   10  -0.519   4.544   7.256 -0.4428  0.5066 -0.4175
    1MOL0     C   11  -0.630   4.453   7.301  0.0074 -0.2067  0.5517
    1MOL0     C   12  -0.595   4.305   7.306 -0.5623 -0.7482  0.0270
    1MOL0     C   13  -0.716   4.212   7.288 -0.8825 -0.8025 -0.1404
    1MOL0     C   14  -0.669   4.084   7.220  0.0124 -1.0787 -0.0200
    1MOL0     C   15  -0.778   4.001   7.163  0.5154 -0.2421  0.1939
    1MOL0     C   16  -0.730   3.877   7.092 -0.6596  0.1473 -0.4798
    1MOL0     N   17  -0.829   3.765   7.101  0.5562  0.5370  0.2531
    1MOL0     C   18  -0.947   3.770   7.029  0.4924 -0.3785 -0.1403
    1MOL0     C   19  -0.987   3.646   7.017 -0.1093  0.7380 -0.0254
    1MOL0     C   20  -1.108   3.601   6.946 -0.5100  0.0920 -0.1752
    1MOL0     C   21  -1.236   3.639   7.022 -0.2820  0.2980 -0.5742
    1MOL0     C   22  -1.363   3.629   6.927 -0.4389 -0.0919  0.5974
    1MOL0     C   23  -1.394   3.489   6.909 -0.3295  0.2986  0.7924
    1MOL0     O   24  -1.539   3.466   6.922 -0.3713 -0.3337  0.1247
    1MOL0     C   25  -1.617   3.515   6.824  0.0808  0.4119 -0.5727
    1MOL0     C   26  -1.583   3.560   6.688  0.2606  0.4504 -0.1269
    1MOL0     C   27  -1.675   3.591   6.592  0.0038 -0.2896 -0.2461
    1MOL0     C   28  -1.813   3.571   6.629 -0.1386 -0.5125  0.1557
    1MOL0     C   29  -1.921   3.601   6.534 -0.1857  0.5966  0.0967
    1MOL0     O   30  -1.890   3.637   6.407 -0.2415 -0.2249 -0.2809
    1MOL0     C   31  -1.982   3.695   6.329 -0.1568 -0.9583 -0.0732
    1MOL0     C   32  -1.964   3.829   6.300 -0.1163 -0.5075 -0.1030
    1MOL0     C   33  -2.044   3.899   6.206  0.4464 -0.5685  0.8279
    1MOL0     C   34  -2.143   3.831   6.144  0.3383  0.7825  1.6433
    1MOL0     O   35  -2.224   3.878   6.042 -0.4822 -0.4177 -0.1457
    1MOL0     C   36  -2.215   4.012   5.992  1.1096 -0.3008  0.5227
    1MOL0     C   37  -2.107   4.023   5.891 -0.5780 -0.1915  0.6347
    1MOL0     C   38  -2.138   4.130   5.795 -0.8714 -0.4501  0.1078
    1MOL0     C   39  -2.050   4.110   5.672 -0.3601  0.6106 -0.0084
    1MOL0     C   40  -1.897   4.076   5.702 -1.0028  0.7336 -0.1001
    1MOL0     C   41  -1.791   4.062   5.585  0.3377 -0.1439 -0.6555
    1MOL0     C   42  -1.643   4.093   5.605  0.1389  0.0643 -0.3726
    1MOL0     C   43  -1.574   3.960   5.595 -0.5400  0.5571  0.1002
    1MOL0    Cl   44  -1.587   3.932   5.412  0.5428  0.0250 -0.0883
    1MOL0     C   45  -2.170   3.696   6.173 -0.8510  0.1576  0.1071
    1MOL0     C   46  -2.079   3.630   6.260 -0.7602  0.3060 -0.2155
    1MOL0     O   47  -2.028   3.604   6.588  0.3945  0.4955  0.2471
    1MOL0     C   48  -1.848   3.530   6.760  0.1393 -1.6173  0.5184
    1MOL0     C   49  -1.748   3.517   6.857 -0.0025  0.1208  0.5390
    1MOL0     N   50  -0.902   3.567   7.092  0.8979 -0.1207 -0.2487
    1MOL0     N   51  -0.806   3.641   7.143 -0.3603 -0.5174  0.1519
    1MOL0     C   52  -0.123   4.803   7.284 -0.3674 -0.1412 -0.3914
    1MOL0     C   53   0.005   4.839   7.313  0.3307 -0.0111 -1.1854
    1MOL0     C   54   0.416   4.896   7.472 -0.0437 -0.5913  0.0933
    1MOL0     C   55   0.484   4.780   7.484  0.5808 -0.1167  0.2687
    1MOL0     C   56   0.613   4.773   7.515  0.1631 -0.0673 -0.4198
    1MOL0     C   57   0.698   4.884   7.501 -0.1641 -0.0554 -0.2632
    1MOL0     O   58   0.834   4.874   7.520 -0.3766  0.2621 -0.7809
    1MOL0     C   59   0.910   4.981   7.569 -0.2528  0.9864 -0.0767
    1MOL0     C   60   1.046   4.924   7.623  0.4548 -0.3387  0.1209
    1MOL0     C   61   1.027   4.853   7.756  1.1015  0.0845  0.5141
    1MOL0     C   62   1.141   4.767   7.804 -0.4400 -0.6316  0.6832
    1MOL0     C   63   1.123   4.721   7.941 -0.1650  0.3783 -0.3205
    1MOL0     C   64   1.095   4.684   8.057  0.7942 -0.1762  0.3255
    1MOL0     C   65   0.635   5.002   7.473  0.4696 -0.8832  0.3628
    1MOL0     C   66   0.494   5.015   7.456 -0.4179  0.5212  0.5570
    1MOL0     H   67   0.045   4.597   7.554  1.7609 -1.4073 -1.6897
    1MOL0     H   68  -0.189   4.568   7.513  2.0760 -0.3847  0.6804
    1MOL0     H   69  -0.451   4.610   7.461 -2.0066 -0.5825 -1.6819
    1MOL0     H   70  -0.347   4.495   7.403  0.9488  0.7709  1.8941
    1MOL0     H   71  -0.462   4.512   7.168 -1.3016  2.2664 -1.6680
    1MOL0     H   72  -0.564   4.641   7.232  1.1536  1.1222 -1.0854
    1MOL0     H   73  -0.703   4.465   7.220 -0.0252 -0.6838  0.5061
    1MOL0     H   74  -0.674   4.486   7.395 -1.4724  0.5300 -0.3739
    1MOL0     H   75  -0.540   4.300   7.212  1.5835  4.6526  0.6163
    1MOL0     H   76  -0.528   4.275   7.387  0.0823 -2.8357 -1.1988
    1MOL0     H   77  -0.780   4.259   7.212 -1.3567 -1.7469 -0.3366
    1MOL0     H   78  -0.761   4.195   7.386 -3.5567  2.3110 -0.6389
    1MOL0     H   79  -0.617   4.027   7.298 -3.1253 -3.3357  0.6327
    1MOL0     H   80  -0.599   4.107   7.139 -0.9098  1.7190 -0.1287
    1MOL0     H   81  -0.849   3.966   7.238 -0.7339 -0.3516 -1.0078
    1MOL0     H   82  -0.819   4.073   7.092 -0.4535 -2.2015 -1.3325
    1MOL0     H   83  -0.632   3.848   7.132 -1.8511 -0.9040  1.8389
    1MOL0     H   84  -0.719   3.899   6.986 -2.2723 -3.1530 -1.4772
    1MOL0     H   85  -0.977   3.855   6.967 -1.2628  2.1177  3.7629
    1MOL0     H   86  -1.108   3.494   6.919  3.2077 -0.1967  0.4375
    1MOL0     H   87  -1.109   3.656   6.852  1.3476 -0.3664 -0.5023
    1MOL0     H   88  -1.232   3.744   7.053  0.9846  1.7904 -4.9980
    1MOL0     H   89  -1.245   3.580   7.114  1.5509  1.4856  0.4419
    1MOL0     H   90  -1.447   3.674   6.981  0.7128  1.4323  1.1930
    1MOL0     H   91  -1.351   3.683   6.833 -1.3742  0.5389  0.8272
    1MOL0     H   92  -1.336   3.419   6.970 -0.3919 -1.5610 -1.1845
    1MOL0     H   93  -1.362   3.473   6.806 -1.7848 -1.4406  0.5407
    1MOL0     H   94  -1.479   3.565   6.655 -0.2669  0.2750 -1.9641
    1MOL0     H   95  -1.649   3.622   6.491  1.8044  0.2299  0.3461
    1MOL0     H   96  -1.887   3.880   6.358  0.1307 -1.8006  0.7419
    1MOL0     H   97  -1.996   3.991   6.172  3.5066 -2.2293  0.3179
    1MOL0     H   98  -2.206   4.089   6.070 -0.4783  0.4155  0.0452
    1MOL0     H   99  -2.313   4.039   5.952 -0.0872 -0.3795  3.1987
    1MOL0     H  100  -2.094   3.921   5.853  2.5343  0.2799  0.1342
    1MOL0     H  101  -2.020   4.053   5.950 -0.8246 -1.7328  1.8398
    1MOL0     H  102  -2.130   4.231   5.836 -0.0259 -0.3380 -0.3269
    1MOL0     H  103  -2.243   4.115   5.765 -0.4734 -3.5323 -0.0894
    1MOL0     H  104  -2.087   4.027   5.611 -0.6817  0.7294  0.0220
    1MOL0     H  105  -2.046   4.202   5.614  2.0555  2.8863  3.3602
    1MOL0     H  106  -1.904   3.985   5.762  1.8643 -0.2578 -1.0756
    1MOL0     H  107  -1.855   4.154   5.766  1.4297 -0.6683  0.1244
    1MOL0     H  108  -1.824   4.132   5.508  0.3533  0.3853 -0.1851
    1MOL0     H  109  -1.806   3.964   5.539 -1.5892  0.2907 -1.0136
    1MOL0     H  110  -1.600   4.167   5.537  1.1436 -0.9743 -0.9061
    1MOL0     H  111  -1.620   4.130   5.705 -0.7645  1.1492 -0.5478
    1MOL0     H  112  -1.604   3.873   5.653  1.9764  0.5585  1.5370
    1MOL0     H  113  -1.468   3.985   5.605 -0.8172  1.2122  1.5828
    1MOL0     H  114  -2.244   3.635   6.122  0.5812 -1.5502 -0.0517
    1MOL0     H  115  -2.101   3.525   6.274 -3.3877  0.7777 -0.3098
    1MOL0     H  116  -1.951   3.534   6.796  0.9587  2.7203  3.0947
    1MOL0     H  117  -1.781   3.503   6.959  1.5617  3.1935  1.5940
    1MOL0     H  118  -0.173   4.868   7.213 -0.8641 -2.6811 -2.5001
    1MOL0     H  119   0.063   4.915   7.263  1.4824 -0.4161 -0.5061
    1MOL0     H  120   0.418   4.693   7.484  0.6459 -0.1679  0.4294
    1MOL0     H  121   0.648   4.672   7.534 -1.1664 -0.8023 -1.7420
    1MOL0     H  122   0.856   5.040   7.644 -3.5850 -0.0502 -1.4826
    1MOL0     H  123   0.939   5.041   7.483  0.0749 -2.1481 -2.3493
    1MOL0     H  124   1.090   4.855   7.550 -0.8407 -1.6860  0.5534
    1MOL0     H  125   1.115   5.007   7.637  3.3266 -2.1161 -2.1643
    1MOL0     H  126   0.930   4.803   7.762  0.8225  0.6140  0.4964
    1MOL0     H  127   1.013   4.924   7.839 -1.0640 -1.1854  1.3346
    1MOL0     H  128   1.130   4.676   7.744 -1.6480 -0.6458  0.8981
    1MOL0     H  129   1.240   4.809   7.781 -0.6254 -0.7481 -0.3778
    1MOL0     H  130   1.066   4.657   8.156  0.7682 -0.7861  0.1557
    1MOL0     H  131   0.684   5.094   7.503 -0.2764 -1.3950  3.4786
    1MOL0     H  132   0.438   5.108   7.452 -3.2037 -1.1069 -1.1673
    2MOL0     O  133  10.400   8.440   2.868  0.3577  0.3705  0.1345
    2MOL0     C  134  10.307   8.379   2.812 -0.1244 -0.7728  0.3371
    2MOL0     O  135  10.181   8.360   2.870 -0.3169  0.1689  0.2034
    2MOL0     C  136  10.147   8.428   2.982  0.3342 -0.3011  0.0706
    2MOL0     C  137  10.106   8.368   3.096 -0.0614  0.8315 -0.3649
    2MOL0     C  138  10.073   8.430   3.216  0.3935  0.6103  0.7863
    2MOL0     C  139  10.073   8.561   3.214 -0.6958 -1.4545  0.1065
    2MOL0     O  140  10.053   8.630   3.329  0.2147 -0.1515 -0.5057
    2MOL0     C  141  10.149   8.592   3.437 -1.1156  1.0989  1.3813
    2MOL0     C  142  10.175   8.709   3.526  0.4529 -0.6300  1.0683
    2MOL0     C  143  10.258   8.672   3.658  0.2565  0.0227 -0.0700
    2MOL0     C  144  10.396   8.595   3.620  0.3210 -0.8509 -0.1037
    2MOL0     C  145  10.443   8.547   3.754  0.3964  0.1889  0.5571
    2MOL0     C  146  10.599   8.544   3.750  0.4882 -0.1026 -0.5956
    2MOL0     C  147  10.661   8.476   3.872 -0.6067  0.2497 -0.2572
    2MOL0     C  148  10.592   8.499   4.004  0.3739  0.1538  0.0713
    2MOL0     N  149  10.603   8.646   4.022  0.0013 -0.7239 -0.4941
    2MOL0     C  150  10.500   8.731   4.044  0.0919 -0.1422  0.1437
    2MOL0     C  151  10.553   8.855   4.047  0.5822 -0.5069  0.1606
    2MOL0     C  152  10.489   8.985   4.086  0.1927  0.7094 -0.4683
    2MOL0     C  153  10.353   9.028   4.035 -0.5439  0.0050  0.1973
    2MOL0     C  154  10.338   9.043   3.884 -0.4113 -0.3138  0.1700
    2MOL0     C  155  10.391   9.172   3.832  0.3057  0.3048 -0.4659
    2MOL0     O  156  10.321   9.273   3.897  0.3422  0.2872 -1.0691
    2MOL0     C  157  10.333   9.403   3.857 -0.4063 -0.2061  0.2986
    2MOL0     C  158  10.222   9.488   3.862  0.2433  0.0165  0.0977
    2MOL0     C  159  10.227   9.614   3.811 -0.3530 -0.7372  0.4603
    2MOL0     C  160  10.334   9.675   3.750 -0.8414 -0.2958  0.2267
    2MOL0     C  161  10.327   9.813   3.690 -1.1227 -0.3919 -0.0888
    2MOL0     O  162  10.428   9.844   3.599  0.0047  0.7445 -0.4115
    2MOL0     C  163  10.463   9.969   3.567 -0.1182 -0.0678  0.2501
    2MOL0     C  164  10.446  10.083   3.645 -0.2762  0.2980 -0.3462
    2MOL0     C  165  10.501  10.202   3.603 -0.0896 -0.3749  0.2264
    2MOL0     C  166  10.563  10.225   3.484  0.0885 -0.7572  1.4310
    2MOL0     O  167  10.607  10.349   3.446 -0.3943  0.0923  0.0968
    2MOL0     C  168  10.609  10.453   3.538 -0.0785  0.6977  0.2376
    2MOL0     C  169  10.638  10.565   3.446 -0.3292  0.6904  0.1820
    2MOL0     C  170  10.588  10.691   3.501  1.2034  1.2763 -0.1690
    2MOL0     C  171  10.435  10.711   3.501 -0.0318 -0.2474 -0.2651
    2MOL0     C  172  10.409  10.867   3.513 -0.3507 -0.7965  0.6501
    2MOL0     C  173  10.281  10.914   3.452 -0.3892  0.7476 -0.7797
    2MOL0     C  174  10.245  11.052   3.511 -0.6953  0.3687 -0.6943
    2MOL0     C  175  10.144  11.141   3.441  0.7952 -0.2900 -0.8603
    2MOL0    Cl  176  10.024  11.038   3.374 -0.1869 -0.6400  0.0385
    2MOL0     C  177  10.569  10.122   3.393  0.4684  1.0277 -0.2241
    2MOL0     C  178  10.525   9.986   3.437 -0.1470 -0.8752  0.7101
    2MOL0     O  179  10.242   9.890   3.730 -0.0987  1.0124  0.0476
    2MOL0     C  180  10.448   9.582   3.733  1.2766 -0.5423 -0.2834
    2MOL0     C  181  10.453   9.449   3.783  0.7209 -0.8594  0.0545
    2MOL0     N  182  10.687   8.841   4.042  0.5198  0.8464  1.2487
    2MOL0     N  183  10.716   8.719   4.024 -0.8252 -0.0942  0.6562
    2MOL0     C  184  10.098   8.641   3.099  0.4076  0.2909  1.3723
    2MOL0     C  185  10.136   8.567   2.982  0.1018  0.0573  0.3991
    2MOL0     C  186  10.333   8.323   2.677  0.3564 -1.2945 -0.2249
    2MOL0     C  187  10.468   8.317   2.627 -0.5195 -1.1719 -0.3532
    2MOL0     C  188  10.493   8.253   2.515  0.2520  0.1821  0.9810
    2MOL0     C  189  10.391   8.184   2.445  0.0315  0.0582  0.1351
    2MOL0     O  190  10.421   8.105   2.338  0.1421  0.0766  0.6157
    2MOL0     C  191  10.440   8.185   2.215 -0.2346  0.3762 -0.7236
    2MOL0     C  192  10.356   8.142   2.092  0.4206 -0.5915  0.1683
    2MOL0     C  193  10.427   8.198   1.974  0.0430 -0.1771 -1.7122
    2MOL0     C  194  10.329   8.166   1.854  0.4021  0.3175 -0.7758
    2MOL0     C  195  10.409   8.111   1.750 -0.3888 -1.0395 -0.3478
    2MOL0     C  196  10.479   8.077   1.653  0.2626 -0.4796 -0.6846
    2MOL0     C  197  10.250   8.204   2.475 -0.0386 -0.2398 -0.2670
    2MOL0     C  198  10.225   8.267   2.599 -0.6602  1.2514  0.7679
    2MOL0     H  199  10.097   8.260   3.090 -0.4021  0.6976  1.7347
    2MOL0     H  200  10.046   8.382   3.310  0.4104  1.1628  1.0783
    2MOL0     H  201  10.240   8.553   3.392 -1.1837  3.4302 -1.0254
    2MOL0     H  202  10.097   8.517   3.496 -1.8887 -0.3822 -1.0482
    2MOL0     H  203  10.079   8.750   3.559 -0.2773 -1.7131  0.3634
    2MOL0     H  204  10.222   8.791   3.472  1.1965 -0.9926  1.1477
    2MOL0     H  205  10.197   8.610   3.725 -1.1997  0.1131 -1.2678
    2MOL0     H  206  10.282   8.765   3.710 -1.2611  1.7443 -2.2820
    2MOL0     H  207  10.386   8.512   3.550 -0.2572 -0.2077 -0.7993
    2MOL0     H  208  10.468   8.668   3.581  2.0025 -1.7214  1.2216
    2MOL0     H  209  10.402   8.449   3.780  0.0104  1.1805  4.3979
    2MOL0     H  210  10.398   8.603   3.837  2.6171 -1.6977  3.2282
    2MOL0     H  211  10.640   8.644   3.736 -0.3564  0.3835  0.3148
    2MOL0     H  212  10.633   8.486   3.663 -0.2521  0.4860 -1.2921
    2MOL0     H  213  10.644   8.368   3.871 -0.1708  0.1834 -0.2378
    2MOL0     H  214  10.765   8.507   3.882 -0.5458  0.6117 -1.7248
    2MOL0     H  215  10.649   8.448   4.082  0.1560 -2.5850 -1.4595
    2MOL0     H  216  10.485   8.478   4.010 -0.0221  2.1911  4.4894
    2MOL0     H  217  10.394   8.711   4.059  0.5362 -0.5331  3.2877
    2MOL0     H  218  10.558   9.063   4.053  2.0824  0.6461  2.9033
    2MOL0     H  219  10.498   8.976   4.195  2.4621 -0.6641 -0.7150
    2MOL0     H  220  10.316   9.114   4.092 -0.2177 -0.0111  0.4392
    2MOL0     H  221  10.294   8.942   4.069  0.6895 -0.3483  1.5530
    2MOL0     H  222  10.396   8.961   3.842  0.3801 -0.6192  1.7536
    2MOL0     H  223  10.232   9.032   3.861 -0.6626  2.0644 -0.1441
    2MOL0     H  224  10.365   9.173   3.726 -1.8175  0.2079  0.0246
    2MOL0     H  225  10.498   9.173   3.854  0.6328 -2.8607 -1.5345
    2MOL0     H  226  10.125   9.465   3.907 -0.5415  0.4204 -1.3233
    2MOL0     H  227  10.135   9.667   3.832 -2.8701 -4.5559  0.1911
    2MOL0     H  228  10.388  10.085   3.737 -0.8580 -0.4063 -0.6879
    2MOL0     H  229  10.465  10.287   3.659  1.4483  0.5319 -0.1043
    2MOL0     H  230  10.686  10.429   3.611 -0.6205 -2.5878 -0.1286
    2MOL0     H  231  10.516  10.474   3.591 -0.9379  0.7489 -1.2395
    2MOL0     H  232  10.601  10.550   3.344  0.1038  0.9274 -0.0134
    2MOL0     H  233  10.747  10.567   3.434 -0.2211 -1.6983  0.2616
    2MOL0     H  234  10.631  10.761   3.429  0.9896  1.5701 -0.0156
    2MOL0     H  235  10.642  10.704   3.595  1.9974 -0.8152 -0.2885
    2MOL0     H  236  10.390  10.678   3.407  2.2872  1.4006 -2.0770
    2MOL0     H  237  10.380  10.665   3.583 -1.1130  0.0561 -0.8020
    2MOL0     H  238  10.487  10.914   3.452  1.0315 -3.7260 -0.0334
    2MOL0     H  239  10.418  10.897   3.618  0.0851  2.2810 -0.1595
    2MOL0     H  240  10.202  10.840   3.469  0.5105 -0.7924 -2.8121
    2MOL0     H  241  10.287  10.924   3.343  0.1259  1.2181 -0.7150
    2MOL0     H  242  10.210  11.036   3.614  0.8588 -1.9370 -0.4340
    2MOL0     H  243  10.341  11.105   3.520 -0.4858 -0.2173  0.8920
    2MOL0     H  244  10.199  11.195   3.364 -1.1491  0.4997 -1.7592
    2MOL0     H  245  10.108  11.209   3.519  4.4178 -0.8427  1.5357
    2MOL0     H  246  10.598  10.123   3.289  0.2582 -0.3071 -0.3129
    2MOL0     H  247  10.536   9.902   3.369 -0.6231  0.0524 -0.5545
    2MOL0     H  248  10.540   9.623   3.692  0.7365 -1.4690 -2.6273
    2MOL0     H  249  10.546   9.397   3.764  1.2732  0.6343 -1.5604
    2MOL0     H  250  10.105   8.749   3.101  1.8577  0.2203  1.5091
    2MOL0     H  251  10.149   8.636   2.899  3.6408  0.1459  0.8542
    2MOL0     H  252  10.551   8.352   2.688 -1.8132 -4.0517  3.5488
    2MOL0     H  253  10.593   8.235   2.478  1.4535  2.9359  2.5605
    2MOL0     H  254  10.541   8.164   2.179 -0.9658 -0.9660 -2.0838
    2MOL0     H  255  10.425   8.293   2.226  1.3189  0.6426 -1.0041
    2MOL0     H  256  10.343   8.033   2.088  2.6307 -0.9706  1.4047
    2MOL0     H  257  10.256   8.184   2.102  0.5350 -0.3805  0.4070
    2MOL0     H  258  10.526   8.152   1.966  1.8226  2.4551  1.9012
    2MOL0     H  259  10.444   8.306   1.974 -1.2610  0.1454  1.5252
    2MOL0     H  260  10.257   8.090   1.883 -2.7136  2.8846 -1.1533
    2MOL0     H  261  10.273   8.259   1.837 -0.4742 -0.3563 -1.6722
    2MOL0     H  262  10.541   8.048   1.571 -0.8525 -1.7842 -1.0807
    2MOL0     H  263  10.168   8.170   2.412 -1.8709 -0.9348  2.3303
    2MOL0     H  264  10.123   8.264   2.635 -2.0541 -0.1826 -2.7827
    3MOL0     O  265   5.808   3.119   1.580 -0.4173 -1.2847  0.1570
    3MOL0     C  266   5.761   3.202   1.662 -0.4983  0.0245  1.6711
    3MOL0     O  267   5.642   3.188   1.723 -0.2920 -0.5549 -0.2033
    3MOL0     C  268   5.583   3.063   1.719  0.0329 -0.7013  0.1196
    3MOL0     C  269   5.564   2.989   1.835  0.3521 -0.7179  0.5326
    3MOL0     C  270   5.551   2.850   1.826  0.6397 -0.3219  0.1790
    3MOL0     C  271   5.528   2.785   1.699 -0.5641 -0.1098 -0.7787
    3MOL0     O  272   5.523   2.646   1.690 -0.5749 -1.1931  0.0743
    3MOL0     C  273   5.618   2.588   1.600  0.2948 -0.3226  0.8142
    3MOL0     C  274   5.652   2.442   1.624 -0.5280 -0.1832  0.0006
    3MOL0     C  275   5.527   2.363   1.604  0.0984  0.6361 -0.4684
    3MOL0     C  276   5.554   2.215   1.626 -0.0952  0.1376  0.1712
    3MOL0     C  277   5.421   2.121   1.617 -0.5779  0.6762 -0.2083
    3MOL0     C  278   5.456   1.966   1.623  0.0033 -0.3667 -0.6051
    3MOL0     C  279   5.517   1.919   1.491  0.5340 -0.1550 -1.1099
    3MOL0     C  280   5.563   1.776   1.492  0.3339 -0.3961  0.7779
    3MOL0     N  281   5.692   1.753   1.563 -0.2572  0.2798 -0.2545
    3MOL0     C  282   5.714   1.736   1.703  0.4474 -1.3571  0.4814
    3MOL0     C  283   5.842   1.711   1.714  0.1859 -0.1597  0.2711
    3MOL0     C  284   5.914   1.672   1.842  0.0284 -0.4237  0.5405
    3MOL0     C  285   6.024   1.564   1.833 -0.1869 -0.5175  0.6945
    3MOL0     C  286   6.060   1.505   1.966 -0.0134 -0.2078  0.2652
    3MOL0     C  287   6.171   1.394   1.951 -0.4153  0.0676 -0.1100
    3MOL0     O  288   6.284   1.462   1.903 -0.4513 -0.1352  0.4862
    3MOL0     C  289   6.390   1.491   1.991  0.4365  0.6605  0.4491
    3MOL0     C  290   6.369   1.595   2.075 -0.0417 -0.1984  0.2334
    3MOL0     C  291   6.455   1.635   2.175 -0.1344  0.3156  0.1565
    3MOL0     C  292   6.575   1.562   2.183  0.9750 -0.7856  0.0734
    3MOL0     C  293   6.670   1.583   2.290  0.2749 -0.1652 -0.2425
    3MOL0     O  294   6.778   1.491   2.292 -0.3883 -0.0471 -0.4768
    3MOL0     C  295   6.869   1.482   2.396 -0.3344  0.8336  0.0953
    3MOL0     C  296   6.859   1.534   2.525  0.3603 -0.1244  0.7237
    3MOL0     C  297   6.933   1.484   2.629 -0.2121 -0.0423 -0.4523
    3MOL0     C  298   7.017   1.376   2.622 -0.0549  0.7215  1.0480
    3MOL0     O  299   7.085   1.320   2.721 -0.0267 -0.1377  0.3520
    3MOL0     C  300   7.104   1.374   2.850  0.1700 -0.4678  0.7203
    3MOL0     C  301   7.166   1.266   2.928  0.0978  0.2873  0.0038
    3MOL0     C  302   7.255   1.329   3.033  0.4634 -0.0204  1.2246
    3MOL0     C  303   7.335   1.227   3.107 -0.3980 -1.1712  0.8690
    3MOL0     C  304   7.433   1.282   3.206  0.2702  0.1476 -0.4480
    3MOL0     C  305   7.495   1.183   3.297  0.0053  0.5456  0.9489
    3MOL0     C  306   7.589   1.080   3.220 -0.4002 -0.5228 -0.3285
    3MOL0     C  307   7.734   1.113   3.256 -0.9517  0.5352 -0.5959
    3MOL0    Cl  308   7.832   0.981   3.191 -0.1615  0.3190 -0.2067
    3MOL0     C  309   7.041   1.329   2.494 -0.9335  0.2185  0.3698
    3MOL0     C  310   6.968   1.380   2.379 -0.0351  0.3327 -0.1044
    3MOL0     O  311   6.648   1.671   2.379  0.2266 -0.7062 -0.4951
    3MOL0     C  312   6.601   1.456   2.091  0.3349  0.3075 -0.0072
    3MOL0     C  313   6.509   1.422   1.988 -0.2945 -0.1298  0.3797
    3MOL0     N  314   5.902   1.719   1.587  1.3122  0.5412 -0.1937
    3MOL0     N  315   5.813   1.739   1.500 -0.0492  0.0052  0.7427
    3MOL0     C  316   5.529   2.861   1.587  0.2168 -0.1268  0.2235
    3MOL0     C  317   5.546   3.004   1.596 -0.0064  0.1303  0.0849
    3MOL0     C  318   5.845   3.319   1.681 -0.7967 -1.0162  0.6571
    3MOL0     C  319   5.792   3.424   1.770  0.5402  1.0496 -0.6980
    3MOL0     C  320   5.873   3.529   1.811  0.4126 -0.8548  0.3699
    3MOL0     C  321   6.007   3.537   1.780  0.0470  0.3392  0.8593
    3MOL0     O  322   6.072   3.638   1.830 -0.7323  0.7964 -0.5215
    3MOL0     C  323   6.210   3.668   1.812 -0.6302 -0.4145 -0.1321
    3MOL0     C  324   6.256   3.778   1.905 -0.1494  0.3404  0.2438
    3MOL0     C  325   6.380   3.842   1.856 -0.4863  0.8278 -0.4420
    3MOL0     C  326   6.503   3.753   1.884 -0.2657  0.0488 -0.1786
    3MOL0     C  327   6.621   3.802   1.794 -0.1263 -0.4253 -1.4440
    3MOL0     C  328   6.716   3.826   1.723 -0.1140  0.2351  0.1104
    3MOL0     C  329   6.065   3.437   1.698 -0.1849  0.2961 -0.3054
    3MOL0     C  330   5.986   3.328   1.652  0.3213 -0.5518  0.6566
    3MOL0     H  331   5.587   3.042   1.927  0.6610 -1.6403  1.0051
    3MOL0     H  332   5.537   2.793   1.918 -0.5329 -2.1896 -1.0786
    3MOL0     H  333   5.714   2.640   1.590 -0.5053  1.0883  0.2849
    3MOL0     H  334   5.576   2.590   1.499  1.3223 -4.1408  0.1420
    3MOL0     H  335   5.687   2.431   1.728  1.7572  0.4567 -0.6470
    3MOL0     H  336   5.727   2.408   1.553  0.0516 -1.3422  1.1397
    3MOL0     H  337   5.500   2.377   1.499  3.9586 -1.6695 -1.9369
    3MOL0     H  338   5.445   2.396   1.670 -1.2282 -0.6495 -1.4072
    3MOL0     H  339   5.634   2.175   1.562  0.6631 -0.4388  1.4216
    3MOL0     H  340   5.586   2.207   1.730 -1.5643  1.8811  0.8070
    3MOL0     H  341   5.364   2.125   1.523 -3.4848 -1.5767  1.2655
    3MOL0     H  342   5.344   2.135   1.694 -0.2888  3.0926 -0.2960
    3MOL0     H  343   5.381   1.902   1.669  2.8499 -3.7369 -0.1815
    3MOL0     H  344   5.538   1.969   1.697 -0.5737 -0.2661  0.0396
    3MOL0     H  345   5.437   1.931   1.418 -0.4840 -1.6777 -0.3076
    3MOL0     H  346   5.599   1.983   1.458  0.4300 -1.2399 -3.6861
    3MOL0     H  347   5.581   1.750   1.387  1.2293 -2.3303  1.3624
    3MOL0     H  348   5.494   1.714   1.549  2.5143 -2.2987  1.5129
    3MOL0     H  349   5.634   1.747   1.775 -0.6616  0.0930 -0.8955
    3MOL0     H  350   5.838   1.633   1.911 -0.7234  1.7754  1.0492
    3MOL0     H  351   5.964   1.758   1.887  2.9638 -1.6000 -0.2721
    3MOL0     H  352   6.115   1.609   1.792  1.7114 -4.3418  0.2694
    3MOL0     H  353   5.992   1.488   1.761 -0.5759 -1.3357  1.7042
    3MOL0     H  354   6.076   1.590   2.032 -3.7784  3.7775 -3.2911
    3MOL0     H  355   5.969   1.448   1.990  0.9048 -1.2822  1.3791
    3MOL0     H  356   6.119   1.328   1.880  0.4002 -0.9816  0.2480
    3MOL0     H  357   6.188   1.343   2.046  1.6952 -1.7013 -1.3524
    3MOL0     H  358   6.289   1.662   2.045  1.4589  0.0311 -3.8590
    3MOL0     H  359   6.419   1.721   2.231 -2.1599 -1.5160  1.8270
    3MOL0     H  360   6.786   1.605   2.563  1.5730 -0.5775  4.3521
    3MOL0     H  361   6.910   1.523   2.727  3.3053  2.0172 -0.3219
    3MOL0     H  362   7.008   1.396   2.898 -0.4256 -0.2463 -0.5402
    3MOL0     H  363   7.172   1.460   2.843  2.2623 -1.9738  1.3177
    3MOL0     H  364   7.231   1.204   2.866 -0.9839 -1.0138  0.1286
    3MOL0     H  365   7.084   1.205   2.968 -0.4580 -0.0034 -1.5278
    3MOL0     H  366   7.202   1.378   3.115 -0.3823  2.5322 -0.7099
    3MOL0     H  367   7.317   1.398   2.975 -0.9755 -0.5328 -1.0841
    3MOL0     H  368   7.264   1.162   3.160 -0.7636  0.9476  3.1526
    3MOL0     H  369   7.403   1.174   3.039  2.8587  1.0509  2.1269
    3MOL0     H  370   7.378   1.352   3.270  0.5930  0.3253 -0.3628
    3MOL0     H  371   7.518   1.332   3.159  1.7060 -0.9723  0.8375
    3MOL0     H  372   7.418   1.127   3.350  0.8896 -0.3858  1.2854
    3MOL0     H  373   7.557   1.238   3.369  1.7919  0.3458 -0.3563
    3MOL0     H  374   7.581   0.978   3.258 -0.2235 -0.9555 -1.4190
    3MOL0     H  375   7.569   1.074   3.113 -0.4000 -0.9653 -0.3023
    3MOL0     H  376   7.749   1.128   3.363  2.8088  3.1828 -1.2820
    3MOL0     H  377   7.764   1.208   3.211  1.7615  0.3141  0.5605
    3MOL0     H  378   7.115   1.250   2.490 -2.5695 -1.4252  1.2189
    3MOL0     H  379   6.975   1.334   2.281 -0.8924 -1.1559  0.4948
    3MOL0     H  380   6.685   1.388   2.098  1.3136  1.2764 -1.6652
    3MOL0     H  381   6.512   1.342   1.915  0.3347  0.6630 -0.4868
    3MOL0     H  382   5.519   2.819   1.488 -2.4403 -1.4904  0.9679
    3MOL0     H  383   5.559   3.064   1.506 -0.1010  0.1588  0.0894
    3MOL0     H  384   5.696   3.415   1.820  1.0584 -1.4687 -0.0231
    3MOL0     H  385   5.846   3.599   1.889  0.1416  0.5737 -0.9651
    3MOL0     H  386   6.226   3.702   1.709 -0.2266  1.1202  0.4116
    3MOL0     H  387   6.266   3.576   1.832 -1.3748 -0.8262  0.0923
    3MOL0     H  388   6.192   3.867   1.902 -1.0183 -0.2453  0.9722
    3MOL0     H  389   6.264   3.745   2.009 -1.2966 -2.3555 -0.4581
    3MOL0     H  390   6.388   3.936   1.912  0.3131  2.8969 -3.7983
    3MOL0     H  391   6.372   3.877   1.753  0.5215 -0.6928 -1.0654
    3MOL0     H  392   6.524   3.741   1.991 -0.3698 -3.3231 -0.4154
    3MOL0     H  393   6.487   3.650   1.849  2.6887  0.5770 -3.7772
    3MOL0     H  394   6.802   3.855   1.667  0.7779 -1.0560  0.7655
    3MOL0     H  395   6.169   3.452   1.672  0.1962 -1.6819 -0.0398
    3MOL0     H  396   6.043   3.252   1.599  1.5117  0.0485  1.0301
    4MOL0     O  397   7.897   3.925   6.047 -0.0577 -0.0426  0.5144
    4MOL0     C  398   7.933   4.001   6.133  0.5294  0.3904  0.1678
    4MOL0     O  399   8.057   4.066   6.124  0.5716 -0.2778 -0.7477
    4MOL0     C  400   8.131   4.038   6.015 -1.1495 -1.3130  0.2973
    4MOL0     C  401   8.209   3.923   6.014 -0.1373  0.6557  0.3279
    4MOL0     C  402   8.292   3.900   5.905  0.8216 -0.0114 -0.2042
    4MOL0     C  403   8.299   3.979   5.794  0.3031  0.0014  0.6214
    4MOL0     O  404   8.374   3.953   5.682 -0.0921 -0.5093  0.1713
    4MOL0     C  405   8.302   3.862   5.602  0.5892 -1.1315  0.0849
    4MOL0     C  406   8.350   3.836   5.461  1.0004 -0.1645 -0.0792
    4MOL0     C  407   8.410   3.955   5.400  0.0128 -0.0844  0.2004
    4MOL0     C  408   8.457   3.922   5.264 -1.0346  0.5194  0.6686
    4MOL0     C  409   8.522   4.030   5.179 -0.0684  0.8926  0.4678
    4MOL0     C  410   8.515   3.985   5.026  0.0609  0.7834 -0.2417
    4MOL0     C  411   8.611   4.083   4.960 -1.2767  1.2038  0.3842
    4MOL0     C  412   8.737   4.008   4.878 -0.4127 -0.0210 -0.6609
    4MOL0     N  413   8.702   3.940   4.755 -0.0118  0.3080 -0.7083
    4MOL0     C  414   8.710   3.804   4.743 -0.2384  0.1644  0.1138
    4MOL0     C  415   8.658   3.779   4.614 -1.1775 -0.4107  0.5087
    4MOL0     C  416   8.644   3.642   4.551 -0.4119  0.6173  0.3089
    4MOL0     C  417   8.494   3.606   4.545 -0.9328 -0.7456 -1.1151
    4MOL0     C  418   8.444   3.581   4.691 -1.2431 -0.5058 -0.8014
    4MOL0     C  419   8.299   3.547   4.703  0.0394  1.1454 -0.8241
    4MOL0     O  420   8.265   3.541   4.843  0.1263  0.9943  0.6412
    4MOL0     C  421   8.134   3.527   4.891 -0.5187  1.0856 -0.8671
    4MOL0     C  422   8.025   3.498   4.811  0.1641 -0.0606  0.3274
    4MOL0     C  423   7.893   3.488   4.862  0.3338  0.1006  0.1719
    4MOL0     C  424   7.871   3.478   5.002  0.0912  0.0336 -0.2672
    4MOL0     C  425   7.737   3.446   5.063 -0.8123 -0.1815 -0.6112
    4MOL0     O  426   7.629   3.436   4.984  0.0785 -0.7475  0.8613
    4MOL0     C  427   7.499   3.404   5.034  0.0375  0.2480  0.3774
    4MOL0     C  428   7.439   3.447   5.157 -0.6039  0.1266  0.6174
    4MOL0     C  429   7.318   3.399   5.191 -0.2900  1.0075  0.2281
    4MOL0     C  430   7.249   3.293   5.122  0.0595  0.9336 -0.1671
    4MOL0     O  431   7.131   3.236   5.156 -0.4369  0.1715 -0.8787
    4MOL0     C  432   7.091   3.222   5.293  0.3989  0.0428 -0.6726
    4MOL0     C  433   6.938   3.243   5.305 -0.1925  0.2747  0.1927
    4MOL0     C  434   6.895   3.278   5.444  0.4880  0.1732 -0.2862
    4MOL0     C  435   6.746   3.290   5.476  0.2423  0.4943  0.0496
    4MOL0     C  436   6.742   3.360   5.617  0.5627  0.1914  1.0440
    4MOL0     C  437   6.594   3.407   5.637  0.1518  0.6518 -0.2399
    4MOL0     C  438   6.591   3.511   5.754  0.0199  0.1582  0.1443
    4MOL0     C  439   6.581   3.433   5.888 -0.2185 -0.1749  0.9167
    4MOL0    Cl  440   6.408   3.426   5.945 -0.3036  0.3403 -0.3164
    4MOL0     C  441   7.301   3.267   4.994  0.4640  0.7798  0.7092
    4MOL0     C  442   7.417   3.328   4.951 -0.9551  1.6884  0.0719
    4MOL0     O  443   7.737   3.433   5.186  0.4283  0.2326  0.7011
    4MOL0     C  444   7.989   3.500   5.076  1.6868 -0.8261  1.1997
    4MOL0     C  445   8.114   3.538   5.025 -0.3858  0.5697 -0.1724
    4MOL0     N  446   8.607   3.898   4.564  0.0784  0.2288  0.1231
    4MOL0     N  447   8.640   3.990   4.647  0.2488 -0.7387  0.1525
    4MOL0     C  448   8.224   4.098   5.791  0.3748 -0.1366 -0.7339
    4MOL0     C  449   8.147   4.131   5.910 -0.8847 -0.1488 -0.4691
    4MOL0     C  450   7.842   4.009   6.257  1.0754 -0.6882 -0.1428
    4MOL0     C  451   7.874   4.087   6.366 -0.1841  0.4235  0.5269
    4MOL0     C  452   7.778   4.110   6.470 -0.4202  0.1354  0.6904
    4MOL0     C  453   7.650   4.053   6.459  0.1305  0.3578 -1.1881
    4MOL0     O  454   7.553   4.068   6.564  0.4685 -0.9364  0.4632
    4MOL0     C  455   7.442   3.971   6.567  0.5232 -0.7195 -0.0055
    4MOL0     C  456   7.347   4.023   6.680 -0.5548 -0.0108  0.4093
    4MOL0     C  457   7.376   3.974   6.819  0.1135  0.1547 -0.2391
    4MOL0     C  458   7.259   3.907   6.889  0.7221 -1.0385 -0.2225
    4MOL0     C  459   7.167   4.014   6.914  0.6696 -0.7569 -0.6816
    4MOL0     C  460   7.070   4.087   6.944 -0.0567  0.0589 -0.4842
    4MOL0     C  461   7.625   3.963   6.355  0.5513  0.2977  1.2174
    4MOL0     C  462   7.717   3.944   6.246  0.5115 -1.1977 -0.3373
    4MOL0     H  463   8.204   3.847   6.091 -0.8276  0.0857 -0.2664
    4MOL0     H  464   8.352   3.809   5.906  0.3188 -0.3563  1.3802
    4MOL0     H  465   8.199   3.898   5.600  0.7281 -0.3322  2.8358
    4MOL0     H  466   8.303   3.768   5.657 -0.9990 -1.3057 -0.1588
    4MOL0     H  467   8.263   3.794   5.408  1.7302  1.1939 -2.5156
    4MOL0     H  468   8.422   3.754   5.463 -0.8880 -1.9692 -0.9433
    4MOL0     H  469   8.494   3.986   5.463  0.1246 -0.6602  0.3396
    4MOL0     H  470   8.332   4.031   5.388  1.5200  1.1351 -3.4844
    4MOL0     H  471   8.520   3.833   5.261 -1.4439  0.2406 -0.8186
    4MOL0     H  472   8.371   3.882   5.209 -0.6037  1.2711 -0.5958
    4MOL0     H  473   8.627   4.041   5.207 -0.5603  1.7556  2.0686
    4MOL0     H  474   8.463   4.121   5.195 -3.0484 -0.6004 -1.0347
    4MOL0     H  475   8.414   3.995   4.985 -0.8737 -0.8692  1.5190
    4MOL0     H  476   8.548   3.884   5.002  1.7947  1.7107 -2.1117
    4MOL0     H  477   8.561   4.134   4.878  1.3169  2.4872 -0.5328
    4MOL0     H  478   8.654   4.158   5.028  2.8011 -0.2372 -0.2823
    4MOL0     H  479   8.788   3.930   4.935  0.8179 -1.1593 -3.1431
    4MOL0     H  480   8.805   4.089   4.851 -0.0794 -0.1692 -0.2855
    4MOL0     H  481   8.737   3.742   4.828  2.3105 -1.8607 -2.0221
    4MOL0     H  482   8.708   3.571   4.604  0.1756  0.2258 -0.8848
    4MOL0     H  483   8.690   3.640   4.452 -1.5563  1.5871 -0.2690
    4MOL0     H  484   8.467   3.520   4.484 -1.9037  0.0716 -1.8600
    4MOL0     H  485   8.450   3.688   4.488 -1.7687 -0.1532  0.3188
    4MOL0     H  486   8.504   3.503   4.739  1.2503 -0.0295 -2.9024
    4MOL0     H  487   8.454   3.670   4.754 -1.2938 -2.2350  1.8026
    4MOL0     H  488   8.291   3.452   4.649  1.0754  0.1880  0.6270
    4MOL0     H  489   8.239   3.622   4.650 -1.6171  1.2653  1.1166
    4MOL0     H  490   8.046   3.490   4.705  1.1830  2.3540  0.2941
    4MOL0     H  491   7.808   3.478   4.794 -1.3820 -2.0983  2.3974
    4MOL0     H  492   7.486   3.501   5.238 -1.6898  0.5850  0.9581
    4MOL0     H  493   7.269   3.433   5.281 -3.3315  0.4069 -1.0619
    4MOL0     H  494   7.134   3.304   5.353  0.0644  2.0459 -3.0079
    4MOL0     H  495   7.113   3.121   5.327 -1.2701 -0.3888 -0.7866
    4MOL0     H  496   6.885   3.154   5.272  0.2005  0.3804 -0.7474
    4MOL0     H  497   6.901   3.327   5.245  0.2231  1.2023  1.2096
    4MOL0     H  498   6.921   3.384   5.453 -0.5097  0.7694 -3.3248
    4MOL0     H  499   6.942   3.213   5.519 -1.3744 -1.0040 -0.0768
    4MOL0     H  500   6.689   3.330   5.392 -1.3385 -2.6637 -0.5089
    4MOL0     H  501   6.700   3.191   5.485  3.4649 -1.3149 -1.3837
    4MOL0     H  502   6.792   3.457   5.611  3.5418 -1.2964 -2.8831
    4MOL0     H  503   6.792   3.304   5.696  2.7017  3.3135  2.1094
    4MOL0     H  504   6.532   3.318   5.650  0.1046  0.8015  0.6162
    4MOL0     H  505   6.556   3.447   5.543 -2.2263 -0.5474  0.1479
    4MOL0     H  506   6.676   3.581   5.758 -0.5232  0.8168  0.4435
    4MOL0     H  507   6.502   3.575   5.756  1.8653  2.9189  1.7440
    4MOL0     H  508   6.628   3.493   5.966  0.4730  0.9548 -0.3061
    4MOL0     H  509   6.627   3.334   5.877 -2.0334 -0.8775 -1.0843
    4MOL0     H  510   7.237   3.204   4.934 -0.3851  2.0131  0.2772
    4MOL0     H  511   7.463   3.285   4.863 -0.6175  0.7526  0.6987
    4MOL0     H  512   7.971   3.497   5.183 -4.9960 -1.0304  0.4887
    4MOL0     H  513   8.179   3.549   5.112  0.8975 -0.8245 -0.9150
    4MOL0     H  514   8.242   4.160   5.704 -1.4216 -0.0710 -1.0834
    4MOL0     H  515   8.088   4.222   5.900  2.4178  2.0915 -1.2570
    4MOL0     H  516   7.975   4.123   6.380  0.7051 -1.5915 -0.2676
    4MOL0     H  517   7.787   4.177   6.555  1.0819 -0.2717  0.8625
    4MOL0     H  518   7.467   3.865   6.579  2.7713 -0.1170  1.3423
    4MOL0     H  519   7.382   3.964   6.476 -0.6883 -0.9869  0.7877
    4MOL0     H  520   7.326   4.130   6.684 -3.1127 -0.4880  2.2463
    4MOL0     H  521   7.250   3.985   6.646  0.6749 -1.8805 -1.2864
    4MOL0     H  522   7.414   4.064   6.869 -0.2632  0.6161 -0.7689
    4MOL0     H  523   7.461   3.905   6.821  0.4920  0.5992 -0.8093
    4MOL0     H  524   7.215   3.834   6.821 -1.2760  1.0382 -1.2894
    4MOL0     H  525   7.297   3.859   6.980  0.6245  0.9362  0.9189
    4MOL0     H  526   6.986   4.145   6.978  0.7287  0.9149  0.0212
    4MOL0     H  527   7.529   3.914   6.343  1.2963 -0.7063 -1.4189
    4MOL0     H  528   7.696   3.889   6.154  0.4157  0.4577 -1.3470
    5MOL0     O  529   8.415  10.387  10.204  0.7909 -0.0825  0.3960
    5MOL0     C  530   8.476  10.500  10.197  0.1980  0.1646 -0.2540
    5MOL0     O  531   8.422  10.617  10.152 -0.3237  0.4347  0.4576
    5MOL0     C  532   8.289  10.632  10.118 -0.7127  0.5909 -0.4331
    5MOL0     C  533   8.184  10.566  10.187  0.0233  0.3852  0.3543
    5MOL0     C  534   8.051  10.581  10.136  0.5992 -0.7344 -0.1283
    5MOL0     C  535   8.023  10.656  10.020  0.2579 -0.3044 -0.7755
    5MOL0     O  536   7.887  10.663   9.982  0.1344  0.6059  0.2004
    5MOL0     C  537   7.852  10.757   9.879 -0.7430  0.4011  0.4609
    5MOL0     C  538   7.873  10.702   9.745  0.5185 -0.6078  0.7497
    5MOL0     C  539   7.808  10.788   9.631  0.0116 -0.0301  0.3277
    5MOL0     C  540   7.835  10.943   9.637  0.2801 -0.3331  0.7318
    5MOL0     C  541   7.752  11.007   9.529  0.4583 -0.3344 -0.2591
    5MOL0     C  542   7.789  11.149   9.534  0.1013 -0.8417  1.3518
    5MOL0     C  543   7.731  11.250   9.423 -0.1941 -0.7047 -0.4213
    5MOL0     C  544   7.769  11.399   9.463  0.4813 -1.4543 -1.0175
    5MOL0     N  545   7.707  11.505   9.378  0.7691  0.0413  1.0910
    5MOL0     C  546   7.705  11.488   9.239  0.5419  1.0220 -0.6107
    5MOL0     C  547   7.665  11.614   9.191 -0.3110 -0.7808 -0.8167
    5MOL0     C  548   7.662  11.640   9.043  0.0555  0.1259 -0.6410
    5MOL0     C  549   7.534  11.568   8.993 -0.4319 -0.1707  0.7383
    5MOL0     C  550   7.406  11.659   9.003  0.8642 -0.1482  0.6997
    5MOL0     C  551   7.298  11.609   8.906 -0.6639  0.4955  0.3376
    5MOL0     O  552   7.240  11.482   8.945  0.4754 -0.1817 -0.5071
    5MOL0     C  553   7.137  11.492   9.035  0.2925 -0.6823  1.2025
    5MOL0     C  554   7.092  11.609   9.103 -0.0828  0.5087 -0.5712
    5MOL0     C  555   6.985  11.612   9.190  0.1559  0.9859 -0.0106
    5MOL0     C  556   6.916  11.489   9.208  0.0205  0.2386 -0.4100
    5MOL0     C  557   6.814  11.471   9.309 -0.0866  0.7700  1.0924
    5MOL0     O  558   6.690  11.503   9.265 -0.3410  0.3571  0.0276
    5MOL0     C  559   6.576  11.517   9.344 -0.6770  0.4454 -0.1599
    5MOL0     C  560   6.560  11.475   9.480 -0.1032 -0.2919 -0.2051
    5MOL0     C  561   6.434  11.510   9.534 -0.5324 -0.5012 -0.4365
    5MOL0     C  562   6.327  11.554   9.453 -0.3609 -0.2165 -0.1404
    5MOL0     O  563   6.202  11.571   9.497 -0.3403 -0.1308  0.7935
    5MOL0     C  564   6.162  11.550   9.630  0.1904 -0.4171  0.6472
    5MOL0     C  565   6.013  11.558   9.630  0.7695  0.6403  0.5293
    5MOL0     C  566   5.944  11.692   9.650  0.9155  0.3321 -0.0504
    5MOL0     C  567   5.792  11.690   9.630  0.0173  0.0713  0.1711
    5MOL0     C  568   5.736  11.840   9.638 -0.7751 -0.1872 -0.3933
    5MOL0     C  569   5.587  11.838   9.652  0.2269 -0.1567 -0.6999
    5MOL0     C  570   5.525  11.787   9.520  0.0467 -0.5950 -0.8054
    5MOL0     C  571   5.365  11.795   9.539 -0.6444 -0.0355  0.2797
    5MOL0    Cl  572   5.286  11.712   9.407 -0.0271 -0.1324  0.2879
    5MOL0     C  573   6.345  11.574   9.320 -0.2446 -0.1245  0.6261
    5MOL0     C  574   6.476  11.566   9.265 -0.8719 -0.4470  0.8535
    5MOL0     O  575   6.840  11.434   9.426  0.0641  0.3096 -0.0233
    5MOL0     C  576   6.964  11.372   9.153  0.2854  0.4612 -0.1365
    5MOL0     C  577   7.079  11.369   9.072  0.7299  0.1775  0.9499
    5MOL0     N  578   7.640  11.704   9.293  0.4049  0.4286 -0.0006
    5MOL0     N  579   7.650  11.633   9.399 -0.3259 -0.3108 -1.0309
    5MOL0     C  580   8.135  10.720   9.954 -0.5044 -0.3021 -0.4635
    5MOL0     C  581   8.271  10.705  10.001  0.8938 -1.0175  0.3394
    5MOL0     C  582   8.615  10.492  10.232  0.9135  0.8328  0.3797
    5MOL0     C  583   8.684  10.371  10.264 -0.0683  0.7408  0.4098
    5MOL0     C  584   8.820  10.364  10.299  0.4513  0.6465  0.1187
    5MOL0     C  585   8.890  10.486  10.317 -0.3366 -0.2065  1.1218
    5MOL0     O  586   9.022  10.512  10.345  0.2993 -0.6764  0.3782
    5MOL0     C  587   9.058  10.420  10.452 -0.0908  0.3037 -0.2728
    5MOL0     C  588   9.204  10.458  10.489 -0.1393 -0.6709 -0.8736
    5MOL0     C  589   9.293  10.472  10.373 -0.5753  0.1279 -0.4233
    5MOL0     C  590   9.435  10.505  10.402 -0.7054 -0.0663 -0.6262
    5MOL0     C  591   9.474  10.629  10.464 -0.0407 -0.3343  0.1641
    5MOL0     C  592   9.508  10.744  10.504  0.5520  0.5091  0.6871
    5MOL0     C  593   8.826  10.605  10.281  0.0151  0.0693  0.8976
    5MOL0     C  594   8.692  10.606  10.237 -0.6296 -1.3130  0.2846
    5MOL0     H  595   8.194  10.507  10.277  1.2997  2.7576  1.8695
    5MOL0     H  596   7.968  10.536  10.189  0.6946 -0.5711  0.1622
    5MOL0     H  597   7.926  10.837   9.888  0.7193 -1.0342  1.8453
    5MOL0     H  598   7.749  10.793   9.892 -1.3197 -0.8906 -0.2857
    5MOL0     H  599   7.825  10.604   9.760 -2.2614  0.6403  0.6723
    5MOL0     H  600   7.980  10.701   9.723 -0.1182 -2.5688 -3.2474
    5MOL0     H  601   7.703  10.760   9.642 -0.1996 -0.2476 -1.7745
    5MOL0     H  602   7.832  10.754   9.530  1.3198  2.1029 -0.1505
    5MOL0     H  603   7.820  10.983   9.737  2.5094  1.1090  0.5550
    5MOL0     H  604   7.938  10.950   9.600 -0.6772 -1.6753 -2.5940
    5MOL0     H  605   7.647  10.992   9.555 -0.1023  1.5008 -1.2894
    5MOL0     H  606   7.774  10.959   9.433 -2.7631 -0.4185 -1.0598
    5MOL0     H  607   7.898  11.142   9.529  0.2306  0.8978  0.8636
    5MOL0     H  608   7.752  11.184   9.630 -0.7954  1.7224  0.1730
    5MOL0     H  609   7.772  11.222   9.325 -0.5374  0.7382 -1.0024
    5MOL0     H  610   7.622  11.236   9.418 -0.3985 -0.1825  1.6165
    5MOL0     H  611   7.878  11.401   9.451  0.6064  0.0554  0.1422
    5MOL0     H  612   7.744  11.418   9.568  0.1129 -0.7346 -1.2274
    5MOL0     H  613   7.734  11.401   9.180  1.8543  3.2190 -3.4929
    5MOL0     H  614   7.748  11.595   8.992  0.5516 -1.8164  1.7786
    5MOL0     H  615   7.652  11.746   9.017  1.8698  0.3383 -0.6354
    5MOL0     H  616   7.514  11.479   9.053  2.5607 -1.8150 -0.4947
    5MOL0     H  617   7.550  11.539   8.888 -1.5525 -0.1788  0.5552
    5MOL0     H  618   7.362  11.654   9.104 -1.8411  1.4952 -0.2933
    5MOL0     H  619   7.437  11.761   8.977  0.0251  0.0144  0.3217
    5MOL0     H  620   7.334  11.601   8.803 -2.2481  2.0241 -0.3878
    5MOL0     H  621   7.225  11.687   8.884 -4.0194 -1.8291  2.3388
    5MOL0     H  622   7.132  11.710   9.104  1.6035 -0.1234  0.4603
    5MOL0     H  623   6.954  11.700   9.245  1.8930  0.6536  1.5955
    5MOL0     H  624   6.637  11.423   9.535  4.7144  1.4051 -4.5876
    5MOL0     H  625   6.420  11.483   9.638  0.1638 -1.3760 -0.5548
    5MOL0     H  626   6.210  11.626   9.692 -0.3426  1.6683 -1.3798
    5MOL0     H  627   6.193  11.450   9.665 -0.1733 -0.0376  2.1565
    5MOL0     H  628   5.977  11.490   9.708 -1.2091 -0.7827 -1.4924
    5MOL0     H  629   5.966  11.513   9.542  0.0402 -1.2130  1.7961
    5MOL0     H  630   5.984  11.762   9.576 -0.1818  0.0449 -0.9546
    5MOL0     H  631   5.966  11.720   9.753 -2.6800 -2.4386  1.7017
    5MOL0     H  632   5.773  11.655   9.528 -0.1062 -1.7535  0.7814
    5MOL0     H  633   5.740  11.625   9.701  1.6078  0.0099  1.3283
    5MOL0     H  634   5.757  11.900   9.548 -0.4930  0.6703  0.2255
    5MOL0     H  635   5.790  11.883   9.723 -1.8187 -1.7375  1.1181
    5MOL0     H  636   5.548  11.940   9.660 -0.7955 -0.2023 -3.7886
    5MOL0     H  637   5.564  11.775   9.739  1.1104 -0.9858 -1.0448
    5MOL0     H  638   5.555  11.847   9.434 -3.4512  0.6423 -1.3342
    5MOL0     H  639   5.558  11.685   9.499  1.5732 -0.1267 -0.8051
    5MOL0     H  640   5.353  11.903   9.528 -2.7295 -0.3766 -1.7222
    5MOL0     H  641   5.337  11.752   9.635  0.5653 -1.3241  0.0877
    5MOL0     H  642   6.263  11.618   9.264 -0.0723 -0.6268 -0.0496
    5MOL0     H  643   6.485  11.589   9.159 -2.5044  1.1970  1.0320
    5MOL0     H  644   6.909  11.281   9.174  0.4694  0.5669  0.8253
    5MOL0     H  645   7.121  11.277   9.034 -1.8478 -0.2641 -1.1450
    5MOL0     H  646   8.117  10.786   9.870 -1.2453  2.0973  1.4613
    5MOL0     H  647   8.351  10.762   9.955 -1.6462  1.5587 -1.2209
    5MOL0     H  648   8.649  10.270  10.246  3.0849 -0.4842  0.5102
    5MOL0     H  649   8.877  10.272  10.298 -0.1446  0.1117  3.8469
    5MOL0     H  650   9.060  10.318  10.414 -4.3897 -0.4892  1.1300
    5MOL0     H  651   8.998  10.418  10.544 -1.2182 -2.4903 -0.9812
    5MOL0     H  652   9.214  10.552  10.545  3.4845 -0.8100 -1.0598
    5MOL0     H  653   9.235  10.372  10.549 -2.0611 -1.2246 -0.6073
    5MOL0     H  654   9.261  10.547  10.300 -0.9948  1.1614  0.7783
    5MOL0     H  655   9.287  10.374  10.326 -2.2160  0.3894 -0.8234
    5MOL0     H  656   9.489  10.424  10.453 -1.7296 -0.4364 -0.1023
    5MOL0     H  657   9.473  10.513  10.300 -3.4752 -4.9171 -2.3861
    5MOL0     H  658   9.549  10.837  10.539 -0.5460  1.2580  0.0595
    5MOL0     H  659   8.891  10.691  10.296  3.0451 -1.0026 -3.7842
    5MOL0     H  660   8.654  10.704  10.214 -0.6158 -1.3488  0.1075
    6MOL0     O  661   9.867   4.352   5.231 -0.6073 -0.6083 -0.5916
    6MOL0     C  662   9.756   4.313   5.219 -0.5187  0.3339  0.1505
    6MOL0     O  663   9.712   4.214   5.131 -0.6849  0.8823 -0.5767
    6MOL0     C  664   9.801   4.143   5.055 -0.4593 -0.0917 -0.2709
    6MOL0     C  665   9.917   4.094   5.111 -0.2741  0.3540  0.4308
    6MOL0     C  666  10.011   4.015   5.038  0.2107 -0.0112 -0.1620
    6MOL0     C  667   9.994   3.984   4.902 -0.2790 -0.3563 -0.9035
    6MOL0     O  668  10.100   3.924   4.836 -0.1615  0.2013 -0.5321
    6MOL0     C  669  10.084   3.882   4.704 -0.5294  1.0358  0.8704
    6MOL0     C  670  10.158   3.983   4.611 -0.3075 -0.8739 -0.3879
    6MOL0     C  671  10.078   4.103   4.552 -0.5638 -0.0034 -0.1980
    6MOL0     C  672  10.160   4.187   4.446  1.0856  0.0208  0.6711
    6MOL0     C  673  10.289   4.242   4.502  0.0162  0.5297  0.8538
    6MOL0     C  674  10.352   4.367   4.440  0.3785 -0.3918 -0.5100
    6MOL0     C  675  10.418   4.340   4.301 -0.5294 -0.1239  0.3578
    6MOL0     C  676  10.566   4.379   4.288 -0.4377 -1.1231 -0.1640
    6MOL0     N  677  10.576   4.525   4.322 -0.3037 -0.5922  0.1811
    6MOL0     C  678  10.645   4.590   4.422  0.2472  0.3484 -0.3116
    6MOL0     C  679  10.610   4.721   4.414 -0.1066 -0.4394 -0.2378
    6MOL0     C  680  10.626   4.821   4.521  0.1441 -0.0223 -0.9137
    6MOL0     C  681  10.573   4.776   4.660  0.8901 -0.4464  0.7326
    6MOL0     C  682  10.423   4.750   4.659 -0.3189  0.4491  1.0558
    6MOL0     C  683  10.354   4.791   4.785 -0.2254  0.3562  0.6717
    6MOL0     O  684  10.243   4.701   4.808 -0.5662  0.3459 -0.0799
    6MOL0     C  685  10.170   4.723   4.926 -0.5311  0.1420 -0.8640
    6MOL0     C  686  10.187   4.835   5.014 -0.1836 -0.1252 -0.6187
    6MOL0     C  687  10.117   4.841   5.137  0.0718  0.2644 -0.2977
    6MOL0     C  688  10.032   4.737   5.169 -1.5889  0.6537 -0.8132
    6MOL0     C  689   9.951   4.762   5.299 -0.9079  0.1282  0.4561
    6MOL0     O  690   9.928   4.889   5.339 -0.0095  0.0544  0.0722
    6MOL0     C  691   9.854   4.904   5.459 -0.3753 -0.0275  0.3496
    6MOL0     C  692   9.913   4.980   5.556  0.2801 -0.5798  0.0266
    6MOL0     C  693   9.841   4.994   5.682  0.8612 -0.4704  1.1836
    6MOL0     C  694   9.709   4.945   5.697 -0.4554 -0.0815  0.3517
    6MOL0     O  695   9.641   4.971   5.816  0.6749 -0.1856 -0.6432
    6MOL0     C  696   9.502   4.930   5.846 -1.2311 -0.3192  0.5008
    6MOL0     C  697   9.476   5.008   5.977  0.0756 -0.1980 -0.0546
    6MOL0     C  698   9.338   4.979   6.037  0.3676 -0.0461  0.3738
    6MOL0     C  699   9.215   4.996   5.940 -0.0245  0.4475  0.0757
    6MOL0     C  700   9.109   5.078   6.013 -0.5116 -0.0812  1.1342
    6MOL0     C  701   8.990   5.115   5.920 -0.2373 -0.2664  0.0288
    6MOL0     C  702   8.898   5.225   5.991 -0.5650 -0.5440 -0.1841
    6MOL0     C  703   8.744   5.208   5.978 -1.1446  0.1809  0.6514
    6MOL0    Cl  704   8.681   5.061   6.056 -0.6809 -0.1017  0.1023
    6MOL0     C  705   9.658   4.876   5.591  1.0036 -0.8498 -0.4763
    6MOL0     C  706   9.727   4.860   5.469  0.4431  0.6083 -0.6364
    6MOL0     O  707   9.914   4.664   5.362 -0.3542 -0.0461  1.3499
    6MOL0     C  708  10.006   4.637   5.085 -0.3663  1.1847 -0.5108
    6MOL0     C  709  10.076   4.616   4.959  0.2841 -0.0690 -0.9050
    6MOL0     N  710  10.537   4.731   4.296  0.5206 -0.4585 -1.0895
    6MOL0     N  711  10.513   4.613   4.248  0.1596  0.5401 -0.7656
    6MOL0     C  712   9.875   4.041   4.846  0.1035 -0.0790 -0.9244
    6MOL0     C  713   9.782   4.114   4.915  0.1754  0.6188 -0.0699
    6MOL0     C  714   9.651   4.360   5.308 -0.4170  0.4148 -0.5619
    6MOL0     C  715   9.518   4.320   5.293  0.2671 -0.1382  0.7178
    6MOL0     C  716   9.428   4.362   5.387 -0.3611 -0.4649 -0.8660
    6MOL0     C  717   9.457   4.454   5.497 -0.0076 -0.8068 -0.0535
    6MOL0     O  718   9.370   4.506   5.584 -0.0571  0.3647 -0.1956
    6MOL0     C  719   9.239   4.527   5.533  0.3296  0.4061 -0.1532
    6MOL0     C  720   9.176   4.626   5.630  0.4082  0.4828  0.4834
    6MOL0     C  721   9.033   4.691   5.604 -0.0849  0.2111 -0.0063
    6MOL0     C  722   8.944   4.582   5.548 -0.6169  0.2038 -0.1278
    6MOL0     C  723   8.906   4.482   5.645  0.3769 -0.0140 -0.1819
    6MOL0     C  724   8.864   4.390   5.719 -1.1607  0.1659 -0.2387
    6MOL0     C  725   9.593   4.486   5.510 -0.9111  0.6190  0.3340
    6MOL0     C  726   9.692   4.436   5.419 -0.2891 -0.9076 -1.3363
    6MOL0     H  727   9.936   4.112   5.217 -1.4119  4.0127  0.1650
    6MOL0     H  728  10.103   3.977   5.081  0.1996 -1.1862 -1.1154
    6MOL0     H  729   9.980   3.890   4.672 -0.5018  1.3523  0.8578
    6MOL0     H  730  10.136   3.786   4.694  2.2239  2.4725  0.3484
    6MOL0     H  731  10.193   3.924   4.526 -0.5673  0.2263 -1.2788
    6MOL0     H  732  10.246   4.021   4.663 -0.2359  0.5511 -1.4769
    6MOL0     H  733  10.061   4.168   4.638 -1.6941 -1.8747  1.0678
    6MOL0     H  734   9.982   4.073   4.509  0.7801 -2.0469 -1.9521
    6MOL0     H  735  10.191   4.121   4.364  1.5484  1.5581 -0.4340
    6MOL0     H  736  10.100   4.270   4.409  1.5739  0.9903  2.0000
    6MOL0     H  737  10.358   4.158   4.514  0.0760  0.5597  0.7177
    6MOL0     H  738  10.258   4.285   4.598 -3.5495  3.4571 -1.3180
    6MOL0     H  739  10.429   4.395   4.513 -1.3282 -1.1084  1.6963
    6MOL0     H  740  10.278   4.447   4.451  0.8146 -0.2910  2.5062
    6MOL0     H  741  10.392   4.241   4.264 -1.3532  0.0540  0.4491
    6MOL0     H  742  10.363   4.402   4.230 -0.1098  0.3041  0.4020
    6MOL0     H  743  10.591   4.375   4.182  4.9927 -1.3067  0.8570
    6MOL0     H  744  10.628   4.327   4.362 -2.0822 -0.6849  1.6120
    6MOL0     H  745  10.703   4.543   4.500  0.6896 -0.1751 -0.9434
    6MOL0     H  746  10.570   4.913   4.500  0.2379  0.6135  1.3599
    6MOL0     H  747  10.732   4.847   4.526 -0.1159  0.9658 -0.2831
    6MOL0     H  748  10.611   4.845   4.736  1.4274  3.1113 -2.4584
    6MOL0     H  749  10.633   4.694   4.699 -2.8453 -1.6626  4.6107
    6MOL0     H  750  10.377   4.805   4.577  1.4455 -0.5039 -0.6334
    6MOL0     H  751  10.406   4.643   4.639  0.2531  0.1130  2.2675
    6MOL0     H  752  10.320   4.893   4.765 -0.1519  0.6864  2.1213
    6MOL0     H  753  10.416   4.793   4.876 -1.5835 -2.3781  1.7815
    6MOL0     H  754  10.238   4.924   4.980 -1.8041  0.9774 -0.2535
    6MOL0     H  755  10.122   4.919   5.211  1.5170 -0.4373  0.3784
    6MOL0     H  756  10.009   5.028   5.537  0.8004 -0.8545  1.7844
    6MOL0     H  757   9.889   5.046   5.765  2.9814  1.2514 -0.9863
    6MOL0     H  758   9.493   4.825   5.874 -3.1263 -0.1944  0.4583
    6MOL0     H  759   9.437   4.971   5.768  0.3657 -0.7647 -1.1543
    6MOL0     H  760   9.491   5.116   5.965 -0.2162  0.1308  2.0900
    6MOL0     H  761   9.539   4.970   6.058 -1.5442  1.5601  2.1743
    6MOL0     H  762   9.327   5.035   6.130  1.6609  1.4572 -0.3324
    6MOL0     H  763   9.342   4.872   6.061  0.2185 -0.7215 -2.3400
    6MOL0     H  764   9.237   5.057   5.851 -1.4202 -0.5777 -1.0315
    6MOL0     H  765   9.184   4.898   5.902 -0.6669  0.3209  0.9208
    6MOL0     H  766   9.162   5.172   6.032  1.5032 -0.7807 -0.6192
    6MOL0     H  767   9.084   5.033   6.109 -1.0348  0.2303  1.1486
    6MOL0     H  768   8.934   5.024   5.896 -3.6087  0.7050  3.1381
    6MOL0     H  769   9.016   5.163   5.826  1.1327 -0.1883  0.4251
    6MOL0     H  770   8.915   5.221   6.099 -2.1948  0.8870  0.1606
    6MOL0     H  771   8.920   5.327   5.959  0.0051 -1.0170 -1.3284
    6MOL0     H  772   8.713   5.204   5.873  3.0331 -1.9969 -0.7360
    6MOL0     H  773   8.691   5.292   6.023 -2.6668 -1.0886  1.3403
    6MOL0     H  774   9.561   4.829   5.596  0.8340 -0.5151 -0.5883
    6MOL0     H  775   9.692   4.813   5.378  0.3821 -0.7883  0.0846
    6MOL0     H  776   9.933   4.564   5.119  0.6376  0.4904  0.2370
    6MOL0     H  777  10.053   4.536   4.890  0.7668 -1.7624  0.8190
    6MOL0     H  778   9.833   4.040   4.746 -1.8664  2.2594 -0.2132
    6MOL0     H  779   9.693   4.159   4.871  0.5417 -0.5450 -2.1409
    6MOL0     H  780   9.478   4.261   5.211 -0.7068 -0.5083  1.4389
    6MOL0     H  781   9.328   4.322   5.372  0.1055 -0.9351 -3.1398
    6MOL0     H  782   9.188   4.430   5.543  1.4900  0.0128  3.0640
    6MOL0     H  783   9.237   4.580   5.437 -0.4923  0.8812  0.1163
    6MOL0     H  784   9.157   4.574   5.724 -1.8121  4.2540  2.3885
    6MOL0     H  785   9.244   4.709   5.648  0.1967  0.4933  1.2562
    6MOL0     H  786   9.060   4.766   5.529  2.2606 -1.6618 -1.1822
    6MOL0     H  787   8.986   4.725   5.697  0.7406 -1.2918  1.0029
    6MOL0     H  788   8.852   4.633   5.517 -0.6965  0.8597  1.0903
    6MOL0     H  789   8.994   4.539   5.462  0.1878 -0.2807  0.5737
    6MOL0     H  790   8.826   4.313   5.783 -0.1833  1.3231  1.8424
    6MOL0     H  791   9.623   4.534   5.603  0.7831  1.6159 -0.6699
    6MOL0     H  792   9.794   4.460   5.449 -0.0939 -0.0464 -2.6068
    7MOL0     O  793   5.775   4.685   8.503 -0.2550 -0.6182  0.1270
    7MOL0     C  794   5.888   4.692   8.550 -0.8669  0.2482 -0.6673
    7MOL0     O  795   5.938   4.614   8.652  0.4432 -0.1355 -0.2664
    7MOL0     C  796   5.843   4.523   8.704 -0.5274  0.4093  0.6533
    7MOL0     C  797   5.829   4.407   8.630  0.0255  0.8348  0.3897
    7MOL0     C  798   5.744   4.300   8.674 -0.1942 -0.2778  0.9149
    7MOL0     C  799   5.659   4.317   8.787 -0.1060  0.5415 -0.5354
    7MOL0     O  800   5.570   4.219   8.831  0.3414  0.3505  0.5296
    7MOL0     C  801   5.616   4.138   8.935 -0.7048  0.8240  0.0569
    7MOL0     C  802   5.486   4.080   8.999 -0.8174 -0.3036  0.0155
    7MOL0     C  803   5.393   4.008   8.907  0.2868 -0.1648  0.4567
    7MOL0     C  804   5.276   3.939   8.985 -0.0789  0.5387  0.1544
    7MOL0     C  805   5.171   3.862   8.907 -0.7805 -0.7047 -0.0739
    7MOL0     C  806   5.227   3.752   8.806  0.4760 -0.1882 -0.2467
    7MOL0     C  807   5.292   3.643   8.879  0.7024  0.2073 -0.2416
    7MOL0     C  808   5.320   3.520   8.794  0.1061  0.1856  0.2138
    7MOL0     N  809   5.413   3.419   8.861 -0.4659 -0.0708  0.6306
    7MOL0     C  810   5.381   3.316   8.948  0.5631  0.2270 -0.1857
    7MOL0     C  811   5.495   3.259   8.990 -1.5005 -0.4305 -0.4709
    7MOL0     C  812   5.505   3.148   9.083 -0.6563  0.4704  0.2755
    7MOL0     C  813   5.506   3.192   9.229  0.3802 -0.9988  0.7216
    7MOL0     C  814   5.557   3.079   9.324 -0.2713  0.3004 -0.2261
    7MOL0     C  815   5.707   3.035   9.311 -0.2060  0.1781  0.5857
    7MOL0     O  816   5.756   2.946   9.421 -0.0926  0.0369 -0.2118
    7MOL0     C  817   5.884   2.927   9.425  0.1752  0.1605 -0.0507
    7MOL0     C  818   5.968   2.906   9.314  0.0537  0.0971  1.1189
    7MOL0     C  819   6.105   2.864   9.334 -1.3219  0.2360 -0.6053
    7MOL0     C  820   6.149   2.833   9.464  0.2115 -0.2775  0.0080
    7MOL0     C  821   6.281   2.798   9.499 -0.3592 -0.1737 -1.0290
    7MOL0     O  822   6.347   2.708   9.416  0.3085 -0.5869 -0.3046
    7MOL0     C  823   6.442   2.631   9.463 -0.6286 -0.0344 -0.3178
    7MOL0     C  824   6.537   2.599   9.370  0.2147  0.7717  0.4417
    7MOL0     C  825   6.642   2.502   9.398  0.6713  0.3327  0.1271
    7MOL0     C  826   6.648   2.440   9.522 -0.3383 -0.7836 -0.2501
    7MOL0     O  827   6.749   2.352   9.537 -0.6121 -0.2318  0.8127
    7MOL0     C  828   6.736   2.227   9.607  0.1269  0.3536  0.5818
    7MOL0     C  829   6.800   2.238   9.753  0.2668 -0.0299  0.5651
    7MOL0     C  830   6.944   2.305   9.768 -0.0479  0.1288 -0.1341
    7MOL0     C  831   6.990   2.292   9.920 -0.9438  0.7315  0.4178
    7MOL0     C  832   7.124   2.357   9.947 -0.0262  0.3972 -0.0331
    7MOL0     C  833   7.239   2.268   9.904 -1.6204  0.2945 -1.2772
    7MOL0     C  834   7.262   2.144   9.999 -0.6143  1.1766 -0.3653
    7MOL0     C  835   7.388   2.072   9.952 -0.2010 -0.7466 -0.6698
    7MOL0    Cl  836   7.467   2.000  10.090  0.3818 -0.1906 -0.4009
    7MOL0     C  837   6.550   2.463   9.616 -0.4703 -0.4647  0.1687
    7MOL0     C  838   6.445   2.560   9.586  0.3053  0.3452 -0.6823
    7MOL0     O  839   6.319   2.829   9.618 -0.5742 -0.2619  0.1773
    7MOL0     C  840   6.067   2.862   9.565 -0.3168  0.7000  0.1373
    7MOL0     C  841   5.939   2.913   9.555  0.3597 -0.2657  0.1990
    7MOL0     N  842   5.601   3.324   8.924  0.4459 -0.0521 -0.5910
    7MOL0     N  843   5.548   3.425   8.858  0.3487 -1.0570  0.7396
    7MOL0     C  844   5.667   4.441   8.858 -0.3512 -0.6513  0.2327
    7MOL0     C  845   5.765   4.541   8.816 -0.4685  0.0604 -0.4638
    7MOL0     C  846   5.981   4.793   8.494  1.0824  0.5485 -0.4955
    7MOL0     C  847   5.960   4.848   8.365  0.2065 -0.7782 -0.2986
    7MOL0     C  848   6.059   4.925   8.313 -0.0879  0.3928  0.4169
    7MOL0     C  849   6.182   4.939   8.375 -0.3579 -0.5767  0.4878
    7MOL0     O  850   6.277   5.018   8.306  0.4062 -0.4093 -0.2716
    7MOL0     C  851   6.420   4.999   8.329  0.4950  0.1372  0.5708
    7MOL0     C  852   6.511   5.082   8.243 -0.4852  0.1904  0.7855
    7MOL0     C  853   6.489   5.052   8.097 -0.5055 -0.0324 -0.4877
    7MOL0     C  854   6.588   4.949   8.041 -0.4678  1.2902  0.2291
    7MOL0     C  855   6.732   4.983   8.036 -0.0577  0.3027 -1.1200
    7MOL0     C  856   6.846   5.018   8.020 -1.0314  1.1078 -0.2168
    7MOL0     C  857   6.197   4.899   8.507  1.1794 -0.9920 -0.3712
    7MOL0     C  858   6.103   4.817   8.558 -0.1618 -0.0136  0.0387
    7MOL0     H  859   5.894   4.396   8.543 -0.1134 -2.8831  0.5891
    7MOL0     H  860   5.740   4.208   8.618 -0.4127  1.1239 -1.4974
    7MOL0     H  861   5.673   4.189   9.014  1.7319 -0.9365 -0.4540
    7MOL0     H  862   5.668   4.052   8.892 -1.6893  0.2147  0.0470
    7MOL0     H  863   5.424   4.163   9.034  1.7148  2.0389 -0.6907
    7MOL0     H  864   5.518   4.015   9.081 -1.1223 -0.4074  0.0525
    7MOL0     H  865   5.455   3.936   8.852  1.9518  0.8013  0.9905
    7MOL0     H  866   5.337   4.072   8.839 -0.8585 -2.1371 -0.5337
    7MOL0     H  867   5.309   3.869   9.062 -0.2866  1.1034  0.7765
    7MOL0     H  868   5.235   4.027   9.037  0.2945  1.1881 -0.6246
    7MOL0     H  869   5.116   3.935   8.847 -1.1234 -0.7718  0.1571
    7MOL0     H  870   5.093   3.821   8.971  0.4639 -1.1335  1.2136
    7MOL0     H  871   5.284   3.813   8.736  0.2285  1.1127  0.6437
    7MOL0     H  872   5.148   3.708   8.744  1.5688 -3.2124  0.3356
    7MOL0     H  873   5.392   3.680   8.903  0.7723 -0.4557  0.5254
    7MOL0     H  874   5.234   3.622   8.969 -1.8620 -0.3847 -1.9047
    7MOL0     H  875   5.366   3.539   8.696 -0.8465 -0.1123 -0.3020
    7MOL0     H  876   5.223   3.476   8.773 -0.3469  0.5903  1.4038
    7MOL0     H  877   5.282   3.282   8.978  0.3445 -1.2535 -2.3662
    7MOL0     H  878   5.602   3.100   9.066 -1.7306 -1.5198 -0.4548
    7MOL0     H  879   5.425   3.074   9.077  0.3423 -0.5208 -1.8243
    7MOL0     H  880   5.402   3.216   9.250  0.5484  0.1131  0.3793
    7MOL0     H  881   5.569   3.282   9.237  0.9331 -0.8867 -3.0693
    7MOL0     H  882   5.527   3.109   9.425 -0.5861 -0.9605  0.0612
    7MOL0     H  883   5.496   2.992   9.301 -0.7763  0.0452  1.8875
    7MOL0     H  884   5.758   3.132   9.313  0.7606 -0.3044  2.3500
    7MOL0     H  885   5.733   2.996   9.213  0.5520  2.1899 -0.0649
    7MOL0     H  886   5.924   2.908   9.215  0.5473 -4.1568  0.6385
    7MOL0     H  887   6.168   2.835   9.251 -0.1547  2.8676 -0.7299
    7MOL0     H  888   6.531   2.653   9.276  5.1813 -1.0499 -1.2267
    7MOL0     H  889   6.728   2.490   9.332  0.1877 -0.0569 -0.4424
    7MOL0     H  890   6.797   2.158   9.547  0.1859 -0.0472  1.1057
    7MOL0     H  891   6.645   2.167   9.600  1.1432 -1.3433  1.2035
    7MOL0     H  892   6.790   2.139   9.797 -1.1463 -0.4189 -0.5694
    7MOL0     H  893   6.726   2.306   9.798 -1.5245 -0.0420 -2.0805
    7MOL0     H  894   6.948   2.412   9.744  1.7440  0.2479  0.5752
    7MOL0     H  895   7.014   2.248   9.707 -0.0056  0.1974 -0.1497
    7MOL0     H  896   6.922   2.346   9.987  1.0154  1.4863  1.9069
    7MOL0     H  897   7.000   2.186   9.945 -0.0003  0.1687 -2.0375
    7MOL0     H  898   7.138   2.365  10.055  1.6474  0.1557 -0.1938
    7MOL0     H  899   7.130   2.456   9.900  0.2847  1.0314  1.3029
    7MOL0     H  900   7.327   2.332   9.897  0.4761 -2.3460 -0.4326
    7MOL0     H  901   7.221   2.224   9.805 -1.2453 -0.7445 -0.8978
    7MOL0     H  902   7.269   2.179  10.102  0.7723 -2.2206  0.8681
    7MOL0     H  903   7.174   2.079  10.003 -0.5037  1.1165  1.4974
    7MOL0     H  904   7.466   2.137   9.912 -0.7180  0.4192  0.1812
    7MOL0     H  905   7.367   2.003   9.870 -0.0365  0.1937 -1.5250
    7MOL0     H  906   6.540   2.400   9.704  0.8569 -1.3496 -0.2880
    7MOL0     H  907   6.379   2.584   9.668 -0.4499 -0.6101 -0.9843
    7MOL0     H  908   6.104   2.853   9.667  2.7361 -0.9187 -1.0222
    7MOL0     H  909   5.890   2.928   9.650 -0.9565 -0.3313 -0.4370
    7MOL0     H  910   5.595   4.450   8.939 -2.9495  2.4628 -2.1137
    7MOL0     H  911   5.766   4.637   8.867 -3.2558 -0.8821  1.6337
    7MOL0     H  912   5.868   4.829   8.311 -0.9536  1.0672  0.9314
    7MOL0     H  913   6.049   4.962   8.211 -2.4554  0.0818  0.4935
    7MOL0     H  914   6.438   4.894   8.304  4.0155  1.1670 -2.1484
    7MOL0     H  915   6.443   5.015   8.435 -2.7339  1.4689  1.1793
    7MOL0     H  916   6.503   5.190   8.260 -1.3725 -0.2899  4.1057
    7MOL0     H  917   6.614   5.056   8.269 -0.3296  1.2627  1.2964
    7MOL0     H  918   6.482   5.144   8.037  1.0414  0.8774  0.6430
    7MOL0     H  919   6.388   5.009   8.092 -1.3570  1.6250  1.0891
    7MOL0     H  920   6.584   4.856   8.099 -0.1239 -0.5825 -2.5302
    7MOL0     H  921   6.545   4.924   7.944 -1.5158  0.6238  0.8513
    7MOL0     H  922   6.942   5.044   7.980 -0.2925 -1.6320 -0.4198
    7MOL0     H  923   6.287   4.922   8.564  1.2783  0.0491 -0.9170
    7MOL0     H  924   6.131   4.766   8.650  0.9279  1.3653  0.5168
    8MOL0     O  925   6.799   0.170   3.543  0.0132  0.0107 -0.3797
    8MOL0     C  926   6.845   0.282   3.562  0.6544  0.7445 -0.3745
    8MOL0     O  927   6.945   0.314   3.654 -0.2556  0.7293  0.2192
    8MOL0     C  928   6.989   0.220   3.749  0.0239 -1.1613 -0.1979
    8MOL0     C  929   6.989   0.077   3.745  0.5641 -0.2087  1.1048
    8MOL0     C  930   7.012   0.003   3.863 -0.7227  0.5565  0.5975
    8MOL0     C  931   7.076   0.063   3.977  0.0791 -1.1028  0.8930
    8MOL0     O  932   7.098  -0.021   4.089 -0.1972 -0.7709 -0.2377
    8MOL0     C  933   7.102   0.033   4.223  0.7364 -0.7768 -0.5632
    8MOL0     C  934   6.962   0.076   4.279 -0.0298  0.6444  0.0287
    8MOL0     C  935   6.856  -0.031   4.301 -0.0196 -0.3305  0.1909
    8MOL0     C  936   6.805  -0.106   4.178  0.7677  0.3191 -0.3759
    8MOL0     C  937   6.673  -0.176   4.198  0.3129 -0.3142 -0.6723
    8MOL0     C  938   6.692  -0.284   4.306  0.5127  0.0862 -0.3756
    8MOL0     C  939   6.587  -0.381   4.284 -0.1433 -0.0247 -0.6041
    8MOL0     C  940   6.656  -0.490   4.195  0.0788  1.3698 -0.4114
    8MOL0     N  941   6.575  -0.614   4.199 -0.3137 -0.5272 -0.0924
    8MOL0     C  942   6.514  -0.687   4.097 -0.0091 -1.0790 -0.3876
    8MOL0     C  943   6.449  -0.792   4.148  0.3575 -0.0535  0.1279
    8MOL0     C  944   6.372  -0.896   4.068 -0.0659  0.5761 -0.0183
    8MOL0     C  945   6.229  -0.849   4.048 -0.5607  0.0402  0.0169
    8MOL0     C  946   6.138  -0.965   4.034  0.6999 -0.1217 -0.0319
    8MOL0     C  947   5.997  -0.931   3.983 -0.6703  0.0661  0.3016
    8MOL0     O  948   5.989  -0.993   3.852  0.6401  0.0934  0.8374
    8MOL0     C  949   5.871  -1.052   3.836  0.4739 -1.5418  0.2539
    8MOL0     C  950   5.764  -0.978   3.786 -0.7354 -0.1799 -1.0806
    8MOL0     C  951   5.650  -1.048   3.749 -0.5077  0.8471 -0.3384
    8MOL0     C  952   5.643  -1.192   3.751  0.2672 -0.1477 -0.1909
    8MOL0     C  953   5.532  -1.262   3.690 -0.5473 -0.2316  0.7049
    8MOL0     O  954   5.427  -1.193   3.630  0.2482  0.0449  0.8182
    8MOL0     C  955   5.339  -1.254   3.541  1.1383 -0.6928 -0.0736
    8MOL0     C  956   5.222  -1.181   3.529  0.3611 -0.9009  0.7818
    8MOL0     C  957   5.122  -1.231   3.447  0.2198  0.2679 -0.3709
    8MOL0     C  958   5.132  -1.358   3.387  0.2952 -0.3283 -0.4821
    8MOL0     O  959   5.026  -1.395   3.310  0.7657 -0.2815  0.1106
    8MOL0     C  960   5.048  -1.457   3.183  0.3041 -0.8502  1.1479
    8MOL0     C  961   4.930  -1.421   3.101  0.6505 -0.6060 -0.1105
    8MOL0     C  962   4.895  -1.525   2.989  0.1030  0.2016  0.1441
    8MOL0     C  963   4.867  -1.657   3.048  0.7660  0.3632 -0.8364
    8MOL0     C  964   4.778  -1.749   2.955  0.1590 -0.0004  0.1217
    8MOL0     C  965   4.766  -1.883   3.018 -0.0044  0.0104 -1.3407
    8MOL0     C  966   4.704  -1.981   2.923  0.0314  0.3360 -0.7202
    8MOL0     C  967   4.650  -2.101   3.009 -0.8104  0.5839 -0.2843
    8MOL0    Cl  968   4.512  -2.055   3.109 -0.3525  0.3028 -0.0254
    8MOL0     C  969   5.255  -1.433   3.408  1.1894  0.0627 -0.0441
    8MOL0     C  970   5.351  -1.380   3.486 -0.0689  0.4462 -0.0937
    8MOL0     O  971   5.535  -1.378   3.712 -0.3300 -0.1646 -0.1665
    8MOL0     C  972   5.755  -1.256   3.812  0.3038  0.5852  0.5290
    8MOL0     C  973   5.860  -1.184   3.864 -0.0020  0.7543  0.9309
    8MOL0     N  974   6.473  -0.783   4.285 -1.3951 -0.0003 -0.1869
    8MOL0     N  975   6.552  -0.685   4.313 -0.1346 -0.8208 -0.0443
    8MOL0     C  976   7.107   0.201   3.970 -0.5437  0.8161 -0.2708
    8MOL0     C  977   7.053   0.278   3.860 -0.5867  0.3092  0.3643
    8MOL0     C  978   6.764   0.394   3.490 -0.7270  0.6771  0.2531
    8MOL0     C  979   6.635   0.377   3.450  0.3361 -0.3136 -0.5900
    8MOL0     C  980   6.566   0.476   3.371 -0.3338 -0.6889  0.7645
    8MOL0     C  981   6.632   0.592   3.330 -0.0643 -0.4449 -0.0903
    8MOL0     O  982   6.560   0.681   3.266 -0.1449  0.4552  0.3325
    8MOL0     C  983   6.555   0.676   3.128 -0.2834 -0.1642  0.2632
    8MOL0     C  984   6.511   0.818   3.073 -1.0218  0.4834  0.5853
    8MOL0     C  985   6.376   0.812   3.010 -0.1634 -0.3390  0.1680
    8MOL0     C  986   6.330   0.926   2.933  0.0361 -0.2617  0.0729
    8MOL0     C  987   6.382   0.920   2.799 -0.6100 -0.3957 -0.1978
    8MOL0     C  988   6.407   0.925   2.685 -0.2394 -0.3084  0.0664
    8MOL0     C  989   6.759   0.607   3.377 -0.2989  0.0227  0.6207
    8MOL0     C  990   6.825   0.515   3.455 -0.5425  0.3089  1.0283
    8MOL0     H  991   6.965   0.014   3.661  0.1122 -0.9544  1.7777
    8MOL0     H  992   7.006  -0.105   3.850 -4.2162  0.7581 -0.5416
    8MOL0     H  993   7.178   0.109   4.243  0.0822 -0.5155  1.1291
    8MOL0     H  994   7.141  -0.046   4.287  0.3698  0.1620  0.8684
    8MOL0     H  995   6.918   0.147   4.209 -1.8630 -3.7875 -3.8677
    8MOL0     H  996   6.983   0.116   4.379  0.6080  0.6677 -0.1098
    8MOL0     H  997   6.775   0.033   4.336  1.2668  3.0449 -2.4405
    8MOL0     H  998   6.897  -0.101   4.374  2.0444  0.6050 -0.0040
    8MOL0     H  999   6.797  -0.030   4.100 -0.5840 -1.0188 -1.5834
    8MOL0     H 1000   6.879  -0.179   4.145  0.1822 -1.2804  1.6147
    8MOL0     H 1001   6.660  -0.221   4.099  1.3338 -1.1581 -0.4439
    8MOL0     H 1002   6.590  -0.115   4.235  1.4090  0.4609  0.5980
    8MOL0     H 1003   6.679  -0.241   4.406 -0.1850 -0.8319 -0.0602
    8MOL0     H 1004   6.792  -0.328   4.303 -0.7519 -3.1540  0.5716
    8MOL0     H 1005   6.558  -0.425   4.380  0.8840 -0.9073 -0.6849
    8MOL0     H 1006   6.499  -0.341   4.232 -0.6878 -3.3759 -2.5299
    8MOL0     H 1007   6.750  -0.518   4.243  0.5371  1.7230 -1.0900
    8MOL0     H 1008   6.659  -0.452   4.093  0.7923 -0.9476 -1.3197
    8MOL0     H 1009   6.518  -0.662   3.992 -1.9901 -3.4431 -1.1369
    8MOL0     H 1010   6.373  -0.994   4.117  1.5077  1.0293  0.9466
    8MOL0     H 1011   6.410  -0.909   3.967 -1.2949  0.2080 -0.4549
    8MOL0     H 1012   6.235  -0.792   3.954 -1.8783  3.0361  1.6026
    8MOL0     H 1013   6.201  -0.784   4.131  2.4654 -0.9405  1.9527
    8MOL0     H 1014   6.187  -1.039   3.970  0.4137 -0.2118 -0.1493
    8MOL0     H 1015   6.119  -1.015   4.130 -0.0002  1.1592  0.5247
    8MOL0     H 1016   5.989  -0.823   3.967 -0.7145  0.3980  2.3042
    8MOL0     H 1017   5.936  -0.977   4.061  2.6468 -1.0696  2.4622
    8MOL0     H 1018   5.782  -0.871   3.783  0.2157 -0.3241 -3.9263
    8MOL0     H 1019   5.556  -0.995   3.733 -0.8332  0.3621 -0.0515
    8MOL0     H 1020   5.218  -1.081   3.572 -0.4893  0.7255 -2.7627
    8MOL0     H 1021   5.027  -1.180   3.427 -0.2277 -1.1880 -2.2879
    8MOL0     H 1022   5.060  -1.565   3.195  0.1609 -0.7877  1.9597
    8MOL0     H 1023   5.136  -1.414   3.134 -1.2012  2.6272  1.1734
    8MOL0     H 1024   4.942  -1.330   3.041  0.5527 -0.8242 -0.4717
    8MOL0     H 1025   4.839  -1.417   3.161  1.6380 -1.2222  1.4731
    8MOL0     H 1026   4.980  -1.550   2.925 -0.3060 -0.4573 -0.1426
    8MOL0     H 1027   4.821  -1.490   2.917 -3.4590  0.1405  3.4445
    8MOL0     H 1028   4.954  -1.717   3.078 -0.4909 -0.3918  1.5849
    8MOL0     H 1029   4.825  -1.647   3.148  1.5315  3.6076 -0.7355
    8MOL0     H 1030   4.831  -1.768   2.862  2.7467  1.9173  1.0585
    8MOL0     H 1031   4.690  -1.692   2.923  0.8292 -0.0384 -1.8990
    8MOL0     H 1032   4.699  -1.866   3.103 -0.4352  1.5006 -1.9475
    8MOL0     H 1033   4.859  -1.929   3.053 -0.2099 -0.1793 -1.0428
    8MOL0     H 1034   4.616  -1.951   2.866  0.3554 -2.0042 -2.6016
    8MOL0     H 1035   4.778  -2.017   2.851  0.0802  0.6516 -0.8282
    8MOL0     H 1036   4.727  -2.142   3.074  1.7609  3.9751 -0.8980
    8MOL0     H 1037   4.627  -2.180   2.937  0.8091 -1.3838  1.2196
    8MOL0     H 1038   5.264  -1.537   3.376 -1.2081 -0.3071  0.2399
    8MOL0     H 1039   5.450  -1.421   3.503  0.5492  0.5715 -2.9615
    8MOL0     H 1040   5.763  -1.365   3.809  1.5738  0.6548 -3.0205
    8MOL0     H 1041   5.950  -1.232   3.902  0.2840 -2.4043 -3.0988
    8MOL0     H 1042   7.162   0.242   4.054  0.5170  0.8596 -0.9765
    8MOL0     H 1043   7.056   0.387   3.858 -1.3063  0.3356 -2.0246
    8MOL0     H 1044   6.581   0.287   3.479 -0.9087 -0.3423 -2.7695
    8MOL0     H 1045   6.461   0.462   3.350 -0.2423  1.9046 -1.9549
    8MOL0     H 1046   6.489   0.596   3.095  1.0077 -1.7322  1.3380
    8MOL0     H 1047   6.650   0.647   3.082 -0.6803  1.1777 -1.5334
    8MOL0     H 1048   6.521   0.879   3.162 -2.1540 -0.0033  1.0590
    8MOL0     H 1049   6.582   0.862   3.002  1.0561 -1.0044  1.6373
    8MOL0     H 1050   6.306   0.789   3.091  0.5252  0.6443  1.0582
    8MOL0     H 1051   6.360   0.721   2.951  0.5766 -0.3962  0.0503
    8MOL0     H 1052   6.221   0.928   2.926  0.1356  1.1211 -4.0355
    8MOL0     H 1053   6.363   1.021   2.975 -0.0995  0.4113 -1.2880
    8MOL0     H 1054   6.443   0.954   2.588  0.9894  2.8744  1.3561
    8MOL0     H 1055   6.820   0.692   3.345  2.0807 -2.3173 -1.4730
    8MOL0     H 1056   6.926   0.540   3.485 -0.8713  2.0253  0.8282
    9MOL0     O 1057   7.815   3.663   6.872  0.0502 -0.1389 -0.7015
    9MOL0     C 1058   7.837   3.779   6.903  0.4221 -0.9437 -0.4758
    9MOL0     O 1059   7.915   3.874   6.832  0.7396  0.0342  0.1043
    9MOL0     C 1060   7.986   3.841   6.716 -0.0197  1.1014  0.1290
    9MOL0     C 1061   8.124   3.832   6.728 -0.0200 -0.0121 -0.6324
    9MOL0     C 1062   8.209   3.809   6.621  0.4757 -0.3610  0.3534
    9MOL0     C 1063   8.148   3.792   6.500 -0.3095 -0.0063  0.2037
    9MOL0     O 1064   8.214   3.772   6.381 -0.1970  0.2558  0.1421
    9MOL0     C 1065   8.269   3.644   6.353  0.7403 -0.3473  0.5417
    9MOL0     C 1066   8.408   3.679   6.304  0.0193  0.5067 -0.3063
    9MOL0     C 1067   8.492   3.554   6.279  0.2754 -0.5462  0.4131
    9MOL0     C 1068   8.466   3.508   6.134 -0.4723  0.4320  0.0274
    9MOL0     C 1069   8.576   3.419   6.073  0.1239 -0.9378 -0.2483
    9MOL0     C 1070   8.591   3.280   6.132 -0.1567 -0.0819  0.0341
    9MOL0     C 1071   8.682   3.188   6.030  0.0113 -0.5260 -0.1680
    9MOL0     C 1072   8.702   3.043   6.062 -0.5327  0.9001  0.0226
    9MOL0     N 1073   8.720   3.011   6.205 -0.5221 -0.5977 -0.2604
    9MOL0     C 1074   8.838   3.015   6.280  0.4102  0.5332 -0.0756
    9MOL0     C 1075   8.802   2.986   6.407  0.0354 -0.4027 -0.2956
    9MOL0     C 1076   8.895   2.941   6.518  0.1735  0.3104 -0.7106
    9MOL0     C 1077   8.898   2.794   6.533  0.0424  0.4807  0.1063
    9MOL0     C 1078   8.954   2.722   6.412  0.2826 -0.4710  0.1735
    9MOL0     C 1079   9.104   2.719   6.417  0.3406 -0.2359  0.5846
    9MOL0     O 1080   9.157   2.658   6.534 -0.3558 -1.0190  0.4776
    9MOL0     C 1081   9.299   2.688   6.561  1.0221  0.4632 -0.0780
    9MOL0     C 1082   9.337   2.664   6.693 -0.1385 -0.1146  0.8605
    9MOL0     C 1083   9.472   2.667   6.729 -0.3275 -0.1754 -0.0595
    9MOL0     C 1084   9.573   2.709   6.653 -0.2420 -0.4943 -0.1880
    9MOL0     C 1085   9.713   2.711   6.697  0.2876 -0.8445  0.8969
    9MOL0     O 1086   9.743   2.672   6.825  0.2907 -0.0418  0.1235
    9MOL0     C 1087   9.878   2.648   6.852 -1.0498 -0.2096 -1.0209
    9MOL0     C 1088   9.937   2.523   6.815  0.3557  0.0350 -1.0509
    9MOL0     C 1089  10.077   2.504   6.827 -0.3113 -0.7959  0.0192
    9MOL0     C 1090  10.157   2.602   6.892  1.0583  0.3745  0.1970
    9MOL0     O 1091  10.294   2.581   6.896 -0.0508  0.5399 -0.6216
    9MOL0     C 1092  10.331   2.451   6.925 -0.1856 -0.3048 -0.0082
    9MOL0     C 1093  10.469   2.461   6.989 -0.1926  0.6855  0.9002
    9MOL0     C 1094  10.512   2.328   7.045  0.0144 -0.2883  0.7341
    9MOL0     C 1095  10.635   2.329   7.134 -0.1298  0.1454  0.2693
    9MOL0     C 1096  10.686   2.186   7.157  0.2468 -0.6167 -0.2020
    9MOL0     C 1097  10.773   2.182   7.284  0.0594 -0.0920  0.2868
    9MOL0     C 1098  10.832   2.052   7.324 -0.3911 -0.8601 -0.7488
    9MOL0     C 1099  10.736   1.958   7.408  0.0407  0.8438 -0.5069
    9MOL0    Cl 1100  10.672   2.031   7.553 -0.0563  0.0218  0.6483
    9MOL0     C 1101  10.092   2.718   6.946  0.7076  0.6287 -1.0012
    9MOL0     C 1102   9.956   2.742   6.914  0.0627 -0.3838 -1.0872
    9MOL0     O 1103   9.798   2.739   6.607  0.0025  0.4743 -0.4036
    9MOL0     C 1104   9.529   2.738   6.520  1.2248 -0.7136  0.3639
    9MOL0     C 1105   9.394   2.740   6.476 -0.5991 -0.3063  0.5071
    9MOL0     N 1106   8.664   2.981   6.411 -0.1612  0.4611  0.2065
    9MOL0     N 1107   8.613   3.003   6.300  0.4952  0.2390  0.1878
    9MOL0     C 1108   8.000   3.787   6.491  0.4393 -1.2318  0.3749
    9MOL0     C 1109   7.921   3.815   6.599 -0.0721 -0.0018  0.2819
    9MOL0     C 1110   7.773   3.823   7.032 -0.5153 -0.7622  0.3540
    9MOL0     C 1111   7.813   3.947   7.089  0.7811 -0.4939 -0.5008
    9MOL0     C 1112   7.755   3.979   7.209 -0.9319 -0.4323  0.0303
    9MOL0     C 1113   7.646   3.910   7.265  0.1870  0.3951  0.3678
    9MOL0     O 1114   7.596   3.954   7.384  0.5106 -0.0105 -0.3779
    9MOL0     C 1115   7.465   3.904   7.423 -0.2702  0.1801  0.0417
    9MOL0     C 1116   7.436   3.954   7.565 -0.5241 -0.1225  0.4000
    9MOL0     C 1117   7.546   3.935   7.672 -0.1439  0.2312 -0.5180
    9MOL0     C 1118   7.492   3.995   7.807  0.4967 -0.1353 -0.5459
    9MOL0     C 1119   7.466   4.133   7.801 -0.5066 -0.3250 -0.5511
    9MOL0     C 1120   7.434   4.250   7.815  0.3037  0.0593 -0.1655
    9MOL0     C 1121   7.598   3.802   7.200  0.3611 -1.1340  0.3448
    9MOL0     C 1122   7.668   3.760   7.085  2.2489  0.0596 -0.6717
    9MOL0     H 1123   8.184   3.852   6.816  1.4419 -1.0248 -1.3465
    9MOL0     H 1124   8.316   3.818   6.638  0.2764  1.4395  0.8731
    9MOL0     H 1125   8.217   3.598   6.269 -1.0044  1.5858  0.4914
    9MOL0     H 1126   8.273   3.585   6.445  0.4171 -0.3689  0.5420
    9MOL0     H 1127   8.457   3.733   6.386  2.4026  0.3260 -1.5067
    9MOL0     H 1128   8.409   3.744   6.216 -2.2461  0.8889 -0.1073
    9MOL0     H 1129   8.466   3.478   6.354 -2.4575 -0.4716 -0.3453
    9MOL0     H 1130   8.597   3.581   6.295  0.4690  0.0007 -1.5916
    9MOL0     H 1131   8.371   3.455   6.132  1.6259 -3.8424  1.1708
    9MOL0     H 1132   8.459   3.595   6.069 -3.3984 -1.0848 -1.8717
    9MOL0     H 1133   8.676   3.464   6.076 -0.1999 -0.2371  2.3045
    9MOL0     H 1134   8.551   3.400   5.969  2.8008  0.2325 -1.2110
    9MOL0     H 1135   8.495   3.228   6.130 -0.1245 -0.1497 -2.3661
    9MOL0     H 1136   8.648   3.286   6.226  1.6631 -1.9154 -0.8600
    9MOL0     H 1137   8.647   3.198   5.927  1.7759  0.5682 -0.6921
    9MOL0     H 1138   8.788   3.213   6.042 -0.0990  0.4180 -1.0377
    9MOL0     H 1139   8.784   3.002   6.003  0.3647  1.4009  0.8983
    9MOL0     H 1140   8.614   2.990   6.024 -0.6141  3.3601 -3.7216
    9MOL0     H 1141   8.944   3.021   6.257  0.7770  0.6785  1.5114
    9MOL0     H 1142   8.859   2.994   6.607 -0.9096  0.3945 -1.1785
    9MOL0     H 1143   8.999   2.973   6.509 -0.1569  1.5515 -0.3124
    9MOL0     H 1144   8.799   2.750   6.545  0.3437 -0.1525  0.3368
    9MOL0     H 1145   8.963   2.775   6.619  2.2004  0.7754 -1.3795
    9MOL0     H 1146   8.920   2.619   6.425  0.0333 -0.3402  0.5634
    9MOL0     H 1147   8.914   2.761   6.318  1.6971 -2.7410 -1.4705
    9MOL0     H 1148   9.148   2.818   6.404 -1.5221  0.6069  0.2945
    9MOL0     H 1149   9.128   2.658   6.330  2.9318  2.7050 -0.9723
    9MOL0     H 1150   9.256   2.672   6.765 -2.7677  2.5934 -2.0865
    9MOL0     H 1151   9.496   2.644   6.832  3.9744  3.2074 -0.0098
    9MOL0     H 1152   9.876   2.439   6.782  0.0911 -0.5434  0.7770
    9MOL0     H 1153  10.120   2.415   6.783  1.8936  0.5990 -0.7732
    9MOL0     H 1154  10.339   2.384   6.839 -0.2135 -0.2521 -0.0523
    9MOL0     H 1155  10.262   2.404   6.996 -3.5278  3.0463 -0.7315
    9MOL0     H 1156  10.476   2.538   7.066  3.0357 -1.0271  2.4968
    9MOL0     H 1157  10.535   2.494   6.908  0.7687  0.8718  1.7414
    9MOL0     H 1158  10.530   2.257   6.963 -0.5841  2.4650 -1.9917
    9MOL0     H 1159  10.431   2.289   7.107 -0.0477 -0.1571  0.7354
    9MOL0     H 1160  10.717   2.385   7.089 -0.1339 -0.5409 -0.6121
    9MOL0     H 1161  10.599   2.378   7.225  0.2018 -0.2304  0.6082
    9MOL0     H 1162  10.743   2.146   7.073 -0.9847 -0.8306 -0.9577
    9MOL0     H 1163  10.606   2.115   7.176  1.1307 -1.9815 -1.3827
    9MOL0     H 1164  10.715   2.221   7.368  0.6695 -1.6098  1.4631
    9MOL0     H 1165  10.849   2.260   7.269  0.2639 -0.5382 -1.1729
    9MOL0     H 1166  10.866   2.003   7.232 -0.7636  1.2917 -2.1141
    9MOL0     H 1167  10.926   2.069   7.378 -1.2167 -2.4167  1.3153
    9MOL0     H 1168  10.798   1.871   7.429 -1.7799 -1.1954 -2.9411
    9MOL0     H 1169  10.649   1.919   7.355  0.9033 -0.5253 -0.9704
    9MOL0     H 1170  10.160   2.798   6.974  0.9260  0.1083 -0.0041
    9MOL0     H 1171   9.906   2.838   6.925 -0.9497 -0.8787 -1.2111
    9MOL0     H 1172   9.603   2.775   6.449  0.5392 -0.1566 -0.0631
    9MOL0     H 1173   9.366   2.758   6.373 -1.5940  0.8910  0.9625
    9MOL0     H 1174   7.949   3.766   6.398 -1.1983 -3.1170  1.6121
    9MOL0     H 1175   7.815   3.811   6.576  0.4264  1.3173 -2.6710
    9MOL0     H 1176   7.895   4.004   7.046 -1.8678  0.5792 -4.7308
    9MOL0     H 1177   7.796   4.056   7.274  0.6875 -1.8159  0.7285
    9MOL0     H 1178   7.471   3.795   7.420  2.2987  0.2367  0.6340
    9MOL0     H 1179   7.384   3.928   7.354  0.9080  0.3590 -1.3147
    9MOL0     H 1180   7.423   4.063   7.560  1.8396  0.2743  1.3520
    9MOL0     H 1181   7.342   3.914   7.603 -1.0605  0.8001  0.0856
    9MOL0     H 1182   7.639   3.985   7.643 -0.1829  1.3496  1.1724
    9MOL0     H 1183   7.575   3.832   7.693  2.2223 -0.3566 -5.1703
    9MOL0     H 1184   7.397   3.948   7.835 -0.1431  1.8273  0.8379
    9MOL0     H 1185   7.570   3.977   7.881  0.1477  0.7253  0.0529
    9MOL0     H 1186   7.387   4.346   7.821 -1.1091 -0.6559  0.4610
    9MOL0     H 1187   7.506   3.746   7.212 -1.6669  1.5910 -1.2313
    9MOL0     H 1188   7.635   3.683   7.016 -1.5171  1.0813 -0.1828
   10MOL0     O 1189   4.378   5.832   8.315  0.1079 -0.3903  0.5631
   10MOL0     C 1190   4.328   5.856   8.425 -0.4269  0.5172  0.1308
   10MOL0     O 1191   4.393   5.921   8.526 -0.0216  0.5825  1.2482
   10MOL0     C 1192   4.519   5.980   8.501  0.4086  0.3840  0.1539
   10MOL0     C 1193   4.557   6.059   8.391  0.0948 -0.9586 -0.3694
   10MOL0     C 1194   4.684   6.118   8.381  1.3637  0.6992 -0.1245
   10MOL0     C 1195   4.777   6.087   8.477  0.1681 -0.5310  0.1044
   10MOL0     O 1196   4.901   6.144   8.470  1.0300 -0.5384 -1.1732
   10MOL0     C 1197   5.008   6.058   8.424  0.2805  0.0490  0.2111
   10MOL0     C 1198   5.112   6.149   8.352  0.2019  0.2231 -0.9769
   10MOL0     C 1199   5.176   6.251   8.447 -0.4366  0.9159 -0.0746
   10MOL0     C 1200   5.329   6.284   8.416  0.1544 -0.1863  0.5018
   10MOL0     C 1201   5.423   6.223   8.511 -0.2501 -1.3440 -0.8482
   10MOL0     C 1202   5.557   6.306   8.517 -0.1999  1.1602 -0.0171
   10MOL0     C 1203   5.643   6.245   8.631 -0.6561  0.4880  0.1410
   10MOL0     C 1204   5.793   6.291   8.607  0.0296  0.4593 -0.7336
   10MOL0     N 1205   5.886   6.276   8.717  0.2125 -0.1093  0.4261
   10MOL0     C 1206   5.860   6.189   8.820 -0.6657  0.9631  0.6815
   10MOL0     C 1207   5.970   6.183   8.899 -0.8224  1.0118 -0.0117
   10MOL0     C 1208   5.997   6.106   9.026 -0.6461 -0.0513  0.5729
   10MOL0     C 1209   6.022   6.200   9.157  0.5380  0.1602 -0.4637
   10MOL0     C 1210   6.024   6.119   9.296  0.1444  0.5847  0.3779
   10MOL0     C 1211   5.904   6.035   9.333  0.7525 -0.0591  0.3458
   10MOL0     O 1212   5.785   6.122   9.354  0.4370  0.1674 -0.2775
   10MOL0     C 1213   5.669   6.060   9.381  0.5026  0.4171 -0.3222
   10MOL0     C 1214   5.585   6.025   9.281 -0.0534 -0.4438 -1.6179
   10MOL0     C 1215   5.462   5.968   9.308  0.5332  0.7872  0.3633
   10MOL0     C 1216   5.421   5.940   9.444  1.3745  0.1299  0.1951
   10MOL0     C 1217   5.289   5.900   9.483  0.9578  0.3601  0.1713
   10MOL0     O 1218   5.188   5.901   9.384 -0.6037  1.0531  0.0220
   10MOL0     C 1219   5.051   5.887   9.411  0.0857 -0.1291  0.2374
   10MOL0     C 1220   4.970   5.804   9.328  0.6441 -0.7959  1.0379
   10MOL0     C 1221   4.840   5.782   9.356 -0.5860 -1.2616 -0.3885
   10MOL0     C 1222   4.781   5.842   9.471  0.2455 -0.4340  0.1473
   10MOL0     O 1223   4.647   5.816   9.504 -0.1762 -0.2178 -0.1364
   10MOL0     C 1224   4.562   5.795   9.392  0.9160  0.7939  1.2462
   10MOL0     C 1225   4.421   5.757   9.450 -0.3861 -0.3499 -0.6522
   10MOL0     C 1226   4.314   5.751   9.328 -0.6006  0.0366  0.0928
   10MOL0     C 1227   4.188   5.694   9.396 -0.3420  0.0710 -0.1106
   10MOL0     C 1228   4.078   5.686   9.292  0.3368  0.6790  0.2238
   10MOL0     C 1229   3.961   5.614   9.351  0.5163  0.3230 -0.3247
   10MOL0     C 1230   3.835   5.627   9.259 -0.4484 -0.0571 -0.0954
   10MOL0     C 1231   3.711   5.554   9.312 -0.8756  0.1783  0.4648
   10MOL0    Cl 1232   3.634   5.634   9.450  0.2219  0.2891 -0.4612
   10MOL0     C 1233   4.867   5.921   9.548 -0.0200 -0.1162 -1.0884
   10MOL0     C 1234   5.001   5.945   9.523  0.5047 -0.2783 -0.5063
   10MOL0     O 1235   5.274   5.883   9.605 -0.1743 -0.3797  0.2817
   10MOL0     C 1236   5.512   5.961   9.544 -1.3264 -0.1077 -0.5967
   10MOL0     C 1237   5.638   6.021   9.521  0.2273  0.0285 -0.6894
   10MOL0     N 1238   6.056   6.268   8.842 -0.2141 -0.8021 -0.2370
   10MOL0     N 1239   6.015   6.326   8.730  0.0074  0.5802  0.6282
   10MOL0     C 1240   4.751   5.991   8.572  0.2773 -0.4966 -0.7687
   10MOL0     C 1241   4.626   5.950   8.587  1.0010  0.6537 -0.0065
   10MOL0     C 1242   4.196   5.796   8.462 -0.5013 -0.8072  0.5027
   10MOL0     C 1243   4.116   5.722   8.372 -0.2268 -0.4824  0.1719
   10MOL0     C 1244   3.999   5.659   8.412  0.1597  0.2802 -0.9114
   10MOL0     C 1245   3.956   5.675   8.548  0.4968 -0.0865  0.3107
   10MOL0     O 1246   3.837   5.596   8.563  0.0157 -0.6575  0.3080
   10MOL0     C 1247   3.773   5.575   8.692 -0.3873 -0.2688 -0.6936
   10MOL0     C 1248   3.851   5.478   8.788 -1.0916  0.9789 -0.3950
   10MOL0     C 1249   3.755   5.404   8.890  0.3356  0.1288 -0.7939
   10MOL0     C 1250   3.834   5.327   9.005 -1.0303 -0.4263 -0.4414
   10MOL0     C 1251   3.751   5.270   9.108  0.5447  0.0315  0.3893
   10MOL0     C 1252   3.673   5.234   9.203 -0.2069  0.2559  0.8493
   10MOL0     C 1253   4.022   5.759   8.638 -0.4808  1.3382  0.0267
   10MOL0     C 1254   4.139   5.821   8.593  0.4123  0.6951 -0.2009
   10MOL0     H 1255   4.477   6.080   8.321 -0.6581 -0.1793  0.7042
   10MOL0     H 1256   4.702   6.182   8.295 -1.9853 -0.0369 -1.5587
   10MOL0     H 1257   4.967   5.993   8.346 -0.6417  0.8703 -0.0229
   10MOL0     H 1258   5.056   5.998   8.501 -3.1705  0.0478  2.5939
   10MOL0     H 1259   5.062   6.209   8.276 -0.1822  2.2687  0.7904
   10MOL0     H 1260   5.187   6.074   8.324 -0.1599 -0.5491  0.0878
   10MOL0     H 1261   5.177   6.207   8.547  0.0315  1.3902  0.1342
   10MOL0     H 1262   5.113   6.341   8.450  0.5160  1.6917 -1.8177
   10MOL0     H 1263   5.365   6.255   8.317 -0.0024 -0.0358  0.4004
   10MOL0     H 1264   5.339   6.392   8.430  1.1838 -0.4696  2.2712
   10MOL0     H 1265   5.441   6.126   8.464  3.1061 -0.6407 -1.2570
   10MOL0     H 1266   5.383   6.213   8.612 -0.9035 -1.1459 -1.0813
   10MOL0     H 1267   5.530   6.408   8.545  2.3620  1.6825  0.8145
   10MOL0     H 1268   5.613   6.300   8.424  2.3215 -0.8723  1.5031
   10MOL0     H 1269   5.599   6.268   8.728  0.3712 -0.8994  0.9799
   10MOL0     H 1270   5.634   6.137   8.613  1.4800  0.3713 -0.5169
   10MOL0     H 1271   5.809   6.392   8.570  4.1440  0.1033 -0.4141
   10MOL0     H 1272   5.840   6.238   8.524  5.1024  1.7293  0.9455
   10MOL0     H 1273   5.770   6.130   8.840 -1.0970  0.9095 -1.2777
   10MOL0     H 1274   6.081   6.036   9.013 -1.9549 -1.6731  0.4531
   10MOL0     H 1275   5.912   6.037   9.034 -0.8459 -0.0694 -1.2897
   10MOL0     H 1276   5.947   6.280   9.160 -0.7460 -0.9370 -1.6878
   10MOL0     H 1277   6.114   6.259   9.145 -0.2280  1.4771 -0.1353
   10MOL0     H 1278   6.101   6.041   9.303 -2.6008 -2.3003  1.2707
   10MOL0     H 1279   6.038   6.185   9.382  2.6285 -0.7143  1.0589
   10MOL0     H 1280   5.934   5.974   9.418  0.7874 -0.1408  0.2749
   10MOL0     H 1281   5.880   5.972   9.246 -0.7290 -1.3395  1.6216
   10MOL0     H 1282   5.608   6.050   9.178  2.3215 -0.4532 -1.1592
   10MOL0     H 1283   5.390   5.944   9.231  0.8415 -3.6372  1.1963
   10MOL0     H 1284   5.014   5.752   9.243 -0.8040 -0.0368 -0.2211
   10MOL0     H 1285   4.784   5.715   9.291 -1.1759 -1.7132  0.5565
   10MOL0     H 1286   4.593   5.708   9.332  1.4386  2.2167 -0.6502
   10MOL0     H 1287   4.554   5.885   9.330 -0.4041 -0.2520 -0.1979
   10MOL0     H 1288   4.395   5.837   9.520  0.2487  0.6827 -1.5655
   10MOL0     H 1289   4.416   5.660   9.500 -2.1592  0.7313  1.4332
   10MOL0     H 1290   4.345   5.698   9.238 -1.1188 -1.1896  0.6166
   10MOL0     H 1291   4.298   5.856   9.299  0.0784  0.8833  2.5020
   10MOL0     H 1292   4.215   5.592   9.427  3.6946  0.8207 -0.5275
   10MOL0     H 1293   4.167   5.766   9.476  1.6423  1.8472 -1.0952
   10MOL0     H 1294   4.117   5.633   9.204 -0.4670 -1.3934  1.0553
   10MOL0     H 1295   4.058   5.782   9.244  1.0620  0.6669 -0.1227
   10MOL0     H 1296   3.944   5.644   9.455 -0.6151 -1.4566  0.0578
   10MOL0     H 1297   3.978   5.506   9.339  0.2186  0.5731 -4.0416
   10MOL0     H 1298   3.814   5.733   9.242 -0.5010 -0.5546 -3.8723
   10MOL0     H 1299   3.854   5.579   9.163  1.1020  0.5550 -0.1328
   10MOL0     H 1300   3.729   5.448   9.330 -1.2793 -0.7947 -3.7688
   10MOL0     H 1301   3.632   5.565   9.237 -1.1531  0.0898  0.7421
   10MOL0     H 1302   4.839   5.985   9.632  0.3364 -0.7687 -0.4577
   10MOL0     H 1303   5.058   6.000   9.597 -0.1852 -0.1494 -0.0523
   10MOL0     H 1304   5.489   5.931   9.646  1.9459  2.8206  1.2445
   10MOL0     H 1305   5.720   6.040   9.589  2.4633 -0.4815 -3.0774
   10MOL0     H 1306   4.837   5.960   8.632  0.9752  3.7276  0.7581
   10MOL0     H 1307   4.600   5.889   8.673  3.0252 -1.4979 -0.8159
   10MOL0     H 1308   4.139   5.705   8.267 -0.7619  0.5110 -0.1203
   10MOL0     H 1309   3.926   5.616   8.344 -0.9219 -0.1751  0.4891
   10MOL0     H 1310   3.672   5.536   8.680 -0.7031 -0.7029  2.4308
   10MOL0     H 1311   3.759   5.670   8.744  0.6434  0.1714 -1.1931
   10MOL0     H 1312   3.882   5.398   8.721 -2.6465 -1.2126  1.3288
   10MOL0     H 1313   3.932   5.526   8.844 -1.4965  0.7081  0.4345
   10MOL0     H 1314   3.697   5.326   8.840 -0.2231 -1.2212  1.7716
   10MOL0     H 1315   3.694   5.488   8.925  1.0914  1.5955 -2.8528
   10MOL0     H 1316   3.893   5.248   8.957 -0.8489  0.2781 -1.4015
   10MOL0     H 1317   3.908   5.394   9.051 -0.5725  1.0962 -3.1795
   10MOL0     H 1318   3.602   5.191   9.271 -2.1929 -1.1872 -1.8977
   10MOL0     H 1319   3.988   5.778   8.739  1.7329  0.1553  1.0672
   10MOL0     H 1320   4.184   5.894   8.658  2.3582 -0.7431  0.1378
   11MOL0     O 1321   2.299   0.259   2.344  0.0391 -0.2340  0.2653
   11MOL0     C 1322   2.378   0.231   2.252  0.5948  0.6624 -0.4022
   11MOL0     O 1323   2.382   0.111   2.189  1.0216 -0.4493  0.3406
   11MOL0     C 1324   2.303   0.011   2.237 -0.4532 -1.1890 -0.2632
   11MOL0     C 1325   2.371  -0.107   2.282 -0.5458 -0.4876 -0.5859
   11MOL0     C 1326   2.297  -0.218   2.312  0.0657  0.0656 -0.6439
   11MOL0     C 1327   2.156  -0.213   2.322 -0.2861 -0.1100  0.4860
   11MOL0     O 1328   2.077  -0.311   2.375  0.0714 -0.2260  0.4490
   11MOL0     C 1329   2.110  -0.443   2.340 -0.7113  0.2176 -0.3219
   11MOL0     C 1330   1.998  -0.535   2.385 -0.6566 -0.0530 -0.0406
   11MOL0     C 1331   2.021  -0.682   2.357 -0.4358 -0.2673  0.5948
   11MOL0     C 1332   1.911  -0.765   2.419  0.7868 -0.1558 -0.5194
   11MOL0     C 1333   1.936  -0.919   2.439  0.9746 -0.8604  0.3972
   11MOL0     C 1334   2.068  -0.963   2.500  0.3201 -0.5170 -0.3743
   11MOL0     C 1335   2.050  -1.094   2.578 -0.5212 -0.0296  0.1749
   11MOL0     C 1336   2.027  -1.063   2.717 -0.1099 -0.2566 -0.3991
   11MOL0     N 1337   2.007  -1.184   2.798 -0.0102 -0.7773  0.2559
   11MOL0     C 1338   2.100  -1.236   2.877  0.1064  0.2355 -0.3534
   11MOL0     C 1339   2.027  -1.329   2.949  0.1683 -0.5698  0.3615
   11MOL0     C 1340   2.084  -1.413   3.061  0.1918 -0.9347 -1.0993
   11MOL0     C 1341   2.171  -1.532   3.014 -0.9591 -0.7367 -1.0432
   11MOL0     C 1342   2.258  -1.597   3.120  1.1596  0.3971 -0.1539
   11MOL0     C 1343   2.176  -1.689   3.216  0.0220 -0.3695  1.1771
   11MOL0     O 1344   2.242  -1.809   3.249 -0.3843  0.4195  0.1812
   11MOL0     C 1345   2.355  -1.796   3.325  0.5101  0.5747  0.0079
   11MOL0     C 1346   2.406  -1.922   3.361  0.7219  0.9863  0.4524
   11MOL0     C 1347   2.530  -1.946   3.426  0.4437 -0.2698  0.7923
   11MOL0     C 1348   2.609  -1.829   3.466  0.6461 -0.3465 -0.1512
   11MOL0     C 1349   2.740  -1.846   3.542  0.0233 -0.1055 -0.1142
   11MOL0     O 1350   2.798  -1.968   3.561  0.8658  0.1954 -0.4883
   11MOL0     C 1351   2.916  -1.991   3.619 -0.6138 -0.1456  0.1313
   11MOL0     C 1352   3.029  -1.926   3.583 -0.1113 -0.4678 -0.0848
   11MOL0     C 1353   3.154  -1.949   3.642  0.2725  0.5273  0.5133
   11MOL0     C 1354   3.163  -2.044   3.743  0.6111  0.6902 -0.4611
   11MOL0     O 1355   3.286  -2.058   3.789 -0.1594  0.8082 -0.5294
   11MOL0     C 1356   3.314  -2.158   3.894  0.3176 -0.2866 -0.1889
   11MOL0     C 1357   3.457  -2.158   3.935  0.1631 -0.1522 -0.3101
   11MOL0     C 1358   3.538  -2.241   3.830 -0.2972  0.4671  0.7592
   11MOL0     C 1359   3.682  -2.223   3.859 -0.7171 -0.1964 -0.1731
   11MOL0     C 1360   3.767  -2.322   3.777  0.5285  1.1514  0.7360
   11MOL0     C 1361   3.914  -2.298   3.796  0.9727  0.6566  0.2655
   11MOL0     C 1362   3.986  -2.429   3.775 -0.7828 -0.0052  0.6400
   11MOL0     C 1363   4.127  -2.407   3.826 -0.3565  0.0809 -0.4152
   11MOL0    Cl 1364   4.242  -2.438   3.685 -0.1371 -0.1974  0.1320
   11MOL0     C 1365   3.046  -2.125   3.782  0.0680 -0.2799  0.1273
   11MOL0     C 1366   2.931  -2.090   3.717  0.1657 -0.0682 -0.0356
   11MOL0     O 1367   2.793  -1.733   3.572 -0.5369  0.6551  0.5433
   11MOL0     C 1368   2.553  -1.699   3.440  0.2617  0.2342  0.8437
   11MOL0     C 1369   2.419  -1.684   3.373  0.5644 -0.1421 -0.4065
   11MOL0     N 1370   1.893  -1.321   2.918 -0.2880 -1.1294  0.1037
   11MOL0     N 1371   1.885  -1.231   2.824  0.4977 -0.7011 -0.0993
   11MOL0     C 1372   2.088  -0.099   2.272 -0.3444  1.1020  0.5214
   11MOL0     C 1373   2.160   0.013   2.233  0.2437 -0.2102  0.9463
   11MOL0     C 1374   2.473   0.343   2.215  0.0798 -0.2762  0.7639
   11MOL0     C 1375   2.559   0.317   2.097 -0.2663 -0.8480 -0.1046
   11MOL0     C 1376   2.637   0.423   2.054 -0.8355 -0.5062 -0.1159
   11MOL0     C 1377   2.630   0.551   2.109 -0.0729 -0.1615  0.1429
   11MOL0     O 1378   2.712   0.645   2.053  0.7214 -0.0511  1.2729
   11MOL0     C 1379   2.706   0.783   2.090 -0.9161  0.0322 -0.0333
   11MOL0     C 1380   2.850   0.823   2.146 -0.7324 -0.9029  0.7931
   11MOL0     C 1381   2.872   0.984   2.144 -0.4392  0.6365  0.1164
   11MOL0     C 1382   2.886   1.046   2.007  0.5777 -1.2303  0.8987
   11MOL0     C 1383   2.929   1.188   2.017  0.2223  0.2336  0.7724
   11MOL0     C 1384   2.960   1.299   2.041 -0.5237 -0.4477  0.2860
   11MOL0     C 1385   2.545   0.574   2.216 -0.3857 -0.2773  1.4084
   11MOL0     C 1386   2.474   0.472   2.268  0.2264  0.4184 -0.8439
   11MOL0     H 1387   2.480  -0.108   2.286 -0.5100 -3.6365  0.5793
   11MOL0     H 1388   2.351  -0.310   2.333 -1.2646 -0.7056 -0.4724
   11MOL0     H 1389   2.210  -0.479   2.366 -0.0714 -1.0862 -4.0359
   11MOL0     H 1390   2.129  -0.449   2.233 -0.0851 -1.2416 -0.1470
   11MOL0     H 1391   1.902  -0.507   2.342 -2.5959 -0.8056  3.4584
   11MOL0     H 1392   2.002  -0.523   2.494  4.4346  1.3114 -0.1146
   11MOL0     H 1393   2.120  -0.708   2.396  0.1139  1.4201  0.4158
   11MOL0     H 1394   2.029  -0.700   2.250 -3.1882 -1.4639  0.4973
   11MOL0     H 1395   1.882  -0.725   2.517  1.3771  1.2380 -0.8816
   11MOL0     H 1396   1.829  -0.758   2.346  1.5548  1.1383 -1.3021
   11MOL0     H 1397   1.935  -0.957   2.336  0.6158  0.6119 -0.1677
   11MOL0     H 1398   1.847  -0.953   2.494  0.6475  0.9099  1.0407
   11MOL0     H 1399   2.084  -0.877   2.565  1.2242  0.3107 -1.6546
   11MOL0     H 1400   2.141  -0.980   2.420  0.2595 -1.6054 -0.2198
   11MOL0     H 1401   1.956  -1.145   2.557 -0.5275  0.7993 -2.1218
   11MOL0     H 1402   2.142  -1.153   2.571  0.4664  1.4733 -0.1214
   11MOL0     H 1403   1.941  -0.995   2.724 -3.1658 -3.9185  2.8135
   11MOL0     H 1404   2.113  -1.002   2.744 -0.5213  0.1111  0.1202
   11MOL0     H 1405   2.208  -1.227   2.883  0.1142 -0.6777  2.1821
   11MOL0     H 1406   1.998  -1.430   3.126  0.8061  3.6654  1.3410
   11MOL0     H 1407   2.144  -1.352   3.129 -4.4531  2.2777  0.5876
   11MOL0     H 1408   2.243  -1.478   2.952 -1.5112  3.8408  1.7837
   11MOL0     H 1409   2.111  -1.605   2.959  0.9986 -0.7087 -3.4241
   11MOL0     H 1410   2.334  -1.659   3.071  3.7864  0.7271  3.1881
   11MOL0     H 1411   2.312  -1.522   3.178  0.0974  0.4000  0.8704
   11MOL0     H 1412   2.076  -1.705   3.175  0.8959  0.9485 -1.7614
   11MOL0     H 1413   2.165  -1.634   3.309 -1.5664  1.4309 -0.0031
   11MOL0     H 1414   2.352  -2.013   3.339  2.1338  0.3942 -0.7791
   11MOL0     H 1415   2.558  -2.050   3.437  0.2334 -0.8014 -2.7073
   11MOL0     H 1416   3.013  -1.842   3.515 -1.6128 -2.3186 -2.1645
   11MOL0     H 1417   3.241  -1.894   3.610  0.2442 -0.5397 -1.5193
   11MOL0     H 1418   3.307  -2.261   3.857  2.3545  0.2725 -2.3245
   11MOL0     H 1419   3.265  -2.133   3.989 -0.4040  0.4677 -0.7510
   11MOL0     H 1420   3.475  -2.199   4.035 -0.5475 -2.3512 -1.0147
   11MOL0     H 1421   3.486  -2.053   3.942 -0.8938  0.1021  0.5156
   11MOL0     H 1422   3.514  -2.194   3.734 -1.2332  2.2379  1.8111
   11MOL0     H 1423   3.516  -2.347   3.845 -0.9968  0.7043  1.5129
   11MOL0     H 1424   3.706  -2.116   3.851 -0.4638 -0.0756  1.6079
   11MOL0     H 1425   3.686  -2.233   3.968 -4.5055  2.6573  0.4223
   11MOL0     H 1426   3.744  -2.309   3.671  0.4066 -1.5451  0.3651
   11MOL0     H 1427   3.743  -2.428   3.794  1.2720  0.7492 -0.6379
   11MOL0     H 1428   3.946  -2.254   3.891  2.1381 -0.2090  0.2962
   11MOL0     H 1429   3.936  -2.235   3.710 -0.4350  0.6420 -0.1322
   11MOL0     H 1430   3.935  -2.508   3.831 -1.1170 -0.6613 -0.5686
   11MOL0     H 1431   3.987  -2.445   3.667  2.9203  1.6439  0.2415
   11MOL0     H 1432   4.157  -2.487   3.895 -0.5242 -5.2009 -5.7134
   11MOL0     H 1433   4.142  -2.304   3.860  0.8645  0.0727 -0.8729
   11MOL0     H 1434   3.052  -2.211   3.848 -2.1923 -2.2839 -2.0446
   11MOL0     H 1435   2.839  -2.143   3.740 -0.8174  1.6621  0.2568
   11MOL0     H 1436   2.607  -1.609   3.469 -1.7723  1.3798  1.3087
   11MOL0     H 1437   2.393  -1.579   3.365  2.4450  0.4465  0.5556
   11MOL0     H 1438   1.981  -0.102   2.260 -0.5055  1.0169  1.8425
   11MOL0     H 1439   2.110   0.105   2.204 -0.4529 -1.3481 -1.7492
   11MOL0     H 1440   2.577   0.220   2.052 -0.8729 -0.3470 -1.4613
   11MOL0     H 1441   2.715   0.402   1.982  1.3486  2.5519  1.1571
   11MOL0     H 1442   2.638   0.812   2.170  2.3192  1.6178  2.3862
   11MOL0     H 1443   2.683   0.851   2.007  1.7037  1.1308  0.0351
   11MOL0     H 1444   2.857   0.797   2.252 -1.6318  0.8367  1.3333
   11MOL0     H 1445   2.927   0.768   2.091  1.9642 -0.2342  3.6029
   11MOL0     H 1446   2.962   1.006   2.201 -0.0415  1.8326 -0.9313
   11MOL0     H 1447   2.793   1.038   2.197 -1.9346  3.3601 -4.3778
   11MOL0     H 1448   2.959   0.987   1.952  0.6091 -1.5283  1.2559
   11MOL0     H 1449   2.785   1.044   1.964 -1.5994  2.2318  5.0251
   11MOL0     H 1450   2.992   1.399   2.058 -0.9610  0.1099 -1.8442
   11MOL0     H 1451   2.532   0.675   2.255  2.7346  1.4132 -1.3515
   11MOL0     H 1452   2.416   0.494   2.357  2.6814  0.5635  0.8256
   12MOL0     O 1453   7.138   1.549   5.959  0.4140  0.7537 -0.6370
   12MOL0     C 1454   7.116   1.624   6.054 -0.7719 -0.4544 -0.3485
   12MOL0     O 1455   7.194   1.730   6.090  0.0101  0.6395 -0.6548
   12MOL0     C 1456   7.310   1.743   6.027  0.0428 -0.6457  0.0409
   12MOL0     C 1457   7.419   1.658   6.038 -0.5048  0.9337  0.8378
   12MOL0     C 1458   7.535   1.680   5.966  0.1475  0.0144  0.6283
   12MOL0     C 1459   7.548   1.787   5.876 -0.5710  0.0899  0.4391
   12MOL0     O 1460   7.661   1.799   5.805  0.7875  0.5737 -0.0091
   12MOL0     C 1461   7.728   1.684   5.754 -0.5371 -0.2532  0.4613
   12MOL0     C 1462   7.846   1.741   5.672 -0.6276  0.5302 -0.0323
   12MOL0     C 1463   7.941   1.641   5.626  0.0838 -0.8066 -0.5612
   12MOL0     C 1464   8.062   1.710   5.554  0.1298 -0.1012 -0.6963
   12MOL0     C 1465   8.160   1.607   5.515 -0.7690 -0.3245 -0.8040
   12MOL0     C 1466   8.117   1.513   5.403  0.2424 -0.3719 -0.0654
   12MOL0     C 1467   8.230   1.432   5.349  0.0326 -0.3164 -0.3882
   12MOL0     C 1468   8.193   1.329   5.248 -0.1324 -0.2999 -0.1597
   12MOL0     N 1469   8.096   1.379   5.152  0.0024 -0.5745 -0.5363
   12MOL0     C 1470   7.966   1.410   5.160 -0.4202 -0.1171  0.1288
   12MOL0     C 1471   7.936   1.484   5.043  0.8643  0.0189  0.5576
   12MOL0     C 1472   7.819   1.573   5.029  0.3625 -0.2436 -0.3095
   12MOL0     C 1473   7.846   1.696   5.113 -0.4397 -0.5311  0.6847
   12MOL0     C 1474   7.740   1.807   5.085 -0.2839  0.3841 -0.0397
   12MOL0     C 1475   7.763   1.926   5.183  1.0273 -0.8803  0.7380
   12MOL0     O 1476   7.706   1.908   5.313 -0.0361  0.1882  0.0428
   12MOL0     C 1477   7.570   1.921   5.324 -1.0631  0.6437 -0.9455
   12MOL0     C 1478   7.518   1.907   5.452  0.1140  0.6592  0.0884
   12MOL0     C 1479   7.386   1.910   5.480  0.7846 -0.1274  0.1058
   12MOL0     C 1480   7.294   1.915   5.375  1.1445 -0.2286 -0.3797
   12MOL0     C 1481   7.150   1.933   5.399 -0.3892  0.7628 -0.9021
   12MOL0     O 1482   7.111   1.919   5.533  0.0552  0.4753 -0.0152
   12MOL0     C 1483   6.983   1.954   5.575  0.0258  0.0326  0.5639
   12MOL0     C 1484   6.905   2.063   5.526  1.2676  0.6580 -0.6087
   12MOL0     C 1485   6.776   2.091   5.571  0.9655  0.0531 -0.0661
   12MOL0     C 1486   6.736   2.032   5.692  1.0226 -0.7183 -0.0147
   12MOL0     O 1487   6.608   2.053   5.739 -0.3377  0.3560 -0.7126
   12MOL0     C 1488   6.522   1.935   5.709  0.1830  0.2527  0.1838
   12MOL0     C 1489   6.389   1.973   5.781  0.4158  0.3820  0.4610
   12MOL0     C 1490   6.324   2.103   5.718 -0.3827 -0.3144 -0.6967
   12MOL0     C 1491   6.223   2.176   5.818  0.5703  0.2413 -0.2839
   12MOL0     C 1492   6.286   2.249   5.943 -0.3157  0.6407  0.2136
   12MOL0     C 1493   6.185   2.345   6.011 -0.8142  0.5594  0.0752
   12MOL0     C 1494   6.062   2.282   6.052 -0.1562  0.4637 -0.1372
   12MOL0     C 1495   5.976   2.398   6.117 -0.4503 -0.4186  0.1215
   12MOL0    Cl 1496   5.816   2.343   6.177  0.1941 -0.3786  0.0160
   12MOL0     C 1497   6.827   1.943   5.761  0.2309 -0.4863 -0.2859
   12MOL0     C 1498   6.949   1.905   5.701  0.2598 -0.7255  0.6752
   12MOL0     O 1499   7.078   1.949   5.298  1.0660 -0.0213 -0.3776
   12MOL0     C 1500   7.340   1.920   5.242  0.2182  0.3661 -0.3718
   12MOL0     C 1501   7.473   1.930   5.224 -0.3769 -0.4711  0.3349
   12MOL0     N 1502   8.045   1.476   4.957  0.4508  0.0661  0.4432
   12MOL0     N 1503   8.141   1.422   5.036 -0.0467  0.2430  0.1056
   12MOL0     C 1504   7.451   1.874   5.858  0.4460 -0.5379 -0.7006
   12MOL0     C 1505   7.330   1.853   5.934  1.0299 -0.8244 -0.1792
   12MOL0     C 1506   7.003   1.597   6.145 -0.4372  1.2675 -0.9327
   12MOL0     C 1507   6.945   1.684   6.223 -0.0183 -1.0425  0.1458
   12MOL0     C 1508   6.836   1.649   6.300 -0.1009  0.6342 -0.1360
   12MOL0     C 1509   6.779   1.523   6.297 -0.3136  0.1558  0.7861
   12MOL0     O 1510   6.657   1.486   6.369  1.0567 -0.0508  1.1424
   12MOL0     C 1511   6.680   1.467   6.514 -0.1608  0.2025 -0.0294
   12MOL0     C 1512   6.586   1.376   6.581  0.7341 -0.5355 -0.2742
   12MOL0     C 1513   6.612   1.235   6.532 -0.1320 -0.8685  0.2434
   12MOL0     C 1514   6.506   1.143   6.588 -0.9377  0.5200  0.4070
   12MOL0     C 1515   6.534   1.001   6.603  0.2154  0.8835 -0.0969
   12MOL0     C 1516   6.582   0.890   6.606  0.2735 -0.3442  0.4180
   12MOL0     C 1517   6.846   1.432   6.221  1.0295  0.5760  0.1373
   12MOL0     C 1518   6.959   1.461   6.149  1.1977 -0.2633  0.1023
   12MOL0     H 1519   7.420   1.568   6.097 -0.2029  1.1147  1.1130
   12MOL0     H 1520   7.621   1.619   5.992  0.8844 -0.1345 -1.8737
   12MOL0     H 1521   7.659   1.629   5.690 -1.7335  1.4706  0.1821
   12MOL0     H 1522   7.775   1.617   5.827 -0.9107 -1.3044 -0.2444
   12MOL0     H 1523   7.897   1.813   5.738 -0.0614 -0.2727  0.4220
   12MOL0     H 1524   7.808   1.790   5.582  2.9058 -0.0621 -2.0201
   12MOL0     H 1525   7.892   1.567   5.562 -0.9700 -2.1441  1.6627
   12MOL0     H 1526   7.980   1.583   5.711 -1.6754 -0.9318  0.1954
   12MOL0     H 1527   8.027   1.755   5.461 -0.9752 -0.8023 -0.6372
   12MOL0     H 1528   8.111   1.781   5.622  0.9700 -1.1951 -0.1321
   12MOL0     H 1529   8.193   1.547   5.601 -2.5931  1.3432  1.2000
   12MOL0     H 1530   8.236   1.674   5.475 -0.3645  0.6642  1.4526
   12MOL0     H 1531   8.087   1.577   5.319  0.2993 -1.1229 -0.6641
   12MOL0     H 1532   8.034   1.447   5.428 -0.7897  1.4390  1.5437
   12MOL0     H 1533   8.300   1.502   5.304 -1.0132  0.5870 -0.6503
   12MOL0     H 1534   8.289   1.381   5.426 -0.0008 -0.6418 -0.5777
   12MOL0     H 1535   8.151   1.245   5.304  1.0821 -0.6536  0.2619
   12MOL0     H 1536   8.279   1.292   5.191 -2.6030 -0.9887 -3.8423
   12MOL0     H 1537   7.909   1.407   5.253  0.4081  0.0190  0.6436
   12MOL0     H 1538   7.729   1.513   5.047  1.4328 -2.7622 -2.6448
   12MOL0     H 1539   7.812   1.604   4.925  1.6116  0.7021 -0.1272
   12MOL0     H 1540   7.950   1.726   5.093 -0.5241 -1.3992 -1.2672
   12MOL0     H 1541   7.859   1.668   5.218 -1.3238  0.4235  1.0608
   12MOL0     H 1542   7.765   1.840   4.983  0.0367  2.6384  0.7295
   12MOL0     H 1543   7.638   1.769   5.082 -0.2770  0.4027 -1.4182
   12MOL0     H 1544   7.717   2.011   5.133 -1.0152 -2.0152  0.5538
   12MOL0     H 1545   7.867   1.953   5.205  0.3256  4.5464 -1.1285
   12MOL0     H 1546   7.591   1.912   5.532 -0.8517  1.2654  0.9540
   12MOL0     H 1547   7.353   1.897   5.583 -2.4580 -1.6309 -0.9714
   12MOL0     H 1548   6.935   2.119   5.438 -1.3214  1.2109 -1.2108
   12MOL0     H 1549   6.700   2.152   5.523 -0.9631 -0.8283  1.6937
   12MOL0     H 1550   6.570   1.844   5.745  0.6298  0.5167  0.2662
   12MOL0     H 1551   6.524   1.921   5.601  1.6011 -0.2340  0.2577
   12MOL0     H 1552   6.407   1.991   5.887  4.0742 -1.1049  0.2613
   12MOL0     H 1553   6.315   1.893   5.768 -1.9434  2.5404 -0.1453
   12MOL0     H 1554   6.268   2.083   5.626 -1.7041  1.2523 -0.2958
   12MOL0     H 1555   6.398   2.176   5.684  1.0345 -2.4520 -2.4152
   12MOL0     H 1556   6.175   2.255   5.759  0.1072 -1.4695 -2.2978
   12MOL0     H 1557   6.132   2.122   5.844  0.5470  0.4257  0.0228
   12MOL0     H 1558   6.371   2.310   5.913  0.9248 -1.5262 -0.9713
   12MOL0     H 1559   6.325   2.185   6.023  1.2956  2.8544  1.2956
   12MOL0     H 1560   6.162   2.427   5.942 -0.1506  1.6764  1.1696
   12MOL0     H 1561   6.237   2.382   6.100 -1.6176 -0.0418  0.8060
   12MOL0     H 1562   6.010   2.234   5.969  1.5651 -3.2301  0.7156
   12MOL0     H 1563   6.083   2.201   6.122  4.8492 -0.5424 -2.3596
   12MOL0     H 1564   5.958   2.476   6.042  1.1436  0.3013  0.4570
   12MOL0     H 1565   6.035   2.419   6.206  2.0798 -2.7642 -0.8374
   12MOL0     H 1566   6.812   1.903   5.861  2.8710 -0.2728  0.2707
   12MOL0     H 1567   7.015   1.838   5.754  1.2295 -1.1746 -1.0288
   12MOL0     H 1568   7.276   1.921   5.155 -0.2176 -0.2066 -0.0663
   12MOL0     H 1569   7.511   1.937   5.122  0.9027 -3.3435  0.5131
   12MOL0     H 1570   7.467   1.954   5.787  0.4825 -1.2728 -1.5333
   12MOL0     H 1571   7.250   1.925   5.920 -0.5870 -2.2178  1.4757
   12MOL0     H 1572   6.977   1.786   6.207  1.6871 -1.4739  0.6579
   12MOL0     H 1573   6.789   1.726   6.360 -2.0441 -1.0370  0.5827
   12MOL0     H 1574   6.671   1.571   6.548  4.7747  0.3828  1.5700
   12MOL0     H 1575   6.780   1.432   6.540  0.6206  3.2259  1.5420
   12MOL0     H 1576   6.597   1.389   6.689  3.7126  2.6225 -0.7785
   12MOL0     H 1577   6.483   1.406   6.558  0.6038  0.1876  1.1776
   12MOL0     H 1578   6.711   1.194   6.555 -1.5902 -5.2738 -0.3125
   12MOL0     H 1579   6.597   1.225   6.424  2.8134 -0.4758 -0.2911
   12MOL0     H 1580   6.465   1.194   6.675 -2.1078 -0.2734  0.3550
   12MOL0     H 1581   6.418   1.156   6.524 -0.4582  2.7243  0.1196
   12MOL0     H 1582   6.611   0.787   6.607  1.0848 -0.1280  2.0282
   12MOL0     H 1583   6.791   1.338   6.220 -3.1887  2.7803 -0.4357
   12MOL0     H 1584   7.011   1.379   6.099  0.8256 -0.6534  0.3477
   13MOL0     O 1585   3.833   9.316   6.414 -0.0568  0.1306 -0.0834
   13MOL0     C 1586   3.888   9.211   6.379 -0.1765 -0.1265  0.7259
   13MOL0     O 1587   3.822   9.111   6.302  0.1069 -0.2163 -0.4754
   13MOL0     C 1588   3.683   9.107   6.305 -0.6925 -1.4063 -0.0327
   13MOL0     C 1589   3.592   9.148   6.407 -0.4339  0.7733  0.1170
   13MOL0     C 1590   3.452   9.142   6.387  0.0700  0.0072 -0.1486
   13MOL0     C 1591   3.395   9.085   6.279  0.3097 -0.9237  0.9731
   13MOL0     O 1592   3.261   9.072   6.241  0.4102 -0.0902 -0.2013
   13MOL0     C 1593   3.217   8.938   6.277  0.4425  0.3769 -0.2428
   13MOL0     C 1594   3.188   8.931   6.422  0.3574  0.0467 -0.4107
   13MOL0     C 1595   3.068   9.017   6.458  0.1986 -0.1546 -1.0277
   13MOL0     C 1596   3.067   9.041   6.612  1.5338 -0.3433 -0.0767
   13MOL0     C 1597   2.981   9.162   6.643  0.4478 -0.2836 -0.1945
   13MOL0     C 1598   2.964   9.198   6.791 -0.6063 -0.6212  0.0348
   13MOL0     C 1599   2.901   9.337   6.810  0.3211 -0.0211  0.3766
   13MOL0     C 1600   2.776   9.354   6.725  0.9758  0.3637 -0.4394
   13MOL0     N 1601   2.677   9.257   6.743  0.1876  0.5230  0.3179
   13MOL0     C 1602   2.648   9.182   6.853 -0.3703 -0.2039  1.1654
   13MOL0     C 1603   2.538   9.112   6.819 -0.5855  0.8483 -0.0604
   13MOL0     C 1604   2.496   8.994   6.897  0.5300  1.3323 -1.3112
   13MOL0     C 1605   2.595   8.880   6.887  0.0823 -0.2020 -0.0618
   13MOL0     C 1606   2.623   8.826   6.749  0.9190  0.6674  0.5771
   13MOL0     C 1607   2.634   8.670   6.754 -0.2055  1.0596  0.9341
   13MOL0     O 1608   2.737   8.639   6.840  0.7212  0.6494  0.2997
   13MOL0     C 1609   2.811   8.523   6.812 -0.1526  0.0365 -0.7309
   13MOL0     C 1610   2.945   8.514   6.852 -1.2306 -0.3927  0.2645
   13MOL0     C 1611   3.018   8.389   6.850 -0.0733 -0.0484 -0.2822
   13MOL0     C 1612   2.959   8.275   6.804  0.1076 -0.4080 -0.5805
   13MOL0     C 1613   3.039   8.151   6.816  0.6096 -1.0078  0.1168
   13MOL0     O 1614   3.140   8.149   6.907 -0.0523  0.6908  0.0570
   13MOL0     C 1615   3.195   8.024   6.928 -0.2889 -1.2039  0.0448
   13MOL0     C 1616   3.122   7.917   6.985  0.0199 -0.0446 -0.4395
   13MOL0     C 1617   3.183   7.794   7.018 -0.8514  0.2806 -1.2851
   13MOL0     C 1618   3.316   7.776   6.964 -0.0682 -0.4282  0.1184
   13MOL0     O 1619   3.380   7.654   6.974  1.2127  0.2887 -0.3827
   13MOL0     C 1620   3.309   7.538   7.019  0.3624  0.4620 -0.5125
   13MOL0     C 1621   3.391   7.408   7.001  0.6108 -0.5044  0.0356
   13MOL0     C 1622   3.502   7.394   7.103 -0.5199  0.1817 -0.5709
   13MOL0     C 1623   3.611   7.302   7.055 -1.0067 -0.1533  0.4605
   13MOL0     C 1624   3.742   7.310   7.136 -0.3631  0.0244  0.1131
   13MOL0     C 1625   3.718   7.258   7.273 -0.5340 -0.0669 -0.8093
   13MOL0     C 1626   3.834   7.261   7.366 -1.0365  0.5251  0.3759
   13MOL0     C 1627   3.929   7.129   7.368 -0.0141 -0.6369 -0.3573
   13MOL0    Cl 1628   4.058   7.169   7.499 -0.1144  0.3266 -0.6725
   13MOL0     C 1629   3.384   7.877   6.904  0.4762  0.5239  0.6565
   13MOL0     C 1630   3.324   8.003   6.891  0.0046 -0.4586  0.0753
   13MOL0     O 1631   2.991   8.052   6.756 -0.3885  0.1440  0.2973
   13MOL0     C 1632   2.830   8.289   6.759 -0.0396 -0.3987  0.3426
   13MOL0     C 1633   2.762   8.406   6.764  0.2899 -0.2267  1.0527
   13MOL0     N 1634   2.506   9.147   6.694  0.0898 -0.1905 -0.7921
   13MOL0     N 1635   2.583   9.230   6.649  1.1996 -0.5738 -0.3960
   13MOL0     C 1636   3.479   9.048   6.175 -0.3593  0.3387 -0.3035
   13MOL0     C 1637   3.617   9.061   6.195  0.4039  0.6077  0.0030
   13MOL0     C 1638   4.035   9.201   6.387 -0.1649 -0.1019  0.4900
   13MOL0     C 1639   4.111   9.120   6.302  0.1061 -0.1663  0.3431
   13MOL0     C 1640   4.252   9.119   6.318 -0.3518 -0.3101 -0.7512
   13MOL0     C 1641   4.301   9.195   6.426  0.3351  0.4166 -0.7490
   13MOL0     O 1642   4.433   9.169   6.456  1.4611 -0.0069  0.2476
   13MOL0     C 1643   4.523   9.274   6.445  0.0667 -0.6786 -1.1667
   13MOL0     C 1644   4.619   9.239   6.331  0.3098 -0.7822 -0.8321
   13MOL0     C 1645   4.556   9.233   6.190  0.1800 -0.4338 -0.5180
   13MOL0     C 1646   4.671   9.217   6.103 -0.5340 -0.4954 -0.2183
   13MOL0     C 1647   4.730   9.340   6.045  0.9989  0.5965 -0.8977
   13MOL0     C 1648   4.780   9.451   6.018  1.0507  0.0653  0.4551
   13MOL0     C 1649   4.226   9.277   6.514  0.3306  0.0104 -0.2438
   13MOL0     C 1650   4.093   9.272   6.493  0.2213 -0.3139  0.4205
   13MOL0     H 1651   3.633   9.185   6.501  0.2742 -1.2080  0.6457
   13MOL0     H 1652   3.386   9.167   6.469  0.7292 -0.1174  0.4265
   13MOL0     H 1653   3.290   8.868   6.235 -0.3623  0.1349 -1.2617
   13MOL0     H 1654   3.126   8.912   6.223  1.6160 -3.6991 -0.5559
   13MOL0     H 1655   3.271   8.958   6.488 -1.0062  0.2485  1.2999
   13MOL0     H 1656   3.170   8.828   6.453  2.3134  0.1813  1.3709
   13MOL0     H 1657   2.974   8.970   6.429 -1.1982  1.5232  0.5282
   13MOL0     H 1658   3.068   9.111   6.401 -0.3182  0.0613 -0.6770
   13MOL0     H 1659   3.029   8.946   6.651 -0.6857 -0.8647 -3.1287
   13MOL0     H 1660   3.170   9.047   6.647  2.1776 -0.6096 -1.8390
   13MOL0     H 1661   2.878   9.139   6.614  0.3599 -0.9278  0.5926
   13MOL0     H 1662   3.014   9.250   6.588  2.4591  0.4409  1.9943
   13MOL0     H 1663   3.064   9.195   6.836 -0.4616 -0.7253 -0.2863
   13MOL0     H 1664   2.897   9.132   6.846 -0.7271 -1.2754 -0.8804
   13MOL0     H 1665   2.879   9.359   6.914 -0.9914 -1.3945  0.4150
   13MOL0     H 1666   2.970   9.419   6.787 -1.4646  1.3082 -0.4769
   13MOL0     H 1667   2.808   9.336   6.622  2.6617 -2.5185  0.4824
   13MOL0     H 1668   2.717   9.445   6.741 -1.2475 -1.1786  0.7565
   13MOL0     H 1669   2.700   9.176   6.948 -0.5747 -2.3853  1.1867
   13MOL0     H 1670   2.412   8.949   6.843 -0.4634  1.0849  0.3788
   13MOL0     H 1671   2.463   9.028   6.996 -0.0476 -1.0513 -0.6393
   13MOL0     H 1672   2.565   8.804   6.960  0.3567 -1.1613 -0.9310
   13MOL0     H 1673   2.692   8.924   6.913 -0.9651  1.5373  1.1712
   13MOL0     H 1674   2.539   8.842   6.681  0.1953 -3.2042  0.3561
   13MOL0     H 1675   2.715   8.870   6.709  1.5224 -0.2141  0.9640
   13MOL0     H 1676   2.660   8.634   6.654 -0.1404  1.4761  0.7984
   13MOL0     H 1677   2.544   8.613   6.780 -0.1802  0.2284 -0.6629
   13MOL0     H 1678   2.993   8.595   6.904  0.2808 -1.1593  0.1095
   13MOL0     H 1679   3.121   8.389   6.883 -0.0153 -2.7834 -0.2193
   13MOL0     H 1680   3.016   7.926   7.005 -0.7841 -1.3693 -3.4422
   13MOL0     H 1681   3.133   7.720   7.081  0.9191 -0.0862 -0.2500
   13MOL0     H 1682   3.220   7.518   6.958 -0.4332 -2.1424  1.3186
   13MOL0     H 1683   3.289   7.548   7.125 -2.6812  2.3252 -1.1639
   13MOL0     H 1684   3.422   7.394   6.897  1.2985  1.9065 -0.1447
   13MOL0     H 1685   3.333   7.316   7.011  0.3021 -0.4871 -1.4082
   13MOL0     H 1686   3.468   7.343   7.194  2.4192  2.8291  2.2740
   13MOL0     H 1687   3.542   7.492   7.129 -0.3810 -0.3199  1.2725
   13MOL0     H 1688   3.572   7.202   7.033 -2.2167  0.3703  0.1744
   13MOL0     H 1689   3.628   7.336   6.953 -0.4188 -1.3785  0.1249
   13MOL0     H 1690   3.787   7.410   7.137  0.8653 -0.5026 -0.6372
   13MOL0     H 1691   3.819   7.249   7.089  1.9422  0.9595  2.4506
   13MOL0     H 1692   3.679   7.156   7.271 -2.9399  0.7695 -0.0861
   13MOL0     H 1693   3.633   7.319   7.305 -0.7210 -1.0013  0.5649
   13MOL0     H 1694   3.895   7.350   7.350  0.9192 -0.6492  0.9427
   13MOL0     H 1695   3.803   7.275   7.470  1.9212 -1.2005  1.6149
   13MOL0     H 1696   3.974   7.113   7.270 -1.0039 -2.4360 -0.5596
   13MOL0     H 1697   3.877   7.042   7.410  0.7593 -0.5634  0.8051
   13MOL0     H 1698   3.474   7.849   6.851 -2.4055 -0.8596 -4.2121
   13MOL0     H 1699   3.390   8.079   6.850  1.0564 -1.6051 -0.4134
   13MOL0     H 1700   2.770   8.204   6.727 -1.3220 -0.1384  1.9360
   13MOL0     H 1701   2.668   8.408   6.709 -0.1933  3.1506  1.7367
   13MOL0     H 1702   3.436   9.014   6.082  0.0533  4.2068 -2.1202
   13MOL0     H 1703   3.683   9.034   6.113  0.0599 -1.0678  0.2278
   13MOL0     H 1704   4.058   9.068   6.223 -2.8323  1.8584  0.7923
   13MOL0     H 1705   4.315   9.044   6.273  0.8311 -1.5403  2.6487
   13MOL0     H 1706   4.576   9.300   6.537 -1.4445  1.8111 -0.8793
   13MOL0     H 1707   4.469   9.367   6.422  1.1352  1.4448  3.7915
   13MOL0     H 1708   4.695   9.318   6.336 -0.7260  0.1485  1.1800
   13MOL0     H 1709   4.663   9.140   6.344 -0.9682 -1.6872 -2.8587
   13MOL0     H 1710   4.504   9.325   6.162  1.9982  1.0590  0.7165
   13MOL0     H 1711   4.500   9.140   6.177  2.6073 -1.8561 -1.3991
   13MOL0     H 1712   4.757   9.164   6.145 -0.7652 -0.8951 -0.2390
   13MOL0     H 1713   4.643   9.155   6.017  1.0753 -2.4206  0.5552
   13MOL0     H 1714   4.813   9.546   5.981 -0.6154  1.0698  1.4319
   13MOL0     H 1715   4.249   9.343   6.597 -3.1087  2.2547 -0.8700
   13MOL0     H 1716   4.029   9.337   6.553 -1.3214 -0.4825 -0.9678
   14MOL0     O 1717   6.627  11.418  10.709  0.9562  0.0156  0.4762
   14MOL0     C 1718   6.639  11.362  10.816  0.0295  0.2703 -0.9096
   14MOL0     O 1719   6.533  11.332  10.902  0.1680 -0.2336 -0.4013
   14MOL0     C 1720   6.410  11.395  10.876 -0.4821  0.5641 -0.2615
   14MOL0     C 1721   6.399  11.533  10.904 -0.0863 -0.5721  0.6287
   14MOL0     C 1722   6.273  11.595  10.906 -0.0307 -0.2756 -0.4654
   14MOL0     C 1723   6.154  11.513  10.881  0.4095 -0.3894 -0.0972
   14MOL0     O 1724   6.020  11.542  10.900 -0.5240 -0.2386  0.5986
   14MOL0     C 1725   5.978  11.676  10.905  0.0374  0.2465 -0.2188
   14MOL0     C 1726   5.835  11.662  10.943 -1.5776  0.0320 -0.1825
   14MOL0     C 1727   5.760  11.788  10.914  0.2030 -0.0073 -1.1133
   14MOL0     C 1728   5.615  11.790  10.969 -0.3326 -1.5772  0.4613
   14MOL0     C 1729   5.532  11.668  10.921 -0.4671  0.8871 -0.1929
   14MOL0     C 1730   5.511  11.656  10.769  0.7678 -0.2771  0.1291
   14MOL0     C 1731   5.429  11.775  10.717  0.3824 -0.2718  0.2536
   14MOL0     C 1732   5.530  11.878  10.641  0.8601 -1.0927 -0.2387
   14MOL0     N 1733   5.451  11.990  10.583 -0.2130  0.3952 -0.8389
   14MOL0     C 1734   5.333  12.041  10.635  0.0907  0.4979 -0.2638
   14MOL0     C 1735   5.296  12.138  10.553  0.1096 -0.9726  1.1238
   14MOL0     C 1736   5.172  12.226  10.547  0.9627 -0.8324 -0.7390
   14MOL0     C 1737   5.098  12.244  10.687 -0.1532 -0.9420  0.4936
   14MOL0     C 1738   5.165  12.322  10.808  0.0760 -0.6930 -0.0083
   14MOL0     C 1739   5.311  12.362  10.786 -1.1778  0.6676 -1.2369
   14MOL0     O 1740   5.401  12.265  10.840 -0.5947  0.6044 -0.2086
   14MOL0     C 1741   5.532  12.270  10.808  0.1155 -1.0896 -0.0642
   14MOL0     C 1742   5.584  12.346  10.704 -0.1112 -0.2319  0.8862
   14MOL0     C 1743   5.721  12.337  10.665  0.1777  0.5925 -0.8569
   14MOL0     C 1744   5.815  12.257  10.735  0.7140  0.7691 -1.1367
   14MOL0     C 1745   5.953  12.239  10.692 -0.0437 -0.4349  0.3311
   14MOL0     O 1746   5.991  12.114  10.713  0.5224 -0.0603  0.8219
   14MOL0     C 1747   6.109  12.055  10.674 -0.4670 -0.2105  0.2401
   14MOL0     C 1748   6.233  12.135  10.661 -0.2956  0.3316  0.5370
   14MOL0     C 1749   6.351  12.078  10.612 -0.1993  0.6403 -0.5143
   14MOL0     C 1750   6.365  11.936  10.603  0.4164  0.2692 -0.2345
   14MOL0     O 1751   6.491  11.874  10.575  1.0224  0.7460  0.0017
   14MOL0     C 1752   6.513  11.734  10.580  0.7774  0.0737 -0.6031
   14MOL0     C 1753   6.628  11.701  10.476  0.9703 -0.1695  0.1464
   14MOL0     C 1754   6.566  11.616  10.358  0.1688 -0.2405  0.6644
   14MOL0     C 1755   6.658  11.601  10.234  0.8868 -0.5692  0.5593
   14MOL0     C 1756   6.602  11.491  10.141 -0.7198  0.0453 -0.0645
   14MOL0     C 1757   6.693  11.466  10.016 -0.5126 -0.4721 -0.3812
   14MOL0     C 1758   6.687  11.579   9.912  0.2259  0.2944  0.0926
   14MOL0     C 1759   6.780  11.549   9.794  0.3453  0.2071 -0.2557
   14MOL0    Cl 1760   6.950  11.533   9.854 -0.3605  0.3194 -0.1303
   14MOL0     C 1761   6.254  11.860  10.636 -0.0784  0.0964  0.9300
   14MOL0     C 1762   6.126  11.918  10.660  0.9456 -0.1645 -0.1740
   14MOL0     O 1763   6.013  12.327  10.637 -0.3275  0.3598  0.6086
   14MOL0     C 1764   5.760  12.180  10.845 -0.4251 -0.1114 -0.4217
   14MOL0     C 1765   5.626  12.197  10.879  0.0122  0.5038 -0.0838
   14MOL0     N 1766   5.390  12.156  10.454  0.0007  0.0483  0.1013
   14MOL0     N 1767   5.479  12.071  10.478  0.3476  1.8364  0.5302
   14MOL0     C 1768   6.170  11.383  10.861 -0.1800  0.5099  0.1382
   14MOL0     C 1769   6.295  11.320  10.858  0.2669  0.0515 -0.0713
   14MOL0     C 1770   6.778  11.307  10.864 -0.3321 -0.0660  0.3573
   14MOL0     C 1771   6.894  11.377  10.829  0.8315 -1.5747  0.0855
   14MOL0     C 1772   7.024  11.347  10.879 -0.3370  0.5204 -0.6399
   14MOL0     C 1773   7.025  11.245  10.978 -1.0111  0.2345  0.4487
   14MOL0     O 1774   7.142  11.205  11.041  0.3121  0.2836  1.2811
   14MOL0     C 1775   7.266  11.268  11.003  0.4419  0.9221  0.2366
   14MOL0     C 1776   7.285  11.398  11.085 -0.1047  0.2198  0.0705
   14MOL0     C 1777   7.407  11.482  11.032  0.0863 -0.1170 -0.2204
   14MOL0     C 1778   7.539  11.401  11.032 -0.2140 -0.0338  0.6518
   14MOL0     C 1779   7.641  11.486  10.970 -1.1002  0.4669  0.0649
   14MOL0     C 1780   7.722  11.554  10.911 -0.1253 -1.1473 -0.3679
   14MOL0     C 1781   6.903  11.172  11.017  0.2116 -0.6549 -0.0662
   14MOL0     C 1782   6.777  11.209  10.969 -0.3233  0.2560  0.0099
   14MOL0     H 1783   6.485  11.589  10.937 -0.3717  1.3133 -1.5808
   14MOL0     H 1784   6.244  11.700  10.914 -2.5163 -0.9919  1.1499
   14MOL0     H 1785   5.998  11.707  10.802  0.6869 -2.6512 -1.0757
   14MOL0     H 1786   6.039  11.721  10.983 -0.1835 -2.3907  1.5992
   14MOL0     H 1787   5.824  11.635  11.048 -1.0542  1.1171  0.1685
   14MOL0     H 1788   5.799  11.579  10.881  1.7323  0.0701 -2.4100
   14MOL0     H 1789   5.755  11.790  10.805  2.4902 -2.3704 -1.3836
   14MOL0     H 1790   5.809  11.880  10.947 -2.3764  0.5124  1.7987
   14MOL0     H 1791   5.620  11.786  11.078 -3.0833  1.0896  0.8039
   14MOL0     H 1792   5.569  11.888  10.955 -1.1475 -1.6894  2.1960
   14MOL0     H 1793   5.436  11.673  10.972 -0.8779 -3.7273 -0.0587
   14MOL0     H 1794   5.567  11.575  10.967  0.9705  0.2987 -2.3246
   14MOL0     H 1795   5.449  11.570  10.740  0.5212 -0.9075  2.2829
   14MOL0     H 1796   5.608  11.655  10.717  1.4644  1.5258  1.2924
   14MOL0     H 1797   5.357  11.734  10.646  2.3307 -3.8848  0.1454
   14MOL0     H 1798   5.377  11.827  10.798  1.8056  1.5501  0.0654
   14MOL0     H 1799   5.594  11.835  10.563  1.7044  1.6078 -1.1794
   14MOL0     H 1800   5.613  11.912  10.704  0.6138 -0.7426 -0.1013
   14MOL0     H 1801   5.280  12.004  10.722 -1.2069  1.9616 -0.3913
   14MOL0     H 1802   5.109  12.183  10.469  1.9021  0.1329 -2.0754
   14MOL0     H 1803   5.202  12.324  10.509  4.1658 -0.9899  1.0215
   14MOL0     H 1804   5.086  12.141  10.721  1.4958 -1.9632 -1.7725
   14MOL0     H 1805   5.001  12.294  10.676 -0.9580 -2.4727  0.4246
   14MOL0     H 1806   5.116  12.419  10.819  0.6070 -0.0963 -2.3274
   14MOL0     H 1807   5.152  12.266  10.901  0.8183 -0.9608 -0.0598
   14MOL0     H 1808   5.330  12.460  10.832 -1.5133  0.2925 -0.2800
   14MOL0     H 1809   5.330  12.369  10.678  1.6181  2.2675 -0.7548
   14MOL0     H 1810   5.520  12.410  10.645 -1.6416  0.2129  2.9092
   14MOL0     H 1811   5.752  12.404  10.586 -0.9499  1.1537 -0.8463
   14MOL0     H 1812   6.241  12.242  10.676  2.3776  0.0732  1.3648
   14MOL0     H 1813   6.437  12.140  10.595 -0.1555  0.0983 -2.5465
   14MOL0     H 1814   6.431  11.667  10.551  2.2544 -0.6337 -3.5096
   14MOL0     H 1815   6.544  11.714  10.683  2.3873 -4.0231 -1.7083
   14MOL0     H 1816   6.693  11.632  10.530 -0.0497 -1.6312 -0.4268
   14MOL0     H 1817   6.689  11.790  10.460  1.8031 -0.3984  1.8458
   14MOL0     H 1818   6.473  11.663  10.324 -0.4741 -1.7529  0.2318
   14MOL0     H 1819   6.549  11.518  10.404  0.8618 -0.5897  0.1936
   14MOL0     H 1820   6.648  11.691  10.172  0.7708 -1.6298 -0.9946
   14MOL0     H 1821   6.757  11.570  10.269 -0.2560 -0.2818  4.5509
   14MOL0     H 1822   6.497  11.510  10.116 -0.4011 -1.6122 -3.1493
   14MOL0     H 1823   6.604  11.397  10.196 -0.2838 -0.5420 -1.0645
   14MOL0     H 1824   6.682  11.365   9.975  0.7104 -2.2131  3.2002
   14MOL0     H 1825   6.797  11.462  10.050 -0.3636 -2.0112 -0.9232
   14MOL0     H 1826   6.583  11.590   9.881 -0.1051  0.8731  1.3620
   14MOL0     H 1827   6.716  11.675   9.956 -1.2813 -0.0115  1.8661
   14MOL0     H 1828   6.778  11.631   9.722  0.2701 -0.0505 -0.5519
   14MOL0     H 1829   6.746  11.456   9.747 -0.0197 -1.9019  3.6997
   14MOL0     H 1830   6.270  11.754  10.622  1.5352  0.2971  1.0341
   14MOL0     H 1831   6.031  11.869  10.683  0.1991  1.3779  0.1307
   14MOL0     H 1832   5.823  12.106  10.894 -0.8747 -1.1483 -1.3728
   14MOL0     H 1833   5.578  12.144  10.960  0.0023  1.9416  0.8910
   14MOL0     H 1834   6.083  11.321  10.839  0.6477 -0.2581 -1.1363
   14MOL0     H 1835   6.312  11.213  10.854  0.2460  0.0104  0.8430
   14MOL0     H 1836   6.879  11.456  10.755  1.9505 -3.0158 -1.7670
   14MOL0     H 1837   7.114  11.394  10.842 -0.1847 -2.5290 -4.9355
   14MOL0     H 1838   7.282  11.277  10.895 -2.0493 -1.5990 -0.4540
   14MOL0     H 1839   7.338  11.188  11.026  1.4339  0.9936 -2.3178
   14MOL0     H 1840   7.192  11.454  11.070 -0.3134  0.3525  1.6672
   14MOL0     H 1841   7.290  11.383  11.194 -0.1453  1.3383  0.2363
   14MOL0     H 1842   7.411  11.581  11.078  0.6749 -0.6603  0.9489
   14MOL0     H 1843   7.378  11.499  10.928 -4.2180  2.2598  1.1264
   14MOL0     H 1844   7.569  11.368  11.132 -0.0792 -0.3046  0.5243
   14MOL0     H 1845   7.523  11.307  10.977 -5.0580  0.4556  0.8303
   14MOL0     H 1846   7.794  11.625  10.875 -1.9787  0.9788 -0.1399
   14MOL0     H 1847   6.901  11.085  11.081 -1.8066 -1.1993 -0.7984
   14MOL0     H 1848   6.700  11.136  10.990  1.0031 -0.8824  1.0703
   15MOL0     O 1849   2.314  10.137   9.683  0.4978 -0.1960  0.8941
   15MOL0     C 1850   2.231  10.114   9.771  0.1838 -0.5605  0.1265
   15MOL0     O 1851   2.097  10.091   9.759 -0.3412  0.5759 -0.4229
   15MOL0     C 1852   2.037  10.098   9.638  0.5350  0.0105 -0.1876
   15MOL0     C 1853   2.058  10.183   9.532  0.4426 -0.7035  0.0972
   15MOL0     C 1854   1.964  10.194   9.423  0.4101  0.4697  0.0534
   15MOL0     C 1855   1.841  10.118   9.421 -1.1998  0.1900 -0.1617
   15MOL0     O 1856   1.757  10.107   9.318  0.2089 -0.3060  0.6835
   15MOL0     C 1857   1.814  10.135   9.192  0.6547 -0.2762 -0.2380
   15MOL0     C 1858   1.701  10.091   9.100  0.5979  0.3154  0.0221
   15MOL0     C 1859   1.742  10.068   8.949  0.2044 -1.1491 -0.4132
   15MOL0     C 1860   1.616  10.037   8.864  0.8515 -0.3850 -0.5624
   15MOL0     C 1861   1.649  10.025   8.717 -0.0977 -0.7845  0.8695
   15MOL0     C 1862   1.519  10.020   8.628  0.0904 -0.2539 -0.6336
   15MOL0     C 1863   1.455   9.878   8.600 -0.2881  0.4772 -0.8491
   15MOL0     C 1864   1.537   9.807   8.491  0.0387  0.0276 -0.2557
   15MOL0     N 1865   1.464   9.692   8.439  1.5973  0.1396 -0.2096
   15MOL0     C 1866   1.468   9.570   8.496  0.9230 -0.2704  1.0108
   15MOL0     C 1867   1.363   9.507   8.433 -0.9962  1.1022 -0.8322
   15MOL0     C 1868   1.316   9.367   8.473 -0.3535  0.8601  0.7385
   15MOL0     C 1869   1.238   9.307   8.360  0.0027  0.6324 -0.7845
   15MOL0     C 1870   1.230   9.156   8.375  0.0416  1.0862  0.5355
   15MOL0     C 1871   1.216   9.100   8.521  0.9874  0.2075 -0.2026
   15MOL0     O 1872   1.165   8.970   8.495  0.0182 -0.1302 -0.0688
   15MOL0     C 1873   1.256   8.869   8.467  0.1142  0.1740  0.0635
   15MOL0     C 1874   1.195   8.760   8.408  0.1026 -1.6233  0.7323
   15MOL0     C 1875   1.263   8.639   8.388 -1.1173 -0.6680 -0.0106
   15MOL0     C 1876   1.390   8.615   8.437 -0.2272 -0.2794 -1.6270
   15MOL0     C 1877   1.459   8.481   8.430 -0.5540 -1.2490  0.6678
   15MOL0     O 1878   1.389   8.387   8.367 -0.8030 -0.3998 -0.1012
   15MOL0     C 1879   1.446   8.289   8.291  0.2026 -0.6850 -0.6719
   15MOL0     C 1880   1.357   8.211   8.228 -0.5663  0.3981 -0.1090
   15MOL0     C 1881   1.395   8.110   8.140  0.4051 -0.3718 -0.1630
   15MOL0     C 1882   1.528   8.082   8.112 -0.0561 -0.4597  0.7913
   15MOL0     O 1883   1.542   7.985   8.012 -0.7744  0.5581  0.2893
   15MOL0     C 1884   1.660   7.906   8.019  0.3115 -0.4465  1.0103
   15MOL0     C 1885   1.633   7.780   7.941  0.0835 -0.0934  0.3163
   15MOL0     C 1886   1.562   7.689   8.032 -0.5072  0.2030  0.3323
   15MOL0     C 1887   1.510   7.554   7.976 -0.3875  0.0761 -0.6787
   15MOL0     C 1888   1.365   7.549   7.920 -0.1037  0.0678 -1.0203
   15MOL0     C 1889   1.329   7.424   7.834 -0.0921 -1.1692 -0.9928
   15MOL0     C 1890   1.178   7.404   7.812  0.2024  0.7290  1.0334
   15MOL0     C 1891   1.129   7.327   7.685  0.0769 -0.4937  0.3260
   15MOL0    Cl 1892   1.230   7.175   7.666  0.0633 -0.8215 -0.2218
   15MOL0     C 1893   1.630   8.160   8.180 -0.2688  1.0057  0.0134
   15MOL0     C 1894   1.583   8.259   8.266  0.4010 -0.5651 -0.0186
   15MOL0     O 1895   1.576   8.475   8.462  0.7316  0.2924  0.0300
   15MOL0     C 1896   1.448   8.726   8.502 -0.6307 -0.3882 -0.7855
   15MOL0     C 1897   1.387   8.851   8.516 -0.3116  0.2567  0.7588
   15MOL0     N 1898   1.303   9.600   8.345 -0.3333  0.5487  0.8070
   15MOL0     N 1899   1.364   9.714   8.349  0.1051 -0.1394  0.7162
   15MOL0     C 1900   1.825  10.044   9.538 -0.1614 -1.2051  0.4442
   15MOL0     C 1901   1.919  10.032   9.639 -0.1513  0.0451 -0.8138
   15MOL0     C 1902   2.289  10.133   9.908  0.2523 -0.0294 -0.0195
   15MOL0     C 1903   2.422  10.132   9.943 -1.7556 -0.0569  1.1284
   15MOL0     C 1904   2.470  10.158  10.067 -0.0384  0.0091 -0.3267
   15MOL0     C 1905   2.383  10.168  10.173 -0.1579 -0.4530 -0.6008
   15MOL0     O 1906   2.439  10.196  10.301 -0.7668  0.4986  0.0293
   15MOL0     C 1907   2.355  10.231  10.413  0.1536  0.3328 -0.6082
   15MOL0     C 1908   2.441  10.269  10.530 -0.3307  0.0193  0.2321
   15MOL0     C 1909   2.365  10.282  10.661 -0.0748  0.1496 -0.4689
   15MOL0     C 1910   2.392  10.163  10.760 -0.4431 -0.1820 -0.2841
   15MOL0     C 1911   2.536  10.129  10.766 -0.2284  0.0795 -0.0414
   15MOL0     C 1912   2.648  10.083  10.776  0.5712 -0.5246 -0.4399
   15MOL0     C 1913   2.244  10.174  10.149  0.2047  0.4919  0.2313
   15MOL0     C 1914   2.200  10.152  10.018  0.0691  1.0575  0.6277
   15MOL0     H 1915   2.153  10.236   9.534  1.0316 -1.7602  1.0711
   15MOL0     H 1916   1.991  10.254   9.337  1.1237 -1.0079 -0.7931
   15MOL0     H 1917   1.889  10.056   9.191 -0.8882 -1.9460  2.2269
   15MOL0     H 1918   1.839  10.240   9.174  0.0091 -0.0941 -0.1148
   15MOL0     H 1919   1.615  10.157   9.092  0.4344 -0.1572 -3.1652
   15MOL0     H 1920   1.673   9.990   9.132  2.2257 -0.4713 -0.8728
   15MOL0     H 1921   1.812   9.986   8.935  0.9901  0.0382 -4.9356
   15MOL0     H 1922   1.787  10.163   8.918  0.6347 -2.0263 -2.6258
   15MOL0     H 1923   1.552   9.958   8.903  0.7553 -0.4455 -0.8397
   15MOL0     H 1924   1.547  10.121   8.875 -0.2115 -0.8908 -2.7643
   15MOL0     H 1925   1.706   9.932   8.706 -1.6284 -1.7531  0.7566
   15MOL0     H 1926   1.713  10.106   8.680  1.7709 -2.5556  0.0365
   15MOL0     H 1927   1.539  10.053   8.525 -0.9152 -1.8954 -1.3942
   15MOL0     H 1928   1.443  10.089   8.665  0.8949  0.8429 -0.9889
   15MOL0     H 1929   1.462   9.817   8.691  2.6300  0.1382 -1.1930
   15MOL0     H 1930   1.355   9.897   8.562  1.0402  3.8238 -3.1407
   15MOL0     H 1931   1.628   9.760   8.531 -0.2314 -1.2073 -1.0326
   15MOL0     H 1932   1.569   9.870   8.408 -0.2347 -0.9029 -1.0839
   15MOL0     H 1933   1.524   9.527   8.579 -0.2457  0.8788  2.4668
   15MOL0     H 1934   1.246   9.361   8.557  1.8012 -0.4588  2.5730
   15MOL0     H 1935   1.399   9.303   8.503  0.1325  1.7310  1.3119
   15MOL0     H 1936   1.292   9.319   8.265  1.0610 -2.4899 -0.6882
   15MOL0     H 1937   1.137   9.349   8.356 -0.2490  0.1065 -0.0216
   15MOL0     H 1938   1.157   9.116   8.304 -0.1805  3.6168 -0.7622
   15MOL0     H 1939   1.322   9.108   8.339 -1.9309 -2.7760  0.0417
   15MOL0     H 1940   1.133   9.147   8.574  0.6769 -2.4137  1.8711
   15MOL0     H 1941   1.308   9.104   8.581  0.2698  1.6008  0.8657
   15MOL0     H 1942   1.094   8.760   8.367  0.9576  0.9484 -1.7088
   15MOL0     H 1943   1.215   8.551   8.346 -2.8779  0.3828 -0.3131
   15MOL0     H 1944   1.251   8.236   8.225 -1.3301 -2.3274  1.1621
   15MOL0     H 1945   1.319   8.057   8.084 -0.0564 -0.0822  0.1816
   15MOL0     H 1946   1.680   7.890   8.126  0.1765  0.2389  1.1436
   15MOL0     H 1947   1.750   7.957   7.986  0.4981  1.0196  3.5374
   15MOL0     H 1948   1.730   7.730   7.926 -0.7971 -1.2452 -2.0341
   15MOL0     H 1949   1.593   7.800   7.841 -0.9681 -2.2015  0.2658
   15MOL0     H 1950   1.475   7.738   8.079  0.5714  3.1118 -0.4855
   15MOL0     H 1951   1.620   7.671   8.123  0.2341 -2.5981 -0.6014
   15MOL0     H 1952   1.580   7.522   7.898  0.2921 -0.7537  0.2367
   15MOL0     H 1953   1.520   7.483   8.059 -1.9137  1.9033  1.1854
   15MOL0     H 1954   1.373   7.635   7.853 -2.3886  2.0278  1.0257
   15MOL0     H 1955   1.289   7.550   7.999 -0.8764 -1.2734 -1.7081
   15MOL0     H 1956   1.375   7.338   7.884 -1.1244 -0.6510  0.9407
   15MOL0     H 1957   1.382   7.438   7.739  0.4170 -1.5511 -0.7720
   15MOL0     H 1958   1.126   7.351   7.892 -0.8582  0.4046  0.1481
   15MOL0     H 1959   1.127   7.501   7.821 -1.8984 -0.4933  4.9788
   15MOL0     H 1960   1.144   7.401   7.606 -0.3933  0.8871  1.4861
   15MOL0     H 1961   1.021   7.313   7.689  0.0485 -2.3328 -3.1407
   15MOL0     H 1962   1.736   8.141   8.163 -0.9095 -4.2269  0.0417
   15MOL0     H 1963   1.660   8.308   8.324  2.5776 -2.1753 -1.3768
   15MOL0     H 1964   1.551   8.717   8.532 -0.7398 -1.2082 -0.6388
   15MOL0     H 1965   1.431   8.931   8.574  2.9529 -0.4580 -0.5635
   15MOL0     H 1966   1.742   9.975   9.549 -2.2977  1.3802  1.7927
   15MOL0     H 1967   1.906   9.964   9.723 -4.0221  0.0496 -1.2428
   15MOL0     H 1968   2.505  10.108   9.878 -2.0481 -1.1129  1.1374
   15MOL0     H 1969   2.577  10.156  10.081  0.2902 -1.4794 -2.5856
   15MOL0     H 1970   2.287  10.151  10.442 -1.2642  1.9244  0.5823
   15MOL0     H 1971   2.296  10.316  10.378  0.8897  0.7380 -0.8936
   15MOL0     H 1972   2.534  10.212  10.536 -0.3451  0.1360  1.9247
   15MOL0     H 1973   2.466  10.371  10.499 -3.8607  0.9097 -0.1522
   15MOL0     H 1974   2.256  10.281  10.646 -0.4437  2.7880  1.4835
   15MOL0     H 1975   2.374  10.375  10.717 -2.0184 -0.3446  0.7515
   15MOL0     H 1976   2.356  10.186  10.861  1.8134 -1.3866  0.8793
   15MOL0     H 1977   2.331  10.078  10.727 -1.1146  0.5073 -0.8453
   15MOL0     H 1978   2.743  10.037  10.797  1.4808  1.6147  0.4277
   15MOL0     H 1979   2.172  10.198  10.226 -0.0562  3.5485 -0.8171
   15MOL0     H 1980   2.095  10.172   9.998  0.0341  0.3933  0.1416
   16MOL0     O 1981   7.118   2.881  11.357  0.2242 -0.1103  0.2318
   16MOL0     C 1982   7.020   2.933  11.303  0.5319 -1.1768  0.1011
   16MOL0     O 1983   6.919   2.869  11.237  0.3043  0.2995 -0.1197
   16MOL0     C 1984   6.903   2.731  11.259 -0.0940 -0.0736 -0.7591
   16MOL0     C 1985   6.924   2.649  11.152 -0.4756 -0.1572 -0.5258
   16MOL0     C 1986   6.912   2.509  11.159  0.0484  0.1936  0.3866
   16MOL0     C 1987   6.890   2.448  11.278 -0.1152 -0.0632 -0.3465
   16MOL0     O 1988   6.908   2.312  11.287  0.3731  0.4034 -0.5316
   16MOL0     C 1989   6.896   2.250  11.416  0.8860  1.0259  1.1897
   16MOL0     C 1990   6.903   2.089  11.395  0.1417 -0.8298  0.5627
   16MOL0     C 1991   6.786   2.006  11.462 -0.1921 -0.1177 -0.3019
   16MOL0     C 1992   6.811   1.853  11.485 -0.2285  0.2842 -0.0874
   16MOL0     C 1993   6.751   1.796  11.615 -0.0220 -0.1782  0.2824
   16MOL0     C 1994   6.592   1.807  11.635  0.6693  0.5715 -0.4629
   16MOL0     C 1995   6.517   1.715  11.540 -0.4952  0.2501  0.5015
   16MOL0     C 1996   6.363   1.718  11.560 -0.2022 -1.2269  0.1182
   16MOL0     N 1997   6.298   1.645  11.455 -0.2166 -0.3257 -0.1636
   16MOL0     C 1998   6.252   1.703  11.330 -0.2595  0.9020  0.1762
   16MOL0     C 1999   6.157   1.617  11.282 -0.3747 -0.3483  0.4461
   16MOL0     C 2000   6.070   1.632  11.161  0.2763 -0.3782 -1.2000
   16MOL0     C 2001   6.054   1.775  11.110 -0.2889 -0.3014  0.1907
   16MOL0     C 2002   5.923   1.847  11.163 -0.4386 -0.3323 -0.6563
   16MOL0     C 2003   5.936   1.895  11.308  0.0199  0.0526 -0.4593
   16MOL0     O 2004   6.042   1.981  11.308  0.4559 -0.2227  0.5467
   16MOL0     C 2005   6.109   2.003  11.424  0.9449 -0.0940  0.0923
   16MOL0     C 2006   6.227   2.070  11.403  0.3695  0.3532 -0.5360
   16MOL0     C 2007   6.304   2.092  11.523 -0.2224  0.4157 -0.1352
   16MOL0     C 2008   6.260   2.063  11.653  1.1167  0.0191 -0.1667
   16MOL0     C 2009   6.360   2.068  11.776  0.2791  0.0294 -0.3414
   16MOL0     O 2010   6.292   2.077  11.895 -0.2791  0.1564  0.2358
   16MOL0     C 2011   6.354   2.052  12.018 -0.8500  0.0252 -0.8337
   16MOL0     C 2012   6.280   2.067  12.135  0.9370  0.5132  0.0042
   16MOL0     C 2013   6.332   2.072  12.260  0.1163 -0.1535 -0.1272
   16MOL0     C 2014   6.474   2.030  12.272 -0.0792 -0.4883  0.3892
   16MOL0     O 2015   6.537   2.027  12.393  0.2354 -0.7879  0.2623
   16MOL0     C 2016   6.495   2.117  12.503 -0.3604 -0.2519  0.6274
   16MOL0     C 2017   6.578   2.088  12.624 -0.7333 -0.5229 -0.8611
   16MOL0     C 2018   6.539   2.190  12.730  0.0675 -0.1625 -0.4406
   16MOL0     C 2019   6.628   2.171  12.862  1.3215  0.7808 -0.0339
   16MOL0     C 2020   6.611   2.290  12.958 -0.0616 -0.8770 -0.0928
   16MOL0     C 2021   6.463   2.296  13.005 -1.0263 -0.2979  0.0041
   16MOL0     C 2022   6.457   2.410  13.115 -0.1429  0.3465  0.3768
   16MOL0     C 2023   6.310   2.448  13.126  1.3056  0.1191 -0.4772
   16MOL0    Cl 2024   6.212   2.312  13.190  0.3171 -0.6576 -0.3749
   16MOL0     C 2025   6.539   1.987  12.160 -0.1079  0.2041  0.1703
   16MOL0     C 2026   6.485   2.011  12.035 -0.4688 -0.1319  0.6213
   16MOL0     O 2027   6.476   2.096  11.755 -0.0859 -0.1537  0.2237
   16MOL0     C 2028   6.130   2.005  11.667  0.4251  0.9997  0.1308
   16MOL0     C 2029   6.052   1.983  11.552  0.3532 -0.2311 -0.7018
   16MOL0     N 2030   6.155   1.514  11.382  0.9668 -0.3025  0.1283
   16MOL0     N 2031   6.230   1.529  11.478  0.3333  0.2834 -0.8530
   16MOL0     C 2032   6.877   2.534  11.396  0.3356  1.0605  0.1739
   16MOL0     C 2033   6.877   2.671  11.382 -0.3897 -0.5488 -0.2863
   16MOL0     C 2034   7.014   3.077  11.302  0.5821  0.6644  0.2255
   16MOL0     C 2035   7.129   3.150  11.332  0.4964  0.1349  0.3533
   16MOL0     C 2036   7.119   3.296  11.331  0.2499 -0.0673  0.0974
   16MOL0     C 2037   7.002   3.354  11.291 -0.3983  0.8182 -0.7346
   16MOL0     O 2038   7.009   3.491  11.289  0.2601  0.5112  0.6768
   16MOL0     C 2039   6.913   3.571  11.232  0.5975  0.4589 -0.1500
   16MOL0     C 2040   6.963   3.703  11.205  0.2403  1.1601  0.7319
   16MOL0     C 2041   6.880   3.772  11.095 -0.2193 -0.2023  0.2629
   16MOL0     C 2042   6.935   3.913  11.065 -0.0957  0.2954  0.4985
   16MOL0     C 2043   7.075   3.913  11.015 -0.3272  0.1857 -0.1468
   16MOL0     C 2044   7.188   3.914  10.963  0.5952 -0.4521  0.6803
   16MOL0     C 2045   6.883   3.285  11.261 -0.3587  0.8105 -0.8195
   16MOL0     C 2046   6.895   3.143  11.264  0.5738  0.3081 -0.5356
   16MOL0     H 2047   6.935   2.695  11.055  2.8048 -0.9958 -0.6567
   16MOL0     H 2048   6.927   2.458  11.065 -0.4577 -0.4024  0.6172
   16MOL0     H 2049   6.794   2.259  11.453 -0.0881  2.1362 -1.5551
   16MOL0     H 2050   6.972   2.280  11.489  1.4957 -1.9354  1.9373
   16MOL0     H 2051   7.004   2.068  11.431  0.7138 -0.1156 -0.5754
   16MOL0     H 2052   6.897   2.062  11.289 -0.0490 -0.2442  0.4212
   16MOL0     H 2053   6.698   2.025  11.400  1.1634  0.7978 -2.0055
   16MOL0     H 2054   6.763   2.047  11.561 -0.8465 -0.3050 -0.3693
   16MOL0     H 2055   6.772   1.802  11.397  3.0240 -1.5073 -0.6554
   16MOL0     H 2056   6.917   1.829  11.477  0.1616  2.3402 -2.0095
   16MOL0     H 2057   6.800   1.848  11.697 -0.9577 -0.1647  0.8442
   16MOL0     H 2058   6.779   1.690  11.620  1.6423  0.3018  2.1503
   16MOL0     H 2059   6.561   1.912  11.630 -0.7642  0.1801 -0.2018
   16MOL0     H 2060   6.573   1.770  11.736  0.0389  0.3519 -0.6580
   16MOL0     H 2061   6.534   1.752  11.439 -0.5867 -0.1208  0.3501
   16MOL0     H 2062   6.556   1.613  11.548  0.8083  0.7844  1.2221
   16MOL0     H 2063   6.339   1.825  11.561  0.0037 -1.1325  2.4476
   16MOL0     H 2064   6.336   1.688  11.662  1.7176  0.8935  1.3526
   16MOL0     H 2065   6.294   1.787  11.275  2.2707  0.5687  1.4442
   16MOL0     H 2066   5.983   1.570  11.182  0.9174 -0.5999  1.0503
   16MOL0     H 2067   6.123   1.573  11.086 -2.5292 -3.6186 -0.8579
   16MOL0     H 2068   6.044   1.762  11.002  0.9218  0.0765  0.0179
   16MOL0     H 2069   6.143   1.838  11.114 -0.3703 -0.1829  0.1481
   16MOL0     H 2070   5.909   1.935  11.100 -0.6986  1.2422  1.5046
   16MOL0     H 2071   5.837   1.781  11.171 -2.8234  2.8050  4.1681
   16MOL0     H 2072   5.941   1.817  11.385  1.2752  0.1393 -0.4326
   16MOL0     H 2073   5.852   1.961  11.331 -1.1783 -0.9103 -1.9271
   16MOL0     H 2074   6.265   2.078  11.302 -1.0536  3.3212 -0.9533
   16MOL0     H 2075   6.400   2.141  11.523  1.1358 -1.9793  2.4448
   16MOL0     H 2076   6.178   2.103  12.123  0.8224 -0.4416 -2.4379
   16MOL0     H 2077   6.270   2.109  12.341 -0.6781 -1.4964 -0.0892
   16MOL0     H 2078   6.389   2.101  12.524 -0.6502  2.3157  1.4435
   16MOL0     H 2079   6.518   2.219  12.473 -0.7864  0.1919  1.7701
   16MOL0     H 2080   6.682   2.087  12.590 -0.0033 -0.4627  1.2091
   16MOL0     H 2081   6.566   1.988  12.665 -1.1196 -1.8635 -3.9975
   16MOL0     H 2082   6.432   2.199  12.752  0.6699  1.4082  2.3565
   16MOL0     H 2083   6.572   2.287  12.691  0.9647 -0.2066  0.1659
   16MOL0     H 2084   6.602   2.073  12.901  1.4633  0.2687 -1.1967
   16MOL0     H 2085   6.733   2.168  12.831  1.2082  0.0022 -0.3432
   16MOL0     H 2086   6.642   2.388  12.920  1.5950 -1.5217 -0.5159
   16MOL0     H 2087   6.677   2.275  13.044  2.2405  5.6042 -0.2231
   16MOL0     H 2088   6.427   2.201  13.046 -2.8270  0.2721 -0.1791
   16MOL0     H 2089   6.394   2.332  12.928  1.3936 -0.4674 -2.4029
   16MOL0     H 2090   6.492   2.379  13.214  1.5049  3.6048  0.9424
   16MOL0     H 2091   6.513   2.497  13.080  2.0203 -1.9715 -2.3789
   16MOL0     H 2092   6.257   2.479  13.035 -3.6522 -1.1616  1.6137
   16MOL0     H 2093   6.308   2.532  13.197  0.3555  0.1811 -0.5602
   16MOL0     H 2094   6.643   1.956  12.167  0.3020 -0.1045 -4.3231
   16MOL0     H 2095   6.551   1.995  11.950  1.6593  0.2517  2.1016
   16MOL0     H 2096   6.089   1.970  11.762 -1.3134  1.0778 -0.5609
   16MOL0     H 2097   5.951   1.945  11.563  0.1646  0.2411 -0.8015
   16MOL0     H 2098   6.871   2.500  11.500 -0.6445  1.6285  0.3118
   16MOL0     H 2099   6.880   2.730  11.473  1.1691 -2.4615  0.9749
   16MOL0     H 2100   7.221   3.099  11.355 -0.0788 -1.6638 -1.1216
   16MOL0     H 2101   7.215   3.341  11.353 -0.7722  2.7683 -0.8901
   16MOL0     H 2102   6.830   3.574  11.303  1.4932  0.4725  0.9256
   16MOL0     H 2103   6.889   3.521  11.138 -0.8234  0.0477  0.3952
   16MOL0     H 2104   6.953   3.768  11.292  3.3359  3.5035 -0.4860
   16MOL0     H 2105   7.071   3.694  11.188  0.2577 -0.0932  1.4092
   16MOL0     H 2106   6.774   3.781  11.117 -0.9868 -0.2401 -2.9104
   16MOL0     H 2107   6.901   3.717  11.002  3.8825  1.2726  0.0834
   16MOL0     H 2108   6.878   3.952  10.981  2.1020 -0.2153 -1.3130
   16MOL0     H 2109   6.928   3.988  11.145 -0.0874  3.6376 -2.4194
   16MOL0     H 2110   7.277   3.931  10.905 -0.7469  1.4656 -0.9884
   16MOL0     H 2111   6.784   3.328  11.250 -2.1126 -2.1370  1.6453
   16MOL0     H 2112   6.808   3.078  11.265 -1.1844  2.2968  4.0895
   17MOL0     O 2113   7.844  10.367   6.094  0.2023 -0.3402 -0.7791
   17MOL0     C 2114   7.852  10.396   6.216 -0.7061  0.7645  0.3390
   17MOL0     O 2115   7.839  10.520   6.277 -0.4347  0.3942 -0.1911
   17MOL0     C 2116   7.837  10.623   6.193  0.0267 -0.5439 -0.7516
   17MOL0     C 2117   7.740  10.722   6.229  0.7258  0.1254 -0.5517
   17MOL0     C 2118   7.745  10.852   6.170  0.0005  0.7871 -0.4924
   17MOL0     C 2119   7.819  10.869   6.056  0.0064  1.0503  0.4163
   17MOL0     O 2120   7.813  10.979   5.987  0.0368 -0.0211  1.1005
   17MOL0     C 2121   7.731  10.980   5.872  0.3095 -0.6553  0.1030
   17MOL0     C 2122   7.608  11.053   5.913  0.3086 -0.9070 -0.4578
   17MOL0     C 2123   7.630  11.203   5.900 -0.5714 -1.0363  0.2299
   17MOL0     C 2124   7.699  11.280   6.004  0.2756  0.1058 -0.8280
   17MOL0     C 2125   7.673  11.430   5.986 -0.2872  0.5524  0.2334
   17MOL0     C 2126   7.774  11.497   5.895  0.4562  1.2724  0.0752
   17MOL0     C 2127   7.741  11.648   5.880 -0.2729 -0.5758 -0.3838
   17MOL0     C 2128   7.843  11.721   5.792 -0.4850  0.7284 -1.1542
   17MOL0     N 2129   7.849  11.861   5.805  0.3206 -0.4469  0.0413
   17MOL0     C 2130   7.889  11.932   5.916 -0.0614  0.5191  0.1980
   17MOL0     C 2131   7.903  12.061   5.876  0.7596  0.1106  0.0959
   17MOL0     C 2132   7.950  12.175   5.955  0.7740 -0.6251 -0.9055
   17MOL0     C 2133   8.101  12.182   5.989 -0.8150  0.9026 -0.0154
   17MOL0     C 2134   8.144  12.140   6.131  0.6051 -0.5231 -0.7951
   17MOL0     C 2135   8.095  12.240   6.246 -0.6642  0.3834 -0.6388
   17MOL0     O 2136   8.203  12.330   6.303  0.7661  0.0927  0.5267
   17MOL0     C 2137   8.159  12.441   6.359 -0.8611 -0.9358 -0.8317
   17MOL0     C 2138   8.028  12.471   6.392 -0.4150 -0.9273 -0.3741
   17MOL0     C 2139   7.995  12.598   6.445  0.0130 -0.1243 -0.5376
   17MOL0     C 2140   8.103  12.696   6.465  0.0260 -0.9192 -0.0989
   17MOL0     C 2141   8.065  12.824   6.519  0.7220 -0.6210  0.8808
   17MOL0     O 2142   8.140  12.927   6.486 -0.3892 -0.4192  0.3151
   17MOL0     C 2143   8.113  13.054   6.538 -0.2073 -0.2767  1.1663
   17MOL0     C 2144   8.215  13.133   6.593  0.0618  0.3563 -0.4546
   17MOL0     C 2145   8.192  13.253   6.650 -0.1438  0.4176 -0.3045
   17MOL0     C 2146   8.073  13.316   6.634 -0.1902  0.0890 -0.2256
   17MOL0     O 2147   8.071  13.440   6.693 -0.0861  0.4602  0.5244
   17MOL0     C 2148   7.998  13.543   6.637  0.2557 -0.2563  0.0909
   17MOL0     C 2149   8.044  13.577   6.495  0.2801  0.2282  0.0230
   17MOL0     C 2150   8.185  13.643   6.507 -0.1150  0.5730  0.7209
   17MOL0     C 2151   8.249  13.647   6.369 -0.9280 -0.3383 -0.3120
   17MOL0     C 2152   8.392  13.713   6.369 -0.2607 -0.2939 -0.1063
   17MOL0     C 2153   8.384  13.864   6.337  0.0726  1.0672  1.2083
   17MOL0     C 2154   8.526  13.922   6.358 -0.5610  1.3857  0.2024
   17MOL0     C 2155   8.530  14.075   6.377 -0.2436  0.0852  0.1343
   17MOL0    Cl 2156   8.437  14.116   6.529 -0.1246 -0.3981  0.1190
   17MOL0     C 2157   7.961  13.247   6.577  0.0949 -0.0902  0.1365
   17MOL0     C 2158   7.987  13.116   6.533 -0.7001 -0.4056 -0.8485
   17MOL0     O 2159   7.968  12.835   6.596 -1.0035 -0.0940 -1.2460
   17MOL0     C 2160   8.239  12.668   6.429  0.3041 -0.0266 -0.2688
   17MOL0     C 2161   8.260  12.539   6.385 -0.9572 -0.4190 -0.5631
   17MOL0     N 2162   7.875  12.067   5.736 -0.4967  0.8464  0.4235
   17MOL0     N 2163   7.819  11.952   5.712  1.0823 -0.4173  0.3781
   17MOL0     C 2164   7.919  10.771   6.025 -0.2732  0.3151  0.8161
   17MOL0     C 2165   7.932  10.654   6.089  0.1621  0.3950 -0.6953
   17MOL0     C 2166   7.864  10.282   6.312 -0.4602 -0.4007 -0.1805
   17MOL0     C 2167   7.809  10.156   6.299 -0.7010  0.0088 -0.5989
   17MOL0     C 2168   7.828  10.050   6.388  0.0011  0.5489 -0.1019
   17MOL0     C 2169   7.895  10.079   6.516 -0.3966 -0.3019  0.0277
   17MOL0     O 2170   7.934   9.977   6.606  0.3368 -0.1426  0.4858
   17MOL0     C 2171   8.007   9.999   6.725 -0.6030  0.0935  0.2382
   17MOL0     C 2172   8.015   9.862   6.800 -0.1836  0.3124 -0.4114
   17MOL0     C 2173   8.077   9.759   6.700  0.1106  0.4122 -0.4616
   17MOL0     C 2174   8.131   9.634   6.761  0.1556 -0.4051 -0.0700
   17MOL0     C 2175   8.023   9.555   6.834  1.4120 -0.7975  0.5800
   17MOL0     C 2176   7.941   9.486   6.896 -0.2026  0.4465  0.0957
   17MOL0     C 2177   7.935  10.218   6.533 -0.5508  0.4434 -0.4056
   17MOL0     C 2178   7.930  10.314   6.439  0.7897 -0.6886  0.1125
   17MOL0     H 2179   7.680  10.703   6.317  0.0673  4.4664  0.1300
   17MOL0     H 2180   7.676  10.931   6.198  0.1666  0.7133  0.1541
   17MOL0     H 2181   7.703  10.882   5.833 -3.5010  1.5271 -3.6236
   17MOL0     H 2182   7.770  11.037   5.787 -1.7754 -0.2108 -0.6335
   17MOL0     H 2183   7.586  11.032   6.018 -2.7655  2.4569 -0.2390
   17MOL0     H 2184   7.522  11.029   5.850 -1.5192  1.6092  0.8853
   17MOL0     H 2185   7.526  11.238   5.895  0.2510  1.5142 -0.2402
   17MOL0     H 2186   7.667  11.213   5.797 -3.5687 -2.6526 -1.1671
   17MOL0     H 2187   7.644  11.256   6.096 -1.8082  1.2135 -1.7202
   17MOL0     H 2188   7.807  11.268   6.012  0.1402 -1.4989 -1.0774
   17MOL0     H 2189   7.698  11.467   6.086  2.0318  0.4395 -0.2507
   17MOL0     H 2190   7.568  11.438   5.956 -1.2243  0.5080  3.1588
   17MOL0     H 2191   7.780  11.453   5.795 -0.5938  2.3283 -0.4810
   17MOL0     H 2192   7.876  11.481   5.931  0.3605 -3.6359 -1.1015
   17MOL0     H 2193   7.641  11.675   5.847  0.0128 -0.0033 -0.8059
   17MOL0     H 2194   7.757  11.687   5.981  0.1300 -0.4990 -0.4734
   17MOL0     H 2195   7.837  11.693   5.687  3.7517 -1.7742 -0.9912
   17MOL0     H 2196   7.946  11.693   5.819 -0.2032  3.3533  0.9569
   17MOL0     H 2197   7.906  11.891   6.015  0.8139 -0.2586 -0.2588
   17MOL0     H 2198   7.888  12.190   6.044  1.1071 -2.5408 -0.3069
   17MOL0     H 2199   7.937  12.257   5.884 -3.0650  2.1424  2.5099
   17MOL0     H 2200   8.129  12.287   5.974 -1.9089  0.8942 -2.7316
   17MOL0     H 2201   8.158  12.121   5.919  1.0252 -1.1465  3.0286
   17MOL0     H 2202   8.116  12.036   6.149 -1.3127  0.3479  1.9936
   17MOL0     H 2203   8.253  12.150   6.134  0.3798  2.9589  1.4846
   17MOL0     H 2204   8.039  12.195   6.328 -0.0698  1.6589  0.5056
   17MOL0     H 2205   8.024  12.312   6.203  0.6192  1.9323 -0.2642
   17MOL0     H 2206   7.942  12.405   6.384 -0.9345 -0.1442 -1.5590
   17MOL0     H 2207   7.893  12.621   6.476  0.1806 -0.5918  0.3915
   17MOL0     H 2208   8.308  13.077   6.592 -0.3439 -0.4756  1.7294
   17MOL0     H 2209   8.277  13.305   6.693 -0.7266  1.9291 -0.9217
   17MOL0     H 2210   8.009  13.635   6.696  1.4991  0.9460 -1.8985
   17MOL0     H 2211   7.896  13.503   6.630 -0.4172  1.0416  1.7949
   17MOL0     H 2212   7.971  13.645   6.451 -0.1736  0.4649  1.1141
   17MOL0     H 2213   8.048  13.489   6.431  0.1784 -1.2116  1.8995
   17MOL0     H 2214   8.250  13.575   6.564 -2.1643 -1.5540  0.6819
   17MOL0     H 2215   8.173  13.748   6.536  0.5057  0.6632  0.6697
   17MOL0     H 2216   8.262  13.542   6.342  3.0485 -1.3880  4.3637
   17MOL0     H 2217   8.181  13.696   6.298 -0.5083  0.4290 -0.1951
   17MOL0     H 2218   8.458  13.670   6.293 -0.6075  1.7956 -1.6724
   17MOL0     H 2219   8.442  13.713   6.467  2.1352  1.8522 -1.2365
   17MOL0     H 2220   8.311  13.915   6.401  0.0278  1.1308  1.1056
   17MOL0     H 2221   8.341  13.867   6.237 -0.9335 -1.3474  1.4977
   17MOL0     H 2222   8.565  13.884   6.453  0.2286  2.0169  0.1446
   17MOL0     H 2223   8.599  13.898   6.280  0.3477  3.1800  0.4433
   17MOL0     H 2224   8.473  14.119   6.295 -0.7338  1.7850  1.3296
   17MOL0     H 2225   8.634  14.106   6.382 -0.4140  0.6086  0.5827
   17MOL0     H 2226   7.863  13.292   6.578  0.0713 -0.1152 -0.5441
   17MOL0     H 2227   7.908  13.052   6.496 -1.8251  1.7735 -2.4453
   17MOL0     H 2228   8.317  12.738   6.456 -0.3633  0.6148  0.0336
   17MOL0     H 2229   8.365  12.522   6.363 -0.5303  0.7973  0.4775
   17MOL0     H 2230   7.986  10.787   5.941  1.1254 -2.8432  1.1946
   17MOL0     H 2231   8.006  10.583   6.055 -1.1858 -0.8117 -1.2471
   17MOL0     H 2232   7.772  10.128   6.201  1.5702  0.6778 -1.7084
   17MOL0     H 2233   7.793   9.948   6.373 -2.8247  1.3655  0.4750
   17MOL0     H 2234   7.953  10.069   6.790  1.8983  0.1837  2.3697
   17MOL0     H 2235   8.105  10.039   6.697  0.0154 -2.1075 -0.9926
   17MOL0     H 2236   8.088   9.861   6.882  0.5152 -0.8396 -1.0342
   17MOL0     H 2237   7.917   9.828   6.835  0.7776 -2.2734 -0.0393
   17MOL0     H 2238   8.159   9.821   6.662  1.0404 -0.0027  0.8080
   17MOL0     H 2239   8.011   9.746   6.613 -1.0731  0.6115  0.3816
   17MOL0     H 2240   8.170   9.565   6.685  1.0894 -1.9856  1.7628
   17MOL0     H 2241   8.214   9.664   6.825 -0.9548  0.9693  0.7847
   17MOL0     H 2242   7.876   9.420   6.950  0.7036  0.5667  1.3566
   17MOL0     H 2243   7.975  10.247   6.630  1.0425  1.4883 -1.3139
   17MOL0     H 2244   7.972  10.411   6.461 -1.6362  0.3401  0.5429
   18MOL0     O 2245   4.059   9.947   0.550  0.0428  0.3228  0.1578
   18MOL0     C 2246   4.038   9.950   0.424 -0.2287  0.2183  0.4271
   18MOL0     O 2247   3.907   9.939   0.364 -0.5670 -0.2886 -0.5373
   18MOL0     C 2248   3.798   9.981   0.426 -0.7093  0.4045 -0.4586
   18MOL0     C 2249   3.799  10.083   0.527 -0.5223 -0.1295  0.7348
   18MOL0     C 2250   3.675  10.125   0.594 -0.1237  0.0015 -0.7977
   18MOL0     C 2251   3.549  10.061   0.547 -0.6691 -0.0088 -0.0508
   18MOL0     O 2252   3.418  10.089   0.579  0.6078 -0.2111  0.1706
   18MOL0     C 2253   3.381  10.216   0.633  0.2671 -0.3415  1.4317
   18MOL0     C 2254   3.232  10.219   0.648  0.2055  0.1629 -0.3005
   18MOL0     C 2255   3.182  10.345   0.722 -0.5191  0.2988 -0.4067
   18MOL0     C 2256   3.028  10.371   0.714 -1.5250  0.4025 -0.2320
   18MOL0     C 2257   2.955  10.238   0.733  0.5161 -0.1635 -0.1372
   18MOL0     C 2258   2.806  10.263   0.714  0.2262  0.1662 -0.3582
   18MOL0     C 2259   2.718  10.146   0.672  0.1936  0.2394 -0.2926
   18MOL0     C 2260   2.566  10.205   0.662 -0.6169  1.0070 -0.5127
   18MOL0     N 2261   2.472  10.092   0.627 -0.1861 -0.1428  0.3603
   18MOL0     C 2262   2.419  10.005   0.715 -0.7268 -0.2567 -0.5897
   18MOL0     C 2263   2.332   9.930   0.639 -0.0398 -0.8813  0.2829
   18MOL0     C 2264   2.214   9.854   0.685 -0.2730 -1.5883  0.1743
   18MOL0     C 2265   2.111   9.971   0.723 -0.3953  0.6463  0.1557
   18MOL0     C 2266   1.972   9.907   0.740 -0.2838  0.1709 -0.3703
   18MOL0     C 2267   1.852   9.992   0.738  0.3063  0.2693  0.0321
   18MOL0     O 2268   1.868  10.093   0.839 -0.0551  0.4772  0.6646
   18MOL0     C 2269   1.765  10.184   0.848  0.1661 -0.2860  0.1367
   18MOL0     C 2270   1.640  10.174   0.785 -0.6366  0.2660 -0.3298
   18MOL0     C 2271   1.560  10.285   0.783  0.0709 -0.1118  0.6557
   18MOL0     C 2272   1.593  10.408   0.846  0.4778  0.9252  0.2240
   18MOL0     C 2273   1.490  10.532   0.838  0.7907 -0.5176  0.1300
   18MOL0     O 2274   1.535  10.666   0.852 -0.6097  0.5451  0.3408
   18MOL0     C 2275   1.464  10.782   0.853 -0.1778 -0.0824  0.2197
   18MOL0     C 2276   1.332  10.797   0.871  0.8749 -0.1333  0.3260
   18MOL0     C 2277   1.270  10.925   0.865 -0.0941  0.6121  0.2685
   18MOL0     C 2278   1.349  11.035   0.828  1.2939 -0.2200 -0.3613
   18MOL0     O 2279   1.288  11.152   0.817  0.6244  0.0651  0.9855
   18MOL0     C 2280   1.192  11.163   0.709 -0.4222 -0.2413 -0.2017
   18MOL0     C 2281   1.265  11.195   0.588  0.0940  0.1461  0.5785
   18MOL0     C 2282   1.164  11.227   0.479  0.1193 -0.3209 -0.2724
   18MOL0     C 2283   1.222  11.243   0.342 -0.1125  0.3641 -0.2238
   18MOL0     C 2284   1.262  11.386   0.316 -0.5653  0.1256  0.0029
   18MOL0     C 2285   1.343  11.404   0.185 -0.3154 -1.1077 -0.0829
   18MOL0     C 2286   1.311  11.524   0.091  0.3776 -0.1957 -0.4161
   18MOL0     C 2287   1.404  11.529  -0.029 -0.3703  0.5184 -0.3066
   18MOL0    Cl 2288   1.397  11.388  -0.134 -0.6944  0.2355 -0.0662
   18MOL0     C 2289   1.490  11.021   0.810  0.0622 -0.1570  0.4500
   18MOL0     C 2290   1.542  10.895   0.814  0.0936 -0.1017  0.1734
   18MOL0     O 2291   1.370  10.500   0.827 -0.0738  0.3760 -0.1978
   18MOL0     C 2292   1.715  10.407   0.910 -0.3938  0.1174 -0.1387
   18MOL0     C 2293   1.808  10.302   0.908 -0.2152 -0.0764  0.5399
   18MOL0     N 2294   2.334   9.973   0.503 -0.9875 -0.2892  0.0114
   18MOL0     N 2295   2.432  10.066   0.500  0.5782  0.1510  0.2715
   18MOL0     C 2296   3.562   9.960   0.447 -0.5077 -0.2966 -0.7667
   18MOL0     C 2297   3.682   9.912   0.395 -0.0217 -0.5142 -0.2761
   18MOL0     C 2298   4.158   9.926   0.333 -0.8899 -0.1442 -0.2659
   18MOL0     C 2299   4.133   9.881   0.199 -0.3151  0.0060  1.0342
   18MOL0     C 2300   4.240   9.878   0.107  0.5880 -0.4427  0.5763
   18MOL0     C 2301   4.372   9.873   0.148  0.0925  0.1511  0.1659
   18MOL0     O 2302   4.461   9.818   0.062 -0.3341 -0.5250  0.1849
   18MOL0     C 2303   4.480   9.682   0.084 -0.1298 -0.8948  0.4167
   18MOL0     C 2304   4.615   9.636   0.015  0.1622 -0.0632 -0.0820
   18MOL0     C 2305   4.647   9.496   0.061 -0.9195  0.1169  0.1940
   18MOL0     C 2306   4.539   9.386   0.040 -0.5180  0.2630 -0.3266
   18MOL0     C 2307   4.592   9.257   0.078  0.7379 -0.6711  0.0822
   18MOL0     C 2308   4.626   9.146   0.112  0.7435  0.5429  0.7134
   18MOL0     C 2309   4.398   9.905   0.283  0.4214 -1.1606  0.1661
   18MOL0     C 2310   4.294   9.941   0.367  0.7483 -0.1800 -0.1291
   18MOL0     H 2311   3.894  10.133   0.546 -0.6323  0.5247 -0.3104
   18MOL0     H 2312   3.681  10.202   0.670  0.8738 -0.3583 -0.4995
   18MOL0     H 2313   3.418  10.296   0.568  1.9451  0.3665  3.1597
   18MOL0     H 2314   3.427  10.238   0.729  1.5509  1.9667  0.3758
   18MOL0     H 2315   3.208  10.131   0.709 -0.2642 -1.9889 -3.3677
   18MOL0     H 2316   3.182  10.216   0.550  2.3116  0.1287 -1.4184
   18MOL0     H 2317   3.244  10.431   0.695  1.7612 -1.1036  0.1407
   18MOL0     H 2318   3.198  10.329   0.829 -6.4389  0.9811  0.9654
   18MOL0     H 2319   3.003  10.450   0.786  1.9513  1.9206 -0.4655
   18MOL0     H 2320   3.007  10.400   0.611  0.2004 -0.2383 -0.8029
   18MOL0     H 2321   2.980  10.194   0.830 -1.6150 -6.0651 -1.8144
   18MOL0     H 2322   2.998  10.158   0.671  2.6905  2.4547 -2.2831
   18MOL0     H 2323   2.787  10.348   0.647  0.8633  1.7330  1.3716
   18MOL0     H 2324   2.777  10.296   0.814  0.3855 -2.8278  0.7948
   18MOL0     H 2325   2.752  10.090   0.585  0.5460 -2.1489  1.2751
   18MOL0     H 2326   2.729  10.067   0.748 -1.9147 -1.1453 -1.3272
   18MOL0     H 2327   2.560  10.276   0.579 -1.3816  1.3436 -0.1836
   18MOL0     H 2328   2.528  10.252   0.754  0.8789  0.8630  0.2186
   18MOL0     H 2329   2.426  10.012   0.823 -0.4838  2.0624 -0.7107
   18MOL0     H 2330   2.224   9.775   0.760 -2.7711 -0.2674  2.0496
   18MOL0     H 2331   2.172   9.812   0.593 -1.1404  1.4243 -0.9343
   18MOL0     H 2332   2.118  10.045   0.643 -1.3618  0.3358 -0.2370
   18MOL0     H 2333   2.129   9.997   0.828  1.6694 -1.9764  0.5470
   18MOL0     H 2334   1.964   9.844   0.651  1.5762 -4.1610  2.2546
   18MOL0     H 2335   1.975   9.846   0.830  2.2277  1.5782  0.6058
   18MOL0     H 2336   1.763   9.935   0.764 -0.8981  2.1989  0.3175
   18MOL0     H 2337   1.821  10.034   0.642  0.5639  0.2109 -0.0786
   18MOL0     H 2338   1.607  10.087   0.730  0.8142 -0.6919  0.2435
   18MOL0     H 2339   1.462  10.293   0.736  1.1262 -1.5717 -2.0041
   18MOL0     H 2340   1.269  10.712   0.897  3.3906 -1.2138  3.7287
   18MOL0     H 2341   1.166  10.927   0.896 -0.3868  0.7783 -0.6921
   18MOL0     H 2342   1.118  11.240   0.732 -2.7601 -1.8188 -1.9639
   18MOL0     H 2343   1.132  11.072   0.700 -1.9232  0.4753  1.8614
   18MOL0     H 2344   1.306  11.100   0.551 -0.0237 -0.2706  1.4894
   18MOL0     H 2345   1.336  11.278   0.597 -0.3495  0.8178 -1.5282
   18MOL0     H 2346   1.122  11.320   0.518  0.8999 -0.0288 -0.1115
   18MOL0     H 2347   1.087  11.149   0.469  1.7377 -1.8974 -1.0070
   18MOL0     H 2348   1.305  11.174   0.324 -0.3539  0.1555 -0.5751
   18MOL0     H 2349   1.152  11.205   0.266  1.2161 -1.9140 -0.4030
   18MOL0     H 2350   1.316  11.425   0.403  0.5544 -0.8306 -0.2328
   18MOL0     H 2351   1.168  11.442   0.321 -0.3089  0.5115  0.5723
   18MOL0     H 2352   1.310  11.320   0.123 -0.7832  0.4501 -2.0038
   18MOL0     H 2353   1.451  11.401   0.205 -0.6992 -2.7384  2.1754
   18MOL0     H 2354   1.206  11.517   0.061 -0.4841  1.3459  1.9313
   18MOL0     H 2355   1.318  11.616   0.149 -0.8077 -0.2602 -0.1359
   18MOL0     H 2356   1.500  11.532   0.024  1.1808 -2.0156 -2.6855
   18MOL0     H 2357   1.383  11.623  -0.080 -0.1168 -0.0327 -1.4634
   18MOL0     H 2358   1.555  11.105   0.789  3.3215 -2.5571  0.1814
   18MOL0     H 2359   1.649  10.879   0.807 -0.1923 -2.7749  0.7594
   18MOL0     H 2360   1.741  10.499   0.962 -2.6673 -0.4518  2.2104
   18MOL0     H 2361   1.902  10.302   0.962 -1.8219  2.9903  3.7786
   18MOL0     H 2362   3.471   9.909   0.417 -0.7641  1.3366 -3.0166
   18MOL0     H 2363   3.681   9.823   0.334 -2.9289 -2.8882  2.8699
   18MOL0     H 2364   4.029   9.865   0.173 -0.5397 -2.1266  2.8616
   18MOL0     H 2365   4.215   9.860   0.003  1.5321 -1.9595  0.5896
   18MOL0     H 2366   4.395   9.640   0.030  0.5587 -0.0434 -1.4318
   18MOL0     H 2367   4.471   9.654   0.189 -2.7034 -0.3092  0.4282
   18MOL0     H 2368   4.593   9.631  -0.092 -0.7611 -2.1041  0.1505
   18MOL0     H 2369   4.690   9.714   0.027  1.5223 -1.2290 -0.7377
   18MOL0     H 2370   4.690   9.497   0.162  1.8438 -0.3643 -0.9046
   18MOL0     H 2371   4.731   9.462   0.000 -0.5179  1.2722  0.0735
   18MOL0     H 2372   4.438   9.412   0.075  0.2726  2.9911  0.1446
   18MOL0     H 2373   4.525   9.374  -0.068  0.0025  0.0929 -0.3754
   18MOL0     H 2374   4.666   9.048   0.126 -0.6946 -0.0884  0.5945
   18MOL0     H 2375   4.499   9.897   0.322  0.1487  0.6880  1.3700
   18MOL0     H 2376   4.331   9.990   0.456  0.6296  1.6475 -1.0454
   19MOL0     O 2377   5.011  10.382   2.804  0.5442 -0.0108 -0.5915
   19MOL0     C 2378   5.008  10.439   2.699 -0.8805  1.1248 -0.2065
   19MOL0     O 2379   4.939  10.389   2.588  0.0299 -0.3426  0.9570
   19MOL0     C 2380   4.862  10.285   2.615  0.0081  0.4742  0.1610
   19MOL0     C 2381   4.722  10.286   2.668 -0.7640  0.7192  0.5600
   19MOL0     C 2382   4.642  10.173   2.671 -0.2528  0.3242 -0.4690
   19MOL0     C 2383   4.685  10.048   2.624 -0.3030 -0.2041  0.1023
   19MOL0     O 2384   4.610   9.931   2.626  0.4016  0.0047  0.4589
   19MOL0     C 2385   4.464   9.954   2.613 -0.4875  0.0993 -0.9830
   19MOL0     C 2386   4.371   9.828   2.590 -0.4595 -0.9861 -0.0862
   19MOL0     C 2387   4.414   9.751   2.464  0.2022 -0.1118  0.3527
   19MOL0     C 2388   4.322   9.634   2.433  0.2346  0.3688 -0.2694
   19MOL0     C 2389   4.392   9.535   2.339  0.8275  0.6008 -0.2689
   19MOL0     C 2390   4.298   9.471   2.243 -0.8481 -0.1517 -0.2970
   19MOL0     C 2391   4.365   9.365   2.160  0.4954 -0.0655  0.5427
   19MOL0     C 2392   4.299   9.348   2.025 -0.0380  0.9611  0.6438
   19MOL0     N 2393   4.152   9.340   2.041  0.0951  0.4180 -0.2503
   19MOL0     C 2394   4.082   9.220   2.066 -0.3726  0.1628  0.7886
   19MOL0     C 2395   3.959   9.252   2.090  1.2211  0.3034  0.3163
   19MOL0     C 2396   3.844   9.155   2.127 -0.2800 -0.0910  0.3265
   19MOL0     C 2397   3.849   9.086   2.263 -0.4982  0.5132 -0.5953
   19MOL0     C 2398   3.906   8.940   2.278 -1.0612 -0.8648  0.4099
   19MOL0     C 2399   3.838   8.853   2.178 -0.1837 -0.2368  0.2284
   19MOL0     O 2400   3.844   8.717   2.233 -0.1943  0.4171 -0.6059
   19MOL0     C 2401   3.739   8.630   2.209 -0.7576  0.2982 -0.4830
   19MOL0     C 2402   3.740   8.502   2.278  0.2945 -0.4547 -0.6954
   19MOL0     C 2403   3.635   8.411   2.255  0.6216 -0.1327 -0.4553
   19MOL0     C 2404   3.518   8.449   2.180 -0.5964 -0.3752 -0.1547
   19MOL0     C 2405   3.412   8.351   2.162 -0.7384  0.5059 -0.1855
   19MOL0     O 2406   3.371   8.330   2.031 -0.4946 -0.2340 -0.0944
   19MOL0     C 2407   3.243   8.281   2.007  0.0171 -0.5307 -0.2459
   19MOL0     C 2408   3.228   8.198   1.893 -0.5200  0.2925 -0.0153
   19MOL0     C 2409   3.104   8.166   1.851  0.1940  0.3507  0.5499
   19MOL0     C 2410   2.988   8.207   1.920  0.5778 -0.0526 -0.3397
   19MOL0     O 2411   2.860   8.176   1.880 -0.0013 -0.7285 -0.9989
   19MOL0     C 2412   2.751   8.179   1.979 -0.1010 -0.1027  0.1756
   19MOL0     C 2413   2.690   8.047   1.960  0.3407 -0.1903  0.0686
   19MOL0     C 2414   2.566   8.044   2.037  0.2479 -0.3746  0.6353
   19MOL0     C 2415   2.500   7.907   2.041  0.8132  0.1806  0.4970
   19MOL0     C 2416   2.412   7.896   2.173  0.1496 -0.1712  0.5994
   19MOL0     C 2417   2.282   7.988   2.165  0.1654  0.8736  0.1210
   19MOL0     C 2418   2.188   7.954   2.276  1.3197 -0.5695  0.7274
   19MOL0     C 2419   2.056   8.034   2.254  0.7363  0.9744 -0.2721
   19MOL0    Cl 2420   1.950   7.959   2.137  0.3150 -0.7071 -0.2003
   19MOL0     C 2421   3.006   8.303   2.015  0.3370 -0.0145 -0.1386
   19MOL0     C 2422   3.133   8.339   2.064 -0.3295 -0.5990  0.0588
   19MOL0     O 2423   3.377   8.290   2.263  0.3334  0.0007  0.1996
   19MOL0     C 2424   3.510   8.581   2.123  0.2455  0.4389 -0.7555
   19MOL0     C 2425   3.624   8.660   2.131  0.1985  0.0062 -0.7282
   19MOL0     N 2426   3.940   9.391   2.090 -1.1917 -0.3313  0.3168
   19MOL0     N 2427   4.057   9.441   2.051  0.3510  1.0219 -0.1994
   19MOL0     C 2428   4.823  10.051   2.572  0.3101  0.1496  0.2741
   19MOL0     C 2429   4.905  10.164   2.562 -0.8866  1.1681 -0.5751
   19MOL0     C 2430   5.098  10.553   2.702  0.7818 -1.8700  0.5738
   19MOL0     C 2431   5.104  10.639   2.588 -0.6599 -0.0937  0.6984
   19MOL0     C 2432   5.185  10.749   2.586  0.6355  0.0894  0.9064
   19MOL0     C 2433   5.268  10.784   2.688  0.3853  0.1090 -0.0773
   19MOL0     O 2434   5.353  10.890   2.700 -0.1562  0.2932  0.2945
   19MOL0     C 2435   5.379  10.983   2.593  0.2089 -0.0230  0.7628
   19MOL0     C 2436   5.511  11.066   2.621  0.9765 -0.0211 -1.1434
   19MOL0     C 2437   5.525  11.186   2.520 -0.2851  0.3298 -0.6763
   19MOL0     C 2438   5.636  11.288   2.548 -0.0822 -0.4452  0.0204
   19MOL0     C 2439   5.772  11.234   2.529  0.5905  0.5085  0.6095
   19MOL0     C 2440   5.884  11.206   2.507 -0.1005  0.4201  0.2839
   19MOL0     C 2441   5.277  10.694   2.795 -0.2475 -0.3468  0.1890
   19MOL0     C 2442   5.193  10.583   2.796  0.0220  0.3204  0.2396
   19MOL0     H 2443   4.681  10.382   2.698  0.4376  2.2416 -2.2609
   19MOL0     H 2444   4.544  10.177   2.718 -0.5488 -0.5199 -0.9834
   19MOL0     H 2445   4.450  10.025   2.531 -1.1546  1.7385  0.4724
   19MOL0     H 2446   4.427  10.005   2.703 -1.3761 -1.1282 -0.6242
   19MOL0     H 2447   4.266   9.859   2.587  0.5252  4.1702  3.8439
   19MOL0     H 2448   4.379   9.756   2.672  1.0934 -0.6488  0.1074
   19MOL0     H 2449   4.509   9.700   2.482  0.9149  1.8059  2.4358
   19MOL0     H 2450   4.432   9.814   2.376 -2.6096  2.3053  1.3430
   19MOL0     H 2451   4.283   9.588   2.525 -2.2939 -0.6485 -1.7234
   19MOL0     H 2452   4.231   9.674   2.386 -0.3249  2.5775  2.3918
   19MOL0     H 2453   4.441   9.454   2.394  0.9978  2.7363  2.9562
   19MOL0     H 2454   4.473   9.591   2.293  1.4821 -0.3210 -0.2653
   19MOL0     H 2455   4.269   9.548   2.171  0.9461 -0.4273 -1.3858
   19MOL0     H 2456   4.211   9.428   2.294 -0.7028 -2.9314 -2.2230
   19MOL0     H 2457   4.471   9.381   2.138  1.3675 -1.8669  3.0733
   19MOL0     H 2458   4.349   9.273   2.217 -1.7733 -0.8513 -1.1786
   19MOL0     H 2459   4.332   9.249   1.991 -2.3374  0.3705 -0.0696
   19MOL0     H 2460   4.318   9.420   1.945  0.4987  2.4805  2.0850
   19MOL0     H 2461   4.126   9.121   2.071  1.0468  0.8147  1.9099
   19MOL0     H 2462   3.844   9.073   2.055  0.4856 -0.2473  0.4937
   19MOL0     H 2463   3.748   9.206   2.120 -2.1599 -3.5677 -2.7252
   19MOL0     H 2464   3.746   9.068   2.294  0.4706  0.7981  3.3459
   19MOL0     H 2465   3.900   9.153   2.332 -2.5786  1.5935 -0.0317
   19MOL0     H 2466   4.015   8.938   2.268 -0.7021 -2.7402  3.3366
   19MOL0     H 2467   3.886   8.902   2.379  0.9464  0.1851  1.2693
   19MOL0     H 2468   3.879   8.864   2.077 -0.9354 -1.2678 -0.2008
   19MOL0     H 2469   3.735   8.888   2.169 -0.7997 -1.8762  0.5678
   19MOL0     H 2470   3.811   8.480   2.357  0.3683  0.2273 -0.5704
   19MOL0     H 2471   3.633   8.311   2.296 -3.5875 -0.0161  0.1600
   19MOL0     H 2472   3.321   8.159   1.851 -0.5058  1.3058 -0.9691
   19MOL0     H 2473   3.093   8.091   1.772 -1.8080 -0.5015  1.5609
   19MOL0     H 2474   2.684   8.264   1.963 -1.1499 -0.8100  0.6595
   19MOL0     H 2475   2.780   8.178   2.085  1.3516  0.0604 -0.1983
   19MOL0     H 2476   2.755   7.974   2.009  0.9872 -0.3141 -0.9393
   19MOL0     H 2477   2.662   8.033   1.855  3.3562 -1.2734 -0.6928
   19MOL0     H 2478   2.491   8.119   2.007 -3.0825 -3.1597  1.3513
   19MOL0     H 2479   2.585   8.072   2.141 -4.0915  2.9833  0.8399
   19MOL0     H 2480   2.440   7.882   1.953  2.0541 -0.8675 -0.0879
   19MOL0     H 2481   2.575   7.827   2.044 -0.4880 -1.1266 -0.3439
   19MOL0     H 2482   2.478   7.918   2.257  2.3273 -2.2455 -0.4699
   19MOL0     H 2483   2.383   7.793   2.196  0.3890  0.0385  1.9112
   19MOL0     H 2484   2.236   7.965   2.069  1.6466 -0.3477 -0.3406
   19MOL0     H 2485   2.311   8.094   2.170  1.2286  0.9223 -3.5447
   19MOL0     H 2486   2.151   7.852   2.274 -0.1046 -0.0824  1.0147
   19MOL0     H 2487   2.232   7.975   2.374  3.8833  1.0362 -0.6538
   19MOL0     H 2488   2.073   8.139   2.227 -0.3450  0.3723 -3.8541
   19MOL0     H 2489   1.998   8.019   2.346  1.0674 -2.6562 -0.5410
   19MOL0     H 2490   2.928   8.356   2.069  1.9950  0.9847  1.3811
   19MOL0     H 2491   3.135   8.408   2.148  0.0192 -0.1343 -0.3281
   19MOL0     H 2492   3.421   8.620   2.075  0.6859 -0.8991 -2.7946
   19MOL0     H 2493   3.619   8.752   2.074 -1.2988  2.3274  2.8227
   19MOL0     H 2494   4.857   9.953   2.539 -2.5389 -0.7138 -0.3835
   19MOL0     H 2495   4.996  10.138   2.510 -0.7218  0.9665 -0.1858
   19MOL0     H 2496   5.044  10.608   2.504  0.4146 -4.1002  1.1655
   19MOL0     H 2497   5.179  10.804   2.492 -1.7978 -2.2055 -0.4210
   19MOL0     H 2498   5.298  11.056   2.586 -0.0985 -0.4949 -2.7818
   19MOL0     H 2499   5.394  10.940   2.494 -2.8274 -0.4456  0.3812
   19MOL0     H 2500   5.512  11.098   2.726 -1.8342  5.8637 -2.4637
   19MOL0     H 2501   5.587  10.990   2.601  3.9786  2.4435 -0.0034
   19MOL0     H 2502   5.429  11.237   2.512 -1.6894 -1.7420  1.6970
   19MOL0     H 2503   5.551  11.157   2.417  0.8982 -0.8476 -0.0905
   19MOL0     H 2504   5.622  11.380   2.491  3.0579 -0.1800 -0.5164
   19MOL0     H 2505   5.625  11.320   2.652 -1.3365  1.3787 -0.6132
   19MOL0     H 2506   5.986  11.174   2.493 -0.2619 -1.1470  2.1768
   19MOL0     H 2507   5.355  10.706   2.870 -1.4237 -0.9992  1.5641
   19MOL0     H 2508   5.221  10.502   2.862  0.9557  0.4308 -0.0178
   20MOL0     O 2509  10.519   6.267   9.444  0.2554  0.3924 -0.6360
   20MOL0     C 2510  10.452   6.196   9.371 -0.4750  0.4758 -0.1119
   20MOL0     O 2511  10.322   6.202   9.352 -0.1215 -0.3564 -0.0887
   20MOL0     C 2512  10.241   6.290   9.418  0.4056  0.7456 -0.8847
   20MOL0     C 2513  10.115   6.247   9.460  0.0747 -0.4609  0.1806
   20MOL0     C 2514  10.026   6.342   9.510 -0.3124  1.2896 -0.4250
   20MOL0     C 2515  10.056   6.477   9.531  0.1977 -0.4592 -0.4345
   20MOL0     O 2516   9.983   6.564   9.604 -0.4462 -0.0585 -0.0222
   20MOL0     C 2517   9.874   6.514   9.683 -0.3937 -0.4301 -0.8833
   20MOL0     C 2518   9.818   6.619   9.776 -0.2108 -0.1257 -0.1869
   20MOL0     C 2519   9.920   6.657   9.881 -0.3733 -0.2570 -0.3625
   20MOL0     C 2520   9.884   6.769   9.972  0.2044  0.6645  1.0853
   20MOL0     C 2521  10.001   6.794  10.073 -0.1814  0.3243  0.7353
   20MOL0     C 2522  10.001   6.930  10.139  0.6672 -0.7898  0.7404
   20MOL0     C 2523  10.134   6.967  10.201 -0.4254 -0.3884  0.2977
   20MOL0     C 2524  10.220   7.035  10.092 -0.4091 -0.0353  0.8148
   20MOL0     N 2525  10.345   7.085  10.151  0.5266 -0.3333 -0.5924
   20MOL0     C 2526  10.373   7.175  10.248  0.6298  0.5295 -0.4354
   20MOL0     C 2527  10.504   7.167  10.276 -0.7191 -0.3850 -0.4890
   20MOL0     C 2528  10.580   7.259  10.382  0.6005  0.1112  0.7820
   20MOL0     C 2529  10.530   7.236  10.523  0.1868 -0.2320  0.0488
   20MOL0     C 2530  10.621   7.261  10.640  0.0067  0.6090 -0.3040
   20MOL0     C 2531  10.656   7.402  10.684  0.4231  0.1835  0.6005
   20MOL0     O 2532  10.705   7.495  10.581  0.4518 -0.0777  0.2437
   20MOL0     C 2533  10.831   7.541  10.602 -0.6896  0.3833  0.1493
   20MOL0     C 2534  10.840   7.672  10.657 -0.8321 -0.1711 -0.8245
   20MOL0     C 2535  10.975   7.725  10.668 -0.2113  0.2555  0.3723
   20MOL0     C 2536  11.087   7.661  10.628  0.0900 -0.2117  0.4034
   20MOL0     C 2537  11.216   7.731  10.638  0.2233 -0.4072  0.5707
   20MOL0     O 2538  11.208   7.836  10.729 -0.7770  0.5247  0.8394
   20MOL0     C 2539  11.318   7.914  10.740 -0.3776 -0.2232 -1.2121
   20MOL0     C 2540  11.331   7.977  10.860 -1.0098 -0.4936 -1.0581
   20MOL0     C 2541  11.433   8.068  10.892 -0.1080 -0.7956 -0.2713
   20MOL0     C 2542  11.529   8.103  10.794 -0.4283 -0.0343 -0.4625
   20MOL0     O 2543  11.627   8.190  10.834 -0.2151 -0.2902 -0.5662
   20MOL0     C 2544  11.708   8.247  10.731 -0.1257 -0.6738  1.1293
   20MOL0     C 2545  11.776   8.369  10.788  0.5957  0.4233  0.4053
   20MOL0     C 2546  11.895   8.338  10.880  0.5613 -0.0664  0.3634
   20MOL0     C 2547  12.013   8.275  10.797 -0.1607  0.7624 -0.4532
   20MOL0     C 2548  12.131   8.269  10.899  0.1080 -0.0931  0.1139
   20MOL0     C 2549  12.258   8.215  10.843 -0.0377 -0.4377 -0.7203
   20MOL0     C 2550  12.348   8.149  10.952 -0.9170 -0.5041 -0.2926
   20MOL0     C 2551  12.425   8.242  11.057 -0.2897 -0.0631  0.0700
   20MOL0    Cl 2552  12.449   8.171  11.222  0.4371 -0.1764 -0.3242
   20MOL0     C 2553  11.520   8.043  10.671 -0.5568  1.0808 -0.1159
   20MOL0     C 2554  11.419   7.942  10.646 -0.2908 -0.0502 -0.4732
   20MOL0     O 2555  11.309   7.677  10.575 -1.3833 -1.4556 -0.5947
   20MOL0     C 2556  11.077   7.535  10.564 -0.0476 -0.1721  0.0081
   20MOL0     C 2557  10.947   7.477  10.559 -0.6190 -0.0910  0.0131
   20MOL0     N 2558  10.562   7.082  10.184  0.8305  0.2030  0.2220
   20MOL0     N 2559  10.469   7.052  10.104 -0.0874 -0.7699  0.9658
   20MOL0     C 2560  10.174   6.527   9.475  0.8071 -0.2798 -0.2250
   20MOL0     C 2561  10.270   6.431   9.425  1.6762  0.7119  0.3632
   20MOL0     C 2562  10.536   6.111   9.276 -0.9013 -0.0179  0.3683
   20MOL0     C 2563  10.479   6.029   9.175  0.7250 -0.7407 -0.2513
   20MOL0     C 2564  10.556   5.944   9.088  0.9297 -1.3980 -0.5338
   20MOL0     C 2565  10.695   5.933   9.117 -1.0778  0.3749 -0.0468
   20MOL0     O 2566  10.772   5.838   9.046  0.4383 -0.2749  0.0239
   20MOL0     C 2567  10.911   5.862   9.016 -0.1593 -1.3260  0.4009
   20MOL0     C 2568  10.945   5.929   8.889 -0.1743 -0.2479  0.4116
   20MOL0     C 2569  10.890   5.861   8.761  0.6644 -0.5282  0.3072
   20MOL0     C 2570  10.963   5.906   8.638  0.3064 -0.1884 -0.0608
   20MOL0     C 2571  11.085   5.828   8.625  1.1913  0.9848  0.0535
   20MOL0     C 2572  11.184   5.775   8.648  0.0787  0.2948 -0.0335
   20MOL0     C 2573  10.746   5.996   9.227 -0.4480  0.3687 -0.2592
   20MOL0     C 2574  10.674   6.090   9.304  1.1956 -1.0242 -0.1132
   20MOL0     H 2575  10.092   6.143   9.437  1.5514 -0.1853 -2.8945
   20MOL0     H 2576   9.928   6.303   9.538  0.7689  0.5130  2.6328
   20MOL0     H 2577   9.911   6.427   9.737  1.3561  0.3493 -0.7449
   20MOL0     H 2578   9.789   6.471   9.628 -1.6141  0.0388  0.5633
   20MOL0     H 2579   9.723   6.584   9.817  0.0233 -0.6792 -0.1022
   20MOL0     H 2580   9.792   6.706   9.715 -2.6605  1.9910  3.4234
   20MOL0     H 2581  10.012   6.684   9.829  0.7666  0.7522  2.0047
   20MOL0     H 2582   9.934   6.578   9.955  3.0650  2.5485  2.3563
   20MOL0     H 2583   9.875   6.860   9.912 -0.1880 -1.2822 -1.9888
   20MOL0     H 2584   9.785   6.762  10.018  2.0733 -3.0885  5.3656
   20MOL0     H 2585  10.095   6.776  10.021  0.3236  0.5967  1.5397
   20MOL0     H 2586   9.986   6.715  10.146 -1.0926 -0.8478 -0.6566
   20MOL0     H 2587   9.920   6.931  10.212 -0.1234  0.6019 -0.1091
   20MOL0     H 2588   9.968   7.003  10.064 -2.8550 -1.5579  1.3545
   20MOL0     H 2589  10.119   7.034  10.287  1.2309  0.2840  0.0910
   20MOL0     H 2590  10.166   6.872  10.246 -1.3882  0.5212  3.1577
   20MOL0     H 2591  10.164   7.118  10.048 -0.3514 -0.1186  0.5835
   20MOL0     H 2592  10.228   6.961  10.012 -2.2983 -0.6107  1.1027
   20MOL0     H 2593  10.301   7.233  10.306 -2.3343 -1.8041 -1.5119
   20MOL0     H 2594  10.545   7.360  10.362 -1.9157 -0.0572  3.7150
   20MOL0     H 2595  10.689   7.252  10.373  0.3593 -0.8967 -2.8682
   20MOL0     H 2596  10.487   7.136  10.527  0.6620 -0.4118  0.9988
   20MOL0     H 2597  10.446   7.306  10.532  1.2217  1.0475  0.1081
   20MOL0     H 2598  10.574   7.210  10.725  0.4738 -0.2423 -0.5443
   20MOL0     H 2599  10.712   7.203  10.619  1.6609  3.0030 -0.1723
   20MOL0     H 2600  10.715   7.402  10.776  3.5792 -1.1223 -1.2631
   20MOL0     H 2601  10.562   7.442  10.723 -0.6198  1.4309 -2.7933
   20MOL0     H 2602  10.760   7.736  10.691  0.0183  0.3936  0.1896
   20MOL0     H 2603  10.980   7.828  10.704 -2.8984  1.7845 -3.0639
   20MOL0     H 2604  11.254   7.962  10.936 -1.3828 -2.6598 -1.7874
   20MOL0     H 2605  11.413   8.115  10.988  1.8634  1.6688 -0.9628
   20MOL0     H 2606  11.651   8.275  10.642 -1.4572 -0.3658  2.0336
   20MOL0     H 2607  11.776   8.177  10.682 -0.4133  2.3587 -4.4373
   20MOL0     H 2608  11.695   8.435  10.820 -2.7135 -1.4879 -3.1810
   20MOL0     H 2609  11.823   8.421  10.704 -0.5792  1.1104  0.1524
   20MOL0     H 2610  11.856   8.272  10.959  0.4396 -1.2832 -0.6649
   20MOL0     H 2611  11.920   8.432  10.929 -1.9999  0.6816  0.4064
   20MOL0     H 2612  11.997   8.174  10.759  1.0673  0.9577 -1.5835
   20MOL0     H 2613  12.037   8.344  10.715  1.7616  2.3106  1.3045
   20MOL0     H 2614  12.109   8.193  10.975  2.4962 -1.3680 -0.3565
   20MOL0     H 2615  12.144   8.364  10.951 -2.9751  1.9007 -2.4231
   20MOL0     H 2616  12.302   8.302  10.793 -2.2639 -0.5895 -3.1114
   20MOL0     H 2617  12.227   8.144  10.766 -3.4774 -0.5512  0.5742
   20MOL0     H 2618  12.287   8.072  11.001  0.4915 -2.9020 -2.0833
   20MOL0     H 2619  12.424   8.087  10.904  0.2552 -1.1982  2.3123
   20MOL0     H 2620  12.375   8.339  11.068  0.3603 -0.0004  3.5555
   20MOL0     H 2621  12.527   8.258  11.020  0.0510 -1.2969  0.4250
   20MOL0     H 2622  11.593   8.079  10.598  2.4893 -1.9912  1.1558
   20MOL0     H 2623  11.410   7.898  10.547  2.0569 -1.5786 -0.0924
   20MOL0     H 2624  11.168   7.495  10.522 -0.1913 -0.2442 -0.2352
   20MOL0     H 2625  10.934   7.381  10.512  0.0470  0.6938 -1.8729
   20MOL0     H 2626  10.219   6.622   9.500 -0.5512  1.2970 -3.2177
   20MOL0     H 2627  10.359   6.484   9.392  0.9242  1.0988 -1.1261
   20MOL0     H 2628  10.371   6.040   9.169  0.7583  2.3419  1.9830
   20MOL0     H 2629  10.514   5.879   9.012  1.1793  0.7828 -2.6791
   20MOL0     H 2630  10.948   5.760   9.001  0.0033 -0.9585 -2.0738
   20MOL0     H 2631  10.970   5.912   9.093  1.3505 -1.9820 -0.2730
   20MOL0     H 2632  10.909   6.031   8.906  1.3087  0.2387  0.7739
   20MOL0     H 2633  11.053   5.925   8.877 -0.1150  0.1199  0.7961
   20MOL0     H 2634  10.788   5.893   8.741  0.3894 -1.0835  0.8020
   20MOL0     H 2635  10.893   5.752   8.765 -0.8725 -0.5631  1.0602
   20MOL0     H 2636  10.904   5.890   8.548 -0.6493 -2.8411  0.9526
   20MOL0     H 2637  10.972   6.014   8.652 -2.1366 -0.1536  1.9757
   20MOL0     H 2638  11.280   5.734   8.674 -0.4722  1.7743  5.7930
   20MOL0     H 2639  10.847   5.988   9.266 -0.5873  1.3346  0.3358
   20MOL0     H 2640  10.722   6.132   9.392  0.8611  0.4748 -0.6147
   21MOL0     O 2641   4.433   5.865   9.035 -0.2380  0.6016  0.2729
   21MOL0     C 2642   4.552   5.828   9.032 -0.5430 -0.2035  0.0288
   21MOL0     O 2643   4.594   5.708   8.981  0.1901 -0.5089 -0.0510
   21MOL0     C 2644   4.495   5.630   8.944  1.2939  0.2172  0.7665
   21MOL0     C 2645   4.400   5.653   8.841  0.1196  0.2556  0.8051
   21MOL0     C 2646   4.289   5.574   8.824 -0.2411 -0.0308 -0.1647
   21MOL0     C 2647   4.275   5.453   8.896 -0.9803 -0.1061 -0.1637
   21MOL0     O 2648   4.178   5.363   8.870  0.1367  0.3280 -0.1668
   21MOL0     C 2649   4.166   5.323   8.727 -0.1034  0.0950 -0.6583
   21MOL0     C 2650   4.289   5.250   8.676 -0.4263 -0.5366 -0.4258
   21MOL0     C 2651   4.264   5.166   8.557 -1.0784 -0.2336  0.6427
   21MOL0     C 2652   4.187   5.231   8.450 -0.6146 -0.5014  0.1757
   21MOL0     C 2653   4.241   5.365   8.393  0.4005 -0.0280  0.2080
   21MOL0     C 2654   4.387   5.358   8.343  0.3405 -0.6633 -0.6724
   21MOL0     C 2655   4.412   5.463   8.235  0.9842 -0.0770  0.8018
   21MOL0     C 2656   4.556   5.462   8.192 -0.3595 -0.1737  0.3687
   21MOL0     N 2657   4.654   5.464   8.308 -0.1483 -0.9719 -0.0964
   21MOL0     C 2658   4.679   5.570   8.391 -0.0534  1.0593 -0.1464
   21MOL0     C 2659   4.741   5.513   8.499  0.1017  0.1531 -0.1045
   21MOL0     C 2660   4.746   5.581   8.626  0.2516 -0.9152 -0.5995
   21MOL0     C 2661   4.885   5.570   8.686  0.4271 -0.3506 -0.5944
   21MOL0     C 2662   4.979   5.641   8.595  0.1135  1.0965 -0.2782
   21MOL0     C 2663   5.094   5.707   8.680 -0.1879 -1.0142  0.5900
   21MOL0     O 2664   5.050   5.833   8.745  0.2822  0.2489  0.4190
   21MOL0     C 2665   5.146   5.909   8.794  0.6182  0.1575 -0.1566
   21MOL0     C 2666   5.119   6.041   8.822 -0.2678  0.1160 -0.7916
   21MOL0     C 2667   5.220   6.133   8.864  0.7287  0.2984 -0.1537
   21MOL0     C 2668   5.349   6.090   8.875  0.4683 -0.4625 -0.6560
   21MOL0     C 2669   5.460   6.180   8.927 -0.6864  0.4778 -0.6825
   21MOL0     O 2670   5.431   6.318   8.963 -0.2195 -0.2524 -0.3886
   21MOL0     C 2671   5.537   6.389   9.004 -0.1975 -0.4660 -0.1457
   21MOL0     C 2672   5.593   6.369   9.132  0.1616 -0.0197  0.2798
   21MOL0     C 2673   5.673   6.475   9.177 -0.1441 -0.3119 -0.4514
   21MOL0     C 2674   5.679   6.605   9.118  0.8588  0.7616 -0.6231
   21MOL0     O 2675   5.749   6.708   9.170 -0.0374  0.1746  0.7883
   21MOL0     C 2676   5.698   6.798   9.269  0.9272  0.1921 -0.2216
   21MOL0     C 2677   5.790   6.911   9.279  0.7200  0.1239 -0.7649
   21MOL0     C 2678   5.930   6.876   9.311  0.1922 -0.1626  0.0179
   21MOL0     C 2679   5.955   6.770   9.424 -0.2174 -0.4504 -0.1733
   21MOL0     C 2680   6.044   6.658   9.385 -0.2804  0.5065 -0.2740
   21MOL0     C 2681   6.104   6.573   9.506 -0.1876 -0.5781  0.0507
   21MOL0     C 2682   6.180   6.448   9.472  0.2042 -0.4994  0.3716
   21MOL0     C 2683   6.190   6.361   9.597 -0.1944 -0.1049  0.5753
   21MOL0    Cl 2684   6.342   6.400   9.684  0.2872  0.4958  0.1232
   21MOL0     C 2685   5.629   6.611   8.994 -0.0128  0.6071  0.9098
   21MOL0     C 2686   5.556   6.506   8.933  0.9185 -0.9630 -0.1260
   21MOL0     O 2687   5.574   6.131   8.945  0.0058  0.6474  0.9349
   21MOL0     C 2688   5.370   5.952   8.868  0.1027  0.3666 -0.2595
   21MOL0     C 2689   5.266   5.862   8.837 -0.1757 -0.2748 -0.1280
   21MOL0     N 2690   4.741   5.375   8.485 -0.3522 -0.2034 -0.4541
   21MOL0     N 2691   4.690   5.348   8.368 -0.3420 -0.4716 -0.4988
   21MOL0     C 2692   4.371   5.426   8.995 -0.2950  0.8198 -0.0045
   21MOL0     C 2693   4.478   5.519   9.022  0.3825  1.1819  0.3824
   21MOL0     C 2694   4.648   5.936   9.063  0.3094 -0.5426 -0.0885
   21MOL0     C 2695   4.618   6.060   9.116  0.1339 -0.3035 -0.5215
   21MOL0     C 2696   4.715   6.158   9.130  0.7469  0.0382 -0.9128
   21MOL0     C 2697   4.850   6.129   9.114 -0.7185  0.9172 -1.0200
   21MOL0     O 2698   4.940   6.235   9.136 -0.8450 -0.0699 -0.4577
   21MOL0     C 2699   5.052   6.210   9.225  0.8745  0.2751  0.0690
   21MOL0     C 2700   5.151   6.326   9.217 -0.6121 -0.9276  0.6867
   21MOL0     C 2701   5.277   6.283   9.301  0.6615 -0.7436  0.1275
   21MOL0     C 2702   5.258   6.244   9.454 -0.4819  0.7410 -0.5143
   21MOL0     C 2703   5.193   6.344   9.530  0.1744 -0.5771  0.3830
   21MOL0     C 2704   5.144   6.434   9.594  0.8273  0.2142  0.0338
   21MOL0     C 2705   4.888   5.997   9.079  0.1103  0.6239  0.3103
   21MOL0     C 2706   4.784   5.911   9.037 -0.1144 -0.7785  1.1661
   21MOL0     H 2707   4.413   5.741   8.778  4.1951 -0.2581  0.7007
   21MOL0     H 2708   4.208   5.604   8.758 -1.3335  0.5466  1.3868
   21MOL0     H 2709   4.129   5.399   8.658  0.7801 -1.2427 -2.7122
   21MOL0     H 2710   4.085   5.250   8.722 -1.8661  1.9760 -0.8284
   21MOL0     H 2711   4.327   5.183   8.754  2.4410  3.2920  1.7919
   21MOL0     H 2712   4.368   5.322   8.658  0.1710 -1.0141  0.2293
   21MOL0     H 2713   4.212   5.076   8.590 -3.3169 -0.0032 -1.8200
   21MOL0     H 2714   4.361   5.142   8.512 -0.5988  0.3384  1.3535
   21MOL0     H 2715   4.207   5.161   8.368  1.0346 -0.2531  0.3314
   21MOL0     H 2716   4.082   5.225   8.480 -0.2027  0.3487  1.9149
   21MOL0     H 2717   4.233   5.442   8.471  0.9198 -2.5819  2.9812
   21MOL0     H 2718   4.175   5.395   8.311  1.2054 -1.6123 -1.0735
   21MOL0     H 2719   4.395   5.258   8.299  0.8720 -2.0225  2.2527
   21MOL0     H 2720   4.452   5.371   8.430 -0.2212 -1.2059 -0.1562
   21MOL0     H 2721   4.348   5.448   8.148 -0.8795 -2.9276  2.5100
   21MOL0     H 2722   4.391   5.564   8.271 -3.6175 -0.5822  0.1596
   21MOL0     H 2723   4.577   5.540   8.119 -0.5380 -0.4134  0.0578
   21MOL0     H 2724   4.561   5.367   8.138 -1.1983 -0.0501  0.0718
   21MOL0     H 2725   4.655   5.675   8.381 -2.1610  0.7438  0.9936
   21MOL0     H 2726   4.673   5.537   8.694  0.6395  0.4586  0.7629
   21MOL0     H 2727   4.721   5.686   8.604  2.2435  0.7021  3.8632
   21MOL0     H 2728   4.914   5.465   8.682  0.9142 -0.3050  1.2421
   21MOL0     H 2729   4.897   5.614   8.785  2.1359  2.1489 -1.8018
   21MOL0     H 2730   5.033   5.576   8.525 -0.6142  0.3391 -0.1459
   21MOL0     H 2731   4.928   5.723   8.543 -3.7089 -1.7303 -1.3634
   21MOL0     H 2732   5.176   5.728   8.610 -0.9556 -5.2279 -1.8582
   21MOL0     H 2733   5.132   5.647   8.763  2.8139  0.5927  0.5384
   21MOL0     H 2734   5.020   6.085   8.811 -1.4733 -1.2820  2.8489
   21MOL0     H 2735   5.181   6.232   8.887 -1.1980 -0.2272 -0.9452
   21MOL0     H 2736   5.588   6.278   9.192 -0.7617  0.0991  0.3926
   21MOL0     H 2737   5.722   6.459   9.272 -2.3763 -0.1490  0.7809
   21MOL0     H 2738   5.682   6.741   9.360  2.7291  0.1344  0.1011
   21MOL0     H 2739   5.602   6.845   9.245  1.3564  2.1620  1.6047
   21MOL0     H 2740   5.742   6.981   9.348 -3.0255 -0.5981 -2.4217
   21MOL0     H 2741   5.785   6.968   9.186 -2.5723  0.2653 -0.6217
   21MOL0     H 2742   5.988   6.962   9.348  0.0866 -0.4682  0.9193
   21MOL0     H 2743   5.987   6.842   9.224  2.2507  0.5069  1.0204
   21MOL0     H 2744   6.006   6.831   9.500 -1.2502  0.0759  0.1201
   21MOL0     H 2745   5.863   6.735   9.471 -0.7241 -0.6544 -1.2981
   21MOL0     H 2746   6.128   6.694   9.326  1.4724 -1.4987  0.8607
   21MOL0     H 2747   5.969   6.597   9.333 -1.3627  0.1345  1.6432
   21MOL0     H 2748   6.025   6.553   9.579 -0.6479  1.0433  0.0531
   21MOL0     H 2749   6.182   6.633   9.552  2.3206 -0.1358 -4.2235
   21MOL0     H 2750   6.113   6.409   9.395 -0.5759  1.3823  0.0416
   21MOL0     H 2751   6.281   6.454   9.428 -1.0298 -1.4742 -2.8741
   21MOL0     H 2752   6.183   6.259   9.559 -2.1340  0.2071 -0.0164
   21MOL0     H 2753   6.107   6.369   9.668  0.9073 -0.2199  1.9018
   21MOL0     H 2754   5.663   6.690   8.927  2.1415  0.7463  2.0877
   21MOL0     H 2755   5.494   6.517   8.844  0.7036 -0.3870  0.0961
   21MOL0     H 2756   5.469   5.911   8.885 -0.8018 -1.5962  0.5264
   21MOL0     H 2757   5.282   5.756   8.854  1.9458  0.5127  4.4036
   21MOL0     H 2758   4.352   5.334   9.050 -2.0285 -0.4520 -2.5012
   21MOL0     H 2759   4.542   5.489   9.105 -2.4822 -0.5580  2.1617
   21MOL0     H 2760   4.514   6.086   9.136  0.0458 -0.7124 -0.4296
   21MOL0     H 2761   4.700   6.263   9.154  3.1177  0.0217  0.8788
   21MOL0     H 2762   5.091   6.110   9.201 -0.4821 -0.3911  0.5135
   21MOL0     H 2763   5.014   6.200   9.328  0.3283 -0.2261 -0.1735
   21MOL0     H 2764   5.168   6.345   9.111 -2.3951  2.5886  0.8956
   21MOL0     H 2765   5.104   6.415   9.259 -1.0774 -0.1258 -1.4405
   21MOL0     H 2766   5.343   6.371   9.298 -0.2045  0.1151  2.9686
   21MOL0     H 2767   5.313   6.195   9.248  1.9791  0.6290 -1.3710
   21MOL0     H 2768   5.201   6.152   9.467  1.7665 -0.4528  1.5699
   21MOL0     H 2769   5.355   6.231   9.503 -0.5356 -3.6140 -1.1605
   21MOL0     H 2770   5.083   6.496   9.656 -0.9804 -1.4600  0.0228
   21MOL0     H 2771   4.991   5.967   9.066  0.2307  1.2939 -0.2795
   21MOL0     H 2772   4.828   5.824   8.990  1.3434 -1.6790  4.0384
   22MOL0     O 2773   9.620   2.662   4.191  0.3503  0.2268  0.2861
   22MOL0     C 2774   9.553   2.595   4.110 -0.3789 -0.5451  0.9113
   22MOL0     O 2775   9.431   2.621   4.078 -0.2853  0.5235 -0.9629
   22MOL0     C 2776   9.372   2.742   4.108 -0.1549  0.2161  1.0393
   22MOL0     C 2777   9.432   2.867   4.102 -0.2405 -0.8151  0.1652
   22MOL0     C 2778   9.361   2.976   4.139 -0.1881  0.6693 -0.5382
   22MOL0     C 2779   9.223   2.976   4.154 -1.3782  0.2590  1.3297
   22MOL0     O 2780   9.148   3.083   4.180 -0.2451  0.3114  0.1479
   22MOL0     C 2781   9.198   3.211   4.231  0.2836  0.7014  0.0822
   22MOL0     C 2782   9.082   3.270   4.301 -0.0466 -0.3731 -0.8669
   22MOL0     C 2783   9.002   3.350   4.191  0.2327  0.0691 -0.3854
   22MOL0     C 2784   8.857   3.392   4.235 -0.4903  0.2896 -0.6418
   22MOL0     C 2785   8.789   3.494   4.143 -0.4349  0.4858  0.6424
   22MOL0     C 2786   8.877   3.607   4.098 -0.7230  0.2564 -0.3772
   22MOL0     C 2787   8.786   3.714   4.037 -0.4938  0.2192  0.4794
   22MOL0     C 2788   8.704   3.686   3.909  0.3537 -0.3916 -0.4944
   22MOL0     N 2789   8.785   3.701   3.790  0.1308  0.1759  0.7945
   22MOL0     C 2790   8.873   3.609   3.748  0.1687 -0.0984 -0.6342
   22MOL0     C 2791   8.924   3.650   3.626  0.0924 -0.5727 -1.0786
   22MOL0     C 2792   9.020   3.578   3.535  0.1210 -0.5226  0.3928
   22MOL0     C 2793   9.142   3.665   3.515  0.2596  0.5517 -0.6237
   22MOL0     C 2794   9.225   3.697   3.635 -0.3484  0.4383  0.7469
   22MOL0     C 2795   9.327   3.591   3.671  0.2967  0.2852 -0.3623
   22MOL0     O 2796   9.255   3.473   3.726  0.2483  0.6419  0.5576
   22MOL0     C 2797   9.351   3.390   3.776 -0.5041 -0.3447 -0.2659
   22MOL0     C 2798   9.367   3.402   3.918 -0.7973  0.0185  0.4466
   22MOL0     C 2799   9.465   3.326   3.991  0.0734  0.2355  0.1850
   22MOL0     C 2800   9.549   3.239   3.918 -0.5820 -0.2323 -0.1198
   22MOL0     C 2801   9.657   3.159   3.982  0.7377  0.0319  0.8260
   22MOL0     O 2802   9.740   3.085   3.907  0.1140  0.9023 -0.1909
   22MOL0     C 2803   9.843   3.008   3.961  0.5395 -0.5289  0.6906
   22MOL0     C 2804   9.970   3.003   3.897 -0.6334 -0.8202 -0.9085
   22MOL0     C 2805  10.063   2.914   3.937 -0.7146  1.0813  0.1637
   22MOL0     C 2806  10.039   2.816   4.037 -0.6096  0.3763 -0.1552
   22MOL0     O 2807  10.128   2.724   4.089  0.7983  0.2663  0.0179
   22MOL0     C 2808  10.195   2.648   3.992  0.8299  0.1278  0.3009
   22MOL0     C 2809  10.257   2.523   4.047  0.2977  0.5793 -0.1341
   22MOL0     C 2810  10.164   2.431   4.121  0.3084  0.0504  0.3090
   22MOL0     C 2811  10.224   2.293   4.130 -0.2308  0.5594 -0.0282
   22MOL0     C 2812  10.126   2.184   4.190 -0.3146  0.8206 -0.1565
   22MOL0     C 2813  10.186   2.045   4.206  0.3426  0.2340  0.4599
   22MOL0     C 2814  10.074   1.945   4.248  0.3024 -0.6654 -0.3789
   22MOL0     C 2815  10.140   1.813   4.287 -0.1891  0.3747  0.6281
   22MOL0    Cl 2816  10.242   1.837   4.421 -0.2840 -0.0430  0.4558
   22MOL0     C 2817   9.915   2.823   4.110  0.1881  0.1549  0.5319
   22MOL0     C 2818   9.823   2.918   4.066  0.3360 -0.8768 -0.0576
   22MOL0     O 2819   9.660   3.163   4.099 -0.5038  0.4221 -0.6592
   22MOL0     C 2820   9.532   3.234   3.773  1.1599 -0.8677 -0.3649
   22MOL0     C 2821   9.425   3.304   3.707 -1.1354  0.6201 -0.0928
   22MOL0     N 2822   8.867   3.775   3.604  0.5788 -0.1463 -0.9173
   22MOL0     N 2823   8.783   3.803   3.703  0.3839  0.4453  0.0247
   22MOL0     C 2824   9.160   2.850   4.137 -0.8271 -0.4482 -0.4727
   22MOL0     C 2825   9.236   2.737   4.116  0.0441 -0.2039 -0.0653
   22MOL0     C 2826   9.615   2.493   4.020 -0.0188 -0.0642 -0.5736
   22MOL0     C 2827   9.724   2.422   4.076 -0.2144  0.4355 -0.2772
   22MOL0     C 2828   9.770   2.300   4.018  0.4052 -0.4910 -0.4307
   22MOL0     C 2829   9.716   2.257   3.896 -0.2802  0.2440  0.4278
   22MOL0     O 2830   9.749   2.132   3.857  0.1311  0.9277 -0.4154
   22MOL0     C 2831   9.720   2.071   3.729  0.4081 -0.0933  0.7421
   22MOL0     C 2832   9.819   2.126   3.617 -0.2993  0.0272 -0.1044
   22MOL0     C 2833   9.783   2.057   3.479 -1.4329 -0.0722  0.2800
   22MOL0     C 2834   9.634   2.063   3.435 -0.2371 -0.1707 -0.5523
   22MOL0     C 2835   9.611   1.988   3.304 -0.6261 -0.7485  0.4607
   22MOL0     C 2836   9.594   1.930   3.193 -0.3200  0.1817 -0.4176
   22MOL0     C 2837   9.616   2.330   3.841 -0.0107 -1.0142 -0.4458
   22MOL0     C 2838   9.566   2.450   3.896 -0.3934 -0.1052 -0.0935
   22MOL0     H 2839   9.524   2.900   4.055 -0.1956 -1.3423 -0.1157
   22MOL0     H 2840   9.404   3.076   4.134  4.8121 -1.2295 -2.5971
   22MOL0     H 2841   9.235   3.278   4.152 -1.0997  1.4343  0.0312
   22MOL0     H 2842   9.279   3.192   4.301  0.0552 -0.4192  0.0567
   22MOL0     H 2843   9.118   3.327   4.388  3.5688 -2.1271 -1.0348
   22MOL0     H 2844   9.020   3.197   4.353  0.9581 -0.8322 -0.2898
   22MOL0     H 2845   8.986   3.290   4.102  2.3200  0.6180 -1.2065
   22MOL0     H 2846   9.061   3.437   4.161  1.7258 -0.0362  1.9425
   22MOL0     H 2847   8.795   3.305   4.258  1.0471  0.1286  3.8936
   22MOL0     H 2848   8.870   3.436   4.334  1.2988 -1.2185 -0.1278
   22MOL0     H 2849   8.694   3.523   4.190 -0.6735 -0.1980  0.5941
   22MOL0     H 2850   8.764   3.435   4.054  1.4607  0.1911  0.2768
   22MOL0     H 2851   8.945   3.572   4.021  3.0342 -0.6826  3.0384
   22MOL0     H 2852   8.937   3.646   4.180 -1.8117  0.1108  0.5203
   22MOL0     H 2853   8.716   3.749   4.112  0.4411 -2.0032  2.5105
   22MOL0     H 2854   8.855   3.796   4.011  0.8883 -1.3677 -1.1547
   22MOL0     H 2855   8.625   3.761   3.898 -0.7651 -1.3864  0.4829
   22MOL0     H 2856   8.653   3.589   3.916  0.8284 -0.6548 -0.6450
   22MOL0     H 2857   8.895   3.515   3.796  1.1579  0.5585  0.2559
   22MOL0     H 2858   8.963   3.559   3.444  0.2340  2.3040 -0.3729
   22MOL0     H 2859   9.046   3.482   3.580 -1.3733 -0.6897  0.9611
   22MOL0     H 2860   9.115   3.750   3.452 -2.8810 -0.6106 -1.0106
   22MOL0     H 2861   9.199   3.605   3.443 -0.3238  1.3309 -1.7596
   22MOL0     H 2862   9.287   3.786   3.624  0.8129 -0.5995 -2.3241
   22MOL0     H 2863   9.161   3.720   3.720 -1.3555 -1.1786  0.4677
   22MOL0     H 2864   9.390   3.636   3.749 -1.9038  1.9832  0.5214
   22MOL0     H 2865   9.388   3.554   3.588 -1.3156  2.6178 -2.7196
   22MOL0     H 2866   9.305   3.473   3.973 -0.4319 -0.3466  1.3499
   22MOL0     H 2867   9.463   3.341   4.098 -4.9869 -0.0977  0.4020
   22MOL0     H 2868   9.993   3.064   3.811  1.3647 -2.9362 -1.9900
   22MOL0     H 2869  10.158   2.909   3.884 -0.6888 -1.1944  0.3227
   22MOL0     H 2870  10.275   2.713   3.955  0.6052  0.6875  0.7742
   22MOL0     H 2871  10.133   2.610   3.910  1.6835 -2.0350  0.5903
   22MOL0     H 2872  10.332   2.559   4.117 -0.4223 -2.6289  2.5038
   22MOL0     H 2873  10.307   2.476   3.962  0.6822  2.6541 -1.1394
   22MOL0     H 2874  10.082   2.414   4.049 -0.1787 -0.4163  0.9596
   22MOL0     H 2875  10.107   2.460   4.210 -0.7500  0.2588 -0.4169
   22MOL0     H 2876  10.257   2.265   4.029  3.0322  2.6085  0.3051
   22MOL0     H 2877  10.315   2.300   4.191 -0.1801 -0.3544  0.0114
   22MOL0     H 2878  10.044   2.165   4.119 -0.8819  1.0009  0.4392
   22MOL0     H 2879  10.081   2.219   4.284  3.1390 -0.3009  2.0888
   22MOL0     H 2880  10.273   2.042   4.272  0.0387  0.4542  0.8716
   22MOL0     H 2881  10.219   2.019   4.105  1.7533 -0.8281  1.1559
   22MOL0     H 2882  10.014   1.972   4.336 -0.8078  0.0039 -1.3071
   22MOL0     H 2883  10.001   1.939   4.167  2.0728  1.0939 -2.2065
   22MOL0     H 2884  10.199   1.788   4.199  0.2064  2.3966  0.2522
   22MOL0     H 2885  10.069   1.731   4.299  1.3263 -1.3749 -1.4856
   22MOL0     H 2886   9.894   2.752   4.189 -0.5333  3.5625  3.7019
   22MOL0     H 2887   9.723   2.915   4.108  0.4096 -0.3331  0.1786
   22MOL0     H 2888   9.594   3.167   3.715  1.6684  0.7847 -1.8222
   22MOL0     H 2889   9.419   3.290   3.600  1.0405 -1.0944 -0.0524
   22MOL0     H 2890   9.055   2.842   4.161 -0.5325 -3.3400  0.2932
   22MOL0     H 2891   9.183   2.642   4.120  1.1100 -0.9115 -1.9590
   22MOL0     H 2892   9.760   2.452   4.174 -3.6712  0.4091  1.1463
   22MOL0     H 2893   9.859   2.253   4.059 -0.8598 -4.0010 -1.3629
   22MOL0     H 2894   9.615   2.086   3.703  0.5467 -0.6982 -0.2089
   22MOL0     H 2895   9.721   1.962   3.737 -2.9743 -0.1727  1.6005
   22MOL0     H 2896   9.809   2.232   3.591 -5.9593  0.3679  2.0804
   22MOL0     H 2897   9.918   2.092   3.648 -0.5490 -1.9980 -1.3583
   22MOL0     H 2898   9.820   1.955   3.482 -1.5037 -0.1372  4.2714
   22MOL0     H 2899   9.844   2.108   3.405 -0.1589 -0.2804  1.1512
   22MOL0     H 2900   9.563   2.025   3.509 -0.3468  0.6395 -0.2238
   22MOL0     H 2901   9.602   2.167   3.427 -0.9216 -0.3414 -0.1330
   22MOL0     H 2902   9.554   1.885   3.104  3.0509  1.5920 -2.8734
   22MOL0     H 2903   9.566   2.301   3.749 -1.8250  0.2729  0.0833
   22MOL0     H 2904   9.479   2.505   3.860  1.4416  2.3243 -1.1331
   23MOL0     O 2905   9.446   0.051   7.843 -0.6146  0.3683  0.3076
   23MOL0     C 2906   9.437   0.017   7.957  0.0219 -0.8948 -0.1951
   23MOL0     O 2907   9.361  -0.094   7.990  0.0839  0.0681 -0.6362
   23MOL0     C 2908   9.318  -0.194   7.918  0.3284  0.8460  0.5792
   23MOL0     C 2909   9.216  -0.275   7.961  0.0808  0.1787  0.1365
   23MOL0     C 2910   9.171  -0.405   7.901 -2.0544  0.4412  0.3094
   23MOL0     C 2911   9.243  -0.445   7.787  0.2846 -0.1167 -0.5453
   23MOL0     O 2912   9.217  -0.576   7.739 -0.9165 -0.2898  0.3895
   23MOL0     C 2913   9.337  -0.660   7.698  1.0275 -0.5711 -0.6138
   23MOL0     C 2914   9.288  -0.791   7.629 -0.5938  0.5984 -0.1126
   23MOL0     C 2915   9.208  -0.758   7.508  0.8987  0.2347 -0.0320
   23MOL0     C 2916   9.167  -0.880   7.422 -0.4728 -0.1525  0.4100
   23MOL0     C 2917   9.195  -0.859   7.278 -0.1275  0.1978 -0.3445
   23MOL0     C 2918   9.165  -0.990   7.205  0.1799 -0.1811 -0.5075
   23MOL0     C 2919   9.143  -0.955   7.052 -0.4900 -0.1184  1.0662
   23MOL0     C 2920   9.145  -1.078   6.963 -0.7057  0.5359  0.1010
   23MOL0     N 2921   9.117  -1.050   6.821 -0.6835 -0.1931  0.3429
   23MOL0     C 2922   9.143  -0.939   6.752 -0.8727 -0.5940  0.1750
   23MOL0     C 2923   9.151  -0.976   6.622  0.1746 -0.2559 -0.0683
   23MOL0     C 2924   9.182  -0.869   6.515  0.1289 -0.2225 -0.5905
   23MOL0     C 2925   9.313  -0.917   6.445  0.5725  0.2852  0.1652
   23MOL0     C 2926   9.358  -0.826   6.332  0.0459 -0.3065 -0.1872
   23MOL0     C 2927   9.307  -0.871   6.191 -0.0127 -0.0093  0.9792
   23MOL0     O 2928   9.170  -0.843   6.172  0.1148 -0.2520  0.2919
   23MOL0     C 2929   9.109  -0.871   6.058  0.3089 -0.6914  1.4379
   23MOL0     C 2930   9.173  -0.867   5.932 -0.7714 -0.2350  1.0326
   23MOL0     C 2931   9.098  -0.862   5.811  0.2179  0.0515 -1.1206
   23MOL0     C 2932   8.959  -0.875   5.814  0.4194 -0.2611 -0.7342
   23MOL0     C 2933   8.871  -0.886   5.692  0.0712  0.1246  0.3549
   23MOL0     O 2934   8.947  -0.885   5.582  0.2981  0.2515  0.2012
   23MOL0     C 2935   8.886  -0.858   5.457 -0.3539 -0.4210  0.4732
   23MOL0     C 2936   8.793  -0.759   5.443  0.2257 -0.5908 -0.1910
   23MOL0     C 2937   8.745  -0.727   5.319 -0.4482 -0.2543 -0.0275
   23MOL0     C 2938   8.798  -0.790   5.203 -0.4310  0.2052 -1.3261
   23MOL0     O 2939   8.758  -0.780   5.068 -0.2777  0.4816 -0.6177
   23MOL0     C 2940   8.644  -0.685   5.039 -0.1027 -0.0364  0.1119
   23MOL0     C 2941   8.614  -0.673   4.886  0.4791  0.5331  0.1177
   23MOL0     C 2942   8.703  -0.772   4.802 -0.4509 -0.2420  0.8009
   23MOL0     C 2943   8.660  -0.790   4.653 -0.3683 -0.2248 -0.7472
   23MOL0     C 2944   8.521  -0.843   4.633 -0.8419  0.3215 -0.4967
   23MOL0     C 2945   8.493  -0.901   4.494 -0.4967 -0.1651 -0.2143
   23MOL0     C 2946   8.528  -1.051   4.481  0.0606  0.8269  0.7257
   23MOL0     C 2947   8.552  -1.091   4.343 -0.3811 -0.5098 -0.5172
   23MOL0    Cl 2948   8.573  -1.272   4.344  0.0362 -0.6779 -0.3924
   23MOL0     C 2949   8.897  -0.882   5.219  0.1471  0.2191  0.3329
   23MOL0     C 2950   8.941  -0.913   5.342  0.5384  0.5848 -0.4566
   23MOL0     O 2951   8.755  -0.921   5.694  0.5434  0.4854 -0.2069
   23MOL0     C 2952   8.899  -0.869   5.944  0.0448  0.4141  0.7763
   23MOL0     C 2953   8.970  -0.881   6.072  0.8200 -0.3932  0.0041
   23MOL0     N 2954   9.123  -1.113   6.611 -0.3078  0.4080  0.6184
   23MOL0     N 2955   9.099  -1.151   6.738 -0.6509 -0.4027  0.5455
   23MOL0     C 2956   9.343  -0.358   7.741  0.7753 -0.2117  0.5027
   23MOL0     C 2957   9.381  -0.239   7.799 -0.5999 -0.4976  0.1854
   23MOL0     C 2958   9.500   0.111   8.068 -0.6498 -0.3947  0.3996
   23MOL0     C 2959   9.597   0.216   8.023 -1.0254 -0.0835  0.7475
   23MOL0     C 2960   9.653   0.309   8.109  0.1322 -0.5127 -0.0651
   23MOL0     C 2961   9.629   0.302   8.244  0.5142  0.3589 -0.1526
   23MOL0     O 2962   9.684   0.384   8.340  0.5994 -0.0682 -0.1425
   23MOL0     C 2963   9.822   0.405   8.321  1.1007  0.8617 -0.0211
   23MOL0     C 2964   9.894   0.450   8.449  0.3356 -0.1133 -0.5924
   23MOL0     C 2965   9.886   0.350   8.573  0.5842 -0.2258 -0.2603
   23MOL0     C 2966   9.938   0.207   8.542  0.0440 -0.0522  0.3779
   23MOL0     C 2967   9.908   0.121   8.653  0.4370  0.6244 -0.0529
   23MOL0     C 2968   9.872   0.063   8.753 -0.1003  0.0322  0.3494
   23MOL0     C 2969   9.541   0.204   8.287 -0.9149 -0.7924 -0.5907
   23MOL0     C 2970   9.476   0.112   8.206  0.5890 -0.0924  1.0463
   23MOL0     H 2971   9.158  -0.243   8.047  0.0440  2.0878 -0.5504
   23MOL0     H 2972   9.088  -0.466   7.934 -3.0877  0.7367 -1.6122
   23MOL0     H 2973   9.399  -0.693   7.782  1.2537 -0.1816 -0.6247
   23MOL0     H 2974   9.401  -0.611   7.624 -0.0127  0.2658 -0.9725
   23MOL0     H 2975   9.235  -0.851   7.704  0.8310 -0.2031  0.2912
   23MOL0     H 2976   9.378  -0.842   7.592  0.8808  3.8475 -1.3725
   23MOL0     H 2977   9.269  -0.692   7.446  1.2948 -0.3413 -0.2725
   23MOL0     H 2978   9.112  -0.710   7.528  0.9281  0.2429  0.0943
   23MOL0     H 2979   9.213  -0.968   7.466 -3.9869 -1.4469  1.8439
   23MOL0     H 2980   9.058  -0.888   7.423 -0.5981  1.3395  1.0289
   23MOL0     H 2981   9.302  -0.842   7.269  0.2243 -0.2732  2.1683
   23MOL0     H 2982   9.136  -0.772   7.247 -2.5550 -0.4719  1.9779
   23MOL0     H 2983   9.077  -1.045   7.241  1.5633 -2.2352 -0.0652
   23MOL0     H 2984   9.249  -1.060   7.211 -0.5127 -1.0006 -0.1669
   23MOL0     H 2985   9.052  -0.902   7.022  1.2583  1.5090 -1.8610
   23MOL0     H 2986   9.226  -0.892   7.018  0.4249 -1.0678  1.4954
   23MOL0     H 2987   9.079  -1.156   7.003 -0.2562 -0.6743 -1.4140
   23MOL0     H 2988   9.250  -1.110   6.963 -1.2219 -1.2882  0.3519
   23MOL0     H 2989   9.185  -0.845   6.787  0.0586 -0.5679 -0.9609
   23MOL0     H 2990   9.204  -0.776   6.568 -0.5333 -1.1589  1.4664
   23MOL0     H 2991   9.096  -0.862   6.448 -0.9935  0.2794  0.8542
   23MOL0     H 2992   9.287  -1.018   6.412  0.8250  0.9013 -2.0848
   23MOL0     H 2993   9.391  -0.922   6.522  0.8598  3.4185  0.1817
   23MOL0     H 2994   9.320  -0.725   6.346 -0.4316 -0.1903 -2.0917
   23MOL0     H 2995   9.467  -0.831   6.326 -0.0559 -0.8921 -2.4808
   23MOL0     H 2996   9.321  -0.979   6.187 -1.6447 -0.2421  0.8443
   23MOL0     H 2997   9.368  -0.814   6.120  2.1334 -2.3532  0.7799
   23MOL0     H 2998   9.281  -0.864   5.925 -0.8529 -0.9717 -3.4104
   23MOL0     H 2999   9.147  -0.844   5.717  2.0824  1.9463  0.1221
   23MOL0     H 3000   8.759  -0.693   5.523 -2.1880  0.1639 -1.7164
   23MOL0     H 3001   8.677  -0.644   5.305 -0.7045 -0.7870 -2.3882
   23MOL0     H 3002   8.669  -0.588   5.082 -0.4700  0.2696 -0.3490
   23MOL0     H 3003   8.549  -0.719   5.081 -0.9204  1.5269 -0.4292
   23MOL0     H 3004   8.627  -0.571   4.850  0.9481  0.6631  0.6359
   23MOL0     H 3005   8.511  -0.706   4.870  0.6262  0.5518 -0.9062
   23MOL0     H 3006   8.699  -0.872   4.847 -1.9967 -1.9758 -2.7624
   23MOL0     H 3007   8.801  -0.723   4.802 -1.5314  2.0332  0.3909
   23MOL0     H 3008   8.670  -0.697   4.596  2.6028 -1.8555 -3.2835
   23MOL0     H 3009   8.742  -0.850   4.611  0.8975  0.2705  0.9022
   23MOL0     H 3010   8.467  -0.750   4.654 -1.2178 -0.3799  2.0027
   23MOL0     H 3011   8.481  -0.910   4.710  2.5437 -1.0905  0.1879
   23MOL0     H 3012   8.543  -0.849   4.412 -1.6571  2.8493  0.8286
   23MOL0     H 3013   8.385  -0.893   4.476 -0.3639  1.1922 -0.5317
   23MOL0     H 3014   8.605  -1.075   4.555  0.8838  1.1231 -0.0184
   23MOL0     H 3015   8.451  -1.120   4.516  0.5398  0.5047  1.1699
   23MOL0     H 3016   8.631  -1.043   4.286 -2.1574  2.6594 -0.4938
   23MOL0     H 3017   8.463  -1.064   4.286 -0.1211 -0.3931 -0.8688
   23MOL0     H 3018   8.940  -0.925   5.130 -3.7816  3.0238 -3.3479
   23MOL0     H 3019   9.010  -0.996   5.357 -1.3071 -0.7670  1.2108
   23MOL0     H 3020   8.791  -0.879   5.946 -0.0490  1.1286  0.0216
   23MOL0     H 3021   8.909  -0.887   6.162 -0.8891  1.2197 -0.9594
   23MOL0     H 3022   9.405  -0.381   7.655  2.0201  0.3166  1.2332
   23MOL0     H 3023   9.449  -0.174   7.745 -0.3799 -1.7139 -1.0499
   23MOL0     H 3024   9.623   0.218   7.918 -1.0924  1.8056  0.7377
   23MOL0     H 3025   9.712   0.388   8.063  0.5612 -1.2951 -0.8931
   23MOL0     H 3026   9.844   0.478   8.242  4.0913  2.4908  2.0841
   23MOL0     H 3027   9.880   0.316   8.293  1.7780  1.4693 -0.6033
   23MOL0     H 3028  10.000   0.450   8.419 -0.3199  0.0563 -3.0554
   23MOL0     H 3029   9.863   0.554   8.464  2.7308  0.9416 -2.3129
   23MOL0     H 3030   9.782   0.350   8.606  0.7372  0.6490  0.2391
   23MOL0     H 3031   9.942   0.404   8.650 -0.7522  0.8688 -0.0305
   23MOL0     H 3032   9.890   0.169   8.451 -0.6295 -2.3469  1.5997
   23MOL0     H 3033  10.047   0.204   8.535  0.1657 -3.5842  1.7734
   23MOL0     H 3034   9.861   0.011   8.846  0.1031 -1.9016 -0.6707
   23MOL0     H 3035   9.512   0.226   8.389  1.4503  0.8372 -0.1768
   23MOL0     H 3036   9.403   0.040   8.241 -1.0696  0.0695 -1.7969
   24MOL0     O 3037   6.755  10.619  10.621 -0.8543 -0.7183 -0.0301
   24MOL0     C 3038   6.791  10.715  10.557  0.4597 -0.3621 -0.2598
   24MOL0     O 3039   6.733  10.836  10.550  0.8073  0.4413  0.4414
   24MOL0     C 3040   6.614  10.856  10.623 -0.3225  0.8039  0.0335
   24MOL0     C 3041   6.618  10.850  10.763  0.6654  0.0463  0.0760
   24MOL0     C 3042   6.507  10.881  10.838  0.8047  0.8213  0.6616
   24MOL0     C 3043   6.391  10.926  10.779 -0.3404  0.5219  0.8358
   24MOL0     O 3044   6.292  10.955  10.867 -0.4829  0.0311  0.9198
   24MOL0     C 3045   6.179  10.877  10.831  0.0656  0.7200 -0.1999
   24MOL0     C 3046   6.055  10.962  10.867 -0.5230  0.7178  0.1839
   24MOL0     C 3047   5.919  10.935  10.797  0.4843 -0.6329  0.3779
   24MOL0     C 3048   5.819  11.056  10.812 -0.6119 -0.8566  0.3210
   24MOL0     C 3049   5.707  11.024  10.706  0.3273 -0.4723  0.4767
   24MOL0     C 3050   5.601  10.948  10.780  0.4740  0.3225  0.1295
   24MOL0     C 3051   5.472  10.928  10.705 -0.3888  0.0312 -0.1245
   24MOL0     C 3052   5.500  10.831  10.588  0.1706 -0.2773 -0.2095
   24MOL0     N 3053   5.368  10.801  10.518 -0.7580 -1.0640 -0.4341
   24MOL0     C 3054   5.307  10.873  10.416 -1.0841  0.3132  0.2170
   24MOL0     C 3055   5.199  10.807  10.388 -0.0721 -1.1211 -0.2143
   24MOL0     C 3056   5.093  10.846  10.290  0.1883 -0.1429 -0.2782
   24MOL0     C 3057   4.956  10.851  10.352 -0.1515  0.6357 -0.5942
   24MOL0     C 3058   4.839  10.839  10.255  1.1428  0.1488 -0.4391
   24MOL0     C 3059   4.816  10.973  10.184  0.0596  0.4641  0.0216
   24MOL0     O 3060   4.743  10.963  10.057  0.2574  0.9104 -0.6275
   24MOL0     C 3061   4.618  10.903  10.049 -0.7108  0.0772  0.3010
   24MOL0     C 3062   4.525  10.935  10.144  0.0108 -0.5883 -0.6501
   24MOL0     C 3063   4.397  10.921  10.119 -0.0153  0.4400  0.2926
   24MOL0     C 3064   4.351  10.863  10.001 -1.1403  1.1964 -0.0342
   24MOL0     C 3065   4.201  10.843   9.973 -0.3713 -0.1700 -0.6158
   24MOL0     O 3066   4.160  10.781   9.850 -0.2004 -0.4078  0.1267
   24MOL0     C 3067   4.030  10.725   9.839 -0.1876  0.0560 -0.2781
   24MOL0     C 3068   3.974  10.707   9.710 -0.7669 -0.0187  0.2232
   24MOL0     C 3069   3.847  10.657   9.690 -0.7525  0.1382 -0.0996
   24MOL0     C 3070   3.765  10.614   9.797  1.1018  0.9841 -0.6715
   24MOL0     O 3071   3.643  10.568   9.770  0.4406  0.4367 -0.6815
   24MOL0     C 3072   3.571  10.512   9.881  0.1148 -0.2702  0.4968
   24MOL0     C 3073   3.445  10.588   9.916 -0.0518 -0.7349 -0.6007
   24MOL0     C 3074   3.314  10.499   9.955 -0.1723 -0.1559 -0.1747
   24MOL0     C 3075   3.192  10.587   9.967 -0.6244  0.6815  0.0874
   24MOL0     C 3076   3.072  10.512  10.020  0.1546 -0.6218 -0.0111
   24MOL0     C 3077   3.041  10.372   9.955 -1.3230  0.7231 -0.4690
   24MOL0     C 3078   2.922  10.309  10.026 -0.1195 -0.1417  0.4948
   24MOL0     C 3079   2.892  10.166   9.979 -0.0326 -0.2624 -1.0953
   24MOL0    Cl 3080   2.813  10.170   9.813 -0.0042  0.0012  0.3039
   24MOL0     C 3081   3.823  10.631   9.930  0.4289  0.4878  1.1793
   24MOL0     C 3082   3.952  10.681   9.940  0.4098  1.0617 -0.7870
   24MOL0     O 3083   4.126  10.877  10.063  0.5877 -0.1537  0.4001
   24MOL0     C 3084   4.444  10.822   9.910  0.3978 -0.2044  0.4844
   24MOL0     C 3085   4.584  10.842   9.928  0.5051  0.2735 -0.3787
   24MOL0     N 3086   5.173  10.725  10.492  0.6091  0.4391 -0.2130
   24MOL0     N 3087   5.283  10.712  10.564  0.1843 -0.1969 -0.6181
   24MOL0     C 3088   6.385  10.923  10.641  0.2873 -0.1760 -0.3617
   24MOL0     C 3089   6.493  10.890  10.567 -0.3574  0.0445  0.7224
   24MOL0     C 3090   6.917  10.703  10.491  0.2234 -0.6044  0.6133
   24MOL0     C 3091   6.978  10.805  10.406  0.9127  0.1304  0.6947
   24MOL0     C 3092   7.090  10.772  10.327  0.7987  0.6679 -1.0794
   24MOL0     C 3093   7.158  10.656  10.343 -0.7464  0.2477  0.0953
   24MOL0     O 3094   7.271  10.625  10.270  0.6712 -0.2439 -0.4390
   24MOL0     C 3095   7.364  10.722  10.238  0.0442 -0.4136  0.4309
   24MOL0     C 3096   7.476  10.692  10.342  0.5625  0.5164  0.3747
   24MOL0     C 3097   7.603  10.767  10.289  0.3547 -0.2794 -0.0049
   24MOL0     C 3098   7.722  10.727  10.376  0.2708 -1.6482 -0.3536
   24MOL0     C 3099   7.707  10.758  10.514 -0.1576  0.1760  0.1761
   24MOL0     C 3100   7.720  10.791  10.631  0.6297  1.4713 -0.1763
   24MOL0     C 3101   7.096  10.566  10.430  0.0655 -0.2822  0.3406
   24MOL0     C 3102   6.983  10.582  10.495 -0.1024 -1.2043 -0.2520
   24MOL0     H 3103   6.712  10.820  10.809 -0.3467  0.4518  2.5408
   24MOL0     H 3104   6.510  10.875  10.946  1.5547 -1.3933  0.5699
   24MOL0     H 3105   6.164  10.784  10.887  2.2043 -0.4195 -1.3908
   24MOL0     H 3106   6.171  10.847  10.726 -1.9453  2.4026 -0.6024
   24MOL0     H 3107   6.082  11.067  10.854 -1.6645  1.2003  1.4677
   24MOL0     H 3108   6.046  10.953  10.975  2.0104 -0.7356  0.3551
   24MOL0     H 3109   5.877  10.844  10.842 -3.2346  1.7946  2.3308
   24MOL0     H 3110   5.952  10.932  10.693 -1.1360 -2.1220 -0.1331
   24MOL0     H 3111   5.777  11.078  10.910  0.8258 -1.0017  0.9959
   24MOL0     H 3112   5.863  11.156  10.807 -1.4956 -0.4597  0.3276
   24MOL0     H 3113   5.734  10.963  10.619 -0.8927 -4.5891  2.7423
   24MOL0     H 3114   5.675  11.121  10.668  0.0847 -1.9032 -3.4808
   24MOL0     H 3115   5.573  10.994  10.875 -1.4140  0.4784 -0.4496
   24MOL0     H 3116   5.634  10.849  10.812 -2.7717 -0.1764  2.4630
   24MOL0     H 3117   5.386  10.894  10.763 -1.1874  1.0666 -0.6713
   24MOL0     H 3118   5.424  11.013  10.657 -3.1591 -1.4959 -0.2625
   24MOL0     H 3119   5.548  10.737  10.618 -2.6322 -2.1816 -1.2715
   24MOL0     H 3120   5.560  10.872  10.505  0.2351 -1.5128 -0.7933
   24MOL0     H 3121   5.337  10.961  10.360  0.8881 -2.0935 -2.9057
   24MOL0     H 3122   5.082  10.761  10.223 -2.1117 -3.8790  4.2699
   24MOL0     H 3123   5.132  10.935  10.239 -1.9705  0.6541 -0.6545
   24MOL0     H 3124   4.960  10.946  10.406  1.3352 -0.9617  2.3516
   24MOL0     H 3125   4.944  10.772  10.426  0.4601  1.1898  0.1123
   24MOL0     H 3126   4.856  10.765  10.175 -1.2278  0.8581 -1.7017
   24MOL0     H 3127   4.752  10.821  10.318  1.6034 -0.5699  0.0052
   24MOL0     H 3128   4.913  11.025  10.186  1.8419 -2.5999  0.1230
   24MOL0     H 3129   4.758  11.034  10.254 -2.8773  1.4993 -3.0394
   24MOL0     H 3130   4.549  10.993  10.233 -1.3835  2.2639 -1.9894
   24MOL0     H 3131   4.331  10.961  10.195 -1.3291 -1.7430  0.3624
   24MOL0     H 3132   4.041  10.729   9.628  0.6632  1.5505  1.7198
   24MOL0     H 3133   3.814  10.641   9.588  1.7067 -0.5770 -0.8574
   24MOL0     H 3134   3.619  10.481   9.974  0.8212  0.8466  0.5206
   24MOL0     H 3135   3.520  10.425   9.840 -1.5966 -0.1852  2.2530
   24MOL0     H 3136   3.417  10.644   9.826 -0.0002 -1.0879 -0.8353
   24MOL0     H 3137   3.467  10.660   9.996  1.2091  0.2830 -1.8102
   24MOL0     H 3138   3.329  10.459  10.056  0.6081  0.3953 -0.0584
   24MOL0     H 3139   3.290  10.418   9.887  1.6914 -0.4487 -0.5318
   24MOL0     H 3140   3.222  10.666  10.035  0.8836 -1.0536  1.5430
   24MOL0     H 3141   3.163  10.625   9.869  2.4870 -0.8264 -1.5708
   24MOL0     H 3142   2.986  10.574   9.992 -0.6972 -1.6214  0.3348
   24MOL0     H 3143   3.076  10.492  10.127 -0.0886 -0.5874  0.0060
   24MOL0     H 3144   3.126  10.303   9.963 -0.8724  1.0114 -2.2551
   24MOL0     H 3145   3.029  10.391   9.848 -1.8613  0.2791 -0.4898
   24MOL0     H 3146   2.934  10.295  10.134 -1.3268 -3.2240  0.3391
   24MOL0     H 3147   2.838  10.376  10.007  0.1086 -0.0623 -0.2695
   24MOL0     H 3148   2.835  10.104  10.050  3.6582 -0.8743  1.6301
   24MOL0     H 3149   2.989  10.115   9.978 -0.4467 -1.3668  2.0712
   24MOL0     H 3150   3.760  10.616  10.017 -1.7447  0.8373 -0.2440
   24MOL0     H 3151   3.985  10.688  10.043  0.0226 -3.1579 -0.1946
   24MOL0     H 3152   4.404  10.783   9.817  1.9725  0.2317 -0.4074
   24MOL0     H 3153   4.657  10.804   9.858  1.8143 -0.4797  1.3410
   24MOL0     H 3154   6.292  10.960  10.599  1.2176  3.5399  0.5362
   24MOL0     H 3155   6.494  10.899  10.459  3.6439  1.7804  0.7118
   24MOL0     H 3156   6.932  10.900  10.380 -0.0487 -0.0498  1.6741
   24MOL0     H 3157   7.124  10.835  10.246  0.8566  3.1829  0.7784
   24MOL0     H 3158   7.335  10.826  10.251  1.2425  0.2505 -1.7103
   24MOL0     H 3159   7.408  10.697  10.141 -2.1035 -3.4972  0.0777
   24MOL0     H 3160   7.437  10.722  10.439 -1.2080  0.9800 -0.4427
   24MOL0     H 3161   7.502  10.586  10.351 -0.3996  0.4439  3.3541
   24MOL0     H 3162   7.595  10.876  10.283 -0.7563 -0.3879 -0.9378
   24MOL0     H 3163   7.624  10.727  10.189 -0.3722  0.2797 -0.3942
   24MOL0     H 3164   7.746  10.620  10.367 -0.7672 -2.1162  1.8522
   24MOL0     H 3165   7.810  10.782  10.341 -0.0013 -1.3584 -0.5823
   24MOL0     H 3166   7.713  10.792  10.738  1.5702  0.7161 -0.0978
   24MOL0     H 3167   7.151  10.476  10.454 -0.4180 -0.6598  0.0600
   24MOL0     H 3168   6.955  10.495  10.553 -1.6041  0.7259  2.0984
   25MOL0     O 3169  10.922  10.961   0.160  0.6040  0.0211  0.1032
   25MOL0     C 3170  10.925  11.005   0.272  0.2228  0.5481  0.1621
   25MOL0     O 3171  10.821  11.035   0.352 -0.1487  0.2418 -0.6090
   25MOL0     C 3172  10.693  10.976   0.341 -0.4926 -0.3032  0.9067
   25MOL0     C 3173  10.606  11.028   0.438 -0.0255  0.0729 -0.4743
   25MOL0     C 3174  10.475  10.974   0.453 -0.2946  0.5241  0.2078
   25MOL0     C 3175  10.431  10.872   0.365 -0.0417 -0.4632  0.6488
   25MOL0     O 3176  10.302  10.818   0.381  0.2766  0.0775  0.2821
   25MOL0     C 3177  10.288  10.678   0.361  0.1380  0.8831 -0.7937
   25MOL0     C 3178  10.149  10.629   0.412 -0.1087  0.2179  0.5694
   25MOL0     C 3179  10.125  10.662   0.561 -0.2264 -0.4489  0.1683
   25MOL0     C 3180   9.991  10.615   0.594 -0.1201  0.1742  0.1395
   25MOL0     C 3181   9.956  10.660   0.731 -0.5140  0.9206  0.4619
   25MOL0     C 3182   9.942  10.820   0.735  0.7076 -0.8779  0.2153
   25MOL0     C 3183   9.832  10.872   0.829  0.5405 -0.2056 -0.0571
   25MOL0     C 3184   9.857  10.845   0.981  0.0750 -0.2786 -0.5561
   25MOL0     N 3185   9.748  10.901   1.058 -0.4101 -0.4028  0.3909
   25MOL0     C 3186   9.732  11.038   1.092 -0.0013 -0.4263 -0.2693
   25MOL0     C 3187   9.621  11.027   1.173 -0.6525  0.4029  0.8770
   25MOL0     C 3188   9.542  11.137   1.226 -0.1071  0.7191  2.1800
   25MOL0     C 3189   9.409  11.146   1.140  0.1216 -0.0488 -0.2125
   25MOL0     C 3190   9.288  11.196   1.235  0.0552  0.2394 -0.1712
   25MOL0     C 3191   9.161  11.225   1.152  0.6703  0.4757  0.0213
   25MOL0     O 3192   9.072  11.285   1.242 -0.7431 -0.0660 -0.3928
   25MOL0     C 3193   8.955  11.325   1.194 -0.0323  0.0350 -0.0625
   25MOL0     C 3194   8.915  11.332   1.060 -0.2328 -0.2156  0.4186
   25MOL0     C 3195   8.788  11.385   1.020  0.0353 -0.0837  0.1910
   25MOL0     C 3196   8.692  11.422   1.116 -0.6885  0.7110  0.5296
   25MOL0     C 3197   8.554  11.482   1.086 -0.2536  0.0032  0.8431
   25MOL0     O 3198   8.497  11.465   0.957  0.1580  0.3409 -0.1195
   25MOL0     C 3199   8.374  11.512   0.950 -0.7736 -0.4251 -0.4600
   25MOL0     C 3200   8.264  11.423   0.914  0.2704  0.0311 -0.3897
   25MOL0     C 3201   8.145  11.488   0.876 -0.7102 -0.3704 -0.2623
   25MOL0     C 3202   8.129  11.630   0.864  0.0873 -0.0992 -0.0021
   25MOL0     O 3203   8.022  11.707   0.828  0.0898  0.1517  0.3530
   25MOL0     C 3204   7.894  11.649   0.816  1.5378 -0.5333  0.2371
   25MOL0     C 3205   7.862  11.608   0.669  0.0845  0.1398  0.7189
   25MOL0     C 3206   7.862  11.725   0.570 -1.0817  0.8460 -0.0798
   25MOL0     C 3207   7.761  11.818   0.596  0.9403  0.2743  0.0442
   25MOL0     C 3208   7.745  11.924   0.485 -0.4059 -0.3102  0.0093
   25MOL0     C 3209   7.793  12.064   0.535 -0.2842  0.3431  0.3156
   25MOL0     C 3210   7.944  12.062   0.566  0.9539 -0.5701 -0.0981
   25MOL0     C 3211   7.965  12.189   0.649  0.4845  0.0066  0.3495
   25MOL0    Cl 3212   7.910  12.339   0.558  0.1882  0.2123  0.2102
   25MOL0     C 3213   8.230  11.716   0.902 -0.5879 -0.0655 -0.8471
   25MOL0     C 3214   8.354  11.657   0.938  0.4150  0.2919  0.7553
   25MOL0     O 3215   8.505  11.544   1.178 -0.6512  0.7458 -0.2336
   25MOL0     C 3216   8.728  11.400   1.249  0.4027  0.7080  0.2122
   25MOL0     C 3217   8.849  11.357   1.287 -0.0164 -0.0088 -0.3091
   25MOL0     N 3218   9.584  10.897   1.197  0.1662  0.0862  0.5794
   25MOL0     N 3219   9.660  10.818   1.126 -0.3146 -0.5335 -0.8211
   25MOL0     C 3220  10.519  10.835   0.256 -0.1388  0.2089 -0.0055
   25MOL0     C 3221  10.649  10.887   0.245  0.1632  0.4542 -0.1995
   25MOL0     C 3222  11.061  11.054   0.322 -0.7803 -0.1444 -0.7231
   25MOL0     C 3223  11.065  11.108   0.448 -0.3250  0.0570 -0.4245
   25MOL0     C 3224  11.183  11.156   0.490  0.3024 -0.3614  0.2624
   25MOL0     C 3225  11.288  11.167   0.405  0.2703  1.4745  0.5362
   25MOL0     O 3226  11.393  11.223   0.477  0.2452  0.4777 -0.3585
   25MOL0     C 3227  11.519  11.230   0.406  0.0277  1.4062  0.3919
   25MOL0     C 3228  11.590  11.091   0.420  0.5084  0.4762  0.4794
   25MOL0     C 3229  11.590  11.048   0.569 -0.0302 -0.3376 -0.1427
   25MOL0     C 3230  11.685  10.935   0.615 -0.7033 -0.6654  0.4596
   25MOL0     C 3231  11.671  10.921   0.758  0.4249 -1.2438 -0.5369
   25MOL0     C 3232  11.684  10.888   0.877 -0.4935 -0.7706 -0.1897
   25MOL0     C 3233  11.285  11.114   0.277  0.4496  0.1336 -0.0350
   25MOL0     C 3234  11.171  11.057   0.231 -0.5573  0.7498 -0.0585
   25MOL0     H 3235  10.648  11.089   0.518  0.3513 -1.8876  0.8976
   25MOL0     H 3236  10.421  11.008   0.541  1.9009  0.0839  1.8159
   25MOL0     H 3237  10.367  10.620   0.409  3.6015  1.9904 -4.5933
   25MOL0     H 3238  10.286  10.652   0.255  0.6375  1.9196 -1.0662
   25MOL0     H 3239  10.137  10.521   0.400  1.6251 -0.1319  1.6143
   25MOL0     H 3240  10.074  10.687   0.358  0.3760  0.6844  0.3885
   25MOL0     H 3241  10.140  10.768   0.584 -3.1602  0.4409 -1.4751
   25MOL0     H 3242  10.184  10.592   0.621  0.3491  0.2008  0.3783
   25MOL0     H 3243   9.913  10.652   0.528  0.0810  2.5851  1.1829
   25MOL0     H 3244   9.989  10.506   0.604 -1.5635  0.2806  1.5373
   25MOL0     H 3245  10.025  10.621   0.806 -0.6236  2.2592  1.2955
   25MOL0     H 3246   9.858  10.625   0.765 -0.8624  2.3916  1.0605
   25MOL0     H 3247   9.929  10.866   0.637 -0.8409  2.8335  1.9539
   25MOL0     H 3248  10.035  10.851   0.783 -0.7972  1.8666  1.6399
   25MOL0     H 3249   9.822  10.981   0.827  3.7576  0.2549  2.0309
   25MOL0     H 3250   9.744  10.814   0.799  1.0968 -0.5481 -1.0918
   25MOL0     H 3251   9.951  10.886   1.018  0.6394  2.4078 -4.3274
   25MOL0     H 3252   9.856  10.736   0.992 -0.7921 -0.2907 -0.6245
   25MOL0     H 3253   9.777  11.131   1.058  1.0064 -0.6075  0.5299
   25MOL0     H 3254   9.605  11.225   1.208 -1.2195  0.6296 -5.1633
   25MOL0     H 3255   9.524  11.118   1.332 -0.9335 -2.1864  1.6048
   25MOL0     H 3256   9.391  11.060   1.075  0.0715  2.1480 -3.3179
   25MOL0     H 3257   9.427  11.226   1.068  3.0303 -1.2154 -0.9175
   25MOL0     H 3258   9.246  11.125   1.307 -2.9081  2.7296  0.8004
   25MOL0     H 3259   9.300  11.292   1.287 -3.4093  1.7296 -1.8569
   25MOL0     H 3260   9.120  11.133   1.110  0.9646  0.0963  0.5528
   25MOL0     H 3261   9.184  11.294   1.070 -2.0365  1.9414  0.3945
   25MOL0     H 3262   8.988  11.299   0.987 -1.7031 -0.1861 -1.1092
   25MOL0     H 3263   8.775  11.391   0.913 -0.9059 -3.9367 -0.0561
   25MOL0     H 3264   8.280  11.315   0.907  0.3675  0.1345 -5.4987
   25MOL0     H 3265   8.058  11.429   0.848 -4.4472  2.7932  3.3686
   25MOL0     H 3266   7.821  11.716   0.863 -1.7079 -3.1895 -0.6199
   25MOL0     H 3267   7.870  11.560   0.874 -0.8893  1.0250  1.7871
   25MOL0     H 3268   7.766  11.554   0.671  1.4937 -2.5429  2.5803
   25MOL0     H 3269   7.928  11.526   0.640 -1.3829 -1.1866  0.9596
   25MOL0     H 3270   7.836  11.672   0.478 -1.6166  0.4984  0.2651
   25MOL0     H 3271   7.961  11.770   0.566 -0.2323 -0.7149  1.8601
   25MOL0     H 3272   7.658  11.784   0.612 -0.0735  2.0208 -2.1942
   25MOL0     H 3273   7.790  11.868   0.689 -0.8598  0.5140  0.5314
   25MOL0     H 3274   7.640  11.944   0.463 -0.1049  2.7470  0.8404
   25MOL0     H 3275   7.791  11.899   0.389 -1.0320  0.2476 -0.4439
   25MOL0     H 3276   7.736  12.082   0.626  1.8883  0.8360  1.6458
   25MOL0     H 3277   7.792  12.129   0.447  3.6272 -0.6327 -0.6507
   25MOL0     H 3278   7.973  11.978   0.630 -3.2918 -1.0352  1.5868
   25MOL0     H 3279   8.014  12.065   0.482  1.2426  2.0852  0.1583
   25MOL0     H 3280   8.068  12.184   0.687 -0.0259 -0.9926  1.6971
   25MOL0     H 3281   7.901  12.186   0.738 -1.9215 -4.7170 -1.2126
   25MOL0     H 3282   8.210  11.822   0.902 -1.7088 -0.2538 -1.8965
   25MOL0     H 3283   8.433  11.728   0.962  0.3809  0.9089 -0.8507
   25MOL0     H 3284   8.655  11.418   1.327 -2.1008  2.3901 -2.3160
   25MOL0     H 3285   8.867  11.347   1.394  0.0693  1.9674 -0.1136
   25MOL0     H 3286  10.504  10.760   0.179  1.9986  0.8629 -1.1262
   25MOL0     H 3287  10.709  10.839   0.169 -2.6782 -2.0223 -1.0923
   25MOL0     H 3288  10.987  11.090   0.522  0.6681  0.1634  0.6823
   25MOL0     H 3289  11.190  11.201   0.589  1.0562  0.6984 -0.2522
   25MOL0     H 3290  11.582  11.311   0.445  0.4067  0.5025  1.7195
   25MOL0     H 3291  11.502  11.243   0.299  1.0404  0.4736  0.0977
   25MOL0     H 3292  11.523  11.015   0.378  0.4492  0.2092  1.0299
   25MOL0     H 3293  11.687  11.092   0.371  0.7063 -1.4883  0.7179
   25MOL0     H 3294  11.488  11.016   0.589  0.4152 -1.0295  1.1565
   25MOL0     H 3295  11.610  11.139   0.627  1.9310 -1.7000  1.4671
   25MOL0     H 3296  11.636  10.844   0.578 -3.3488  1.2615 -1.1559
   25MOL0     H 3297  11.791  10.942   0.591 -1.0725 -2.0731 -1.8917
   25MOL0     H 3298  11.703  10.852   0.976 -1.7813  1.9180  1.1307
   25MOL0     H 3299  11.370  11.115   0.209 -1.5723  1.6099 -2.6788
   25MOL0     H 3300  11.149  10.997   0.143 -4.1342  0.1704  1.0675
   26MOL0     O 3301   8.770   9.423  10.112  0.2688 -0.8159  0.2627
   26MOL0     C 3302   8.716   9.324  10.158 -0.9338 -0.7509  0.0950
   26MOL0     O 3303   8.759   9.195  10.130  0.1262  0.1100  0.1400
   26MOL0     C 3304   8.879   9.171  10.067 -0.1073  0.7653  0.1483
   26MOL0     C 3305   8.876   9.082   9.952  0.2961  0.4979  0.0619
   26MOL0     C 3306   8.991   9.047   9.877 -0.6495 -0.1085  0.3305
   26MOL0     C 3307   9.107   9.128   9.885 -0.4718 -0.2191 -0.8101
   26MOL0     O 3308   9.217   9.140   9.805 -0.3493 -1.2043  1.1159
   26MOL0     C 3309   9.277   9.020   9.783  0.0198 -0.0104  0.5849
   26MOL0     C 3310   9.415   9.031   9.711 -0.9133  0.1923  0.4473
   26MOL0     C 3311   9.418   9.136   9.602 -0.3503  0.7652  1.4863
   26MOL0     C 3312   9.547   9.156   9.515  0.1545  0.3417  0.2026
   26MOL0     C 3313   9.615   9.293   9.533  0.7238 -0.5362  0.1772
   26MOL0     C 3314   9.748   9.307   9.456  0.5838 -0.4553 -0.6278
   26MOL0     C 3315   9.845   9.417   9.497  0.8452  0.2244 -0.0668
   26MOL0     C 3316   9.779   9.558   9.488 -0.0956 -0.6806  0.1654
   26MOL0     N 3317   9.849   9.640   9.574 -0.7018 -1.2871  0.4826
   26MOL0     C 3318   9.970   9.707   9.547 -0.4571  0.9715  0.0948
   26MOL0     C 3319  10.001   9.777   9.664  0.6464  0.9304  0.4517
   26MOL0     C 3320  10.133   9.850   9.669 -1.0177  0.0710  0.0231
   26MOL0     C 3321  10.251   9.754   9.709 -0.6156 -0.4164 -0.4481
   26MOL0     C 3322  10.253   9.700   9.856 -0.2371 -0.6275  0.3031
   26MOL0     C 3323  10.219   9.815   9.961  1.2926  0.4676 -0.0211
   26MOL0     O 3324  10.330   9.898   9.964  0.2493  0.0436 -0.4171
   26MOL0     C 3325  10.325  10.012  10.033 -0.5510  0.7436 -0.1756
   26MOL0     C 3326  10.388  10.123   9.987 -0.0251 -0.1812 -0.7295
   26MOL0     C 3327  10.389  10.247  10.051 -0.7282  1.0245  1.1989
   26MOL0     C 3328  10.325  10.252  10.183 -0.6335  0.5318 -0.6497
   26MOL0     C 3329  10.333  10.374  10.266 -0.3185  0.2563  0.1169
   26MOL0     O 3330  10.413  10.482  10.208 -0.6490 -0.2071  0.4495
   26MOL0     C 3331  10.429  10.587  10.296 -0.5725  1.0701 -0.2029
   26MOL0     C 3332  10.374  10.715  10.270 -0.0483 -0.4120 -0.8380
   26MOL0     C 3333  10.372  10.807  10.373 -0.6490  0.4654 -0.4573
   26MOL0     C 3334  10.451  10.792  10.490  1.0019  0.3416  1.0493
   26MOL0     O 3335  10.455  10.890  10.589  0.1603 -0.1020  0.6584
   26MOL0     C 3336  10.572  10.971  10.563  0.0111 -0.6514  0.8644
   26MOL0     C 3337  10.608  11.078  10.668  0.6623  0.0786 -0.3446
   26MOL0     C 3338  10.488  11.160  10.722 -0.6241 -0.2120 -0.9058
   26MOL0     C 3339  10.531  11.253  10.839 -1.3572  0.6302  0.3143
   26MOL0     C 3340  10.420  11.341  10.893 -0.5098  0.2058 -0.2823
   26MOL0     C 3341  10.298  11.263  10.957  0.7025 -0.5687  0.6273
   26MOL0     C 3342  10.339  11.169  11.061 -0.7631  0.1687 -0.3404
   26MOL0     C 3343  10.223  11.073  11.105 -0.0790  0.5078 -0.0198
   26MOL0    Cl 3344  10.129  10.993  10.971  0.1068  0.1591 -0.0048
   26MOL0     C 3345  10.514  10.670  10.511 -0.0896 -0.7767  0.0988
   26MOL0     C 3346  10.502  10.566  10.412  0.4667  0.1435 -0.5751
   26MOL0     O 3347  10.278  10.376  10.376 -0.0698  0.1080 -0.3861
   26MOL0     C 3348  10.273  10.135  10.237  0.2366  0.2728  0.3272
   26MOL0     C 3349  10.277  10.005  10.169 -0.4100 -0.1522  0.4099
   26MOL0     N 3350   9.888   9.769   9.750 -0.8284  0.9326  0.1932
   26MOL0     N 3351   9.807   9.686   9.690 -0.3448  0.3903 -0.1918
   26MOL0     C 3352   9.096   9.234   9.981  0.5923  0.2528  0.2668
   26MOL0     C 3353   8.993   9.253  10.077 -1.6855  0.0128 -0.2328
   26MOL0     C 3354   8.609   9.339  10.258  0.4221  0.5159 -0.2285
   26MOL0     C 3355   8.530   9.234  10.311  0.8695 -0.0155 -0.2195
   26MOL0     C 3356   8.427   9.270  10.393 -0.1217 -0.5646  0.4990
   26MOL0     C 3357   8.392   9.401  10.425 -0.5413  0.1486 -0.8912
   26MOL0     O 3358   8.285   9.421  10.512 -0.1027 -0.3983 -0.5619
   26MOL0     C 3359   8.271   9.533  10.603 -0.0422  0.4420 -0.2757
   26MOL0     C 3360   8.160   9.517  10.703  0.4771 -0.9634  0.5128
   26MOL0     C 3361   8.147   9.379  10.759  0.7038  0.5947  0.9695
   26MOL0     C 3362   8.066   9.373  10.883 -0.1595 -0.1501  0.7959
   26MOL0     C 3363   7.928   9.396  10.838 -0.4365 -0.8000  0.4259
   26MOL0     C 3364   7.821   9.429  10.794  0.6460  0.8969 -0.7581
   26MOL0     C 3365   8.454   9.502  10.368  0.3655  0.2993  0.5147
   26MOL0     C 3366   8.570   9.467  10.295  0.3549 -0.8835 -0.4234
   26MOL0     H 3367   8.792   9.016   9.931  1.4053 -0.4007 -1.8294
   26MOL0     H 3368   8.991   8.965   9.805 -0.1811  0.0503  0.1454
   26MOL0     H 3369   9.208   8.956   9.727 -3.9630  0.6371  4.2371
   26MOL0     H 3370   9.302   8.966   9.875  0.1515 -0.6519  0.1767
   26MOL0     H 3371   9.445   8.933   9.672  1.1968 -0.0491  2.4123
   26MOL0     H 3372   9.491   9.060   9.784 -1.1166  1.0263  0.3351
   26MOL0     H 3373   9.387   9.233   9.643  1.9558  2.8718 -1.3517
   26MOL0     H 3374   9.339   9.098   9.537 -1.0238 -0.2803  2.8738
   26MOL0     H 3375   9.611   9.074   9.547  0.1654 -0.2283 -1.2040
   26MOL0     H 3376   9.522   9.140   9.409 -2.0923  1.4246  0.4994
   26MOL0     H 3377   9.628   9.306   9.641  0.9217  1.5584 -0.0509
   26MOL0     H 3378   9.555   9.382   9.510  1.8109  0.8220  2.2851
   26MOL0     H 3379   9.713   9.325   9.354 -3.1710 -0.5792  0.5126
   26MOL0     H 3380   9.796   9.209   9.450  0.3133 -0.8131  1.9732
   26MOL0     H 3381   9.871   9.394   9.600  0.2493  0.6216  0.1795
   26MOL0     H 3382   9.932   9.404   9.432  0.3558 -2.5309 -0.2764
   26MOL0     H 3383   9.677   9.558   9.526  0.6409  0.6259  2.2927
   26MOL0     H 3384   9.777   9.594   9.384  1.9970  3.4829  1.3519
   26MOL0     H 3385  10.035   9.696   9.460  0.6273  0.5249  0.9384
   26MOL0     H 3386  10.123   9.940   9.730 -0.5811  0.9042 -1.0984
   26MOL0     H 3387  10.160   9.891   9.572 -3.1304  0.6739 -0.3579
   26MOL0     H 3388  10.343   9.811   9.687 -1.6616  0.9522 -1.4906
   26MOL0     H 3389  10.258   9.665   9.645 -1.3129  0.3003 -1.5657
   26MOL0     H 3390  10.181   9.619   9.872 -0.9551 -0.0441  0.1020
   26MOL0     H 3391  10.346   9.645   9.870 -0.4850 -1.4297 -1.0953
   26MOL0     H 3392  10.194   9.768  10.056  0.8447 -1.8296 -1.2051
   26MOL0     H 3393  10.123   9.864   9.940  0.8352 -0.4400 -0.0653
   26MOL0     H 3394  10.417  10.128   9.882 -2.5904 -0.1418 -1.4888
   26MOL0     H 3395  10.445  10.333  10.016  0.9673 -0.1318  0.9459
   26MOL0     H 3396  10.317  10.727  10.178  2.2300  1.2405 -2.1403
   26MOL0     H 3397  10.317  10.899  10.366 -1.6481  0.0302  1.0776
   26MOL0     H 3398  10.547  11.018  10.468 -0.5249  3.2517  2.7285
   26MOL0     H 3399  10.661  10.908  10.554  1.0734  1.0864 -2.4831
   26MOL0     H 3400  10.677  11.150  10.623  1.5633 -0.8614 -0.4940
   26MOL0     H 3401  10.659  11.029  10.751  2.6128  1.7570 -0.4730
   26MOL0     H 3402  10.409  11.098  10.765  1.4079 -1.8993  0.6082
   26MOL0     H 3403  10.439  11.216  10.642  0.0254  1.1818 -0.3607
   26MOL0     H 3404  10.579  11.192  10.915  3.4137  1.8755 -1.3354
   26MOL0     H 3405  10.619  11.311  10.809  1.3570 -1.0354  4.2875
   26MOL0     H 3406  10.389  11.416  10.821  2.2826  0.7943 -1.0102
   26MOL0     H 3407  10.473  11.385  10.979  0.0442 -1.1405  0.1007
   26MOL0     H 3408  10.231  11.221  10.882 -0.5013  0.1151  1.2843
   26MOL0     H 3409  10.241  11.348  10.995  1.8303  1.3483 -1.7269
   26MOL0     H 3410  10.420  11.101  11.032  0.9238  0.3992  3.3163
   26MOL0     H 3411  10.362  11.229  11.150  0.7608  0.6980 -1.0512
   26MOL0     H 3412  10.141  11.125  11.155 -1.5954 -2.0589  0.3230
   26MOL0     H 3413  10.274  11.008  11.177 -0.8197 -0.4994 -0.3780
   26MOL0     H 3414  10.564  10.659  10.607 -0.7131  1.1466  0.6885
   26MOL0     H 3415  10.539  10.467  10.438 -1.4109 -0.1213  1.3799
   26MOL0     H 3416  10.222  10.146  10.332 -1.3214  2.3045 -0.6682
   26MOL0     H 3417  10.215   9.931  10.219  0.6939 -0.0446  2.0087
   26MOL0     H 3418   9.178   9.304   9.983  0.1676  0.7714  2.3414
   26MOL0     H 3419   9.007   9.339  10.141 -0.4570 -0.2229 -0.1471
   26MOL0     H 3420   8.541   9.135  10.268 -2.5078  1.0722 -4.3290
   26MOL0     H 3421   8.363   9.192  10.433 -0.9426  0.4847  1.2909
   26MOL0     H 3422   8.265   9.630  10.551  1.6364  2.2180  2.5449
   26MOL0     H 3423   8.368   9.556  10.648 -1.2897  3.8619  1.0530
   26MOL0     H 3424   8.167   9.593  10.781 -1.6854 -1.2508  1.0582
   26MOL0     H 3425   8.064   9.537  10.653  0.8663 -1.9865 -0.6931
   26MOL0     H 3426   8.245   9.337  10.784 -0.7054 -1.3510  3.6703
   26MOL0     H 3427   8.106   9.316  10.679  2.4782 -0.4332  0.8034
   26MOL0     H 3428   8.070   9.277  10.935 -1.6261 -1.8764 -1.9975
   26MOL0     H 3429   8.088   9.441  10.965  2.0290 -1.9755  1.8450
   26MOL0     H 3430   7.729   9.454  10.745  0.4708  1.9395  0.0920
   26MOL0     H 3431   8.405   9.599  10.367 -4.3145 -1.8241  0.5541
   26MOL0     H 3432   8.613   9.553  10.245  1.2259 -0.3977  1.0996
   27MOL0     O 3433   1.125   0.072   6.003  0.2595 -0.3835  0.1145
   27MOL0     C 3434   1.132   0.187   6.043  0.7414 -0.5558 -0.2773
   27MOL0     O 3435   1.248   0.256   6.069  0.4507 -0.2551  0.1287
   27MOL0     C 3436   1.360   0.209   6.131 -0.7906  0.7254 -0.3136
   27MOL0     C 3437   1.473   0.290   6.157  0.5067 -0.4049  0.0594
   27MOL0     C 3438   1.595   0.233   6.187 -0.4726 -0.6785  0.6183
   27MOL0     C 3439   1.616   0.096   6.209 -0.2608  0.8271 -0.4140
   27MOL0     O 3440   1.736   0.037   6.244  1.0245 -0.3189  0.0997
   27MOL0     C 3441   1.835   0.035   6.144 -0.5654  0.5992  1.0277
   27MOL0     C 3442   1.968   0.008   6.226 -0.2762  0.3548  0.4487
   27MOL0     C 3443   2.089   0.047   6.140 -0.8199  0.3773 -0.0866
   27MOL0     C 3444   2.201   0.110   6.228  0.0093 -0.2486  0.5966
   27MOL0     C 3445   2.283  -0.001   6.298 -0.3837 -0.3236  0.3787
   27MOL0     C 3446   2.358  -0.108   6.213  0.4462  1.2477 -0.4919
   27MOL0     C 3447   2.459  -0.181   6.310 -1.0251  0.2769 -0.6288
   27MOL0     C 3448   2.575  -0.276   6.247 -0.3816 -0.6691  0.3724
   27MOL0     N 3449   2.649  -0.359   6.343  0.1441  0.5829 -0.6111
   27MOL0     C 3450   2.642  -0.340   6.472 -0.6244 -0.0765 -0.0634
   27MOL0     C 3451   2.732  -0.423   6.524 -0.8162 -0.2075  0.3069
   27MOL0     C 3452   2.769  -0.423   6.673  0.2157 -0.2373  0.4200
   27MOL0     C 3453   2.876  -0.317   6.721 -0.2521  0.5409  0.8279
   27MOL0     C 3454   3.004  -0.315   6.639 -0.8420 -0.4308  0.3553
   27MOL0     C 3455   3.080  -0.440   6.652  0.5467 -0.9994 -0.2421
   27MOL0     O 3456   3.105  -0.461   6.795  0.3476 -0.1113  0.1887
   27MOL0     C 3457   3.165  -0.582   6.821  1.1002 -0.5046 -0.5154
   27MOL0     C 3458   3.213  -0.674   6.731 -0.5384 -0.3168  0.0657
   27MOL0     C 3459   3.260  -0.802   6.768 -0.0089 -0.3295  0.1221
   27MOL0     C 3460   3.269  -0.836   6.904  0.0467  0.1707 -0.2947
   27MOL0     C 3461   3.319  -0.959   6.958  0.5611 -0.0065  0.0959
   27MOL0     O 3462   3.287  -1.000   7.088 -0.5316  0.0286  0.9580
   27MOL0     C 3463   3.361  -1.099   7.152 -0.3180  0.6995  0.9554
   27MOL0     C 3464   3.292  -1.200   7.210 -0.3513  0.1943 -1.2705
   27MOL0     C 3465   3.367  -1.315   7.264 -1.1703 -0.4330 -0.0729
   27MOL0     C 3466   3.502  -1.313   7.271 -1.0681  1.1003 -0.4197
   27MOL0     O 3467   3.568  -1.411   7.337  0.4629 -0.1608  0.0503
   27MOL0     C 3468   3.716  -1.434   7.328 -0.5590 -0.1347 -0.3817
   27MOL0     C 3469   3.748  -1.527   7.446 -0.1031 -0.0267 -0.3632
   27MOL0     C 3470   3.885  -1.588   7.463  0.2654 -0.0070 -0.8621
   27MOL0     C 3471   3.928  -1.700   7.366 -0.8797  0.9434  0.4805
   27MOL0     C 3472   4.076  -1.696   7.311 -0.0798 -1.3283  0.4580
   27MOL0     C 3473   4.094  -1.563   7.224 -0.0616 -0.1193 -1.2624
   27MOL0     C 3474   4.214  -1.599   7.128 -0.6063 -0.0902  0.0698
   27MOL0     C 3475   4.260  -1.484   7.039  0.1401 -0.2364 -0.1772
   27MOL0    Cl 3476   4.419  -1.513   6.965  0.1513  0.0537 -0.0404
   27MOL0     C 3477   3.575  -1.207   7.219  0.6922 -1.1823 -0.7160
   27MOL0     C 3478   3.502  -1.098   7.155 -0.6721 -0.1663 -0.6895
   27MOL0     O 3479   3.381  -1.029   6.878  0.1274  0.2938 -0.0167
   27MOL0     C 3480   3.229  -0.737   6.997 -0.6104  0.1802  0.1342
   27MOL0     C 3481   3.168  -0.618   6.952  0.0571  0.0548 -0.3787
   27MOL0     N 3482   2.772  -0.514   6.433 -1.3758 -0.0817 -0.1276
   27MOL0     N 3483   2.731  -0.470   6.318 -0.0911  0.1903  0.5046
   27MOL0     C 3484   1.499   0.017   6.211 -0.2845 -0.1796  0.2601
   27MOL0     C 3485   1.373   0.073   6.181  0.0678  0.4011 -0.0241
   27MOL0     C 3486   1.007   0.260   6.036  0.4522  0.1737 -0.4405
   27MOL0     C 3487   1.005   0.394   6.064  0.1007 -0.6223 -0.1058
   27MOL0     C 3488   0.879   0.466   6.052 -1.5603  0.3441 -0.1329
   27MOL0     C 3489   0.762   0.409   6.019 -0.1477 -0.7007 -1.3307
   27MOL0     O 3490   0.657   0.491   6.028  0.7315  0.6568  0.1175
   27MOL0     C 3491   0.535   0.451   5.953 -0.4665  0.1935 -0.0164
   27MOL0     C 3492   0.417   0.550   5.957  0.1644  0.2303 -0.2953
   27MOL0     C 3493   0.282   0.495   5.915 -0.4119 -0.6278 -0.1226
   27MOL0     C 3494   0.282   0.420   5.777 -0.5953  0.3121  1.1202
   27MOL0     C 3495   0.299   0.518   5.667 -0.4681  1.0026  0.1944
   27MOL0     C 3496   0.332   0.599   5.578  0.1596  0.9248 -0.6822
   27MOL0     C 3497   0.760   0.279   5.986  0.6399  1.0977 -0.4008
   27MOL0     C 3498   0.883   0.203   5.990  0.9608  0.3048  0.1993
   27MOL0     H 3499   1.484   0.397   6.140 -0.2283 -0.3520 -0.1105
   27MOL0     H 3500   1.680   0.299   6.201 -1.7421  1.5503 -1.3047
   27MOL0     H 3501   1.847   0.134   6.099  3.0702  0.0069  0.3803
   27MOL0     H 3502   1.811  -0.031   6.061 -0.2858  0.7725  0.8070
   27MOL0     H 3503   1.977  -0.096   6.257  0.2847 -0.0246 -0.8986
   27MOL0     H 3504   1.961   0.061   6.322 -0.7993 -3.0274  2.4445
   27MOL0     H 3505   2.048   0.113   6.063 -1.6048 -1.3804 -1.2200
   27MOL0     H 3506   2.140  -0.035   6.088 -4.2846 -2.7348  1.0089
   27MOL0     H 3507   2.255   0.172   6.155 -0.1713 -0.5362  0.2196
   27MOL0     H 3508   2.168   0.183   6.302  0.4866 -0.1031  0.6684
   27MOL0     H 3509   2.203  -0.052   6.353  0.4674 -1.5121  0.5479
   27MOL0     H 3510   2.352   0.057   6.360  2.4153  0.3249 -3.0804
   27MOL0     H 3511   2.404  -0.064   6.124 -1.0407  0.6022 -1.6223
   27MOL0     H 3512   2.283  -0.182   6.184  0.7403  1.4376 -1.8113
   27MOL0     H 3513   2.498  -0.103   6.376 -2.3082  0.5796 -0.2123
   27MOL0     H 3514   2.402  -0.255   6.367  1.1939 -1.6515 -0.7356
   27MOL0     H 3515   2.641  -0.226   6.175 -1.7300  1.3636  0.4592
   27MOL0     H 3516   2.517  -0.333   6.174 -0.8304  0.6359 -0.3248
   27MOL0     H 3517   2.587  -0.262   6.524  0.3238  0.8013 -0.3682
   27MOL0     H 3518   2.818  -0.519   6.692  2.6680  0.7311 -0.6094
   27MOL0     H 3519   2.673  -0.415   6.726 -0.3407  1.1175 -0.7418
   27MOL0     H 3520   2.897  -0.338   6.827  0.0029 -3.0031  0.1915
   27MOL0     H 3521   2.827  -0.219   6.710 -0.0073  0.7307  1.3614
   27MOL0     H 3522   2.975  -0.302   6.535  0.1048 -2.8439 -0.2660
   27MOL0     H 3523   3.060  -0.225   6.667  1.0776 -1.7804  1.1014
   27MOL0     H 3524   3.170  -0.437   6.591  0.3795 -4.1761 -0.8214
   27MOL0     H 3525   3.026  -0.526   6.611  2.5671 -2.4508 -0.0176
   27MOL0     H 3526   3.207  -0.646   6.626 -1.1265  1.1258  0.4537
   27MOL0     H 3527   3.291  -0.870   6.690  0.7880  1.8795 -1.6170
   27MOL0     H 3528   3.184  -1.196   7.217 -0.2843  0.4875 -0.2165
   27MOL0     H 3529   3.305  -1.394   7.307 -0.4147 -1.7362 -1.2672
   27MOL0     H 3530   3.788  -1.352   7.319  0.7327 -1.2886 -0.8502
   27MOL0     H 3531   3.743  -1.491   7.239 -1.0801 -0.1954 -0.5014
   27MOL0     H 3532   3.675  -1.608   7.458  0.6187 -0.5434  0.7654
   27MOL0     H 3533   3.742  -1.463   7.535 -0.2107  1.7079 -1.5741
   27MOL0     H 3534   3.891  -1.640   7.560  0.1209 -0.4851 -1.1042
   27MOL0     H 3535   3.952  -1.502   7.470 -1.2395  1.1205  0.4973
   27MOL0     H 3536   3.907  -1.792   7.422  1.2553 -0.2559 -0.5439
   27MOL0     H 3537   3.864  -1.707   7.277  0.0392 -1.0626 -0.0924
   27MOL0     H 3538   4.108  -1.777   7.245  3.7892 -1.8833  2.6883
   27MOL0     H 3539   4.150  -1.706   7.391  0.8016 -2.4232 -0.4475
   27MOL0     H 3540   4.139  -1.489   7.291 -1.3833  0.3053 -0.8251
   27MOL0     H 3541   4.009  -1.522   7.169 -0.0944  0.4571 -0.7922
   27MOL0     H 3542   4.301  -1.624   7.191  1.2036  1.7084 -1.5658
   27MOL0     H 3543   4.177  -1.687   7.075  0.1395 -0.2470 -0.2098
   27MOL0     H 3544   4.297  -1.400   7.099  0.0399  0.3555 -0.9308
   27MOL0     H 3545   4.187  -1.450   6.965 -1.8020  0.0185  1.7374
   27MOL0     H 3546   3.680  -1.193   7.242  0.0217 -0.2626  2.1887
   27MOL0     H 3547   3.565  -1.017   7.120  1.0998 -0.3140  1.8565
   27MOL0     H 3548   3.244  -0.771   7.099 -1.5871 -1.9774 -0.3734
   27MOL0     H 3549   3.154  -0.543   7.029 -0.5804 -1.5584  1.1310
   27MOL0     H 3550   1.494  -0.090   6.223 -0.4618  0.0285  2.7006
   27MOL0     H 3551   1.293   0.002   6.163  1.6448 -1.0605 -1.7597
   27MOL0     H 3552   1.096   0.450   6.086 -1.3376  0.6703  3.0317
   27MOL0     H 3553   0.884   0.573   6.070 -0.2925 -0.0607  2.4305
   27MOL0     H 3554   0.503   0.350   5.982  1.5202  0.3981  3.4363
   27MOL0     H 3555   0.561   0.444   5.848  1.4972  2.5167  0.2317
   27MOL0     H 3556   0.423   0.582   6.061  4.9954  4.0433 -1.3740
   27MOL0     H 3557   0.437   0.641   5.900 -0.6966  2.2980  2.4525
   27MOL0     H 3558   0.224   0.586   5.898  1.9641  1.3285  1.4005
   27MOL0     H 3559   0.233   0.445   5.998  0.7196 -0.6432  0.5536
   27MOL0     H 3560   0.370   0.354   5.774 -0.9787 -0.6059  4.8837
   27MOL0     H 3561   0.193   0.357   5.770  0.0420 -0.5813  0.8553
   27MOL0     H 3562   0.367   0.669   5.505  0.6175  0.2466 -1.1331
   27MOL0     H 3563   0.665   0.231   5.965 -0.2915  1.8714  1.6884
   27MOL0     H 3564   0.879   0.101   5.954  1.8825 -0.2929  1.6943
   28MOL0     O 3565   2.066   3.351   6.264 -0.1804  0.4265  0.1454
   28MOL0     C 3566   1.947   3.373   6.305 -0.4437  0.2877  0.4600
   28MOL0     O 3567   1.864   3.279   6.334  0.0138  0.7013  0.1088
   28MOL0     C 3568   1.895   3.148   6.356  0.2112 -0.3880  0.3638
   28MOL0     C 3569   1.969   3.066   6.266  0.2766  0.2442 -0.2444
   28MOL0     C 3570   2.002   2.932   6.297  0.1365 -0.5714 -0.0566
   28MOL0     C 3571   1.933   2.867   6.404 -0.0182  0.1515  0.2477
   28MOL0     O 3572   1.953   2.742   6.464 -0.2600 -0.6146  0.3339
   28MOL0     C 3573   1.923   2.651   6.359  0.3752  0.0316  0.2476
   28MOL0     C 3574   1.889   2.511   6.411 -0.0922  0.1895  0.0284
   28MOL0     C 3575   2.026   2.446   6.450 -0.0439  0.7060 -0.4221
   28MOL0     C 3576   1.997   2.293   6.485  0.5464 -0.1235 -1.1794
   28MOL0     C 3577   2.131   2.233   6.519 -0.6745 -0.1135  1.5340
   28MOL0     C 3578   2.127   2.076   6.540 -0.3705  0.3804 -0.0403
   28MOL0     C 3579   2.013   2.048   6.642 -0.2066  0.3641  1.0801
   28MOL0     C 3580   1.995   1.897   6.673 -0.1936 -0.6485  0.1190
   28MOL0     N 3581   1.862   1.872   6.729  0.6961  0.4544  0.2122
   28MOL0     C 3582   1.809   1.943   6.832  0.3651 -0.2377  0.2044
   28MOL0     C 3583   1.684   1.906   6.833 -0.2575 -0.0433  1.0174
   28MOL0     C 3584   1.591   1.955   6.943  0.5618  0.2891 -0.0078
   28MOL0     C 3585   1.511   1.834   7.007 -0.1663  1.0176 -0.3523
   28MOL0     C 3586   1.607   1.725   7.070 -0.6515 -0.6313  0.2306
   28MOL0     C 3587   1.680   1.790   7.181  0.4981  0.8305 -0.1973
   28MOL0     O 3588   1.754   1.677   7.239 -0.3554 -0.0013  0.2916
   28MOL0     C 3589   1.872   1.628   7.179 -0.3674  0.1209 -0.1898
   28MOL0     C 3590   1.919   1.679   7.063 -0.5833 -0.1641  0.3871
   28MOL0     C 3591   2.025   1.611   6.997 -0.2407 -0.1595 -0.0024
   28MOL0     C 3592   2.086   1.495   7.041 -0.3120  0.0433  0.0644
   28MOL0     C 3593   2.179   1.420   6.965 -0.5482  0.6658 -1.0430
   28MOL0     O 3594   2.214   1.300   7.029  0.5997 -0.5984  0.4958
   28MOL0     C 3595   2.325   1.228   6.981 -0.2738 -1.1085  0.6948
   28MOL0     C 3596   2.448   1.286   6.937 -0.6104  0.0898 -0.0408
   28MOL0     C 3597   2.559   1.199   6.896  0.1472 -0.0256  0.3072
   28MOL0     C 3598   2.544   1.061   6.911 -0.2211  0.5354  0.1190
   28MOL0     O 3599   2.660   0.988   6.887  0.1556 -0.3771  0.3750
   28MOL0     C 3600   2.653   0.860   6.941 -0.3461 -0.0705  0.2672
   28MOL0     C 3601   2.797   0.804   6.940 -0.1988  0.0747  0.2246
   28MOL0     C 3602   2.838   0.730   6.814 -0.6804 -0.1874 -0.1833
   28MOL0     C 3603   2.991   0.704   6.817  0.0413  0.3164 -0.1678
   28MOL0     C 3604   3.054   0.634   6.699 -0.7303  1.0895  0.3196
   28MOL0     C 3605   3.032   0.716   6.571 -0.2682 -0.2403  0.7070
   28MOL0     C 3606   3.111   0.671   6.448  0.0283  0.6779  0.4282
   28MOL0     C 3607   3.081   0.526   6.409 -0.3678  0.3072  0.1855
   28MOL0    Cl 3608   2.903   0.493   6.381 -0.0298  0.5915 -0.0551
   28MOL0     C 3609   2.419   1.011   6.948  0.5277 -0.0313 -0.9702
   28MOL0     C 3610   2.316   1.096   6.985 -0.3837 -0.4739  0.5057
   28MOL0     O 3611   2.238   1.467   6.867  0.4300  0.0815  0.2283
   28MOL0     C 3612   2.045   1.453   7.174 -0.0432 -0.7756  0.0181
   28MOL0     C 3613   1.931   1.518   7.238 -0.0503 -0.1177 -0.7178
   28MOL0     N 3614   1.655   1.809   6.736  0.3181  0.3608  0.3601
   28MOL0     N 3615   1.771   1.783   6.682  0.0517 -0.8037 -0.3263
   28MOL0     C 3616   1.839   2.950   6.475 -0.0416 -0.1717 -0.1508
   28MOL0     C 3617   1.823   3.086   6.455  0.6689  0.3660 -0.6612
   28MOL0     C 3618   1.892   3.502   6.273  0.0600  0.3416 -0.0218
   28MOL0     C 3619   1.753   3.525   6.270  0.7755  0.0846  0.8607
   28MOL0     C 3620   1.707   3.651   6.237 -1.1113  0.0166 -0.4394
   28MOL0     C 3621   1.792   3.759   6.218  0.2230  0.5583  0.2290
   28MOL0     O 3622   1.735   3.880   6.193  0.4442  0.2683 -0.2146
   28MOL0     C 3623   1.812   3.984   6.148  0.3264 -0.0429 -0.1656
   28MOL0     C 3624   1.876   3.977   6.016 -0.2290 -0.1760  0.4240
   28MOL0     C 3625   2.002   4.069   6.002  0.5072 -0.2527  0.6529
   28MOL0     C 3626   1.955   4.214   5.972  0.5716 -0.2450 -0.2679
   28MOL0     C 3627   1.923   4.278   6.103 -0.1814 -0.1403  0.9855
   28MOL0     C 3628   1.890   4.305   6.217 -0.7380 -0.3108  0.7695
   28MOL0     C 3629   1.926   3.732   6.225  0.5528 -0.6662 -0.4472
   28MOL0     C 3630   1.985   3.610   6.259  0.5991  1.0235 -1.2181
   28MOL0     H 3631   2.030   3.118   6.192 -1.6739  3.8370  0.4026
   28MOL0     H 3632   2.089   2.884   6.253 -0.9651 -1.4883 -1.3069
   28MOL0     H 3633   2.012   2.652   6.295  0.9690  0.0778  1.0560
   28MOL0     H 3634   1.843   2.685   6.293  1.0111  0.6101 -0.2354
   28MOL0     H 3635   1.845   2.443   6.338 -1.3314 -1.3655  2.0786
   28MOL0     H 3636   1.821   2.516   6.497 -0.3323  3.0923 -0.2322
   28MOL0     H 3637   2.058   2.493   6.543  3.1837  0.3620 -1.2350
   28MOL0     H 3638   2.107   2.454   6.377  0.2359  1.6062 -0.0301
   28MOL0     H 3639   1.930   2.301   6.571 -0.8355  3.1625 -2.3736
   28MOL0     H 3640   1.953   2.245   6.397 -1.0060 -0.6606 -0.1328
   28MOL0     H 3641   2.174   2.279   6.609  0.4378  0.3043  0.8172
   28MOL0     H 3642   2.212   2.256   6.450 -0.5364  1.3416  2.1577
   28MOL0     H 3643   2.223   2.048   6.585 -0.4286 -0.0134 -0.1611
   28MOL0     H 3644   2.105   2.022   6.448  0.3097  4.5271 -2.9355
   28MOL0     H 3645   2.026   2.112   6.729  1.7902  2.6651 -0.7673
   28MOL0     H 3646   1.922   2.076   6.588  0.9412 -2.4163 -2.7599
   28MOL0     H 3647   2.065   1.868   6.752  0.4387  2.3694  0.7864
   28MOL0     H 3648   2.007   1.850   6.575 -1.7708  3.7780 -2.4852
   28MOL0     H 3649   1.867   2.004   6.900  1.9121 -1.8767  0.4291
   28MOL0     H 3650   1.528   2.037   6.907 -1.7281 -1.0626  0.6692
   28MOL0     H 3651   1.647   2.006   7.022 -0.8162  2.3081 -0.2743
   28MOL0     H 3652   1.471   1.785   6.918 -0.6580  1.8439 -0.5937
   28MOL0     H 3653   1.431   1.877   7.068  0.6342  1.9180  0.0986
   28MOL0     H 3654   1.545   1.650   7.120 -1.0201 -1.9452 -2.0621
   28MOL0     H 3655   1.674   1.683   6.995 -0.3527 -1.3025  0.8640
   28MOL0     H 3656   1.605   1.830   7.249  1.2304  3.3860 -0.7842
   28MOL0     H 3657   1.735   1.882   7.156  0.1739  1.0089 -0.2595
   28MOL0     H 3658   1.874   1.772   7.029  1.2828  0.3676 -0.8372
   28MOL0     H 3659   2.062   1.667   6.911 -0.1234  1.9137  1.3309
   28MOL0     H 3660   2.452   1.394   6.929  2.3305  0.5284  4.1113
   28MOL0     H 3661   2.652   1.248   6.871  0.6151 -0.8997  0.3051
   28MOL0     H 3662   2.598   0.789   6.878  0.8498  0.4985 -1.4876
   28MOL0     H 3663   2.610   0.864   7.041 -3.3938  0.3551 -0.9773
   28MOL0     H 3664   2.817   0.733   7.020  4.2297  1.0327  0.2049
   28MOL0     H 3665   2.868   0.885   6.960 -2.6857  1.9907  1.9522
   28MOL0     H 3666   2.818   0.778   6.717 -0.5978 -0.4152 -0.3150
   28MOL0     H 3667   2.787   0.634   6.814  0.3050 -0.7564  1.6539
   28MOL0     H 3668   3.027   0.805   6.834 -1.1508  0.4913  1.6288
   28MOL0     H 3669   3.007   0.639   6.904 -0.3793 -0.1446 -0.4294
   28MOL0     H 3670   3.013   0.534   6.679 -2.0400  1.3758  1.4373
   28MOL0     H 3671   3.161   0.615   6.716 -1.3782 -3.0987  0.9737
   28MOL0     H 3672   3.063   0.818   6.598  1.0971 -0.6547  0.7791
   28MOL0     H 3673   2.924   0.721   6.552 -0.6682 -0.2403  2.7431
   28MOL0     H 3674   3.094   0.730   6.358  1.4371  1.3809  0.5892
   28MOL0     H 3675   3.219   0.676   6.467  0.3904  0.7095 -1.4342
   28MOL0     H 3676   3.110   0.446   6.477  0.7474 -2.2502 -3.0687
   28MOL0     H 3677   3.141   0.495   6.324  1.6797  2.7681  0.6003
   28MOL0     H 3678   2.394   0.906   6.960 -0.9251 -0.0975 -3.7396
   28MOL0     H 3679   2.227   1.055   7.031  0.2570 -3.5673 -0.7291
   28MOL0     H 3680   2.081   1.355   7.201 -0.9305 -0.7604  1.3007
   28MOL0     H 3681   1.866   1.476   7.313  1.1520 -1.9902 -0.6737
   28MOL0     H 3682   1.796   2.905   6.564  1.6058  0.5606  1.0894
   28MOL0     H 3683   1.762   3.140   6.527 -0.9476  0.7763 -2.2420
   28MOL0     H 3684   1.675   3.451   6.283  0.1507  0.1078 -2.0593
   28MOL0     H 3685   1.601   3.666   6.219 -2.3533 -3.3926  2.7137
   28MOL0     H 3686   1.877   3.992   6.236 -1.8483 -1.7190  1.7302
   28MOL0     H 3687   1.746   4.071   6.135 -0.2787 -0.9038 -4.1539
   28MOL0     H 3688   1.902   3.874   5.989  1.2575  0.0227  1.0525
   28MOL0     H 3689   1.806   4.011   5.938 -1.2840  3.6374  2.7533
   28MOL0     H 3690   2.067   4.038   5.920 -0.9209 -1.7885  0.0347
   28MOL0     H 3691   2.071   4.071   6.087  1.7468  4.8787 -0.1621
   28MOL0     H 3692   2.035   4.258   5.913  0.7177  0.9425  0.7764
   28MOL0     H 3693   1.859   4.216   5.918 -1.0659  1.6572  2.4838
   28MOL0     H 3694   1.860   4.326   6.317  1.8228  1.7887  1.1979
   28MOL0     H 3695   2.009   3.802   6.215  0.3309 -0.5277 -1.3794
   28MOL0     H 3696   2.088   3.581   6.272  0.3746  0.2157 -1.1714
   29MOL0     O 3697   1.077   5.690   4.934  0.1510 -0.0946 -0.1813
   29MOL0     C 3698   1.048   5.589   4.869 -0.5578  0.3408  0.4669
   29MOL0     O 3699   1.132   5.489   4.840  0.5335  0.6901  0.5692
   29MOL0     C 3700   1.258   5.517   4.866  0.0199 -0.6420 -0.0782
   29MOL0     C 3701   1.308   5.469   4.983 -1.2630 -0.5154  0.1131
   29MOL0     C 3702   1.441   5.480   5.006 -0.9896 -0.3677 -1.0720
   29MOL0     C 3703   1.533   5.531   4.908 -0.5753  0.1726  0.2390
   29MOL0     O 3704   1.667   5.536   4.943  0.1988 -0.9253 -0.4506
   29MOL0     C 3705   1.686   5.589   5.074 -0.5035  1.2883 -0.0108
   29MOL0     C 3706   1.806   5.676   5.092  0.1788  0.5166  0.4191
   29MOL0     C 3707   1.812   5.695   5.246 -0.2613 -0.9323 -0.2288
   29MOL0     C 3708   1.898   5.587   5.324 -0.5938  0.8819 -0.5391
   29MOL0     C 3709   1.888   5.582   5.482  0.6467  1.4249  0.1850
   29MOL0     C 3710   1.959   5.717   5.538 -0.5685  0.6398 -0.5661
   29MOL0     C 3711   2.000   5.702   5.687 -0.0236 -0.6852  0.6400
   29MOL0     C 3712   2.064   5.824   5.744 -0.3186 -0.5151 -1.0907
   29MOL0     N 3713   2.182   5.878   5.672  0.0435  0.3939 -0.5199
   29MOL0     C 3714   2.279   5.785   5.653  0.0935 -0.3413  1.5007
   29MOL0     C 3715   2.362   5.865   5.578 -0.8276 -0.8416  0.2392
   29MOL0     C 3716   2.489   5.815   5.516 -0.1894  0.5270  0.5683
   29MOL0     C 3717   2.603   5.892   5.591  0.1752  0.3076  0.1378
   29MOL0     C 3718   2.732   5.904   5.506  0.0845 -0.0478  0.1937
   29MOL0     C 3719   2.696   5.995   5.387 -0.2313 -0.5652  0.5311
   29MOL0     O 3720   2.822   6.046   5.332 -0.3732 -0.1748 -0.0717
   29MOL0     C 3721   2.922   5.983   5.264 -0.0387  0.3103 -0.6993
   29MOL0     C 3722   2.924   5.851   5.226 -0.0371  0.0764 -0.1178
   29MOL0     C 3723   3.044   5.786   5.202 -0.2824 -0.6898 -0.7089
   29MOL0     C 3724   3.168   5.862   5.213  0.3724 -0.0337 -0.3704
   29MOL0     C 3725   3.296   5.791   5.194  0.5386 -0.2830 -0.5519
   29MOL0     O 3726   3.289   5.656   5.169 -0.0522  0.0813  0.7676
   29MOL0     C 3727   3.396   5.587   5.115 -0.4303 -0.1124  0.3705
   29MOL0     C 3728   3.522   5.579   5.179  1.1440  0.3627  0.6764
   29MOL0     C 3729   3.629   5.504   5.125 -0.8194  0.8719 -0.1210
   29MOL0     C 3730   3.609   5.423   5.007 -0.0209  0.1015  0.9579
   29MOL0     O 3731   3.710   5.334   4.981  0.0644 -0.0699 -0.1728
   29MOL0     C 3732   3.676   5.239   4.880 -0.5456 -0.0992  0.1755
   29MOL0     C 3733   3.800   5.146   4.884 -0.2282 -0.8652 -1.0623
   29MOL0     C 3734   3.938   5.213   4.885 -0.1474 -0.8821 -0.3654
   29MOL0     C 3735   4.040   5.098   4.878  0.2004 -0.4582 -0.4743
   29MOL0     C 3736   4.182   5.158   4.885  0.5506 -0.4946 -0.2863
   29MOL0     C 3737   4.280   5.043   4.880  0.3877  0.1572 -0.1379
   29MOL0     C 3738   4.423   5.101   4.842 -0.4787 -0.0843 -0.7047
   29MOL0     C 3739   4.532   4.993   4.817  0.6020  0.4384  0.6759
   29MOL0    Cl 3740   4.567   4.895   4.962  0.2127 -0.0704  0.1979
   29MOL0     C 3741   3.484   5.429   4.943 -0.4505  0.0738 -0.4799
   29MOL0     C 3742   3.390   5.517   4.992  0.4174 -0.3936 -0.0549
   29MOL0     O 3743   3.407   5.852   5.206 -0.2311 -0.0883  1.0706
   29MOL0     C 3744   3.154   5.991   5.250 -0.7805 -0.1499 -0.6038
   29MOL0     C 3745   3.034   6.058   5.272 -0.2830  0.0668 -1.3031
   29MOL0     N 3746   2.326   5.998   5.558  0.9907  0.2356 -1.1139
   29MOL0     N 3747   2.211   6.001   5.620 -0.6319  0.3654  1.0681
   29MOL0     C 3748   1.480   5.577   4.783 -0.2201  1.3047 -0.1638
   29MOL0     C 3749   1.343   5.565   4.769  0.0011  0.2366  0.0919
   29MOL0     C 3750   0.904   5.578   4.818 -0.1890 -0.3537 -0.4287
   29MOL0     C 3751   0.863   5.461   4.755 -0.1242 -0.6799 -0.4225
   29MOL0     C 3752   0.734   5.452   4.705 -0.0755  0.1482 -0.0502
   29MOL0     C 3753   0.636   5.545   4.738  0.6386 -0.5179  0.8838
   29MOL0     O 3754   0.510   5.548   4.677 -0.8664 -0.1918  0.1387
   29MOL0     C 3755   0.470   5.450   4.571 -0.0140  0.3547 -0.2153
   29MOL0     C 3756   0.459   5.305   4.614  1.4844 -0.3107  0.4371
   29MOL0     C 3757   0.358   5.295   4.738 -0.1872 -0.9367 -0.9101
   29MOL0     C 3758   0.210   5.331   4.715  0.1659  0.4677 -0.1778
   29MOL0     C 3759   0.140   5.235   4.630  0.1938 -0.5138  0.2048
   29MOL0     C 3760   0.068   5.148   4.593 -0.5240  0.7993  0.3620
   29MOL0     C 3761   0.670   5.651   4.812  0.2545 -1.2140 -0.8385
   29MOL0     C 3762   0.800   5.678   4.861 -0.9555  1.0890  0.8097
   29MOL0     H 3763   1.244   5.419   5.055 -3.4592 -0.4675 -1.7130
   29MOL0     H 3764   1.469   5.426   5.096 -0.1823  0.9367 -0.5168
   29MOL0     H 3765   1.673   5.505   5.143 -1.8734  1.9042  0.5255
   29MOL0     H 3766   1.605   5.660   5.095  1.2506  3.1014  0.9811
   29MOL0     H 3767   1.791   5.773   5.044  1.1191 -0.3257 -1.6931
   29MOL0     H 3768   1.903   5.636   5.059  1.3108  1.0551  2.8265
   29MOL0     H 3769   1.712   5.687   5.290 -0.4273  0.3174 -0.3289
   29MOL0     H 3770   1.856   5.791   5.275 -0.8955 -0.7378  0.1034
   29MOL0     H 3771   1.868   5.486   5.295 -0.9932  1.1484 -1.0895
   29MOL0     H 3772   2.004   5.606   5.305 -0.1082 -1.1885 -0.0613
   29MOL0     H 3773   1.947   5.502   5.528  0.7978  0.9941 -0.7433
   29MOL0     H 3774   1.784   5.564   5.510  1.6190  0.4586  3.7413
   29MOL0     H 3775   1.882   5.794   5.525 -1.8785 -0.5707 -0.3014
   29MOL0     H 3776   2.043   5.742   5.472 -0.0503 -1.0705 -0.6155
   29MOL0     H 3777   1.911   5.667   5.742  0.4842  1.4655  3.0533
   29MOL0     H 3778   2.069   5.617   5.683 -1.5155 -1.9025 -1.4488
   29MOL0     H 3779   2.100   5.787   5.840  1.0406  1.5016 -0.7524
   29MOL0     H 3780   1.997   5.909   5.759  0.4648  0.6203 -3.4161
   29MOL0     H 3781   2.298   5.688   5.697 -0.4246 -1.2257 -0.1659
   29MOL0     H 3782   2.497   5.839   5.410 -0.7530  3.0993  1.0235
   29MOL0     H 3783   2.488   5.706   5.523 -0.5443  0.6004  2.0588
   29MOL0     H 3784   2.629   5.843   5.685 -0.7528 -0.9182 -0.2187
   29MOL0     H 3785   2.580   5.995   5.620  0.0540  0.0810  0.8616
   29MOL0     H 3786   2.809   5.943   5.573  0.8371  1.2557 -1.3811
   29MOL0     H 3787   2.768   5.807   5.470 -1.1390 -0.6902  0.6182
   29MOL0     H 3788   2.640   6.078   5.430 -1.4110 -1.9985  1.8345
   29MOL0     H 3789   2.642   5.942   5.307  0.7727 -0.6602 -0.1063
   29MOL0     H 3790   2.833   5.795   5.213  2.0605 -3.6106 -0.2481
   29MOL0     H 3791   3.042   5.681   5.177  2.2728 -0.2227 -3.4617
   29MOL0     H 3792   3.533   5.644   5.265  0.4674  3.8393 -1.6514
   29MOL0     H 3793   3.721   5.503   5.184 -1.3592 -0.8409  0.7516
   29MOL0     H 3794   3.663   5.280   4.780 -2.2999 -0.5383  0.1891
   29MOL0     H 3795   3.583   5.189   4.910  0.4385 -1.0433  1.8261
   29MOL0     H 3796   3.795   5.081   4.797 -0.8720  0.0096 -1.6916
   29MOL0     H 3797   3.797   5.090   4.979 -1.4931  4.6243  2.6106
   29MOL0     H 3798   3.946   5.247   4.989  1.8850  0.5879 -0.9416
   29MOL0     H 3799   3.957   5.282   4.803  1.4038  0.8687  1.3530
   29MOL0     H 3800   4.021   5.022   4.955  0.0819  0.3696  0.3234
   29MOL0     H 3801   4.024   5.045   4.784 -0.0737 -5.8984  2.2099
   29MOL0     H 3802   4.190   5.212   4.980 -2.2779 -0.3209 -0.0791
   29MOL0     H 3803   4.194   5.230   4.804 -1.5125 -0.0477 -0.2372
   29MOL0     H 3804   4.250   4.973   4.802 -0.3423  0.6297 -0.2942
   29MOL0     H 3805   4.286   4.991   4.976  1.5199  2.8790  1.3973
   29MOL0     H 3806   4.419   5.172   4.759  0.0206  1.0965  0.2662
   29MOL0     H 3807   4.452   5.157   4.931 -0.8075  0.1665 -0.7529
   29MOL0     H 3808   4.626   5.040   4.787  1.0486  1.1969  3.0304
   29MOL0     H 3809   4.511   4.930   4.729 -1.1769  1.0579  0.6031
   29MOL0     H 3810   3.465   5.376   4.850 -0.5419 -1.9227  0.6327
   29MOL0     H 3811   3.297   5.538   4.940  1.5411  0.4921 -1.7945
   29MOL0     H 3812   3.238   6.057   5.268 -0.9111  0.1355 -1.0121
   29MOL0     H 3813   3.035   6.152   5.327  1.7199 -0.2566 -0.7005
   29MOL0     H 3814   1.553   5.610   4.710  0.3256 -1.0176 -0.7410
   29MOL0     H 3815   1.300   5.584   4.671  0.9481 -0.9191 -0.5733
   29MOL0     H 3816   0.923   5.375   4.730  0.5383 -0.6672  1.0057
   29MOL0     H 3817   0.727   5.387   4.618 -1.3598  1.3234 -0.8717
   29MOL0     H 3818   0.537   5.442   4.485 -0.1405 -2.6943 -0.1427
   29MOL0     H 3819   0.371   5.483   4.540  0.5639  2.1689 -0.2730
   29MOL0     H 3820   0.414   5.251   4.530  1.0831  1.2589 -0.3832
   29MOL0     H 3821   0.554   5.262   4.648  1.7790 -0.7562 -0.9045
   29MOL0     H 3822   0.389   5.350   4.827 -4.2153 -2.2609  1.6021
   29MOL0     H 3823   0.357   5.188   4.761  0.8692 -0.6886  0.4315
   29MOL0     H 3824   0.149   5.339   4.805 -2.2495 -0.0149 -1.6726
   29MOL0     H 3825   0.210   5.434   4.677 -0.4757  0.8976  0.9423
   29MOL0     H 3826   0.011   5.065   4.557  0.2892 -0.3785  1.6633
   29MOL0     H 3827   0.587   5.718   4.830 -0.5601 -1.6927 -2.6047
   29MOL0     H 3828   0.827   5.764   4.922  0.0746  0.3174  1.4772
   30MOL0     O 3829   9.595   0.981   3.880  0.6350  1.2376 -0.4669
   30MOL0     C 3830   9.716   0.964   3.877  0.5019 -0.4383  0.1786
   30MOL0     O 3831   9.784   0.865   3.804  0.6444  0.3366 -0.8485
   30MOL0     C 3832   9.724   0.753   3.738  0.1266 -0.1215  0.5166
   30MOL0     C 3833   9.797   0.687   3.632  0.3998 -0.5583 -1.7886
   30MOL0     C 3834   9.729   0.592   3.556 -0.8181 -0.9822 -0.2609
   30MOL0     C 3835   9.590   0.578   3.562  0.6576 -0.1612 -0.1829
   30MOL0     O 3836   9.543   0.481   3.481  0.2518  0.4179 -0.0521
   30MOL0     C 3837   9.426   0.403   3.513 -0.2570  0.4742 -0.2473
   30MOL0     C 3838   9.426   0.260   3.444 -0.4289 -0.0554 -0.8541
   30MOL0     C 3839   9.288   0.215   3.395  0.0998  0.2379  0.5151
   30MOL0     C 3840   9.292   0.064   3.338  0.3584  0.7825 -0.7500
   30MOL0     C 3841   9.401   0.033   3.242  0.7484  0.5889  0.7257
   30MOL0     C 3842   9.390   0.126   3.121 -0.0799  0.2675  0.4030
   30MOL0     C 3843   9.453   0.074   2.992 -0.3615 -0.1828 -0.1989
   30MOL0     C 3844   9.593   0.008   3.019  0.3922  0.2464 -1.0167
   30MOL0     N 3845   9.600  -0.137   3.018 -0.7029  0.0360 -0.3464
   30MOL0     C 3846   9.720  -0.210   3.031 -0.8098 -0.4232  0.4348
   30MOL0     C 3847   9.689  -0.342   3.047 -0.7527  0.2716 -0.4684
   30MOL0     C 3848   9.797  -0.446   3.071 -0.8062  0.4012 -0.5671
   30MOL0     C 3849   9.760  -0.578   3.001 -0.1573 -0.4097 -1.0471
   30MOL0     C 3850   9.868  -0.679   3.019  1.1734 -1.7095  0.2811
   30MOL0     C 3851  10.002  -0.652   2.954  0.8073 -0.3453 -0.7672
   30MOL0     O 3852   9.978  -0.612   2.813 -1.1149 -0.0973 -0.0108
   30MOL0     C 3853  10.037  -0.690   2.712  0.4627  0.3345  0.1095
   30MOL0     C 3854  10.166  -0.736   2.715 -0.2363 -0.4342  0.1593
   30MOL0     C 3855  10.209  -0.801   2.598 -0.2904  0.6880  0.1892
   30MOL0     C 3856  10.129  -0.833   2.483  0.8775  0.2861 -0.6548
   30MOL0     C 3857  10.183  -0.891   2.360 -0.9242 -0.0255 -0.4285
   30MOL0     O 3858  10.320  -0.902   2.360 -0.3685  0.2820  0.1547
   30MOL0     C 3859  10.393  -0.925   2.239 -0.7458 -0.2870  1.0301
   30MOL0     C 3860  10.517  -0.973   2.262 -0.8097  1.3645 -0.0241
   30MOL0     C 3861  10.609  -0.980   2.164  0.5075  0.0992 -0.1345
   30MOL0     C 3862  10.573  -0.955   2.032  0.1076 -0.2648  0.3175
   30MOL0     O 3863  10.657  -0.970   1.926 -0.3858 -0.4429  0.2058
   30MOL0     C 3864  10.711  -1.101   1.902  0.2981  0.3595 -0.0023
   30MOL0     C 3865  10.735  -1.122   1.756 -0.0661  0.1815  0.6773
   30MOL0     C 3866  10.753  -1.267   1.720 -0.5570  0.6093 -0.0242
   30MOL0     C 3867  10.872  -1.323   1.790  1.0752  0.3102 -0.2856
   30MOL0     C 3868  10.945  -1.412   1.691  0.5108  0.4878  0.1958
   30MOL0     C 3869  11.068  -1.468   1.747 -0.0775  1.2376  0.0910
   30MOL0     C 3870  11.153  -1.555   1.649 -0.5844 -0.8389 -0.3186
   30MOL0     C 3871  11.284  -1.597   1.727  0.6964 -0.6062  0.3769
   30MOL0    Cl 3872  11.377  -1.706   1.621 -0.2757 -0.4517  0.1417
   30MOL0     C 3873  10.445  -0.917   2.000  0.1433 -0.6436 -0.3442
   30MOL0     C 3874  10.352  -0.885   2.107 -0.6030  0.1828 -0.1868
   30MOL0     O 3875  10.105  -0.945   2.282  0.4409 -0.2489 -0.2353
   30MOL0     C 3876   9.997  -0.785   2.491  0.1162 -0.5179  0.9040
   30MOL0     C 3877   9.958  -0.716   2.603  0.1357 -0.9842  0.1785
   30MOL0     N 3878   9.551  -0.356   3.043  0.0595 -0.0963  0.8257
   30MOL0     N 3879   9.499  -0.231   3.022  0.1615  0.8614 -0.3717
   30MOL0     C 3880   9.512   0.648   3.654 -0.3749  0.3301  0.9106
   30MOL0     C 3881   9.577   0.726   3.743  0.5839 -1.3465  0.3542
   30MOL0     C 3882   9.788   1.059   3.960 -0.2939  0.1610 -0.1492
   30MOL0     C 3883   9.924   1.039   3.978 -0.6520  0.2483 -0.3080
   30MOL0     C 3884   9.998   1.130   4.060  0.5243  0.5235  0.3055
   30MOL0     C 3885   9.933   1.234   4.120  0.5403 -0.1118  0.2817
   30MOL0     O 3886  10.018   1.335   4.156  0.8528 -0.4783 -0.2542
   30MOL0     C 3887   9.989   1.454   4.228  0.1803 -0.6589 -0.8854
   30MOL0     C 3888   9.966   1.448   4.382  0.8531 -0.2041  0.2243
   30MOL0     C 3889  10.066   1.371   4.448  0.5401 -0.2198 -0.5467
   30MOL0     C 3890  10.029   1.368   4.597  0.7113  0.7585  0.6555
   30MOL0     C 3891   9.929   1.267   4.632  0.4793  0.4309 -0.6438
   30MOL0     C 3892   9.854   1.165   4.661 -0.4876  0.2789 -0.1881
   30MOL0     C 3893   9.793   1.255   4.112 -0.5494  0.3095  0.8465
   30MOL0     C 3894   9.722   1.163   4.032 -0.3674  0.0544  0.0821
   30MOL0     H 3895   9.902   0.702   3.610  0.0164 -0.3571 -3.5743
   30MOL0     H 3896   9.792   0.549   3.479  1.4895  2.8340 -0.8002
   30MOL0     H 3897   9.332   0.451   3.484 -1.3192 -0.6872  1.0950
   30MOL0     H 3898   9.435   0.397   3.622  3.3420  1.9302 -0.3454
   30MOL0     H 3899   9.485   0.191   3.504  1.8472  2.6672  0.2926
   30MOL0     H 3900   9.487   0.282   3.355  0.6083 -0.3411 -0.2314
   30MOL0     H 3901   9.251   0.286   3.320 -1.1598 -1.6070 -0.7226
   30MOL0     H 3902   9.221   0.221   3.481  1.9157 -0.6546  2.0481
   30MOL0     H 3903   9.292  -0.003   3.425 -2.0575  1.4498 -0.1722
   30MOL0     H 3904   9.201   0.043   3.281 -0.7729  0.7051  0.9891
   30MOL0     H 3905   9.392  -0.072   3.210 -3.4290  0.5026  1.5740
   30MOL0     H 3906   9.498   0.044   3.292  0.9489 -0.4509  0.5907
   30MOL0     H 3907   9.430   0.226   3.141  0.4223  0.1077  0.2415
   30MOL0     H 3908   9.284   0.128   3.096 -1.6082 -0.2219  5.7086
   30MOL0     H 3909   9.380   0.000   2.958 -1.3399 -0.2593  1.9243
   30MOL0     H 3910   9.451   0.155   2.918  0.5143  1.4340  1.4586
   30MOL0     H 3911   9.631   0.039   3.117  2.9422 -3.7816 -0.5104
   30MOL0     H 3912   9.663   0.057   2.951 -0.6466  0.2715 -2.1180
   30MOL0     H 3913   9.823  -0.176   3.031 -0.6090 -1.0195  0.3221
   30MOL0     H 3914   9.804  -0.464   3.178  0.2261 -1.2979 -0.8906
   30MOL0     H 3915   9.897  -0.409   3.048 -0.4286  0.1334  0.5785
   30MOL0     H 3916   9.735  -0.561   2.896 -0.2659 -1.3440 -1.1778
   30MOL0     H 3917   9.669  -0.614   3.049  0.7068  0.0387  1.0676
   30MOL0     H 3918   9.879  -0.686   3.127 -1.9951 -0.8399  0.7802
   30MOL0     H 3919   9.838  -0.778   2.984 -0.7917 -0.8756 -0.5322
   30MOL0     H 3920  10.057  -0.745   2.965 -2.0941 -1.8997  2.3252
   30MOL0     H 3921  10.065  -0.582   3.009  3.1425 -3.3328  0.5878
   30MOL0     H 3922  10.234  -0.704   2.793  1.8069 -2.5195 -0.6447
   30MOL0     H 3923  10.312  -0.834   2.593  0.5644  2.5520  3.2016
   30MOL0     H 3924  10.547  -0.983   2.366 -1.9833 -0.7207  0.1473
   30MOL0     H 3925  10.709  -1.008   2.196  1.1843  0.9918 -1.4177
   30MOL0     H 3926  10.639  -1.172   1.943 -0.7553  0.5238 -1.5001
   30MOL0     H 3927  10.811  -1.107   1.946  1.2353 -3.9845 -2.1274
   30MOL0     H 3928  10.828  -1.080   1.715 -1.4515  2.5730 -0.1848
   30MOL0     H 3929  10.648  -1.094   1.698  0.6208  1.7408  0.3399
   30MOL0     H 3930  10.759  -1.287   1.613 -2.2470 -0.4209  0.0294
   30MOL0     H 3931  10.659  -1.311   1.756 -0.1283 -1.7292 -1.5519
   30MOL0     H 3932  10.940  -1.242   1.817  0.6475  0.6925 -0.3547
   30MOL0     H 3933  10.845  -1.381   1.879 -0.3435  0.5937 -0.5150
   30MOL0     H 3934  10.970  -1.353   1.602  1.9108 -0.6218 -0.1675
   30MOL0     H 3935  10.888  -1.500   1.660 -0.2877 -0.0661  2.9529
   30MOL0     H 3936  11.044  -1.534   1.831  0.4639  0.0372 -0.6643
   30MOL0     H 3937  11.121  -1.383   1.790  0.4839  1.5743 -1.2216
   30MOL0     H 3938  11.103  -1.642   1.606  0.0809 -2.4042  1.8540
   30MOL0     H 3939  11.175  -1.498   1.559  0.4041 -1.0327 -0.2162
   30MOL0     H 3940  11.254  -1.648   1.820 -1.3532  1.1430  0.7372
   30MOL0     H 3941  11.347  -1.511   1.752  1.3735 -0.4558 -1.6518
   30MOL0     H 3942  10.426  -0.900   1.894  4.7315 -2.7385 -1.7724
   30MOL0     H 3943  10.252  -0.852   2.079 -1.0364 -3.4468 -3.9757
   30MOL0     H 3944   9.928  -0.794   2.408  3.8096 -1.9398 -2.2619
   30MOL0     H 3945   9.861  -0.667   2.611 -0.8652 -2.8524 -0.0795
   30MOL0     H 3946   9.405   0.635   3.665 -0.5311 -0.3051 -0.9720
   30MOL0     H 3947   9.518   0.769   3.823  1.0886 -0.2572  0.1576
   30MOL0     H 3948   9.971   0.956   3.926 -1.0437 -0.6984  0.7931
   30MOL0     H 3949  10.106   1.116   4.066  0.2692 -1.8578  0.1085
   30MOL0     H 3950   9.899   1.509   4.196 -0.6900 -1.9028 -0.6396
   30MOL0     H 3951  10.071   1.524   4.213  0.8523 -0.5965  2.4085
   30MOL0     H 3952   9.958   1.549   4.426 -1.5110  0.7484 -2.1691
   30MOL0     H 3953   9.867   1.408   4.402  0.3432  0.0036 -1.7183
   30MOL0     H 3954  10.157   1.432   4.447 -1.2025  2.6415  0.8024
   30MOL0     H 3955  10.074   1.267   4.417 -1.8787 -0.2385 -1.2519
   30MOL0     H 3956  10.122   1.339   4.645  0.1420 -0.8574  0.8477
   30MOL0     H 3957  10.000   1.468   4.630  0.3067  0.2654  1.8235
   30MOL0     H 3958   9.792   1.078   4.670  1.3194 -0.8704  2.4253
   30MOL0     H 3959   9.752   1.337   4.170 -0.9469 -0.0464  1.0736
   30MOL0     H 3960   9.616   1.184   4.039 -0.2252  0.6992  0.5104
   31MOL0     O 3961   5.042   5.718   5.243 -0.2343  0.0761 -0.3095
   31MOL0     C 3962   5.110   5.646   5.168 -0.4428  0.3244 -0.4449
   31MOL0     O 3963   5.065   5.564   5.065 -0.5025  0.5834 -0.1193
   31MOL0     C 3964   4.952   5.612   5.005 -0.1239  0.2218  0.2214
   31MOL0     C 3965   4.956   5.729   4.919  0.4940  0.0716  0.4701
   31MOL0     C 3966   4.844   5.776   4.849  0.5275  0.2654 -0.2264
   31MOL0     C 3967   4.718   5.710   4.871  0.5324  0.4108  1.0388
   31MOL0     O 3968   4.605   5.773   4.821 -0.4231 -1.4276  0.6005
   31MOL0     C 3969   4.474   5.743   4.862  0.0586 -0.3929  0.3796
   31MOL0     C 3970   4.378   5.857   4.843  0.1733 -1.2988  0.9374
   31MOL0     C 3971   4.405   5.925   4.710 -0.7666  0.8529  0.0547
   31MOL0     C 3972   4.406   5.829   4.594 -0.6457  0.1536 -0.0691
   31MOL0     C 3973   4.417   5.925   4.475 -0.9714 -0.2578  0.2945
   31MOL0     C 3974   4.418   5.839   4.339 -0.6666 -0.1728  0.1758
   31MOL0     C 3975   4.481   5.918   4.233 -0.0623 -0.4034  1.1081
   31MOL0     C 3976   4.475   5.864   4.091 -0.0930  0.4248 -0.1155
   31MOL0     N 3977   4.518   5.979   4.006 -0.1914 -0.5702  0.0410
   31MOL0     C 3978   4.433   6.069   3.940  0.3461  0.4002 -0.1801
   31MOL0     C 3979   4.518   6.169   3.904 -0.0477 -0.7687 -0.1726
   31MOL0     C 3980   4.462   6.299   3.835  0.6570  0.2713  0.4827
   31MOL0     C 3981   4.442   6.254   3.688 -0.3677  0.0659  0.5814
   31MOL0     C 3982   4.425   6.377   3.599 -0.0456 -1.0221 -0.0654
   31MOL0     C 3983   4.456   6.351   3.448 -0.0858  0.1528  0.0892
   31MOL0     O 3984   4.365   6.236   3.394 -0.1388 -0.6633  0.4643
   31MOL0     C 3985   4.294   6.259   3.280 -0.0533  0.3884 -0.1197
   31MOL0     C 3986   4.235   6.380   3.242 -0.1386  0.6318  0.5648
   31MOL0     C 3987   4.157   6.388   3.133 -0.2092  0.2107  1.1519
   31MOL0     C 3988   4.129   6.269   3.058 -1.2867 -0.3487 -0.7558
   31MOL0     C 3989   4.045   6.266   2.932 -0.6993  0.4333  0.2353
   31MOL0     O 3990   3.985   6.376   2.888  0.0119 -0.1373  0.0854
   31MOL0     C 3991   3.915   6.396   2.776  0.0334 -0.7698 -0.2666
   31MOL0     C 3992   3.826   6.500   2.779  0.1723  0.1796  0.0095
   31MOL0     C 3993   3.736   6.528   2.677 -0.6172 -0.9173 -0.6699
   31MOL0     C 3994   3.742   6.461   2.560  0.2844  1.1788 -0.1663
   31MOL0     O 3995   3.661   6.472   2.451  0.6335 -0.5619  0.3408
   31MOL0     C 3996   3.578   6.594   2.435  0.1593  0.7626 -0.5785
   31MOL0     C 3997   3.498   6.580   2.308  0.1101 -0.7931  0.6185
   31MOL0     C 3998   3.439   6.437   2.270  0.1501  0.4715 -0.3306
   31MOL0     C 3999   3.367   6.351   2.377 -0.0464  0.0605  0.9007
   31MOL0     C 4000   3.290   6.231   2.319 -0.6501  0.0772 -0.6997
   31MOL0     C 4001   3.379   6.119   2.260  0.0494 -1.4869  0.7182
   31MOL0     C 4002   3.291   6.010   2.191 -0.0470 -0.4527 -0.3994
   31MOL0     C 4003   3.337   5.874   2.217 -0.9302  0.3896 -0.1211
   31MOL0    Cl 4004   3.483   5.830   2.103 -0.1049 -0.3897 -0.3276
   31MOL0     C 4005   3.833   6.352   2.548  0.4384  0.1932  0.7560
   31MOL0     C 4006   3.921   6.321   2.662 -0.8029  0.4684 -0.4409
   31MOL0     O 4007   4.033   6.153   2.882  0.0821  0.4946 -0.6488
   31MOL0     C 4008   4.195   6.152   3.094  0.0603  0.1496  0.1720
   31MOL0     C 4009   4.266   6.142   3.206 -0.2341 -0.4244 -0.6761
   31MOL0     N 4010   4.646   6.134   3.933 -0.2244  0.7072  1.1293
   31MOL0     N 4011   4.650   6.016   3.992 -0.4186  0.4667  0.5166
   31MOL0     C 4012   4.721   5.588   4.949 -0.4962  0.6507  0.0046
   31MOL0     C 4013   4.837   5.541   5.026 -0.4758 -0.8697  0.1282
   31MOL0     C 4014   5.242   5.617   5.224  0.5539 -0.6685 -0.4980
   31MOL0     C 4015   5.333   5.543   5.142  0.1305 -0.5638 -0.3558
   31MOL0     C 4016   5.454   5.497   5.201 -0.0759 -0.3408  0.3882
   31MOL0     C 4017   5.491   5.535   5.333  0.0939  0.3420  0.7341
   31MOL0     O 4018   5.613   5.495   5.376 -0.1901  0.5221 -1.1362
   31MOL0     C 4019   5.689   5.556   5.490  0.5368 -0.3919  0.7713
   31MOL0     C 4020   5.838   5.587   5.449 -0.2338  0.2563 -0.9641
   31MOL0     C 4021   5.913   5.455   5.415 -0.1021 -0.2782 -0.8756
   31MOL0     C 4022   6.063   5.476   5.420 -0.0998  0.1674  0.7672
   31MOL0     C 4023   6.139   5.349   5.405 -0.5398  0.3420  0.7127
   31MOL0     C 4024   6.193   5.241   5.385 -0.5977 -0.4735 -0.0762
   31MOL0     C 4025   5.401   5.614   5.406 -0.4712  0.2269  0.3393
   31MOL0     C 4026   5.273   5.650   5.361  0.1639  0.7876  0.2949
   31MOL0     H 4027   5.051   5.771   4.888  0.2795 -0.2194 -0.6066
   31MOL0     H 4028   4.860   5.856   4.778 -0.3336  0.1053 -0.6216
   31MOL0     H 4029   4.466   5.720   4.968 -0.4142 -2.2718 -0.0375
   31MOL0     H 4030   4.448   5.648   4.814  1.5961 -0.4204 -0.4837
   31MOL0     H 4031   4.383   5.936   4.918  3.2742  0.6645 -1.0994
   31MOL0     H 4032   4.274   5.822   4.839 -0.9140  1.7483 -0.4885
   31MOL0     H 4033   4.502   5.974   4.717 -1.6704  3.2054 -2.2784
   31MOL0     H 4034   4.348   6.014   4.682  2.2370  2.4463 -1.3925
   31MOL0     H 4035   4.487   5.756   4.589 -0.0859  0.8166 -1.7939
   31MOL0     H 4036   4.317   5.766   4.593  0.0346 -0.8754  1.3446
   31MOL0     H 4037   4.504   5.990   4.476 -0.1072 -1.3846  0.8225
   31MOL0     H 4038   4.329   5.990   4.473 -2.0723 -1.6803  0.1871
   31MOL0     H 4039   4.315   5.821   4.309  0.2244 -1.4530 -2.4164
   31MOL0     H 4040   4.478   5.749   4.357 -1.2983 -0.0949  3.2679
   31MOL0     H 4041   4.432   6.015   4.220  1.1941 -0.0617 -2.0299
   31MOL0     H 4042   4.583   5.946   4.260 -0.2252  0.4072  0.9277
   31MOL0     H 4043   4.384   5.829   4.043  2.6720 -1.9026 -4.3047
   31MOL0     H 4044   4.539   5.775   4.089 -0.2391  0.1959  2.3113
   31MOL0     H 4045   4.325   6.058   3.947  0.1855  2.3213  1.0195
   31MOL0     H 4046   4.525   6.384   3.861  0.7829  1.3179 -2.7701
   31MOL0     H 4047   4.363   6.317   3.878 -0.3387 -1.5473 -0.8932
   31MOL0     H 4048   4.362   6.181   3.674  0.1846 -0.6250  0.9518
   31MOL0     H 4049   4.539   6.213   3.660  1.2065  1.8490  3.0078
   31MOL0     H 4050   4.325   6.420   3.598  1.2825  2.3626 -0.3874
   31MOL0     H 4051   4.488   6.458   3.638 -2.9160  0.7167  1.2255
   31MOL0     H 4052   4.559   6.319   3.432 -0.9707 -3.7642  1.0874
   31MOL0     H 4053   4.432   6.444   3.396 -1.2620 -0.6303 -0.8410
   31MOL0     H 4054   4.241   6.466   3.307 -0.1470  0.6792  0.5022
   31MOL0     H 4055   4.122   6.488   3.110  1.6377  0.1499 -2.8162
   31MOL0     H 4056   3.810   6.570   2.860 -5.0884 -0.7373  0.1096
   31MOL0     H 4057   3.678   6.618   2.692  0.2271 -0.2972 -1.0645
   31MOL0     H 4058   3.632   6.689   2.425 -0.8862  1.8153  2.6150
   31MOL0     H 4059   3.521   6.599   2.528  0.5599 -0.3787 -0.2636
   31MOL0     H 4060   3.565   6.614   2.229  0.0419  1.9863  1.6771
   31MOL0     H 4061   3.417   6.653   2.311  0.1912 -0.7365  3.0608
   31MOL0     H 4062   3.519   6.379   2.223 -2.2811 -3.5213 -0.0155
   31MOL0     H 4063   3.367   6.448   2.187  0.0939 -0.7944 -0.4750
   31MOL0     H 4064   3.435   6.330   2.460  0.8841 -0.6555 -0.0179
   31MOL0     H 4065   3.283   6.410   2.415 -0.7164  0.6561 -1.3332
   31MOL0     H 4066   3.220   6.279   2.249 -1.3551  0.3921  0.1996
   31MOL0     H 4067   3.239   6.176   2.398 -0.0439  2.0777  1.2024
   31MOL0     H 4068   3.444   6.072   2.333  1.1113  1.0237  1.5124
   31MOL0     H 4069   3.450   6.160   2.187 -2.1978 -1.4453 -1.6131
   31MOL0     H 4070   3.188   6.022   2.226  0.2723  0.4629  0.2878
   31MOL0     H 4071   3.294   6.034   2.084  1.7456  1.2071 -0.0420
   31MOL0     H 4072   3.261   5.798   2.197 -0.2036  0.3156 -3.0885
   31MOL0     H 4073   3.364   5.861   2.322 -1.9559 -3.0133 -0.1459
   31MOL0     H 4074   3.827   6.286   2.462  0.3470 -1.8530  2.2374
   31MOL0     H 4075   3.999   6.246   2.653  0.2988  1.1051  2.6577
   31MOL0     H 4076   4.170   6.063   3.038 -0.5719 -1.0785  2.2758
   31MOL0     H 4077   4.322   6.053   3.234 -0.1536  0.5001  2.3490
   31MOL0     H 4078   4.638   5.518   4.952  2.1661 -2.7485  1.6441
   31MOL0     H 4079   4.826   5.453   5.089 -1.8390  0.1431  1.3484
   31MOL0     H 4080   5.311   5.524   5.037 -2.0852 -0.8262  0.1035
   31MOL0     H 4081   5.527   5.451   5.135  0.5855  2.5006 -0.9792
   31MOL0     H 4082   5.698   5.486   5.573  0.8117 -1.1137  0.1400
   31MOL0     H 4083   5.637   5.647   5.525 -2.5869 -1.1479 -1.4620
   31MOL0     H 4084   5.836   5.666   5.373  4.0450 -0.6853 -2.3575
   31MOL0     H 4085   5.879   5.632   5.540  1.3863 -1.8399 -0.5814
   31MOL0     H 4086   5.881   5.425   5.315 -1.6324  1.1805 -0.8566
   31MOL0     H 4087   5.894   5.379   5.491 -1.6731  2.3376  1.5329
   31MOL0     H 4088   6.087   5.551   5.345 -0.4363 -1.0808 -0.6403
   31MOL0     H 4089   6.089   5.509   5.521 -1.3428 -0.9436  1.4877
   31MOL0     H 4090   6.256   5.157   5.367 -1.4974 -1.4749  1.2421
   31MOL0     H 4091   5.432   5.641   5.506 -2.2047  0.7835  0.7530
   31MOL0     H 4092   5.196   5.699   5.420 -2.6440 -0.8764 -1.7918
   32MOL0     O 4093   5.461   9.575  10.251 -0.1346 -0.2843  1.1754
   32MOL0     C 4094   5.533   9.505  10.320 -0.5566  0.2317 -0.1433
   32MOL0     O 4095   5.503   9.381  10.374  0.0957 -0.1116  0.4871
   32MOL0     C 4096   5.371   9.338  10.367 -0.1035 -0.2508  0.1768
   32MOL0     C 4097   5.304   9.300  10.244  0.2920 -0.4810  0.0492
   32MOL0     C 4098   5.180   9.253  10.237  0.8983 -0.6464  0.6413
   32MOL0     C 4099   5.106   9.238  10.354 -0.5151 -0.0348 -0.9941
   32MOL0     O 4100   4.979   9.183  10.343  0.2404 -0.4230 -0.4576
   32MOL0     C 4101   4.902   9.173  10.460  0.2894  0.5483  0.2749
   32MOL0     C 4102   4.776   9.115  10.404  0.3343 -0.1625 -0.1720
   32MOL0     C 4103   4.669   9.127  10.516 -0.3887  0.8442  0.2051
   32MOL0     C 4104   4.525   9.090  10.465  0.2354 -0.1178 -0.5062
   32MOL0     C 4105   4.409   9.083  10.572 -1.0900  0.2097  0.0043
   32MOL0     C 4106   4.437   8.965  10.674  0.1539  0.2863 -0.6801
   32MOL0     C 4107   4.301   8.931  10.749 -0.9006  0.1801 -0.1810
   32MOL0     C 4108   4.270   9.032  10.863 -0.0462 -0.0821  0.7644
   32MOL0     N 4109   4.132   9.019  10.918 -0.3834 -0.6090  0.2323
   32MOL0     C 4110   4.083   8.916  11.002 -0.0034  0.3729 -0.1211
   32MOL0     C 4111   3.957   8.949  11.033  0.8742  0.0130  0.1992
   32MOL0     C 4112   3.867   8.867  11.116  0.2605  0.3785 -0.0569
   32MOL0     C 4113   3.780   8.754  11.055 -0.3983 -0.5721  0.2765
   32MOL0     C 4114   3.661   8.700  11.140  0.0473  0.6740  0.3265
   32MOL0     C 4115   3.558   8.808  11.166 -0.1347  0.3139  0.9617
   32MOL0     O 4116   3.452   8.740  11.226  0.0154  0.6101 -0.3256
   32MOL0     C 4117   3.324   8.761  11.171 -0.7812 -1.8818  0.0502
   32MOL0     C 4118   3.245   8.662  11.115 -0.9012 -0.4315 -0.4097
   32MOL0     C 4119   3.120   8.687  11.081  1.0046  0.0144  0.8843
   32MOL0     C 4120   3.057   8.806  11.117  0.5479  0.6929  0.9703
   32MOL0     C 4121   2.907   8.820  11.074  0.3290 -0.3061 -0.3255
   32MOL0     O 4122   2.838   8.930  11.131  0.6417 -0.0728 -0.0790
   32MOL0     C 4123   2.707   8.928  11.091 -0.3238 -0.3623 -0.5383
   32MOL0     C 4124   2.615   8.947  11.192  0.5379  0.0698  0.3436
   32MOL0     C 4125   2.480   8.951  11.159  0.4674  0.3290  0.4765
   32MOL0     C 4126   2.427   8.931  11.026  0.5246 -0.0539 -0.2725
   32MOL0     O 4127   2.295   8.922  10.998  0.4384 -0.1728 -0.1342
   32MOL0     C 4128   2.205   8.998  11.072 -0.5626  0.2312 -0.4722
   32MOL0     C 4129   2.094   9.034  10.978 -0.2603 -0.7404 -0.5880
   32MOL0     C 4130   1.974   8.948  11.010 -0.1619 -0.3822 -0.6107
   32MOL0     C 4131   1.846   8.985  10.940  0.2504 -0.0626  0.2490
   32MOL0     C 4132   1.702   8.913  10.979  0.1484 -0.4351  0.2412
   32MOL0     C 4133   1.579   8.999  10.970 -0.1120 -0.1016  0.1720
   32MOL0     C 4134   1.454   8.933  11.023 -0.5665 -0.9457  1.1540
   32MOL0     C 4135   1.325   9.004  10.967 -0.4824 -0.1233  0.0247
   32MOL0    Cl 4136   1.319   9.181  11.016 -0.3267 -0.0618  0.1175
   32MOL0     C 4137   2.518   8.903  10.929  0.4622 -0.7186  0.4646
   32MOL0     C 4138   2.658   8.910  10.956  0.2345  0.4900  0.5922
   32MOL0     O 4139   2.853   8.730  11.004  0.5964  0.0934 -0.6871
   32MOL0     C 4140   3.132   8.907  11.172  0.3980  0.1634  0.2021
   32MOL0     C 4141   3.262   8.880  11.211 -0.0200 -0.9103  0.8928
   32MOL0     N 4142   3.931   9.075  10.965  0.5648  0.7053 -0.5230
   32MOL0     N 4143   4.025   9.106  10.891  0.5679 -0.1028 -0.6128
   32MOL0     C 4144   5.170   9.284  10.477 -0.3623  0.1347  0.1657
   32MOL0     C 4145   5.298   9.334  10.487 -0.3537  0.6405  0.6249
   32MOL0     C 4146   5.667   9.567  10.343  0.9247  0.3577 -0.9544
   32MOL0     C 4147   5.687   9.705  10.343 -0.1114  0.1826  0.0682
   32MOL0     C 4148   5.806   9.760  10.379 -0.1423 -0.7051 -0.4469
   32MOL0     C 4149   5.917   9.679  10.409  1.2474  0.3086  0.1920
   32MOL0     O 4150   6.024   9.763  10.434  0.3738 -0.5305 -0.2602
   32MOL0     C 4151   6.142   9.691  10.456 -0.7799 -0.6684  0.1789
   32MOL0     C 4152   6.262   9.786  10.492 -1.2552  0.2605  0.1647
   32MOL0     C 4153   6.392   9.714  10.536 -0.8187 -0.7487  0.2835
   32MOL0     C 4154   6.521   9.805  10.546  1.2732  0.5184 -0.9711
   32MOL0     C 4155   6.504   9.907  10.653  0.5243  0.8230 -0.6269
   32MOL0     C 4156   6.503   9.976  10.744  0.5955 -0.2552 -0.3405
   32MOL0     C 4157   5.899   9.538  10.411 -0.3478 -0.5846  0.6274
   32MOL0     C 4158   5.777   9.487  10.385  0.0878 -1.1719 -0.8374
   32MOL0     H 4159   5.371   9.306  10.159  1.2437 -0.8590  0.7591
   32MOL0     H 4160   5.142   9.237  10.137  3.7363 -1.6059 -0.3658
   32MOL0     H 4161   4.890   9.276  10.496 -1.0376  1.3745 -2.2581
   32MOL0     H 4162   4.940   9.114  10.543 -3.1321  1.8165  2.9820
   32MOL0     H 4163   4.798   9.011  10.376 -2.5413 -0.9720  0.3136
   32MOL0     H 4164   4.762   9.173  10.312  1.2776  0.8566  0.3041
   32MOL0     H 4165   4.660   9.222  10.569  3.9733  1.2921  0.4481
   32MOL0     H 4166   4.698   9.048  10.585  3.5156  2.9155  1.2025
   32MOL0     H 4167   4.493   9.165  10.391  0.4897  0.3056 -0.1917
   32MOL0     H 4168   4.527   8.990  10.421 -2.5862  0.1302 -1.4107
   32MOL0     H 4169   4.312   9.068  10.525 -0.6367  0.5579 -1.0726
   32MOL0     H 4170   4.407   9.180  10.623 -1.1846  0.0094  0.3847
   32MOL0     H 4171   4.512   9.003  10.744 -0.5644  1.5359 -0.5445
   32MOL0     H 4172   4.473   8.875  10.624  1.1801 -1.0772  2.2654
   32MOL0     H 4173   4.217   8.926  10.680 -0.8205  0.8815 -0.3380
   32MOL0     H 4174   4.317   8.830  10.787  2.4348  1.0431  1.0443
   32MOL0     H 4175   4.280   9.131  10.816 -0.7581 -1.1261 -1.7868
   32MOL0     H 4176   4.339   9.017  10.946 -0.0696 -1.8943  0.4809
   32MOL0     H 4177   4.137   8.826  11.031 -0.9464  0.0941  0.8011
   32MOL0     H 4178   3.807   8.944  11.167 -0.3127 -0.6102  0.7961
   32MOL0     H 4179   3.940   8.819  11.181  3.0709 -1.4274 -4.1527
   32MOL0     H 4180   3.851   8.671  11.051  0.9531  0.5516  0.1972
   32MOL0     H 4181   3.755   8.786  10.954 -1.4119  1.3420  1.0721
   32MOL0     H 4182   3.613   8.611  11.098  3.0817 -0.0020 -2.1106
   32MOL0     H 4183   3.702   8.666  11.235  0.3279 -1.2894 -0.4349
   32MOL0     H 4184   3.525   8.856  11.073  2.5993 -0.7437 -0.6574
   32MOL0     H 4185   3.590   8.881  11.241 -0.6506  0.7261  0.7858
   32MOL0     H 4186   3.284   8.568  11.077  0.7084 -0.4287  1.1612
   32MOL0     H 4187   3.063   8.606  11.036 -0.0426 -0.0310  2.2448
   32MOL0     H 4188   2.645   8.964  11.295 -0.2508  2.1058  0.2815
   32MOL0     H 4189   2.412   8.953  11.244  0.0933 -3.8564  0.4801
   32MOL0     H 4190   2.253   9.096  11.084 -3.7370  1.5712  3.4827
   32MOL0     H 4191   2.173   8.955  11.167  2.3190  3.7587  2.3728
   32MOL0     H 4192   2.109   9.034  10.870 -2.6938  0.8266 -1.0025
   32MOL0     H 4193   2.060   9.133  11.008  1.8869 -0.7252  2.2527
   32MOL0     H 4194   1.960   8.951  11.118 -0.5176 -0.5092 -0.6540
   32MOL0     H 4195   1.989   8.842  10.990 -0.3855 -1.0698  2.4185
   32MOL0     H 4196   1.835   9.094  10.946 -1.0221 -0.1752  0.2367
   32MOL0     H 4197   1.875   8.961  10.837  0.4374 -1.2901  0.5722
   32MOL0     H 4198   1.702   8.888  11.086 -0.1689 -2.1708 -0.1337
   32MOL0     H 4199   1.686   8.812  10.941 -6.4030 -0.3622  1.5484
   32MOL0     H 4200   1.557   9.023  10.865 -2.7335  1.1994  0.9263
   32MOL0     H 4201   1.601   9.096  11.015 -0.5666 -0.3006  0.8302
   32MOL0     H 4202   1.462   8.826  11.002  1.8863 -0.4056 -1.1959
   32MOL0     H 4203   1.434   8.937  11.131  2.1451 -1.8316  1.7848
   32MOL0     H 4204   1.235   8.950  10.996 -0.4391 -0.4581 -0.4481
   32MOL0     H 4205   1.327   9.000  10.857  0.2744 -0.1654  0.0382
   32MOL0     H 4206   2.485   8.897  10.826 -1.5527  1.3939  0.9167
   32MOL0     H 4207   2.717   8.892  10.866 -0.3122  2.8086 -0.3025
   32MOL0     H 4208   3.081   8.999  11.198 -1.2819  0.0427 -2.3209
   32MOL0     H 4209   3.325   8.949  11.266 -2.2670 -1.0106  3.8974
   32MOL0     H 4210   5.111   9.294  10.568  0.0142 -0.5232  0.4949
   32MOL0     H 4211   5.332   9.382  10.578  1.2758  1.3472 -0.3146
   32MOL0     H 4212   5.597   9.761  10.322 -2.0713 -2.5934  0.5333
   32MOL0     H 4213   5.803   9.869  10.378 -1.3033 -0.7252 -1.9020
   32MOL0     H 4214   6.163   9.620  10.376  2.3301 -1.0942  1.2384
   32MOL0     H 4215   6.133   9.639  10.552 -0.0469  2.2193  1.9451
   32MOL0     H 4216   6.281   9.826  10.392 -2.4741 -0.1876 -0.2651
   32MOL0     H 4217   6.231   9.860  10.567 -1.1107 -1.0509  1.5638
   32MOL0     H 4218   6.402   9.633  10.463 -2.1679 -1.4676  0.8580
   32MOL0     H 4219   6.385   9.649  10.624  4.1599 -1.9374  0.0988
   32MOL0     H 4220   6.606   9.738  10.564 -0.2044 -0.7735  2.0383
   32MOL0     H 4221   6.540   9.854  10.450  2.4709  0.3849 -0.8129
   32MOL0     H 4222   6.497  10.034  10.834  0.6821 -0.9588  0.1228
   32MOL0     H 4223   5.982   9.473  10.436 -0.3419 -0.3129  1.3474
   32MOL0     H 4224   5.763   9.380  10.394  1.2717 -1.4070 -1.5802
   33MOL0     O 4225   1.193  10.450   2.790 -0.1836 -0.4673 -0.8335
   33MOL0     C 4226   1.129  10.506   2.707  0.3619  0.7087 -0.5836
   33MOL0     O 4227   1.173  10.588   2.614  0.1642  0.0679 -0.3222
   33MOL0     C 4228   1.304  10.623   2.617 -0.3127  0.1298  0.6656
   33MOL0     C 4229   1.327  10.759   2.594 -0.1579 -0.5811 -0.1255
   33MOL0     C 4230   1.459  10.816   2.596 -0.0478 -0.5946 -0.0908
   33MOL0     C 4231   1.564  10.735   2.632 -0.8183 -0.6489 -0.4625
   33MOL0     O 4232   1.693  10.794   2.636 -0.5442 -0.4021 -0.4292
   33MOL0     C 4233   1.708  10.885   2.750 -0.2075  0.1655 -0.3361
   33MOL0     C 4234   1.859  10.902   2.791  0.3470  0.3018 -0.2564
   33MOL0     C 4235   1.905  10.769   2.864 -0.5553 -0.3619 -0.1397
   33MOL0     C 4236   2.038  10.782   2.946  0.7207  0.6313  0.0148
   33MOL0     C 4237   2.074  10.646   3.008 -0.4780 -0.5916  0.9561
   33MOL0     C 4238   1.979  10.581   3.113  0.4064 -0.0282 -0.5914
   33MOL0     C 4239   2.056  10.537   3.238 -0.4417  0.7401  0.6757
   33MOL0     C 4240   2.162  10.431   3.195  0.1065  0.5347  0.5450
   33MOL0     N 4241   2.200  10.345   3.305  0.6074 -0.2964 -0.3899
   33MOL0     C 4242   2.282  10.384   3.410 -1.3407  0.2816 -0.2038
   33MOL0     C 4243   2.284  10.281   3.494 -0.4194  0.0704  0.4387
   33MOL0     C 4244   2.356  10.268   3.630  0.7489  0.6042 -0.9756
   33MOL0     C 4245   2.503  10.201   3.627 -0.7645  0.2702  0.3056
   33MOL0     C 4246   2.500  10.052   3.670 -0.2977 -0.8318  0.3411
   33MOL0     C 4247   2.640   9.996   3.676 -0.0126  0.2828  0.2299
   33MOL0     O 4248   2.707  10.024   3.557 -0.4181 -0.2759  0.6969
   33MOL0     C 4249   2.838  10.071   3.578  0.4500 -0.1599  0.2647
   33MOL0     C 4250   2.927  10.019   3.666  0.2896 -0.1920 -0.1314
   33MOL0     C 4251   3.057  10.060   3.676 -0.0723 -1.2796 -0.6433
   33MOL0     C 4252   3.103  10.170   3.591 -0.9776  0.2991 -0.3493
   33MOL0     C 4253   3.245  10.208   3.595 -0.0439 -1.5787 -0.1610
   33MOL0     O 4254   3.290  10.275   3.485  0.4008 -0.6523 -0.1855
   33MOL0     C 4255   3.424  10.308   3.475 -1.4460 -0.7573  0.8846
   33MOL0     C 4256   3.514  10.243   3.377  0.7428  0.2115 -0.4619
   33MOL0     C 4257   3.642  10.285   3.371  0.6539  0.4462 -0.5386
   33MOL0     C 4258   3.701  10.388   3.450  0.5843 -0.1541  0.7742
   33MOL0     O 4259   3.816  10.446   3.427  0.1487  0.6268  0.3858
   33MOL0     C 4260   3.911  10.376   3.354 -0.2416 -1.1114  0.5257
   33MOL0     C 4261   4.042  10.466   3.362 -0.4111 -0.4853 -0.8048
   33MOL0     C 4262   4.159  10.380   3.335 -0.1883 -0.1686  0.7536
   33MOL0     C 4263   4.284  10.443   3.394 -0.8116 -0.8796  0.7018
   33MOL0     C 4264   4.389  10.340   3.428 -0.5768  0.0562 -0.5842
   33MOL0     C 4265   4.443  10.279   3.296 -0.2739 -0.8699  0.1432
   33MOL0     C 4266   4.514  10.376   3.193 -0.1038  0.6062 -0.2156
   33MOL0     C 4267   4.585  10.305   3.081  0.6917  0.6836  0.0355
   33MOL0    Cl 4268   4.569  10.388   2.929  0.4361 -0.1926 -0.0869
   33MOL0     C 4269   3.613  10.454   3.541 -0.0470 -0.4093  0.4524
   33MOL0     C 4270   3.482  10.413   3.557  0.1107 -0.6964 -0.1935
   33MOL0     O 4271   3.308  10.174   3.690 -0.2077 -0.2718  0.0269
   33MOL0     C 4272   3.008  10.228   3.501  0.8563  0.4459 -0.4457
   33MOL0     C 4273   2.880  10.186   3.499 -0.2620 -1.0785 -0.4805
   33MOL0     N 4274   2.201  10.184   3.446  0.7135 -0.5919 -0.3212
   33MOL0     N 4275   2.150  10.216   3.337  0.2944 -0.2689  0.5457
   33MOL0     C 4276   1.548  10.601   2.641  0.5534 -0.6535  0.4286
   33MOL0     C 4277   1.421  10.543   2.640  0.7971 -0.3013 -0.0658
   33MOL0     C 4278   0.983  10.465   2.695 -0.7836  0.2453 -0.9826
   33MOL0     C 4279   0.900  10.546   2.604 -0.5536  0.5817  0.1440
   33MOL0     C 4280   0.772  10.490   2.572 -0.7889 -0.2968 -1.1547
   33MOL0     C 4281   0.720  10.375   2.633  0.8487 -0.2678  0.3575
   33MOL0     O 4282   0.600  10.312   2.623 -0.0596  0.3411  0.4615
   33MOL0     C 4283   0.511  10.358   2.522  0.1489 -0.8967  0.0002
   33MOL0     C 4284   0.364  10.301   2.531  0.1965 -0.2744 -0.4931
   33MOL0     C 4285   0.262  10.377   2.623 -0.2563  0.4695 -1.0833
   33MOL0     C 4286   0.141  10.293   2.662  0.2790  0.3030 -0.3599
   33MOL0     C 4287   0.159  10.186   2.756  0.2568 -0.3280  0.8601
   33MOL0     C 4288   0.194  10.097   2.830 -0.3085  0.8577  0.2735
   33MOL0     C 4289   0.802  10.307   2.717 -0.3009 -0.6636  0.1226
   33MOL0     C 4290   0.938  10.342   2.746 -0.2476 -0.1584  0.1518
   33MOL0     H 4291   1.251  10.828   2.558 -3.0314 -1.8491  3.0257
   33MOL0     H 4292   1.477  10.920   2.569  0.2053 -0.5475  0.2531
   33MOL0     H 4293   1.634  10.857   2.825 -0.8499  1.2141 -0.5725
   33MOL0     H 4294   1.676  10.982   2.711 -0.2833 -0.2563 -1.3805
   33MOL0     H 4295   1.872  10.995   2.847  0.5471  0.6591 -0.9009
   33MOL0     H 4296   1.928  10.908   2.706  1.0094 -2.7297 -0.0434
   33MOL0     H 4297   1.919  10.698   2.782  1.5931  0.1167 -0.2411
   33MOL0     H 4298   1.821  10.739   2.929 -1.6637  1.4592 -0.6387
   33MOL0     H 4299   2.106  10.809   2.865  0.4513 -0.1874 -0.4941
   33MOL0     H 4300   2.039  10.861   3.022 -0.7997  1.2976 -0.6316
   33MOL0     H 4301   2.175  10.659   3.048  0.9662 -2.4114 -1.7467
   33MOL0     H 4302   2.093  10.576   2.926 -1.6971  2.2440 -1.9458
   33MOL0     H 4303   1.915  10.502   3.074 -2.4193  0.9673  1.6607
   33MOL0     H 4304   1.903  10.653   3.147  0.9757 -0.3679  1.5486
   33MOL0     H 4305   2.098  10.620   3.296 -3.0657  1.9184  1.0066
   33MOL0     H 4306   1.976  10.497   3.301  0.1646  0.6416  1.4051
   33MOL0     H 4307   2.254  10.481   3.162  1.4938 -3.0504 -1.6820
   33MOL0     H 4308   2.124  10.365   3.116 -1.1651 -1.3943  2.6657
   33MOL0     H 4309   2.335  10.478   3.422 -2.3721  0.7711  0.7473
   33MOL0     H 4310   2.294  10.221   3.707 -2.2050  4.2691 -0.8012
   33MOL0     H 4311   2.370  10.371   3.666  1.1865 -0.2256  1.3909
   33MOL0     H 4312   2.572  10.234   3.706 -0.4372  0.0479  0.1121
   33MOL0     H 4313   2.545  10.227   3.530  2.3501  0.6015  1.5989
   33MOL0     H 4314   2.448  10.049   3.767 -0.7346  0.0895  0.1358
   33MOL0     H 4315   2.447  10.003   3.588 -0.6613  0.2422 -0.0722
   33MOL0     H 4316   2.648   9.888   3.690  4.0927  0.5518  1.5735
   33MOL0     H 4317   2.695  10.028   3.765  0.3860 -0.1247  0.1376
   33MOL0     H 4318   2.885   9.928   3.709 -1.3608  0.6027  0.0254
   33MOL0     H 4319   3.123  10.026   3.755  1.6448  1.5630 -0.7331
   33MOL0     H 4320   3.476  10.160   3.317  0.9477  2.2202 -3.5699
   33MOL0     H 4321   3.694  10.230   3.292 -1.9836 -2.4765 -0.4458
   33MOL0     H 4322   3.876  10.364   3.251 -0.3231 -2.2961  0.6799
   33MOL0     H 4323   3.923  10.279   3.403  0.9061 -0.5770  1.3306
   33MOL0     H 4324   4.048  10.498   3.466  1.4477 -1.2752 -0.6318
   33MOL0     H 4325   4.029  10.552   3.295 -0.0514  0.3070  0.1155
   33MOL0     H 4326   4.167  10.362   3.227  1.8200 -0.5620  0.9329
   33MOL0     H 4327   4.144  10.279   3.376  0.5142 -0.3153  0.6576
   33MOL0     H 4328   4.324  10.522   3.330 -1.7346 -0.8864  0.0913
   33MOL0     H 4329   4.257  10.502   3.482  0.1955  1.5674 -0.5313
   33MOL0     H 4330   4.352  10.267   3.500  0.1090  2.7760  2.7790
   33MOL0     H 4331   4.475  10.394   3.469  0.0142 -0.2663 -1.3629
   33MOL0     H 4332   4.362  10.218   3.256 -0.4142 -1.1695  0.8646
   33MOL0     H 4333   4.519  10.206   3.327  1.7154 -0.0497 -2.4327
   33MOL0     H 4334   4.441  10.443   3.146  2.4675  4.1020  0.3883
   33MOL0     H 4335   4.575  10.451   3.244 -1.1468  2.4724 -1.5750
   33MOL0     H 4336   4.541  10.209   3.052  1.3620  0.2944  0.2733
   33MOL0     H 4337   4.691  10.290   3.106  0.6849 -0.9535 -0.7914
   33MOL0     H 4338   3.649  10.533   3.606 -3.4553 -0.4737  2.6854
   33MOL0     H 4339   3.428  10.461   3.637  2.3410  4.9463 -1.5569
   33MOL0     H 4340   3.040  10.309   3.436  0.3786  1.6009  0.7151
   33MOL0     H 4341   2.805  10.230   3.434 -3.0051 -3.7079  0.6801
   33MOL0     H 4342   1.637  10.550   2.677  2.9102  2.3169 -0.7762
   33MOL0     H 4343   1.409  10.441   2.674  0.3675  0.3384  1.9098
   33MOL0     H 4344   0.912  10.643   2.559  1.5113 -0.4601 -1.6998
   33MOL0     H 4345   0.709  10.539   2.499 -0.8158 -0.4881 -1.2617
   33MOL0     H 4346   0.553  10.330   2.425 -0.9720 -1.5420 -0.3148
   33MOL0     H 4347   0.509  10.467   2.520 -2.5738 -0.8199  1.8019
   33MOL0     H 4348   0.335  10.304   2.425  0.2779 -2.7305 -0.6616
   33MOL0     H 4349   0.371  10.200   2.573  0.0782  1.0607  2.9937
   33MOL0     H 4350   0.226  10.471   2.580 -0.6678 -0.1853 -2.2160
   33MOL0     H 4351   0.319  10.413   2.709 -2.5342 -0.4660  0.8911
   33MOL0     H 4352   0.060  10.354   2.702 -0.6017  0.5249 -2.3788
   33MOL0     H 4353   0.119  10.240   2.569  0.8521 -0.6355  0.0259
   33MOL0     H 4354   0.221  10.024   2.904 -2.5058 -0.3940 -0.0946
   33MOL0     H 4355   0.753  10.223   2.766 -3.1550  0.8462  0.0288
   33MOL0     H 4356   0.989  10.280   2.820 -1.1943 -2.4091 -0.9918
   34MOL0     O 4357  11.021   2.653  10.097  0.0002 -0.0401  0.0353
   34MOL0     C 4358  11.062   2.750  10.036  0.1435  0.2294  0.8576
   34MOL0     O 4359  11.030   2.775   9.906 -0.6352  0.6699  0.5271
   34MOL0     C 4360  10.905   2.726   9.865 -0.0516 -0.3165 -0.3456
   34MOL0     C 4361  10.780   2.797   9.877 -0.0992  0.3484  0.5364
   34MOL0     C 4362  10.657   2.739   9.841  1.7236  0.0786 -0.6680
   34MOL0     C 4363  10.657   2.605   9.801 -0.4921  0.3755  0.1986
   34MOL0     O 4364  10.542   2.531   9.770 -0.8640  0.1979  0.1770
   34MOL0     C 4365  10.418   2.593   9.752  0.5132  0.4515  0.0047
   34MOL0     C 4366  10.324   2.494   9.693 -0.3101  0.0144  0.3726
   34MOL0     C 4367  10.179   2.486   9.748  0.9191 -0.1819  0.9290
   34MOL0     C 4368  10.085   2.404   9.655 -0.3096  1.1001 -0.2511
   34MOL0     C 4369   9.947   2.399   9.724  0.3128  0.6585  0.4259
   34MOL0     C 4370   9.842   2.367   9.619  0.1923  0.2561  0.7863
   34MOL0     C 4371   9.708   2.364   9.682 -0.9728  0.3265  0.1378
   34MOL0     C 4372   9.688   2.233   9.767 -0.6452  0.0051 -0.0620
   34MOL0     N 4373   9.553   2.227   9.801 -0.5313 -1.4998  0.2216
   34MOL0     C 4374   9.454   2.197   9.708  0.2509  0.1844 -0.9346
   34MOL0     C 4375   9.340   2.169   9.784  0.0357  0.1388  1.1236
   34MOL0     C 4376   9.205   2.123   9.731  0.3521  0.9686  0.3473
   34MOL0     C 4377   9.098   2.071   9.835  0.3631  0.8249 -0.8220
   34MOL0     C 4378   9.021   2.190   9.906 -0.3664  0.0839  0.9283
   34MOL0     C 4379   8.908   2.148  10.003  0.5623  0.7854 -0.1533
   34MOL0     O 4380   8.850   2.271  10.049  0.0527  0.5727 -0.3261
   34MOL0     C 4381   8.733   2.268  10.119  1.0102 -0.9393 -0.5283
   34MOL0     C 4382   8.656   2.160  10.151 -0.3322  0.2607 -0.0107
   34MOL0     C 4383   8.538   2.171  10.219  0.5098 -0.1510  0.4128
   34MOL0     C 4384   8.487   2.291  10.266  0.4726  0.0326 -0.1413
   34MOL0     C 4385   8.363   2.300  10.353  0.0901 -0.1420 -0.1562
   34MOL0     O 4386   8.373   2.386  10.455  0.3432 -0.3789 -0.4364
   34MOL0     C 4387   8.260   2.416  10.531  0.2347 -0.1589  0.6774
   34MOL0     C 4388   8.192   2.538  10.540  0.0484  0.3990  0.6926
   34MOL0     C 4389   8.095   2.550  10.638 -0.2634 -1.1957 -1.1122
   34MOL0     C 4390   8.051   2.452  10.724  0.7119  0.3757  0.3470
   34MOL0     O 4391   7.950   2.482  10.819 -0.1389 -0.5467 -1.0278
   34MOL0     C 4392   7.834   2.396  10.805  0.0998 -0.4199  0.5919
   34MOL0     C 4393   7.705   2.481  10.816 -0.3086 -0.4368 -0.0319
   34MOL0     C 4394   7.676   2.541  10.959 -0.3961  0.0679  0.7794
   34MOL0     C 4395   7.571   2.659  10.934 -0.7909  0.3084  0.4299
   34MOL0     C 4396   7.516   2.713  11.071  0.2208  0.9826  1.2062
   34MOL0     C 4397   7.436   2.596  11.150 -0.3367  0.0810  0.9340
   34MOL0     C 4398   7.389   2.646  11.283 -0.2540  0.2667 -1.4817
   34MOL0     C 4399   7.306   2.545  11.359 -0.3552 -0.8285 -0.8649
   34MOL0    Cl 4400   7.368   2.382  11.354  0.1612 -0.2453  0.1312
   34MOL0     C 4401   8.124   2.325  10.714 -0.8671  0.2528  0.8971
   34MOL0     C 4402   8.228   2.311  10.617 -0.1865 -0.3217 -0.2046
   34MOL0     O 4403   8.274   2.215  10.343  0.3503  0.5592  0.6163
   34MOL0     C 4404   8.566   2.404  10.238 -0.2253 -0.4373  1.4943
   34MOL0     C 4405   8.689   2.393  10.169 -0.4582  0.3383  0.1205
   34MOL0     N 4406   9.377   2.196   9.917 -0.5217 -1.2334  0.3773
   34MOL0     N 4407   9.503   2.230   9.924 -0.5925 -0.2374  0.4398
   34MOL0     C 4408  10.781   2.528   9.779  0.3519  0.5844  0.9334
   34MOL0     C 4409  10.902   2.596   9.807  0.1749 -0.2710  0.3414
   34MOL0     C 4410  11.168   2.817  10.109  0.0361 -0.4527 -0.0018
   34MOL0     C 4411  11.257   2.915  10.052 -0.1167  0.4030  1.4700
   34MOL0     C 4412  11.364   2.973  10.120 -0.2510 -0.5416  0.2087
   34MOL0     C 4413  11.372   2.952  10.268 -0.5006  0.9159 -0.3269
   34MOL0     O 4414  11.474   3.002  10.349  0.2901  0.8242 -0.1274
   34MOL0     C 4415  11.549   3.115  10.295  0.4794 -0.5491 -0.4715
   34MOL0     C 4416  11.646   3.159  10.406 -0.4872 -0.1338 -0.7011
   34MOL0     C 4417  11.740   3.279  10.372  0.2519  0.3860  0.1763
   34MOL0     C 4418  11.866   3.271  10.455 -0.1543 -0.1481 -0.6949
   34MOL0     C 4419  11.832   3.293  10.599 -0.2171 -0.6047  0.8863
   34MOL0     C 4420  11.782   3.302  10.708  0.1778  0.2685  0.6396
   34MOL0     C 4421  11.283   2.861  10.332  0.4598  0.1483  0.1340
   34MOL0     C 4422  11.186   2.793  10.250  0.0263  1.0234 -0.1331
   34MOL0     H 4423  10.774   2.901   9.909  0.6446  1.1574 -1.7368
   34MOL0     H 4424  10.562   2.792   9.850  1.9493  0.5817 -1.1780
   34MOL0     H 4425  10.428   2.675   9.681 -0.8265 -0.5517 -1.3908
   34MOL0     H 4426  10.381   2.611   9.853  4.0279 -1.1458  1.7787
   34MOL0     H 4427  10.362   2.391   9.695  0.0484  0.1425  0.2343
   34MOL0     H 4428  10.309   2.523   9.588 -2.6770  0.7824  0.8518
   34MOL0     H 4429  10.139   2.587   9.741  2.5945  0.5480  1.5857
   34MOL0     H 4430  10.178   2.456   9.853 -0.8927  3.1291  1.9870
   34MOL0     H 4431  10.070   2.445   9.555  2.0738  0.1128 -1.0842
   34MOL0     H 4432  10.120   2.301   9.639  1.8789  2.1854 -3.6053
   34MOL0     H 4433   9.917   2.496   9.765 -1.7901  0.2302  0.0043
   34MOL0     H 4434   9.945   2.333   9.811  2.1409  0.7226  0.5402
   34MOL0     H 4435   9.860   2.270   9.570 -0.8111 -0.5039  1.8704
   34MOL0     H 4436   9.846   2.450   9.548 -2.8493 -0.9618 -1.0143
   34MOL0     H 4437   9.692   2.450   9.748  2.0069  2.5627 -1.8266
   34MOL0     H 4438   9.631   2.380   9.606  0.4849  2.0404 -1.0332
   34MOL0     H 4439   9.753   2.234   9.855 -3.3641  0.7959  2.0539
   34MOL0     H 4440   9.717   2.146   9.707  5.1089  0.7820  0.9317
   34MOL0     H 4441   9.469   2.175   9.602 -1.7384 -2.4894 -0.7806
   34MOL0     H 4442   9.221   2.044   9.657 -1.2582  0.2050  0.7711
   34MOL0     H 4443   9.165   2.202   9.667  0.9041  0.3951 -0.7388
   34MOL0     H 4444   9.156   2.013   9.907 -0.5497  0.1909 -0.5799
   34MOL0     H 4445   9.031   2.000   9.787  1.2904 -0.2490 -0.5576
   34MOL0     H 4446   9.094   2.248   9.963  0.2695 -0.3784  0.6048
   34MOL0     H 4447   8.991   2.262   9.829  0.9291 -0.0798  0.2392
   34MOL0     H 4448   8.926   2.073  10.080  1.3646  1.3282  0.2057
   34MOL0     H 4449   8.839   2.093   9.939  2.0558 -0.3468 -0.8663
   34MOL0     H 4450   8.677   2.056  10.129  0.8523  0.3356  0.6951
   34MOL0     H 4451   8.471   2.091  10.250 -1.9366  0.5288 -2.5909
   34MOL0     H 4452   8.197   2.621  10.471 -1.9503 -2.2226 -2.9916
   34MOL0     H 4453   8.048   2.646  10.655  2.1756 -0.3078  1.3095
   34MOL0     H 4454   7.831   2.317  10.880 -0.8774 -2.1019 -1.1256
   34MOL0     H 4455   7.842   2.355  10.703 -0.1647  0.9388  0.0034
   34MOL0     H 4456   7.616   2.424  10.786 -0.0652 -2.3755  2.5573
   34MOL0     H 4457   7.732   2.562  10.748 -1.3523  0.7185  0.8888
   34MOL0     H 4458   7.764   2.564  11.019  1.2646 -0.6489 -1.2543
   34MOL0     H 4459   7.636   2.455  11.013  0.4511  0.2554  1.7307
   34MOL0     H 4460   7.606   2.748  10.880  0.0244 -0.0163  0.4055
   34MOL0     H 4461   7.490   2.623  10.870 -1.8696 -1.1076  2.4696
   34MOL0     H 4462   7.446   2.795  11.055 -0.4511  0.6935  2.5478
   34MOL0     H 4463   7.603   2.749  11.127  2.8247  0.1895 -2.0288
   34MOL0     H 4464   7.508   2.514  11.164 -0.9035 -1.0860 -2.2125
   34MOL0     H 4465   7.356   2.565  11.082  0.1912  1.5278 -0.3832
   34MOL0     H 4466   7.484   2.662  11.335 -1.0021  2.5202 -0.7105
   34MOL0     H 4467   7.334   2.740  11.269  0.4812  0.7439 -1.2241
   34MOL0     H 4468   7.205   2.549  11.316 -1.4440  0.5089  1.6036
   34MOL0     H 4469   7.301   2.577  11.463 -1.6128 -1.2491 -0.7731
   34MOL0     H 4470   8.097   2.248  10.785  0.1615 -1.9247 -0.9395
   34MOL0     H 4471   8.275   2.214  10.620  0.2950 -0.2353  5.1886
   34MOL0     H 4472   8.540   2.503  10.276  0.6585 -0.5052  2.3075
   34MOL0     H 4473   8.755   2.478  10.161  0.4291  0.2079  3.9643
   34MOL0     H 4474  10.779   2.427   9.740 -0.8547 -0.0954  2.6251
   34MOL0     H 4475  10.999   2.553   9.786 -0.8087 -1.4642 -2.0678
   34MOL0     H 4476  11.229   2.930   9.949 -0.1867 -0.2534  1.3880
   34MOL0     H 4477  11.443   3.032  10.076  0.1366 -0.6391  0.7606
   34MOL0     H 4478  11.491   3.202  10.263  1.0472  2.4322  5.3173
   34MOL0     H 4479  11.603   3.083  10.205  0.7341  1.5998 -1.1473
   34MOL0     H 4480  11.594   3.177  10.501 -0.9193  1.9869 -1.2779
   34MOL0     H 4481  11.707   3.070  10.422  2.8368  1.9895 -0.7188
   34MOL0     H 4482  11.694   3.375  10.396 -2.2517 -0.7887  0.3506
   34MOL0     H 4483  11.771   3.276  10.267 -1.8282 -1.2976 -0.4719
   34MOL0     H 4484  11.902   3.167  10.448 -0.2521 -0.4974  2.5128
   34MOL0     H 4485  11.941   3.344  10.423 -1.0483  1.2446  0.2699
   34MOL0     H 4486  11.735   3.321  10.803 -0.7066  1.8506 -0.0908
   34MOL0     H 4487  11.291   2.827  10.434 -1.1081 -1.7402 -0.3123
   34MOL0     H 4488  11.107   2.740  10.302  0.4397  1.1406  0.6396
   35MOL0     O 4489   0.763   6.627   0.781  0.0340 -0.1320 -0.2881
   35MOL0     C 4490   0.793   6.628   0.660 -0.6558  0.3742 -0.1601
   35MOL0     O 4491   0.711   6.609   0.556 -0.4690  0.3449 -0.5378
   35MOL0     C 4492   0.583   6.568   0.578 -0.8389  0.0845  0.5063
   35MOL0     C 4493   0.493   6.651   0.642  1.0630  0.3631  0.2545
   35MOL0     C 4494   0.360   6.602   0.672  0.2090 -0.2070 -0.3043
   35MOL0     C 4495   0.323   6.472   0.632 -0.3546 -0.2259 -0.0789
   35MOL0     O 4496   0.194   6.419   0.662 -0.0935  0.2960 -0.7696
   35MOL0     C 4497   0.085   6.487   0.608  0.4104 -0.1440 -1.2370
   35MOL0     C 4498  -0.052   6.414   0.634  0.7960 -0.5579  0.4760
   35MOL0     C 4499  -0.171   6.450   0.545 -0.2474  0.8092 -0.1002
   35MOL0     C 4500  -0.282   6.342   0.562  0.0337 -0.6350  0.1461
   35MOL0     C 4501  -0.414   6.372   0.475  0.3320  0.1152  0.1371
   35MOL0     C 4502  -0.513   6.250   0.473  0.5470 -0.0614 -0.4638
   35MOL0     C 4503  -0.643   6.274   0.387 -0.1505 -0.1934 -0.0914
   35MOL0     C 4504  -0.727   6.147   0.381 -0.1749  0.0992 -0.1009
   35MOL0     N 4505  -0.834   6.146   0.286  0.2496 -0.6380  0.4248
   35MOL0     C 4506  -0.931   6.237   0.277  0.0166 -0.3852 -0.6592
   35MOL0     C 4507  -1.017   6.186   0.182  0.1773  0.3070 -0.5309
   35MOL0     C 4508  -1.139   6.255   0.136 -0.3669 -0.1222  0.2785
   35MOL0     C 4509  -1.264   6.177   0.200 -0.6148 -0.9247  0.5149
   35MOL0     C 4510  -1.322   6.256   0.322  0.4029 -0.1018  0.3139
   35MOL0     C 4511  -1.476   6.231   0.347 -1.3575  0.3054  0.3452
   35MOL0     O 4512  -1.538   6.303   0.237 -0.9575 -0.8839 -0.1505
   35MOL0     C 4513  -1.676   6.317   0.241  0.5029  0.7432  0.6470
   35MOL0     C 4514  -1.744   6.342   0.121 -0.5495 -0.7607 -0.2055
   35MOL0     C 4515  -1.881   6.351   0.109 -0.0774 -0.3100 -0.3112
   35MOL0     C 4516  -1.950   6.328   0.231  0.0305  0.3758  0.9590
   35MOL0     C 4517  -2.099   6.329   0.222 -1.3078 -1.0806  0.9526
   35MOL0     O 4518  -2.160   6.346   0.100 -0.1563  0.3501  0.7734
   35MOL0     C 4519  -2.296   6.326   0.086 -0.5476 -0.3335 -0.8055
   35MOL0     C 4520  -2.390   6.424   0.126  0.7988  0.0073  0.3921
   35MOL0     C 4521  -2.526   6.402   0.083  1.1324  0.0186  0.2204
   35MOL0     C 4522  -2.563   6.285   0.012  0.0742  0.1221  0.4782
   35MOL0     O 4523  -2.695   6.268  -0.029  0.0371  0.5077 -0.2020
   35MOL0     C 4524  -2.731   6.121  -0.038 -0.2321 -0.7137 -0.1543
   35MOL0     C 4525  -2.884   6.111  -0.031  0.0099 -0.4007  0.5729
   35MOL0     C 4526  -2.944   6.127   0.113  0.2495  0.7225 -0.5482
   35MOL0     C 4527  -3.098   6.088   0.104 -0.1956  0.0706  0.5182
   35MOL0     C 4528  -3.164   6.094   0.240  0.4995  0.2162 -0.6354
   35MOL0     C 4529  -3.311   6.037   0.256  0.4122  0.7188  0.1206
   35MOL0     C 4530  -3.340   5.900   0.192 -0.5517  0.0522 -0.6021
   35MOL0     C 4531  -3.470   5.839   0.239  0.2621  0.1686  0.3425
   35MOL0    Cl 4532  -3.524   5.706   0.120 -0.4037 -0.1311 -0.1437
   35MOL0     C 4533  -2.462   6.194  -0.018 -0.0520  0.3110  0.6215
   35MOL0     C 4534  -2.332   6.213   0.020  0.7498  0.7535 -0.4994
   35MOL0     O 4535  -2.152   6.293   0.330  1.2434 -0.2638 -0.2736
   35MOL0     C 4536  -1.888   6.301   0.351 -0.0222  0.0109  0.1375
   35MOL0     C 4537  -1.751   6.298   0.358 -0.4728  0.7207  0.2712
   35MOL0     N 4538  -0.973   6.064   0.146 -0.2528 -0.6319  0.4909
   35MOL0     N 4539  -0.858   6.044   0.205 -0.6190  0.1853 -0.6643
   35MOL0     C 4540   0.419   6.392   0.565  0.2660  0.3697 -0.4858
   35MOL0     C 4541   0.546   6.444   0.540  1.1799 -0.4375 -0.2997
   35MOL0     C 4542   0.925   6.677   0.632  0.3607 -0.0921 -0.2206
   35MOL0     C 4543   0.983   6.778   0.705 -0.4609 -0.2497  0.6648
   35MOL0     C 4544   1.115   6.817   0.680  0.0814 -1.0774  0.7105
   35MOL0     C 4545   1.193   6.754   0.581  1.0594  0.8570 -0.2166
   35MOL0     O 4546   1.327   6.777   0.569 -0.2397 -0.7633 -0.6069
   35MOL0     C 4547   1.371   6.795   0.431  0.3347  1.1855 -0.4984
   35MOL0     C 4548   1.454   6.671   0.379  0.4490  0.0410 -0.8811
   35MOL0     C 4549   1.610   6.672   0.406 -0.4979  0.2843  0.0372
   35MOL0     C 4550   1.679   6.537   0.365  0.3537 -0.2867 -0.4822
   35MOL0     C 4551   1.690   6.525   0.218 -1.1686 -0.0962 -0.6194
   35MOL0     C 4552   1.730   6.535   0.102 -1.1833 -0.2679  0.0222
   35MOL0     C 4553   1.133   6.655   0.500  0.2699  0.6856 -0.1489
   35MOL0     C 4554   0.997   6.619   0.523 -0.1206 -0.0093  0.0098
   35MOL0     H 4555   0.534   6.748   0.671  1.7871  0.3202 -0.5807
   35MOL0     H 4556   0.292   6.653   0.739  0.1938 -3.1424  2.1614
   35MOL0     H 4557   0.103   6.519   0.505 -1.8395  1.6798 -1.1520
   35MOL0     H 4558   0.086   6.573   0.677  1.5679 -0.8591 -0.3235
   35MOL0     H 4559  -0.079   6.442   0.736  0.9273  0.8609  0.1458
   35MOL0     H 4560  -0.030   6.307   0.638  2.2997 -0.2491  1.5519
   35MOL0     H 4561  -0.137   6.452   0.441  2.4141  1.7492  0.7214
   35MOL0     H 4562  -0.214   6.546   0.576 -1.1467 -0.0442  1.4003
   35MOL0     H 4563  -0.244   6.242   0.542 -0.5605 -0.7873 -0.2671
   35MOL0     H 4564  -0.318   6.342   0.665 -2.7247  2.9553 -0.5863
   35MOL0     H 4565  -0.383   6.391   0.372 -0.6689 -0.5318 -0.2984
   35MOL0     H 4566  -0.459   6.463   0.513  0.9634 -0.8484  3.5314
   35MOL0     H 4567  -0.541   6.216   0.574 -1.0903  4.6672  0.9434
   35MOL0     H 4568  -0.449   6.177   0.422 -1.1787 -4.3648  2.8684
   35MOL0     H 4569  -0.686   6.353   0.450  1.8134  2.0449 -1.3563
   35MOL0     H 4570  -0.623   6.323   0.291 -1.6285  0.1624 -0.2369
   35MOL0     H 4571  -0.752   6.127   0.486  4.5270 -0.0445  1.2684
   35MOL0     H 4572  -0.667   6.056   0.368 -1.4770 -0.7106 -0.6107
   35MOL0     H 4573  -0.943   6.332   0.328 -1.4794 -0.2790 -1.1545
   35MOL0     H 4574  -1.132   6.245   0.027 -0.1308 -0.8295  0.3568
   35MOL0     H 4575  -1.133   6.362   0.159 -3.0353  0.8943 -2.8677
   35MOL0     H 4576  -1.234   6.074   0.222 -2.2266 -1.2776  1.2618
   35MOL0     H 4577  -1.343   6.166   0.125 -0.4742 -4.0889  0.6859
   35MOL0     H 4578  -1.260   6.234   0.409  0.4205 -1.0705  0.0668
   35MOL0     H 4579  -1.314   6.364   0.303 -1.4338 -0.5668 -4.4884
   35MOL0     H 4580  -1.495   6.278   0.444 -1.0509 -1.9040  1.5575
   35MOL0     H 4581  -1.511   6.128   0.357  0.0745 -0.7576 -3.5071
   35MOL0     H 4582  -1.686   6.355   0.030 -1.2972 -2.5323 -1.0031
   35MOL0     H 4583  -1.926   6.372   0.013  0.1679  0.2879 -0.3043
   35MOL0     H 4584  -2.349   6.517   0.163  1.8917 -0.3408  0.0981
   35MOL0     H 4585  -2.593   6.487   0.086  0.5549 -0.3887 -0.7308
   35MOL0     H 4586  -2.690   6.051   0.035 -1.8152 -3.1936 -1.4977
   35MOL0     H 4587  -2.707   6.081  -0.137 -0.3799 -2.7405  0.5865
   35MOL0     H 4588  -2.902   6.014  -0.078  0.7146  0.3216 -1.2774
   35MOL0     H 4589  -2.928   6.179  -0.104 -1.4199 -0.8439  0.9987
   35MOL0     H 4590  -2.943   6.232   0.144  0.6691  0.5414  0.0720
   35MOL0     H 4591  -2.897   6.058   0.184 -0.9604 -2.5851 -2.7247
   35MOL0     H 4592  -3.152   6.149   0.032  1.0999  1.0037  0.2955
   35MOL0     H 4593  -3.105   5.984   0.070  4.2934 -0.0435 -0.7265
   35MOL0     H 4594  -3.168   6.200   0.268  1.7319  0.0588  0.2453
   35MOL0     H 4595  -3.097   6.037   0.305  0.1376 -0.3177 -0.7303
   35MOL0     H 4596  -3.368   6.114   0.203  2.0331  1.3028 -0.8554
   35MOL0     H 4597  -3.335   6.032   0.363  1.7504 -2.9997  0.4083
   35MOL0     H 4598  -3.340   5.904   0.083  2.4268 -1.1903 -0.7131
   35MOL0     H 4599  -3.258   5.830   0.207 -0.9487 -0.4034 -0.5237
   35MOL0     H 4600  -3.551   5.912   0.240  2.2555  2.5529  2.5335
   35MOL0     H 4601  -3.457   5.802   0.341  0.8705 -0.4762  0.0441
   35MOL0     H 4602  -2.482   6.107  -0.080 -0.7562  0.9372 -0.0628
   35MOL0     H 4603  -2.261   6.133  -0.003  1.3247  0.6716  1.3457
   35MOL0     H 4604  -1.949   6.298   0.441  0.6441  0.3176  0.6033
   35MOL0     H 4605  -1.700   6.275   0.451 -0.0894  1.0604  0.1463
   35MOL0     H 4606   0.401   6.296   0.518 -1.6547 -1.2521  3.1495
   35MOL0     H 4607   0.615   6.384   0.481  2.3054  1.6127 -1.1845
   35MOL0     H 4608   0.932   6.815   0.793 -0.8429 -0.4757  0.5420
   35MOL0     H 4609   1.145   6.890   0.753  0.2778 -2.0508  1.6294
   35MOL0     H 4610   1.420   6.892   0.422 -1.4588  2.3466  1.4983
   35MOL0     H 4611   1.280   6.793   0.371 -1.6948  0.4345  2.4187
   35MOL0     H 4612   1.406   6.577   0.410 -0.1145  1.5546  3.5291
   35MOL0     H 4613   1.442   6.676   0.270 -1.8081 -0.6071 -0.7230
   35MOL0     H 4614   1.617   6.683   0.515  0.6911  1.5155 -0.1339
   35MOL0     H 4615   1.663   6.753   0.355  1.3803 -0.1468  1.1942
   35MOL0     H 4616   1.782   6.539   0.399  0.6268  2.7663 -1.2689
   35MOL0     H 4617   1.626   6.457   0.417 -0.2845  1.0529  1.0016
   35MOL0     H 4618   1.757   6.539  -0.001 -0.7857  0.9055  0.1628
   35MOL0     H 4619   1.186   6.611   0.416 -0.2374  0.3504 -0.2989
   35MOL0     H 4620   0.958   6.543   0.456  1.5173 -0.5423 -0.3851
   36MOL0     O 4621   5.593   0.787   4.107 -0.6406 -0.0064 -0.7736
   36MOL0     C 4622   5.603   0.734   3.995  0.0001 -1.6407  0.4329
   36MOL0     O 4623   5.592   0.801   3.872  0.9136  0.1116 -0.5990
   36MOL0     C 4624   5.620   0.931   3.862 -0.0979  1.9019  0.0192
   36MOL0     C 4625   5.715   0.994   3.951 -0.5024 -0.3569  0.5418
   36MOL0     C 4626   5.719   1.133   3.944  0.9885 -0.0523 -0.7747
   36MOL0     C 4627   5.672   1.203   3.832 -0.3654 -0.5764 -0.0085
   36MOL0     O 4628   5.688   1.331   3.801 -0.2080 -0.8521 -1.0391
   36MOL0     C 4629   5.766   1.415   3.898 -0.4239 -0.6217 -0.3836
   36MOL0     C 4630   5.771   1.564   3.866  0.4305 -0.4355  0.3971
   36MOL0     C 4631   5.624   1.598   3.834  0.0086 -1.2857 -0.3663
   36MOL0     C 4632   5.628   1.729   3.774  0.5398 -1.7489  0.5008
   36MOL0     C 4633   5.490   1.773   3.737 -0.9442  0.6257  1.2463
   36MOL0     C 4634   5.488   1.907   3.656 -0.2514  0.3425  0.4006
   36MOL0     C 4635   5.348   1.947   3.617  0.5109  0.7634 -0.2812
   36MOL0     C 4636   5.359   2.071   3.530  0.1762 -0.8716  0.2857
   36MOL0     N 4637   5.232   2.096   3.466 -0.2559 -0.4736  0.5837
   36MOL0     C 4638   5.122   2.148   3.539 -0.1074  0.0958 -0.3412
   36MOL0     C 4639   5.025   2.153   3.442 -0.4806 -0.6530 -0.3557
   36MOL0     C 4640   4.882   2.205   3.458  0.1726  0.1913 -0.3150
   36MOL0     C 4641   4.770   2.116   3.401 -0.9548 -0.2336 -0.8333
   36MOL0     C 4642   4.633   2.179   3.405  0.2852 -0.6378  0.0443
   36MOL0     C 4643   4.537   2.099   3.310 -0.0176  0.5230  0.3002
   36MOL0     O 4644   4.578   2.142   3.174  1.2977 -0.0336 -0.2341
   36MOL0     C 4645   4.520   2.079   3.067 -0.8238 -0.7413 -0.9763
   36MOL0     C 4646   4.407   1.988   3.079  0.1979 -0.3418  0.8570
   36MOL0     C 4647   4.340   1.937   2.958  0.2809 -0.9214  0.2532
   36MOL0     C 4648   4.409   1.953   2.836  0.4943 -0.1565 -0.1231
   36MOL0     C 4649   4.367   1.876   2.714 -0.2451  0.0973 -0.0431
   36MOL0     O 4650   4.437   1.897   2.599  0.4126  0.8300  0.1649
   36MOL0     C 4651   4.378   1.856   2.478  0.4471 -0.4353  0.0161
   36MOL0     C 4652   4.346   1.952   2.385  0.7010  1.0109  0.3920
   36MOL0     C 4653   4.288   1.907   2.261 -0.5186  0.4508  0.4474
   36MOL0     C 4654   4.270   1.771   2.237  0.7178  0.5740 -0.3009
   36MOL0     O 4655   4.232   1.741   2.113 -0.4202  0.5307  0.4415
   36MOL0     C 4656   4.220   1.601   2.064 -0.6038 -0.3783 -0.2117
   36MOL0     C 4657   4.155   1.606   1.923 -0.1501 -0.7360  0.0289
   36MOL0     C 4658   4.253   1.651   1.805  0.2354 -1.2586  1.0823
   36MOL0     C 4659   4.203   1.632   1.658  0.8230 -0.9423 -0.1210
   36MOL0     C 4660   4.193   1.491   1.626 -0.6237 -0.2810 -0.0261
   36MOL0     C 4661   4.132   1.458   1.483 -0.4266  0.0951 -0.3871
   36MOL0     C 4662   4.044   1.328   1.465 -0.3460  0.6803 -0.2139
   36MOL0     C 4663   4.122   1.194   1.484 -0.8491 -0.5285  0.2136
   36MOL0    Cl 4664   4.297   1.188   1.433 -0.2136 -0.2273  0.0822
   36MOL0     C 4665   4.294   1.676   2.336 -0.4897  0.6746 -1.1200
   36MOL0     C 4666   4.350   1.718   2.452 -0.0058 -0.3495  1.1087
   36MOL0     O 4667   4.276   1.795   2.727 -0.4240 -0.6182 -0.0903
   36MOL0     C 4668   4.529   2.029   2.833  0.1908  0.2454 -0.3142
   36MOL0     C 4669   4.572   2.106   2.941 -0.0539  0.9447  0.0698
   36MOL0     N 4670   5.069   2.106   3.321 -0.1892 -0.0307  0.1490
   36MOL0     N 4671   5.191   2.069   3.336  0.9926  1.4002 -0.0954
   36MOL0     C 4672   5.603   1.136   3.731  0.4223 -0.2060 -0.3622
   36MOL0     C 4673   5.567   1.002   3.747  0.2189 -0.1020 -0.7036
   36MOL0     C 4674   5.616   0.590   4.004  0.1372  0.0075 -0.2370
   36MOL0     C 4675   5.624   0.514   3.890  0.3329  0.5082 -0.4464
   36MOL0     C 4676   5.649   0.377   3.903  0.2378 -0.2696  0.3688
   36MOL0     C 4677   5.673   0.311   4.029 -0.7335 -0.0987 -0.0364
   36MOL0     O 4678   5.690   0.176   4.033 -0.2669 -0.2256 -0.3940
   36MOL0     C 4679   5.576   0.085   4.036 -0.0285 -0.7128 -0.1075
   36MOL0     C 4680   5.619  -0.052   4.064 -0.3634  0.1693 -0.3177
   36MOL0     C 4681   5.700  -0.052   4.195  0.5051  0.9414 -0.2442
   36MOL0     C 4682   5.705  -0.196   4.253  0.6056  0.0994 -0.0113
   36MOL0     C 4683   5.570  -0.241   4.289 -1.1877  0.8066 -0.5092
   36MOL0     C 4684   5.463  -0.274   4.324  0.0907  0.3095 -0.0223
   36MOL0     C 4685   5.662   0.393   4.140 -0.1825  0.0502  1.3274
   36MOL0     C 4686   5.632   0.526   4.130  0.7759  0.4309  0.2062
   36MOL0     H 4687   5.758   0.954   4.042  0.2189  1.5068  1.0649
   36MOL0     H 4688   5.769   1.191   4.021  0.2018  1.1967 -1.1820
   36MOL0     H 4689   5.866   1.371   3.905  0.9550  2.4236  0.8278
   36MOL0     H 4690   5.709   1.402   3.990 -0.5522 -1.1275 -0.5292
   36MOL0     H 4691   5.832   1.582   3.777  1.5190  1.2578  1.4474
   36MOL0     H 4692   5.812   1.631   3.941  0.9763 -0.2151 -0.0875
   36MOL0     H 4693   5.564   1.597   3.925  0.1916 -0.6201 -0.2336
   36MOL0     H 4694   5.595   1.521   3.761  2.0612 -1.7681 -0.7433
   36MOL0     H 4695   5.682   1.796   3.842  0.6073  0.2755 -1.4426
   36MOL0     H 4696   5.682   1.731   3.679 -0.6303 -1.0303 -0.1590
   36MOL0     H 4697   5.431   1.791   3.827  1.4382 -1.5378  3.4063
   36MOL0     H 4698   5.445   1.690   3.682  1.0515 -0.3921  1.0689
   36MOL0     H 4699   5.553   1.897   3.569 -1.1967  2.6325 -0.6729
   36MOL0     H 4700   5.534   1.983   3.720 -1.6329  0.7162  0.9911
   36MOL0     H 4701   5.309   1.862   3.561 -1.2591  1.2594  0.1399
   36MOL0     H 4702   5.279   1.955   3.702 -0.1876 -1.3755 -0.6029
   36MOL0     H 4703   5.436   2.058   3.453  0.6160 -1.7976  0.8546
   36MOL0     H 4704   5.373   2.162   3.589 -2.2920 -0.3296  0.1387
   36MOL0     H 4705   5.108   2.182   3.642 -1.3724 -1.1347 -0.0804
   36MOL0     H 4706   4.875   2.303   3.409 -0.2377  0.0466 -0.5499
   36MOL0     H 4707   4.851   2.211   3.563 -0.2800  0.8561 -0.4786
   36MOL0     H 4708   4.773   2.022   3.459 -0.4508  1.1592  1.5418
   36MOL0     H 4709   4.807   2.081   3.305 -0.8387  0.7645 -1.1597
   36MOL0     H 4710   4.590   2.159   3.504  0.4791 -0.8252  0.0914
   36MOL0     H 4711   4.637   2.287   3.388 -0.1040 -0.9442 -2.2197
   36MOL0     H 4712   4.436   2.135   3.330  1.1204  4.6685 -0.5676
   36MOL0     H 4713   4.549   1.990   3.318 -1.7083  0.2852  0.0641
   36MOL0     H 4714   4.358   1.963   3.173 -1.4555  1.4826  0.5170
   36MOL0     H 4715   4.250   1.877   2.970 -1.7693  2.2638  2.4721
   36MOL0     H 4716   4.363   2.059   2.396  0.4538  1.2300 -1.1214
   36MOL0     H 4717   4.276   1.980   2.181  0.7446 -0.2331 -0.3973
   36MOL0     H 4718   4.168   1.524   2.121 -1.7732 -2.5128 -3.9109
   36MOL0     H 4719   4.317   1.553   2.050 -1.3032 -1.0649 -3.3408
   36MOL0     H 4720   4.077   1.683   1.915 -2.1298 -2.8355 -5.4316
   36MOL0     H 4721   4.100   1.513   1.907 -2.6101  0.3037  1.7271
   36MOL0     H 4722   4.346   1.600   1.834  3.0483  1.9616 -1.4523
   36MOL0     H 4723   4.269   1.758   1.826 -1.1757 -1.0740  1.3213
   36MOL0     H 4724   4.105   1.681   1.656  1.0751 -0.3287  1.3803
   36MOL0     H 4725   4.268   1.675   1.581  0.2159  0.7936  0.2952
   36MOL0     H 4726   4.120   1.452   1.698 -0.6012  0.3566  0.3440
   36MOL0     H 4727   4.292   1.446   1.637 -0.1750 -0.6235 -3.9439
   36MOL0     H 4728   4.223   1.453   1.423 -0.0258  0.5241  0.1815
   36MOL0     H 4729   4.077   1.546   1.449 -1.1049  0.4889  1.5838
   36MOL0     H 4730   3.972   1.339   1.547  0.6949 -1.9082  1.1763
   36MOL0     H 4731   4.003   1.335   1.364  2.6138  0.8150 -1.5180
   36MOL0     H 4732   4.072   1.116   1.424  2.1218 -2.2618 -0.2084
   36MOL0     H 4733   4.113   1.176   1.591  0.0121 -1.3531  0.1622
   36MOL0     H 4734   4.309   1.570   2.318  2.2383  1.0080 -1.2802
   36MOL0     H 4735   4.386   1.633   2.508  0.2251 -0.7548  0.3574
   36MOL0     H 4736   4.585   2.040   2.741 -0.0467  1.9177 -0.3028
   36MOL0     H 4737   4.654   2.176   2.936  0.1569  0.6810 -0.2304
   36MOL0     H 4738   5.564   1.182   3.641  0.7694 -3.2147 -2.1825
   36MOL0     H 4739   5.499   0.953   3.678  1.9325 -0.2004 -2.4043
   36MOL0     H 4740   5.601   0.543   3.788  0.6266  0.8181 -0.4248
   36MOL0     H 4741   5.647   0.316   3.813  0.0935  2.6955 -1.8059
   36MOL0     H 4742   5.506   0.091   3.953  0.1529  0.7173 -0.1748
   36MOL0     H 4743   5.521   0.115   4.126  1.1129 -1.4003  0.8443
   36MOL0     H 4744   5.535  -0.123   4.062 -0.4768  0.3098 -1.6275
   36MOL0     H 4745   5.684  -0.084   3.982  0.6378  2.3288 -0.4391
   36MOL0     H 4746   5.663   0.023   4.266  2.4243  2.1785 -0.4616
   36MOL0     H 4747   5.803  -0.016   4.181  1.5956 -1.8585 -0.1858
   36MOL0     H 4748   5.743  -0.257   4.170 -0.2009  0.0196 -0.3260
   36MOL0     H 4749   5.768  -0.200   4.343  2.0993 -0.7447 -1.0491
   36MOL0     H 4750   5.366  -0.299   4.363  0.9751  2.3547  3.9992
   36MOL0     H 4751   5.675   0.348   4.237 -0.9077  0.3409  1.5688
   36MOL0     H 4752   5.607   0.568   4.227  1.4186  2.2742 -0.3775
   37MOL0     O 4753   4.197   6.355   5.137  0.1647 -1.0546 -0.1861
   37MOL0     C 4754   4.165   6.236   5.152 -0.5779  0.3515  0.3149
   37MOL0     O 4755   4.091   6.158   5.073  0.8036  0.5877  0.1457
   37MOL0     C 4756   4.033   6.219   4.966 -0.2054  0.3901 -0.5112
   37MOL0     C 4757   3.905   6.288   4.964 -0.3095 -0.0649 -0.3767
   37MOL0     C 4758   3.840   6.322   4.843  0.4113 -0.3937  0.1021
   37MOL0     C 4759   3.916   6.300   4.722 -0.0279 -0.5391 -0.3376
   37MOL0     O 4760   3.850   6.322   4.610  0.5635  0.1552 -0.0048
   37MOL0     C 4761   3.755   6.221   4.582 -0.0422  0.0942 -0.3037
   37MOL0     C 4762   3.639   6.288   4.504  0.5837 -0.0626 -0.0493
   37MOL0     C 4763   3.526   6.197   4.484 -0.2213 -0.0698  0.8584
   37MOL0     C 4764   3.425   6.227   4.360 -0.1449 -0.6388 -0.1297
   37MOL0     C 4765   3.300   6.132   4.341 -0.4488 -0.8952 -0.5145
   37MOL0     C 4766   3.192   6.174   4.430 -0.3224  0.4335  0.3443
   37MOL0     C 4767   3.093   6.063   4.467  0.1263  1.0360  0.4382
   37MOL0     C 4768   2.983   6.022   4.373  0.2803 -0.0668  0.8418
   37MOL0     N 4769   2.898   5.919   4.436  0.0416  0.5230 -0.7900
   37MOL0     C 4770   2.918   5.783   4.438 -0.4997  0.5433 -0.2423
   37MOL0     C 4771   2.799   5.739   4.478 -0.6207  0.5336 -0.4304
   37MOL0     C 4772   2.780   5.591   4.522 -0.1458  0.5795 -0.8799
   37MOL0     C 4773   2.770   5.492   4.410  0.1142  0.1022  0.3161
   37MOL0     C 4774   2.646   5.520   4.321  0.9420 -0.2124  1.2108
   37MOL0     C 4775   2.609   5.399   4.244 -0.5874  0.0718  0.6714
   37MOL0     O 4776   2.713   5.394   4.139 -0.0263  0.0769  0.5786
   37MOL0     C 4777   2.704   5.294   4.042 -0.6876  0.9453  0.2542
   37MOL0     C 4778   2.817   5.281   3.961 -0.0850  0.0400  0.2163
   37MOL0     C 4779   2.836   5.169   3.881  0.0626  0.4916  0.4728
   37MOL0     C 4780   2.736   5.068   3.866  1.0126  1.0802 -1.3729
   37MOL0     C 4781   2.755   4.957   3.760 -0.1820 -0.9967 -0.5338
   37MOL0     O 4782   2.648   4.894   3.718  0.1008  0.4550 -0.2707
   37MOL0     C 4783   2.668   4.803   3.617 -0.4478  0.6767 -1.1711
   37MOL0     C 4784   2.631   4.827   3.486 -0.9837  0.0559  0.4890
   37MOL0     C 4785   2.658   4.731   3.393  0.4264 -0.5065  0.4578
   37MOL0     C 4786   2.716   4.614   3.419 -0.8607  0.5738 -1.4799
   37MOL0     O 4787   2.754   4.512   3.330 -0.5006 -0.1150  0.0593
   37MOL0     C 4788   2.737   4.544   3.187 -0.3378 -0.2659 -0.4259
   37MOL0     C 4789   2.797   4.425   3.105  0.0197 -0.1169 -1.5471
   37MOL0     C 4790   2.955   4.419   3.130 -0.3585 -1.3099  0.7235
   37MOL0     C 4791   3.031   4.524   3.043 -0.1499 -0.3977 -0.5523
   37MOL0     C 4792   3.043   4.492   2.894  0.1635  0.1801  0.2822
   37MOL0     C 4793   3.152   4.378   2.874  0.0662  0.0518 -0.1788
   37MOL0     C 4794   3.225   4.368   2.741 -0.1259 -1.3943  0.4966
   37MOL0     C 4795   3.280   4.233   2.712  0.1462  0.2756  0.0059
   37MOL0    Cl 4796   3.305   4.204   2.537  0.2591 -0.1722  0.0425
   37MOL0     C 4797   2.734   4.575   3.556  0.2535  1.0728  0.2169
   37MOL0     C 4798   2.716   4.676   3.651  0.0866 -0.3273 -0.3108
   37MOL0     O 4799   2.871   4.945   3.718 -0.9323  0.4258  0.5712
   37MOL0     C 4800   2.620   5.081   3.941 -0.5222 -0.4007 -0.2077
   37MOL0     C 4801   2.603   5.198   4.028 -0.6290  0.3317 -0.6344
   37MOL0     N 4802   2.711   5.846   4.497  0.3814  0.2167  0.6123
   37MOL0     N 4803   2.772   5.953   4.465  0.2481  0.2936  0.2476
   37MOL0     C 4804   4.045   6.249   4.716 -0.2427 -0.0130  0.9204
   37MOL0     C 4805   4.105   6.208   4.839  0.1732  0.3412 -0.3662
   37MOL0     C 4806   4.208   6.168   5.272 -0.5128  0.5044 -0.1018
   37MOL0     C 4807   4.216   6.240   5.397  0.3266 -0.6513  0.6989
   37MOL0     C 4808   4.254   6.175   5.512  0.3791  0.1235  0.3536
   37MOL0     C 4809   4.284   6.035   5.518  0.3954 -0.2777  0.8437
   37MOL0     O 4810   4.305   5.956   5.636 -0.3986 -0.7670  1.1890
   37MOL0     C 4811   4.348   6.035   5.745  0.3201 -0.1368 -0.4958
   37MOL0     C 4812   4.373   5.949   5.875  0.0257  0.0153  0.1827
   37MOL0     C 4813   4.491   5.845   5.859  0.2016 -0.0027  0.4464
   37MOL0     C 4814   4.627   5.910   5.885 -0.6505  0.0063 -0.9346
   37MOL0     C 4815   4.739   5.820   5.853 -0.8383  0.1896 -0.0131
   37MOL0     C 4816   4.826   5.741   5.825 -0.3629 -0.6872  1.2964
   37MOL0     C 4817   4.269   5.962   5.400 -0.4392 -0.1055  0.3224
   37MOL0     C 4818   4.235   6.027   5.276  0.9477  0.4094 -1.5697
   37MOL0     H 4819   3.864   6.304   5.064  0.9080  0.4471  0.0635
   37MOL0     H 4820   3.746   6.374   4.830  1.2184  1.3030  0.8209
   37MOL0     H 4821   3.714   6.175   4.672  1.8448 -0.2642  0.4049
   37MOL0     H 4822   3.799   6.141   4.522  2.5009  1.6421 -0.6501
   37MOL0     H 4823   3.685   6.324   4.412  3.2881 -0.2625  1.1088
   37MOL0     H 4824   3.596   6.371   4.560  1.2130 -0.4242  1.0180
   37MOL0     H 4825   3.477   6.180   4.580 -0.2658 -1.4420  0.6224
   37MOL0     H 4826   3.559   6.096   4.455  0.1564  0.5747 -1.1334
   37MOL0     H 4827   3.384   6.328   4.354  2.3609  0.3599 -2.3021
   37MOL0     H 4828   3.488   6.226   4.271 -0.2093 -0.1503 -0.1804
   37MOL0     H 4829   3.339   6.033   4.366  1.1217 -0.2605 -0.3324
   37MOL0     H 4830   3.263   6.127   4.238  2.9139 -1.4635 -1.8572
   37MOL0     H 4831   3.147   6.271   4.406  1.1316  0.9043 -0.6360
   37MOL0     H 4832   3.250   6.199   4.519 -0.6391  3.0140 -0.0897
   37MOL0     H 4833   3.149   5.974   4.496  0.5718  1.7195  1.7424
   37MOL0     H 4834   3.039   6.104   4.553 -1.7269 -0.9264  0.2869
   37MOL0     H 4835   3.022   5.989   4.276  0.8021 -1.5509  1.5276
   37MOL0     H 4836   2.913   6.103   4.351  0.2718 -0.7273 -1.9311
   37MOL0     H 4837   3.003   5.719   4.416 -0.8711 -0.2743  0.6617
   37MOL0     H 4838   2.685   5.587   4.574 -1.0182  1.9932 -2.2667
   37MOL0     H 4839   2.864   5.563   4.586 -1.3125 -4.6585 -1.1782
   37MOL0     H 4840   2.765   5.394   4.459 -0.6858 -0.5082 -0.9153
   37MOL0     H 4841   2.871   5.490   4.367 -0.4131 -1.2098 -0.9559
   37MOL0     H 4842   2.552   5.557   4.365 -0.3944 -0.1833 -1.4797
   37MOL0     H 4843   2.671   5.605   4.257  2.6897  0.2639  2.4411
   37MOL0     H 4844   2.512   5.416   4.197 -0.8777 -0.2571  1.1414
   37MOL0     H 4845   2.603   5.305   4.300 -0.0025 -1.8473 -2.2514
   37MOL0     H 4846   2.870   5.376   3.961 -1.3703  0.7926 -0.7024
   37MOL0     H 4847   2.932   5.161   3.831  1.5043  0.1838  3.1091
   37MOL0     H 4848   2.600   4.922   3.444 -0.2667  0.7085  1.4161
   37MOL0     H 4849   2.641   4.754   3.288 -0.8158  0.0688  0.7602
   37MOL0     H 4850   2.793   4.633   3.155 -1.9226  1.3002  0.9265
   37MOL0     H 4851   2.630   4.547   3.165 -0.3468 -0.3850 -0.3959
   37MOL0     H 4852   2.770   4.433   2.999 -0.8067 -0.2930 -1.3591
   37MOL0     H 4853   2.743   4.336   3.138 -4.7140  1.2578 -4.6363
   37MOL0     H 4854   2.994   4.316   3.129  0.5055 -1.0091  1.5255
   37MOL0     H 4855   2.978   4.456   3.230  2.3525  1.6280 -0.8013
   37MOL0     H 4856   2.975   4.618   3.041 -2.8716 -1.8511 -4.0455
   37MOL0     H 4857   3.131   4.535   3.085 -0.2385  1.8233 -0.8218
   37MOL0     H 4858   3.074   4.573   2.827 -3.9978  0.8662 -1.1140
   37MOL0     H 4859   2.945   4.472   2.851 -0.5287  1.4839  1.1753
   37MOL0     H 4860   3.105   4.281   2.893 -2.0377  1.0757  0.1837
   37MOL0     H 4861   3.218   4.378   2.962 -1.1614  0.2156  0.7813
   37MOL0     H 4862   3.151   4.394   2.664 -2.7790 -0.4455  3.1992
   37MOL0     H 4863   3.300   4.445   2.724 -2.5962  1.1277  0.2564
   37MOL0     H 4864   3.219   4.149   2.747 -2.1001  0.6351 -2.7303
   37MOL0     H 4865   3.377   4.239   2.762 -0.3569  0.8624  0.9236
   37MOL0     H 4866   2.760   4.472   3.574  0.2372  0.8613 -0.8801
   37MOL0     H 4867   2.732   4.662   3.757  1.0400  5.4652  0.6677
   37MOL0     H 4868   2.547   5.002   3.924  1.6824 -2.4217 -0.8346
   37MOL0     H 4869   2.524   5.205   4.101 -1.3811 -2.4403 -1.0532
   37MOL0     H 4870   4.097   6.235   4.622 -2.7231  0.9039 -0.6604
   37MOL0     H 4871   4.203   6.161   4.837 -0.4787 -1.1833  0.9320
   37MOL0     H 4872   4.167   6.338   5.395  0.5676 -0.3132  4.2523
   37MOL0     H 4873   4.259   6.232   5.605  1.1436  1.7401 -0.6176
   37MOL0     H 4874   4.282   6.114   5.782  2.0961  0.5397  1.4156
   37MOL0     H 4875   4.443   6.076   5.710  1.6897  0.1040  3.1035
   37MOL0     H 4876   4.390   6.018   5.957  1.4018 -1.2222  0.9870
   37MOL0     H 4877   4.282   5.890   5.893 -0.8695  0.4996 -2.2968
   37MOL0     H 4878   4.481   5.813   5.755  0.3818  1.4627 -0.0394
   37MOL0     H 4879   4.465   5.769   5.934  1.8633 -1.5786 -0.5103
   37MOL0     H 4880   4.654   6.006   5.839  2.1233 -1.0548 -1.7557
   37MOL0     H 4881   4.632   5.908   5.995  2.1834 -2.6852 -0.9743
   37MOL0     H 4882   4.915   5.686   5.804  0.4432  0.8476  0.5674
   37MOL0     H 4883   4.296   5.857   5.396 -1.8115 -0.4513 -1.8958
   37MOL0     H 4884   4.225   5.966   5.187 -0.9639  1.4189 -2.0874
   38MOL0     O 4885   8.297   8.072  11.328 -0.2345 -0.5344 -0.3763
   38MOL0     C 4886   8.225   8.039  11.420 -0.1217  0.1867 -0.4489
   38MOL0     O 4887   8.255   8.042  11.551  1.0064 -0.5264 -0.0506
   38MOL0     C 4888   8.383   8.059  11.579  0.7133 -1.2164  0.2419
   38MOL0     C 4889   8.404   8.153  11.678  0.0594 -1.0350  0.1357
   38MOL0     C 4890   8.524   8.158  11.737 -0.2251  0.6527 -0.4243
   38MOL0     C 4891   8.631   8.082  11.693 -0.0348 -0.6803  0.7334
   38MOL0     O 4892   8.755   8.078  11.752  0.2681  0.4724  0.1438
   38MOL0     C 4893   8.794   8.152  11.865  0.3094 -1.4722  0.7267
   38MOL0     C 4894   8.917   8.098  11.923 -0.1187  0.7860  0.3656
   38MOL0     C 4895   9.061   8.139  11.876  0.9578  0.4232  0.0111
   38MOL0     C 4896   9.066   8.289  11.894 -1.1767  0.4224 -0.0714
   38MOL0     C 4897   9.206   8.352  11.894 -0.1980  0.0810 -0.2195
   38MOL0     C 4898   9.296   8.308  11.784 -0.6861  0.4286  0.8908
   38MOL0     C 4899   9.241   8.350  11.644  0.1116  0.6520 -0.3314
   38MOL0     C 4900   9.335   8.303  11.529 -0.2576 -0.8737  0.0478
   38MOL0     N 4901   9.371   8.165  11.537 -1.0904  0.0156 -0.6216
   38MOL0     C 4902   9.273   8.065  11.551 -0.1171  0.1224  0.7239
   38MOL0     C 4903   9.347   7.953  11.572  0.5355 -0.1332 -0.0152
   38MOL0     C 4904   9.291   7.823  11.595  0.8458  0.0574  0.1690
   38MOL0     C 4905   9.153   7.821  11.670  0.2957 -0.4403  0.0962
   38MOL0     C 4906   9.122   7.685  11.737 -0.0898 -0.3129 -0.2997
   38MOL0     C 4907   9.098   7.573  11.640 -0.4403 -0.5905 -0.5908
   38MOL0     O 4908   9.028   7.622  11.521 -0.7508 -0.1174 -0.0698
   38MOL0     C 4909   8.892   7.610  11.517 -0.2990  0.8483 -0.7781
   38MOL0     C 4910   8.814   7.553  11.614 -0.6534  0.2163  0.1665
   38MOL0     C 4911   8.682   7.541  11.607 -0.1207  0.2069  0.4692
   38MOL0     C 4912   8.613   7.578  11.492  0.7059 -0.0528  0.3759
   38MOL0     C 4913   8.470   7.549  11.477  0.1195  0.6350 -0.5848
   38MOL0     O 4914   8.414   7.603  11.372  0.4315  0.1121  0.3942
   38MOL0     C 4915   8.295   7.562  11.320 -0.2549 -0.1621 -0.6284
   38MOL0     C 4916   8.283   7.526  11.186 -0.7377 -0.3016 -0.1692
   38MOL0     C 4917   8.165   7.509  11.133  0.4211 -0.1530  0.3341
   38MOL0     C 4918   8.047   7.503  11.209  0.0869  0.1687 -0.3656
   38MOL0     O 4919   7.924   7.475  11.155  0.0713 -0.1677 -0.3103
   38MOL0     C 4920   7.900   7.531  11.022  1.0217 -0.3152 -0.6735
   38MOL0     C 4921   7.746   7.520  10.983 -0.1803  0.3019  0.2345
   38MOL0     C 4922   7.699   7.593  10.854  0.0276  0.2509  0.1390
   38MOL0     C 4923   7.546   7.578  10.836 -0.3302 -0.1107  0.5872
   38MOL0     C 4924   7.506   7.662  10.710 -0.2646  0.9568 -1.3084
   38MOL0     C 4925   7.541   7.600  10.577 -0.1880 -0.1755  0.7372
   38MOL0     C 4926   7.507   7.701  10.467 -0.1348  0.0652  0.3812
   38MOL0     C 4927   7.532   7.642  10.332 -1.1197  0.4321 -0.3586
   38MOL0    Cl 4928   7.705   7.602  10.315 -0.0220 -0.3948  0.4813
   38MOL0     C 4929   8.064   7.521  11.350  0.9088  0.2545  0.8110
   38MOL0     C 4930   8.191   7.548  11.405  0.4119 -0.1224 -0.4665
   38MOL0     O 4931   8.413   7.478  11.560  0.5085 -0.4602 -0.6291
   38MOL0     C 4932   8.694   7.632  11.377  0.5626  0.7228  0.2687
   38MOL0     C 4933   8.829   7.645  11.397 -1.4590 -0.6839 -1.1684
   38MOL0     N 4934   9.483   7.977  11.559 -0.5660 -0.5323  0.3029
   38MOL0     N 4935   9.497   8.110  11.540 -0.3345  0.2285 -0.7975
   38MOL0     C 4936   8.612   7.999  11.587  0.5028 -0.0064  0.1312
   38MOL0     C 4937   8.486   7.975  11.535 -0.2321 -0.7505 -0.0451
   38MOL0     C 4938   8.097   7.977  11.382  1.3695 -0.3562 -0.0621
   38MOL0     C 4939   8.041   7.999  11.249  0.0555 -0.2618  0.3529
   38MOL0     C 4940   7.918   7.946  11.221  0.8790  0.0028  0.8591
   38MOL0     C 4941   7.840   7.877  11.306  1.2354  0.0041 -0.1613
   38MOL0     O 4942   7.711   7.852  11.261  0.4905  0.2975  0.0509
   38MOL0     C 4943   7.640   7.743  11.316 -0.5604 -0.2156  0.6526
   38MOL0     C 4944   7.542   7.785  11.427 -0.3363 -0.3122  0.0501
   38MOL0     C 4945   7.428   7.866  11.371 -0.5669 -0.0758  1.0848
   38MOL0     C 4946   7.309   7.789  11.329 -0.2216  0.9300  0.4509
   38MOL0     C 4947   7.242   7.714  11.437  0.1069 -0.4149  0.0128
   38MOL0     C 4948   7.209   7.652  11.537  0.1846 -0.2895 -0.0061
   38MOL0     C 4949   7.889   7.854  11.429  0.8471  0.3849 -0.9388
   38MOL0     C 4950   8.007   7.910  11.477  0.4747 -0.5961  0.2562
   38MOL0     H 4951   8.331   8.220  11.723 -0.2617 -0.4366 -1.2401
   38MOL0     H 4952   8.547   8.220  11.824 -0.1254  0.3187 -0.2087
   38MOL0     H 4953   8.718   8.162  11.943  2.2145 -2.3981  2.8180
   38MOL0     H 4954   8.817   8.256  11.839 -2.3169 -0.8426  0.6412
   38MOL0     H 4955   8.912   7.991  11.903 -0.8242  0.9698 -0.5057
   38MOL0     H 4956   8.911   8.114  12.031 -1.5051  1.4866  0.2112
   38MOL0     H 4957   9.078   8.114  11.771  0.2861 -1.5428  0.3359
   38MOL0     H 4958   9.136   8.086  11.935 -1.5309 -2.3648  0.9129
   38MOL0     H 4959   9.006   8.327  11.811 -3.7266 -1.6224  0.7035
   38MOL0     H 4960   9.015   8.314  11.988  0.6742 -0.6740  1.2993
   38MOL0     H 4961   9.257   8.350  11.990  0.0294  3.0079 -0.1775
   38MOL0     H 4962   9.197   8.459  11.874  0.2402 -0.0275 -1.0383
   38MOL0     H 4963   9.293   8.198  11.788  0.2068  0.0661 -3.3979
   38MOL0     H 4964   9.395   8.352  11.799  0.9961 -1.4298 -3.0709
   38MOL0     H 4965   9.135   8.331  11.629  0.6624 -1.3459 -2.5022
   38MOL0     H 4966   9.252   8.458  11.654  1.5298  0.4202  1.0332
   38MOL0     H 4967   9.428   8.360  11.539 -1.4041  1.7605 -2.8380
   38MOL0     H 4968   9.267   8.328  11.447 -1.7835 -0.1477  1.4794
   38MOL0     H 4969   9.166   8.078  11.539  0.1314 -0.0865 -2.5019
   38MOL0     H 4970   9.377   7.773  11.642  2.1754  0.8539 -1.3298
   38MOL0     H 4971   9.282   7.769  11.500  3.2450  1.3891 -0.8781
   38MOL0     H 4972   9.075   7.848  11.599  1.9003 -1.8194 -2.3180
   38MOL0     H 4973   9.174   7.883  11.758  1.3357  0.1213 -0.5395
   38MOL0     H 4974   9.196   7.652  11.811 -1.5046 -0.4698  1.0915
   38MOL0     H 4975   9.028   7.693  11.793 -1.6169 -1.0134 -2.6222
   38MOL0     H 4976   9.072   7.481  11.694  2.1490  0.8054  3.4668
   38MOL0     H 4977   9.198   7.546  11.605 -1.7160 -2.5676 -3.0530
   38MOL0     H 4978   8.852   7.501  11.702  0.0757 -1.1401 -0.9131
   38MOL0     H 4979   8.634   7.486  11.688 -2.9199  0.1089 -1.1300
   38MOL0     H 4980   8.368   7.517  11.119 -1.3570 -2.2448 -0.7689
   38MOL0     H 4981   8.149   7.488  11.028  0.0944 -2.6772  0.8074
   38MOL0     H 4982   7.961   7.480  10.946  0.3585 -1.4303 -0.4819
   38MOL0     H 4983   7.918   7.639  11.032 -2.2605  0.3673 -1.0686
   38MOL0     H 4984   7.674   7.553  11.059 -1.6337 -4.9593  1.5474
   38MOL0     H 4985   7.727   7.413  10.967  1.0557  0.4480 -2.8479
   38MOL0     H 4986   7.756   7.551  10.770  0.7066 -0.3199  0.8693
   38MOL0     H 4987   7.715   7.697  10.883 -2.0447  0.5407  0.4139
   38MOL0     H 4988   7.514   7.474  10.830 -0.4142 -0.0111 -4.0042
   38MOL0     H 4989   7.492   7.623  10.919 -1.0437  0.4170 -0.1504
   38MOL0     H 4990   7.536   7.767  10.722  2.2454  0.2736 -1.1629
   38MOL0     H 4991   7.396   7.664  10.710 -0.3831 -0.4407  1.5730
   38MOL0     H 4992   7.493   7.505  10.556 -2.3697  1.0115  0.0736
   38MOL0     H 4993   7.648   7.580  10.585 -0.3343 -1.9634 -1.1114
   38MOL0     H 4994   7.404   7.737  10.476 -0.1067 -0.2822  2.9193
   38MOL0     H 4995   7.565   7.793  10.459 -0.4215  0.1000 -2.0671
   38MOL0     H 4996   7.514   7.710  10.248  0.9784 -0.0129 -1.2363
   38MOL0     H 4997   7.466   7.557  10.315 -1.7174  1.0937 -1.4865
   38MOL0     H 4998   7.973   7.517  11.408 -1.1850  1.2916 -2.1941
   38MOL0     H 4999   8.195   7.560  11.513 -1.7929 -2.3381 -0.0486
   38MOL0     H 5000   8.657   7.645  11.276  1.2428  1.8440  0.1491
   38MOL0     H 5001   8.888   7.673  11.309  1.3408  0.2148  0.8431
   38MOL0     H 5002   8.694   7.933  11.561 -1.4412 -2.0702 -1.0553
   38MOL0     H 5003   8.474   7.903  11.455  0.4811 -0.1869 -0.6741
   38MOL0     H 5004   8.103   8.033  11.166  0.2341 -1.5472 -0.0688
   38MOL0     H 5005   7.864   7.968  11.129 -1.3862 -3.1672  1.2654
   38MOL0     H 5006   7.703   7.661  11.351 -0.4721  0.0259  1.0602
   38MOL0     H 5007   7.583   7.705  11.230 -0.4498  1.4964 -0.2301
   38MOL0     H 5008   7.507   7.691  11.470 -4.7439  0.9836 -0.2721
   38MOL0     H 5009   7.586   7.848  11.505 -0.8461  1.1768 -0.8255
   38MOL0     H 5010   7.458   7.918  11.280  2.4329 -1.8094  0.9372
   38MOL0     H 5011   7.406   7.941  11.448 -0.1746  0.6902  0.4607
   38MOL0     H 5012   7.233   7.837  11.267  0.3676 -2.5422 -3.3798
   38MOL0     H 5013   7.339   7.720  11.250 -0.7724  0.1121  0.9402
   38MOL0     H 5014   7.195   7.593  11.625  0.9919 -3.2664 -1.7610
   38MOL0     H 5015   7.840   7.787  11.499 -0.1941  2.3493  0.3208
   38MOL0     H 5016   8.036   7.879  11.576  1.5066 -0.8392 -0.1044
   39MOL0     O 5017   1.165  10.836   1.933 -0.1667 -0.1166 -0.4663
   39MOL0     C 5018   1.110  10.800   1.832 -0.1690  0.1521 -0.1202
   39MOL0     O 5019   1.168  10.800   1.706  0.4955  0.1537 -0.5062
   39MOL0     C 5020   1.278  10.877   1.690 -0.6968  0.5105 -0.2809
   39MOL0     C 5021   1.273  10.972   1.583 -0.2521  0.6861  0.0365
   39MOL0     C 5022   1.388  11.042   1.556 -0.5532 -0.4712 -0.2348
   39MOL0     C 5023   1.514  11.012   1.626 -0.0669 -0.4142  0.1877
   39MOL0     O 5024   1.628  11.076   1.586 -0.1353  0.7234  0.5800
   39MOL0     C 5025   1.650  11.111   1.444 -0.9161  0.3487  0.1619
   39MOL0     C 5026   1.789  11.182   1.431  1.5924 -0.0511 -0.2062
   39MOL0     C 5027   1.902  11.099   1.495  1.3479 -0.5671 -0.4962
   39MOL0     C 5028   2.024  11.192   1.490  0.3651 -0.0637  0.0268
   39MOL0     C 5029   2.154  11.117   1.493 -1.1580 -0.3441  0.3575
   39MOL0     C 5030   2.192  11.061   1.355  0.7335  0.6501 -0.4922
   39MOL0     C 5031   2.310  10.970   1.370 -0.0050  0.1048 -0.4214
   39MOL0     C 5032   2.357  10.910   1.235 -0.0917  0.8853  0.4312
   39MOL0     N 5033   2.482  10.837   1.267 -0.3855  0.2068 -0.1382
   39MOL0     C 5034   2.602  10.900   1.298 -0.4914  0.1710  0.3939
   39MOL0     C 5035   2.683  10.806   1.358  1.0222  0.6323  1.0721
   39MOL0     C 5036   2.825  10.807   1.403  0.6142 -0.3401 -0.5663
   39MOL0     C 5037   2.863  10.943   1.454  0.6168  0.2441  0.7290
   39MOL0     C 5038   2.789  10.977   1.580 -0.4632 -0.3636  0.0517
   39MOL0     C 5039   2.824  11.117   1.631  0.0508 -0.3254  0.1656
   39MOL0     O 5040   2.819  11.220   1.530 -0.2701 -0.6596 -0.4684
   39MOL0     C 5041   2.838  11.350   1.579  0.0943  0.2201  0.4447
   39MOL0     C 5042   2.850  11.451   1.482  0.1287 -0.4784 -0.1491
   39MOL0     C 5043   2.863  11.583   1.515 -0.2962  0.1355  0.7210
   39MOL0     C 5044   2.871  11.623   1.645  0.1152 -0.8741  0.3750
   39MOL0     C 5045   2.892  11.776   1.681  1.8939  0.2048  0.1689
   39MOL0     O 5046   2.884  11.861   1.578  0.2802  0.3555 -0.1976
   39MOL0     C 5047   2.911  12.000   1.622  0.3287 -0.0907  0.0545
   39MOL0     C 5048   3.020  12.069   1.561  0.1343  0.8737  0.1592
   39MOL0     C 5049   3.064  12.193   1.608 -0.4154  0.0029 -0.3660
   39MOL0     C 5050   2.987  12.267   1.700 -0.0885  0.0519 -1.0771
   39MOL0     O 5051   3.023  12.395   1.748  0.8102  0.1100 -0.3440
   39MOL0     C 5052   3.142  12.458   1.704  0.5546  0.1026 -1.1417
   39MOL0     C 5053   3.150  12.605   1.732 -0.3496  0.0920  0.4550
   39MOL0     C 5054   3.277  12.680   1.684  0.3525  0.8872  1.0618
   39MOL0     C 5055   3.261  12.703   1.527 -0.5093 -1.7643  0.1650
   39MOL0     C 5056   3.389  12.790   1.494 -0.3866 -0.3431  0.6112
   39MOL0     C 5057   3.420  12.797   1.345  0.2796 -0.4683 -0.4005
   39MOL0     C 5058   3.567  12.826   1.320  0.1239 -1.1670  0.0176
   39MOL0     C 5059   3.580  12.869   1.174 -0.7829 -0.2073  0.3392
   39MOL0    Cl 5060   3.551  12.746   1.051  0.0629  0.1310 -0.4454
   39MOL0     C 5061   2.876  12.204   1.759  0.8656  0.7781 -1.3795
   39MOL0     C 5062   2.839  12.072   1.719  1.4083 -0.6365 -1.9677
   39MOL0     O 5063   2.904  11.807   1.801 -0.0657  0.1210 -0.2016
   39MOL0     C 5064   2.861  11.526   1.753 -0.5300  0.5541  0.2677
   39MOL0     C 5065   2.844  11.389   1.714  0.2240  0.2212 -0.7378
   39MOL0     N 5066   2.610  10.677   1.345 -0.0280 -0.0938 -0.0129
   39MOL0     N 5067   2.502  10.703   1.292  0.7024  0.2635 -0.0434
   39MOL0     C 5068   1.511  10.916   1.721  0.8022 -1.2274 -0.6886
   39MOL0     C 5069   1.393  10.858   1.760 -0.0484  0.6029 -0.8464
   39MOL0     C 5070   0.970  10.747   1.833  0.1230  0.0529  0.1922
   39MOL0     C 5071   0.899  10.750   1.954  0.8922  0.0611  0.5898
   39MOL0     C 5072   0.773  10.699   1.954  0.0692 -0.0127  0.4146
   39MOL0     C 5073   0.710  10.642   1.841 -0.4843 -0.1065  0.4463
   39MOL0     O 5074   0.582  10.597   1.836 -0.1577 -0.0168 -0.3805
   39MOL0     C 5075   0.508  10.611   1.948  0.4755  0.4618 -0.0395
   39MOL0     C 5076   0.380  10.527   1.925 -0.0073  0.0516 -0.0035
   39MOL0     C 5077   0.318  10.572   1.789  0.3031 -0.6701  0.3815
   39MOL0     C 5078   0.291  10.726   1.779  0.1171 -0.0068 -0.1261
   39MOL0     C 5079   0.183  10.764   1.685 -0.2763  0.3051  0.3998
   39MOL0     C 5080   0.104  10.792   1.602 -0.0013  0.6716  0.5838
   39MOL0     C 5081   0.778  10.637   1.723  0.5218 -1.3660 -0.2366
   39MOL0     C 5082   0.912  10.682   1.722  0.0027  0.1186  1.0002
   39MOL0     H 5083   1.174  10.978   1.539 -2.2966  0.1831  4.1155
   39MOL0     H 5084   1.379  11.108   1.470 -1.0171 -0.5495 -0.2523
   39MOL0     H 5085   1.571  11.185   1.426 -1.5845 -0.3077  0.3761
   39MOL0     H 5086   1.634  11.027   1.377 -2.7441  2.0430 -1.6529
   39MOL0     H 5087   1.787  11.277   1.485 -0.9794 -1.6136  2.8275
   39MOL0     H 5088   1.819  11.202   1.328 -4.5399  1.3220 -2.1230
   39MOL0     H 5089   1.925  11.007   1.442  1.8985 -1.0629  0.5682
   39MOL0     H 5090   1.885  11.082   1.602 -1.4660  2.7859 -0.2100
   39MOL0     H 5091   2.033  11.260   1.405  1.3180 -0.1425  0.0560
   39MOL0     H 5092   2.018  11.259   1.576 -1.0451  0.6412 -0.5784
   39MOL0     H 5093   2.146  11.033   1.563 -0.0160 -1.1603 -0.4624
   39MOL0     H 5094   2.238  11.180   1.524  0.2841 -2.9294  1.9713
   39MOL0     H 5095   2.207  11.134   1.275 -0.8128 -0.9443 -2.3516
   39MOL0     H 5096   2.104  11.006   1.319  0.0329  0.8543  0.8650
   39MOL0     H 5097   2.395  11.031   1.406  1.8012 -3.2880  1.5909
   39MOL0     H 5098   2.301  10.891   1.445 -1.0764 -0.1219 -0.7826
   39MOL0     H 5099   2.382  10.984   1.159  0.7930  1.4509  1.2620
   39MOL0     H 5100   2.277  10.847   1.192  0.3367  0.5862  0.0614
   39MOL0     H 5101   2.642  11.001   1.293  0.5353 -0.1630  1.2905
   39MOL0     H 5102   2.883  10.777   1.316 -0.3693 -0.4150 -1.2134
   39MOL0     H 5103   2.834  10.735   1.485  1.3566  0.8455  0.4362
   39MOL0     H 5104   2.849  11.019   1.376 -1.3746  0.8950  1.6626
   39MOL0     H 5105   2.971  10.947   1.469  0.8720 -0.1717 -0.7897
   39MOL0     H 5106   2.681  10.975   1.560 -0.4932  1.0131 -0.0378
   39MOL0     H 5107   2.818  10.905   1.657  0.9413  2.1080  1.9973
   39MOL0     H 5108   2.914  11.123   1.693  0.3828  4.9511 -0.3304
   39MOL0     H 5109   2.741  11.145   1.697 -1.1416  2.0645 -2.1463
   39MOL0     H 5110   2.860  11.413   1.381  0.9241 -0.5505 -0.0462
   39MOL0     H 5111   2.864  11.664   1.442  0.4426 -0.2754  0.2581
   39MOL0     H 5112   3.075  12.013   1.485  0.3282  2.0611 -0.6025
   39MOL0     H 5113   3.167  12.223   1.589  2.3535 -5.6920  3.0816
   39MOL0     H 5114   3.172  12.438   1.600 -2.4023  2.1629 -2.5506
   39MOL0     H 5115   3.222  12.425   1.771  0.5808  2.9247  0.3573
   39MOL0     H 5116   3.151  12.620   1.840  3.2428 -1.1143  0.7236
   39MOL0     H 5117   3.059  12.646   1.687 -0.4610 -0.9383 -0.3100
   39MOL0     H 5118   3.365  12.620   1.708 -1.4404 -1.4499  2.1017
   39MOL0     H 5119   3.283  12.783   1.721 -1.2154  1.3339  0.1925
   39MOL0     H 5120   3.245  12.607   1.477  0.6746 -1.5388 -0.6797
   39MOL0     H 5121   3.173  12.766   1.509  0.9058  0.1102 -0.4640
   39MOL0     H 5122   3.468  12.732   1.542 -1.4784  0.3364  3.4257
   39MOL0     H 5123   3.388  12.890   1.538 -2.8416  1.4003 -2.8919
   39MOL0     H 5124   3.346  12.866   1.304 -0.2185 -2.1503 -2.5319
   39MOL0     H 5125   3.398  12.700   1.300 -1.0401 -0.6313  0.5062
   39MOL0     H 5126   3.614  12.907   1.377 -0.5955 -0.7997  0.0972
   39MOL0     H 5127   3.624  12.739   1.353  1.2392  0.2823  2.1771
   39MOL0     H 5128   3.677  12.916   1.156 -0.8128 -0.7052 -1.4003
   39MOL0     H 5129   3.499  12.942   1.166 -0.6889  0.0904  1.9401
   39MOL0     H 5130   2.826  12.253   1.841 -0.3071  0.6321 -1.9890
   39MOL0     H 5131   2.750  12.021   1.753  1.3367  0.2437 -0.8033
   39MOL0     H 5132   2.873  11.562   1.854 -1.8789 -1.4191  1.1939
   39MOL0     H 5133   2.827  11.314   1.791  2.4586 -0.9764 -1.3104
   39MOL0     H 5134   1.604  10.887   1.769  1.0596  0.8561  0.1823
   39MOL0     H 5135   1.392  10.782   1.837  0.9440  0.3297 -1.0869
   39MOL0     H 5136   0.938  10.813   2.033  1.5515  0.0252  0.2992
   39MOL0     H 5137   0.709  10.725   2.038 -1.7101  0.7807 -1.1198
   39MOL0     H 5138   0.494  10.719   1.958 -5.0687  0.1670 -1.3602
   39MOL0     H 5139   0.560  10.581   2.039 -1.9849  2.7409  2.2993
   39MOL0     H 5140   0.397  10.419   1.934 -2.1208 -0.3495 -0.3286
   39MOL0     H 5141   0.305  10.546   2.002  1.7434 -1.0756  2.0802
   39MOL0     H 5142   0.222  10.527   1.763  0.4960 -1.4936  1.0319
   39MOL0     H 5143   0.384  10.540   1.708 -1.4619 -3.9371  0.0500
   39MOL0     H 5144   0.263  10.761   1.879  4.6437 -2.3717  2.2331
   39MOL0     H 5145   0.384  10.772   1.745  0.0303 -0.9296 -1.7131
   39MOL0     H 5146   0.027  10.808   1.528 -0.4946  0.3606  1.0195
   39MOL0     H 5147   0.728  10.582   1.644  1.1323 -3.3174  0.6464
   39MOL0     H 5148   0.981  10.670   1.639  0.0548 -0.1383  1.0798
   40MOL0     O 5149   4.668   6.671   6.813 -0.0597  0.8875  0.6437
   40MOL0     C 5150   4.585   6.760   6.804  0.0015 -1.5739 -0.1545
   40MOL0     O 5151   4.618   6.897   6.818  0.0060 -0.0983  1.0668
   40MOL0     C 5152   4.758   6.926   6.838  0.5559 -0.2502 -1.7405
   40MOL0     C 5153   4.825   6.973   6.729  0.0689 -0.9581  1.1317
   40MOL0     C 5154   4.941   7.051   6.749 -0.1429 -0.1272  0.5526
   40MOL0     C 5155   4.985   7.079   6.877 -0.8350  0.9194 -0.3542
   40MOL0     O 5156   5.096   7.157   6.876  0.1053 -0.1244  1.0747
   40MOL0     C 5157   5.124   7.242   6.986  0.5472 -0.2753  0.2277
   40MOL0     C 5158   5.241   7.333   6.962 -0.5213 -0.1209 -0.1825
   40MOL0     C 5159   5.365   7.263   6.914 -1.1486  0.3174  0.2170
   40MOL0     C 5160   5.454   7.362   6.842  1.0237  0.4051 -0.4758
   40MOL0     C 5161   5.586   7.288   6.818 -1.2469 -0.3253  0.1530
   40MOL0     C 5162   5.578   7.159   6.749  0.3693  0.2161 -0.3996
   40MOL0     C 5163   5.715   7.134   6.695 -0.1866  0.6626  0.4468
   40MOL0     C 5164   5.716   6.996   6.633  0.2927 -0.1497 -0.3409
   40MOL0     N 5165   5.848   6.956   6.564 -0.1718 -0.7644  0.4314
   40MOL0     C 5166   5.857   6.886   6.450  0.7476  0.1722  0.4176
   40MOL0     C 5167   5.988   6.862   6.435 -0.1116 -0.1279  0.6305
   40MOL0     C 5168   6.044   6.773   6.330  0.4192  0.1332  0.7185
   40MOL0     C 5169   5.966   6.749   6.201 -0.9042 -0.1200  0.6226
   40MOL0     C 5170   6.054   6.662   6.112 -1.1328 -0.5087  0.6292
   40MOL0     C 5171   5.985   6.610   5.984  0.1233 -0.0283  0.5349
   40MOL0     O 5172   5.983   6.724   5.898 -0.0113 -1.0120 -0.3710
   40MOL0     C 5173   5.891   6.710   5.796  0.2384 -0.2395  0.5519
   40MOL0     C 5174   5.852   6.829   5.742 -0.9397  0.3175  0.1343
   40MOL0     C 5175   5.753   6.838   5.642  0.6461 -0.2712 -0.4392
   40MOL0     C 5176   5.702   6.721   5.588  0.0471  0.5142  0.6686
   40MOL0     C 5177   5.606   6.724   5.478  0.7055  0.0046  0.0505
   40MOL0     O 5178   5.533   6.605   5.459  0.8052  0.5835  1.0712
   40MOL0     C 5179   5.426   6.611   5.377  0.1125 -0.8308 -0.4002
   40MOL0     C 5180   5.400   6.503   5.296 -0.5238  0.2998  1.1088
   40MOL0     C 5181   5.287   6.494   5.217  0.5806 -0.2959 -0.1594
   40MOL0     C 5182   5.190   6.595   5.212  0.8980  0.6386 -0.5148
   40MOL0     O 5183   5.072   6.578   5.134 -0.5255 -0.3289 -0.4013
   40MOL0     C 5184   4.974   6.681   5.135  0.6169  0.9657  0.1295
   40MOL0     C 5185   4.879   6.660   5.018 -0.2035  0.0740 -0.7526
   40MOL0     C 5186   4.797   6.789   4.994 -0.3831 -0.5037 -0.3380
   40MOL0     C 5187   4.719   6.751   4.867 -0.0933  0.0515  0.0134
   40MOL0     C 5188   4.586   6.835   4.839  0.3856 -0.1880  0.5777
   40MOL0     C 5189   4.475   6.816   4.936 -0.2036 -0.5573 -0.2660
   40MOL0     C 5190   4.337   6.872   4.899  0.1405  0.3569  0.2175
   40MOL0     C 5191   4.222   6.799   4.967 -0.0047  1.1829 -1.5079
   40MOL0    Cl 5192   4.072   6.885   4.958  0.3644 -0.5261  0.1972
   40MOL0     C 5193   5.217   6.708   5.295  0.3848 -0.1854  0.5245
   40MOL0     C 5194   5.332   6.718   5.386  0.6415  0.9079  1.1800
   40MOL0     O 5195   5.595   6.824   5.408 -0.1956  0.2172  0.1786
   40MOL0     C 5196   5.752   6.594   5.640  0.5475 -0.8645 -0.6851
   40MOL0     C 5197   5.844   6.593   5.748 -0.3250 -0.2527 -0.1000
   40MOL0     N 5198   6.063   6.925   6.543 -0.4663  0.6763  0.5039
   40MOL0     N 5199   5.970   6.979   6.617 -0.4911  0.1308  1.1819
   40MOL0     C 5200   4.924   7.018   6.984  0.4711  0.4026 -0.1175
   40MOL0     C 5201   4.810   6.941   6.968 -1.2573  0.2043 -0.0633
   40MOL0     C 5202   4.445   6.724   6.833 -0.9371  0.2648  0.3036
   40MOL0     C 5203   4.336   6.804   6.793 -0.7420 -1.3010 -0.2204
   40MOL0     C 5204   4.206   6.777   6.831  0.2996 -0.2499 -0.2742
   40MOL0     C 5205   4.179   6.665   6.907 -0.2366  0.5325 -0.7072
   40MOL0     O 5206   4.051   6.657   6.954 -0.0815  0.5837  0.1841
   40MOL0     C 5207   3.989   6.533   6.997  0.1904 -0.4236 -0.0033
   40MOL0     C 5208   3.831   6.532   7.001 -0.3087  0.3317 -1.0807
   40MOL0     C 5209   3.789   6.538   6.855  0.8886  1.7134 -0.0044
   40MOL0     C 5210   3.741   6.402   6.793 -0.5422 -0.0369 -0.6023
   40MOL0     C 5211   3.849   6.321   6.755 -0.0622  0.9402 -0.7420
   40MOL0     C 5212   3.952   6.263   6.722  0.5052 -0.2225 -0.5032
   40MOL0     C 5213   4.283   6.572   6.944 -0.1405  1.3587 -0.8457
   40MOL0     C 5214   4.411   6.599   6.897 -0.7669 -0.7634  0.3995
   40MOL0     H 5215   4.786   6.952   6.630 -0.3110  1.1425  0.7887
   40MOL0     H 5216   4.998   7.095   6.667  0.0167 -2.2739 -0.5690
   40MOL0     H 5217   5.135   7.176   7.073  2.6284  1.6680  1.5435
   40MOL0     H 5218   5.032   7.298   7.006  1.1413  0.6348  0.4672
   40MOL0     H 5219   5.262   7.385   7.056  0.5781 -0.0211 -0.4636
   40MOL0     H 5220   5.207   7.409   6.892 -4.3848 -0.2572  1.3214
   40MOL0     H 5221   5.334   7.180   6.851 -0.2931  0.8822 -0.9789
   40MOL0     H 5222   5.415   7.216   6.999 -0.3527 -1.8069 -1.3598
   40MOL0     H 5223   5.404   7.385   6.748 -0.3827 -1.3805 -0.2194
   40MOL0     H 5224   5.462   7.461   6.888 -0.6941 -0.0375  0.8698
   40MOL0     H 5225   5.644   7.274   6.909  2.5276 -1.8272 -2.2498
   40MOL0     H 5226   5.637   7.369   6.764 -0.5658 -0.3676  0.7331
   40MOL0     H 5227   5.506   7.150   6.667  1.0243 -0.5128 -0.9068
   40MOL0     H 5228   5.539   7.086   6.821  2.7567  0.2179  0.9849
   40MOL0     H 5229   5.725   7.214   6.622 -0.7298  0.3916  0.0647
   40MOL0     H 5230   5.792   7.138   6.773 -0.4362  1.2213  0.6661
   40MOL0     H 5231   5.637   6.997   6.558 -0.1889 -1.3084  0.1351
   40MOL0     H 5232   5.693   6.923   6.712 -2.2820  2.6244  1.7370
   40MOL0     H 5233   5.779   6.851   6.383  1.5359  0.1804 -0.5401
   40MOL0     H 5234   6.080   6.678   6.372 -2.0152 -1.7859 -1.2295
   40MOL0     H 5235   6.133   6.830   6.302 -0.3265 -0.1281 -2.6775
   40MOL0     H 5236   5.960   6.849   6.156 -0.0342  0.7517  2.3458
   40MOL0     H 5237   5.873   6.695   6.223  0.4172 -1.7981  2.3354
   40MOL0     H 5238   6.150   6.707   6.085 -0.8306 -2.1835 -1.3168
   40MOL0     H 5239   6.092   6.574   6.165 -1.6383 -0.7504  0.5976
   40MOL0     H 5240   5.889   6.565   6.011 -1.1021  1.1308 -1.5646
   40MOL0     H 5241   6.049   6.534   5.939  1.5011 -0.1472  2.5970
   40MOL0     H 5242   5.892   6.921   5.784  0.4195 -0.1565 -0.0958
   40MOL0     H 5243   5.725   6.937   5.605  1.5274 -0.0303 -0.4676
   40MOL0     H 5244   5.476   6.425   5.296  0.3825  1.1212 -0.8664
   40MOL0     H 5245   5.271   6.406   5.156 -2.8626 -0.0175  0.1253
   40MOL0     H 5246   5.008   6.785   5.141  0.4812  1.2995 -3.1819
   40MOL0     H 5247   4.907   6.664   5.220 -0.6279 -2.1770 -1.3121
   40MOL0     H 5248   4.811   6.576   5.032 -0.3674  0.3214 -0.0523
   40MOL0     H 5249   4.934   6.645   4.925  1.9739 -1.1531  0.6711
   40MOL0     H 5250   4.853   6.883   4.994 -0.9887 -0.0394  2.9423
   40MOL0     H 5251   4.719   6.803   5.069 -0.9600  1.4295 -1.2139
   40MOL0     H 5252   4.781   6.756   4.777 -1.3334  2.6393 -0.7799
   40MOL0     H 5253   4.684   6.648   4.873 -2.7732  0.9823  2.5964
   40MOL0     H 5254   4.559   6.794   4.742  4.7244  1.3171 -1.5315
   40MOL0     H 5255   4.608   6.942   4.825 -0.6693 -0.1630 -1.0703
   40MOL0     H 5256   4.499   6.857   5.035 -0.4782  0.8586 -0.7675
   40MOL0     H 5257   4.459   6.708   4.936 -0.9406 -0.4546  0.1126
   40MOL0     H 5258   4.337   6.975   4.935 -0.3333  0.4586 -0.0618
   40MOL0     H 5259   4.321   6.874   4.791 -0.8006 -1.4100  0.2903
   40MOL0     H 5260   4.253   6.784   5.071 -0.1132  0.9513 -1.5081
   40MOL0     H 5261   4.202   6.710   4.907 -2.5387  0.0174  0.8347
   40MOL0     H 5262   5.144   6.787   5.309 -0.9123 -0.5218 -3.2385
   40MOL0     H 5263   5.343   6.809   5.444 -0.0629  2.4112 -0.9196
   40MOL0     H 5264   5.714   6.500   5.600 -2.3047  1.1691 -3.1166
   40MOL0     H 5265   5.890   6.499   5.775 -0.7525 -0.2463  0.6761
   40MOL0     H 5266   4.950   7.050   7.085 -0.9965  1.1073  0.0579
   40MOL0     H 5267   4.743   6.899   7.043 -0.7351 -0.8237 -0.1636
   40MOL0     H 5268   4.366   6.891   6.736  5.5095 -0.8450  2.9452
   40MOL0     H 5269   4.120   6.841   6.811 -0.6137 -1.0350  1.0053
   40MOL0     H 5270   4.042   6.505   7.088  1.8254  3.2952  0.3697
   40MOL0     H 5271   4.003   6.450   6.927  1.6769 -3.0293  3.1286
   40MOL0     H 5272   3.806   6.441   7.056 -1.3656  0.8407 -0.6895
   40MOL0     H 5273   3.782   6.608   7.062 -1.6981 -0.1665 -1.5476
   40MOL0     H 5274   3.870   6.580   6.794  1.1817  2.3210  0.7810
   40MOL0     H 5275   3.700   6.601   6.844 -2.5739 -2.3556  1.7016
   40MOL0     H 5276   3.696   6.334   6.866  1.2227  0.5639  1.1223
   40MOL0     H 5277   3.669   6.419   6.712  1.9260 -0.8665 -3.1261
   40MOL0     H 5278   4.040   6.218   6.682 -0.9072 -0.6758 -3.3758
   40MOL0     H 5279   4.270   6.477   6.994 -1.3369  2.4399  1.0265
   40MOL0     H 5280   4.494   6.532   6.916  1.1694  1.1887 -0.6912
   41MOL0     O 5281   9.353   4.953   7.114 -0.1480 -0.3901 -0.1042
   41MOL0     C 5282   9.386   4.935   6.997 -0.2857 -0.1356 -0.3192
   41MOL0     O 5283   9.301   4.933   6.894 -0.4595  0.2270 -0.1003
   41MOL0     C 5284   9.166   4.970   6.923 -1.4258 -1.1891  0.9037
   41MOL0     C 5285   9.114   5.093   6.865  0.1886  0.6371  0.2650
   41MOL0     C 5286   8.984   5.129   6.889 -0.4369 -0.2833  0.9396
   41MOL0     C 5287   8.903   5.055   6.966 -0.1022 -0.0593 -0.3906
   41MOL0     O 5288   8.768   5.102   6.982 -0.7378  0.3108  0.1473
   41MOL0     C 5289   8.669   5.011   7.041  0.2638 -0.0124 -0.8699
   41MOL0     C 5290   8.536   5.035   6.967  0.0148 -0.5817  0.0527
   41MOL0     C 5291   8.423   4.932   6.999  0.2365 -0.1013  0.1694
   41MOL0     C 5292   8.300   4.964   6.914  0.2788  0.0306 -1.1078
   41MOL0     C 5293   8.188   4.866   6.944  1.4007  0.3449 -0.5370
   41MOL0     C 5294   8.124   4.867   7.080  0.5961 -0.8395  0.0027
   41MOL0     C 5295   8.024   4.750   7.099 -0.0475 -0.8406 -0.1437
   41MOL0     C 5296   7.876   4.803   7.113 -0.2616  1.2751  0.8360
   41MOL0     N 5297   7.784   4.698   7.146 -0.2937 -0.6110 -0.2153
   41MOL0     C 5298   7.722   4.667   7.268  0.4398 -0.3636  1.1392
   41MOL0     C 5299   7.634   4.564   7.241 -0.1376  0.5456 -0.1299
   41MOL0     C 5300   7.522   4.511   7.328  0.1485 -0.7826  0.7089
   41MOL0     C 5301   7.588   4.456   7.453  0.1281  0.6143 -0.3158
   41MOL0     C 5302   7.643   4.312   7.405 -0.1079 -0.1471 -1.6685
   41MOL0     C 5303   7.715   4.253   7.525 -0.1851 -0.0911 -0.5621
   41MOL0     O 5304   7.824   4.339   7.573 -0.8156  0.3768 -0.8140
   41MOL0     C 5305   7.937   4.340   7.503 -0.5193 -0.3440  0.3322
   41MOL0     C 5306   8.013   4.232   7.458 -0.2238  0.9651  1.1486
   41MOL0     C 5307   8.132   4.250   7.393  0.9073  0.7197  1.0654
   41MOL0     C 5308   8.178   4.373   7.351  0.2392 -0.4278 -0.1521
   41MOL0     C 5309   8.316   4.400   7.305  0.3088  0.1033  0.0611
   41MOL0     O 5310   8.353   4.525   7.258 -0.3567  0.2820  0.1418
   41MOL0     C 5311   8.482   4.556   7.232  0.0453  0.0024  0.6622
   41MOL0     C 5312   8.495   4.622   7.105  0.0484 -0.0724  0.1135
   41MOL0     C 5313   8.621   4.650   7.057  0.2159  0.9160  0.2514
   41MOL0     C 5314   8.729   4.622   7.141  1.4192  0.1757 -0.6338
   41MOL0     O 5315   8.855   4.632   7.094 -0.4416  1.5179 -0.0124
   41MOL0     C 5316   8.887   4.543   6.980  0.9307  0.0813 -0.2154
   41MOL0     C 5317   9.033   4.521   6.988 -0.5160  0.5912  0.6631
   41MOL0     C 5318   9.099   4.527   6.856 -0.1444 -0.3472  0.3811
   41MOL0     C 5319   9.248   4.475   6.865 -0.5017 -0.3846  0.0137
   41MOL0     C 5320   9.309   4.449   6.733 -0.0756  0.4688  1.1171
   41MOL0     C 5321   9.456   4.408   6.741  0.1036  0.2147 -0.2889
   41MOL0     C 5322   9.487   4.362   6.600 -0.5795 -0.7592  0.4694
   41MOL0     C 5323   9.612   4.269   6.602 -0.5115 -1.1730  0.3339
   41MOL0    Cl 5324   9.751   4.346   6.686  0.4211 -0.3287 -0.1423
   41MOL0     C 5325   8.716   4.562   7.270 -0.2663 -0.1705  0.0468
   41MOL0     C 5326   8.590   4.532   7.325 -0.3496  0.0384  0.7042
   41MOL0     O 5327   8.396   4.308   7.315  0.1635  0.8797 -0.3567
   41MOL0     C 5328   8.094   4.484   7.392 -0.7651  0.4892  1.2010
   41MOL0     C 5329   7.975   4.464   7.463 -0.7027 -0.2551  0.0378
   41MOL0     N 5330   7.647   4.535   7.099  0.5383 -0.5220 -0.1610
   41MOL0     N 5331   7.744   4.606   7.056  0.2867 -0.2228  0.4766
   41MOL0     C 5332   8.946   4.933   7.023 -0.0682 -0.5112  0.0928
   41MOL0     C 5333   9.080   4.890   7.005  0.6079  0.6290  0.5390
   41MOL0     C 5334   9.528   4.881   6.976  0.0659 -0.5294 -0.1664
   41MOL0     C 5335   9.627   4.915   7.072  0.0356  0.3550  0.5411
   41MOL0     C 5336   9.762   4.885   7.044 -0.3756 -0.0572 -0.8807
   41MOL0     C 5337   9.802   4.824   6.925 -0.4871 -0.2141 -0.5102
   41MOL0     O 5338   9.938   4.796   6.902  0.2394 -0.0704 -0.4505
   41MOL0     C 5339  10.021   4.908   6.912  0.2222  0.0485 -0.7220
   41MOL0     C 5340   9.986   5.013   6.803  0.4715 -0.4689 -0.2841
   41MOL0     C 5341  10.097   5.113   6.777 -0.5718 -0.5269 -0.1234
   41MOL0     C 5342  10.144   5.119   6.627  0.1179  0.2390  0.5750
   41MOL0     C 5343  10.195   4.984   6.585 -0.4135  0.3948  0.1601
   41MOL0     C 5344  10.242   4.872   6.545 -0.3716 -0.0211 -0.8374
   41MOL0     C 5345   9.702   4.787   6.832  0.5719 -1.0576  1.2210
   41MOL0     C 5346   9.562   4.815   6.858  0.5737  0.3486  0.3395
   41MOL0     H 5347   9.181   5.147   6.799  5.2384 -2.7459  2.0755
   41MOL0     H 5348   8.923   5.205   6.841 -0.6056 -1.2389 -0.4384
   41MOL0     H 5349   8.660   5.035   7.147 -0.0095  1.9330 -1.3067
   41MOL0     H 5350   8.691   4.903   7.039  1.1275  0.0042  2.2896
   41MOL0     H 5351   8.572   5.019   6.864  2.5098 -2.9741  1.1476
   41MOL0     H 5352   8.524   5.142   6.981  0.7260 -0.2285 -1.7029
   41MOL0     H 5353   8.410   4.935   7.108 -0.8174 -0.7773  0.0719
   41MOL0     H 5354   8.465   4.836   6.968  0.2108 -0.2597  0.6219
   41MOL0     H 5355   8.280   5.068   6.939  2.5788  0.4626 -0.7778
   41MOL0     H 5356   8.316   4.979   6.807 -0.7270  4.0091 -0.8443
   41MOL0     H 5357   8.226   4.766   6.922 -1.4579 -0.4057 -2.6633
   41MOL0     H 5358   8.115   4.887   6.865  3.4720 -1.9317 -3.2511
   41MOL0     H 5359   8.080   4.964   7.102 -1.1210 -1.4093 -0.7545
   41MOL0     H 5360   8.201   4.824   7.145 -0.9081 -4.0272 -0.1486
   41MOL0     H 5361   8.033   4.667   7.028  0.1520 -3.2056  2.4775
   41MOL0     H 5362   8.039   4.696   7.193 -2.4376 -0.4159  0.5516
   41MOL0     H 5363   7.859   4.845   7.013 -0.7703 -0.4295  0.1740
   41MOL0     H 5364   7.859   4.886   7.182 -1.3929  1.4434  0.3947
   41MOL0     H 5365   7.738   4.720   7.362 -0.2026  0.5874  0.7207
   41MOL0     H 5366   7.472   4.438   7.265  2.0510 -1.0612 -0.5561
   41MOL0     H 5367   7.452   4.589   7.359  0.7050  0.2359 -0.5157
   41MOL0     H 5368   7.513   4.441   7.531  1.7205 -2.0812  0.8379
   41MOL0     H 5369   7.664   4.524   7.494  0.6263  0.4702 -0.9846
   41MOL0     H 5370   7.562   4.242   7.382  0.1702  0.2650 -4.1156
   41MOL0     H 5371   7.709   4.319   7.318 -0.8485 -0.4949 -2.2736
   41MOL0     H 5372   7.741   4.147   7.523  1.6382  0.2361  1.7061
   41MOL0     H 5373   7.636   4.250   7.600  0.3614 -0.7455  0.0056
   41MOL0     H 5374   7.989   4.129   7.485  0.8292  1.0041  2.3113
   41MOL0     H 5375   8.187   4.158   7.373 -2.0747 -0.7397 -1.0881
   41MOL0     H 5376   8.406   4.644   7.047 -2.6016  0.7547  4.0873
   41MOL0     H 5377   8.635   4.695   6.960 -1.0021  0.9609  0.0888
   41MOL0     H 5378   8.872   4.592   6.883  2.8385 -0.6051 -0.8991
   41MOL0     H 5379   8.833   4.448   6.980  0.6954  0.0913  3.3657
   41MOL0     H 5380   9.042   4.419   7.024 -1.3745  0.5214  0.6865
   41MOL0     H 5381   9.077   4.587   7.064  1.5440 -1.1804  1.1059
   41MOL0     H 5382   9.103   4.630   6.819 -0.7133 -0.6559 -0.5820
   41MOL0     H 5383   9.044   4.466   6.783  3.0405  0.5251 -3.1000
   41MOL0     H 5384   9.303   4.553   6.918  1.9124  0.3564 -3.2580
   41MOL0     H 5385   9.246   4.377   6.914 -1.2153  0.1500  1.0907
   41MOL0     H 5386   9.287   4.536   6.670 -1.2783 -1.9297 -2.0473
   41MOL0     H 5387   9.254   4.364   6.690  1.7868 -1.1405  1.8068
   41MOL0     H 5388   9.474   4.330   6.816 -1.4328  1.2908  1.2608
   41MOL0     H 5389   9.513   4.496   6.769 -1.3750  1.3569 -0.7525
   41MOL0     H 5390   9.409   4.297   6.557  0.8418 -2.8877  0.9586
   41MOL0     H 5391   9.516   4.454   6.550 -2.9007  0.2348  0.7970
   41MOL0     H 5392   9.636   4.237   6.501 -0.8649 -0.7557  0.1143
   41MOL0     H 5393   9.570   4.179   6.648 -0.5442 -3.7457 -4.1858
   41MOL0     H 5394   8.807   4.543   7.326  0.9221  0.3817 -1.6332
   41MOL0     H 5395   8.571   4.486   7.422 -2.7578  0.9432  0.7093
   41MOL0     H 5396   8.129   4.585   7.374  2.1358 -0.7018 -0.6485
   41MOL0     H 5397   7.913   4.550   7.489  0.5202  0.3109  1.2304
   41MOL0     H 5398   8.887   4.882   7.099  2.3267 -1.7131  1.2488
   41MOL0     H 5399   9.117   4.803   7.058 -0.4134 -0.9288 -1.1718
   41MOL0     H 5400   9.617   4.966   7.167  0.5299  0.0698  0.7531
   41MOL0     H 5401   9.837   4.910   7.118  0.4218 -1.1018 -1.3220
   41MOL0     H 5402  10.122   4.870   6.892 -0.5070 -1.4833 -1.6117
   41MOL0     H 5403  10.022   4.962   7.008 -0.7711 -0.8435 -0.1896
   41MOL0     H 5404   9.949   4.953   6.720  0.1015 -0.9050  0.1876
   41MOL0     H 5405   9.905   5.078   6.837  1.1578  1.4245 -2.0921
   41MOL0     H 5406  10.184   5.075   6.831 -0.9345 -1.3384 -0.0948
   41MOL0     H 5407  10.069   5.215   6.805  1.6788  0.0203  0.3430
   41MOL0     H 5408  10.057   5.149   6.567 -0.2996  1.0303  1.5551
   41MOL0     H 5409  10.217   5.199   6.610  0.8057  0.2936  3.4063
   41MOL0     H 5410  10.267   4.769   6.531  0.1899 -0.2067  1.1802
   41MOL0     H 5411   9.742   4.749   6.739 -1.5184 -1.0054  0.2345
   41MOL0     H 5412   9.480   4.788   6.792 -0.2868  1.0483  1.0999
   42MOL0     O 5413   6.122   6.569   7.340  0.4209  0.2318 -0.0011
   42MOL0     C 5414   6.082   6.662   7.269 -0.1024 -0.5230  0.2207
   42MOL0     O 5415   6.167   6.762   7.225  0.3979  0.4268  0.4746
   42MOL0     C 5416   6.282   6.763   7.299 -0.1287  0.7946  0.3219
   42MOL0     C 5417   6.292   6.826   7.427 -1.0903 -0.3611  0.0911
   42MOL0     C 5418   6.422   6.825   7.490 -0.3314 -0.4105  0.1680
   42MOL0     C 5419   6.541   6.767   7.433  0.4271 -0.0878 -0.4620
   42MOL0     O 5420   6.662   6.770   7.492 -0.0126 -0.2270 -0.2189
   42MOL0     C 5421   6.771   6.698   7.428  1.0371  0.2683  0.0873
   42MOL0     C 5422   6.917   6.715   7.484  1.0299  0.6745  0.0684
   42MOL0     C 5423   6.937   6.815   7.594 -0.9458 -0.5732  0.1304
   42MOL0     C 5424   6.861   6.768   7.719  0.4734 -0.2396  0.7443
   42MOL0     C 5425   6.923   6.806   7.859 -0.8701  0.5585  0.5465
   42MOL0     C 5426   7.060   6.749   7.887 -0.4198  0.4834 -1.2406
   42MOL0     C 5427   7.123   6.777   8.021 -0.0826 -0.2421 -0.9349
   42MOL0     C 5428   7.185   6.912   8.010  0.0515 -0.1813 -0.3161
   42MOL0     N 5429   7.219   6.956   8.140 -0.7732  0.2693 -0.1559
   42MOL0     C 5430   7.287   6.886   8.235  0.6108 -0.4458 -1.3314
   42MOL0     C 5431   7.278   6.956   8.348 -0.7996 -0.4473  0.3251
   42MOL0     C 5432   7.334   6.915   8.491 -0.2578  0.1476 -0.1787
   42MOL0     C 5433   7.453   7.015   8.530 -0.1753 -1.3110 -0.6095
   42MOL0     C 5434   7.413   7.169   8.551 -0.5975  2.0090 -0.8395
   42MOL0     C 5435   7.277   7.200   8.618  0.1588  1.5588 -0.5353
   42MOL0     O 5436   7.276   7.339   8.611  0.3867  0.2557 -0.5629
   42MOL0     C 5437   7.227   7.397   8.497 -0.3373  0.3586 -0.6763
   42MOL0     C 5438   7.092   7.391   8.475 -0.6739 -0.3071 -0.2153
   42MOL0     C 5439   7.036   7.449   8.365  0.7700 -0.4948 -0.1243
   42MOL0     C 5440   7.108   7.535   8.282  0.1591 -0.2620  0.1767
   42MOL0     C 5441   7.041   7.602   8.163  0.5564 -0.1065 -0.0886
   42MOL0     O 5442   6.906   7.598   8.162 -0.4418 -0.6810 -0.2400
   42MOL0     C 5443   6.835   7.683   8.080 -0.0801  0.8109 -1.1215
   42MOL0     C 5444   6.706   7.721   8.121  0.3020  0.1987  0.0033
   42MOL0     C 5445   6.611   7.798   8.050 -0.7067 -0.1561  0.4447
   42MOL0     C 5446   6.658   7.838   7.921 -0.4552 -0.5239 -0.3363
   42MOL0     O 5447   6.576   7.914   7.833  0.4051 -0.7155 -0.7062
   42MOL0     C 5448   6.564   7.879   7.702 -0.5401 -0.1249  0.2982
   42MOL0     C 5449   6.498   7.738   7.684  0.5290  0.2947 -0.9338
   42MOL0     C 5450   6.352   7.728   7.746 -1.5789  0.4758  0.2989
   42MOL0     C 5451   6.289   7.591   7.726  0.1510 -0.2748  0.0402
   42MOL0     C 5452   6.370   7.477   7.784 -0.6511  0.3770 -0.0942
   42MOL0     C 5453   6.392   7.467   7.939 -0.1964 -0.2196  0.5779
   42MOL0     C 5454   6.266   7.442   8.021 -0.1645 -0.6169  0.7593
   42MOL0     C 5455   6.287   7.476   8.164  0.7067  0.6866 -0.1852
   42MOL0    Cl 5456   6.117   7.505   8.259  0.0488 -0.0218 -0.1187
   42MOL0     C 5457   6.784   7.806   7.875 -0.5927  0.1706  0.4026
   42MOL0     C 5458   6.863   7.723   7.953  0.0654  0.4742  0.1460
   42MOL0     O 5459   7.109   7.660   8.089 -0.7965 -0.2310  0.2900
   42MOL0     C 5460   7.246   7.550   8.310 -1.0490 -0.3794 -0.0521
   42MOL0     C 5461   7.308   7.472   8.410  0.2588 -0.0560  0.2876
   42MOL0     N 5462   7.216   7.072   8.322 -0.6114  0.5378  0.7594
   42MOL0     N 5463   7.181   7.076   8.193 -0.0042  0.0265 -0.2278
   42MOL0     C 5464   6.518   6.699   7.308 -0.0469 -0.2813  0.0875
   42MOL0     C 5465   6.398   6.689   7.245  0.2255  0.1048  0.3433
   42MOL0     C 5466   5.957   6.656   7.192  0.4284  0.1340 -0.0184
   42MOL0     C 5467   5.906   6.775   7.137 -0.6610 -0.1759 -0.2117
   42MOL0     C 5468   5.793   6.791   7.062  0.1388 -0.0263 -0.3279
   42MOL0     C 5469   5.706   6.676   7.059  0.5339  0.8445 -0.1407
   42MOL0     O 5470   5.571   6.679   7.027 -0.3169  0.5752  0.8412
   42MOL0     C 5471   5.512   6.795   6.978 -0.1834 -0.4118  1.4360
   42MOL0     C 5472   5.383   6.755   6.912  0.9748  0.8130  0.5933
   42MOL0     C 5473   5.336   6.861   6.814 -0.8601 -0.2395 -0.0215
   42MOL0     C 5474   5.236   6.804   6.711  0.0454 -0.4399 -0.4607
   42MOL0     C 5475   5.109   6.764   6.774  0.3041 -0.4159  0.1033
   42MOL0     C 5476   5.006   6.714   6.816  0.1240  1.0529 -0.0728
   42MOL0     C 5477   5.745   6.552   7.124  0.2617 -0.1075  0.8347
   42MOL0     C 5478   5.873   6.545   7.179  0.2431 -0.2178  0.3565
   42MOL0     H 5479   6.203   6.872   7.470 -1.7031 -1.8531  0.4839
   42MOL0     H 5480   6.428   6.856   7.594 -0.3257 -0.6537  0.2422
   42MOL0     H 5481   6.773   6.746   7.330 -1.8369  1.3050  0.4206
   42MOL0     H 5482   6.757   6.590   7.422  3.7583 -0.1792  0.7507
   42MOL0     H 5483   6.982   6.724   7.396 -0.9297 -0.6386 -1.6047
   42MOL0     H 5484   6.952   6.619   7.523  4.1227  0.2264 -3.2862
   42MOL0     H 5485   6.900   6.915   7.569  1.4916  0.5980  0.8918
   42MOL0     H 5486   7.044   6.836   7.601 -1.1403  2.6661 -3.2318
   42MOL0     H 5487   6.776   6.836   7.721  1.4235  1.0731 -0.9478
   42MOL0     H 5488   6.838   6.661   7.712 -5.0725  0.4239  3.8733
   42MOL0     H 5489   6.869   6.759   7.942  1.4677 -3.5219  0.0151
   42MOL0     H 5490   6.937   6.911   7.887  1.6253  0.2894  0.5766
   42MOL0     H 5491   7.136   6.789   7.819  1.0096  0.2246  0.1535
   42MOL0     H 5492   7.050   6.641   7.873 -0.3542  0.0374  1.5220
   42MOL0     H 5493   7.039   6.781   8.090 -0.8933 -0.2513 -1.9010
   42MOL0     H 5494   7.190   6.700   8.062  1.8285  2.7099  1.9368
   42MOL0     H 5495   7.122   6.995   7.975  2.2392  2.1627  1.0259
   42MOL0     H 5496   7.267   6.916   7.938 -0.5694 -1.3161 -1.1371
   42MOL0     H 5497   7.323   6.786   8.215 -1.9113 -1.0541 -3.5638
   42MOL0     H 5498   7.385   6.818   8.485  1.7804  1.0698  1.1727
   42MOL0     H 5499   7.251   6.917   8.563 -0.2592 -0.7930 -0.1355
   42MOL0     H 5500   7.540   7.013   8.464  1.7569 -2.2482  1.8098
   42MOL0     H 5501   7.496   6.981   8.624  1.0661 -1.6104 -1.2594
   42MOL0     H 5502   7.484   7.213   8.623  1.8671 -2.1094 -0.4327
   42MOL0     H 5503   7.415   7.219   8.453  0.4684  2.6059 -0.5319
   42MOL0     H 5504   7.273   7.170   8.723 -0.5406 -1.7485 -1.4203
   42MOL0     H 5505   7.187   7.158   8.572  0.1043  0.8800  0.1871
   42MOL0     H 5506   7.028   7.332   8.540 -1.7935  3.0950  2.0497
   42MOL0     H 5507   6.928   7.453   8.357  0.6285 -1.7155  0.8230
   42MOL0     H 5508   6.679   7.694   8.223 -0.1999 -2.9312 -0.8790
   42MOL0     H 5509   6.514   7.831   8.086 -1.5903  0.0302 -1.9095
   42MOL0     H 5510   6.655   7.879   7.641 -1.2328 -0.0882 -0.7548
   42MOL0     H 5511   6.505   7.948   7.642 -2.1694 -0.6555  1.2381
   42MOL0     H 5512   6.560   7.665   7.735  0.0164  0.1366 -0.5195
   42MOL0     H 5513   6.490   7.708   7.580  0.1988  1.3604 -1.2362
   42MOL0     H 5514   6.279   7.799   7.705 -2.1118  0.3630  1.0286
   42MOL0     H 5515   6.357   7.750   7.853 -3.1422  0.7964  0.3411
   42MOL0     H 5516   6.191   7.589   7.776 -1.9888 -2.5874 -3.7401
   42MOL0     H 5517   6.273   7.567   7.620  0.1618  2.2698 -0.6094
   42MOL0     H 5518   6.470   7.468   7.739 -0.4442 -1.1349  0.6313
   42MOL0     H 5519   6.312   7.386   7.769  0.9146 -0.6845  0.0355
   42MOL0     H 5520   6.422   7.568   7.968 -0.9883  0.0860  0.3492
   42MOL0     H 5521   6.464   7.386   7.955  0.7697  0.3776 -0.5243
   42MOL0     H 5522   6.184   7.507   7.988 -0.9418 -0.1873  3.2979
   42MOL0     H 5523   6.237   7.339   8.002 -0.8826 -0.8360  2.7839
   42MOL0     H 5524   6.355   7.561   8.177  0.1945  1.1163 -0.2700
   42MOL0     H 5525   6.340   7.389   8.204  1.8101  0.7842 -1.3677
   42MOL0     H 5526   6.830   7.831   7.780 -0.5368  1.7966  0.8341
   42MOL0     H 5527   6.961   7.702   7.911 -0.3881  1.5448 -1.5584
   42MOL0     H 5528   7.300   7.627   8.257  2.0021 -2.3318 -0.0691
   42MOL0     H 5529   7.416   7.483   8.413  0.2927  0.9399 -2.1966
   42MOL0     H 5530   6.598   6.639   7.265 -1.8445 -4.2439  1.8039
   42MOL0     H 5531   6.396   6.626   7.157  1.2217 -3.2853  2.5228
   42MOL0     H 5532   5.952   6.868   7.170 -3.9756  1.7357 -0.5968
   42MOL0     H 5533   5.771   6.888   7.017 -0.0876 -1.7397 -4.2856
   42MOL0     H 5534   5.575   6.834   6.898 -2.5953  0.8478  0.0465
   42MOL0     H 5535   5.483   6.864   7.057  2.1958  1.0461  1.1324
   42MOL0     H 5536   5.379   6.656   6.865 -2.6255  0.9761  0.2683
   42MOL0     H 5537   5.317   6.757   7.000  2.6534 -0.9085  1.9537
   42MOL0     H 5538   5.421   6.889   6.752 -1.1449  0.2435 -0.2031
   42MOL0     H 5539   5.300   6.949   6.868  1.0041  0.4957  0.1014
   42MOL0     H 5540   5.222   6.899   6.658  1.2143 -0.0878 -0.1671
   42MOL0     H 5541   5.268   6.720   6.650  0.0775 -0.6557 -0.1487
   42MOL0     H 5542   4.923   6.657   6.853  0.6643  0.9570  1.0060
   42MOL0     H 5543   5.682   6.464   7.120  0.7160 -0.3905 -0.4133
   42MOL0     H 5544   5.917   6.457   7.226  2.6394  0.7989  0.1191
   43MOL0     O 5545   1.277   0.062   0.813 -0.0353  0.7079 -0.3489
   43MOL0     C 5546   1.229   0.143   0.729 -0.8322 -0.1379 -1.1124
   43MOL0     O 5547   1.297   0.213   0.637 -0.8722 -0.9744 -0.0473
   43MOL0     C 5548   1.441   0.227   0.640  0.9563  0.6939 -0.0606
   43MOL0     C 5549   1.507   0.259   0.759  0.0580 -0.3687 -0.0378
   43MOL0     C 5550   1.644   0.270   0.759 -0.4035  0.8221  0.6702
   43MOL0     C 5551   1.718   0.257   0.640  0.4938  0.0404  0.2517
   43MOL0     O 5552   1.852   0.292   0.643  0.5032  0.0399  0.5124
   43MOL0     C 5553   1.933   0.239   0.530  0.5417  0.2943  0.1878
   43MOL0     C 5554   2.085   0.267   0.554  1.6919 -0.4590  0.0679
   43MOL0     C 5555   2.126   0.410   0.600 -0.0503 -0.2026  0.8983
   43MOL0     C 5556   2.280   0.441   0.600  0.1620  0.1915  0.5723
   43MOL0     C 5557   2.365   0.343   0.692  0.4039  0.5364 -0.0508
   43MOL0     C 5558   2.493   0.416   0.738  0.7095  1.0395 -0.8473
   43MOL0     C 5559   2.585   0.289   0.761  0.6330  0.3225 -0.3816
   43MOL0     C 5560   2.705   0.317   0.843 -0.5960  0.6621  0.1286
   43MOL0     N 5561   2.682   0.319   0.987  0.2574 -0.3922  1.2826
   43MOL0     C 5562   2.623   0.430   1.048  0.0060  0.5669  0.7954
   43MOL0     C 5563   2.626   0.394   1.173  0.2638  0.1845 -1.6282
   43MOL0     C 5564   2.560   0.467   1.285  0.1952 -0.2531  1.1783
   43MOL0     C 5565   2.652   0.582   1.330 -0.7128  0.1131  0.6887
   43MOL0     C 5566   2.609   0.673   1.441 -0.2395  0.0149  0.3266
   43MOL0     C 5567   2.684   0.802   1.447 -0.0409  0.7407  0.6935
   43MOL0     O 5568   2.651   0.878   1.332 -0.3697  0.2560  0.3362
   43MOL0     C 5569   2.746   0.980   1.301  0.0943  0.4160 -0.6807
   43MOL0     C 5570   2.848   1.031   1.383 -0.2787  0.0155  0.5520
   43MOL0     C 5571   2.937   1.135   1.330 -0.1260 -0.3896  0.4109
   43MOL0     C 5572   2.927   1.192   1.201 -0.0308 -0.5056 -0.1916
   43MOL0     C 5573   3.013   1.304   1.156  0.9491  0.6478 -0.0924
   43MOL0     O 5574   3.009   1.338   1.023 -0.4750  0.0039 -0.2836
   43MOL0     C 5575   3.091   1.443   0.993  0.0563  0.5284  0.1411
   43MOL0     C 5576   3.040   1.569   0.965  0.0766 -0.0029 -0.5911
   43MOL0     C 5577   3.124   1.672   0.923  0.2527 -0.3359  0.5284
   43MOL0     C 5578   3.264   1.645   0.912  0.0489  0.5490  0.3314
   43MOL0     O 5579   3.357   1.749   0.879  0.2836  0.1393 -0.2256
   43MOL0     C 5580   3.428   1.730   0.757  0.0910 -0.1747 -0.1883
   43MOL0     C 5581   3.580   1.729   0.784 -0.2307  0.4487  0.0697
   43MOL0     C 5582   3.675   1.714   0.656 -0.3811  0.7982 -1.2878
   43MOL0     C 5583   3.819   1.730   0.687 -0.1639  0.3074 -0.8465
   43MOL0     C 5584   3.908   1.703   0.559  0.2921 -0.1201 -0.8301
   43MOL0     C 5585   4.056   1.738   0.586 -0.5385 -0.6005 -0.5084
   43MOL0     C 5586   4.050   1.888   0.563 -0.1283 -0.1739 -0.3979
   43MOL0     C 5587   4.181   1.945   0.632 -0.2861  0.0933  0.4295
   43MOL0    Cl 5588   4.330   1.869   0.596 -0.1637 -0.1672  0.2691
   43MOL0     C 5589   3.310   1.510   0.916  1.0971 -0.1763  0.0633
   43MOL0     C 5590   3.222   1.418   0.965 -0.1780  0.0267 -0.6502
   43MOL0     O 5591   3.087   1.352   1.243 -0.1012 -0.0769  0.2142
   43MOL0     C 5592   2.818   1.141   1.130  0.3747  0.2562  0.2482
   43MOL0     C 5593   2.735   1.044   1.179  0.3747 -0.0206 -0.1164
   43MOL0     N 5594   2.685   0.267   1.190  0.0118  1.4092 -0.4052
   43MOL0     N 5595   2.705   0.223   1.078  0.5233 -0.0220  0.3654
   43MOL0     C 5596   1.647   0.224   0.522 -1.0151 -0.7808  0.4773
   43MOL0     C 5597   1.507   0.212   0.526 -0.2955  0.2747 -0.6758
   43MOL0     C 5598   1.077   0.153   0.723  0.2743 -0.5339  0.3174
   43MOL0     C 5599   1.021   0.210   0.615  0.6307  0.5589  0.5720
   43MOL0     C 5600   0.882   0.224   0.608 -0.3049  0.3307 -0.4338
   43MOL0     C 5601   0.799   0.178   0.712 -0.4391  0.1814  0.3253
   43MOL0     O 5602   0.668   0.217   0.710 -0.8572 -0.6167  0.0808
   43MOL0     C 5603   0.597   0.208   0.833  0.7725 -1.0713 -0.2928
   43MOL0     C 5604   0.637   0.309   0.931  0.0164 -0.1815 -0.0166
   43MOL0     C 5605   0.594   0.270   1.075  0.1452  0.8518  0.3749
   43MOL0     C 5606   0.644   0.367   1.178 -0.2720  0.2037  0.4782
   43MOL0     C 5607   0.622   0.507   1.133 -0.3891  0.1102 -0.3105
   43MOL0     C 5608   0.626   0.631   1.116  0.2438 -0.3411  0.7401
   43MOL0     C 5609   0.859   0.116   0.816  0.5277 -0.3166 -0.1101
   43MOL0     C 5610   0.991   0.101   0.823 -0.0252  0.4566  0.4954
   43MOL0     H 5611   1.449   0.263   0.851 -2.1808 -1.7945 -1.2939
   43MOL0     H 5612   1.700   0.295   0.849 -0.0194 -0.4966  0.8273
   43MOL0     H 5613   1.913   0.303   0.444 -1.3409 -0.0653  0.3143
   43MOL0     H 5614   1.902   0.136   0.510 -1.4487  0.7836  0.5165
   43MOL0     H 5615   2.136   0.248   0.460 -0.7597  1.5590 -1.8131
   43MOL0     H 5616   2.113   0.192   0.629  2.7310 -0.6737 -0.5198
   43MOL0     H 5617   2.100   0.421   0.706 -0.6428 -0.7062  0.8124
   43MOL0     H 5618   2.078   0.489   0.543  1.4022 -0.5183 -0.8281
   43MOL0     H 5619   2.319   0.437   0.498 -1.8597 -1.6920 -0.2150
   43MOL0     H 5620   2.284   0.544   0.637  1.4844 -0.0091  1.0401
   43MOL0     H 5621   2.386   0.249   0.641 -0.2952 -0.0154  0.6479
   43MOL0     H 5622   2.320   0.316   0.788  2.4209 -1.4540  0.4255
   43MOL0     H 5623   2.469   0.478   0.824 -0.6668  1.5350 -1.5607
   43MOL0     H 5624   2.546   0.471   0.659  1.9192 -0.6956 -1.3161
   43MOL0     H 5625   2.537   0.207   0.816 -2.1424  1.4578 -0.9294
   43MOL0     H 5626   2.621   0.250   0.665  3.2083  2.4285 -0.3481
   43MOL0     H 5627   2.737   0.418   0.815  2.4841 -0.4633 -0.7819
   43MOL0     H 5628   2.786   0.244   0.831 -0.6074  0.8218 -1.0862
   43MOL0     H 5629   2.583   0.527   1.021 -1.2092  0.1828  1.1516
   43MOL0     H 5630   2.548   0.403   1.372  2.2119 -0.6988  1.1618
   43MOL0     H 5631   2.466   0.509   1.247  0.0346 -0.5361  1.2578
   43MOL0     H 5632   2.676   0.636   1.238 -2.9889 -1.3262 -0.8299
   43MOL0     H 5633   2.740   0.524   1.360  1.1683  1.0723 -2.4925
   43MOL0     H 5634   2.503   0.697   1.430 -0.1914  1.1326  1.8985
   43MOL0     H 5635   2.611   0.623   1.538  1.7240  0.3585  0.5022
   43MOL0     H 5636   2.788   0.767   1.446 -0.8713 -2.5603 -3.8125
   43MOL0     H 5637   2.652   0.856   1.536  3.5458  2.5930  1.0522
   43MOL0     H 5638   2.850   0.997   1.486 -1.1170  0.2340  0.6415
   43MOL0     H 5639   2.999   1.190   1.401  0.0021  0.9837 -0.7260
   43MOL0     H 5640   2.936   1.595   0.983  0.0608 -1.9696  3.2045
   43MOL0     H 5641   3.085   1.773   0.917  1.6812  0.2252  0.4342
   43MOL0     H 5642   3.418   1.822   0.699 -0.4700 -1.1422 -1.6817
   43MOL0     H 5643   3.392   1.642   0.704  3.1438 -1.0269 -1.0641
   43MOL0     H 5644   3.597   1.648   0.856 -1.0601 -0.0955 -0.3307
   43MOL0     H 5645   3.602   1.829   0.821 -1.6907  0.3887  1.1975
   43MOL0     H 5646   3.645   1.783   0.577 -2.2751  2.5208  0.7854
   43MOL0     H 5647   3.670   1.611   0.619  1.5503  0.1559  0.0873
   43MOL0     H 5648   3.836   1.832   0.723  3.3154 -0.2397 -0.6415
   43MOL0     H 5649   3.857   1.659   0.762  2.2425 -0.6888 -2.8518
   43MOL0     H 5650   3.863   1.753   0.473  2.3090  0.0483 -1.8300
   43MOL0     H 5651   3.908   1.602   0.518  2.0424  0.5083 -2.5000
   43MOL0     H 5652   4.119   1.697   0.507  0.7179  1.6681 -0.7783
   43MOL0     H 5653   4.095   1.710   0.684  2.9621  0.8367 -1.3351
   43MOL0     H 5654   4.051   1.907   0.455 -1.8840  0.6983 -0.3066
   43MOL0     H 5655   3.960   1.936   0.604 -0.2536  1.5653 -2.5193
   43MOL0     H 5656   4.172   1.920   0.738 -4.0083  0.5411  0.3676
   43MOL0     H 5657   4.175   2.053   0.615 -1.8258 -0.0140  0.1765
   43MOL0     H 5658   3.408   1.469   0.895  0.4341 -3.4482  2.6110
   43MOL0     H 5659   3.247   1.317   0.997 -2.9689 -0.4717  0.2364
   43MOL0     H 5660   2.789   1.172   1.030  1.0966  0.9630  0.2430
   43MOL0     H 5661   2.661   1.000   1.112  0.1721 -0.6808  0.5302
   43MOL0     H 5662   1.697   0.214   0.427 -0.1615 -0.2039  0.8489
   43MOL0     H 5663   1.446   0.178   0.443 -0.1878  1.5087 -1.2775
   43MOL0     H 5664   1.074   0.269   0.540 -1.7069 -1.2929 -2.8200
   43MOL0     H 5665   0.846   0.277   0.520 -0.0016  1.8811  0.3488
   43MOL0     H 5666   0.606   0.110   0.879 -0.3268 -1.3906 -0.7187
   43MOL0     H 5667   0.489   0.220   0.820  0.9079 -0.2113 -0.7316
   43MOL0     H 5668   0.746   0.316   0.932  0.4767 -4.2490  2.6528
   43MOL0     H 5669   0.601   0.407   0.897 -1.0539 -1.3763 -2.6365
   43MOL0     H 5670   0.620   0.167   1.101 -1.4035  0.9356  2.5201
   43MOL0     H 5671   0.485   0.264   1.073  0.0061  2.5562  1.1578
   43MOL0     H 5672   0.592   0.339   1.270 -1.9722 -1.9083 -1.0063
   43MOL0     H 5673   0.748   0.341   1.197 -0.9219 -1.1770  2.5038
   43MOL0     H 5674   0.635   0.736   1.099 -0.3174 -0.0361  2.2243
   43MOL0     H 5675   0.806   0.075   0.901 -0.5014 -0.1289 -0.6473
   43MOL0     H 5676   1.035   0.042   0.903 -0.7458  0.2896  0.7697
   44MOL0     O 5677   1.072   0.848   6.920 -0.2042 -0.2718  0.2362
   44MOL0     C 5678   1.107   0.776   6.825  0.1070  0.1007 -0.1246
   44MOL0     O 5679   1.025   0.712   6.736 -0.7336 -0.4209 -0.0985
   44MOL0     C 5680   0.889   0.732   6.731  0.9363 -0.1567 -0.4481
   44MOL0     C 5681   0.799   0.637   6.697  0.4118 -1.3579 -1.1499
   44MOL0     C 5682   0.657   0.650   6.706 -0.2956 -0.0381 -1.0852
   44MOL0     C 5683   0.594   0.769   6.750 -0.0289  0.5418  0.6607
   44MOL0     O 5684   0.463   0.785   6.760  0.1818 -0.6032 -0.0711
   44MOL0     C 5685   0.381   0.709   6.658 -0.7588 -1.0317  0.4155
   44MOL0     C 5686   0.236   0.732   6.675 -0.8280 -0.5935  0.4865
   44MOL0     C 5687   0.211   0.874   6.599  0.1946  0.1533  0.1728
   44MOL0     C 5688   0.162   0.980   6.694 -0.1166  0.7413 -0.1040
   44MOL0     C 5689   0.160   1.121   6.649  0.0303 -0.1306  0.1125
   44MOL0     C 5690   0.075   1.200   6.748  0.0324 -0.0334 -0.2659
   44MOL0     C 5691   0.072   1.350   6.712  0.0847  0.0378  0.5941
   44MOL0     C 5692   0.184   1.418   6.630 -0.7971 -0.7981  0.8411
   44MOL0     N 5693   0.316   1.396   6.692 -0.7636  0.2685  0.1752
   44MOL0     C 5694   0.425   1.351   6.615  0.2648 -0.1425 -0.3713
   44MOL0     C 5695   0.513   1.333   6.712  0.9627  0.1627 -0.6169
   44MOL0     C 5696   0.650   1.277   6.703  0.2489 -0.3368 -0.0498
   44MOL0     C 5697   0.764   1.387   6.729  0.4031  0.7658  0.1724
   44MOL0     C 5698   0.895   1.298   6.711  0.1463 -0.0866  0.3393
   44MOL0     C 5699   1.008   1.394   6.677 -0.1417  0.8195 -0.3688
   44MOL0     O 5700   1.039   1.378   6.538 -0.1266  0.3636 -0.4256
   44MOL0     C 5701   1.147   1.433   6.480 -0.2769 -0.1357  0.6245
   44MOL0     C 5702   1.231   1.528   6.539  0.4310 -0.2319  0.1886
   44MOL0     C 5703   1.339   1.572   6.464 -0.5783 -0.0943  0.4793
   44MOL0     C 5704   1.351   1.534   6.328 -0.7252  0.0494  0.9048
   44MOL0     C 5705   1.458   1.611   6.248  0.0805 -0.2727  0.3131
   44MOL0     O 5706   1.539   1.691   6.322  0.5517 -0.2774 -0.1874
   44MOL0     C 5707   1.629   1.759   6.246 -0.7120  0.1223  0.1090
   44MOL0     C 5708   1.753   1.774   6.308 -0.5032  0.8873 -0.5163
   44MOL0     C 5709   1.855   1.845   6.244  0.8447  0.3797 -0.2023
   44MOL0     C 5710   1.841   1.905   6.115  0.7920  0.3525  0.0713
   44MOL0     O 5711   1.936   1.992   6.070  0.1480  0.3335 -0.2728
   44MOL0     C 5712   1.897   2.125   6.087  1.1064 -0.3121 -0.7229
   44MOL0     C 5713   2.010   2.220   6.044 -0.1191 -1.6179  0.8785
   44MOL0     C 5714   2.129   2.220   6.136  0.1672  0.9767 -0.2997
   44MOL0     C 5715   2.248   2.306   6.070  0.4577  0.1415  0.3117
   44MOL0     C 5716   2.373   2.305   6.157  0.8184  0.5306  0.3051
   44MOL0     C 5717   2.466   2.184   6.134  0.0506  0.0091 -0.0598
   44MOL0     C 5718   2.456   2.078   6.249 -1.1425 -0.0771  0.1015
   44MOL0     C 5719   2.532   2.120   6.373  0.0067 -0.3513  0.3355
   44MOL0    Cl 5720   2.524   1.986   6.502 -0.6915 -0.0391 -0.6455
   44MOL0     C 5721   1.714   1.890   6.066 -0.1689  0.4288  0.3392
   44MOL0     C 5722   1.608   1.822   6.132  0.0785  0.6341  0.1848
   44MOL0     O 5723   1.451   1.598   6.125 -0.0469 -0.4375 -0.0479
   44MOL0     C 5724   1.274   1.430   6.271 -0.1764  0.9390 -0.3939
   44MOL0     C 5725   1.162   1.386   6.346  0.3268  0.3346 -0.5197
   44MOL0     N 5726   0.461   1.366   6.838 -1.1233 -0.4971 -0.7476
   44MOL0     N 5727   0.339   1.397   6.822 -0.0224 -0.0550 -0.3547
   44MOL0     C 5728   0.681   0.859   6.804 -0.8519  0.2187  0.6692
   44MOL0     C 5729   0.822   0.845   6.793  0.3253  0.0488  0.6147
   44MOL0     C 5730   1.257   0.748   6.816  0.1314 -0.6661  0.9126
   44MOL0     C 5731   1.321   0.678   6.711  0.6326 -0.6786 -0.2148
   44MOL0     C 5732   1.458   0.672   6.712 -0.0124  0.0284 -0.2490
   44MOL0     C 5733   1.543   0.731   6.814  0.8577 -0.0145 -0.0142
   44MOL0     O 5734   1.673   0.750   6.798 -0.3779 -0.1322  0.6675
   44MOL0     C 5735   1.736   0.689   6.686  0.1251  0.5916 -0.2004
   44MOL0     C 5736   1.891   0.696   6.700 -0.4552 -0.0155 -0.3342
   44MOL0     C 5737   1.943   0.834   6.735  0.4886 -0.4054  0.8769
   44MOL0     C 5738   1.942   0.940   6.618  0.9062  0.5306 -0.3451
   44MOL0     C 5739   1.973   1.076   6.688 -0.9798  0.2274 -0.1372
   44MOL0     C 5740   2.013   1.180   6.736 -0.5965 -0.3429 -0.3187
   44MOL0     C 5741   1.474   0.801   6.915 -0.6123  0.9986  1.1598
   44MOL0     C 5742   1.340   0.809   6.912  0.5309  0.2145  0.5263
   44MOL0     H 5743   0.829   0.543   6.651  0.3833 -1.4293 -1.0224
   44MOL0     H 5744   0.590   0.573   6.669  0.0794 -1.6944  1.4118
   44MOL0     H 5745   0.390   0.602   6.678 -2.9982 -1.4756 -0.6611
   44MOL0     H 5746   0.418   0.727   6.557  2.0004 -0.7005  1.4018
   44MOL0     H 5747   0.212   0.742   6.781 -1.5359  3.2760  0.0939
   44MOL0     H 5748   0.174   0.657   6.624 -0.5574 -1.6466  1.6746
   44MOL0     H 5749   0.126   0.853   6.533  0.1122 -0.9366  0.6085
   44MOL0     H 5750   0.297   0.908   6.541 -0.0091 -0.7876 -0.6875
   44MOL0     H 5751   0.058   0.953   6.713 -0.4385 -0.3172 -2.8411
   44MOL0     H 5752   0.227   0.970   6.781  0.1488  0.0028 -0.3776
   44MOL0     H 5753   0.132   1.129   6.543 -2.1663 -4.7246  0.1202
   44MOL0     H 5754   0.265   1.153   6.648  1.9401 -5.3869  1.6330
   44MOL0     H 5755   0.111   1.199   6.852 -2.5927  2.0122  0.7997
   44MOL0     H 5756  -0.030   1.168   6.747  0.7382 -2.5156  0.1318
   44MOL0     H 5757  -0.014   1.371   6.648  0.9321  1.2527 -0.1686
   44MOL0     H 5758   0.057   1.400   6.808  0.3960 -2.2579  1.9200
   44MOL0     H 5759   0.173   1.526   6.615 -0.5282 -0.6740  1.5445
   44MOL0     H 5760   0.170   1.386   6.526 -1.3780  1.4029  0.1815
   44MOL0     H 5761   0.446   1.342   6.509  1.6018  1.5690 -0.2971
   44MOL0     H 5762   0.658   1.246   6.599  1.9434  0.6695 -0.2484
   44MOL0     H 5763   0.660   1.186   6.763 -0.3644 -1.5650 -1.7316
   44MOL0     H 5764   0.747   1.425   6.830 -0.0040  2.2842 -0.4535
   44MOL0     H 5765   0.748   1.460   6.650  1.2083  0.4103 -0.3355
   44MOL0     H 5766   0.904   1.238   6.802 -0.6679 -0.3487  0.2535
   44MOL0     H 5767   0.880   1.232   6.625  0.6875  0.9359 -0.5698
   44MOL0     H 5768   1.094   1.367   6.739 -0.7130 -1.6116 -0.5405
   44MOL0     H 5769   0.982   1.497   6.701 -1.8428  0.7729 -1.8279
   44MOL0     H 5770   1.219   1.569   6.639 -0.0401  1.2207 -0.4281
   44MOL0     H 5771   1.409   1.640   6.510 -0.1312 -2.5324  3.7634
   44MOL0     H 5772   1.775   1.726   6.403  3.5164  2.7880 -0.2608
   44MOL0     H 5773   1.950   1.849   6.297  1.9516 -4.3988 -1.3472
   44MOL0     H 5774   1.865   2.142   6.190  0.6538  1.9922 -1.2023
   44MOL0     H 5775   1.813   2.136   6.019  0.8986 -2.1775 -0.8376
   44MOL0     H 5776   1.976   2.324   6.049  2.0161 -0.9095  1.8273
   44MOL0     H 5777   2.049   2.198   5.945  1.2961 -3.4668  1.7901
   44MOL0     H 5778   2.163   2.117   6.150  2.5734  2.0856  3.1585
   44MOL0     H 5779   2.092   2.264   6.229  0.3373  2.7921 -1.0336
   44MOL0     H 5780   2.270   2.278   5.967 -1.0921  0.9787 -0.2769
   44MOL0     H 5781   2.217   2.410   6.061 -1.2035 -0.4078 -0.7690
   44MOL0     H 5782   2.336   2.330   6.257 -3.6641  0.6191 -1.1197
   44MOL0     H 5783   2.411   2.402   6.125 -2.1813  1.8934  0.5080
   44MOL0     H 5784   2.573   2.210   6.129  0.0129 -0.0495 -2.1425
   44MOL0     H 5785   2.435   2.144   6.037 -3.4262  1.8307  0.1565
   44MOL0     H 5786   2.352   2.050   6.270 -1.0872  0.3499  0.9903
   44MOL0     H 5787   2.505   1.986   6.218 -1.9599 -1.5678  2.9063
   44MOL0     H 5788   2.483   2.202   6.427 -1.1700  0.2359 -1.5478
   44MOL0     H 5789   2.636   2.152   6.360 -0.2275  0.5284  0.5190
   44MOL0     H 5790   1.696   1.933   5.968  0.6841  1.1238  0.4731
   44MOL0     H 5791   1.511   1.834   6.084 -0.6399 -2.1344  0.7436
   44MOL0     H 5792   1.284   1.398   6.168 -1.1835 -0.1416 -0.1782
   44MOL0     H 5793   1.098   1.307   6.309 -1.5056  0.7544  1.5229
   44MOL0     H 5794   0.663   0.954   6.854  0.5556  0.6995  0.3295
   44MOL0     H 5795   0.877   0.935   6.820  0.9264 -0.5800  1.5238
   44MOL0     H 5796   1.262   0.648   6.625  1.8731  1.4857 -1.9427
   44MOL0     H 5797   1.501   0.627   6.623  0.3329 -0.6920  0.2726
   44MOL0     H 5798   1.699   0.735   6.593 -0.0380  0.3298 -0.2638
   44MOL0     H 5799   1.705   0.585   6.677 -1.2582  0.5736  3.3522
   44MOL0     H 5800   1.906   0.642   6.794  1.8335 -1.1033 -1.2586
   44MOL0     H 5801   1.943   0.640   6.622 -0.0897 -2.5019  1.5792
   44MOL0     H 5802   2.050   0.836   6.760  1.2768 -1.4371 -1.9648
   44MOL0     H 5803   1.888   0.866   6.824  2.0313  1.3549  1.2583
   44MOL0     H 5804   2.011   0.930   6.534  1.3602  3.3251 -0.3920
   44MOL0     H 5805   1.841   0.942   6.576 -0.7518 -1.3667  3.0338
   44MOL0     H 5806   2.047   1.275   6.772 -1.8245 -1.4382  4.3901
   44MOL0     H 5807   1.549   0.845   6.981 -0.3409 -0.3360  1.7711
   44MOL0     H 5808   1.302   0.864   6.998  0.9225  1.2786  0.0390
   45MOL0     O 5809   2.704   8.283   7.873  0.6601 -0.0482  0.2145
   45MOL0     C 5810   2.785   8.247   7.795  0.1658  0.6507  0.2040
   45MOL0     O 5811   2.767   8.212   7.666  0.8135 -1.1196 -0.0559
   45MOL0     C 5812   2.642   8.217   7.623  0.5763  1.0059 -1.0758
   45MOL0     C 5813   2.560   8.106   7.639  0.1729 -0.6064 -0.1124
   45MOL0     C 5814   2.421   8.122   7.592  0.1928 -0.2897 -0.2385
   45MOL0     C 5815   2.362   8.243   7.535 -1.0310  0.4365  0.2233
   45MOL0     O 5816   2.228   8.247   7.484  0.0589 -0.3027 -0.7004
   45MOL0     C 5817   2.179   8.135   7.401 -0.0061 -0.1933  0.1774
   45MOL0     C 5818   2.101   8.204   7.284 -0.1460 -0.6674 -0.3812
   45MOL0     C 5819   1.976   8.122   7.260  0.2338  0.4998 -0.3241
   45MOL0     C 5820   1.873   8.175   7.152 -1.2088 -0.0220  0.1840
   45MOL0     C 5821   1.843   8.325   7.171 -0.5134 -0.1110 -0.6504
   45MOL0     C 5822   1.730   8.382   7.085  0.9921 -0.0018  0.9697
   45MOL0     C 5823   1.716   8.538   7.082 -0.0787  0.1041 -0.1697
   45MOL0     C 5824   1.687   8.594   7.224 -0.4655 -0.6348  0.0756
   45MOL0     N 5825   1.646   8.734   7.222 -0.4372 -0.5871 -0.6907
   45MOL0     C 5826   1.575   8.805   7.121  0.3054  1.0192  1.2715
   45MOL0     C 5827   1.570   8.934   7.164 -0.0393 -0.2481  1.2492
   45MOL0     C 5828   1.513   9.053   7.094  0.2075  0.5187  0.5825
   45MOL0     C 5829   1.383   9.082   7.176 -0.5508  0.3518 -0.0740
   45MOL0     C 5830   1.307   9.197   7.124  0.5910  0.2151  0.7213
   45MOL0     C 5831   1.185   9.235   7.205 -1.1823  0.1649  0.3235
   45MOL0     O 5832   1.111   9.113   7.230 -0.4570 -0.1450  0.7081
   45MOL0     C 5833   1.023   9.108   7.343 -0.3343 -0.7380  0.4909
   45MOL0     C 5834   0.988   9.218   7.428 -1.1633 -0.3467 -0.0083
   45MOL0     C 5835   0.907   9.194   7.542  0.5960 -0.3245  0.2887
   45MOL0     C 5836   0.839   9.069   7.556 -0.4855  1.0335 -0.3646
   45MOL0     C 5837   0.730   9.046   7.654 -0.5111  0.3832 -0.9125
   45MOL0     O 5838   0.715   9.154   7.742  0.0653 -1.0174  0.7552
   45MOL0     C 5839   0.640   9.161   7.855 -0.2206  0.0105  0.0808
   45MOL0     C 5840   0.596   9.292   7.886 -1.4130 -0.7695  0.2071
   45MOL0     C 5841   0.532   9.325   8.003 -0.0140  0.0065 -0.4591
   45MOL0     C 5842   0.500   9.223   8.092  0.2874 -0.2869 -0.0225
   45MOL0     O 5843   0.456   9.257   8.213 -0.9191 -0.0948  0.1878
   45MOL0     C 5844   0.492   9.177   8.331  0.4189 -0.6431  0.8893
   45MOL0     C 5845   0.413   9.236   8.452 -0.1843  0.3600  0.5749
   45MOL0     C 5846   0.466   9.181   8.587 -0.8137  0.2086 -0.1570
   45MOL0     C 5847   0.502   9.019   8.575 -0.4425 -0.4131 -0.5301
   45MOL0     C 5848   0.621   8.982   8.659 -0.5397 -0.3687 -0.8472
   45MOL0     C 5849   0.592   8.839   8.694  0.6195  0.4523  0.4846
   45MOL0     C 5850   0.714   8.760   8.751  0.2551 -0.5596 -0.7482
   45MOL0     C 5851   0.682   8.612   8.763 -1.6948 -0.7059 -1.0552
   45MOL0    Cl 5852   0.822   8.514   8.811  0.2720  0.1453 -0.0536
   45MOL0     C 5853   0.538   9.089   8.061 -1.0918 -0.2425  0.6396
   45MOL0     C 5854   0.605   9.061   7.941 -0.4975 -0.2665 -0.1343
   45MOL0     O 5855   0.669   8.944   7.661 -0.2238  0.6563 -0.2569
   45MOL0     C 5856   0.853   8.970   7.462 -1.1361  0.3318  0.8572
   45MOL0     C 5857   0.947   8.990   7.353 -0.5108 -0.1427 -0.7859
   45MOL0     N 5858   1.625   8.940   7.296  1.0400  0.0014 -0.4121
   45MOL0     N 5859   1.678   8.825   7.319 -0.4195 -0.6805 -0.6564
   45MOL0     C 5860   2.448   8.351   7.538  0.7407  0.6970 -0.5423
   45MOL0     C 5861   2.585   8.345   7.586  0.7127  0.3282  0.3561
   45MOL0     C 5862   2.929   8.250   7.838  0.2073  0.1002 -0.5276
   45MOL0     C 5863   3.017   8.140   7.805 -0.3557  1.5739 -0.2686
   45MOL0     C 5864   3.148   8.141   7.870  0.3533  1.0482 -0.5022
   45MOL0     C 5865   3.192   8.251   7.944 -0.7592 -0.4585 -0.3592
   45MOL0     O 5866   3.307   8.253   8.015 -0.5255  0.3276 -0.2483
   45MOL0     C 5867   3.392   8.351   7.963 -0.4921  0.3778  0.1681
   45MOL0     C 5868   3.539   8.315   8.001 -0.2133  0.4171  0.4690
   45MOL0     C 5869   3.644   8.377   7.903 -0.2386 -0.7234 -0.0903
   45MOL0     C 5870   3.781   8.338   7.928 -0.1224 -0.4843 -0.8544
   45MOL0     C 5871   3.869   8.436   7.984  0.3982 -0.4764 -0.8491
   45MOL0     C 5872   3.943   8.521   8.035 -0.6557 -0.5916  0.0788
   45MOL0     C 5873   3.108   8.357   7.955 -0.3324 -0.2296  0.1774
   45MOL0     C 5874   2.978   8.359   7.910 -0.0706 -0.1573 -0.5623
   45MOL0     H 5875   2.575   8.013   7.692  1.3395  0.6165  1.8292
   45MOL0     H 5876   2.363   8.031   7.598 -3.9520  2.0335 -1.1372
   45MOL0     H 5877   2.113   8.072   7.461 -0.6330  1.6382  1.4867
   45MOL0     H 5878   2.260   8.077   7.355 -1.5627 -1.8261 -0.5942
   45MOL0     H 5879   2.157   8.208   7.190 -1.6452 -0.4585 -1.3092
   45MOL0     H 5880   2.080   8.305   7.320  0.1227 -1.4362  2.1035
   45MOL0     H 5881   1.918   8.118   7.353  3.6952 -1.1461  1.9824
   45MOL0     H 5882   2.009   8.019   7.240  1.5594  0.2410  2.6374
   45MOL0     H 5883   1.920   8.167   7.053  1.7537 -2.7830  1.6191
   45MOL0     H 5884   1.782   8.116   7.141 -2.3121  1.6915 -0.2285
   45MOL0     H 5885   1.938   8.377   7.152 -1.5601  1.2252 -2.5819
   45MOL0     H 5886   1.814   8.349   7.274  1.0630  3.2617 -0.8463
   45MOL0     H 5887   1.635   8.351   7.130 -0.6117  1.1106 -1.4304
   45MOL0     H 5888   1.737   8.345   6.982  1.6328 -4.1898  2.3224
   45MOL0     H 5889   1.811   8.573   7.040 -1.5253  3.4024 -1.0516
   45MOL0     H 5890   1.631   8.562   7.017 -0.1480  2.0940  0.5816
   45MOL0     H 5891   1.775   8.585   7.289 -1.0840 -0.7265  0.9272
   45MOL0     H 5892   1.608   8.533   7.269  1.2989 -0.1421  4.3978
   45MOL0     H 5893   1.549   8.771   7.021  3.2431  0.3830  0.6144
   45MOL0     H 5894   1.483   9.021   6.993  1.2171  1.7468 -0.1293
   45MOL0     H 5895   1.574   9.142   7.077 -1.8750  1.4211 -3.7327
   45MOL0     H 5896   1.417   9.106   7.276  1.8906 -0.9297 -0.5266
   45MOL0     H 5897   1.329   8.987   7.173  0.4017 -0.3309  2.3711
   45MOL0     H 5898   1.367   9.284   7.098 -1.4432  1.3679 -0.4524
   45MOL0     H 5899   1.262   9.173   7.027 -0.5031  1.5553  0.8737
   45MOL0     H 5900   1.125   9.306   7.147  0.9655  0.3340 -1.8537
   45MOL0     H 5901   1.233   9.288   7.287  0.1299  0.8421 -0.8455
   45MOL0     H 5902   1.043   9.310   7.410 -0.1284 -0.6078  1.5845
   45MOL0     H 5903   0.893   9.277   7.611  2.7287 -1.4869  2.2665
   45MOL0     H 5904   0.625   9.382   7.833  2.0648 -1.6109  0.4363
   45MOL0     H 5905   0.512   9.427   8.034 -2.3627 -0.0785 -1.4572
   45MOL0     H 5906   0.598   9.182   8.356  0.8816  0.2407 -1.0474
   45MOL0     H 5907   0.459   9.073   8.317  0.4449 -0.4803 -0.5905
   45MOL0     H 5908   0.304   9.231   8.459 -0.5530 -0.5840 -3.2116
   45MOL0     H 5909   0.438   9.342   8.452  1.7930 -0.0175  3.4474
   45MOL0     H 5910   0.392   9.183   8.668 -2.4070 -1.7887 -1.4659
   45MOL0     H 5911   0.554   9.237   8.619 -0.4364 -0.9232  0.8626
   45MOL0     H 5912   0.409   8.971   8.607 -0.2653  0.2460  1.0541
   45MOL0     H 5913   0.528   8.985   8.474  2.6939 -1.3939  0.4877
   45MOL0     H 5914   0.631   9.048   8.746  0.2483 -0.3341 -0.9593
   45MOL0     H 5915   0.719   8.976   8.611 -0.5905 -0.6276 -0.9187
   45MOL0     H 5916   0.559   8.783   8.606  0.6870 -1.0660  1.3873
   45MOL0     H 5917   0.506   8.839   8.762 -1.5402  2.4935 -2.0190
   45MOL0     H 5918   0.800   8.764   8.683  0.3327 -2.5278 -0.8240
   45MOL0     H 5919   0.750   8.785   8.851 -0.3773 -0.0191 -0.6481
   45MOL0     H 5920   0.653   8.584   8.661 -2.5872  0.7561 -1.2358
   45MOL0     H 5921   0.596   8.590   8.827 -3.4723 -0.9917 -3.4134
   45MOL0     H 5922   0.497   9.016   8.131 -1.7657  1.1709  1.7830
   45MOL0     H 5923   0.630   8.958   7.918 -2.0223 -1.0140  1.3118
   45MOL0     H 5924   0.803   8.875   7.476  2.2491 -2.1147 -1.8781
   45MOL0     H 5925   0.972   8.907   7.288 -0.5199  0.2440 -1.2877
   45MOL0     H 5926   2.402   8.439   7.495 -5.2933 -2.0486 -0.7244
   45MOL0     H 5927   2.640   8.438   7.588 -2.2235  2.2028  1.4352
   45MOL0     H 5928   2.986   8.059   7.740  1.5770  1.7126 -1.4464
   45MOL0     H 5929   3.212   8.053   7.865 -0.5882  0.3043  0.2692
   45MOL0     H 5930   3.360   8.445   8.008  2.7132  0.3906  2.8590
   45MOL0     H 5931   3.403   8.341   7.855  2.1242 -1.2134  0.4779
   45MOL0     H 5932   3.548   8.341   8.107  3.7534 -2.0879  0.9368
   45MOL0     H 5933   3.555   8.208   7.988  0.0598  0.6220 -1.0329
   45MOL0     H 5934   3.639   8.485   7.922  2.1916 -0.5262 -0.2074
   45MOL0     H 5935   3.622   8.347   7.800  2.9196  2.6018 -2.0091
   45MOL0     H 5936   3.779   8.247   7.989 -2.7411 -1.9911 -2.9621
   45MOL0     H 5937   3.835   8.313   7.836  0.4548  1.0515 -0.9538
   45MOL0     H 5938   3.992   8.598   8.092 -0.8706  2.1690 -3.1773
   45MOL0     H 5939   3.139   8.435   8.025  2.7244 -2.9885  2.1796
   45MOL0     H 5940   2.908   8.438   7.934 -0.6833  0.2297 -3.2990
   46MOL0     O 5941   4.367   9.707   8.802  0.4265 -0.1463  0.2748
   46MOL0     C 5942   4.353   9.628   8.705 -0.4821 -0.8162  0.9846
   46MOL0     O 5943   4.451   9.611   8.612 -0.1680  0.1523 -0.8371
   46MOL0     C 5944   4.571   9.668   8.634 -0.2832  0.4937  0.4511
   46MOL0     C 5945   4.641   9.697   8.514 -0.4113  0.6390  0.2987
   46MOL0     C 5946   4.768   9.747   8.510 -0.3397 -0.1848  0.8547
   46MOL0     C 5947   4.837   9.763   8.630 -0.7195  0.9451 -0.7746
   46MOL0     O 5948   4.966   9.791   8.638 -0.0018 -0.2066  0.2381
   46MOL0     C 5949   5.042   9.701   8.548 -0.1138  0.2288  0.6636
   46MOL0     C 5950   5.180   9.731   8.569 -0.5944 -0.0639 -0.5059
   46MOL0     C 5951   5.219   9.869   8.524  0.1071  0.1508 -0.4607
   46MOL0     C 5952   5.355   9.934   8.562  0.0569 -0.3090 -0.3618
   46MOL0     C 5953   5.380   9.969   8.706  0.2588 -0.2570 -0.2698
   46MOL0     C 5954   5.462  10.097   8.720 -0.0664  0.2953  0.4095
   46MOL0     C 5955   5.480  10.144   8.861 -1.0848  1.1533  0.2822
   46MOL0     C 5956   5.619  10.095   8.911  0.3570 -0.8467 -0.8318
   46MOL0     N 5957   5.733  10.184   8.855 -0.5284  0.6560 -0.2084
   46MOL0     C 5958   5.717  10.293   8.776  1.1029 -0.9719 -0.0504
   46MOL0     C 5959   5.844  10.349   8.768  0.6749 -0.2799  0.0084
   46MOL0     C 5960   5.864  10.480   8.695 -0.5058  0.1062  0.6669
   46MOL0     C 5961   5.868  10.470   8.546 -0.4846 -0.2856  0.5439
   46MOL0     C 5962   6.004  10.436   8.501 -0.0397 -0.7200 -1.1235
   46MOL0     C 5963   6.003  10.393   8.354  0.0570 -0.3077  0.3691
   46MOL0     O 5964   5.951  10.259   8.320  0.4225 -0.0641 -0.5803
   46MOL0     C 5965   5.960  10.153   8.412  0.1645 -0.7390  0.4713
   46MOL0     C 5966   5.847  10.087   8.447 -0.2797 -0.0683 -0.4629
   46MOL0     C 5967   5.869   9.965   8.524 -0.2571 -0.0355  0.0379
   46MOL0     C 5968   5.989   9.918   8.576 -1.3385 -1.3153 -0.1379
   46MOL0     C 5969   5.997   9.809   8.673 -0.8208 -0.6484 -0.3110
   46MOL0     O 5970   5.895   9.800   8.767 -0.0397  0.1764  0.0444
   46MOL0     C 5971   5.922   9.714   8.869 -0.4470  0.5250 -0.5343
   46MOL0     C 5972   5.997   9.752   8.977  0.0922 -0.8093  0.4185
   46MOL0     C 5973   6.030   9.664   9.073 -1.1883  0.3297 -0.7436
   46MOL0     C 5974   5.987   9.536   9.067 -0.4850  0.4738 -0.0499
   46MOL0     O 5975   5.993   9.442   9.164  0.8794 -0.7326  0.0091
   46MOL0     C 5976   6.048   9.471   9.289 -0.2022  0.4854 -0.1916
   46MOL0     C 5977   6.040   9.366   9.400  0.2256 -0.6254 -0.7030
   46MOL0     C 5978   6.126   9.400   9.516  0.4742  0.7006  0.4115
   46MOL0     C 5979   6.134   9.289   9.626  1.0429  0.7726  0.6585
   46MOL0     C 5980   6.226   9.352   9.729 -0.2388 -0.4561  0.0356
   46MOL0     C 5981   6.253   9.256   9.848  0.1566  0.1568 -0.1114
   46MOL0     C 5982   6.323   9.119   9.816  0.4219  0.0369 -0.3154
   46MOL0     C 5983   6.370   9.034   9.933 -0.1631 -0.9487 -0.2182
   46MOL0    Cl 5984   6.256   9.029  10.084 -0.0163  0.6135  0.1957
   46MOL0     C 5985   5.915   9.486   8.961 -0.7298  0.2751  0.9054
   46MOL0     C 5986   5.889   9.578   8.852  0.0052  0.5956  0.2001
   46MOL0     O 5987   6.094   9.734   8.664  0.6113 -0.4506  1.1902
   46MOL0     C 5988   6.099   9.993   8.537  0.0355  0.2821 -1.1564
   46MOL0     C 5989   6.090  10.105   8.457 -0.0116 -0.3392  0.3460
   46MOL0     N 5990   5.931  10.261   8.828 -0.9144  0.9846 -0.6962
   46MOL0     N 5991   5.865  10.152   8.871 -0.5481 -0.2495 -0.5650
   46MOL0     C 5992   4.772   9.736   8.755 -0.3102  0.4576  0.1327
   46MOL0     C 5993   4.639   9.687   8.754  0.0752  0.3770 -1.1446
   46MOL0     C 5994   4.217   9.570   8.684 -0.5439 -0.1769 -0.2849
   46MOL0     C 5995   4.135   9.561   8.796  0.2183  0.4597  0.0885
   46MOL0     C 5996   4.018   9.490   8.783 -0.3664  0.5252  0.2582
   46MOL0     C 5997   3.971   9.437   8.657 -0.7947  0.3530 -0.2552
   46MOL0     O 5998   3.851   9.365   8.638  0.3873 -0.3838 -0.8523
   46MOL0     C 5999   3.747   9.346   8.741 -0.2810 -0.1081 -0.3343
   46MOL0     C 6000   3.609   9.299   8.685 -0.0206  0.5168  0.4581
   46MOL0     C 6001   3.508   9.403   8.642  0.8482 -0.0249 -0.3739
   46MOL0     C 6002   3.367   9.339   8.615 -1.2234 -0.0572 -0.2107
   46MOL0     C 6003   3.368   9.275   8.488 -0.5973  0.0631  0.1158
   46MOL0     C 6004   3.353   9.220   8.380 -0.6284 -0.9139  0.1470
   46MOL0     C 6005   4.056   9.459   8.552  0.2741  0.0373  0.1506
   46MOL0     C 6006   4.179   9.530   8.562  0.2810 -0.0163 -0.1258
   46MOL0     H 6007   4.581   9.684   8.424 -1.8436 -4.0258  1.6443
   46MOL0     H 6008   4.817   9.777   8.418 -0.1338 -0.5597  0.8427
   46MOL0     H 6009   5.025   9.725   8.442  3.6863 -0.0459 -0.1444
   46MOL0     H 6010   5.036   9.594   8.568 -1.1806  0.7611  3.6226
   46MOL0     H 6011   5.239   9.656   8.516 -2.4044 -2.2003  0.3202
   46MOL0     H 6012   5.198   9.716   8.676 -0.5378  1.7541 -0.2249
   46MOL0     H 6013   5.143   9.939   8.562  1.1374  0.8263  0.4040
   46MOL0     H 6014   5.210   9.874   8.415  1.2544 -0.4663 -0.6004
   46MOL0     H 6015   5.439   9.878   8.520  2.2032  2.7416 -0.4719
   46MOL0     H 6016   5.360  10.032   8.513  0.4860 -0.2005 -0.1032
   46MOL0     H 6017   5.437   9.887   8.751 -0.3687 -0.3845  0.3294
   46MOL0     H 6018   5.285   9.985   8.760  0.7012  3.4310 -0.3126
   46MOL0     H 6019   5.423  10.177   8.656 -0.8659  0.0768  0.6049
   46MOL0     H 6020   5.562  10.074   8.681  2.0455  3.3533  3.4601
   46MOL0     H 6021   5.474  10.253   8.866 -2.2864  1.2977 -2.5296
   46MOL0     H 6022   5.401  10.092   8.916  0.2595  0.5180  1.6944
   46MOL0     H 6023   5.649   9.991   8.897  1.1457 -0.4063 -2.6265
   46MOL0     H 6024   5.612  10.109   9.019 -0.6706  1.7048 -1.1481
   46MOL0     H 6025   5.634  10.349   8.734  1.9979  0.5274  0.1181
   46MOL0     H 6026   5.961  10.517   8.730 -1.1095 -0.4607  3.1164
   46MOL0     H 6027   5.787  10.554   8.719 -0.9028  0.6285 -1.9010
   46MOL0     H 6028   5.849  10.571   8.508 -0.1859 -0.2485  0.4953
   46MOL0     H 6029   5.799  10.394   8.508 -1.2095  0.7948 -0.3598
   46MOL0     H 6030   6.062  10.529   8.505  0.4663 -1.0240  2.5010
   46MOL0     H 6031   6.049  10.369   8.575 -1.1280  0.9522  1.2121
   46MOL0     H 6032   6.099  10.404   8.304 -1.7587  1.4996 -3.0875
   46MOL0     H 6033   5.938  10.460   8.298 -1.9610 -3.2894 -1.1614
   46MOL0     H 6034   5.748  10.117   8.415 -0.0402  1.0568 -0.2062
   46MOL0     H 6035   5.783   9.911   8.562 -1.6904  0.5560 -2.1747
   46MOL0     H 6036   6.045   9.849   8.973 -0.7081 -0.2031  3.0614
   46MOL0     H 6037   6.096   9.687   9.156 -2.8939 -1.8573  1.3856
   46MOL0     H 6038   6.003   9.561   9.332  1.9745  1.7342 -0.3799
   46MOL0     H 6039   6.153   9.495   9.272  0.7850 -2.2095  1.4341
   46MOL0     H 6040   6.066   9.277   9.342 -1.2902  0.6949 -3.6570
   46MOL0     H 6041   5.940   9.350   9.441  0.8272 -1.0997  0.6298
   46MOL0     H 6042   6.100   9.494   9.565 -1.0935  0.2181  0.5471
   46MOL0     H 6043   6.229   9.409   9.481  0.3875  1.0863  0.2515
   46MOL0     H 6044   6.040   9.268   9.679  0.2819  0.5695 -0.7291
   46MOL0     H 6045   6.186   9.198   9.593  1.5690  1.0512  0.7107
   46MOL0     H 6046   6.176   9.444   9.761 -2.5914 -1.2267 -1.2097
   46MOL0     H 6047   6.319   9.381   9.677 -2.2545  1.5704 -2.8050
   46MOL0     H 6048   6.161   9.247   9.907 -0.2710 -0.2498 -0.8138
   46MOL0     H 6049   6.324   9.304   9.915  2.2850 -0.1423 -2.0375
   46MOL0     H 6050   6.253   9.051   9.767 -1.5313  0.2428  2.0283
   46MOL0     H 6051   6.408   9.124   9.747 -0.8450 -0.6538 -1.9823
   46MOL0     H 6052   6.462   9.076   9.974 -2.1320  4.2222 -0.3992
   46MOL0     H 6053   6.390   8.932   9.900  0.3271 -1.0792  0.4658
   46MOL0     H 6054   5.892   9.380   8.949 -0.8440 -0.1246  3.9965
   46MOL0     H 6055   5.833   9.547   8.765 -1.1486 -1.5444  1.6257
   46MOL0     H 6056   6.201   9.972   8.567  0.6249  1.2591 -2.4137
   46MOL0     H 6057   6.185  10.154   8.441  0.6590 -1.9743 -0.9082
   46MOL0     H 6058   4.831   9.742   8.846  0.6767  3.9805 -0.5993
   46MOL0     H 6059   4.599   9.654   8.850  1.9310 -0.0633 -0.4720
   46MOL0     H 6060   4.178   9.594   8.890  0.0203  1.8224 -0.2762
   46MOL0     H 6061   3.954   9.485   8.871 -1.5203 -0.5057 -0.5873
   46MOL0     H 6062   3.729   9.438   8.797 -1.6695 -0.0347 -0.8437
   46MOL0     H 6063   3.772   9.264   8.809 -0.4200 -1.4344 -1.8080
   46MOL0     H 6064   3.635   9.225   8.609 -1.1885  0.1938  0.3562
   46MOL0     H 6065   3.562   9.240   8.764  1.0322  1.7851  2.1122
   46MOL0     H 6066   3.554   9.455   8.557  1.1007  0.5216  0.0842
   46MOL0     H 6067   3.489   9.480   8.718 -1.5508 -1.1672  0.2898
   46MOL0     H 6068   3.349   9.268   8.697  1.3678  0.8948  1.3066
   46MOL0     H 6069   3.297   9.422   8.623 -0.0204  0.7921  2.4265
   46MOL0     H 6070   3.337   9.161   8.292  1.8479 -1.1950 -0.1929
   46MOL0     H 6071   4.032   9.402   8.463 -1.5564 -3.5357  2.7027
   46MOL0     H 6072   4.237   9.547   8.471 -0.9917  2.0853 -0.5933
   47MOL0     O 6073   3.836  10.788   5.788 -0.2225 -0.9334 -0.1492
   47MOL0     C 6074   3.816  10.708   5.697 -0.4707  0.2829 -0.0815
   47MOL0     O 6075   3.748  10.586   5.709 -1.1122 -0.2581  0.3340
   47MOL0     C 6076   3.725  10.529   5.833  0.4238  0.8442 -0.7774
   47MOL0     C 6077   3.696  10.593   5.953  0.5135  0.3607 -0.3115
   47MOL0     C 6078   3.668  10.508   6.059  0.0253  0.1245 -0.8918
   47MOL0     C 6079   3.672  10.368   6.056 -0.0460 -0.3771 -0.0347
   47MOL0     O 6080   3.645  10.319   6.184  0.2685 -0.7883  0.1836
   47MOL0     C 6081   3.648  10.173   6.203  0.6868 -0.8743  0.6465
   47MOL0     C 6082   3.789  10.157   6.248 -0.7741 -0.5944 -1.2069
   47MOL0     C 6083   3.824  10.005   6.288 -0.0983 -0.1946  0.6816
   47MOL0     C 6084   3.726   9.945   6.384 -0.0302 -0.4839 -0.4494
   47MOL0     C 6085   3.757   9.811   6.434 -0.3266 -0.5711 -0.8315
   47MOL0     C 6086   3.629   9.758   6.501  0.8908  1.0813 -0.5633
   47MOL0     C 6087   3.632   9.617   6.575 -0.2423 -0.1929  0.2377
   47MOL0     C 6088   3.695   9.623   6.720  0.4789 -0.5413 -0.6122
   47MOL0     N 6089   3.775   9.512   6.766  0.1891  0.4622  0.0031
   47MOL0     C 6090   3.773   9.386   6.706  0.1052 -0.7036 -0.2481
   47MOL0     C 6091   3.829   9.296   6.793 -0.2309 -0.7714  0.6518
   47MOL0     C 6092   3.828   9.141   6.786  0.3163  0.4570  0.6433
   47MOL0     C 6093   3.717   9.085   6.882 -0.6519  0.2238 -0.7707
   47MOL0     C 6094   3.667   8.940   6.866 -0.4586 -0.6999  0.3903
   47MOL0     C 6095   3.580   8.923   6.749 -0.2550 -0.6334 -0.0162
   47MOL0     O 6096   3.593   8.782   6.709 -0.3893  0.1255 -0.5716
   47MOL0     C 6097   3.617   8.781   6.582 -0.5103 -0.6907  0.5453
   47MOL0     C 6098   3.756   8.795   6.545 -0.2757 -0.1067 -0.4680
   47MOL0     C 6099   3.793   8.789   6.410 -0.8314  0.2086 -0.6882
   47MOL0     C 6100   3.693   8.768   6.307 -0.0508  0.0782  0.3741
   47MOL0     C 6101   3.731   8.768   6.161 -0.1550 -1.0561 -0.1763
   47MOL0     O 6102   3.862   8.805   6.135 -0.1085  0.9784  1.3796
   47MOL0     C 6103   3.899   8.843   6.003  0.1913 -1.3814 -0.9948
   47MOL0     C 6104   3.828   8.893   5.896 -0.6821 -0.2822 -0.3252
   47MOL0     C 6105   3.885   8.936   5.777  0.3624  0.2583  0.0678
   47MOL0     C 6106   4.021   8.913   5.756 -0.0887  0.6523 -0.7303
   47MOL0     O 6107   4.089   8.938   5.634  0.0171  0.7256  0.0690
   47MOL0     C 6108   4.052   9.056   5.560 -0.0881 -0.2745 -0.4880
   47MOL0     C 6109   4.087   9.190   5.629 -0.2301  0.5693 -0.9808
   47MOL0     C 6110   4.233   9.190   5.688 -0.6299 -0.8134  0.0353
   47MOL0     C 6111   4.284   9.340   5.694 -0.5101 -0.3284 -0.0649
   47MOL0     C 6112   4.435   9.372   5.698  0.6920 -0.9422 -0.3996
   47MOL0     C 6113   4.500   9.374   5.559 -0.0951  1.0434  0.5026
   47MOL0     C 6114   4.642   9.416   5.574 -0.8654 -0.0931 -0.4711
   47MOL0     C 6115   4.743   9.310   5.558 -0.5806  0.3562 -0.1231
   47MOL0    Cl 6116   4.749   9.232   5.402 -0.1531  0.1878 -0.1703
   47MOL0     C 6117   4.100   8.869   5.861  0.7217  0.1429  0.3927
   47MOL0     C 6118   4.042   8.836   5.985  0.9741 -0.1419 -0.2258
   47MOL0     O 6119   3.648   8.744   6.081 -0.8574 -0.7630  0.1145
   47MOL0     C 6120   3.560   8.742   6.345 -0.3078 -0.0962  0.5521
   47MOL0     C 6121   3.526   8.754   6.481 -0.7826  0.3338 -0.4963
   47MOL0     N 6122   3.844   9.367   6.910  0.0557  0.7259  0.1931
   47MOL0     N 6123   3.806   9.494   6.894  0.5894  0.2523 -0.9367
   47MOL0     C 6124   3.699  10.306   5.936  0.3415  0.7863 -0.0882
   47MOL0     C 6125   3.719  10.383   5.827 -0.4924 -0.7022  0.1420
   47MOL0     C 6126   3.880  10.736   5.570 -0.0860  0.4627 -0.3393
   47MOL0     C 6127   3.918  10.870   5.543  0.3172 -0.3599  0.6982
   47MOL0     C 6128   3.953  10.915   5.417  0.0443  0.1805 -0.6257
   47MOL0     C 6129   3.934  10.824   5.313  0.4195 -0.1555  0.1592
   47MOL0     O 6130   3.970  10.880   5.190  0.1160 -0.1081  0.1990
   47MOL0     C 6131   3.883  10.863   5.074  0.6770  0.1419 -0.2756
   47MOL0     C 6132   3.764  10.958   5.086  0.4838 -0.3896  0.2041
   47MOL0     C 6133   3.684  10.979   4.950 -0.7607 -0.5925  0.4813
   47MOL0     C 6134   3.561  11.068   4.976 -0.2934 -0.1544 -0.3157
   47MOL0     C 6135   3.486  11.074   4.850  0.5081  0.3807 -0.0298
   47MOL0     C 6136   3.430  11.078   4.738  0.3505  0.5982 -0.8429
   47MOL0     C 6137   3.894  10.690   5.329 -0.7005 -0.0908 -0.1390
   47MOL0     C 6138   3.869  10.651   5.459 -0.7197 -0.0947  0.2051
   47MOL0     H 6139   3.698  10.699   5.975  3.0541  0.7993 -2.2319
   47MOL0     H 6140   3.649  10.547   6.159  1.1961  2.5524 -1.5447
   47MOL0     H 6141   3.605  10.124   6.115 -1.1521  2.5581 -0.5737
   47MOL0     H 6142   3.584  10.155   6.289 -3.8509  1.0126 -1.9908
   47MOL0     H 6143   3.810  10.204   6.344 -1.0430  0.9336 -1.8719
   47MOL0     H 6144   3.850  10.202   6.170  1.0222 -1.0321 -0.1077
   47MOL0     H 6145   3.922  10.010   6.336  0.5677  3.4591 -0.7273
   47MOL0     H 6146   3.827   9.938   6.201 -1.5251 -0.3727  0.7522
   47MOL0     H 6147   3.705  10.013   6.467 -0.5879  1.2239 -1.9125
   47MOL0     H 6148   3.630   9.945   6.331 -0.1699  0.4500 -0.2224
   47MOL0     H 6149   3.836   9.819   6.510  1.1329  0.0839 -2.3567
   47MOL0     H 6150   3.798   9.747   6.356  4.8593  0.5967  0.5336
   47MOL0     H 6151   3.561   9.740   6.417  0.0306 -2.0698  0.6506
   47MOL0     H 6152   3.575   9.804   6.584 -2.8022 -2.7314 -0.4716
   47MOL0     H 6153   3.532   9.574   6.581 -0.4142  0.3019  1.0522
   47MOL0     H 6154   3.704   9.563   6.512  0.1922 -1.0052  1.3880
   47MOL0     H 6155   3.617   9.636   6.795  0.6685  1.0622 -0.6507
   47MOL0     H 6156   3.761   9.710   6.720 -1.2939  0.9242 -3.2927
   47MOL0     H 6157   3.735   9.349   6.611 -2.8056  1.8071 -0.2387
   47MOL0     H 6158   3.922   9.087   6.794 -0.6309 -1.7617 -1.6696
   47MOL0     H 6159   3.804   9.121   6.681  2.9013  1.0956 -0.1356
   47MOL0     H 6160   3.632   9.153   6.891 -0.3093  0.7168 -1.2386
   47MOL0     H 6161   3.764   9.087   6.981 -3.4499 -0.5067  0.6639
   47MOL0     H 6162   3.760   8.884   6.857 -0.1115 -0.5682  2.5217
   47MOL0     H 6163   3.607   8.927   6.957  3.3983 -0.6026  3.1947
   47MOL0     H 6164   3.604   8.993   6.670  2.4325 -0.2681  1.0230
   47MOL0     H 6165   3.479   8.941   6.787 -0.3282 -1.4443  0.2081
   47MOL0     H 6166   3.830   8.794   6.624  1.7905  0.3379 -2.3189
   47MOL0     H 6167   3.895   8.804   6.377 -0.8134 -0.4393 -0.9425
   47MOL0     H 6168   3.721   8.905   5.910 -0.6275 -1.9078  2.2465
   47MOL0     H 6169   3.837   8.985   5.693  1.8907 -2.6200 -2.7266
   47MOL0     H 6170   3.948   9.065   5.528 -0.7426  0.3266  1.6617
   47MOL0     H 6171   4.110   9.047   5.467 -2.1508  0.2436 -1.9096
   47MOL0     H 6172   4.020   9.218   5.711  0.6932 -0.6635  0.2508
   47MOL0     H 6173   4.089   9.269   5.554  1.1652  1.6838  0.1510
   47MOL0     H 6174   4.287   9.136   5.610 -3.0282 -0.7524 -1.7820
   47MOL0     H 6175   4.252   9.156   5.790  0.3634  3.2613  1.4054
   47MOL0     H 6176   4.245   9.392   5.607 -2.2350 -1.2329  0.1293
   47MOL0     H 6177   4.245   9.393   5.782  2.3574  0.0702  1.0688
   47MOL0     H 6178   4.476   9.283   5.747 -2.9678 -2.8528 -0.4474
   47MOL0     H 6179   4.447   9.468   5.749  1.3882 -1.1007 -0.2529
   47MOL0     H 6180   4.447   9.446   5.497 -0.6504 -0.4999 -0.8868
   47MOL0     H 6181   4.492   9.281   5.502 -0.3587  1.7240 -0.6030
   47MOL0     H 6182   4.671   9.491   5.499 -2.1671  0.9319  0.0040
   47MOL0     H 6183   4.649   9.466   5.671 -1.6330 -1.4677  0.3280
   47MOL0     H 6184   4.720   9.244   5.642 -2.1827  0.9801 -0.0318
   47MOL0     H 6185   4.842   9.357   5.568  2.3708 -4.4785 -2.9156
   47MOL0     H 6186   4.207   8.874   5.847  1.1648  1.0721  3.3040
   47MOL0     H 6187   4.105   8.800   6.066  1.5072  2.1306  0.4383
   47MOL0     H 6188   3.487   8.712   6.270 -0.2366  0.1733  0.3740
   47MOL0     H 6189   3.432   8.708   6.510  1.3421 -4.0755  0.3791
   47MOL0     H 6190   3.698  10.198   5.925 -2.2178  0.6363  1.0471
   47MOL0     H 6191   3.726  10.340   5.728  1.8841  0.6089 -0.3428
   47MOL0     H 6192   3.913  10.942   5.624 -0.3718 -1.4484  1.6445
   47MOL0     H 6193   3.977  11.021   5.407  0.4816  0.5262  2.9001
   47MOL0     H 6194   3.850  10.760   5.057  0.7829  0.3538 -2.0144
   47MOL0     H 6195   3.927  10.901   4.981  0.8450  2.5944  0.7197
   47MOL0     H 6196   3.691  10.922   5.158 -0.0302  1.9636  0.9316
   47MOL0     H 6197   3.792  11.053   5.132  0.3953 -0.1410 -0.2482
   47MOL0     H 6198   3.656  10.880   4.912  1.0383 -0.7561 -0.5490
   47MOL0     H 6199   3.760  11.020   4.882 -0.0170 -0.9587  1.0679
   47MOL0     H 6200   3.511  11.032   5.066 -0.0941 -4.2654 -1.6631
   47MOL0     H 6201   3.591  11.169   5.005 -1.1714 -0.6359  2.5822
   47MOL0     H 6202   3.392  11.084   4.638  3.0245  0.0404 -1.9913
   47MOL0     H 6203   3.878  10.632   5.238 -1.3944  1.0298 -0.7458
   47MOL0     H 6204   3.815  10.558   5.465 -2.7516  1.0941  2.2197
   48MOL0     O 6205   0.760   6.082   6.112  0.5360  0.1600  0.4360
   48MOL0     C 6206   0.686   6.183   6.121  0.0896  0.0489 -1.0795
   48MOL0     O 6207   0.684   6.279   6.215 -0.7282 -0.4197  0.2428
   48MOL0     C 6208   0.762   6.250   6.324  0.4769  1.1989  0.6954
   48MOL0     C 6209   0.886   6.307   6.333 -0.2644  0.6640  0.1585
   48MOL0     C 6210   0.968   6.273   6.439  0.2039 -0.0060 -0.1061
   48MOL0     C 6211   0.927   6.183   6.541 -0.1808 -0.1027 -0.4424
   48MOL0     O 6212   1.004   6.187   6.658  0.3329 -0.6457 -0.2298
   48MOL0     C 6213   0.930   6.259   6.760 -0.1104 -0.1789 -0.3698
   48MOL0     C 6214   0.999   6.399   6.775  0.1921 -1.2296  0.6538
   48MOL0     C 6215   1.102   6.422   6.872  0.0694  0.3270 -0.1741
   48MOL0     C 6216   1.140   6.567   6.866 -0.3100 -1.2703 -0.6960
   48MOL0     C 6217   1.236   6.594   6.991 -0.3769 -0.5689  0.2562
   48MOL0     C 6218   1.168   6.616   7.123 -0.1473 -0.7161  1.1644
   48MOL0     C 6219   1.260   6.650   7.238 -0.8557  0.2860 -0.3240
   48MOL0     C 6220   1.349   6.533   7.290 -0.7478  0.7707 -0.3631
   48MOL0     N 6221   1.284   6.400   7.281  0.3300 -0.1877 -1.1343
   48MOL0     C 6222   1.176   6.368   7.352  0.7373 -0.1834  0.2634
   48MOL0     C 6223   1.163   6.230   7.347 -0.0012  0.1236 -0.5467
   48MOL0     C 6224   1.054   6.140   7.415 -0.2550  0.4533  0.6191
   48MOL0     C 6225   0.937   6.128   7.328 -0.3989 -0.5282 -0.4184
   48MOL0     C 6226   0.848   6.258   7.310 -0.4968  0.1575  0.2352
   48MOL0     C 6227   0.711   6.224   7.235  0.2853  0.3012 -0.9697
   48MOL0     O 6228   0.750   6.138   7.126 -0.7154 -0.1483 -0.5726
   48MOL0     C 6229   0.649   6.083   7.056 -0.0370  0.0823  0.1385
   48MOL0     C 6230   0.510   6.098   7.064  0.7626  0.3179 -0.2996
   48MOL0     C 6231   0.422   6.008   7.005 -0.0400 -0.6595 -0.0581
   48MOL0     C 6232   0.484   5.902   6.921  1.0284 -0.0606  0.3765
   48MOL0     C 6233   0.409   5.787   6.857  0.8024 -0.6030  0.1235
   48MOL0     O 6234   0.271   5.793   6.892  0.6266 -0.2418 -0.2588
   48MOL0     C 6235   0.173   5.725   6.829 -0.3816  0.0417  0.4826
   48MOL0     C 6236   0.049   5.730   6.891  0.1159 -0.4657 -0.5250
   48MOL0     C 6237  -0.060   5.664   6.831 -0.3027 -0.0825  0.5226
   48MOL0     C 6238  -0.043   5.584   6.717 -0.0564 -0.2541 -0.0315
   48MOL0     O 6239  -0.134   5.496   6.660 -0.3117 -0.3698 -0.8090
   48MOL0     C 6240  -0.274   5.490   6.702 -0.1493  0.4212  0.8624
   48MOL0     C 6241  -0.293   5.385   6.804 -0.1782 -0.2338 -0.3236
   48MOL0     C 6242  -0.442   5.372   6.861 -0.0223  1.2356  0.3485
   48MOL0     C 6243  -0.547   5.351   6.744  0.1529  0.8288  0.1049
   48MOL0     C 6244  -0.687   5.320   6.805  0.5790 -0.0417 -0.7547
   48MOL0     C 6245  -0.700   5.190   6.884  0.3072 -0.0032  0.4290
   48MOL0     C 6246  -0.837   5.161   6.952 -0.7847  0.6533  0.0196
   48MOL0     C 6247  -0.947   5.102   6.872  0.7211  0.6895  0.1058
   48MOL0    Cl 6248  -0.894   4.954   6.791 -0.3831 -0.1969  0.3224
   48MOL0     C 6249   0.086   5.577   6.659  0.6702  0.5918 -0.1714
   48MOL0     C 6250   0.191   5.648   6.722 -0.5298 -0.4318  0.3769
   48MOL0     O 6251   0.460   5.697   6.791  0.4178 -0.6393  1.2094
   48MOL0     C 6252   0.614   5.911   6.890 -1.3451 -0.7901 -0.0557
   48MOL0     C 6253   0.694   5.991   6.962  0.0671 -0.1318 -0.4221
   48MOL0     N 6254   1.260   6.184   7.266 -0.7693 -0.4489  0.4204
   48MOL0     N 6255   1.338   6.285   7.232  0.3389  0.3257  0.3525
   48MOL0     C 6256   0.811   6.116   6.522  0.7782 -0.0468 -0.4731
   48MOL0     C 6257   0.725   6.155   6.422  0.4191 -0.6809 -0.0729
   48MOL0     C 6258   0.577   6.188   6.029 -0.4920 -0.1108  0.0908
   48MOL0     C 6259   0.474   6.281   6.036  0.4708 -1.2725  0.7372
   48MOL0     C 6260   0.365   6.285   5.948  0.2783 -0.3085  0.1220
   48MOL0     C 6261   0.350   6.180   5.855 -0.7801 -0.3220 -0.3425
   48MOL0     O 6262   0.243   6.164   5.774  0.2916 -0.0383  0.1969
   48MOL0     C 6263   0.122   6.126   5.845 -0.5692 -0.2391  1.0108
   48MOL0     C 6264   0.015   6.230   5.810 -0.5057  0.0404 -0.4660
   48MOL0     C 6265  -0.123   6.168   5.839  1.0980  0.2999  0.5779
   48MOL0     C 6266  -0.185   6.097   5.717 -0.3426  0.9145  0.5131
   48MOL0     C 6267  -0.313   6.037   5.741  0.0093  0.4715  0.3624
   48MOL0     C 6268  -0.407   5.955   5.748 -0.9473  0.2605  0.3635
   48MOL0     C 6269   0.446   6.087   5.838  1.1012 -0.3017 -0.0387
   48MOL0     C 6270   0.563   6.092   5.912  0.1308 -0.9126 -0.3526
   48MOL0     H 6271   0.910   6.378   6.255  3.4874  1.3641  1.7659
   48MOL0     H 6272   1.067   6.312   6.461  0.4806 -0.7733  0.0138
   48MOL0     H 6273   0.940   6.216   6.860 -2.0216  0.6445  0.2304
   48MOL0     H 6274   0.823   6.261   6.737 -0.5917 -1.9709  1.4648
   48MOL0     H 6275   0.917   6.470   6.795 -1.2832 -2.2171 -1.4764
   48MOL0     H 6276   1.039   6.420   6.676 -0.0254 -0.6480  0.6846
   48MOL0     H 6277   1.183   6.357   6.839 -0.4117 -0.9183  1.0291
   48MOL0     H 6278   1.060   6.399   6.970  1.5240  0.9775  0.6301
   48MOL0     H 6279   1.201   6.587   6.777  0.2719  0.6409  0.0924
   48MOL0     H 6280   1.068   6.648   6.856  3.0496  2.1581  0.4122
   48MOL0     H 6281   1.295   6.685   6.981  0.6729 -0.7651  3.5355
   48MOL0     H 6282   1.315   6.520   7.004  0.2363  0.1266  0.5354
   48MOL0     H 6283   1.100   6.534   7.149 -0.5972 -1.2015 -1.2889
   48MOL0     H 6284   1.108   6.707   7.115 -1.8165 -1.7391  1.5439
   48MOL0     H 6285   1.317   6.737   7.206 -0.6976  0.1297 -0.4735
   48MOL0     H 6286   1.191   6.693   7.311 -0.8204  2.3084 -1.4196
   48MOL0     H 6287   1.378   6.562   7.391  2.4197  0.0663 -0.9644
   48MOL0     H 6288   1.437   6.515   7.227  1.7910 -2.7541  3.6104
   48MOL0     H 6289   1.118   6.439   7.410 -2.4912 -1.0023 -1.7092
   48MOL0     H 6290   1.023   6.183   7.511  0.8739  2.5908  0.0947
   48MOL0     H 6291   1.089   6.040   7.439  1.8521  1.8194  4.0637
   48MOL0     H 6292   0.870   6.047   7.358 -0.0833 -0.8764 -0.6522
   48MOL0     H 6293   0.981   6.086   7.237  0.5400 -0.9810  0.2303
   48MOL0     H 6294   0.818   6.306   7.403 -0.3488 -2.8335  1.9604
   48MOL0     H 6295   0.896   6.330   7.242  0.4543 -1.2367 -0.6304
   48MOL0     H 6296   0.660   6.315   7.201  2.3764  0.4157 -4.2428
   48MOL0     H 6297   0.649   6.170   7.307  2.2072 -0.1569  0.4147
   48MOL0     H 6298   0.472   6.172   7.133 -1.7676  0.3211 -1.5819
   48MOL0     H 6299   0.316   6.004   7.027 -0.3533 -1.0761 -1.5445
   48MOL0     H 6300   0.035   5.757   6.995 -0.6089 -1.4611 -0.3482
   48MOL0     H 6301  -0.158   5.672   6.878 -0.4350  1.7836  0.0364
   48MOL0     H 6302  -0.336   5.457   6.618  0.2208  0.5869  0.5174
   48MOL0     H 6303  -0.305   5.588   6.738 -0.3191  0.0393  1.7959
   48MOL0     H 6304  -0.221   5.406   6.883  0.5049 -1.2180 -0.6606
   48MOL0     H 6305  -0.280   5.287   6.756 -2.6905 -1.2094  0.7911
   48MOL0     H 6306  -0.464   5.469   6.908 -1.8061  0.8767  0.3126
   48MOL0     H 6307  -0.450   5.296   6.939 -0.7389 -1.3323 -2.0584
   48MOL0     H 6308  -0.558   5.438   6.680  1.4837  0.0959 -1.1850
   48MOL0     H 6309  -0.507   5.266   6.688 -0.9593  0.8444 -0.7278
   48MOL0     H 6310  -0.755   5.311   6.719  1.2671  1.9034 -1.5591
   48MOL0     H 6311  -0.719   5.393   6.879  0.2173  0.1652 -1.1088
   48MOL0     H 6312  -0.631   5.200   6.968 -0.6372  0.9651  1.1187
   48MOL0     H 6313  -0.668   5.106   6.822 -1.9570  0.8806 -2.1515
   48MOL0     H 6314  -0.801   5.085   7.021  2.1646  0.4645 -1.5561
   48MOL0     H 6315  -0.879   5.240   7.015  0.0683 -0.8318  2.6003
   48MOL0     H 6316  -0.975   5.179   6.800 -0.2821 -0.2340 -0.5128
   48MOL0     H 6317  -1.032   5.076   6.935 -1.4027  1.0006 -2.4517
   48MOL0     H 6318   0.092   5.521   6.566 -1.4261  2.1852 -1.3441
   48MOL0     H 6319   0.282   5.632   6.665 -2.2932  0.7132 -3.0469
   48MOL0     H 6320   0.672   5.844   6.828  0.4688  1.5654 -1.0471
   48MOL0     H 6321   0.801   5.988   6.951  0.1451 -1.0814  0.4408
   48MOL0     H 6322   0.775   6.048   6.599 -0.7613  1.5243  0.2520
   48MOL0     H 6323   0.623   6.118   6.420  0.5686 -1.0639 -0.6545
   48MOL0     H 6324   0.461   6.349   6.120 -0.3421 -0.8328  0.2700
   48MOL0     H 6325   0.291   6.364   5.949  0.7689  0.2555 -2.1127
   48MOL0     H 6326   0.136   6.121   5.954  1.7401  0.8885  0.8245
   48MOL0     H 6327   0.102   6.022   5.818 -2.7912 -0.3559  2.7687
   48MOL0     H 6328   0.036   6.317   5.873  0.7909 -0.7100  0.1897
   48MOL0     H 6329   0.014   6.269   5.707 -0.3034 -0.6368 -0.7282
   48MOL0     H 6330  -0.192   6.241   5.883  0.6019  1.2251 -1.6168
   48MOL0     H 6331  -0.100   6.096   5.917 -0.0308  0.2759  0.8990
   48MOL0     H 6332  -0.208   6.168   5.638 -0.8952  1.4107  1.1040
   48MOL0     H 6333  -0.116   6.022   5.676 -1.1472  0.5804 -0.2682
   48MOL0     H 6334  -0.497   5.897   5.757 -0.5766 -0.2426  0.9233
   48MOL0     H 6335   0.428   6.009   5.765  0.3587  0.3175 -0.5261
   48MOL0     H 6336   0.638   6.014   5.901 -1.0722 -1.9757 -1.3546
   49MOL0     O 6337   2.414   4.418   3.150 -0.4745  0.5105 -0.3017
   49MOL0     C 6338   2.307   4.369   3.115  0.2290  0.7251 -0.4705
   49MOL0     O 6339   2.293   4.300   3.001  0.5094 -0.6212  0.9299
   49MOL0     C 6340   2.356   4.346   2.882 -0.1625 -0.4017 -0.0314
   49MOL0     C 6341   2.345   4.266   2.767  0.1093 -0.2646 -0.2043
   49MOL0     C 6342   2.419   4.294   2.649  0.8228  0.0087  0.2895
   49MOL0     C 6343   2.504   4.404   2.646 -0.4528 -0.6585  0.3874
   49MOL0     O 6344   2.571   4.444   2.533 -0.1954 -0.2848  0.0473
   49MOL0     C 6345   2.714   4.419   2.511  0.8998 -0.0635  0.0771
   49MOL0     C 6346   2.749   4.268   2.497  0.5143  1.5100  0.2759
   49MOL0     C 6347   2.894   4.244   2.454  0.8772 -0.9830 -0.9640
   49MOL0     C 6348   2.915   4.094   2.413 -0.1231  0.6285  0.0407
   49MOL0     C 6349   2.903   4.002   2.525  0.2294  0.0220  0.3625
   49MOL0     C 6350   2.912   3.851   2.475 -0.6290  0.2635 -0.7144
   49MOL0     C 6351   2.881   3.765   2.602 -0.1366  0.0933  0.9204
   49MOL0     C 6352   2.993   3.784   2.711  0.7099 -0.2881 -0.0227
   49MOL0     N 6353   3.126   3.751   2.666  0.5135  1.0795 -0.1023
   49MOL0     C 6354   3.219   3.836   2.619 -0.5266 -0.3108  0.0801
   49MOL0     C 6355   3.335   3.777   2.639 -0.6497  0.5521  0.9494
   49MOL0     C 6356   3.464   3.819   2.570  0.4073  0.4627  0.9380
   49MOL0     C 6357   3.457   3.817   2.415  0.1826 -0.7143 -0.5407
   49MOL0     C 6358   3.439   3.698   2.336  0.9236  0.1776  0.6732
   49MOL0     C 6359   3.522   3.572   2.376 -0.0532 -0.2391 -0.0384
   49MOL0     O 6360   3.487   3.454   2.290 -0.0689  0.3404 -0.2137
   49MOL0     C 6361   3.378   3.366   2.301  0.2326  0.2363  0.0360
   49MOL0     C 6362   3.303   3.353   2.421  0.2289  0.4316 -0.4385
   49MOL0     C 6363   3.184   3.272   2.426  0.1072 -0.1539  0.1898
   49MOL0     C 6364   3.145   3.201   2.308 -0.1904 -0.9676 -0.0939
   49MOL0     C 6365   3.013   3.130   2.298 -0.0134  0.8793  1.2071
   49MOL0     O 6366   2.977   3.091   2.170 -0.0332  0.4749  0.3429
   49MOL0     C 6367   2.844   3.061   2.147  0.1984 -0.2475  0.0319
   49MOL0     C 6368   2.771   3.119   2.039  0.4008  0.2054  0.2858
   49MOL0     C 6369   2.644   3.079   2.010 -0.1881 -0.1618 -0.3892
   49MOL0     C 6370   2.589   2.959   2.070  0.7945 -0.0300  1.0178
   49MOL0     O 6371   2.468   2.918   2.022 -0.0376  0.2589 -0.5572
   49MOL0     C 6372   2.359   2.918   2.112  0.3334  0.7409 -0.9164
   49MOL0     C 6373   2.224   2.877   2.045 -0.8155 -0.2767  0.2755
   49MOL0     C 6374   2.115   2.880   2.149 -0.2837 -0.7848  0.2883
   49MOL0     C 6375   1.971   2.882   2.096 -0.9737  0.5535 -0.5462
   49MOL0     C 6376   1.869   2.935   2.204  1.0784 -0.2672  0.1351
   49MOL0     C 6377   1.807   2.809   2.273 -0.2891 -0.0105 -0.6301
   49MOL0     C 6378   1.730   2.859   2.402 -1.1113 -0.3836  0.1834
   49MOL0     C 6379   1.677   2.747   2.496  0.3884  0.8810  0.1813
   49MOL0    Cl 6380   1.556   2.809   2.603  0.3006 -0.1796  0.1172
   49MOL0     C 6381   2.666   2.896   2.166  0.5951  0.3996  0.1147
   49MOL0     C 6382   2.782   2.958   2.214  0.1816  0.3162 -0.1636
   49MOL0     O 6383   2.936   3.131   2.390  0.7222  0.2756 -0.4829
   49MOL0     C 6384   3.227   3.213   2.192  0.0907 -0.1991 -0.4770
   49MOL0     C 6385   3.342   3.293   2.189  0.0342  0.7925  0.1589
   49MOL0     N 6386   3.313   3.652   2.690 -0.3333  0.4113 -0.0983
   49MOL0     N 6387   3.190   3.638   2.714 -0.8486 -0.0814  0.4169
   49MOL0     C 6388   2.519   4.486   2.760 -0.7458  0.1240  0.3988
   49MOL0     C 6389   2.444   4.459   2.870  0.5654  0.1519 -0.7059
   49MOL0     C 6390   2.206   4.377   3.227  1.0925 -1.8152  0.9125
   49MOL0     C 6391   2.228   4.441   3.344  0.2638 -1.0674  0.1056
   49MOL0     C 6392   2.126   4.452   3.437  0.3542  0.3902  0.2393
   49MOL0     C 6393   1.995   4.415   3.403 -0.5115 -0.6381 -0.0474
   49MOL0     O 6394   1.891   4.413   3.496 -0.8527  0.9508  0.2213
   49MOL0     C 6395   1.917   4.450   3.631  0.4442 -1.2314 -0.1701
   49MOL0     C 6396   1.782   4.477   3.707  0.3139 -0.5261 -0.2543
   49MOL0     C 6397   1.693   4.598   3.665 -1.0773 -1.1059  0.1080
   49MOL0     C 6398   1.561   4.610   3.752 -0.5228 -0.5277  0.8446
   49MOL0     C 6399   1.582   4.625   3.897  0.3437  0.6502  0.8170
   49MOL0     C 6400   1.595   4.642   4.018 -0.0537  1.8162 -0.0244
   49MOL0     C 6401   1.964   4.370   3.277 -0.6657  0.2023  0.5951
   49MOL0     C 6402   2.070   4.347   3.189 -0.0095 -0.7895 -0.4348
   49MOL0     H 6403   2.277   4.182   2.771 -1.5343  0.9191 -1.9290
   49MOL0     H 6404   2.420   4.244   2.553 -0.2554  1.1948 -0.3685
   49MOL0     H 6405   2.778   4.468   2.585 -0.3452  0.6707  0.7027
   49MOL0     H 6406   2.741   4.469   2.417 -1.6553 -0.1834 -0.8051
   49MOL0     H 6407   2.687   4.230   2.415  0.7830  2.5404 -0.4344
   49MOL0     H 6408   2.733   4.206   2.585  1.2987  0.2341 -0.4560
   49MOL0     H 6409   2.960   4.248   2.542 -0.1278  0.3717 -0.2344
   49MOL0     H 6410   2.925   4.314   2.376  2.6022  1.0411  1.3722
   49MOL0     H 6411   2.842   4.062   2.339 -0.4357  2.7166 -0.6182
   49MOL0     H 6412   3.014   4.069   2.373 -1.2793 -0.5824 -2.2780
   49MOL0     H 6413   2.802   4.010   2.569 -1.2604 -0.6661 -2.6659
   49MOL0     H 6414   2.983   4.034   2.592  1.5199  4.8007 -2.9255
   49MOL0     H 6415   3.014   3.831   2.442  0.1428 -0.0898  1.6742
   49MOL0     H 6416   2.840   3.833   2.395  0.7611  2.0900 -2.4933
   49MOL0     H 6417   2.780   3.794   2.632 -0.4110  0.8997 -0.7191
   49MOL0     H 6418   2.891   3.660   2.572  1.2875  1.4812 -4.5656
   49MOL0     H 6419   2.969   3.720   2.796  0.9483 -0.6016 -0.1915
   49MOL0     H 6420   2.994   3.886   2.752 -0.1339 -0.6472  0.9362
   49MOL0     H 6421   3.204   3.929   2.566  0.4635  0.1125  0.5176
   49MOL0     H 6422   3.550   3.756   2.595 -1.5905 -3.3941 -0.9463
   49MOL0     H 6423   3.491   3.920   2.602 -0.6711  0.6383  1.3387
   49MOL0     H 6424   3.550   3.863   2.382 -1.0801  0.0295 -3.3999
   49MOL0     H 6425   3.371   3.882   2.396  0.6617  0.6544  1.5749
   49MOL0     H 6426   3.334   3.670   2.343  0.2809  1.4571 -2.1530
   49MOL0     H 6427   3.474   3.716   2.234  2.5493 -2.6694  0.6351
   49MOL0     H 6428   3.496   3.541   2.477 -2.8718  0.6604 -0.3996
   49MOL0     H 6429   3.624   3.608   2.357 -0.4329  1.5484  1.0368
   49MOL0     H 6430   3.349   3.392   2.511 -1.4863  1.2544  0.1367
   49MOL0     H 6431   3.123   3.274   2.516  0.4176 -0.4173  0.4110
   49MOL0     H 6432   2.816   3.204   1.988 -0.3322  0.0019 -0.7444
   49MOL0     H 6433   2.594   3.136   1.934  0.7863  1.8415  0.4050
   49MOL0     H 6434   2.351   3.018   2.156 -0.6396  1.1179 -1.8942
   49MOL0     H 6435   2.380   2.845   2.190 -2.9086  1.4311  0.7908
   49MOL0     H 6436   2.231   2.779   1.998  0.8837  0.1077 -0.3930
   49MOL0     H 6437   2.214   2.945   1.959  0.8833 -1.0633 -0.5981
   49MOL0     H 6438   2.137   2.964   2.216 -1.1920  1.6970 -2.3395
   49MOL0     H 6439   2.120   2.787   2.206  2.7707 -1.5089 -0.9733
   49MOL0     H 6440   1.964   2.950   2.011  2.1289  1.8284  0.0825
   49MOL0     H 6441   1.942   2.783   2.058 -1.6392  1.4128 -2.3676
   49MOL0     H 6442   1.790   2.974   2.139  0.1186  0.0129  1.4167
   49MOL0     H 6443   1.894   3.020   2.268  1.4227  1.0265 -1.6333
   49MOL0     H 6444   1.880   2.734   2.303 -1.8176 -1.3472 -0.1090
   49MOL0     H 6445   1.726   2.764   2.215 -0.0701  1.3097 -2.0199
   49MOL0     H 6446   1.794   2.921   2.465 -4.1303  0.8479  2.2679
   49MOL0     H 6447   1.640   2.918   2.379  0.1130  0.5721 -2.6229
   49MOL0     H 6448   1.762   2.713   2.557  2.5762  3.1322 -1.3896
   49MOL0     H 6449   1.646   2.663   2.434  0.4438  1.9435 -1.3474
   49MOL0     H 6450   2.620   2.814   2.219  0.7936  0.8361  0.9773
   49MOL0     H 6451   2.837   2.917   2.298  1.1692 -0.0614 -0.9639
   49MOL0     H 6452   3.196   3.159   2.103  1.2673 -1.7258  0.0025
   49MOL0     H 6453   3.380   3.288   2.087 -3.2098 -0.9568 -1.1205
   49MOL0     H 6454   2.585   4.571   2.774  0.2675 -0.7140  0.8199
   49MOL0     H 6455   2.462   4.529   2.951 -0.2361 -0.5084  0.0557
   49MOL0     H 6456   2.327   4.479   3.364 -0.8623  1.6110  1.0772
   49MOL0     H 6457   2.151   4.487   3.536  0.3541  0.3978  0.2364
   49MOL0     H 6458   1.975   4.542   3.634 -0.3275 -0.7518  0.2483
   49MOL0     H 6459   1.969   4.368   3.682 -1.8347 -1.1150  2.5705
   49MOL0     H 6460   1.718   4.388   3.713 -0.9638  0.3340 -0.5839
   49MOL0     H 6461   1.822   4.498   3.806 -1.9969 -4.7589  1.8443
   49MOL0     H 6462   1.669   4.581   3.559  2.3090  0.8102 -1.1086
   49MOL0     H 6463   1.747   4.694   3.661  0.9009 -2.1972 -0.6983
   49MOL0     H 6464   1.501   4.690   3.706 -1.4139 -1.5634  0.1642
   49MOL0     H 6465   1.510   4.519   3.720 -0.2283 -0.4059  0.0109
   49MOL0     H 6466   1.611   4.652   4.124  1.6950  3.6958 -0.4105
   49MOL0     H 6467   1.863   4.346   3.246  0.1111 -2.8825  0.1535
   49MOL0     H 6468   2.045   4.312   3.089 -0.0059 -1.6544 -0.1400
   50MOL0     O 6469   6.947   6.232   3.727 -0.4612 -0.1764 -0.0062
   50MOL0     C 6470   6.883   6.309   3.657  0.1283 -0.3661 -0.2510
   50MOL0     O 6471   6.781   6.392   3.696  0.5527 -0.3319  0.4660
   50MOL0     C 6472   6.719   6.365   3.811  0.3302 -0.2146 -0.2377
   50MOL0     C 6473   6.666   6.476   3.876 -0.8288  0.1189 -0.3484
   50MOL0     C 6474   6.591   6.456   3.995 -0.5100 -0.8308 -0.2142
   50MOL0     C 6475   6.563   6.327   4.048 -0.1872 -0.4146 -1.1059
   50MOL0     O 6476   6.481   6.329   4.157 -0.2595  0.0086  0.1424
   50MOL0     C 6477   6.405   6.220   4.208  0.7031  0.1038  0.2586
   50MOL0     C 6478   6.396   6.228   4.358  0.9369  0.6478 -0.4769
   50MOL0     C 6479   6.313   6.353   4.399 -0.6313 -0.0691  0.4773
   50MOL0     C 6480   6.313   6.369   4.544  0.0736  0.0005  0.4765
   50MOL0     C 6481   6.275   6.503   4.608  1.0603 -0.2557  0.3159
   50MOL0     C 6482   6.138   6.552   4.541 -0.0059  0.3802  1.1283
   50MOL0     C 6483   6.072   6.658   4.629 -0.3173 -0.4512 -0.1041
   50MOL0     C 6484   5.951   6.710   4.557  0.4846  0.1761 -0.2664
   50MOL0     N 6485   5.879   6.833   4.605  1.2150 -0.6088  0.7630
   50MOL0     C 6486   5.944   6.947   4.645  0.5446 -0.3169 -0.0748
   50MOL0     C 6487   5.834   7.014   4.686  0.2967  0.4144  0.4171
   50MOL0     C 6488   5.841   7.165   4.705  0.6849  0.3019  0.2325
   50MOL0     C 6489   5.697   7.210   4.710  0.3517 -0.0551 -0.2152
   50MOL0     C 6490   5.695   7.358   4.724  0.3081  0.2359  0.3349
   50MOL0     C 6491   5.782   7.449   4.649  0.9493  0.1979  0.5591
   50MOL0     O 6492   5.909   7.479   4.700 -0.9417  0.9495  0.5299
   50MOL0     C 6493   5.984   7.591   4.660  0.0624  0.2595  0.2504
   50MOL0     C 6494   5.932   7.697   4.589  0.3348  0.2945 -0.5032
   50MOL0     C 6495   6.016   7.811   4.552 -0.2246  0.7269  0.4736
   50MOL0     C 6496   6.149   7.811   4.592 -0.4917 -0.3883 -0.2514
   50MOL0     C 6497   6.242   7.925   4.577  0.3321  0.6467  0.9330
   50MOL0     O 6498   6.227   7.995   4.456  0.5159  0.0932  0.1129
   50MOL0     C 6499   6.304   8.111   4.438  0.1140 -0.1361  0.1350
   50MOL0     C 6500   6.371   8.127   4.316  0.0581 -0.8578  1.1108
   50MOL0     C 6501   6.457   8.235   4.291  0.3876  0.4778  0.4297
   50MOL0     C 6502   6.468   8.340   4.387  0.2726  0.1813 -0.0008
   50MOL0     O 6503   6.541   8.449   4.343 -0.1377 -0.4869 -0.3940
   50MOL0     C 6504   6.577   8.543   4.441 -0.6754  0.5737 -0.6275
   50MOL0     C 6505   6.680   8.503   4.543  0.6124  1.4600 -0.1214
   50MOL0     C 6506   6.666   8.582   4.669 -0.2786 -0.3986 -0.0001
   50MOL0     C 6507   6.779   8.541   4.771 -0.5258 -0.2828  0.4982
   50MOL0     C 6508   6.735   8.412   4.838 -0.1612 -0.4078  0.9489
   50MOL0     C 6509   6.857   8.373   4.921 -0.6190  0.4727  0.0991
   50MOL0     C 6510   6.850   8.232   4.983 -0.1224 -0.2859 -0.0822
   50MOL0     C 6511   6.968   8.197   5.063 -1.0968  0.5187  0.8340
   50MOL0    Cl 6512   6.936   8.051   5.153 -0.5753  0.0234  0.1497
   50MOL0     C 6513   6.390   8.334   4.500  0.2007 -0.0030 -1.0668
   50MOL0     C 6514   6.311   8.217   4.528 -0.2093  0.2649 -0.2518
   50MOL0     O 6515   6.320   7.950   4.669  0.4605 -0.2154 -0.2559
   50MOL0     C 6516   6.199   7.692   4.665 -0.5940 -0.5539 -0.7749
   50MOL0     C 6517   6.113   7.591   4.704 -0.6898  0.1425  0.5091
   50MOL0     N 6518   5.714   6.953   4.652 -0.0133 -1.0535 -0.3179
   50MOL0     N 6519   5.741   6.840   4.602  0.4218 -0.4235  0.3806
   50MOL0     C 6520   6.627   6.212   3.987  0.1680  0.2356  0.2237
   50MOL0     C 6521   6.694   6.237   3.867 -0.1098 -0.0463 -0.2133
   50MOL0     C 6522   6.954   6.349   3.527 -0.4463  0.3214  0.5477
   50MOL0     C 6523   7.049   6.258   3.466  0.6546  0.6579 -1.0456
   50MOL0     C 6524   7.115   6.286   3.349  0.5517  0.8728  0.0657
   50MOL0     C 6525   7.082   6.405   3.284 -0.9094  0.2027  0.5311
   50MOL0     O 6526   7.140   6.449   3.166  0.6752 -0.6673 -0.6678
   50MOL0     C 6527   7.179   6.364   3.058 -0.2429  1.5113  0.1084
   50MOL0     C 6528   7.088   6.394   2.939  0.0427 -0.2377  0.4263
   50MOL0     C 6529   7.136   6.335   2.804  0.6033  0.0419 -0.8116
   50MOL0     C 6530   7.210   6.194   2.808  0.7588  0.5331  0.4081
   50MOL0     C 6531   7.291   6.148   2.692  0.2257 -0.8102 -0.1921
   50MOL0     C 6532   7.358   6.112   2.602 -0.7975  0.0127  0.1358
   50MOL0     C 6533   6.996   6.501   3.347 -0.8614  1.1311  0.4977
   50MOL0     C 6534   6.933   6.469   3.462  0.2041 -0.4630  0.2980
   50MOL0     H 6535   6.696   6.573   3.837  1.7255 -0.2469  0.4967
   50MOL0     H 6536   6.559   6.535   4.062 -0.7604 -1.0073 -0.1238
   50MOL0     H 6537   6.445   6.121   4.188  1.9171  0.2511  1.7724
   50MOL0     H 6538   6.304   6.225   4.167  0.4349  0.4127  0.9481
   50MOL0     H 6539   6.499   6.240   4.394  1.0370 -0.7680 -0.2706
   50MOL0     H 6540   6.371   6.132   4.403  1.5272  0.0599 -1.3813
   50MOL0     H 6541   6.211   6.317   4.383 -0.0195 -3.3375  2.7648
   50MOL0     H 6542   6.334   6.440   4.337 -2.5347  0.1087  0.0179
   50MOL0     H 6543   6.255   6.287   4.587 -0.0970  0.0795  0.3972
   50MOL0     H 6544   6.417   6.360   4.579 -0.0158  5.0527  2.9833
   50MOL0     H 6545   6.354   6.578   4.600  1.1145  0.1448  3.3647
   50MOL0     H 6546   6.259   6.482   4.714 -1.2431 -1.4447 -0.1785
   50MOL0     H 6547   6.071   6.465   4.533  1.1252 -0.3499 -4.3512
   50MOL0     H 6548   6.161   6.599   4.445  1.3243  2.1908  2.2803
   50MOL0     H 6549   6.044   6.620   4.728 -2.7762  1.4653  0.0191
   50MOL0     H 6550   6.140   6.737   4.660 -2.5907  1.1001  1.1884
   50MOL0     H 6551   5.878   6.628   4.553  1.6616 -0.8850 -0.5049
   50MOL0     H 6552   5.978   6.729   4.453  0.5843  2.0748  0.0693
   50MOL0     H 6553   6.048   6.975   4.659  0.4130  1.0778 -1.5453
   50MOL0     H 6554   5.903   7.216   4.630  1.8833 -1.0244  0.2785
   50MOL0     H 6555   5.887   7.193   4.801 -1.1908  1.3445  0.8763
   50MOL0     H 6556   5.647   7.169   4.798  0.2355  1.1572  0.2973
   50MOL0     H 6557   5.630   7.175   4.631 -2.2538 -0.0139  1.8550
   50MOL0     H 6558   5.590   7.386   4.718  0.2340 -0.2903 -1.3916
   50MOL0     H 6559   5.736   7.389   4.820  1.1077  3.5371 -0.9495
   50MOL0     H 6560   5.715   7.534   4.633 -0.4879 -1.1630 -1.1623
   50MOL0     H 6561   5.799   7.407   4.550 -0.0727 -1.1696  0.9197
   50MOL0     H 6562   5.830   7.692   4.551 -1.9100 -0.5890  4.7884
   50MOL0     H 6563   5.972   7.886   4.487 -3.3481  0.5519  2.1841
   50MOL0     H 6564   6.366   8.060   4.230 -3.4445  0.8832 -0.2945
   50MOL0     H 6565   6.523   8.238   4.205  1.0660  0.9878  0.9582
   50MOL0     H 6566   6.487   8.583   4.488  1.3591  1.2531  3.0458
   50MOL0     H 6567   6.614   8.631   4.388  1.8269  0.1876  0.3454
   50MOL0     H 6568   6.783   8.504   4.506  1.3995 -2.4801  1.4462
   50MOL0     H 6569   6.656   8.400   4.569 -2.4220  1.2113 -3.1413
   50MOL0     H 6570   6.567   8.580   4.717 -0.5259  2.5388 -0.2029
   50MOL0     H 6571   6.673   8.688   4.643  0.0004 -0.1225  1.1529
   50MOL0     H 6572   6.872   8.529   4.715 -0.0797 -0.1729  1.2057
   50MOL0     H 6573   6.782   8.604   4.860  2.1318  1.1278 -0.4581
   50MOL0     H 6574   6.719   8.326   4.773 -0.5102 -1.0374  1.8440
   50MOL0     H 6575   6.648   8.420   4.904 -0.5587 -5.4472  1.4033
   50MOL0     H 6576   6.870   8.447   5.001  0.6074  1.5866 -1.0884
   50MOL0     H 6577   6.944   8.369   4.854 -0.7200  0.3816 -0.0272
   50MOL0     H 6578   6.764   8.239   5.050 -1.4335  0.7588 -1.7830
   50MOL0     H 6579   6.835   8.151   4.911  2.3723 -0.9650  0.0984
   50MOL0     H 6580   6.976   8.283   5.129 -1.5607  0.1776  1.3461
   50MOL0     H 6581   7.058   8.194   5.001 -0.6616  0.9460  1.4306
   50MOL0     H 6582   6.378   8.420   4.565 -1.8953 -0.7938 -0.3150
   50MOL0     H 6583   6.246   8.221   4.614 -0.8760 -0.4459 -0.7095
   50MOL0     H 6584   6.301   7.700   4.702 -1.4412  0.3830  1.5957
   50MOL0     H 6585   6.142   7.508   4.767 -0.3454  0.2097  0.4383
   50MOL0     H 6586   6.609   6.106   4.000 -0.7031  0.2528 -0.6998
   50MOL0     H 6587   6.729   6.160   3.799  2.6969 -0.8302  1.9434
   50MOL0     H 6588   7.055   6.157   3.506  1.2639  1.3096  0.6113
   50MOL0     H 6589   7.178   6.216   3.296 -0.0198  2.9247 -3.6435
   50MOL0     H 6590   7.177   6.260   3.091  3.7736  0.3904 -2.4711
   50MOL0     H 6591   7.284   6.388   3.035  0.4525 -1.0502  0.3473
   50MOL0     H 6592   6.986   6.356   2.950 -0.9882  0.5805 -4.1285
   50MOL0     H 6593   7.083   6.502   2.923 -1.7162 -0.3906 -0.3493
   50MOL0     H 6594   7.200   6.407   2.751  2.8938 -1.8410 -0.7655
   50MOL0     H 6595   7.050   6.324   2.737  0.2933  0.5104 -0.5007
   50MOL0     H 6596   7.282   6.194   2.890 -1.1855  2.1057  2.2290
   50MOL0     H 6597   7.128   6.124   2.825  2.4365 -1.1910  1.9414
   50MOL0     H 6598   7.426   6.067   2.532  0.0218  0.3215  0.7227
   50MOL0     H 6599   6.954   6.575   3.280 -1.8127 -1.3255 -1.7629
   50MOL0     H 6600   6.855   6.539   3.492  0.0552 -0.9206  0.9933
   51MOL0     O 6601  11.310   0.925   2.087  0.3782  0.5624  0.1862
   51MOL0     C 6602  11.232   1.020   2.068  0.2867  0.1740 -1.1729
   51MOL0     O 6603  11.097   1.007   2.040 -0.5676 -0.1988 -0.2475
   51MOL0     C 6604  11.044   0.879   2.065  0.6870 -0.0728  1.3976
   51MOL0     C 6605  10.957   0.854   2.169 -0.3054  0.4283  0.3959
   51MOL0     C 6606  10.892   0.730   2.189 -0.8537  0.1305 -0.8229
   51MOL0     C 6607  10.910   0.632   2.088  0.4870  1.1889 -0.2099
   51MOL0     O 6608  10.844   0.513   2.099  0.4218 -0.3970  0.1198
   51MOL0     C 6609  10.872   0.392   2.020 -0.1803 -1.2802  0.3880
   51MOL0     C 6610  10.800   0.267   2.082  0.5647  0.0207  0.2908
   51MOL0     C 6611  10.843   0.248   2.231 -0.0498  0.8623 -0.2612
   51MOL0     C 6612  10.978   0.173   2.250  0.3679 -1.0409  0.7335
   51MOL0     C 6613  10.959   0.022   2.224  0.1614  0.2423  0.0675
   51MOL0     C 6614  11.083  -0.066   2.280 -0.0476 -0.3631 -0.2989
   51MOL0     C 6615  11.057  -0.212   2.272 -0.4847 -0.2345 -0.3632
   51MOL0     C 6616  11.138  -0.278   2.378 -0.6445 -0.0599 -1.0159
   51MOL0     N 6617  11.125  -0.421   2.357  1.2330  0.6867  0.4931
   51MOL0     C 6618  11.012  -0.484   2.407  0.0168 -0.2300 -0.5267
   51MOL0     C 6619  11.021  -0.603   2.345 -0.7550  0.2847 -0.5210
   51MOL0     C 6620  10.937  -0.722   2.355 -0.1010  0.3888  0.6637
   51MOL0     C 6621  10.786  -0.699   2.358  0.8909  0.9013  0.7861
   51MOL0     C 6622  10.740  -0.639   2.216  0.0172 -0.0904  0.0427
   51MOL0     C 6623  10.586  -0.616   2.219 -0.6292 -0.1950 -0.8690
   51MOL0     O 6624  10.543  -0.535   2.325  0.3459  0.0712 -0.1010
   51MOL0     C 6625  10.411  -0.540   2.353  0.2789  0.2326 -0.1852
   51MOL0     C 6626  10.371  -0.467   2.463  0.4156 -0.3047  0.2638
   51MOL0     C 6627  10.236  -0.415   2.479 -0.1986  0.4099 -0.5708
   51MOL0     C 6628  10.135  -0.453   2.386  0.2065  0.3901 -1.1611
   51MOL0     C 6629   9.999  -0.400   2.404  0.9048 -0.6034  0.0208
   51MOL0     O 6630   9.976  -0.312   2.504  0.3183 -0.1027 -0.2608
   51MOL0     C 6631   9.849  -0.264   2.527 -0.8280  0.8388  0.4955
   51MOL0     C 6632   9.758  -0.353   2.592  0.6054  0.0039  0.3465
   51MOL0     C 6633   9.615  -0.323   2.616 -0.0510 -0.6865 -0.4185
   51MOL0     C 6634   9.570  -0.198   2.567 -0.2215  0.3773 -0.1419
   51MOL0     O 6635   9.440  -0.160   2.582  0.7437 -0.5812  0.8469
   51MOL0     C 6636   9.406  -0.046   2.497 -1.1414 -0.6563 -0.0131
   51MOL0     C 6637   9.255  -0.023   2.479 -0.0944 -0.7293  0.8823
   51MOL0     C 6638   9.169  -0.053   2.607 -0.1739  0.5379  0.2993
   51MOL0     C 6639   9.021  -0.058   2.560 -0.2398  0.5346 -0.2966
   51MOL0     C 6640   8.935   0.053   2.628 -0.2484  0.1875 -0.9703
   51MOL0     C 6641   8.921   0.034   2.779  1.1065 -0.3862 -0.0979
   51MOL0     C 6642   8.783   0.105   2.820  0.1096 -0.0089  0.5522
   51MOL0     C 6643   8.751   0.088   2.975 -0.7037  0.4603  0.0679
   51MOL0    Cl 6644   8.901   0.125   3.081 -0.9907 -0.0901  0.0685
   51MOL0     C 6645   9.672  -0.111   2.516  0.3404  1.0634 -0.7230
   51MOL0     C 6646   9.804  -0.142   2.495  0.5934 -1.1893  1.1311
   51MOL0     O 6647   9.914  -0.438   2.318 -0.0911 -0.1209 -0.0374
   51MOL0     C 6648  10.177  -0.561   2.297  0.2769  0.1497  0.5254
   51MOL0     C 6649  10.302  -0.608   2.288 -0.7810 -0.0961  0.0961
   51MOL0     N 6650  11.129  -0.605   2.252  0.8054 -0.2551 -0.3415
   51MOL0     N 6651  11.185  -0.487   2.262  1.1158 -0.0934 -0.5284
   51MOL0     C 6652  10.995   0.658   1.977 -0.1508  0.6626  1.0950
   51MOL0     C 6653  11.066   0.787   1.967 -0.3415  0.0255 -0.7657
   51MOL0     C 6654  11.292   1.148   2.051 -0.2805 -0.7453 -0.8783
   51MOL0     C 6655  11.424   1.193   2.091  0.5165  0.4606 -0.0141
   51MOL0     C 6656  11.477   1.319   2.081  0.0142  0.0794  1.5043
   51MOL0     C 6657  11.402   1.410   2.006 -0.3903  0.2462  1.1130
   51MOL0     O 6658  11.442   1.539   1.968  0.0071  0.1708 -0.1666
   51MOL0     C 6659  11.542   1.602   2.042  0.0706  0.5368 -0.6661
   51MOL0     C 6660  11.555   1.747   2.004 -0.5502  0.1901  0.0386
   51MOL0     C 6661  11.526   1.822   2.145 -0.7608  0.5623 -0.4626
   51MOL0     C 6662  11.535   1.974   2.136 -0.2658 -0.1582 -0.0708
   51MOL0     C 6663  11.622   2.026   2.246  0.3969 -0.5460  0.1021
   51MOL0     C 6664  11.697   2.070   2.323 -0.0967 -1.3631 -0.3043
   51MOL0     C 6665  11.272   1.379   1.965 -0.8414 -0.3794  0.4345
   51MOL0     C 6666  11.226   1.248   1.987  0.1783 -0.0475  0.0499
   51MOL0     H 6667  10.915   0.932   2.231 -1.5458 -0.6595  0.9577
   51MOL0     H 6668  10.838   0.727   2.283 -0.6766 -1.8715 -0.7363
   51MOL0     H 6669  10.981   0.387   2.026 -0.1531  0.3256  3.8386
   51MOL0     H 6670  10.833   0.410   1.919 -2.1773 -1.0600  1.1463
   51MOL0     H 6671  10.828   0.180   2.023  3.4760 -0.9387  2.8519
   51MOL0     H 6672  10.693   0.289   2.074  0.7682  0.6408 -0.8198
   51MOL0     H 6673  10.767   0.183   2.275  0.8199 -0.1517 -0.2244
   51MOL0     H 6674  10.855   0.337   2.292  1.4395 -0.5267  1.5930
   51MOL0     H 6675  11.055   0.218   2.187 -1.3833 -0.2196 -0.9217
   51MOL0     H 6676  11.009   0.190   2.354 -2.0483  0.2018  1.3207
   51MOL0     H 6677  10.945  -0.004   2.118 -1.0536 -2.9200  0.8911
   51MOL0     H 6678  10.873  -0.023   2.273 -0.2361 -2.3222 -2.6956
   51MOL0     H 6679  11.090  -0.027   2.382 -3.7450  1.4965 -0.5810
   51MOL0     H 6680  11.177  -0.042   2.229  1.2833 -3.5622  0.4363
   51MOL0     H 6681  10.951  -0.230   2.291 -0.9047  1.1318 -1.2211
   51MOL0     H 6682  11.086  -0.245   2.172 -1.0455 -2.2445  0.0918
   51MOL0     H 6683  11.099  -0.248   2.476 -2.2686 -0.9328 -1.3545
   51MOL0     H 6684  11.244  -0.250   2.373 -0.6028  0.8899  2.6462
   51MOL0     H 6685  10.941  -0.440   2.476 -1.0209  1.7818 -2.7135
   51MOL0     H 6686  10.950  -0.788   2.442 -1.5325 -0.9462 -0.0899
   51MOL0     H 6687  10.962  -0.783   2.268 -1.6849 -0.2926  0.6492
   51MOL0     H 6688  10.757  -0.645   2.448  1.8714 -1.6079  2.7150
   51MOL0     H 6689  10.733  -0.794   2.373 -0.7008  1.3917 -1.1829
   51MOL0     H 6690  10.796  -0.546   2.199  2.9403 -1.5442  1.0060
   51MOL0     H 6691  10.769  -0.702   2.132  0.9630  0.9776 -0.4635
   51MOL0     H 6692  10.543  -0.717   2.227  0.3148 -0.6612 -1.5201
   51MOL0     H 6693  10.556  -0.578   2.121 -1.3951  1.5398 -0.0055
   51MOL0     H 6694  10.455  -0.429   2.520  0.9790  1.0849 -1.3929
   51MOL0     H 6695  10.209  -0.350   2.562 -3.4004  0.7521 -1.7020
   51MOL0     H 6696   9.803  -0.448   2.620 -1.6258 -0.6304  2.0211
   51MOL0     H 6697   9.549  -0.392   2.667  1.2844  0.0584  2.5466
   51MOL0     H 6698   9.450  -0.068   2.399 -4.1090  0.2729 -1.6961
   51MOL0     H 6699   9.443   0.046   2.543 -3.5622 -0.0670  0.9259
   51MOL0     H 6700   9.231  -0.098   2.402  0.4218  0.1112 -0.1183
   51MOL0     H 6701   9.236   0.072   2.429  1.4191 -0.9924 -0.2765
   51MOL0     H 6702   9.171   0.027   2.682 -2.3706  0.5478  0.4063
   51MOL0     H 6703   9.204  -0.142   2.660  0.5171  1.4894  1.4995
   51MOL0     H 6704   9.006  -0.051   2.452 -0.4086 -0.5649 -0.3518
   51MOL0     H 6705   8.992  -0.162   2.580 -1.4269  0.8614 -0.2688
   51MOL0     H 6706   8.840   0.058   2.574  0.6357  2.8178 -2.4128
   51MOL0     H 6707   8.994   0.144   2.618 -0.8773  0.6172 -0.8205
   51MOL0     H 6708   9.004   0.063   2.844 -1.8959 -1.4629  4.7124
   51MOL0     H 6709   8.919  -0.075   2.794  2.5564 -0.6778 -1.7000
   51MOL0     H 6710   8.787   0.213   2.801 -1.9842  0.1208  0.6100
   51MOL0     H 6711   8.700   0.075   2.757 -2.5533  0.7371  3.4435
   51MOL0     H 6712   8.727  -0.017   2.993 -1.5728  0.4245 -1.1529
   51MOL0     H 6713   8.670   0.153   3.009 -1.6177 -0.4128 -0.3841
   51MOL0     H 6714   9.639  -0.010   2.496 -0.6371  0.8473 -0.2707
   51MOL0     H 6715   9.885  -0.076   2.466 -1.5647  0.7271 -1.0083
   51MOL0     H 6716  10.095  -0.585   2.229 -1.2863  2.0607  1.6054
   51MOL0     H 6717  10.327  -0.664   2.199  2.9949  1.2820  0.1289
   51MOL0     H 6718  11.016   0.582   1.902 -1.7127  0.1449  1.1355
   51MOL0     H 6719  11.141   0.794   1.889 -0.4119 -2.8135 -1.1975
   51MOL0     H 6720  11.477   1.116   2.145 -0.8828 -1.2366 -0.9456
   51MOL0     H 6721  11.577   1.334   2.120  2.1876 -0.9092 -2.9461
   51MOL0     H 6722  11.638   1.553   2.023 -1.2451 -3.3123  1.5084
   51MOL0     H 6723  11.531   1.587   2.150  0.4734  0.9283 -0.5649
   51MOL0     H 6724  11.655   1.756   1.961 -0.8393 -0.7765 -0.8683
   51MOL0     H 6725  11.482   1.771   1.926 -2.3316 -2.6298  0.7119
   51MOL0     H 6726  11.601   1.782   2.214 -2.0284 -1.7450 -0.3290
   51MOL0     H 6727  11.436   1.771   2.183  1.0744 -1.4726  1.4052
   51MOL0     H 6728  11.580   2.007   2.043  2.8883  1.6576  1.9183
   51MOL0     H 6729  11.434   2.015   2.137 -0.4666 -0.6233 -0.6700
   51MOL0     H 6730  11.773   2.109   2.387 -0.8022  1.2908 -0.9745
   51MOL0     H 6731  11.223   1.456   1.906  4.4546  1.0352 -2.7776
   51MOL0     H 6732  11.128   1.220   1.948  0.1809  1.5372 -1.1932
   52MOL0     O 6733   7.486   4.834   9.122 -0.2684 -0.0464  0.6159
   52MOL0     C 6734   7.481   4.928   9.041 -0.3389  0.1074  1.2633
   52MOL0     O 6735   7.411   4.927   8.921 -0.3071 -0.6089  0.5620
   52MOL0     C 6736   7.333   4.820   8.886  0.2429  0.2988 -0.0333
   52MOL0     C 6737   7.315   4.785   8.748  0.3909 -0.1616  0.3843
   52MOL0     C 6738   7.221   4.688   8.707 -0.0955  1.7103  0.4430
   52MOL0     C 6739   7.149   4.610   8.803  0.7352 -0.0525  0.0520
   52MOL0     O 6740   7.041   4.525   8.783  0.4013 -1.2370  0.1576
   52MOL0     C 6741   6.991   4.518   8.656  0.1305 -0.5167 -0.0892
   52MOL0     C 6742   6.890   4.405   8.645 -0.6667  0.3460 -0.5083
   52MOL0     C 6743   6.862   4.362   8.501 -0.4615 -0.1727  0.2218
   52MOL0     C 6744   6.963   4.258   8.449  0.1496 -0.7438 -0.4160
   52MOL0     C 6745   6.949   4.210   8.300 -0.7592 -0.3046 -0.2306
   52MOL0     C 6746   7.038   4.087   8.258  0.3008 -0.1820  0.4821
   52MOL0     C 6747   7.057   4.070   8.115  0.5871 -0.6343 -0.8940
   52MOL0     C 6748   7.144   4.183   8.053  0.2423  0.2073  0.2309
   52MOL0     N 6749   7.120   4.217   7.908  0.4050  0.2081 -0.3238
   52MOL0     C 6750   7.110   4.125   7.809  0.5240 -0.6272 -0.5277
   52MOL0     C 6751   7.084   4.207   7.699  0.3046 -0.5491  0.6771
   52MOL0     C 6752   7.092   4.164   7.558 -1.1871  0.5441  0.5081
   52MOL0     C 6753   6.997   4.245   7.460 -0.0954  0.0447  0.4429
   52MOL0     C 6754   7.050   4.361   7.379  0.7657  0.3345 -0.0073
   52MOL0     C 6755   7.129   4.474   7.450  0.5333 -0.1048 -1.2438
   52MOL0     O 6756   7.150   4.578   7.353 -0.2776  0.2403  1.1955
   52MOL0     C 6757   7.053   4.663   7.309 -1.2447 -0.6930 -0.2385
   52MOL0     C 6758   6.928   4.676   7.378 -0.8519 -0.2731 -0.6907
   52MOL0     C 6759   6.836   4.773   7.331  0.0032 -0.2390 -0.0267
   52MOL0     C 6760   6.858   4.844   7.210  0.9711 -0.3073 -0.5859
   52MOL0     C 6761   6.749   4.939   7.163 -0.2438  0.3133 -0.3678
   52MOL0     O 6762   6.625   4.899   7.177 -0.6116  0.4166 -0.7660
   52MOL0     C 6763   6.523   4.980   7.157  0.3341 -0.9873 -0.0613
   52MOL0     C 6764   6.406   4.944   7.082 -0.6868 -0.4354 -1.2287
   52MOL0     C 6765   6.294   5.025   7.080 -0.2739  0.5234  0.2243
   52MOL0     C 6766   6.287   5.146   7.159 -0.9119  0.9192 -0.6057
   52MOL0     O 6767   6.179   5.214   7.197  0.4820  0.3953 -0.3534
   52MOL0     C 6768   6.054   5.193   7.122 -0.2719  0.7972  0.2828
   52MOL0     C 6769   5.935   5.289   7.150 -0.7821  0.8540 -0.3243
   52MOL0     C 6770   5.842   5.275   7.034 -0.9959 -0.5709 -0.5016
   52MOL0     C 6771   5.704   5.340   7.053  0.7052 -0.7299 -0.2944
   52MOL0     C 6772   5.610   5.330   6.927 -0.4639  1.7111 -0.8633
   52MOL0     C 6773   5.493   5.420   6.944  0.7387  0.9446 -0.5982
   52MOL0     C 6774   5.459   5.506   6.827 -0.2574  0.4999  0.5134
   52MOL0     C 6775   5.359   5.416   6.750  0.0016 -0.7794  0.1224
   52MOL0    Cl 6776   5.293   5.505   6.608  0.2770 -0.5399 -0.2842
   52MOL0     C 6777   6.412   5.188   7.209 -0.0955 -0.2955 -0.0009
   52MOL0     C 6778   6.525   5.112   7.217 -0.4796 -0.2628  0.3183
   52MOL0     O 6779   6.781   5.041   7.099 -0.4436  0.3199  0.5773
   52MOL0     C 6780   6.982   4.832   7.154 -0.1962  0.0866  0.3832
   52MOL0     C 6781   7.081   4.743   7.203 -0.7455 -0.0634 -0.7440
   52MOL0     N 6782   7.084   4.335   7.735 -0.4338 -0.6735 -0.8794
   52MOL0     N 6783   7.105   4.339   7.861  0.0490 -0.7595 -0.4505
   52MOL0     C 6784   7.188   4.627   8.936 -0.2851 -1.3254 -0.6450
   52MOL0     C 6785   7.263   4.741   8.982  0.3270  0.2476 -0.1293
   52MOL0     C 6786   7.520   5.068   9.083 -0.7300 -0.0581 -0.1783
   52MOL0     C 6787   7.463   5.184   9.036 -0.2129  0.1065  0.4102
   52MOL0     C 6788   7.500   5.314   9.089  0.4104  1.0168  0.4410
   52MOL0     C 6789   7.599   5.320   9.190  0.2896  0.0457 -0.1478
   52MOL0     O 6790   7.643   5.448   9.218  0.1118  0.6506  0.3374
   52MOL0     C 6791   7.743   5.465   9.315  0.9145  0.0442  0.8011
   52MOL0     C 6792   7.743   5.607   9.366 -0.1161  0.6537 -0.2899
   52MOL0     C 6793   7.818   5.604   9.504  0.0864  0.1101 -0.1767
   52MOL0     C 6794   7.904   5.729   9.548  0.2532  0.0492 -0.8943
   52MOL0     C 6795   8.030   5.718   9.473 -0.3771  0.3855 -0.9168
   52MOL0     C 6796   8.146   5.706   9.430 -1.0847 -0.0959 -0.2334
   52MOL0     C 6797   7.656   5.205   9.235  0.0967  0.4050  0.2968
   52MOL0     C 6798   7.626   5.082   9.176 -0.0173 -0.3468 -0.1682
   52MOL0     H 6799   7.379   4.841   8.681  1.1938  0.0680  1.3296
   52MOL0     H 6800   7.214   4.675   8.599 -0.9342 -0.4709  0.7069
   52MOL0     H 6801   7.075   4.502   8.587  0.6284 -1.1133  0.6420
   52MOL0     H 6802   6.940   4.612   8.635  0.0017 -0.4475  0.5198
   52MOL0     H 6803   6.802   4.417   8.708  0.1481 -0.5092  0.8465
   52MOL0     H 6804   6.938   4.313   8.679 -0.2131  0.2903 -1.2698
   52MOL0     H 6805   6.851   4.446   8.432 -1.2644  0.1370  0.7084
   52MOL0     H 6806   6.761   4.323   8.516 -0.6513 -0.1399 -0.9310
   52MOL0     H 6807   7.060   4.302   8.474 -0.2927 -1.4579  3.0028
   52MOL0     H 6808   6.969   4.170   8.513  3.6242 -0.6711 -0.4381
   52MOL0     H 6809   6.951   4.302   8.240  1.5668 -1.0203 -1.3825
   52MOL0     H 6810   6.848   4.174   8.277 -0.4654 -0.8953 -0.6223
   52MOL0     H 6811   6.990   3.996   8.295  2.7826 -0.9771  1.9407
   52MOL0     H 6812   7.136   4.095   8.306  0.6067 -0.8771 -0.0208
   52MOL0     H 6813   7.105   3.972   8.103  0.4819 -0.6864 -0.8880
   52MOL0     H 6814   6.965   4.061   8.056 -1.1639 -1.4029  1.7671
   52MOL0     H 6815   7.249   4.155   8.068 -0.2778 -2.1692 -0.1907
   52MOL0     H 6816   7.113   4.281   8.091 -0.9657  2.2576 -5.1557
   52MOL0     H 6817   7.125   4.018   7.815 -0.7315 -0.7625  0.5794
   52MOL0     H 6818   7.055   4.061   7.547  0.7483 -0.0422 -1.3311
   52MOL0     H 6819   7.196   4.169   7.523 -1.0189  2.5401  1.1988
   52MOL0     H 6820   6.911   4.287   7.514 -0.2884  0.0854  0.1064
   52MOL0     H 6821   6.959   4.179   7.382 -0.6781  0.2083  0.5794
   52MOL0     H 6822   7.115   4.326   7.299 -1.0590  1.7111 -2.2113
   52MOL0     H 6823   6.961   4.399   7.328  0.2902  3.9521  3.0796
   52MOL0     H 6824   7.223   4.443   7.496  0.5457 -0.7675 -1.7110
   52MOL0     H 6825   7.069   4.510   7.535 -2.2737  0.8044 -3.4596
   52MOL0     H 6826   6.903   4.611   7.461  4.1665 -0.1349  1.2934
   52MOL0     H 6827   6.745   4.783   7.389  0.5194 -3.1277  1.4484
   52MOL0     H 6828   6.400   4.846   7.034  2.1856 -2.1678  1.5801
   52MOL0     H 6829   6.202   4.995   7.032 -0.1164 -1.6744  1.1872
   52MOL0     H 6830   6.013   5.091   7.126 -1.7192  1.1269 -3.3357
   52MOL0     H 6831   6.087   5.218   7.021  1.6093 -2.5167 -0.0894
   52MOL0     H 6832   5.970   5.392   7.162  1.3556  0.0796  0.6668
   52MOL0     H 6833   5.880   5.266   7.242 -1.5281 -0.6129 -1.0963
   52MOL0     H 6834   5.815   5.172   7.010  0.1155 -0.5407 -2.0393
   52MOL0     H 6835   5.895   5.308   6.943  0.5682 -1.3843  0.0751
   52MOL0     H 6836   5.658   5.303   7.145 -3.4377  3.1990 -0.4801
   52MOL0     H 6837   5.701   5.444   7.088 -0.1243 -1.8138  3.3259
   52MOL0     H 6838   5.582   5.225   6.918  0.6403  1.2461  0.7781
   52MOL0     H 6839   5.665   5.359   6.837  0.3513  0.6796 -0.7095
   52MOL0     H 6840   5.520   5.489   7.025 -2.0609 -0.4973  1.7851
   52MOL0     H 6841   5.414   5.364   6.996  0.8313 -0.0520 -1.4979
   52MOL0     H 6842   5.415   5.597   6.868 -1.8472 -0.4736  1.0827
   52MOL0     H 6843   5.554   5.517   6.775  0.1536 -0.4531  1.0282
   52MOL0     H 6844   5.278   5.389   6.818  1.8420  0.4506  2.9929
   52MOL0     H 6845   5.408   5.329   6.706  4.2411  0.6808  1.3940
   52MOL0     H 6846   6.407   5.278   7.269  1.5424  0.2116 -0.5580
   52MOL0     H 6847   6.599   5.147   7.288 -0.8898 -0.3626  0.7947
   52MOL0     H 6848   6.999   4.887   7.063  0.7087 -2.1220 -0.8583
   52MOL0     H 6849   7.183   4.733   7.168 -0.6802 -2.1742 -0.0952
   52MOL0     H 6850   7.140   4.571   9.016 -0.3306  1.6887  1.6312
   52MOL0     H 6851   7.270   4.757   9.089  3.3181 -2.9450  0.3394
   52MOL0     H 6852   7.384   5.176   8.961 -2.6096  3.7123  2.2477
   52MOL0     H 6853   7.459   5.409   9.055 -1.6854  0.1397  0.4207
   52MOL0     H 6854   7.840   5.435   9.274  1.1646  1.1623  0.5402
   52MOL0     H 6855   7.718   5.397   9.398 -1.7489  1.4361  1.2466
   52MOL0     H 6856   7.800   5.660   9.289  0.3077 -0.1104 -0.5124
   52MOL0     H 6857   7.640   5.643   9.368 -0.4093 -0.1674 -0.4369
   52MOL0     H 6858   7.891   5.523   9.508  0.5513  0.5692  1.3387
   52MOL0     H 6859   7.738   5.600   9.577 -2.9105 -1.8413 -3.2549
   52MOL0     H 6860   7.845   5.819   9.529 -1.8818 -1.1622 -0.3310
   52MOL0     H 6861   7.920   5.726   9.656 -0.2812 -1.9179 -0.8395
   52MOL0     H 6862   8.245   5.701   9.390 -1.6614  3.4356 -2.5969
   52MOL0     H 6863   7.736   5.204   9.309 -0.4208 -4.0968  1.0833
   52MOL0     H 6864   7.656   4.997   9.236 -2.0637  0.1568  1.7249
   53MOL0     O 6865   7.059   9.841   6.252 -0.2983 -0.4360 -0.6959
   53MOL0     C 6866   7.123   9.808   6.353  0.0805 -0.5673  0.1992
   53MOL0     O 6867   7.253   9.803   6.367  0.2863 -0.5066 -0.6534
   53MOL0     C 6868   7.336   9.854   6.272  0.3667 -0.5035 -0.0188
   53MOL0     C 6869   7.465   9.808   6.288 -0.2632 -0.2045 -1.3132
   53MOL0     C 6870   7.557   9.843   6.196 -0.0156 -0.4901  0.3960
   53MOL0     C 6871   7.538   9.930   6.094 -0.6094  0.8610 -0.9017
   53MOL0     O 6872   7.638   9.981   6.020 -0.7508  0.2759  0.9985
   53MOL0     C 6873   7.713   9.885   5.929  0.5391  0.1210  0.3778
   53MOL0     C 6874   7.646   9.880   5.794  0.0559  0.2954  0.2751
   53MOL0     C 6875   7.685  10.016   5.728 -0.4323 -0.3504 -0.0693
   53MOL0     C 6876   7.619  10.021   5.584 -0.4419 -0.2369 -0.5847
   53MOL0     C 6877   7.711   9.990   5.471 -0.6655  0.1606  0.1511
   53MOL0     C 6878   7.826  10.104   5.463  0.1408  0.4642 -0.0229
   53MOL0     C 6879   7.972  10.054   5.447 -0.2123  0.0960  1.6174
   53MOL0     C 6880   7.976   9.974   5.320 -0.8351 -0.5535 -0.7635
   53MOL0     N 6881   8.098   9.903   5.288  0.3915 -0.0609  0.4459
   53MOL0     C 6882   8.190   9.857   5.375  0.0397 -0.2475  0.0178
   53MOL0     C 6883   8.284   9.788   5.305 -0.6935 -0.4527  0.4755
   53MOL0     C 6884   8.411   9.746   5.371 -0.5240 -0.2617  0.2713
   53MOL0     C 6885   8.539   9.818   5.311  1.0823 -0.0926  0.1808
   53MOL0     C 6886   8.682   9.776   5.360 -0.1052 -0.0693 -0.9520
   53MOL0     C 6887   8.704   9.755   5.510 -0.4751  0.2930  0.4635
   53MOL0     O 6888   8.846   9.758   5.527  0.4847 -0.5089 -0.9259
   53MOL0     C 6889   8.884   9.732   5.659  0.7568  0.5485 -0.7933
   53MOL0     C 6890   8.799   9.727   5.775  0.3788 -0.4645  0.2934
   53MOL0     C 6891   8.846   9.710   5.906 -0.9306 -0.2383  1.0125
   53MOL0     C 6892   8.982   9.688   5.917 -0.6700 -0.2043 -0.3303
   53MOL0     C 6893   9.043   9.667   6.052  0.7515 -0.6704  0.4336
   53MOL0     O 6894   9.184   9.688   6.067  0.6306 -0.0008  0.6452
   53MOL0     C 6895   9.237   9.703   6.185 -0.2289 -0.3077 -0.0702
   53MOL0     C 6896   9.243   9.607   6.291 -0.6149 -0.2120  0.4316
   53MOL0     C 6897   9.331   9.633   6.401 -0.0232  0.5642 -0.8670
   53MOL0     C 6898   9.405   9.749   6.414 -0.5170  0.5559 -1.0622
   53MOL0     O 6899   9.486   9.784   6.514  0.9194 -0.1744  0.1598
   53MOL0     C 6900   9.455   9.756   6.654 -0.1005 -0.1801  0.4843
   53MOL0     C 6901   9.560   9.649   6.692  0.1830  0.1649  0.4382
   53MOL0     C 6902   9.588   9.640   6.846  0.3709 -0.0464  0.0802
   53MOL0     C 6903   9.711   9.552   6.897  0.3008  0.7308  0.9266
   53MOL0     C 6904   9.836   9.595   6.822 -0.1207 -0.3183  0.1115
   53MOL0     C 6905   9.965   9.547   6.894  0.6356 -0.6224 -0.0216
   53MOL0     C 6906   9.963   9.399   6.908 -0.6332  0.4823  0.0322
   53MOL0     C 6907  10.082   9.350   6.990  0.7084  0.4239  0.8845
   53MOL0    Cl 6908  10.079   9.408   7.152 -0.2639  0.1943 -0.3540
   53MOL0     C 6909   9.395   9.838   6.314 -0.5248  1.1336 -0.0666
   53MOL0     C 6910   9.312   9.825   6.205  0.9480  0.0268  0.2198
   53MOL0     O 6911   8.964   9.650   6.144 -0.4689  0.3358  0.4188
   53MOL0     C 6912   9.068   9.697   5.808  0.1398 -0.4681 -0.0270
   53MOL0     C 6913   9.018   9.734   5.682 -0.1913  0.2015  0.0450
   53MOL0     N 6914   8.247   9.800   5.174 -0.7704 -0.7332  0.6358
   53MOL0     N 6915   8.133   9.859   5.163  0.2448 -1.0096  0.1202
   53MOL0     C 6916   7.410   9.980   6.083  0.3085  0.1446 -0.0452
   53MOL0     C 6917   7.310   9.942   6.168 -0.3927  0.1756  0.4532
   53MOL0     C 6918   7.051   9.783   6.470  0.3941  0.3234 -0.3141
   53MOL0     C 6919   7.102   9.716   6.587  0.0270  0.9593  0.1497
   53MOL0     C 6920   7.020   9.700   6.696 -1.0141 -0.5156  0.1248
   53MOL0     C 6921   6.903   9.760   6.705  0.1784 -0.2503 -0.2761
   53MOL0     O 6922   6.830   9.728   6.825 -0.3119  0.1443  0.3604
   53MOL0     C 6923   6.684   9.739   6.845 -0.3539 -0.9336 -0.0796
   53MOL0     C 6924   6.646   9.889   6.857 -0.6418  0.1563 -0.2919
   53MOL0     C 6925   6.720   9.958   6.974  0.1327  0.8716  0.4990
   53MOL0     C 6926   6.744  10.097   6.956  0.4654 -0.7556  0.7748
   53MOL0     C 6927   6.615  10.162   6.929 -0.2958 -0.3271 -0.3978
   53MOL0     C 6928   6.503  10.202   6.935  1.2120 -0.1031  0.2093
   53MOL0     C 6929   6.846   9.826   6.589  0.2664 -0.3387 -0.2288
   53MOL0     C 6930   6.915   9.832   6.474  0.2171 -0.4287  0.5437
   53MOL0     H 6931   7.491   9.740   6.368  0.6097 -0.5487 -1.8749
   53MOL0     H 6932   7.660   9.807   6.199  1.1931  2.3642 -1.5883
   53MOL0     H 6933   7.723   9.790   5.982 -2.1084 -0.5991 -0.3103
   53MOL0     H 6934   7.817   9.916   5.916  1.1118 -2.0523 -0.6051
   53MOL0     H 6935   7.539   9.861   5.804  0.1222  0.4931  1.4740
   53MOL0     H 6936   7.681   9.796   5.734 -1.9190 -1.6177  1.6541
   53MOL0     H 6937   7.791  10.024   5.704 -1.3629  3.0770 -4.3114
   53MOL0     H 6938   7.645  10.085   5.803  2.1366 -0.2952  1.3796
   53MOL0     H 6939   7.544   9.943   5.576 -2.0676  1.2666 -0.6235
   53MOL0     H 6940   7.573  10.117   5.556 -0.0131 -0.1613 -1.0582
   53MOL0     H 6941   7.665   9.970   5.374 -0.3816  1.0247 -0.1712
   53MOL0     H 6942   7.747   9.892   5.503 -3.0782 -1.1303 -0.8477
   53MOL0     H 6943   7.831  10.168   5.552 -0.7980 -0.5309  0.7644
   53MOL0     H 6944   7.804  10.163   5.373  1.8439 -1.6047 -1.9167
   53MOL0     H 6945   8.027  10.146   5.425  1.2625 -1.7058 -3.4152
   53MOL0     H 6946   8.023   9.994   5.523  2.7592 -0.1758 -0.4094
   53MOL0     H 6947   7.942  10.030   5.233 -3.7814  0.2076  0.7694
   53MOL0     H 6948   7.897   9.898   5.318 -0.9493 -0.4102 -1.6457
   53MOL0     H 6949   8.189   9.867   5.483 -1.2951 -2.7340  0.3074
   53MOL0     H 6950   8.419   9.640   5.347  0.7297  0.4063 -2.7463
   53MOL0     H 6951   8.400   9.754   5.480  0.8544 -1.4130  0.5334
   53MOL0     H 6952   8.518   9.922   5.335  1.4602 -0.2443  1.2161
   53MOL0     H 6953   8.536   9.808   5.202  0.3250  3.1409 -0.1882
   53MOL0     H 6954   8.712   9.680   5.319  2.0867  0.8028 -1.5586
   53MOL0     H 6955   8.766   9.840   5.332 -0.2515  1.1982  1.2686
   53MOL0     H 6956   8.669   9.656   5.541 -1.4257  0.0734 -1.1785
   53MOL0     H 6957   8.650   9.830   5.569 -0.6272  0.4199  0.1685
   53MOL0     H 6958   8.692   9.745   5.773  0.6884  1.6116  0.5840
   53MOL0     H 6959   8.779   9.718   5.991  0.0349 -0.4722  1.8164
   53MOL0     H 6960   9.195   9.511   6.280  0.9131 -0.8008 -2.1185
   53MOL0     H 6961   9.322   9.557   6.479 -0.1585  0.9437 -0.5125
   53MOL0     H 6962   9.350   9.724   6.658 -0.3813  0.8116  2.0160
   53MOL0     H 6963   9.448   9.843   6.720  0.1460  0.3668 -0.2038
   53MOL0     H 6964   9.653   9.683   6.648  1.0538 -1.0044  1.3138
   53MOL0     H 6965   9.542   9.548   6.656  3.3231  0.2786 -1.8259
   53MOL0     H 6966   9.500   9.604   6.900 -0.7528  1.8472 -0.3798
   53MOL0     H 6967   9.610   9.743   6.877  0.1461 -0.0101  0.1190
   53MOL0     H 6968   9.717   9.560   7.006 -2.7372 -1.8574  1.4395
   53MOL0     H 6969   9.701   9.447   6.868  2.2768  0.5677  0.6812
   53MOL0     H 6970   9.831   9.703   6.810 -2.5031 -0.5835 -2.2312
   53MOL0     H 6971   9.835   9.553   6.720  0.4210  0.8810 -0.4017
   53MOL0     H 6972   9.964   9.599   6.991 -0.7265  1.2337 -0.9768
   53MOL0     H 6973  10.060   9.576   6.847 -0.5201  3.2116 -0.3926
   53MOL0     H 6974   9.874   9.358   6.956 -2.2383  0.0994 -2.9790
   53MOL0     H 6975   9.965   9.351   6.809  0.4663  0.0495  0.2460
   53MOL0     H 6976  10.168   9.388   6.935  0.7440  0.7196  1.1373
   53MOL0     H 6977  10.092   9.241   6.991  2.2904  0.5377  0.2988
   53MOL0     H 6978   9.459   9.925   6.326  0.9407  0.2395 -1.0860
   53MOL0     H 6979   9.329   9.903   6.131 -1.3306  0.1511 -0.2392
   53MOL0     H 6980   9.173   9.673   5.807  0.2926  0.0688  1.0544
   53MOL0     H 6981   9.076   9.749   5.591  1.0536  1.3262  0.9878
   53MOL0     H 6982   7.384  10.046   6.001 -1.7634  0.7558  1.0549
   53MOL0     H 6983   7.210   9.966   6.136 -0.9459 -2.5013 -0.0843
   53MOL0     H 6984   7.193   9.658   6.598  0.8008  2.1203  0.1008
   53MOL0     H 6985   7.062   9.640   6.776 -0.5813 -1.0308 -0.4792
   53MOL0     H 6986   6.654   9.699   6.942 -0.6672 -2.3697 -0.7425
   53MOL0     H 6987   6.621   9.698   6.765  0.6151  3.6062 -3.6013
   53MOL0     H 6988   6.672   9.934   6.761 -2.7913  1.3712 -0.3816
   53MOL0     H 6989   6.540   9.897   6.882 -0.7552  0.4306 -0.8332
   53MOL0     H 6990   6.820   9.915   6.981  1.2148  2.7289 -2.2041
   53MOL0     H 6991   6.665   9.933   7.066 -0.9994  1.3942 -0.0163
   53MOL0     H 6992   6.797  10.134   7.044  2.1596  0.1908 -0.5768
   53MOL0     H 6993   6.808  10.127   6.873  2.6794  0.8629  2.9151
   53MOL0     H 6994   6.401  10.229   6.957  1.5926 -0.6469  2.9301
   53MOL0     H 6995   6.743   9.862   6.593  0.0260 -0.5022 -2.9486
   53MOL0     H 6996   6.862   9.887   6.396 -0.5836 -1.3161  0.4361
   54MOL0     O 6997   3.088   5.968   3.001 -0.6572  0.8346  0.4558
   54MOL0     C 6998   3.013   6.051   2.959  0.1362 -0.2261  0.1568
   54MOL0     O 6999   2.945   6.143   3.029  0.3292  0.3367 -0.0630
   54MOL0     C 7000   2.998   6.179   3.149  0.1031  0.7861 -0.2036
   54MOL0     C 7001   2.899   6.183   3.246 -0.1006 -0.1740 -0.0060
   54MOL0     C 7002   2.925   6.239   3.369 -0.5113  0.1317 -0.1752
   54MOL0     C 7003   3.048   6.307   3.387  0.1895  0.2692  0.1023
   54MOL0     O 7004   3.086   6.376   3.509  0.0449 -0.3929  0.2584
   54MOL0     C 7005   2.968   6.412   3.589  0.1380 -0.0640  0.6586
   54MOL0     C 7006   3.003   6.493   3.712 -0.0128  0.2937 -0.2240
   54MOL0     C 7007   3.153   6.483   3.755 -0.2596  0.0339 -0.5196
   54MOL0     C 7008   3.203   6.585   3.856 -0.0771 -0.7634 -0.0557
   54MOL0     C 7009   3.262   6.713   3.796 -0.9026 -0.1829 -0.0339
   54MOL0     C 7010   3.159   6.833   3.785  0.8696  1.0243  0.2189
   54MOL0     C 7011   3.214   6.968   3.739  0.4162  0.2809 -0.3090
   54MOL0     C 7012   3.106   7.082   3.733  0.6651 -1.0352  0.2178
   54MOL0     N 7013   3.075   7.128   3.870  0.3938 -0.1999  0.4100
   54MOL0     C 7014   2.985   7.065   3.943  0.4252  0.9613 -1.5254
   54MOL0     C 7015   2.979   7.146   4.058 -1.7354 -0.4694 -0.1186
   54MOL0     C 7016   2.875   7.130   4.165 -0.2381 -0.6305  0.5184
   54MOL0     C 7017   2.763   7.038   4.124  0.0383 -0.4481 -0.7854
   54MOL0     C 7018   2.648   7.100   4.045 -0.0467  0.5041 -0.7060
   54MOL0     C 7019   2.517   7.024   4.080  0.9703 -0.2004 -0.7276
   54MOL0     O 7020   2.501   6.889   4.039 -0.1836 -0.0071  0.2398
   54MOL0     C 7021   2.370   6.851   4.039 -0.4368 -0.4807 -0.1397
   54MOL0     C 7022   2.317   6.807   3.914  0.7174 -0.4797  0.0729
   54MOL0     C 7023   2.187   6.771   3.901 -0.9710  0.3406  0.1831
   54MOL0     C 7024   2.099   6.766   4.018  0.3964 -0.4135 -0.3301
   54MOL0     C 7025   1.951   6.738   3.995 -0.4786 -0.5025  0.0646
   54MOL0     O 7026   1.906   6.642   3.900  0.0885  0.1198  0.1404
   54MOL0     C 7027   1.772   6.634   3.876  0.5181  1.2797 -0.2023
   54MOL0     C 7028   1.702   6.511   3.883  0.7283 -0.1981 -0.4322
   54MOL0     C 7029   1.567   6.517   3.834  0.4697  0.6135 -1.2298
   54MOL0     C 7030   1.489   6.629   3.817  0.0888  0.6882 -0.5310
   54MOL0     O 7031   1.357   6.633   3.781  0.9064  0.0149  0.0873
   54MOL0     C 7032   1.260   6.530   3.829  0.6415  0.2197  0.1013
   54MOL0     C 7033   1.132   6.593   3.812 -0.5638 -1.1227 -0.1304
   54MOL0     C 7034   1.012   6.524   3.859  0.3286  0.0606  0.1611
   54MOL0     C 7035   0.886   6.607   3.813  0.9676 -0.0115 -0.3726
   54MOL0     C 7036   0.750   6.583   3.890 -0.7477 -0.6475  0.7461
   54MOL0     C 7037   0.628   6.654   3.820 -0.0587 -0.6966 -0.3207
   54MOL0     C 7038   0.586   6.592   3.694  0.4973 -0.0640 -0.4136
   54MOL0     C 7039   0.466   6.678   3.630 -0.0650  0.8540  1.2969
   54MOL0    Cl 7040   0.397   6.599   3.483 -0.0997 -0.0512  0.1097
   54MOL0     C 7041   1.556   6.747   3.821  0.7230  0.2918  0.2653
   54MOL0     C 7042   1.694   6.749   3.842 -1.0499 -0.4273  0.2831
   54MOL0     O 7043   1.873   6.815   4.050  0.1455 -0.0205  0.5545
   54MOL0     C 7044   2.155   6.816   4.142  1.2184  0.3568  0.1983
   54MOL0     C 7045   2.286   6.865   4.150 -0.3529  0.6490 -0.3301
   54MOL0     N 7046   3.079   7.243   4.046  0.7987 -0.6809 -0.3577
   54MOL0     N 7047   3.131   7.234   3.931 -0.2033 -0.4158 -0.2441
   54MOL0     C 7048   3.141   6.300   3.289  0.0568 -0.2852  0.4424
   54MOL0     C 7049   3.125   6.225   3.175  0.0205  0.1459 -0.1003
   54MOL0     C 7050   2.982   6.055   2.813  0.0367  0.3147 -0.5073
   54MOL0     C 7051   3.049   5.965   2.722  0.3211 -1.3355 -0.4508
   54MOL0     C 7052   3.024   5.973   2.584  0.4984 -0.7016  0.5829
   54MOL0     C 7053   2.936   6.070   2.532  0.3355  0.4309 -0.4554
   54MOL0     O 7054   2.915   6.055   2.398  0.1412 -0.2193 -0.1446
   54MOL0     C 7055   2.805   6.123   2.336 -0.9991 -0.6776 -0.3783
   54MOL0     C 7056   2.788   6.084   2.189 -0.1005  0.5409 -0.4746
   54MOL0     C 7057   2.916   6.142   2.121 -0.1084 -0.7802  0.1906
   54MOL0     C 7058   2.927   6.299   2.120 -0.5161 -0.0641  0.7665
   54MOL0     C 7059   3.029   6.342   2.017  0.0072 -0.1239 -1.1526
   54MOL0     C 7060   3.098   6.373   1.923  0.0717 -0.3149 -0.9887
   54MOL0     C 7061   2.867   6.162   2.617  0.1953 -0.6385  0.2408
   54MOL0     C 7062   2.895   6.143   2.754  0.3283 -0.1539 -0.0208
   54MOL0     H 7063   2.794   6.163   3.226  0.1506  0.1581 -1.8513
   54MOL0     H 7064   2.843   6.232   3.439 -2.4712 -0.8321 -2.4540
   54MOL0     H 7065   2.934   6.317   3.631  1.5349  0.3110  2.8077
   54MOL0     H 7066   2.898   6.469   3.529 -0.0991 -0.5557  0.4625
   54MOL0     H 7067   2.951   6.452   3.799 -1.6832 -0.5078 -1.5385
   54MOL0     H 7068   2.961   6.594   3.713 -0.2520  0.2242  2.2884
   54MOL0     H 7069   3.215   6.489   3.665 -1.2989  4.2927 -1.1804
   54MOL0     H 7070   3.164   6.377   3.783  0.0813 -0.6432 -2.9560
   54MOL0     H 7071   3.117   6.601   3.921 -1.6778 -2.3744 -1.6658
   54MOL0     H 7072   3.295   6.539   3.893  1.4034  2.0253  0.0247
   54MOL0     H 7073   3.300   6.686   3.696 -4.0564 -0.0138 -1.3986
   54MOL0     H 7074   3.330   6.759   3.868 -1.1905  2.1263 -1.1444
   54MOL0     H 7075   3.114   6.845   3.884 -1.5520 -4.1904  0.1162
   54MOL0     H 7076   3.071   6.802   3.727  0.9483  1.4954 -0.1500
   54MOL0     H 7077   3.289   7.011   3.805 -0.5994 -1.4378  2.1372
   54MOL0     H 7078   3.254   6.966   3.637 -1.6433  1.5780 -1.2109
   54MOL0     H 7079   3.019   7.039   3.682 -1.8480  0.9164  2.5450
   54MOL0     H 7080   3.138   7.167   3.673 -0.5734  1.7333  3.1855
   54MOL0     H 7081   2.920   6.981   3.922 -3.4928  2.9286  1.3154
   54MOL0     H 7082   2.855   7.228   4.209  1.4510  0.1384 -0.3365
   54MOL0     H 7083   2.920   7.073   4.247 -0.7036 -1.8951 -0.0783
   54MOL0     H 7084   2.721   7.012   4.222  1.7935 -2.5122 -0.5138
   54MOL0     H 7085   2.805   6.950   4.075  1.2622  0.3220 -1.1717
   54MOL0     H 7086   2.645   7.209   4.054 -3.0499  0.6843 -2.6053
   54MOL0     H 7087   2.658   7.070   3.941  1.4354  6.2687 -2.5991
   54MOL0     H 7088   2.438   7.083   4.032  0.9591  3.9692  3.6835
   54MOL0     H 7089   2.492   7.039   4.185  2.4025  1.1921 -0.5407
   54MOL0     H 7090   2.384   6.819   3.829 -0.6932  1.3472 -0.8661
   54MOL0     H 7091   2.138   6.752   3.807 -2.3961 -1.0165  1.1404
   54MOL0     H 7092   1.749   6.416   3.908  1.2765  0.0531 -0.4818
   54MOL0     H 7093   1.525   6.418   3.818 -0.7140  0.6672  1.0369
   54MOL0     H 7094   1.289   6.527   3.934 -0.5041  0.2125  0.4281
   54MOL0     H 7095   1.272   6.434   3.778 -1.4738 -1.7449  3.0037
   54MOL0     H 7096   1.111   6.605   3.705 -0.8153 -0.0130  0.0264
   54MOL0     H 7097   1.138   6.693   3.857 -1.5487 -0.1839 -1.9577
   54MOL0     H 7098   1.012   6.510   3.967 -0.8532 -0.3791  0.1251
   54MOL0     H 7099   0.995   6.426   3.813 -4.1971  0.1586  1.1016
   54MOL0     H 7100   0.912   6.714   3.816  0.6545  0.0889  3.0930
   54MOL0     H 7101   0.873   6.589   3.706 -0.2783 -1.2664 -0.0340
   54MOL0     H 7102   0.751   6.620   3.992  0.5810 -0.2673  0.6163
   54MOL0     H 7103   0.728   6.476   3.895  2.5780 -1.5554 -0.8236
   54MOL0     H 7104   0.651   6.759   3.797 -2.4083 -0.2443 -0.9692
   54MOL0     H 7105   0.540   6.655   3.885 -0.6400  2.2423 -0.9854
   54MOL0     H 7106   0.672   6.586   3.627  0.4548  0.4008 -0.5146
   54MOL0     H 7107   0.545   6.493   3.720 -0.3960  0.1224 -1.0477
   54MOL0     H 7108   0.507   6.770   3.587 -2.1665  1.3982  0.3188
   54MOL0     H 7109   0.384   6.699   3.700 -1.2397 -2.9196  1.2944
   54MOL0     H 7110   1.495   6.836   3.807  0.4345  0.0386 -0.1008
   54MOL0     H 7111   1.734   6.849   3.852 -1.2458 -0.4669  1.6985
   54MOL0     H 7112   2.094   6.828   4.231 -0.5383  0.2080 -0.9525
   54MOL0     H 7113   2.339   6.904   4.236  3.2772 -2.6616 -0.7966
   54MOL0     H 7114   3.234   6.353   3.297 -0.4911  0.4339  2.8140
   54MOL0     H 7115   3.198   6.230   3.095 -0.2662 -2.2831 -0.6179
   54MOL0     H 7116   3.113   5.890   2.769  2.6735  3.6305  5.6775
   54MOL0     H 7117   3.047   5.889   2.519 -1.6251  0.7291 -2.2794
   54MOL0     H 7118   2.827   6.230   2.346  2.4361 -1.0304 -2.6540
   54MOL0     H 7119   2.706   6.103   2.379 -1.7395 -1.1108 -2.2101
   54MOL0     H 7120   2.785   5.976   2.170 -1.9355 -0.5928  4.5925
   54MOL0     H 7121   2.695   6.136   2.164 -1.7557 -0.4848  2.9100
   54MOL0     H 7122   2.912   6.102   2.020  1.8062  1.7784 -1.0168
   54MOL0     H 7123   3.011   6.099   2.153  0.2491 -2.3368 -2.6548
   54MOL0     H 7124   2.833   6.348   2.093 -0.2708 -0.7252 -1.5060
   54MOL0     H 7125   2.962   6.336   2.217  0.7552 -0.1435  0.3591
   54MOL0     H 7126   3.179   6.393   1.855  1.1083  0.7849  0.5082
   54MOL0     H 7127   2.809   6.247   2.582  1.6399  0.3524  0.1514
   54MOL0     H 7128   2.845   6.206   2.828  1.8363  0.6157  0.3904
   55MOL0     O 7129   1.782   2.880   0.113 -0.0663 -0.3683 -0.8416
   55MOL0     C 7130   1.800   2.768   0.155  0.7077  1.1476  0.6608
   55MOL0     O 7131   1.693   2.679   0.184  0.6024 -0.2793  0.3166
   55MOL0     C 7132   1.570   2.723   0.158  0.9781 -0.3157  0.4385
   55MOL0     C 7133   1.515   2.691   0.032 -0.1840 -0.0756  0.1885
   55MOL0     C 7134   1.386   2.733  -0.011 -0.1445  0.4240 -1.2369
   55MOL0     C 7135   1.314   2.808   0.082  0.3297  0.0505  0.3234
   55MOL0     O 7136   1.189   2.837   0.037 -0.1508 -0.2278  0.3453
   55MOL0     C 7137   1.133   2.968   0.038 -0.0081  0.7070 -0.2499
   55MOL0     C 7138   0.993   2.961  -0.013 -0.3441  0.3411 -0.2209
   55MOL0     C 7139   0.996   2.905  -0.161 -0.7214  1.1495 -0.3132
   55MOL0     C 7140   0.870   2.862  -0.218 -0.1967  0.5618  0.1543
   55MOL0     C 7141   0.784   2.980  -0.246  0.9385 -0.2192  0.5814
   55MOL0     C 7142   0.660   2.937  -0.310  1.0058  0.2558  0.7473
   55MOL0     C 7143   0.568   3.047  -0.385  0.0659  0.0292 -0.2277
   55MOL0     C 7144   0.496   3.152  -0.304  0.1734 -0.2309 -1.4037
   55MOL0     N 7145   0.587   3.245  -0.230  0.3077  0.7838  0.1469
   55MOL0     C 7146   0.668   3.344  -0.283 -0.2704 -1.3277  0.6205
   55MOL0     C 7147   0.726   3.405  -0.177  0.4608  0.6363 -0.3740
   55MOL0     C 7148   0.804   3.537  -0.185 -0.2224  0.1560  0.3487
   55MOL0     C 7149   0.941   3.540  -0.106  0.3007  0.0908  1.0513
   55MOL0     C 7150   1.024   3.407  -0.124 -0.5270 -0.1182 -0.4494
   55MOL0     C 7151   1.178   3.426  -0.128  0.1877  0.1001 -0.1451
   55MOL0     O 7152   1.218   3.525  -0.032  1.2743  0.3219 -0.5837
   55MOL0     C 7153   1.357   3.530  -0.004  0.0514 -0.4072 -0.8489
   55MOL0     C 7154   1.459   3.461  -0.064  0.0432 -0.9741  0.2172
   55MOL0     C 7155   1.592   3.477  -0.026  0.5032 -0.4830  0.0956
   55MOL0     C 7156   1.640   3.586   0.056 -0.0040  0.6532 -0.9897
   55MOL0     C 7157   1.780   3.603   0.070  0.3717 -0.1292 -0.5872
   55MOL0     O 7158   1.833   3.708   0.147 -0.0386 -0.5219  0.2083
   55MOL0     C 7159   1.968   3.705   0.178  0.3342  0.0546 -0.5249
   55MOL0     C 7160   2.054   3.757   0.082  1.1694 -0.3404 -0.2647
   55MOL0     C 7161   2.190   3.732   0.093 -0.1615 -0.1473 -0.5114
   55MOL0     C 7162   2.243   3.661   0.201 -0.4725 -0.6815  0.1052
   55MOL0     O 7163   2.378   3.634   0.199 -0.3579 -0.1268  0.3307
   55MOL0     C 7164   2.427   3.537   0.283 -0.0518  0.2101  0.0040
   55MOL0     C 7165   2.575   3.518   0.254  0.3376 -0.3785 -0.0517
   55MOL0     C 7166   2.590   3.432   0.125  0.3637  0.0596 -0.8410
   55MOL0     C 7167   2.737   3.404   0.067  0.0192  0.2227 -0.7505
   55MOL0     C 7168   2.823   3.331   0.170 -0.9022  0.7960 -0.0851
   55MOL0     C 7169   2.952   3.276   0.116 -0.5636 -0.1343 -0.1129
   55MOL0     C 7170   3.047   3.204   0.221 -0.0106 -0.4392  0.0759
   55MOL0     C 7171   3.176   3.164   0.144  0.0343 -0.3514 -0.4007
   55MOL0    Cl 7172   3.288   3.301   0.104 -0.4808  0.0676  0.2238
   55MOL0     C 7173   2.159   3.608   0.295 -0.1797 -0.4441 -0.3815
   55MOL0     C 7174   2.024   3.631   0.289  0.9965 -0.2120 -0.4039
   55MOL0     O 7175   1.853   3.515   0.019 -0.2415  0.0803 -0.3651
   55MOL0     C 7176   1.536   3.655   0.125 -0.3877 -1.3852 -0.2963
   55MOL0     C 7177   1.399   3.616   0.103  1.1148 -0.5763 -0.1640
   55MOL0     N 7178   0.678   3.346  -0.059 -0.4923 -0.3898 -0.8174
   55MOL0     N 7179   0.589   3.263  -0.098 -0.2614 -1.0662  0.4406
   55MOL0     C 7180   1.366   2.840   0.214 -1.4666 -0.3778 -0.3221
   55MOL0     C 7181   1.500   2.804   0.247  0.3178 -0.8107 -0.4257
   55MOL0     C 7182   1.940   2.723   0.179 -0.0610 -0.2247 -0.5897
   55MOL0     C 7183   1.956   2.614   0.264 -0.4061 -0.5160 -0.2149
   55MOL0     C 7184   2.095   2.590   0.288  0.1623 -0.5849  0.1632
   55MOL0     C 7185   2.204   2.652   0.228 -0.0686 -0.5110 -0.7226
   55MOL0     O 7186   2.332   2.607   0.244  0.8361 -0.9159  0.0387
   55MOL0     C 7187   2.413   2.698   0.313  0.5836 -0.0842  0.3216
   55MOL0     C 7188   2.519   2.617   0.394  0.7715  0.6940  0.2154
   55MOL0     C 7189   2.473   2.510   0.485 -0.6963 -0.0403 -0.9145
   55MOL0     C 7190   2.391   2.561   0.599  0.4151  0.2106  0.6223
   55MOL0     C 7191   2.451   2.642   0.697  0.4829  0.0415  0.6394
   55MOL0     C 7192   2.507   2.693   0.790  0.5630  0.0585 -0.3317
   55MOL0     C 7193   2.170   2.750   0.134  0.2618 -0.7014  0.5637
   55MOL0     C 7194   2.044   2.794   0.111  0.7257 -0.5896 -0.0915
   55MOL0     H 7195   1.572   2.621  -0.029 -0.0685 -1.5547  1.9126
   55MOL0     H 7196   1.356   2.694  -0.108 -0.5703  3.2861 -2.3444
   55MOL0     H 7197   1.199   3.030  -0.023 -0.0563 -2.2578 -3.6644
   55MOL0     H 7198   1.140   3.024   0.132  1.3600  1.5761 -0.8478
   55MOL0     H 7199   0.949   3.060  -0.004 -1.3507 -0.2695  4.2828
   55MOL0     H 7200   0.940   2.898   0.059 -2.1146 -0.4742 -2.1558
   55MOL0     H 7201   1.055   2.813  -0.163 -0.0642  1.5711 -0.7265
   55MOL0     H 7202   1.038   2.985  -0.223 -0.9081  3.0707  1.8826
   55MOL0     H 7203   0.898   2.812  -0.311  1.3978  1.5065  0.0874
   55MOL0     H 7204   0.827   2.788  -0.149  0.1493  0.7167  0.5451
   55MOL0     H 7205   0.841   3.042  -0.316  4.5537 -2.6796  1.0474
   55MOL0     H 7206   0.772   3.031  -0.150  3.0878  1.1958  0.1824
   55MOL0     H 7207   0.602   2.881  -0.236 -0.5422 -0.8162 -1.1536
   55MOL0     H 7208   0.684   2.864  -0.387  1.4475 -1.7992  2.7396
   55MOL0     H 7209   0.634   3.103  -0.452 -2.6820  1.1420 -2.1620
   55MOL0     H 7210   0.502   2.996  -0.455 -0.0942  0.1214 -0.1451
   55MOL0     H 7211   0.430   3.105  -0.230  1.8969 -0.9687 -0.2872
   55MOL0     H 7212   0.447   3.218  -0.376 -0.7526 -0.9058 -1.4192
   55MOL0     H 7213   0.674   3.370  -0.389 -2.2972  0.0697  0.7921
   55MOL0     H 7214   0.742   3.613  -0.136  1.0141 -1.2861  4.5535
   55MOL0     H 7215   0.823   3.550  -0.292  1.0148 -1.8192  0.2774
   55MOL0     H 7216   0.924   3.544   0.002 -1.6576 -2.2786  0.9141
   55MOL0     H 7217   0.982   3.637  -0.136 -2.2498  0.8649 -0.2081
   55MOL0     H 7218   1.002   3.318  -0.065  1.2668 -0.5849 -0.4277
   55MOL0     H 7219   1.004   3.367  -0.224  1.2546 -0.9752 -0.5027
   55MOL0     H 7220   1.229   3.467  -0.216 -0.2079  1.9895  0.4627
   55MOL0     H 7221   1.208   3.325  -0.096 -3.6481  0.1379  4.8288
   55MOL0     H 7222   1.419   3.400  -0.145 -0.5902  0.6536 -0.7372
   55MOL0     H 7223   1.663   3.406  -0.067 -1.8346 -4.8472  2.8495
   55MOL0     H 7224   2.021   3.805  -0.009 -0.7956 -2.4977 -0.7702
   55MOL0     H 7225   2.265   3.765   0.022 -0.1492 -1.0602 -0.9409
   55MOL0     H 7226   2.379   3.440   0.271  4.4975 -2.5503  1.7045
   55MOL0     H 7227   2.407   3.577   0.383 -3.8062 -0.2552 -0.4447
   55MOL0     H 7228   2.637   3.481   0.336  3.2077  0.1897 -1.8245
   55MOL0     H 7229   2.626   3.613   0.238 -3.5879  1.7406 -1.3743
   55MOL0     H 7230   2.545   3.494   0.047 -1.6469 -1.2835 -0.8155
   55MOL0     H 7231   2.529   3.341   0.130 -2.5129  1.7408 -2.5702
   55MOL0     H 7232   2.724   3.334  -0.015 -0.8020 -1.0796  0.4494
   55MOL0     H 7233   2.789   3.497   0.040  0.5027 -0.5188 -2.4528
   55MOL0     H 7234   2.763   3.251   0.214 -0.3217  1.3280  1.7382
   55MOL0     H 7235   2.856   3.413   0.234  1.7689  2.6085 -3.4080
   55MOL0     H 7236   3.006   3.362   0.077  1.3274 -0.6361  1.2694
   55MOL0     H 7237   2.934   3.198   0.041 -1.4581  0.7748 -0.8659
   55MOL0     H 7238   3.060   3.249   0.319  1.4547 -0.0506 -0.2707
   55MOL0     H 7239   2.991   3.112   0.241 -1.5140  1.1337  4.1081
   55MOL0     H 7240   3.135   3.119   0.053 -2.9430  2.2257 -0.5191
   55MOL0     H 7241   3.235   3.093   0.202  2.8841  0.7797 -1.7542
   55MOL0     H 7242   2.189   3.563   0.389 -0.8479 -0.6374 -0.2509
   55MOL0     H 7243   1.950   3.594   0.359 -0.4612 -0.0093 -1.7688
   55MOL0     H 7244   1.562   3.732   0.197 -2.4716  0.6240 -1.5482
   55MOL0     H 7245   1.315   3.657   0.158  1.0786 -3.3558  2.0913
   55MOL0     H 7246   1.313   2.898   0.289  3.7616  2.0503  2.0304
   55MOL0     H 7247   1.539   2.828   0.345  1.7541  0.3343 -1.2365
   55MOL0     H 7248   1.883   2.556   0.318 -0.4961 -2.7894 -2.5558
   55MOL0     H 7249   2.116   2.509   0.358  5.0308  1.6458  1.6808
   55MOL0     H 7250   2.351   2.759   0.380  2.5560  2.1604  0.2454
   55MOL0     H 7251   2.456   2.759   0.233 -0.2416 -1.2382 -1.0524
   55MOL0     H 7252   2.567   2.564   0.311 -0.6457  1.1637 -0.9442
   55MOL0     H 7253   2.586   2.694   0.434 -0.8369  2.9147 -1.1279
   55MOL0     H 7254   2.563   2.459   0.521  1.1796  1.5094 -3.1377
   55MOL0     H 7255   2.410   2.438   0.432 -1.9533 -0.9523  1.6532
   55MOL0     H 7256   2.315   2.619   0.548  2.0550  0.7276 -1.3676
   55MOL0     H 7257   2.352   2.468   0.643  0.8102  0.1336  0.8233
   55MOL0     H 7258   2.561   2.725   0.877 -1.0339 -1.5332  1.3206
   55MOL0     H 7259   2.246   2.798   0.074  3.2181 -4.1252  1.2288
   55MOL0     H 7260   2.028   2.874   0.040  0.4294  1.2816  1.9752
   56MOL0     O 7261   4.263   8.082   7.822  1.1818  0.5620  0.1940
   56MOL0     C 7262   4.289   7.973   7.877 -0.1921  0.5362 -0.0845
   56MOL0     O 7263   4.197   7.878   7.921 -0.1366 -0.5001  0.7102
   56MOL0     C 7264   4.055   7.892   7.927  0.0204  1.3963  0.8412
   56MOL0     C 7265   3.980   7.781   7.974 -0.1092 -0.3971  0.2341
   56MOL0     C 7266   3.838   7.771   7.959 -0.2699 -0.0436 -0.3877
   56MOL0     C 7267   3.771   7.877   7.898 -0.0158 -0.8786  0.5289
   56MOL0     O 7268   3.638   7.883   7.872  0.1123  0.0177 -0.5879
   56MOL0     C 7269   3.575   7.760   7.874 -0.2250 -0.0647 -0.0500
   56MOL0     C 7270   3.439   7.787   7.805 -1.3026  0.1746 -0.6729
   56MOL0     C 7271   3.342   7.659   7.819  0.2967  0.6797  0.3209
   56MOL0     C 7272   3.196   7.693   7.832 -0.0349  0.5376 -0.5317
   56MOL0     C 7273   3.091   7.578   7.871 -0.6685  0.0692 -0.2837
   56MOL0     C 7274   2.948   7.626   7.830  0.0628  0.4458  0.1694
   56MOL0     C 7275   2.903   7.759   7.901 -0.3275 -0.0288  0.1960
   56MOL0     C 7276   2.794   7.832   7.825 -0.4192 -0.5440  0.7829
   56MOL0     N 7277   2.673   7.757   7.822 -0.0065  0.3814  0.3983
   56MOL0     C 7278   2.630   7.664   7.904  0.4293 -0.2894  0.7681
   56MOL0     C 7279   2.510   7.621   7.857  0.3677 -0.1274  0.1154
   56MOL0     C 7280   2.427   7.517   7.914 -0.0386  0.1185 -0.2045
   56MOL0     C 7281   2.383   7.560   8.051  0.7932 -0.5277 -0.7238
   56MOL0     C 7282   2.364   7.443   8.143  0.3041  1.2320  0.1987
   56MOL0     C 7283   2.346   7.491   8.280  0.1988  0.0670  0.6641
   56MOL0     O 7284   2.313   7.376   8.361  0.4724  0.5117 -0.5787
   56MOL0     C 7285   2.183   7.371   8.403 -0.4745 -0.0691 -0.2843
   56MOL0     C 7286   2.141   7.449   8.505  0.2743  0.2710 -0.4448
   56MOL0     C 7287   2.016   7.433   8.558  1.1589  0.4656  0.6265
   56MOL0     C 7288   1.916   7.346   8.505 -0.0030  0.2236  0.5804
   56MOL0     C 7289   1.766   7.348   8.546  0.2731 -0.3575  0.0111
   56MOL0     O 7290   1.679   7.303   8.452 -0.4249 -0.9758 -0.1430
   56MOL0     C 7291   1.547   7.327   8.454 -0.8293 -0.9817  0.4352
   56MOL0     C 7292   1.488   7.432   8.528 -0.2504  0.8427  0.3057
   56MOL0     C 7293   1.351   7.448   8.526  0.9556 -0.2962 -0.0565
   56MOL0     C 7294   1.268   7.360   8.453 -0.9678 -0.2154  1.1773
   56MOL0     O 7295   1.146   7.377   8.436  0.2495 -0.9395  0.1377
   56MOL0     C 7296   1.076   7.366   8.566  0.1225  0.6178 -0.4845
   56MOL0     C 7297   0.928   7.404   8.550  0.0157  1.2637 -0.6379
   56MOL0     C 7298   0.849   7.308   8.453 -0.1549  0.0266  0.3654
   56MOL0     C 7299   0.713   7.373   8.415  0.3420  0.6293  0.9049
   56MOL0     C 7300   0.625   7.296   8.304  0.1304 -0.1189  0.1538
   56MOL0     C 7301   0.580   7.154   8.342 -0.0420  0.6496 -0.1653
   56MOL0     C 7302   0.470   7.106   8.243  1.6397 -0.5317 -0.4493
   56MOL0     C 7303   0.337   7.174   8.279 -0.2208  0.9629  0.0102
   56MOL0    Cl 7304   0.207   7.083   8.201  0.5420 -0.2331 -0.2481
   56MOL0     C 7305   1.339   7.267   8.367  0.7411 -0.3136  0.7009
   56MOL0     C 7306   1.477   7.243   8.379 -0.6083  0.1585  0.5913
   56MOL0     O 7307   1.742   7.390   8.660 -0.1248  0.2094  0.1201
   56MOL0     C 7308   1.961   7.273   8.392 -0.0359 -1.0266  0.3880
   56MOL0     C 7309   2.092   7.283   8.345 -0.4443 -1.4261 -0.0743
   56MOL0     N 7310   2.481   7.687   7.734 -0.2436  0.0667  0.2418
   56MOL0     N 7311   2.578   7.775   7.723 -0.5624 -0.1737  0.0006
   56MOL0     C 7312   3.846   7.989   7.853  0.3297  0.0573  0.0191
   56MOL0     C 7313   3.988   8.002   7.879 -0.5619  0.0991 -0.3263
   56MOL0     C 7314   4.430   7.937   7.905 -0.2845  0.0937  0.1401
   56MOL0     C 7315   4.535   8.002   7.831 -0.4875 -0.5574 -0.6533
   56MOL0     C 7316   4.672   7.985   7.873 -0.9905  0.9471 -0.2527
   56MOL0     C 7317   4.704   7.886   7.961  0.5454  0.6766 -0.5990
   56MOL0     O 7318   4.837   7.871   7.997  0.4013 -0.4990  0.2272
   56MOL0     C 7319   4.914   7.809   7.903 -0.5830  0.1787 -0.3595
   56MOL0     C 7320   4.995   7.903   7.816 -0.2175  0.1229  0.0269
   56MOL0     C 7321   5.086   8.007   7.892  0.6914 -0.3210  0.2310
   56MOL0     C 7322   5.205   7.959   7.976  0.0041  0.9160  0.2384
   56MOL0     C 7323   5.285   7.859   7.897  0.2890 -0.8252 -0.5726
   56MOL0     C 7324   5.355   7.790   7.823 -0.1783  0.1474  0.2013
   56MOL0     C 7325   4.605   7.810   8.015  0.4574  0.8037 -0.2569
   56MOL0     C 7326   4.469   7.837   7.997 -0.3250  0.8610 -0.3287
   56MOL0     H 7327   4.048   7.708   8.018  2.9708  3.2030  2.0429
   56MOL0     H 7328   3.786   7.693   8.013 -1.2997  0.9818  0.1522
   56MOL0     H 7329   3.551   7.718   7.972  0.5564 -1.2073 -0.3280
   56MOL0     H 7330   3.635   7.683   7.824 -2.5323  0.4747 -4.0959
   56MOL0     H 7331   3.470   7.801   7.701  2.2202  1.9728  0.4726
   56MOL0     H 7332   3.389   7.873   7.851  0.9423 -0.2878  3.0459
   56MOL0     H 7333   3.374   7.603   7.908  1.9022 -0.0465 -0.6792
   56MOL0     H 7334   3.343   7.594   7.731 -4.2237 -1.3462  1.4148
   56MOL0     H 7335   3.188   7.787   7.887 -2.8260  0.9810 -1.5102
   56MOL0     H 7336   3.166   7.724   7.731 -0.7258 -0.5181 -0.6666
   56MOL0     H 7337   3.088   7.550   7.976 -3.9225 -0.1098 -0.3496
   56MOL0     H 7338   3.119   7.487   7.817 -1.2799 -0.7883  0.8199
   56MOL0     H 7339   2.874   7.546   7.834  0.2047  0.3602  2.1910
   56MOL0     H 7340   2.945   7.647   7.723  0.0249  0.1615  0.1142
   56MOL0     H 7341   2.882   7.744   8.008  0.3546  1.7009  0.6073
   56MOL0     H 7342   2.985   7.831   7.904  2.4308 -2.9453  3.2918
   56MOL0     H 7343   2.803   7.856   7.719  0.5036 -0.7242  0.8121
   56MOL0     H 7344   2.769   7.927   7.873 -0.1011 -0.2726  0.4192
   56MOL0     H 7345   2.678   7.619   7.991 -0.0900 -1.6997  0.3588
   56MOL0     H 7346   2.481   7.423   7.930 -2.6435 -1.4765 -0.3927
   56MOL0     H 7347   2.346   7.499   7.844  0.5113  1.8333 -1.3302
   56MOL0     H 7348   2.283   7.603   8.065  1.1769  0.0920  0.2546
   56MOL0     H 7349   2.454   7.628   8.098  0.7509 -2.6346  2.7408
   56MOL0     H 7350   2.275   7.386   8.113  2.3346 -2.3828  0.3863
   56MOL0     H 7351   2.454   7.381   8.136  0.1542  0.8081  1.6967
   56MOL0     H 7352   2.266   7.565   8.289  1.6221  1.5782  1.4621
   56MOL0     H 7353   2.436   7.547   8.310  0.0321  2.0635 -2.1318
   56MOL0     H 7354   2.212   7.507   8.563  0.0492 -0.3000  0.4206
   56MOL0     H 7355   1.977   7.484   8.645 -1.4060 -3.0556  1.7532
   56MOL0     H 7356   1.553   7.505   8.576 -0.9640 -0.1303  2.9263
   56MOL0     H 7357   1.299   7.530   8.575 -3.0024 -3.6282  1.8138
   56MOL0     H 7358   1.109   7.447   8.632 -0.4774 -0.2743  0.9285
   56MOL0     H 7359   1.091   7.267   8.610  2.7802  2.2329  2.7598
   56MOL0     H 7360   0.915   7.506   8.512  0.7609  1.8304  0.5573
   56MOL0     H 7361   0.888   7.397   8.652  0.5615 -2.1822 -0.5440
   56MOL0     H 7362   0.829   7.208   8.491 -2.4849  0.0358 -0.6735
   56MOL0     H 7363   0.916   7.304   8.366  1.8092 -0.3053  1.8288
   56MOL0     H 7364   0.652   7.377   8.505 -1.1453 -0.5369 -0.0087
   56MOL0     H 7365   0.732   7.472   8.372  0.2273  0.4614  0.4593
   56MOL0     H 7366   0.673   7.283   8.206 -3.0667 -4.1992 -1.1447
   56MOL0     H 7367   0.531   7.351   8.292 -2.5624 -3.7641  2.5608
   56MOL0     H 7368   0.540   7.132   8.441  1.7988 -3.8009 -0.1687
   56MOL0     H 7369   0.662   7.082   8.336  2.3208  3.2107 -0.8767
   56MOL0     H 7370   0.478   7.120   8.135 -0.6937 -2.2065 -0.8909
   56MOL0     H 7371   0.451   7.000   8.260 -3.5297  0.2817  0.4682
   56MOL0     H 7372   0.351   7.275   8.239  4.5140  0.5727  0.1309
   56MOL0     H 7373   0.324   7.173   8.388 -3.5870  1.2380 -0.2855
   56MOL0     H 7374   1.273   7.222   8.293  1.7262  1.3463 -1.2921
   56MOL0     H 7375   1.515   7.166   8.313 -2.5990 -3.8251  3.5781
   56MOL0     H 7376   1.898   7.200   8.342 -3.6943  1.4850  0.9086
   56MOL0     H 7377   2.140   7.229   8.264  1.4392  0.3169 -0.2046
   56MOL0     H 7378   3.773   8.053   7.805 -1.4148 -2.6758 -1.2386
   56MOL0     H 7379   4.036   8.093   7.845 -1.2358  0.5037 -0.2244
   56MOL0     H 7380   4.505   8.081   7.763  0.4276 -0.8518 -1.4238
   56MOL0     H 7381   4.751   8.053   7.841  0.2871 -1.1724 -1.9092
   56MOL0     H 7382   4.848   7.753   7.836 -2.1532  0.8563  0.5675
   56MOL0     H 7383   4.967   7.728   7.953  0.6604 -0.3213 -2.3740
   56MOL0     H 7384   5.073   7.857   7.755 -0.0276 -0.2302  0.5267
   56MOL0     H 7385   4.928   7.939   7.738  0.0423 -0.0209 -0.2674
   56MOL0     H 7386   5.022   8.075   7.950 -0.7096 -1.7888  0.4876
   56MOL0     H 7387   5.128   8.069   7.812  0.2289  1.1928  1.1259
   56MOL0     H 7388   5.275   8.034   8.015 -2.5426  2.8785  1.3449
   56MOL0     H 7389   5.164   7.917   8.068 -1.6339  2.2200  0.1561
   56MOL0     H 7390   5.411   7.708   7.782  0.0202 -0.8009  2.2403
   56MOL0     H 7391   4.645   7.730   8.077  2.0917  1.9348  0.2109
   56MOL0     H 7392   4.390   7.787   8.052 -3.7641  5.0374 -0.9334
   57MOL0     O 7393   6.504   9.612   9.204  0.1710 -0.3754  0.4101
   57MOL0     C 7394   6.577   9.640   9.113 -0.2750  0.1948  0.4485
   57MOL0     O 7395   6.564   9.613   8.982 -0.4287  0.0811 -0.2351
   57MOL0     C 7396   6.470   9.521   8.946  0.0284 -0.1605 -0.3562
   57MOL0     C 7397   6.344   9.555   8.889 -0.8780  0.0815  1.0584
   57MOL0     C 7398   6.251   9.449   8.869  0.1748  0.5118 -0.9086
   57MOL0     C 7399   6.278   9.317   8.895  0.7614  0.3378 -0.3772
   57MOL0     O 7400   6.172   9.228   8.879 -0.2502 -0.0125  0.0337
   57MOL0     C 7401   6.167   9.134   8.983  0.1828  0.4366  0.5201
   57MOL0     C 7402   6.056   9.028   8.946  0.3172 -1.0657 -0.8267
   57MOL0     C 7403   6.101   8.940   8.831  0.8283  1.1310 -0.0775
   57MOL0     C 7404   5.970   8.857   8.801 -0.3034 -0.3097  0.6718
   57MOL0     C 7405   5.999   8.743   8.703  0.1257 -0.2366  0.9268
   57MOL0     C 7406   5.890   8.635   8.698  0.3792 -0.6284 -0.2472
   57MOL0     C 7407   5.751   8.672   8.650 -0.2053 -0.2299  0.1580
   57MOL0     C 7408   5.690   8.585   8.545 -0.0481 -0.4150  0.5401
   57MOL0     N 7409   5.784   8.582   8.430  0.4938  0.3732  1.2371
   57MOL0     C 7410   5.849   8.689   8.364 -0.0158 -0.5444  0.9601
   57MOL0     C 7411   5.912   8.635   8.256  0.5480 -0.2268 -0.3286
   57MOL0     C 7412   5.965   8.714   8.133 -0.2785  0.1451 -0.3374
   57MOL0     C 7413   6.057   8.639   8.040  0.6187 -0.1055 -0.9719
   57MOL0     C 7414   6.169   8.565   8.114 -0.4673  0.8871  0.4301
   57MOL0     C 7415   6.247   8.643   8.220  0.7182  0.2169 -0.4437
   57MOL0     O 7416   6.282   8.558   8.332 -0.9348 -0.0647 -0.5067
   57MOL0     C 7417   6.379   8.597   8.417 -0.7563 -0.3019 -0.5011
   57MOL0     C 7418   6.469   8.707   8.412 -0.6052  0.1178  0.2703
   57MOL0     C 7419   6.559   8.743   8.515  0.3342  0.1280 -0.4983
   57MOL0     C 7420   6.549   8.667   8.636  0.2164 -0.9505 -0.2814
   57MOL0     C 7421   6.630   8.690   8.757  0.3860 -0.3483 -0.2811
   57MOL0     O 7422   6.766   8.704   8.731 -0.3848  0.2918 -0.8942
   57MOL0     C 7423   6.840   8.760   8.828  0.5351  0.0812 -1.1292
   57MOL0     C 7424   6.971   8.703   8.855 -0.1528 -0.2102  0.0270
   57MOL0     C 7425   7.038   8.739   8.973  0.2840 -0.3326  0.4596
   57MOL0     C 7426   6.979   8.850   9.051  0.5915  0.5630  0.5018
   57MOL0     O 7427   7.039   8.910   9.156 -0.2135  0.0864 -0.8766
   57MOL0     C 7428   7.169   8.855   9.201 -0.3580  0.6865  0.8137
   57MOL0     C 7429   7.226   8.946   9.319  0.4395  0.1473  0.5086
   57MOL0     C 7430   7.167   8.923   9.458  0.0712  0.8497 -0.3984
   57MOL0     C 7431   7.225   9.004   9.569  0.1470 -0.6437  0.2788
   57MOL0     C 7432   7.126   9.018   9.694 -0.5257 -1.2170  0.5410
   57MOL0     C 7433   7.074   8.882   9.743 -0.7938  0.4575 -0.1550
   57MOL0     C 7434   6.967   8.894   9.843  0.7828  0.1242 -0.4519
   57MOL0     C 7435   6.956   8.774   9.940  0.5892  0.5191  1.2358
   57MOL0    Cl 7436   6.965   8.615   9.851 -0.3523 -0.4765  0.6848
   57MOL0     C 7437   6.868   8.919   9.006  0.1344  1.0224  0.0106
   57MOL0     C 7438   6.792   8.868   8.905 -0.1453 -0.2716  0.7848
   57MOL0     O 7439   6.572   8.705   8.866  1.2797  0.4522  0.0801
   57MOL0     C 7440   6.454   8.564   8.646  0.6384  0.4536 -0.0362
   57MOL0     C 7441   6.380   8.520   8.541  1.2472 -1.1936 -0.2460
   57MOL0     N 7442   5.884   8.497   8.269  0.0981  1.1614  0.3600
   57MOL0     N 7443   5.803   8.466   8.362 -0.5629 -0.6400  0.4112
   57MOL0     C 7444   6.405   9.291   8.947 -0.8508 -0.1654  0.3194
   57MOL0     C 7445   6.504   9.391   8.977 -0.5121  0.2943  0.5178
   57MOL0     C 7446   6.689   9.731   9.144 -0.0822  0.3746  0.7543
   57MOL0     C 7447   6.699   9.807   9.264  0.3818  0.8295  0.6705
   57MOL0     C 7448   6.805   9.890   9.296  0.0297  0.2814  0.0446
   57MOL0     C 7449   6.915   9.913   9.207  0.5018 -0.3991  1.1384
   57MOL0     O 7450   7.016   9.992   9.254  0.4374 -0.1846 -0.0157
   57MOL0     C 7451   7.133   9.995   9.170 -0.3869  0.0167 -0.6547
   57MOL0     C 7452   7.215  10.110   9.237  0.0096  0.1625  1.6158
   57MOL0     C 7453   7.166  10.251   9.227 -0.2653 -1.1223 -0.3111
   57MOL0     C 7454   7.281  10.350   9.268 -0.2998  0.1729 -0.6187
   57MOL0     C 7455   7.251  10.479   9.217  0.7245  0.0003 -0.4489
   57MOL0     C 7456   7.228  10.594   9.176  0.2088 -0.0615 -0.6819
   57MOL0     C 7457   6.913   9.829   9.090 -0.1403  0.5337  0.6761
   57MOL0     C 7458   6.800   9.749   9.060 -0.2652 -0.7389 -0.3805
   57MOL0     H 7459   6.311   9.655   8.864 -0.5058  0.9851  3.8768
   57MOL0     H 7460   6.150   9.471   8.834 -0.5607  1.6229  1.6724
   57MOL0     H 7461   6.159   9.181   9.082 -0.5697  3.3993 -0.8352
   57MOL0     H 7462   6.258   9.074   8.990 -1.6134 -2.4274  0.8232
   57MOL0     H 7463   5.962   9.084   8.945 -0.4928 -1.9255  3.9234
   57MOL0     H 7464   6.061   8.977   9.043 -1.2479  1.8478  0.9421
   57MOL0     H 7465   6.179   8.868   8.858  0.4272  0.2181 -1.2826
   57MOL0     H 7466   6.139   8.991   8.742 -1.3687  2.2707 -0.4328
   57MOL0     H 7467   5.931   8.803   8.888 -1.5449  0.4064  0.5804
   57MOL0     H 7468   5.889   8.921   8.766 -0.7659 -1.2355 -0.0067
   57MOL0     H 7469   6.088   8.690   8.738  0.9467  0.3652 -0.1856
   57MOL0     H 7470   6.020   8.774   8.600 -2.1996 -2.2100 -0.2455
   57MOL0     H 7471   5.864   8.605   8.799 -1.3947  0.0591 -0.4555
   57MOL0     H 7472   5.924   8.548   8.642  0.8875 -2.5615  2.8723
   57MOL0     H 7473   5.689   8.673   8.740 -0.7199 -0.7902 -0.1848
   57MOL0     H 7474   5.761   8.775   8.615  1.5206 -0.8198 -1.1931
   57MOL0     H 7475   5.591   8.628   8.526  0.2934 -0.7823 -2.6291
   57MOL0     H 7476   5.670   8.483   8.581 -2.0304  0.2063  1.3208
   57MOL0     H 7477   5.824   8.793   8.379 -0.4797 -0.6008  0.6186
   57MOL0     H 7478   6.019   8.799   8.174 -2.7900  0.8876  1.6946
   57MOL0     H 7479   5.879   8.741   8.070 -0.0956  1.0186 -0.2257
   57MOL0     H 7480   6.106   8.707   7.969 -0.8662  2.5701  0.4222
   57MOL0     H 7481   5.985   8.565   8.003 -0.2258 -0.3910  1.1476
   57MOL0     H 7482   6.120   8.481   8.164  1.4513  0.0339  0.9689
   57MOL0     H 7483   6.236   8.519   8.041 -1.0867  2.2644 -1.0824
   57MOL0     H 7484   6.192   8.731   8.254  3.3047  3.3957 -3.6684
   57MOL0     H 7485   6.334   8.684   8.168 -0.2334  3.0842  0.0649
   57MOL0     H 7486   6.456   8.774   8.327  0.1539 -0.8199 -0.6134
   57MOL0     H 7487   6.639   8.816   8.507 -1.7080  2.8679  1.9374
   57MOL0     H 7488   7.009   8.624   8.792 -0.0149 -0.1104 -0.0158
   57MOL0     H 7489   7.132   8.693   9.000  1.0732  1.0064  0.1190
   57MOL0     H 7490   7.246   8.846   9.124 -0.9105  0.5439  0.2670
   57MOL0     H 7491   7.157   8.754   9.240 -3.0088  0.1880 -1.0668
   57MOL0     H 7492   7.226   9.054   9.303 -2.1603  0.1237 -0.0656
   57MOL0     H 7493   7.328   8.905   9.320 -0.2824 -2.0172 -2.3550
   57MOL0     H 7494   7.183   8.816   9.476 -0.1753 -0.2157 -5.1463
   57MOL0     H 7495   7.062   8.950   9.444 -0.8880 -0.8294  2.6262
   57MOL0     H 7496   7.323   8.967   9.601  0.1690 -0.7525  0.0859
   57MOL0     H 7497   7.248   9.102   9.527  1.7145 -0.9346  0.3986
   57MOL0     H 7498   7.049   9.094   9.678  1.6778  0.5284 -3.1477
   57MOL0     H 7499   7.176   9.046   9.787 -1.0748  0.4651  0.3720
   57MOL0     H 7500   7.165   8.843   9.790  0.9852  4.3373  0.0361
   57MOL0     H 7501   7.045   8.798   9.680 -1.2116 -0.4758  1.2478
   57MOL0     H 7502   6.981   8.988   9.897 -3.7324  1.2854 -0.9200
   57MOL0     H 7503   6.872   8.898   9.790  0.5797 -2.3988 -0.4168
   57MOL0     H 7504   6.868   8.780  10.004  0.3401  2.4312  0.7852
   57MOL0     H 7505   7.040   8.772  10.010 -0.8714 -1.3015  3.0663
   57MOL0     H 7506   6.841   9.015   9.050 -2.1717  1.4517 -2.1029
   57MOL0     H 7507   6.695   8.911   8.882  0.0418  0.4189  1.2490
   57MOL0     H 7508   6.448   8.507   8.737 -2.2592  2.7887  1.4012
   57MOL0     H 7509   6.333   8.421   8.542 -0.0214 -0.6389  2.1638
   57MOL0     H 7510   6.432   9.189   8.971 -3.8268 -1.5603 -1.6944
   57MOL0     H 7511   6.599   9.354   9.014  1.4478  3.5263 -0.8657
   57MOL0     H 7512   6.610   9.810   9.327 -0.2335 -0.4145 -0.1044
   57MOL0     H 7513   6.790   9.946   9.387  3.3874  1.4037  0.0577
   57MOL0     H 7514   7.118  10.014   9.063 -3.3046 -0.0403 -0.3378
   57MOL0     H 7515   7.196   9.906   9.175  4.9500  3.3957  1.6156
   57MOL0     H 7516   7.222  10.083   9.343 -1.1230 -3.6600  0.8596
   57MOL0     H 7517   7.318  10.103   9.199  1.1713  1.6495  4.2012
   57MOL0     H 7518   7.075  10.251   9.288 -0.0607 -1.8576  0.0014
   57MOL0     H 7519   7.130  10.265   9.125 -0.3521 -1.4012 -0.3199
   57MOL0     H 7520   7.280  10.352   9.377 -0.0740 -1.6164 -0.5475
   57MOL0     H 7521   7.376  10.313   9.226  0.1692 -0.0646  0.6056
   57MOL0     H 7522   7.205  10.696   9.157  1.1634  0.1255 -0.9201
   57MOL0     H 7523   6.993   9.823   9.017 -0.0019 -3.1347  0.9792
   57MOL0     H 7524   6.807   9.687   8.971 -1.0161 -0.5888 -0.5570
   58MOL0     O 7525  10.358   4.326   7.903  0.2766 -0.1257  0.9690
   58MOL0     C 7526  10.454   4.290   7.979  0.1093 -0.3596  0.3833
   58MOL0     O 7527  10.464   4.161   8.037 -0.6308 -0.0430  0.0103
   58MOL0     C 7528  10.342   4.096   8.035 -0.2478 -0.4084  0.9784
   58MOL0     C 7529  10.317   3.997   7.938  0.4758 -0.0103  0.6801
   58MOL0     C 7530  10.191   3.929   7.932 -0.1580 -0.2842 -0.6097
   58MOL0     C 7531  10.100   3.953   8.038  1.1139  0.5475  0.2604
   58MOL0     O 7532   9.970   3.910   8.051 -0.0770  0.0532 -0.2329
   58MOL0     C 7533   9.924   3.809   7.952  0.2657  0.2667 -0.6760
   58MOL0     C 7534   9.777   3.799   7.955  0.2787 -0.6372  0.2616
   58MOL0     C 7535   9.727   3.679   7.862 -0.3463  0.0237  0.0570
   58MOL0     C 7536   9.577   3.662   7.844 -0.0630 -0.3546  0.3732
   58MOL0     C 7537   9.529   3.539   7.756 -0.7262 -0.2725 -0.5659
   58MOL0     C 7538   9.576   3.398   7.794  0.0431 -0.5712  0.3144
   58MOL0     C 7539   9.576   3.361   7.934 -0.2821 -0.0093  0.2908
   58MOL0     C 7540   9.477   3.256   7.982  0.0184  0.5759  0.2476
   58MOL0     N 7541   9.481   3.121   7.910  0.1973 -0.7734 -1.0083
   58MOL0     C 7542   9.556   3.015   7.932 -0.3851 -0.8189 -0.1627
   58MOL0     C 7543   9.505   2.920   7.857  0.2060  0.1238  1.0906
   58MOL0     C 7544   9.537   2.778   7.861 -0.3606  0.0899 -0.0983
   58MOL0     C 7545   9.457   2.697   7.759  0.2262 -0.0785  0.2267
   58MOL0     C 7546   9.477   2.540   7.760 -0.2291 -0.1083 -0.1725
   58MOL0     C 7547   9.413   2.485   7.884 -0.3411 -1.0926 -0.4903
   58MOL0     O 7548   9.356   2.364   7.851  0.0166  0.7800  0.3518
   58MOL0     C 7549   9.345   2.278   7.958  0.5981  0.7902 -0.1919
   58MOL0     C 7550   9.396   2.290   8.090 -0.5257  0.3368 -0.4649
   58MOL0     C 7551   9.373   2.191   8.187 -0.3645  0.2807 -0.1428
   58MOL0     C 7552   9.287   2.084   8.162 -0.3699  0.2933 -0.1231
   58MOL0     C 7553   9.246   1.980   8.267 -0.5476 -0.6834  0.2364
   58MOL0     O 7554   9.158   1.892   8.225  0.5448  0.5040  0.6387
   58MOL0     C 7555   9.128   1.799   8.314  0.4021  0.7637  0.5921
   58MOL0     C 7556   9.074   1.840   8.434  1.3778  0.1393  0.6720
   58MOL0     C 7557   9.040   1.739   8.526 -0.0508 -0.5295 -0.1201
   58MOL0     C 7558   9.056   1.606   8.497 -0.1955  0.8389 -0.2383
   58MOL0     O 7559   9.028   1.499   8.578  0.4019 -0.4735 -0.5918
   58MOL0     C 7560   8.917   1.519   8.670  1.2761  0.5311 -0.8636
   58MOL0     C 7561   8.849   1.392   8.689 -1.1933  0.6833  0.0367
   58MOL0     C 7562   8.830   1.325   8.554 -0.2834  0.5912 -0.1060
   58MOL0     C 7563   8.747   1.188   8.563 -0.6127 -0.9647  0.4349
   58MOL0     C 7564   8.604   1.203   8.631 -0.2381 -0.1405  0.5030
   58MOL0     C 7565   8.495   1.230   8.527  0.1071 -1.1993 -0.1119
   58MOL0     C 7566   8.347   1.244   8.587  0.0454  0.1391 -0.6171
   58MOL0     C 7567   8.246   1.237   8.473 -0.1162 -0.3380  0.0908
   58MOL0    Cl 7568   8.261   1.390   8.372  0.1150  0.2303 -0.5730
   58MOL0     C 7569   9.123   1.560   8.382  0.8980 -0.2088  0.0698
   58MOL0     C 7570   9.154   1.661   8.284 -0.6363 -0.6714 -0.1993
   58MOL0     O 7571   9.305   1.973   8.377 -0.4099 -0.0163  0.0305
   58MOL0     C 7572   9.243   2.075   8.030  0.2800 -0.6652 -0.7730
   58MOL0     C 7573   9.272   2.166   7.927 -0.2030 -0.5317 -0.2516
   58MOL0     N 7574   9.402   2.970   7.784  0.8790  0.5811 -0.8530
   58MOL0     N 7575   9.392   3.096   7.813 -0.8448 -0.2811  0.0610
   58MOL0     C 7576  10.131   4.036   8.140  0.4299  0.4246  0.2432
   58MOL0     C 7577  10.244   4.108   8.135  0.7996  0.1954  0.0599
   58MOL0     C 7578  10.549   4.396   8.018  0.6865 -1.4881  0.5253
   58MOL0     C 7579  10.534   4.528   7.979  0.2700 -0.1802 -0.8332
   58MOL0     C 7580  10.623   4.634   8.024  0.2048 -0.6078  0.3600
   58MOL0     C 7581  10.721   4.604   8.122  0.1325 -0.3710 -1.0716
   58MOL0     O 7582  10.805   4.696   8.183  0.5489  0.6167  0.7834
   58MOL0     C 7583  10.843   4.804   8.095 -0.1872 -0.8776 -0.1228
   58MOL0     C 7584  10.943   4.889   8.177  0.1588  0.1042  0.2389
   58MOL0     C 7585  10.971   5.030   8.110  0.1725 -0.5387 -1.2507
   58MOL0     C 7586  10.865   5.129   8.132  0.9323 -0.0780 -0.1108
   58MOL0     C 7587  10.751   5.121   8.038 -0.0737  0.5484  0.1809
   58MOL0     C 7588  10.653   5.128   7.963  0.2086 -0.1254 -1.2058
   58MOL0     C 7589  10.744   4.467   8.157  0.0911  0.5411 -0.5690
   58MOL0     C 7590  10.656   4.368   8.102  0.0404 -0.5560  0.3499
   58MOL0     H 7591  10.389   3.963   7.864  0.3236 -0.5937  0.8007
   58MOL0     H 7592  10.183   3.851   7.856  0.8525  1.8977 -3.0897
   58MOL0     H 7593   9.968   3.713   7.982  0.4898  0.6067  0.1179
   58MOL0     H 7594   9.952   3.841   7.851 -3.4406  3.2658 -0.9820
   58MOL0     H 7595   9.724   3.891   7.930  2.0908  0.5693  0.6816
   58MOL0     H 7596   9.748   3.783   8.060  0.5672 -1.6366  0.1953
   58MOL0     H 7597   9.765   3.589   7.913 -0.9114  0.6195  1.5940
   58MOL0     H 7598   9.757   3.692   7.758 -1.8140 -0.0062 -0.3956
   58MOL0     H 7599   9.521   3.646   7.936 -1.1779 -4.8974 -0.8009
   58MOL0     H 7600   9.543   3.756   7.801 -1.0614  0.0391  1.9702
   58MOL0     H 7601   9.553   3.561   7.651  3.7759  0.3886  0.4087
   58MOL0     H 7602   9.420   3.537   7.767 -0.6507  1.4212  0.9790
   58MOL0     H 7603   9.670   3.376   7.743  0.9054 -2.1672  2.4267
   58MOL0     H 7604   9.502   3.334   7.744 -0.7353  0.7103 -0.2187
   58MOL0     H 7605   9.677   3.317   7.934 -0.0735  0.4221 -1.4492
   58MOL0     H 7606   9.590   3.446   8.002 -5.3692  2.3116 -1.1200
   58MOL0     H 7607   9.371   3.284   7.984  0.5111  2.6209 -0.2254
   58MOL0     H 7608   9.511   3.224   8.081 -0.7612  1.3807  0.7892
   58MOL0     H 7609   9.639   3.012   8.002  0.1154  2.2973 -0.4853
   58MOL0     H 7610   9.520   2.751   7.965  0.8349  1.0885  0.3865
   58MOL0     H 7611   9.644   2.758   7.849 -0.4055  0.8228 -2.1443
   58MOL0     H 7612   9.473   2.728   7.656 -1.9299 -0.0559 -0.1580
   58MOL0     H 7613   9.353   2.719   7.786  0.2961  0.0517  0.3901
   58MOL0     H 7614   9.434   2.500   7.667 -0.1028  1.7682 -1.0777
   58MOL0     H 7615   9.582   2.512   7.759 -0.2714 -0.7502  2.7237
   58MOL0     H 7616   9.334   2.552   7.917  2.7169  1.6652  1.9051
   58MOL0     H 7617   9.493   2.491   7.958 -0.7152  1.5417 -0.1916
   58MOL0     H 7618   9.458   2.371   8.128  2.2842 -0.7451 -2.4503
   58MOL0     H 7619   9.418   2.201   8.285  1.1556  1.2894 -0.9086
   58MOL0     H 7620   9.051   1.945   8.450  1.5701  0.4233 -0.7798
   58MOL0     H 7621   8.993   1.776   8.617 -1.0725  2.8463 -1.8387
   58MOL0     H 7622   8.847   1.596   8.636 -1.2151 -1.4957 -0.6639
   58MOL0     H 7623   8.953   1.554   8.768  0.3856 -1.2254  0.1417
   58MOL0     H 7624   8.757   1.400   8.747 -0.7731 -2.9365  1.4723
   58MOL0     H 7625   8.920   1.333   8.747 -1.5213 -1.1122 -1.2933
   58MOL0     H 7626   8.925   1.295   8.508 -1.8376 -0.3964 -2.9280
   58MOL0     H 7627   8.796   1.398   8.480 -2.1994  0.5861  0.6966
   58MOL0     H 7628   8.736   1.138   8.466  0.3006 -0.4786  0.0646
   58MOL0     H 7629   8.812   1.120   8.618  1.0614  0.6625  0.5659
   58MOL0     H 7630   8.613   1.280   8.708  3.6767  1.3164 -1.1302
   58MOL0     H 7631   8.572   1.111   8.681 -1.5879  1.4373  2.6693
   58MOL0     H 7632   8.503   1.156   8.447  0.8247 -1.9116  0.5969
   58MOL0     H 7633   8.513   1.327   8.479 -0.2454 -3.1036 -4.6339
   58MOL0     H 7634   8.334   1.158   8.654  0.5641  0.4246 -0.1386
   58MOL0     H 7635   8.333   1.332   8.651 -4.1675 -0.2370 -0.7324
   58MOL0     H 7636   8.147   1.233   8.519  1.2796 -0.7812  3.3259
   58MOL0     H 7637   8.271   1.144   8.421 -1.1573 -0.9494  0.6635
   58MOL0     H 7638   9.135   1.453   8.372 -4.6915 -1.2061  1.0264
   58MOL0     H 7639   9.199   1.640   8.187 -1.3245 -1.1735 -0.4201
   58MOL0     H 7640   9.175   1.994   8.007 -1.3399  0.1703  0.8406
   58MOL0     H 7641   9.242   2.155   7.823 -1.0837 -3.3180  0.2014
   58MOL0     H 7642  10.058   4.052   8.218 -0.0475  0.6515 -0.2373
   58MOL0     H 7643  10.265   4.176   8.217 -0.9308  0.9423 -0.0850
   58MOL0     H 7644  10.458   4.565   7.911 -0.0734 -0.3856 -0.5651
   58MOL0     H 7645  10.604   4.728   7.974 -2.9838 -0.8531  0.9351
   58MOL0     H 7646  10.755   4.867   8.079 -0.4937 -1.0326  0.9076
   58MOL0     H 7647  10.892   4.780   8.000 -0.7366  1.6945 -1.1235
   58MOL0     H 7648  10.902   4.912   8.276 -0.7214 -1.9563  0.3946
   58MOL0     H 7649  11.028   4.824   8.201  1.3663  1.5429  0.0239
   58MOL0     H 7650  10.979   5.015   8.002 -1.1125 -0.4859 -1.3660
   58MOL0     H 7651  11.059   5.076   8.155 -1.1451  2.9079 -1.9029
   58MOL0     H 7652  10.822   5.122   8.232  0.7297 -1.5146 -0.2908
   58MOL0     H 7653  10.905   5.231   8.126  2.3855 -0.5891  0.3353
   58MOL0     H 7654  10.566   5.109   7.904 -0.0268 -0.7819 -0.6616
   58MOL0     H 7655  10.820   4.449   8.233  0.4905  1.2914 -0.7726
   58MOL0     H 7656  10.680   4.267   8.135 -1.5465 -1.2158 -0.4077
   59MOL0     O 7657   2.878   3.369  10.925 -0.0007 -0.3520  0.4951
   59MOL0     C 7658   2.915   3.260  10.956  0.6585 -0.7721  0.0509
   59MOL0     O 7659   2.834   3.143  10.956 -0.6416 -0.3845  0.0464
   59MOL0     C 7660   2.701   3.160  10.911 -0.0860  0.5311 -0.1382
   59MOL0     C 7661   2.673   3.215  10.785  0.5048  0.0052 -0.0933
   59MOL0     C 7662   2.539   3.246  10.742  0.2287 -0.2504 -0.2962
   59MOL0     C 7663   2.437   3.175  10.818  1.2927 -0.2583  0.2796
   59MOL0     O 7664   2.310   3.173  10.780 -0.0712 -0.2867 -0.1070
   59MOL0     C 7665   2.275   3.168  10.639  0.0235  0.6388  0.1463
   59MOL0     C 7666   2.133   3.135  10.630  0.0036 -0.4419  0.2193
   59MOL0     C 7667   2.099   3.083  10.493 -0.7706  0.3085  0.2479
   59MOL0     C 7668   1.962   3.039  10.466 -0.3420 -0.7280 -0.1561
   59MOL0     C 7669   1.874   3.174  10.450  0.1399 -0.5375  0.0021
   59MOL0     C 7670   1.724   3.146  10.414 -0.8984  0.8629  0.1624
   59MOL0     C 7671   1.641   3.271  10.448  0.1984 -0.6522 -0.4293
   59MOL0     C 7672   1.633   3.368  10.324  0.4514 -0.3978  0.3087
   59MOL0     N 7673   1.531   3.326  10.226 -0.4729  1.2795  0.0258
   59MOL0     C 7674   1.393   3.354  10.230 -0.5072  0.1564  0.3461
   59MOL0     C 7675   1.342   3.321  10.107 -0.1317  0.0267 -0.7321
   59MOL0     C 7676   1.202   3.328  10.058 -0.2271  0.4125 -0.2836
   59MOL0     C 7677   1.171   3.451   9.969 -0.4416 -0.8061  0.0309
   59MOL0     C 7678   1.033   3.438   9.912 -0.2697  0.0872  1.1147
   59MOL0     C 7679   1.000   3.547   9.822  0.5705 -0.2687 -0.3153
   59MOL0     O 7680   0.991   3.677   9.889 -1.0431 -0.5045 -0.5286
   59MOL0     C 7681   0.868   3.721   9.941 -0.5585  0.1479 -0.9991
   59MOL0     C 7682   0.851   3.855   9.971 -0.1459  0.4659  0.1777
   59MOL0     C 7683   0.732   3.907  10.008 -0.5992 -0.1301 -0.0315
   59MOL0     C 7684   0.618   3.827  10.033  0.5093 -0.0981 -0.0255
   59MOL0     C 7685   0.484   3.885  10.041 -0.7900 -0.0702  1.3463
   59MOL0     O 7686   0.484   4.013  10.080  0.3650 -0.1234 -0.7158
   59MOL0     C 7687   0.365   4.094  10.071 -0.9645 -0.3069 -1.0218
   59MOL0     C 7688   0.376   4.235  10.035 -0.1571 -0.0714 -0.7113
   59MOL0     C 7689   0.267   4.318  10.023  0.8166  0.3185 -0.5835
   59MOL0     C 7690   0.148   4.273  10.075 -1.1824 -0.6318  0.3295
   59MOL0     O 7691   0.046   4.365  10.055 -0.7817  0.5653  0.3481
   59MOL0     C 7692  -0.051   4.376  10.168  0.1768  0.7338  0.1399
   59MOL0     C 7693  -0.128   4.519  10.154  0.1246 -0.1925 -0.1970
   59MOL0     C 7694  -0.042   4.625  10.207 -0.5366  0.4426  0.8843
   59MOL0     C 7695  -0.093   4.764  10.178 -0.1233  0.3515  0.2059
   59MOL0     C 7696   0.001   4.884  10.215  0.9725  0.5899 -0.5063
   59MOL0     C 7697  -0.007   4.918  10.364  0.2646 -0.5221  0.5997
   59MOL0     C 7698   0.078   5.037  10.402 -0.0401 -1.2032  0.5036
   59MOL0     C 7699   0.234   5.034  10.366  0.9424  0.0754 -1.1226
   59MOL0    Cl 7700   0.269   5.059  10.196 -0.6931  0.3286  0.3859
   59MOL0     C 7701   0.138   4.138  10.112  0.7744 -0.4028 -0.8557
   59MOL0     C 7702   0.243   4.054  10.124  0.3495  0.5701  0.0389
   59MOL0     O 7703   0.398   3.818   9.987 -0.2546 -0.2307 -0.6089
   59MOL0     C 7704   0.636   3.689  10.007  0.3233  0.0505 -0.6755
   59MOL0     C 7705   0.750   3.628   9.955 -0.3283 -0.6054  0.0270
   59MOL0     N 7706   1.443   3.290  10.027 -1.3350  0.0976  0.1448
   59MOL0     N 7707   1.548   3.284  10.101  0.3130  0.5281  0.3025
   59MOL0     C 7708   2.469   3.107  10.935 -0.1650  0.6647  0.3790
   59MOL0     C 7709   2.595   3.098  10.993  0.5964 -0.5451  0.6392
   59MOL0     C 7710   3.043   3.231  11.013 -0.3616  1.1344 -0.1099
   59MOL0     C 7711   3.140   3.333  11.017 -0.8385  0.0493  0.3645
   59MOL0     C 7712   3.266   3.310  11.073  0.3364  0.4445 -1.3770
   59MOL0     C 7713   3.293   3.184  11.139  0.2083  0.3731  0.4741
   59MOL0     O 7714   3.417   3.191  11.189 -0.2949  0.2085  0.1493
   59MOL0     C 7715   3.474   3.076  11.250 -0.1914  0.4864 -0.8002
   59MOL0     C 7716   3.616   3.124  11.300  0.5531 -0.1237  1.0070
   59MOL0     C 7717   3.685   3.007  11.378 -0.5842  0.1168 -0.3980
   59MOL0     C 7718   3.621   2.968  11.507 -0.4975  0.1957 -1.0209
   59MOL0     C 7719   3.612   3.087  11.596  0.3973  0.0287 -0.5041
   59MOL0     C 7720   3.588   3.179  11.672  0.4946 -0.1564 -1.1644
   59MOL0     C 7721   3.194   3.081  11.148 -0.0953 -0.1936  0.7235
   59MOL0     C 7722   3.066   3.105  11.083 -0.7579 -0.7946 -0.4333
   59MOL0     H 7723   2.760   3.237  10.724 -0.6159  2.7848 -0.8618
   59MOL0     H 7724   2.527   3.319  10.662  1.4033  3.1634  2.4152
   59MOL0     H 7725   2.336   3.098  10.581 -0.0629  0.2182  0.5586
   59MOL0     H 7726   2.294   3.266  10.595  2.1691 -1.2393 -3.6372
   59MOL0     H 7727   2.071   3.222  10.654 -0.7324 -1.2669  1.4867
   59MOL0     H 7728   2.118   3.056  10.705 -1.4050  1.2182  1.7952
   59MOL0     H 7729   2.166   2.999  10.472  1.1534  1.5504  1.1031
   59MOL0     H 7730   2.129   3.163  10.424 -1.7056 -0.5839 -1.2145
   59MOL0     H 7731   1.957   2.978  10.375  1.2343 -0.4001 -0.4944
   59MOL0     H 7732   1.930   2.980  10.552  1.3558 -0.4363  0.7208
   59MOL0     H 7733   1.928   3.244  10.386  2.1703  0.0268  2.1790
   59MOL0     H 7734   1.882   3.234  10.541  0.1859  1.3312 -1.1808
   59MOL0     H 7735   1.692   3.067  10.483  1.0734 -1.3647 -1.3226
   59MOL0     H 7736   1.708   3.106  10.314 -1.7417  1.3272  0.0991
   59MOL0     H 7737   1.539   3.234  10.459  0.1007 -0.5353 -0.9006
   59MOL0     H 7738   1.670   3.327  10.537  1.0373 -1.1324 -0.3966
   59MOL0     H 7739   1.732   3.387  10.280 -0.7358  3.1444 -1.1969
   59MOL0     H 7740   1.613   3.470  10.359  1.9525 -0.0584  0.2555
   59MOL0     H 7741   1.339   3.379  10.320  0.2686 -1.4003  1.2789
   59MOL0     H 7742   1.136   3.350  10.143  0.1655  0.2470  0.0663
   59MOL0     H 7743   1.177   3.230  10.017  0.1754 -0.9108  2.4315
   59MOL0     H 7744   1.234   3.447   9.880 -0.2463 -0.9486  0.1743
   59MOL0     H 7745   1.184   3.553  10.004 -3.7646  0.1690 -1.1901
   59MOL0     H 7746   1.016   3.344   9.858 -0.1506  1.7710 -2.1133
   59MOL0     H 7747   0.955   3.427   9.987 -2.5576 -1.3171 -1.3113
   59MOL0     H 7748   0.904   3.534   9.771 -1.0079 -1.7152  2.7394
   59MOL0     H 7749   1.065   3.550   9.734  1.4857  0.3522  0.3650
   59MOL0     H 7750   0.934   3.921   9.947  0.7513  0.2061  2.2447
   59MOL0     H 7751   0.727   4.015  10.018  0.1894 -0.0623 -0.3066
   59MOL0     H 7752   0.474   4.266  10.001  0.2767 -0.8145 -0.1747
   59MOL0     H 7753   0.279   4.425  10.010  0.2221  0.6942  1.6085
   59MOL0     H 7754   0.001   4.359  10.262  0.0807  0.4224  0.1373
   59MOL0     H 7755  -0.125   4.296  10.161  1.3923 -0.2792 -2.2374
   59MOL0     H 7756  -0.218   4.520  10.217  1.4758  0.1704  1.8306
   59MOL0     H 7757  -0.169   4.531  10.054 -1.9480  0.2165  0.6459
   59MOL0     H 7758   0.055   4.612  10.159  0.3423 -1.6929  3.0086
   59MOL0     H 7759   0.001   4.609  10.306  2.0867 -0.7760 -0.3530
   59MOL0     H 7760  -0.099   4.770  10.069 -0.4247  1.9840  0.2818
   59MOL0     H 7761  -0.193   4.779  10.220  0.0912 -1.2799  1.3838
   59MOL0     H 7762  -0.034   4.965  10.150  2.2236  1.4355 -0.1646
   59MOL0     H 7763   0.107   4.858  10.204  1.5153  0.7417  3.0968
   59MOL0     H 7764   0.019   4.842  10.438  2.3180 -2.0555 -1.5451
   59MOL0     H 7765  -0.112   4.948  10.376  0.4314  0.2531  0.2278
   59MOL0     H 7766   0.044   5.129  10.353  0.2908 -1.0362  0.5864
   59MOL0     H 7767   0.067   5.044  10.511 -0.8896 -1.0302  0.4099
   59MOL0     H 7768   0.282   4.940  10.396  2.8152  0.5010 -2.6205
   59MOL0     H 7769   0.283   5.109  10.428 -1.5411  0.9447 -0.0755
   59MOL0     H 7770   0.034   4.123  10.142  0.9325  0.3884  0.1529
   59MOL0     H 7771   0.217   3.956  10.163 -3.3099  1.1132 -0.6485
   59MOL0     H 7772   0.552   3.621  10.011 -2.2350  2.9801  3.2810
   59MOL0     H 7773   0.749   3.522   9.932 -1.3831 -0.7935  0.8932
   59MOL0     H 7774   2.393   3.059  10.996  0.4779 -0.6611  0.1745
   59MOL0     H 7775   2.597   3.046  11.088 -1.5887 -3.3485 -0.6972
   59MOL0     H 7776   3.121   3.420  10.955  1.1333  0.5545  0.3867
   59MOL0     H 7777   3.340   3.389  11.064 -0.1409  0.8812 -1.5880
   59MOL0     H 7778   3.477   2.983  11.194 -1.9698 -0.6185  0.8094
   59MOL0     H 7779   3.414   3.039  11.334  0.2747  0.9679 -0.2452
   59MOL0     H 7780   3.684   3.166  11.225 -1.8783  1.6702 -0.3513
   59MOL0     H 7781   3.589   3.208  11.365 -3.2750  0.3308 -0.9483
   59MOL0     H 7782   3.784   3.034  11.419 -1.0303  0.2100  0.6538
   59MOL0     H 7783   3.700   2.920  11.314  0.0162 -0.4127  0.4477
   59MOL0     H 7784   3.524   2.920  11.490  0.0990 -1.8557  0.8869
   59MOL0     H 7785   3.688   2.892  11.550  2.3054  2.4901 -1.0586
   59MOL0     H 7786   3.562   3.261  11.736  0.4761 -0.7335 -0.4137
   59MOL0     H 7787   3.218   2.994  11.207 -0.9853 -0.5459  0.5657
   59MOL0     H 7788   2.986   3.036  11.107  0.7116 -2.6784 -0.7563
   60MOL0     O 7789  10.852   8.300   4.120  0.0371  0.2504  0.0242
   60MOL0     C 7790  10.940   8.225   4.069 -0.7207 -1.0123  0.0156
   60MOL0     O 7791  10.935   8.094   4.045  1.0890  0.0898 -0.5480
   60MOL0     C 7792  10.820   8.029   4.055  0.3118  0.5205  0.3871
   60MOL0     C 7793  10.728   8.042   3.955 -0.4018  0.3154  0.1461
   60MOL0     C 7794  10.610   7.956   3.966 -0.5937  0.4246  0.1908
   60MOL0     C 7795  10.589   7.864   4.073  0.0598  0.1856 -0.4889
   60MOL0     O 7796  10.463   7.795   4.099  0.2659 -0.1991  0.2521
   60MOL0     C 7797  10.391   7.760   3.981 -0.1252  0.7103  1.0210
   60MOL0     C 7798  10.307   7.633   3.968  0.5139 -0.2248 -0.0504
   60MOL0     C 7799  10.181   7.662   4.035  0.4206  1.1044  0.2686
   60MOL0     C 7800  10.184   7.726   4.174 -0.8523  0.0317  0.7878
   60MOL0     C 7801  10.048   7.748   4.246  0.7419 -0.5690  0.4084
   60MOL0     C 7802  10.060   7.865   4.349  0.8836  1.0728  0.5763
   60MOL0     C 7803   9.933   7.879   4.449 -0.0692 -0.3933 -0.7777
   60MOL0     C 7804   9.935   7.766   4.558  0.5041  0.1436  0.4480
   60MOL0     N 7805  10.065   7.756   4.632 -0.4551 -0.4892  0.1013
   60MOL0     C 7806  10.149   7.866   4.660 -0.9111  0.1196 -0.3164
   60MOL0     C 7807  10.265   7.807   4.716 -0.0105  0.3271  0.9812
   60MOL0     C 7808  10.389   7.873   4.778 -0.2051  0.2145  0.2178
   60MOL0     C 7809  10.517   7.831   4.710 -0.1050 -0.0955 -0.2985
   60MOL0     C 7810  10.565   7.710   4.794 -1.1222 -0.4160  1.0840
   60MOL0     C 7811  10.707   7.673   4.755 -0.6568  1.1129  0.5471
   60MOL0     O 7812  10.687   7.594   4.631 -1.4154 -0.2778 -0.2119
   60MOL0     C 7813  10.802   7.579   4.555  0.3105 -0.7509  0.3544
   60MOL0     C 7814  10.868   7.454   4.542  0.2771  0.5645  0.4762
   60MOL0     C 7815  10.982   7.447   4.458  0.2034 -0.4888 -0.7124
   60MOL0     C 7816  11.053   7.565   4.419  1.5118  0.2707 -0.2859
   60MOL0     C 7817  11.177   7.560   4.338  0.1231 -0.5491  0.7091
   60MOL0     O 7818  11.205   7.437   4.279  1.1599 -0.0078  0.1015
   60MOL0     C 7819  11.322   7.433   4.215 -0.9896  0.6092  0.4089
   60MOL0     C 7820  11.349   7.480   4.088 -0.7211 -0.1473  0.6528
   60MOL0     C 7821  11.469   7.453   4.022 -0.7673  0.1872  0.1950
   60MOL0     C 7822  11.583   7.389   4.091 -0.3857  0.8914 -0.4948
   60MOL0     O 7823  11.707   7.400   4.039  0.5424  0.2600 -0.4028
   60MOL0     C 7824  11.726   7.484   3.921  0.6677  0.8115  0.1626
   60MOL0     C 7825  11.869   7.481   3.894 -0.0786  0.0682  0.3018
   60MOL0     C 7826  11.946   7.587   3.981  0.6090 -0.5696 -0.6025
   60MOL0     C 7827  12.093   7.564   3.968 -0.1414 -0.2179  0.4265
   60MOL0     C 7828  12.180   7.632   4.079 -0.2468 -0.7942 -0.0206
   60MOL0     C 7829  12.207   7.523   4.189  0.0667 -1.4608 -0.9782
   60MOL0     C 7830  12.290   7.579   4.307  0.3505 -0.3052  0.1874
   60MOL0     C 7831  12.418   7.649   4.272 -0.1066  0.2940  0.3840
   60MOL0    Cl 7832  12.525   7.697   4.413 -0.1519  0.0357  0.2315
   60MOL0     C 7833  11.554   7.334   4.217 -0.5354 -0.8764 -0.4312
   60MOL0     C 7834  11.422   7.355   4.268 -0.2284 -0.9086  0.2634
   60MOL0     O 7835  11.244   7.665   4.323  0.1552  0.6775 -0.0624
   60MOL0     C 7836  10.993   7.686   4.454  0.2131  1.4824  0.5028
   60MOL0     C 7837  10.868   7.693   4.510  0.0561  0.0449  0.0058
   60MOL0     N 7838  10.245   7.677   4.723  0.7669 -0.1756 -0.5525
   60MOL0     N 7839  10.131   7.647   4.674  0.9953 -0.8559  0.3732
   60MOL0     C 7840  10.684   7.863   4.184  0.0245 -0.2578  1.2435
   60MOL0     C 7841  10.802   7.937   4.169 -0.5512  0.1668  0.4189
   60MOL0     C 7842  11.058   8.297   4.013 -0.2913  0.6503  1.0716
   60MOL0     C 7843  11.070   8.436   4.032 -0.3249  0.9599  0.1999
   60MOL0     C 7844  11.186   8.512   3.984  0.1363 -0.4143 -0.2036
   60MOL0     C 7845  11.284   8.442   3.929  0.3978  1.1345 -0.5026
   60MOL0     O 7846  11.392   8.512   3.880  0.4113  0.2318 -0.1118
   60MOL0     C 7847  11.391   8.513   3.739  0.0561  0.1091 -0.0798
   60MOL0     C 7848  11.477   8.634   3.695 -0.4415 -0.4620  0.2185
   60MOL0     C 7849  11.624   8.602   3.665  0.4331  0.4167  0.0976
   60MOL0     C 7850  11.702   8.721   3.606 -0.1466  0.2413  0.5428
   60MOL0     C 7851  11.842   8.693   3.612 -0.1999  0.3067  0.2650
   60MOL0     C 7852  11.953   8.693   3.648 -0.6049  0.2212  0.7821
   60MOL0     C 7853  11.270   8.303   3.907 -0.7245 -0.3133 -0.2268
   60MOL0     C 7854  11.152   8.241   3.939 -0.3974  0.9450 -0.0165
   60MOL0     H 7855  10.728   8.118   3.877  0.0865 -1.4490 -1.6730
   60MOL0     H 7856  10.528   7.978   3.898 -0.8191  2.0731  0.9440
   60MOL0     H 7857  10.466   7.731   3.908 -1.8537 -0.8749 -0.2211
   60MOL0     H 7858  10.335   7.841   3.934  1.7044  0.9630 -0.8368
   60MOL0     H 7859  10.358   7.554   4.024 -1.1934 -1.4217 -0.0815
   60MOL0     H 7860  10.289   7.602   3.864  0.6193 -0.2732 -0.0538
   60MOL0     H 7861  10.132   7.565   4.043  1.4974  0.3108 -2.0010
   60MOL0     H 7862  10.117   7.727   3.974  0.4355 -0.6895 -1.7897
   60MOL0     H 7863  10.254   7.666   4.233  2.6144  1.9031 -1.0871
   60MOL0     H 7864  10.230   7.825   4.170 -1.0659  0.1125  0.3231
   60MOL0     H 7865  10.029   7.657   4.304 -2.0449  0.0492  0.6203
   60MOL0     H 7866   9.971   7.757   4.169  0.8423 -1.4134  0.2007
   60MOL0     H 7867  10.054   7.951   4.281 -0.7984 -0.7051 -1.6943
   60MOL0     H 7868  10.156   7.858   4.400  0.9126 -0.7360  0.3365
   60MOL0     H 7869   9.949   7.982   4.481 -2.7441  0.2710 -1.3468
   60MOL0     H 7870   9.838   7.879   4.395  0.2750 -2.0216 -1.4622
   60MOL0     H 7871   9.920   7.668   4.511 -3.3497  0.4831  0.6625
   60MOL0     H 7872   9.846   7.764   4.622 -0.1404 -1.4738 -0.4326
   60MOL0     H 7873  10.117   7.969   4.653 -2.9012 -0.2778  1.9863
   60MOL0     H 7874  10.401   7.850   4.884 -1.0003  2.6601  0.9193
   60MOL0     H 7875  10.378   7.982   4.772 -0.3766  0.1501 -0.8321
   60MOL0     H 7876  10.584   7.918   4.705 -1.8316  1.2482 -0.8992
   60MOL0     H 7877  10.507   7.794   4.607  0.8746 -0.4631 -0.2761
   60MOL0     H 7878  10.568   7.737   4.900  1.1826  0.3641  0.8765
   60MOL0     H 7879  10.502   7.625   4.769  0.6514 -1.4512 -0.0882
   60MOL0     H 7880  10.743   7.606   4.833 -1.5244  0.9547  0.8185
   60MOL0     H 7881  10.780   7.754   4.746  1.1780 -0.5882 -0.6999
   60MOL0     H 7882  10.843   7.359   4.588  3.5256 -1.9189 -2.3497
   60MOL0     H 7883  11.036   7.358   4.428  1.2712  0.1675 -0.8261
   60MOL0     H 7884  11.264   7.527   4.040 -1.0622 -0.0686  1.3162
   60MOL0     H 7885  11.483   7.502   3.926 -1.5094  2.6316  1.2490
   60MOL0     H 7886  11.698   7.588   3.941 -1.3096  0.0877  1.3532
   60MOL0     H 7887  11.672   7.442   3.836  0.7891 -1.3274  1.0895
   60MOL0     H 7888  11.892   7.510   3.791  0.3061  0.1645  0.4152
   60MOL0     H 7889  11.900   7.377   3.905 -1.7313 -0.6840 -1.5468
   60MOL0     H 7890  11.908   7.576   4.083 -0.9929  2.3939 -0.7733
   60MOL0     H 7891  11.919   7.687   3.946 -1.5943 -0.4294  1.2411
   60MOL0     H 7892  12.124   7.459   3.972  2.2199  0.2326 -2.3937
   60MOL0     H 7893  12.121   7.601   3.869  0.0060  0.2017  0.6238
   60MOL0     H 7894  12.128   7.715   4.129 -1.2588 -2.4888  1.8727
   60MOL0     H 7895  12.274   7.663   4.032 -1.0583  0.3881 -0.9265
   60MOL0     H 7896  12.258   7.434   4.151  0.6605 -1.0225 -1.2325
   60MOL0     H 7897  12.116   7.482   4.233 -0.6380 -0.3221 -1.3443
   60MOL0     H 7898  12.222   7.644   4.364 -3.1368  0.1309 -3.9647
   60MOL0     H 7899  12.318   7.501   4.379  1.4293  0.2752  0.4066
   60MOL0     H 7900  12.403   7.730   4.201  1.8914  0.6106  0.2709
   60MOL0     H 7901  12.480   7.585   4.210 -1.5528  1.7477 -2.7716
   60MOL0     H 7902  11.620   7.273   4.278 -2.1617 -1.9820  0.3016
   60MOL0     H 7903  11.386   7.299   4.353  0.0554 -4.6681 -1.8538
   60MOL0     H 7904  11.038   7.783   4.435  0.5924  1.3597  0.7863
   60MOL0     H 7905  10.833   7.791   4.538 -0.6748 -0.5821  1.3613
   60MOL0     H 7906  10.653   7.836   4.284 -2.5217 -0.7782  0.3888
   60MOL0     H 7907  10.860   7.963   4.257 -1.0383  1.9827  0.2453
   60MOL0     H 7908  10.995   8.481   4.097 -1.2269 -2.8517  2.0920
   60MOL0     H 7909  11.196   8.619   4.000  5.1531 -0.5478 -0.8722
   60MOL0     H 7910  11.287   8.516   3.705 -0.0652 -4.9249 -0.9792
   60MOL0     H 7911  11.425   8.419   3.694  1.7235  1.8881 -2.9481
   60MOL0     H 7912  11.438   8.662   3.597 -1.2911  0.1960  0.7365
   60MOL0     H 7913  11.480   8.725   3.756  3.8401 -0.6434  0.5802
   60MOL0     H 7914  11.626   8.533   3.581  0.5642 -0.8111  1.0838
   60MOL0     H 7915  11.677   8.561   3.751  0.1461 -1.7716 -0.7120
   60MOL0     H 7916  11.666   8.736   3.504  0.2462 -2.3779 -0.0589
   60MOL0     H 7917  11.676   8.801   3.675 -3.2265 -1.6023  1.7560
   60MOL0     H 7918  12.057   8.689   3.677  0.5219 -1.0005 -2.8723
   60MOL0     H 7919  11.345   8.245   3.854 -2.6197 -2.3844 -0.8037
   60MOL0     H 7920  11.133   8.137   3.915 -1.9589  1.4680 -1.1983
   61MOL0     O 7921   2.215   9.878  10.475  0.4147  0.8949  0.0994
   61MOL0     C 7922   2.272   9.803  10.556  0.4795  0.1780  0.3018
   61MOL0     O 7923   2.228   9.771  10.688  0.5203  0.2488 -0.0786
   61MOL0     C 7924   2.105   9.817  10.730  0.6301 -0.0588 -0.8079
   61MOL0     C 7925   2.102   9.899  10.844 -0.6773  0.7871  0.4051
   61MOL0     C 7926   1.979   9.949  10.884  0.1089  0.2581 -0.7998
   61MOL0     C 7927   1.855   9.915  10.823 -0.7974 -1.0245 -0.3386
   61MOL0     O 7928   1.731   9.956  10.874 -0.3824 -1.0621  0.0201
   61MOL0     C 7929   1.731   9.975  11.022  0.4068  0.1749  0.0684
   61MOL0     C 7930   1.585   9.999  11.072  0.2934  0.3867 -1.2092
   61MOL0     C 7931   1.564   9.953  11.214  0.1840 -0.5744  0.6568
   61MOL0     C 7932   1.617  10.052  11.315 -0.0344 -0.2288  0.7263
   61MOL0     C 7933   1.513  10.080  11.421 -0.1660 -0.3199 -0.4249
   61MOL0     C 7934   1.386  10.157  11.383  0.5777  0.1626  0.2302
   61MOL0     C 7935   1.288  10.152  11.502  0.4300  0.6405  0.5072
   61MOL0     C 7936   1.184  10.039  11.500  0.2696  0.1963 -0.7568
   61MOL0     N 7937   1.217   9.917  11.578 -0.2220 -0.8277  0.6053
   61MOL0     C 7938   1.190   9.887  11.710 -0.7879  0.0585 -0.7773
   61MOL0     C 7939   1.243   9.766  11.730  0.5088  0.1480 -0.6419
   61MOL0     C 7940   1.222   9.670  11.845  0.2192 -0.1660 -0.3116
   61MOL0     C 7941   1.111   9.718  11.941 -0.3698 -0.3092 -0.0015
   61MOL0     C 7942   1.078   9.612  12.045 -0.0925 -0.4183 -0.0756
   61MOL0     C 7943   1.009   9.484  11.995  0.0681 -1.1634 -0.1831
   61MOL0     O 7944   0.868   9.524  11.972 -0.7281 -0.1396 -0.3575
   61MOL0     C 7945   0.783   9.433  11.904 -0.3448  0.4469 -0.2664
   61MOL0     C 7946   0.815   9.299  11.880 -1.2617 -0.5266  0.2426
   61MOL0     C 7947   0.730   9.218  11.804  0.6916 -1.3316 -0.1536
   61MOL0     C 7948   0.598   9.257  11.764 -1.5764 -0.4450 -0.1163
   61MOL0     C 7949   0.521   9.165  11.685 -0.8605 -0.1809 -0.1406
   61MOL0     O 7950   0.583   9.045  11.647  0.0625  0.4556  0.5469
   61MOL0     C 7951   0.509   8.938  11.608 -0.0914 -0.1397 -0.7573
   61MOL0     C 7952   0.425   8.932  11.501 -0.2519  0.2546  0.4522
   61MOL0     C 7953   0.345   8.821  11.471 -0.8751 -0.0777 -0.2635
   61MOL0     C 7954   0.355   8.705  11.552  0.5086  0.0343 -0.3876
   61MOL0     O 7955   0.281   8.593  11.553  0.2759  0.3894  0.1518
   61MOL0     C 7956   0.156   8.578  11.491  0.1084  0.1568  0.4983
   61MOL0     C 7957   0.051   8.518  11.578 -0.1581  0.5831 -0.0529
   61MOL0     C 7958   0.062   8.374  11.591  0.3494 -0.0009 -0.0797
   61MOL0     C 7959  -0.064   8.316  11.651  0.3048  0.2002 -0.6664
   61MOL0     C 7960  -0.035   8.171  11.701  1.2205 -0.4285 -0.0209
   61MOL0     C 7961   0.001   8.064  11.589  0.2958 -0.3411 -0.2297
   61MOL0     C 7962  -0.092   8.045  11.468 -0.2179 -0.3931  0.4185
   61MOL0     C 7963  -0.058   7.918  11.382 -0.0740  0.1998 -1.0019
   61MOL0    Cl 7964  -0.199   7.850  11.310  0.4120  0.2111 -0.0574
   61MOL0     C 7965   0.447   8.708  11.662 -1.0803 -0.5678  0.3303
   61MOL0     C 7966   0.518   8.823  11.692 -0.8952  0.1564  0.9958
   61MOL0     O 7967   0.407   9.193  11.664 -0.5105 -0.8456  0.8430
   61MOL0     C 7968   0.568   9.388  11.801  1.3887 -0.2085 -0.3277
   61MOL0     C 7969   0.653   9.469  11.877  0.7689  1.2246 -0.6925
   61MOL0     N 7970   1.311   9.733  11.610  0.6201  0.0715 -0.5027
   61MOL0     N 7971   1.304   9.829  11.522 -0.5057 -0.3015 -0.1915
   61MOL0     C 7972   1.859   9.846  10.701  0.9222  0.4099 -0.1034
   61MOL0     C 7973   1.984   9.800  10.651  0.8723  0.9416 -0.7486
   61MOL0     C 7974   2.410   9.770  10.520 -0.3573 -0.4014  0.5369
   61MOL0     C 7975   2.498   9.679  10.585  0.4866 -0.4942  0.3589
   61MOL0     C 7976   2.616   9.634  10.536  0.2535  0.5828 -0.6830
   61MOL0     C 7977   2.667   9.675  10.420 -1.1061 -0.4517  0.4935
   61MOL0     O 7978   2.779   9.622  10.372 -0.0923  0.0873  0.4677
   61MOL0     C 7979   2.861   9.725  10.315  0.3777  0.0213 -0.2874
   61MOL0     C 7980   2.998   9.685  10.279 -0.5346 -0.0923  0.2219
   61MOL0     C 7981   3.107   9.781  10.240  0.5561  0.4054  0.8864
   61MOL0     C 7982   3.040   9.906  10.173  0.3027  0.6443  0.0140
   61MOL0     C 7983   3.157   9.983  10.122  0.1021  0.0954  0.2060
   61MOL0     C 7984   3.253  10.056  10.109  0.1995 -0.1560 -0.3945
   61MOL0     C 7985   2.594   9.775  10.357 -0.4372 -0.1592 -0.1339
   61MOL0     C 7986   2.474   9.834  10.407 -0.3117 -0.1675  0.2425
   61MOL0     H 7987   2.200   9.926  10.883  0.1376  1.0827 -1.7201
   61MOL0     H 7988   1.976  10.006  10.977 -0.4243 -1.4966  0.3182
   61MOL0     H 7989   1.785  10.066  11.049 -0.9703  1.0984 -0.1420
   61MOL0     H 7990   1.787   9.893  11.068 -0.4122 -0.5788 -0.2293
   61MOL0     H 7991   1.502   9.956  11.014 -1.7288  1.9350  0.3960
   61MOL0     H 7992   1.561  10.102  11.046  0.5339  0.0457 -2.9573
   61MOL0     H 7993   1.614   9.857  11.230  0.5697 -1.0458 -2.6286
   61MOL0     H 7994   1.456   9.939  11.223 -0.5807  0.9281 -3.6576
   61MOL0     H 7995   1.709  10.013  11.360 -1.0662 -1.0280  2.2592
   61MOL0     H 7996   1.636  10.146  11.263  2.1669 -0.2612  1.3613
   61MOL0     H 7997   1.560  10.149  11.492 -0.0062 -0.9222  0.0665
   61MOL0     H 7998   1.493   9.988  11.477  0.5181  0.0758  0.5025
   61MOL0     H 7999   1.342  10.108  11.295  1.6987  0.0263 -0.2727
   61MOL0     H 8000   1.408  10.261  11.358 -2.0018  1.6889  3.4838
   61MOL0     H 8001   1.342  10.138  11.597  1.5391 -1.9345 -0.3952
   61MOL0     H 8002   1.229  10.243  11.499  1.5591  1.4470  1.6009
   61MOL0     H 8003   1.161  10.025  11.394  1.9807  3.9242 -1.8018
   61MOL0     H 8004   1.093  10.073  11.551  1.6454 -1.0368  2.8191
   61MOL0     H 8005   1.141   9.945  11.788  0.2739 -0.8660  0.6323
   61MOL0     H 8006   1.311   9.669  11.908  0.2611  0.5170 -0.3542
   61MOL0     H 8007   1.195   9.569  11.812 -1.2483  0.2289 -0.3972
   61MOL0     H 8008   1.016   9.734  11.889 -0.2793  1.9287  0.4499
   61MOL0     H 8009   1.139   9.813  11.986  1.9691 -0.5797 -0.7178
   61MOL0     H 8010   1.172   9.585  12.093 -0.4991  1.0800  1.6824
   61MOL0     H 8011   1.021   9.653  12.129  0.7448 -2.6630  1.6820
   61MOL0     H 8012   1.002   9.417  12.082 -2.7196  1.7143  2.0210
   61MOL0     H 8013   1.048   9.440  11.903 -0.7427 -1.0234 -0.5996
   61MOL0     H 8014   0.915   9.265  11.907 -0.1881  1.5208 -0.8662
   61MOL0     H 8015   0.779   9.130  11.765  3.4952  0.7358 -1.6763
   61MOL0     H 8016   0.422   9.023  11.442  2.8167 -0.8093 -1.5684
   61MOL0     H 8017   0.270   8.823  11.392  1.1033  0.1771 -2.2491
   61MOL0     H 8018   0.177   8.513  11.406  3.0253 -1.5642  2.3432
   61MOL0     H 8019   0.125   8.682  11.475  0.2515  0.1680  0.2952
   61MOL0     H 8020  -0.051   8.542  11.545 -0.9218 -0.6476  1.2584
   61MOL0     H 8021   0.050   8.565  11.677 -1.4851 -1.0955  0.7970
   61MOL0     H 8022   0.147   8.355  11.657 -0.3375  3.0630  1.8683
   61MOL0     H 8023   0.097   8.325  11.499  0.2815 -0.7012  0.2693
   61MOL0     H 8024  -0.104   8.383  11.727 -3.6170  0.0919 -2.3465
   61MOL0     H 8025  -0.144   8.323  11.576 -1.7499  2.6975  1.5486
   61MOL0     H 8026  -0.125   8.136  11.750  0.4045 -0.3518 -1.4215
   61MOL0     H 8027   0.042   8.182  11.778 -0.6145  2.1722  1.6073
   61MOL0     H 8028   0.007   7.969  11.643 -0.1400 -0.0714  0.3092
   61MOL0     H 8029   0.103   8.083  11.555  0.8649  0.4325  1.7556
   61MOL0     H 8030  -0.194   8.038  11.508 -0.8302  0.7246 -0.8695
   61MOL0     H 8031  -0.093   8.125  11.393  2.2663  0.6237  1.3592
   61MOL0     H 8032  -0.027   7.845  11.456 -2.0457  3.3418  3.3564
   61MOL0     H 8033   0.017   7.945  11.307  0.3569  0.7494 -0.3839
   61MOL0     H 8034   0.458   8.629  11.736 -0.5527 -0.9235 -0.1267
   61MOL0     H 8035   0.578   8.830  11.782  1.0885  1.5869 -0.3403
   61MOL0     H 8036   0.470   9.421  11.769 -0.7376 -4.3101  1.1867
   61MOL0     H 8037   0.609   9.558  11.921 -0.0564  0.7635 -0.5714
   61MOL0     H 8038   1.760   9.823  10.662  0.1526  1.1651  1.3162
   61MOL0     H 8039   2.000   9.756  10.553  0.5591  0.4031 -0.5622
   61MOL0     H 8040   2.445   9.622  10.661 -1.6811  0.8003 -0.0729
   61MOL0     H 8041   2.658   9.548  10.588  0.6531 -0.6821 -2.9921
   61MOL0     H 8042   2.888   9.802  10.388  2.9453  1.0817 -2.2031
   61MOL0     H 8043   2.821   9.767  10.222 -1.3880 -1.2822 -0.1854
   61MOL0     H 8044   3.035   9.625  10.363 -1.7424 -2.3612 -0.7686
   61MOL0     H 8045   2.986   9.607  10.202  3.0084  2.2354 -3.0502
   61MOL0     H 8046   3.179   9.736  10.171 -0.2488 -0.2114  0.4344
   61MOL0     H 8047   3.160   9.811  10.331  2.1317  1.8372 -0.4544
   61MOL0     H 8048   2.978   9.866  10.092  2.3565 -0.7189 -1.0060
   61MOL0     H 8049   2.975   9.963  10.239 -1.6741  0.6077 -1.7782
   61MOL0     H 8050   3.339  10.119  10.093  1.8453 -1.6998  1.7970
   61MOL0     H 8051   2.622   9.816  10.261 -3.5141  3.3604  0.2700
   61MOL0     H 8052   2.437   9.917  10.348  0.4239 -0.4441 -0.6309
   62MOL0     O 8053   0.509  10.690   5.203  0.3443 -0.5875 -0.1287
   62MOL0     C 8054   0.510  10.673   5.078  0.3860 -0.5551 -0.3574
   62MOL0     O 8055   0.407  10.657   5.002  0.2567  0.2093 -0.1093
   62MOL0     C 8056   0.284  10.613   5.049  1.0553  0.2159  0.0774
   62MOL0     C 8057   0.247  10.594   5.188  0.2756  0.2503  0.4792
   62MOL0     C 8058   0.112  10.584   5.233  0.8150  0.2497  0.2231
   62MOL0     C 8059   0.008  10.586   5.136 -0.0384 -0.3685  0.6316
   62MOL0     O 8060  -0.121  10.563   5.178 -0.5609 -0.0436 -0.0779
   62MOL0     C 8061  -0.227  10.525   5.095  0.7304  0.0738 -0.1333
   62MOL0     C 8062  -0.333  10.458   5.189  0.2600 -0.6866 -0.3753
   62MOL0     C 8063  -0.286  10.332   5.257  0.6089 -0.1618  0.2562
   62MOL0     C 8064  -0.216  10.230   5.170 -0.0563  0.5292 -0.2685
   62MOL0     C 8065  -0.224  10.079   5.196  0.0204  0.0205  0.8204
   62MOL0     C 8066  -0.173  10.052   5.335 -0.2409 -0.4961 -0.3784
   62MOL0     C 8067  -0.029  10.095   5.376  1.2305 -0.0957 -0.2871
   62MOL0     C 8068   0.079  10.026   5.287  0.8883  0.3012 -0.5617
   62MOL0     N 8069   0.223  10.030   5.343  0.0286  0.0361 -0.0975
   62MOL0     C 8070   0.340  10.008   5.269 -0.9855 -0.6309 -0.0166
   62MOL0     C 8071   0.435   9.996   5.369 -0.4503  0.2404  0.4420
   62MOL0     C 8072   0.573   9.940   5.335 -0.0154 -1.1302  0.7949
   62MOL0     C 8073   0.691  10.032   5.366  0.5367  0.9283  0.2111
   62MOL0     C 8074   0.718  10.026   5.512  0.8792 -0.4321 -0.3222
   62MOL0     C 8075   0.862  10.091   5.539 -0.1877 -0.1610  0.0557
   62MOL0     O 8076   0.872  10.219   5.479 -0.0900  0.3277  0.4866
   62MOL0     C 8077   0.994  10.291   5.490 -0.1637  0.2356  0.9075
   62MOL0     C 8078   0.988  10.420   5.426 -0.9841  0.0083 -0.3251
   62MOL0     C 8079   1.096  10.509   5.432 -0.7441  0.0645 -1.2241
   62MOL0     C 8080   1.216  10.462   5.497 -0.5278 -0.1859  0.1381
   62MOL0     C 8081   1.338  10.555   5.506  0.4804 -0.3057  0.1228
   62MOL0     O 8082   1.455  10.504   5.557 -0.9718 -0.1459  0.2866
   62MOL0     C 8083   1.573  10.570   5.576  0.2390 -0.6775  0.5550
   62MOL0     C 8084   1.689  10.495   5.576 -0.6115  0.2595  0.1441
   62MOL0     C 8085   1.807  10.561   5.613 -0.3261  0.3036  0.3911
   62MOL0     C 8086   1.814  10.696   5.656  0.4480  0.0629 -0.6591
   62MOL0     O 8087   1.932  10.747   5.705  0.2274 -0.3640 -0.1829
   62MOL0     C 8088   2.069  10.706   5.671  0.5131  0.2276 -0.7056
   62MOL0     C 8089   2.125  10.759   5.545 -0.8482  0.3108  0.7048
   62MOL0     C 8090   2.274  10.703   5.535  1.0280 -0.2526 -0.4469
   62MOL0     C 8091   2.336  10.710   5.391  0.0987  0.8265  0.1296
   62MOL0     C 8092   2.453  10.813   5.385  0.8031  0.3094  0.2909
   62MOL0     C 8093   2.501  10.811   5.242 -0.4415  1.1005  1.2936
   62MOL0     C 8094   2.625  10.887   5.222  0.4218 -0.4622  0.6201
   62MOL0     C 8095   2.684  10.885   5.090 -0.1118 -0.0736  0.4572
   62MOL0    Cl 8096   2.774  10.735   5.050 -0.0037 -0.3950 -0.1814
   62MOL0     C 8097   1.694  10.767   5.662 -0.3354 -0.4011  0.1375
   62MOL0     C 8098   1.578  10.704   5.624 -0.5541  0.3938  0.3613
   62MOL0     O 8099   1.324  10.673   5.480 -0.2247 -0.6386 -0.5151
   62MOL0     C 8100   1.229  10.327   5.541 -0.3410  0.8507  0.1367
   62MOL0     C 8101   1.120  10.246   5.554 -0.2450 -0.5953  0.9140
   62MOL0     N 8102   0.371  10.017   5.492 -0.6880  0.8573 -0.1472
   62MOL0     N 8103   0.247  10.025   5.475  0.0824 -1.2438 -0.3089
   62MOL0     C 8104   0.037  10.571   5.000 -0.5531  0.5968  0.3749
   62MOL0     C 8105   0.174  10.594   4.958  0.9359 -0.1176  0.3000
   62MOL0     C 8106   0.636  10.680   4.995 -0.4436  0.4240 -0.5725
   62MOL0     C 8107   0.759  10.730   5.052  0.0205  0.4832  0.0168
   62MOL0     C 8108   0.883  10.728   4.981  0.7760 -0.3826 -0.7675
   62MOL0     C 8109   0.889  10.688   4.852 -0.8753 -0.2367 -0.5641
   62MOL0     O 8110   1.014  10.682   4.788  0.7771  0.1623  0.7455
   62MOL0     C 8111   1.017  10.663   4.645 -0.4383  0.0178 -1.2112
   62MOL0     C 8112   1.160  10.679   4.597 -0.1811  0.3378 -0.2586
   62MOL0     C 8113   1.174  10.646   4.446  0.4145  0.7756  0.9527
   62MOL0     C 8114   1.106  10.747   4.352 -0.0118  0.2003 -1.2038
   62MOL0     C 8115   1.098  10.703   4.216 -0.0312  0.1403 -0.0411
   62MOL0     C 8116   1.111  10.657   4.108  0.4879  0.6023  0.2819
   62MOL0     C 8117   0.769  10.640   4.796 -0.8038 -0.3056 -0.8681
   62MOL0     C 8118   0.642  10.638   4.859  0.3743  0.5562 -0.7640
   62MOL0     H 8119   0.317  10.605   5.270  0.2448  0.3617  0.4906
   62MOL0     H 8120   0.084  10.599   5.337  0.5724  0.8023  0.0818
   62MOL0     H 8121  -0.207  10.441   5.027 -0.4224 -0.3470  0.0068
   62MOL0     H 8122  -0.272  10.608   5.039  2.5181  1.4608  0.4207
   62MOL0     H 8123  -0.425  10.442   5.132 -0.1687  1.2983 -0.3200
   62MOL0     H 8124  -0.351  10.528   5.271 -2.9214 -0.3853 -1.1891
   62MOL0     H 8125  -0.364  10.268   5.301  0.1797  0.1791 -0.0054
   62MOL0     H 8126  -0.223  10.371   5.337  0.1245  2.0338 -0.3693
   62MOL0     H 8127  -0.258  10.242   5.069 -1.9515  1.1856  0.5376
   62MOL0     H 8128  -0.108  10.247   5.168  0.3591 -1.7382  0.7662
   62MOL0     H 8129  -0.164  10.025   5.122 -0.5489 -1.2196  1.2419
   62MOL0     H 8130  -0.330  10.059   5.178  0.6356 -2.8610 -0.1219
   62MOL0     H 8131  -0.176   9.944   5.354 -1.1336 -0.3153  0.5879
   62MOL0     H 8132  -0.231  10.110   5.407  0.7941 -2.6190  2.3697
   62MOL0     H 8133  -0.031  10.203   5.360 -1.2001  0.1947  1.4515
   62MOL0     H 8134  -0.021  10.076   5.484 -0.0578 -0.0325 -0.1629
   62MOL0     H 8135   0.077  10.080   5.192 -0.8332 -0.0215 -0.7572
   62MOL0     H 8136   0.040   9.923   5.281  3.5999 -0.8586  0.3339
   62MOL0     H 8137   0.344   9.987   5.162 -1.0325  0.3800 -0.2221
   62MOL0     H 8138   0.567   9.900   5.234 -4.1675 -0.4327  0.5958
   62MOL0     H 8139   0.592   9.843   5.383  1.4916 -1.6591 -0.7704
   62MOL0     H 8140   0.660  10.130   5.330 -2.5878  0.3795  1.0407
   62MOL0     H 8141   0.776   9.994   5.310 -0.9049  0.6871 -1.9361
   62MOL0     H 8142   0.644  10.088   5.563  0.7628  0.5375 -1.6265
   62MOL0     H 8143   0.717   9.926   5.556 -1.4222 -0.1536  0.3689
   62MOL0     H 8144   0.938  10.024   5.498 -1.3331 -1.2810 -0.2953
   62MOL0     H 8145   0.876  10.109   5.646 -2.4018 -0.2073  0.4002
   62MOL0     H 8146   0.897  10.451   5.375 -0.6994 -2.1044 -2.2884
   62MOL0     H 8147   1.095  10.607   5.386  0.6397  0.5460 -0.2826
   62MOL0     H 8148   1.705  10.390   5.556 -1.7359  0.2532 -0.8717
   62MOL0     H 8149   1.896  10.500   5.606 -0.2797  0.4418 -0.3553
   62MOL0     H 8150   2.072  10.597   5.663  0.3120  0.1075  0.6512
   62MOL0     H 8151   2.137  10.719   5.756  1.6671 -3.9136 -0.7611
   62MOL0     H 8152   2.121  10.868   5.543 -1.0145  0.2998 -0.3747
   62MOL0     H 8153   2.068  10.715   5.462 -0.2575  0.2829  0.3104
   62MOL0     H 8154   2.275  10.602   5.577 -7.1168 -0.4006  0.9645
   62MOL0     H 8155   2.332  10.768   5.601 -0.0182  0.2323  0.0168
   62MOL0     H 8156   2.368  10.608   5.368 -0.6112  0.2640  1.5205
   62MOL0     H 8157   2.265  10.734   5.312  0.0577 -1.6197 -0.6472
   62MOL0     H 8158   2.527  10.785   5.459  2.0187 -2.1043 -1.6688
   62MOL0     H 8159   2.420  10.914   5.410  1.6735  0.1387  2.2784
   62MOL0     H 8160   2.420  10.849   5.180  1.9102  1.2758 -1.9321
   62MOL0     H 8161   2.512  10.704   5.219  4.4805  0.8167  3.6431
   62MOL0     H 8162   2.591  10.991   5.227 -1.2895 -1.0520  2.5480
   62MOL0     H 8163   2.693  10.865   5.304  0.7444 -0.1989  0.4283
   62MOL0     H 8164   2.743  10.975   5.069 -0.5146 -0.3898 -2.2941
   62MOL0     H 8165   2.594  10.887   5.029 -1.8376 -0.0316  2.8463
   62MOL0     H 8166   1.712  10.869   5.694  1.9660 -0.9065  0.6185
   62MOL0     H 8167   1.485  10.756   5.645  0.0574  1.6991 -0.0250
   62MOL0     H 8168   1.328  10.302   5.576  0.6667  1.7101 -1.9382
   62MOL0     H 8169   1.137  10.145   5.592  0.7486 -0.8435 -0.1331
   62MOL0     H 8170  -0.036  10.542   4.926 -0.0920 -1.3826  0.6369
   62MOL0     H 8171   0.212  10.576   4.858  1.4117 -2.9428  0.9122
   62MOL0     H 8172   0.757  10.765   5.155  1.3900 -0.6543  0.4635
   62MOL0     H 8173   0.976  10.764   5.022  0.6418 -2.1893  1.2539
   62MOL0     H 8174   0.956  10.744   4.603  0.2455  2.3584  1.9375
   62MOL0     H 8175   0.984  10.562   4.622  1.4605 -1.0403  0.3927
   62MOL0     H 8176   1.186  10.783   4.618 -1.4796  0.1562  2.7800
   62MOL0     H 8177   1.221  10.615   4.662  0.3448  1.9777  0.9267
   62MOL0     H 8178   1.125  10.551   4.422  2.7545  0.2039 -2.3463
   62MOL0     H 8179   1.274  10.616   4.412 -0.7860  1.0891 -3.4619
   62MOL0     H 8180   1.008  10.776   4.391  0.2832 -3.1102  2.6949
   62MOL0     H 8181   1.164  10.839   4.364 -1.3033  0.9415 -0.5036
   62MOL0     H 8182   1.122  10.600   4.018  0.5665  1.2781 -0.1397
   62MOL0     H 8183   0.777  10.591   4.699  2.3391 -4.2499  1.0354
   62MOL0     H 8184   0.553  10.612   4.803 -0.1949 -3.6189  1.6749
   63MOL0     O 8185   1.591  10.453   6.407  0.0509 -0.0089 -0.3656
   63MOL0     C 8186   1.613  10.560   6.468 -0.1668  0.5468  0.8483
   63MOL0     O 8187   1.521  10.659   6.485  0.3498  0.5844  0.0682
   63MOL0     C 8188   1.399  10.656   6.425 -0.5467  0.6723 -0.4184
   63MOL0     C 8189   1.296  10.718   6.495  0.2307 -0.4652  0.3264
   63MOL0     C 8190   1.171  10.726   6.431  0.1281  0.8785 -0.0163
   63MOL0     C 8191   1.144  10.657   6.310  0.3005 -0.2277  0.3185
   63MOL0     O 8192   1.019  10.680   6.258  0.0067 -0.1163  0.5644
   63MOL0     C 8193   1.019  10.797   6.180 -1.0343  0.6157  0.2019
   63MOL0     C 8194   0.883  10.780   6.100  0.0990  0.1007 -0.2723
   63MOL0     C 8195   0.762  10.804   6.190 -0.3188 -0.9693  0.9535
   63MOL0     C 8196   0.636  10.755   6.127 -0.2820  0.1686  0.8086
   63MOL0     C 8197   0.596  10.831   5.996  0.2817 -0.1141  0.1954
   63MOL0     C 8198   0.532  10.964   6.023  0.3816  0.4096  0.8972
   63MOL0     C 8199   0.399  10.980   6.089 -0.6015  0.3068  0.4420
   63MOL0     C 8200   0.294  10.911   5.997 -0.7478  0.8250  0.0073
   63MOL0     N 8201   0.162  10.973   6.018 -0.1926  0.1417  0.6107
   63MOL0     C 8202   0.059  10.913   6.086  0.1485 -0.9468 -0.2028
   63MOL0     C 8203  -0.032  11.015   6.103  0.2987 -0.3289 -0.0012
   63MOL0     C 8204  -0.161  11.009   6.175 -0.8404  0.0381 -0.6269
   63MOL0     C 8205  -0.266  11.101   6.111 -0.1129 -1.0807 -0.3754
   63MOL0     C 8206  -0.399  11.078   6.183  0.6223 -0.7716 -0.0188
   63MOL0     C 8207  -0.520  11.113   6.089  0.3795 -0.3285  0.4133
   63MOL0     O 8208  -0.638  11.068   6.155  0.2755 -0.0677  0.1278
   63MOL0     C 8209  -0.738  11.149   6.208 -0.5868  0.5746  0.3405
   63MOL0     C 8210  -0.849  11.076   6.248 -0.2758  0.4069 -0.1422
   63MOL0     C 8211  -0.959  11.134   6.310 -0.1705 -0.2406 -0.4926
   63MOL0     C 8212  -0.964  11.269   6.338  0.6972  0.0462  0.2216
   63MOL0     C 8213  -1.087  11.314   6.410  0.3147 -0.3084  0.3312
   63MOL0     O 8214  -1.084  11.448   6.412 -1.2038 -0.5083 -0.5617
   63MOL0     C 8215  -1.164  11.526   6.491  1.0430  0.0583 -0.7330
   63MOL0     C 8216  -1.192  11.660   6.449 -1.0895  0.4230  0.3596
   63MOL0     C 8217  -1.269  11.746   6.532  0.5219 -0.0240 -0.4682
   63MOL0     C 8218  -1.320  11.703   6.658  0.8732 -1.3110  0.2508
   63MOL0     O 8219  -1.400  11.783   6.732 -0.8227  0.4096  0.0782
   63MOL0     C 8220  -1.496  11.709   6.814 -0.3065  0.0490  1.1775
   63MOL0     C 8221  -1.618  11.805   6.847 -0.5923  1.0355  0.3825
   63MOL0     C 8222  -1.581  11.928   6.924  0.0001 -0.0691 -0.5870
   63MOL0     C 8223  -1.567  11.897   7.084 -0.5281 -0.0476  0.3373
   63MOL0     C 8224  -1.534  12.032   7.148  0.3310  0.3937 -0.3378
   63MOL0     C 8225  -1.478  12.011   7.295 -0.5618 -0.1992 -1.0378
   63MOL0     C 8226  -1.330  11.980   7.320 -0.2058 -0.2893  0.2818
   63MOL0     C 8227  -1.303  11.914   7.459  0.5801  0.4785  0.2423
   63MOL0    Cl 8228  -1.348  12.030   7.585 -0.3955 -0.3133 -0.2864
   63MOL0     C 8229  -1.289  11.573   6.697 -0.6424 -0.1328  0.5553
   63MOL0     C 8230  -1.221  11.483   6.617 -0.3900 -0.6575 -0.2525
   63MOL0     O 8231  -1.172  11.249   6.471  0.1389 -0.6175  0.2602
   63MOL0     C 8232  -0.843  11.346   6.294  0.5752  1.4336 -0.8751
   63MOL0     C 8233  -0.723  11.288   6.241 -0.9017  0.5762 -0.2085
   63MOL0     N 8234   0.012  11.124   6.029 -0.3516 -0.4233 -0.2885
   63MOL0     N 8235   0.121  11.096   5.976  0.4991 -0.0256  0.4527
   63MOL0     C 8236   1.245  10.580   6.249 -0.3259 -0.7836 -0.0617
   63MOL0     C 8237   1.375  10.603   6.302 -0.3925 -0.8012  0.8996
   63MOL0     C 8238   1.743  10.580   6.534  0.2009  0.4352  0.5141
   63MOL0     C 8239   1.783  10.710   6.560  0.2733  0.2619 -0.1285
   63MOL0     C 8240   1.903  10.724   6.628  0.8468 -0.4742  0.3814
   63MOL0     C 8241   1.983  10.623   6.663 -0.6770  0.0626 -0.5869
   63MOL0     O 8242   2.105  10.661   6.714  0.6646 -0.2938  0.5575
   63MOL0     C 8243   2.208  10.621   6.624  0.1573  0.1925  0.5153
   63MOL0     C 8244   2.333  10.701   6.651 -0.1107 -0.5179  0.6302
   63MOL0     C 8245   2.396  10.666   6.788 -0.0739 -0.2071  0.4778
   63MOL0     C 8246   2.419  10.781   6.880 -0.2264 -0.3342 -0.3330
   63MOL0     C 8247   2.293  10.848   6.924 -0.3372 -0.3121 -0.1867
   63MOL0     C 8248   2.183  10.894   6.937  0.0892  0.2835  1.1478
   63MOL0     C 8249   1.942  10.488   6.637  0.7790  0.0999  0.3187
   63MOL0     C 8250   1.817  10.470   6.573  0.0359  0.4651 -0.2470
   63MOL0     H 8251   1.315  10.772   6.587  2.5473  0.0610 -0.3754
   63MOL0     H 8252   1.101  10.795   6.478  0.8006  3.0685 -2.0594
   63MOL0     H 8253   1.113  10.798   6.124 -0.8180 -2.1700  0.3924
   63MOL0     H 8254   1.023  10.883   6.247 -4.3774  0.6789  0.4852
   63MOL0     H 8255   0.885  10.678   6.062 -1.8146  0.9365 -2.9132
   63MOL0     H 8256   0.884  10.854   6.018 -2.7378  0.3090 -0.1956
   63MOL0     H 8257   0.757  10.911   6.211  1.1719 -0.4892 -0.8277
   63MOL0     H 8258   0.769  10.739   6.278 -0.8531 -2.3448  0.0260
   63MOL0     H 8259   0.645  10.647   6.113 -1.5800  0.1826 -0.3032
   63MOL0     H 8260   0.557  10.764   6.202  0.4127 -1.2100  1.7587
   63MOL0     H 8261   0.527  10.765   5.943 -0.2887 -0.9054  1.8257
   63MOL0     H 8262   0.680  10.841   5.927 -1.1484 -2.5791 -2.0559
   63MOL0     H 8263   0.534  11.018   5.928 -1.2040  1.0899  1.2209
   63MOL0     H 8264   0.600  11.015   6.091  0.0572  0.4525  1.1930
   63MOL0     H 8265   0.412  10.933   6.187  2.3062  0.0105  0.0050
   63MOL0     H 8266   0.379  11.087   6.100 -1.5263  0.1691  0.2026
   63MOL0     H 8267   0.304  10.803   6.014  1.6922  0.9067 -0.5262
   63MOL0     H 8268   0.315  10.924   5.890  3.0899 -0.0093  0.5111
   63MOL0     H 8269   0.051  10.815   6.132 -0.9845 -1.1445 -0.7936
   63MOL0     H 8270  -0.156  11.039   6.280 -3.0065 -2.0202  0.1613
   63MOL0     H 8271  -0.197  10.906   6.172  1.1581 -0.8307  1.6301
   63MOL0     H 8272  -0.286  11.068   6.008 -1.0111  0.6091 -0.7798
   63MOL0     H 8273  -0.241  11.207   6.114 -1.2784 -0.8145  1.0897
   63MOL0     H 8274  -0.412  10.978   6.225  0.6772 -0.6162  0.3794
   63MOL0     H 8275  -0.398  11.144   6.271  1.0970  2.5382 -2.3124
   63MOL0     H 8276  -0.513  11.078   5.985  0.2013  3.9128 -1.2309
   63MOL0     H 8277  -0.516  11.222   6.075  3.8513 -0.4200 -0.4804
   63MOL0     H 8278  -0.852  10.969   6.230 -0.1090  0.5201 -0.8729
   63MOL0     H 8279  -1.042  11.065   6.319 -0.3212  0.2635  4.4776
   63MOL0     H 8280  -1.159  11.705   6.356 -0.2937 -0.6148  0.1362
   63MOL0     H 8281  -1.288  11.842   6.487  1.5588  1.5205  2.1805
   63MOL0     H 8282  -1.448  11.690   6.911  0.4806  2.1419  1.2526
   63MOL0     H 8283  -1.532  11.615   6.773  3.7687 -0.6568 -1.3489
   63MOL0     H 8284  -1.685  11.749   6.913 -0.0588  1.3972  1.2492
   63MOL0     H 8285  -1.668  11.833   6.754  1.7856  2.7710 -0.4602
   63MOL0     H 8286  -1.666  11.994   6.907 -0.6889 -0.7768  0.0243
   63MOL0     H 8287  -1.488  11.973   6.888 -0.8958  2.0604 -0.3922
   63MOL0     H 8288  -1.660  11.852   7.121  0.1050 -0.2614  1.7034
   63MOL0     H 8289  -1.488  11.823   7.098 -1.7725 -1.2920  1.0552
   63MOL0     H 8290  -1.632  12.081   7.145  1.0506  1.9400 -3.7298
   63MOL0     H 8291  -1.463  12.093   7.093  2.8662 -1.9032  0.1756
   63MOL0     H 8292  -1.530  11.923   7.335  0.3409 -0.6592 -0.8340
   63MOL0     H 8293  -1.488  12.109   7.342  1.0750  0.1975 -1.4510
   63MOL0     H 8294  -1.300  11.899   7.252  2.1243 -2.6763  3.8210
   63MOL0     H 8295  -1.267  12.069   7.313 -0.2263 -0.2857  0.1386
   63MOL0     H 8296  -1.195  11.895   7.460  1.0493  2.5447 -2.1230
   63MOL0     H 8297  -1.360  11.826   7.489  1.2105  0.5970  1.8959
   63MOL0     H 8298  -1.331  11.525   6.785  1.0537 -0.9926  0.9384
   63MOL0     H 8299  -1.188  11.386   6.653 -1.0751 -0.1519  1.8761
   63MOL0     H 8300  -0.845  11.451   6.323 -0.2945  1.1196  0.2645
   63MOL0     H 8301  -0.633  11.342   6.215 -0.3765 -0.2303 -0.1003
   63MOL0     H 8302   1.248  10.529   6.154  1.1150  4.3329 -3.1266
   63MOL0     H 8303   1.464  10.566   6.252  0.7962  2.0597  0.6950
   63MOL0     H 8304   1.736  10.803   6.529 -0.4134 -0.7451 -2.3062
   63MOL0     H 8305   1.937  10.824   6.650  0.3961 -0.6728  2.1516
   63MOL0     H 8306   2.176  10.623   6.519  0.0077 -1.0919  0.5145
   63MOL0     H 8307   2.227  10.517   6.651  0.2182  0.2397  0.6506
   63MOL0     H 8308   2.403  10.691   6.568  0.6190  3.9560  0.4683
   63MOL0     H 8309   2.316  10.809   6.642 -2.7926 -0.8645  0.6886
   63MOL0     H 8310   2.498  10.628   6.775  0.0838 -1.4522  4.2690
   63MOL0     H 8311   2.331  10.600   6.845  1.3265 -1.4055  0.7504
   63MOL0     H 8312   2.461  10.736   6.971  0.3534 -0.7237 -0.7847
   63MOL0     H 8313   2.484  10.850   6.825 -2.6172  2.1949 -0.1783
   63MOL0     H 8314   2.085  10.937   6.935 -0.2024 -0.3569 -1.2448
   63MOL0     H 8315   2.009  10.403   6.636  1.6733  0.7868 -0.5316
   63MOL0     H 8316   1.793  10.369   6.542  1.4573 -1.0859  3.2055
   64MOL0     O 8317  10.628   5.251   2.677  0.7150 -0.0201 -0.5088
   64MOL0     C 8318  10.700   5.160   2.641  0.0467 -0.5543  0.7006
   64MOL0     O 8319  10.655   5.046   2.579  0.0949  0.7913  0.3186
   64MOL0     C 8320  10.516   5.018   2.564  0.2816  0.5847 -1.1177
   64MOL0     C 8321  10.416   5.053   2.658 -0.5011  0.1064 -0.0986
   64MOL0     C 8322  10.292   4.997   2.639  0.1553  0.4163 -0.4023
   64MOL0     C 8323  10.262   4.901   2.546  0.0271  0.1935  0.6722
   64MOL0     O 8324  10.145   4.854   2.518 -0.0473  0.3858  0.7301
   64MOL0     C 8325  10.038   4.885   2.616 -0.1648  0.4592 -0.2997
   64MOL0     C 8326  10.033   4.813   2.746 -0.1727 -0.1847 -0.2128
   64MOL0     C 8327   9.998   4.672   2.720  0.0713 -0.5996  0.4120
   64MOL0     C 8328   9.997   4.596   2.850  0.1682  0.1845  0.2776
   64MOL0     C 8329   9.910   4.470   2.835 -0.4207  0.6025  0.0211
   64MOL0     C 8330   9.949   4.368   2.945 -1.8748  0.5190  0.2753
   64MOL0     C 8331   9.837   4.352   3.048 -1.6579 -0.2763 -0.0019
   64MOL0     C 8332   9.869   4.247   3.153 -0.0434 -0.1204 -0.1787
   64MOL0     N 8333   9.814   4.271   3.284  0.2106 -0.1550  0.7146
   64MOL0     C 8334   9.865   4.364   3.373 -0.9293  0.5150  0.0851
   64MOL0     C 8335   9.776   4.360   3.474 -1.1060  0.8598  0.3469
   64MOL0     C 8336   9.800   4.423   3.616 -0.6125 -1.4156  0.1660
   64MOL0     C 8337   9.772   4.576   3.626 -0.0961  0.6331  0.0783
   64MOL0     C 8338   9.768   4.626   3.765 -0.5182 -0.1297 -0.9264
   64MOL0     C 8339   9.726   4.777   3.756  0.3906  0.0581  1.2868
   64MOL0     O 8340   9.801   4.859   3.666  0.6293  0.2758 -0.3965
   64MOL0     C 8341   9.921   4.889   3.707  0.4477  0.4089 -0.1564
   64MOL0     C 8342  10.001   4.950   3.614 -0.1570 -0.7228  0.5698
   64MOL0     C 8343  10.136   4.991   3.644 -0.4373 -0.3922  0.6208
   64MOL0     C 8344  10.197   4.978   3.769  0.4363  0.3002 -0.5682
   64MOL0     C 8345  10.337   5.013   3.799  0.8032 -0.2643  0.6097
   64MOL0     O 8346  10.377   4.982   3.923 -0.1530 -0.2285 -0.1700
   64MOL0     C 8347  10.504   5.021   3.952 -0.3289  0.0585 -1.0000
   64MOL0     C 8348  10.561   5.143   3.945  0.0735  0.3654 -0.3626
   64MOL0     C 8349  10.699   5.160   3.980 -1.4748  1.1147 -0.0737
   64MOL0     C 8350  10.772   5.056   4.037  0.8614 -0.2626  0.1358
   64MOL0     O 8351  10.889   5.081   4.092 -0.4194 -0.8330  0.5773
   64MOL0     C 8352  11.008   5.063   4.006  0.0228 -0.5908  0.7468
   64MOL0     C 8353  11.116   5.162   4.053 -0.0900  0.8932  0.2791
   64MOL0     C 8354  11.175   5.108   4.185  0.3397 -0.0314  0.4621
   64MOL0     C 8355  11.294   5.185   4.224  0.8340 -0.2803 -0.9083
   64MOL0     C 8356  11.275   5.343   4.222  0.0723  0.0659 -0.3372
   64MOL0     C 8357  11.397   5.429   4.272 -0.0058 -0.8565  0.0512
   64MOL0     C 8358  11.532   5.391   4.191  0.7806 -0.1233 -1.2650
   64MOL0     C 8359  11.659   5.447   4.257  0.1178 -0.1566  0.3884
   64MOL0    Cl 8360  11.648   5.614   4.334  0.2103  0.4982  0.4842
   64MOL0     C 8361  10.705   4.936   4.058 -0.0626 -0.5778  0.5347
   64MOL0     C 8362  10.577   4.920   4.011  0.0909  0.1142 -0.0172
   64MOL0     O 8363  10.399   5.062   3.706  0.2769 -0.5226  0.0593
   64MOL0     C 8364  10.105   4.927   3.865 -0.4974 -1.1455 -0.1418
   64MOL0     C 8365   9.970   4.884   3.841 -0.6254 -0.9213  0.1960
   64MOL0     N 8366   9.671   4.274   3.436  0.0676  0.1616 -0.0887
   64MOL0     N 8367   9.699   4.220   3.324  0.8754 -0.3581 -0.0087
   64MOL0     C 8368  10.363   4.875   2.449  0.2110  0.7080 -0.4445
   64MOL0     C 8369  10.487   4.922   2.462  0.1916  0.1337  0.1745
   64MOL0     C 8370  10.844   5.182   2.646 -0.1827  0.1371  0.1171
   64MOL0     C 8371  10.938   5.083   2.595  0.4385  0.9971  0.2709
   64MOL0     C 8372  11.073   5.107   2.615  0.4028 -0.0028  0.4262
   64MOL0     C 8373  11.122   5.226   2.667 -0.2711 -0.0500 -0.7357
   64MOL0     O 8374  11.252   5.264   2.666  0.0253  0.2496  0.2468
   64MOL0     C 8375  11.333   5.192   2.567  0.4532 -0.1528  0.0476
   64MOL0     C 8376  11.461   5.279   2.538 -0.2836  0.4979  0.0720
   64MOL0     C 8377  11.521   5.353   2.655 -0.6428 -0.7665  0.5440
   64MOL0     C 8378  11.650   5.432   2.611 -0.2926  0.2267  0.0776
   64MOL0     C 8379  11.749   5.452   2.718  0.5410  0.3032  0.0152
   64MOL0     C 8380  11.831   5.459   2.801 -0.6045  0.2591 -1.1127
   64MOL0     C 8381  11.030   5.313   2.719  0.0960 -0.2950  0.3730
   64MOL0     C 8382  10.891   5.298   2.706 -0.2956 -0.5072  0.6728
   64MOL0     H 8383  10.432   5.129   2.734  0.0089 -0.1883  0.0927
   64MOL0     H 8384  10.212   5.035   2.702  0.7687 -0.6391  1.0956
   64MOL0     H 8385   9.941   4.864   2.570 -1.6057 -0.9951  3.0412
   64MOL0     H 8386  10.022   4.993   2.625 -0.5728  0.2472  2.6651
   64MOL0     H 8387   9.964   4.872   2.807  0.6750 -0.8520  1.4408
   64MOL0     H 8388  10.132   4.814   2.792 -0.0050 -2.1569 -0.4492
   64MOL0     H 8389  10.073   4.626   2.657 -0.6909  1.3103 -2.0676
   64MOL0     H 8390   9.896   4.666   2.682  0.0197  0.7146  0.3013
   64MOL0     H 8391  10.103   4.576   2.864  0.7818  2.4581 -0.6732
   64MOL0     H 8392   9.958   4.645   2.939  0.8178 -0.9760  1.2270
   64MOL0     H 8393   9.911   4.422   2.737  1.1905  0.8188 -0.0974
   64MOL0     H 8394   9.806   4.504   2.841  0.7283  4.6061  0.0618
   64MOL0     H 8395  10.043   4.392   2.995  0.1977 -0.6999 -2.8082
   64MOL0     H 8396   9.969   4.274   2.894  0.9972  1.4718 -0.5660
   64MOL0     H 8397   9.817   4.454   3.079 -0.3755  0.4659 -1.4588
   64MOL0     H 8398   9.748   4.316   2.996 -0.5319 -2.5723 -0.4987
   64MOL0     H 8399   9.977   4.241   3.169 -0.1395 -0.0136  0.5452
   64MOL0     H 8400   9.841   4.147   3.119 -0.0492 -0.9115  1.9426
   64MOL0     H 8401   9.957   4.421   3.370 -0.0701 -0.7866  0.6385
   64MOL0     H 8402   9.907   4.407   3.632  0.2689  0.9490 -2.6071
   64MOL0     H 8403   9.749   4.364   3.693  0.8468 -1.6964  0.9511
   64MOL0     H 8404   9.678   4.589   3.571 -0.3890 -2.7180 -0.3809
   64MOL0     H 8405   9.844   4.628   3.562  2.3198 -0.8046  1.5065
   64MOL0     H 8406   9.707   4.568   3.834  0.7239 -0.4622 -0.0724
   64MOL0     H 8407   9.868   4.626   3.810 -0.3062 -0.7051 -1.3765
   64MOL0     H 8408   9.719   4.824   3.854 -1.3521  2.3121  0.1517
   64MOL0     H 8409   9.622   4.761   3.725  0.7095 -0.8629  0.6398
   64MOL0     H 8410   9.970   4.964   3.511  2.0652  1.9623  0.1216
   64MOL0     H 8411  10.195   5.023   3.559  0.9888  0.3196  1.8062
   64MOL0     H 8412  10.502   5.227   3.910 -0.2029  0.2575 -0.1654
   64MOL0     H 8413  10.750   5.255   3.974  2.1219 -0.4156  2.3830
   64MOL0     H 8414  10.981   5.087   3.903 -2.4259 -2.7232  0.7760
   64MOL0     H 8415  11.037   4.958   4.020  0.3279 -0.5520  0.4163
   64MOL0     H 8416  11.077   5.262   4.072  1.4390  1.0286  3.2925
   64MOL0     H 8417  11.190   5.166   3.973  1.2622  1.8772  1.5204
   64MOL0     H 8418  11.206   5.004   4.169 -3.0616 -0.9855 -0.8256
   64MOL0     H 8419  11.095   5.098   4.259  0.4330  2.1234  0.9197
   64MOL0     H 8420  11.339   5.148   4.317  0.0277 -0.4648 -0.5814
   64MOL0     H 8421  11.368   5.161   4.147 -1.3967 -3.0249 -2.3693
   64MOL0     H 8422  11.191   5.367   4.289  0.5128  2.3937 -0.5382
   64MOL0     H 8423  11.247   5.388   4.126 -0.4466 -1.4817 -0.9448
   64MOL0     H 8424  11.424   5.416   4.377 -0.9093  1.2860  0.6023
   64MOL0     H 8425  11.392   5.535   4.247  2.8091 -0.2060  1.8313
   64MOL0     H 8426  11.538   5.284   4.168 -0.5198 -0.7915  1.0611
   64MOL0     H 8427  11.513   5.429   4.090 -5.5070  2.2628  0.3410
   64MOL0     H 8428  11.740   5.456   4.184  0.3548  1.8775  0.8369
   64MOL0     H 8429  11.689   5.386   4.343  0.5488  1.7381  1.6332
   64MOL0     H 8430  10.746   4.848   4.106 -0.2583 -0.5867  0.6885
   64MOL0     H 8431  10.542   4.817   4.020  1.5150 -0.2844  1.2492
   64MOL0     H 8432  10.151   4.918   3.963 -1.8374 -0.0174  0.6224
   64MOL0     H 8433   9.910   4.851   3.925  0.0376 -0.8824  0.6982
   64MOL0     H 8434  10.336   4.807   2.368 -2.1856 -0.8114  1.5000
   64MOL0     H 8435  10.562   4.893   2.389  0.1428 -0.7536  0.4556
   64MOL0     H 8436  10.911   4.986   2.553  0.0907  1.1571  0.1237
   64MOL0     H 8437  11.143   5.036   2.572 -0.3264  0.0150 -0.8490
   64MOL0     H 8438  11.284   5.181   2.470  0.6192  3.4541 -0.6076
   64MOL0     H 8439  11.361   5.093   2.604  2.1268 -0.0469 -0.8761
   64MOL0     H 8440  11.545   5.217   2.505 -0.0810  0.8065  0.0024
   64MOL0     H 8441  11.441   5.347   2.455  0.9639 -1.5480 -2.0304
   64MOL0     H 8442  11.564   5.280   2.725  2.4413 -0.2588 -0.6412
   64MOL0     H 8443  11.447   5.416   2.705  1.9756  5.7153 -2.6210
   64MOL0     H 8444  11.698   5.377   2.529 -0.9845  0.2153 -0.3331
   64MOL0     H 8445  11.612   5.527   2.572 -2.6592  0.5099  2.7716
   64MOL0     H 8446  11.893   5.474   2.887  1.1717  0.1533 -2.3391
   64MOL0     H 8447  11.060   5.406   2.768  3.0142 -0.3830 -1.0511
   64MOL0     H 8448  10.826   5.381   2.731 -1.7553 -0.7990 -1.8850
   65MOL0     O 8449  10.886   3.802   4.365  0.0348  0.5199  0.2331
   65MOL0     C 8450  10.972   3.721   4.395 -0.3266  0.3242  0.2301
   65MOL0     O 8451  10.987   3.664   4.519 -0.3463 -0.2049  0.6917
   65MOL0     C 8452  10.926   3.723   4.630  0.6642 -0.2172  0.4190
   65MOL0     C 8453  10.937   3.858   4.672 -0.1691 -0.2900 -0.0750
   65MOL0     C 8454  10.880   3.911   4.791 -0.4625  0.3143 -0.4700
   65MOL0     C 8455  10.805   3.829   4.873  0.5313 -0.3919 -0.6177
   65MOL0     O 8456  10.738   3.884   4.981 -0.2945 -0.4561 -0.3743
   65MOL0     C 8457  10.681   3.795   5.078 -0.5659  0.4939 -0.5434
   65MOL0     C 8458  10.630   3.885   5.185  0.4763  0.2425 -0.4173
   65MOL0     C 8459  10.522   3.821   5.268  0.4774 -0.0169  0.1483
   65MOL0     C 8460  10.584   3.736   5.379 -1.0295 -0.0278 -0.1429
   65MOL0     C 8461  10.490   3.653   5.457  0.8482  0.2582 -0.6086
   65MOL0     C 8462  10.556   3.542   5.540  0.2233 -0.2030  0.3852
   65MOL0     C 8463  10.481   3.529   5.662 -0.8330 -0.4969  0.5000
   65MOL0     C 8464  10.526   3.415   5.755 -0.2068 -1.4313 -0.1998
   65MOL0     N 8465  10.651   3.448   5.819  0.3421  0.0952 -0.8109
   65MOL0     C 8466  10.673   3.520   5.940 -0.0924  0.8772  0.0694
   65MOL0     C 8467  10.802   3.505   5.970  0.7051  0.1597  0.7536
   65MOL0     C 8468  10.862   3.563   6.089 -0.2971 -0.6296 -0.7923
   65MOL0     C 8469  10.774   3.611   6.205  0.1707 -0.1120 -0.6000
   65MOL0     C 8470  10.839   3.712   6.302 -0.0447 -0.3192 -0.3596
   65MOL0     C 8471  10.959   3.643   6.380  0.0280 -0.3761 -0.0585
   65MOL0     O 8472  10.904   3.542   6.457  0.5198  0.2716  0.1158
   65MOL0     C 8473  10.983   3.452   6.516 -0.0514  0.6900 -0.7878
   65MOL0     C 8474  11.119   3.451   6.522  0.8987 -0.1086 -0.1795
   65MOL0     C 8475  11.197   3.364   6.602 -0.1243  0.3020 -0.1094
   65MOL0     C 8476  11.136   3.268   6.679  0.8732  0.8767 -0.0054
   65MOL0     C 8477  11.208   3.175   6.759 -0.9722  0.5270  0.6422
   65MOL0     O 8478  11.341   3.157   6.719  0.1668  0.8260  0.1143
   65MOL0     C 8479  11.408   3.053   6.790  0.8215  0.8107  0.3656
   65MOL0     C 8480  11.383   2.919   6.740  0.9555  0.2879  0.0620
   65MOL0     C 8481  11.450   2.815   6.802  0.3425 -0.9810 -0.7552
   65MOL0     C 8482  11.522   2.840   6.920 -0.0094 -0.1151 -0.2508
   65MOL0     O 8483  11.559   2.721   6.975 -0.0908  0.2284  0.3829
   65MOL0     C 8484  11.587   2.733   7.114  0.0693  0.3426  0.1858
   65MOL0     C 8485  11.595   2.601   7.170 -0.1696  0.6870 -0.3550
   65MOL0     C 8486  11.714   2.518   7.111 -0.5727  0.6198 -0.0786
   65MOL0     C 8487  11.711   2.379   7.183  0.9144  0.1236 -0.1119
   65MOL0     C 8488  11.783   2.267   7.104  0.3937 -0.4251 -0.5778
   65MOL0     C 8489  11.768   2.133   7.180  0.5549  0.1070  0.6747
   65MOL0     C 8490  11.817   2.135   7.327  0.3093  0.7047  0.2028
   65MOL0     C 8491  11.827   1.989   7.375  0.1314  0.7241  0.6782
   65MOL0    Cl 8492  11.851   1.984   7.548  0.4873 -0.3825  0.2167
   65MOL0     C 8493  11.547   2.971   6.964  0.2178 -0.4166 -0.6756
   65MOL0     C 8494  11.483   3.079   6.904 -0.4764  0.5288  0.2085
   65MOL0     O 8495  11.163   3.122   6.861  0.2176 -0.2129  0.5890
   65MOL0     C 8496  10.996   3.258   6.662  0.6971 -0.6971 -0.5047
   65MOL0     C 8497  10.919   3.347   6.592 -0.0218 -0.1153  0.4522
   65MOL0     N 8498  10.860   3.434   5.873  0.2298  0.0430 -0.9455
   65MOL0     N 8499  10.769   3.405   5.777 -1.1516  0.0120 -0.2705
   65MOL0     C 8500  10.797   3.692   4.834 -0.1983 -0.4306 -0.7104
   65MOL0     C 8501  10.858   3.643   4.724  0.4246  0.4152  0.5187
   65MOL0     C 8502  11.075   3.702   4.291  0.3957 -0.0470  0.7103
   65MOL0     C 8503  11.178   3.610   4.310 -0.7542 -0.5776 -1.2566
   65MOL0     C 8504  11.290   3.599   4.225 -0.1314  0.6436 -1.2519
   65MOL0     C 8505  11.293   3.690   4.118 -0.7942  0.2890  0.1684
   65MOL0     O 8506  11.398   3.694   4.022 -0.4019  0.1618  0.2887
   65MOL0     C 8507  11.518   3.607   4.049  1.2332  0.2159 -0.7772
   65MOL0     C 8508  11.635   3.642   3.963 -0.4295  0.2493  0.5334
   65MOL0     C 8509  11.653   3.787   3.933  1.0653  0.0988  0.7982
   65MOL0     C 8510  11.742   3.806   3.809  1.0527 -0.0610  0.0218
   65MOL0     C 8511  11.887   3.835   3.844  0.8074  0.1416 -0.4130
   65MOL0     C 8512  11.995   3.870   3.877  0.0517 -0.0750 -0.0650
   65MOL0     C 8513  11.186   3.766   4.082  0.8557 -0.5488  0.1032
   65MOL0     C 8514  11.078   3.774   4.167  0.1170  0.0658 -0.7944
   65MOL0     H 8515  10.995   3.925   4.609  1.4568 -1.8145 -0.2779
   65MOL0     H 8516  10.891   4.014   4.824  0.5670  0.1679 -0.3413
   65MOL0     H 8517  10.753   3.722   5.114  0.3199  0.9568 -1.3162
   65MOL0     H 8518  10.596   3.738   5.039  0.1623 -1.9626  1.2411
   65MOL0     H 8519  10.591   3.977   5.139  1.7450  0.7994 -0.4188
   65MOL0     H 8520  10.717   3.906   5.246 -0.2135 -0.9914  1.0550
   65MOL0     H 8521  10.465   3.761   5.196  0.9257  1.5975 -1.6349
   65MOL0     H 8522  10.459   3.902   5.305  2.0423  1.0829  0.4899
   65MOL0     H 8523  10.654   3.664   5.337 -0.8176 -0.0489  0.2438
   65MOL0     H 8524  10.648   3.804   5.437  0.8124 -0.2612 -1.7834
   65MOL0     H 8525  10.418   3.606   5.390 -1.6550  1.4013  1.1177
   65MOL0     H 8526  10.428   3.710   5.526 -0.2115 -1.3585 -0.1997
   65MOL0     H 8527  10.662   3.567   5.556  0.1006  1.4657 -1.0894
   65MOL0     H 8528  10.548   3.450   5.480 -0.9003  0.6387 -0.8041
   65MOL0     H 8529  10.484   3.620   5.723 -1.8717 -0.4551  0.5042
   65MOL0     H 8530  10.379   3.511   5.628 -0.3984  1.8349 -2.4541
   65MOL0     H 8531  10.546   3.327   5.693 -0.4199 -1.1779 -0.6378
   65MOL0     H 8532  10.439   3.399   5.819 -1.7172  2.5769 -0.9755
   65MOL0     H 8533  10.604   3.573   6.005  1.6538  2.5214  0.6520
   65MOL0     H 8534  10.919   3.650   6.056 -0.2927 -0.5736 -0.6388
   65MOL0     H 8535  10.930   3.487   6.130  2.8190  2.9994  1.4345
   65MOL0     H 8536  10.745   3.520   6.259  0.6220  2.4848  4.6025
   65MOL0     H 8537  10.683   3.665   6.175 -0.5517  0.2846  2.0449
   65MOL0     H 8538  10.876   3.805   6.260 -0.3644  0.3800  0.8464
   65MOL0     H 8539  10.762   3.741   6.374  1.2220  1.3453  0.3868
   65MOL0     H 8540  11.016   3.712   6.444 -1.0260  0.9477 -0.4854
   65MOL0     H 8541  11.024   3.615   6.297  2.5988  2.9867  0.5788
   65MOL0     H 8542  11.181   3.529   6.478  0.2510 -0.6380 -2.1262
   65MOL0     H 8543  11.305   3.368   6.601  0.0236 -1.9275  0.8396
   65MOL0     H 8544  11.333   2.900   6.646 -0.6923 -2.6364  1.4030
   65MOL0     H 8545  11.451   2.717   6.755 -1.3802 -0.8049 -1.2101
   65MOL0     H 8546  11.506   2.788   7.163  1.7677  0.7895  2.6410
   65MOL0     H 8547  11.690   2.765   7.128  1.5099 -3.6114 -0.3267
   65MOL0     H 8548  11.505   2.544   7.142  1.0321 -0.3749 -2.2538
   65MOL0     H 8549  11.607   2.602   7.279  0.4461 -1.3905 -0.3588
   65MOL0     H 8550  11.810   2.562   7.140 -0.4658  1.2728 -1.3817
   65MOL0     H 8551  11.701   2.509   7.003 -1.6100  0.7723  0.0203
   65MOL0     H 8552  11.761   2.398   7.279 -1.6872 -0.3830  1.4581
   65MOL0     H 8553  11.607   2.351   7.200  1.0255  1.2995  3.4856
   65MOL0     H 8554  11.888   2.296   7.099  1.1424 -3.0029 -1.6626
   65MOL0     H 8555  11.750   2.267   7.000 -3.6559 -1.9492  0.4946
   65MOL0     H 8556  11.826   2.058   7.126 -2.7080 -1.9574 -0.2533
   65MOL0     H 8557  11.666   2.096   7.166  1.8847 -3.2596 -1.2115
   65MOL0     H 8558  11.921   2.170   7.330  0.5587 -0.0408  0.5639
   65MOL0     H 8559  11.762   2.200   7.395 -1.1066 -2.1720  1.9958
   65MOL0     H 8560  11.919   1.956   7.326  1.5304  2.9354  1.6360
   65MOL0     H 8561  11.736   1.934   7.352 -0.6543  1.3292  2.1927
   65MOL0     H 8562  11.616   2.996   7.044  1.2224  0.5774 -1.8178
   65MOL0     H 8563  11.488   3.180   6.945 -2.5483  0.9055 -0.3698
   65MOL0     H 8564  10.941   3.181   6.715 -0.8637  2.2355  2.5595
   65MOL0     H 8565  10.813   3.329   6.583  0.2142 -0.8317 -1.0589
   65MOL0     H 8566  10.735   3.624   4.892 -0.1853 -1.3543 -1.7423
   65MOL0     H 8567  10.844   3.539   4.696 -2.0648  0.6296  0.7506
   65MOL0     H 8568  11.175   3.554   4.403 -4.2700  0.6622 -0.4643
   65MOL0     H 8569  11.371   3.537   4.263 -0.0227  2.1863  1.3143
   65MOL0     H 8570  11.480   3.506   4.027  0.4148  0.7753 -2.0997
   65MOL0     H 8571  11.549   3.615   4.154  1.3736  0.0542 -0.8057
   65MOL0     H 8572  11.730   3.602   4.001  0.5603 -0.0659 -2.0638
   65MOL0     H 8573  11.617   3.597   3.865 -0.0104  1.2730 -0.0283
   65MOL0     H 8574  11.690   3.835   4.024  0.4694  2.5210 -0.1707
   65MOL0     H 8575  11.555   3.831   3.919 -0.2937 -2.2717  2.1252
   65MOL0     H 8576  11.731   3.723   3.738 -0.4914 -2.1962  2.5783
   65MOL0     H 8577  11.713   3.900   3.762  2.4677 -0.0666 -0.9365
   65MOL0     H 8578  12.086   3.899   3.926 -1.5238 -1.2477  4.0363
   65MOL0     H 8579  11.177   3.834   3.998 -2.4578  1.5441  1.9437
   65MOL0     H 8580  10.991   3.832   4.139 -1.7236 -2.6897 -1.2324
   66MOL0     O 8581   2.615  10.443   2.271 -0.0772 -0.4203 -0.1403
   66MOL0     C 8582   2.683  10.374   2.197 -0.2215  0.0166 -0.1490
   66MOL0     O 8583   2.634  10.287   2.101  0.3603 -0.5586 -0.0936
   66MOL0     C 8584   2.501  10.246   2.112  0.4218 -0.4160 -0.7862
   66MOL0     C 8585   2.404  10.262   2.009  0.1729 -0.9853 -0.8070
   66MOL0     C 8586   2.272  10.203   2.026 -0.6941 -0.7353  0.0859
   66MOL0     C 8587   2.240  10.128   2.138  0.6311  0.1219  0.2556
   66MOL0     O 8588   2.129  10.053   2.138 -1.1671 -0.5524  0.8725
   66MOL0     C 8589   2.015  10.078   2.054 -0.6055  0.1829 -0.2940
   66MOL0     C 8590   1.955  10.215   2.090 -0.3609  0.1306  0.4634
   66MOL0     C 8591   1.824  10.227   2.018  0.8366 -0.3223 -0.3471
   66MOL0     C 8592   1.835  10.207   1.868  0.1192  0.4545  0.1419
   66MOL0     C 8593   1.703  10.225   1.774 -0.6272  0.0663 -0.2219
   66MOL0     C 8594   1.591  10.132   1.826 -0.1061 -0.3611  0.2894
   66MOL0     C 8595   1.451  10.132   1.766 -0.0597 -0.1758  0.0425
   66MOL0     C 8596   1.450  10.130   1.619  0.2011  0.8452 -0.1007
   66MOL0     N 8597   1.314  10.106   1.570 -0.2167 -0.6304 -0.4045
   66MOL0     C 8598   1.245   9.993   1.592 -1.3077  0.7503 -0.4703
   66MOL0     C 8599   1.135  10.011   1.516 -1.2001 -0.0221 -0.2680
   66MOL0     C 8600   1.034   9.900   1.500  0.2215  0.5185 -0.0352
   66MOL0     C 8601   1.072   9.767   1.443 -0.7063 -0.1623 -0.1443
   66MOL0     C 8602   0.966   9.673   1.392 -0.2422  0.8092  0.7418
   66MOL0     C 8603   0.839   9.654   1.477 -0.5944 -0.3395  0.7507
   66MOL0     O 8604   0.719   9.711   1.413 -0.0579  0.2265  0.1706
   66MOL0     C 8605   0.629   9.629   1.352 -0.2256 -0.5146 -0.5108
   66MOL0     C 8606   0.664   9.523   1.273  0.6702 -0.5709 -0.5167
   66MOL0     C 8607   0.574   9.451   1.206  0.0040  0.5587 -0.0651
   66MOL0     C 8608   0.439   9.472   1.219 -0.3747 -0.0364 -0.6235
   66MOL0     C 8609   0.354   9.372   1.156  0.2310  0.8656  0.7497
   66MOL0     O 8610   0.242   9.342   1.228 -0.2177  0.2368  0.5400
   66MOL0     C 8611   0.135   9.273   1.185  0.5015  0.8519 -0.7190
   66MOL0     C 8612   0.077   9.173   1.259  0.3027 -0.6095 -0.3385
   66MOL0     C 8613  -0.037   9.099   1.214 -0.7752 -0.5085  0.6690
   66MOL0     C 8614  -0.079   9.110   1.080  0.4376  1.3345  0.3527
   66MOL0     O 8615  -0.177   9.038   1.020 -0.0114  0.4085  0.1006
   66MOL0     C 8616  -0.141   8.895   1.028 -0.1167  0.6883  0.6092
   66MOL0     C 8617  -0.246   8.829   1.102 -0.0721  0.9912  0.0479
   66MOL0     C 8618  -0.376   8.806   1.011  0.4091  0.4381  0.5405
   66MOL0     C 8619  -0.337   8.716   0.883  0.3274 -1.1913 -0.6853
   66MOL0     C 8620  -0.454   8.652   0.806  1.0490  0.6591 -0.3022
   66MOL0     C 8621  -0.532   8.555   0.885  0.0584 -0.8090  0.1448
   66MOL0     C 8622  -0.686   8.558   0.860  0.5563 -0.2739  0.0445
   66MOL0     C 8623  -0.771   8.478   0.957 -0.8458  0.7857  0.1866
   66MOL0    Cl 8624  -0.722   8.301   0.954  0.2444 -0.3391  0.4220
   66MOL0     C 8625  -0.017   9.207   1.006 -0.1724 -0.3303  0.4931
   66MOL0     C 8626   0.079   9.295   1.062  0.8630  0.1374  0.4948
   66MOL0     O 8627   0.377   9.341   1.040  0.3594 -1.6199 -0.0129
   66MOL0     C 8628   0.390   9.567   1.318 -1.0296 -0.8160 -0.3684
   66MOL0     C 8629   0.493   9.642   1.385 -0.1800  0.3103  0.2998
   66MOL0     N 8630   1.143  10.143   1.461 -0.3862  0.7309  0.0201
   66MOL0     N 8631   1.243  10.201   1.504 -0.4011  0.7630 -0.6845
   66MOL0     C 8632   2.330  10.113   2.239  0.6126  0.8158  0.1200
   66MOL0     C 8633   2.460  10.168   2.228  0.1921 -0.3031  0.9518
   66MOL0     C 8634   2.819  10.412   2.184 -0.4174 -0.9672 -0.2928
   66MOL0     C 8635   2.880  10.425   2.062 -0.1331  0.3147  0.1536
   66MOL0     C 8636   3.013  10.463   2.053 -0.2879  0.4863  0.7365
   66MOL0     C 8637   3.090  10.495   2.164  0.1019 -0.4366 -0.0142
   66MOL0     O 8638   3.215  10.532   2.135  0.9884 -0.3457  0.7131
   66MOL0     C 8639   3.318  10.517   2.235  1.1408  0.1327  0.2138
   66MOL0     C 8640   3.466  10.549   2.182  0.0553  0.1095 -0.7913
   66MOL0     C 8641   3.503  10.461   2.058  0.1734 -0.4004  0.1357
   66MOL0     C 8642   3.604  10.544   1.968  0.5393  1.0062  1.1223
   66MOL0     C 8643   3.532  10.657   1.910  0.0709  0.2132  0.1555
   66MOL0     C 8644   3.473  10.738   1.852 -0.4610 -1.0330  1.0726
   66MOL0     C 8645   3.028  10.490   2.287 -0.7295 -0.2136  0.7563
   66MOL0     C 8646   2.896  10.443   2.300 -0.0585 -0.2904  0.4608
   66MOL0     H 8647   2.408  10.326   1.921  0.7873  1.2502  0.7588
   66MOL0     H 8648   2.205  10.235   1.947  0.6125  1.1098 -0.3347
   66MOL0     H 8649   1.942  10.001   2.079  1.0581  0.1517  6.2270
   66MOL0     H 8650   2.049  10.077   1.950 -0.8557  1.7734 -0.4173
   66MOL0     H 8651   2.021  10.295   2.054  1.2968 -0.2344  2.5261
   66MOL0     H 8652   1.952  10.230   2.198 -0.0242 -0.7880  0.6129
   66MOL0     H 8653   1.790  10.329   2.038  1.0538 -0.2466 -0.3602
   66MOL0     H 8654   1.749  10.172   2.074 -1.8459  1.6676 -1.7562
   66MOL0     H 8655   1.911  10.261   1.812 -2.3574  0.2604 -3.8059
   66MOL0     H 8656   1.854  10.099   1.860 -5.2439 -0.9041  1.5006
   66MOL0     H 8657   1.736  10.193   1.674 -1.7778 -3.0184  0.2818
   66MOL0     H 8658   1.668  10.328   1.772 -1.5074 -0.2358 -1.5850
   66MOL0     H 8659   1.570  10.148   1.932  1.5892 -1.4566  0.8377
   66MOL0     H 8660   1.622  10.027   1.821 -4.4088 -1.7757 -0.1786
   66MOL0     H 8661   1.392  10.044   1.793  0.2027  0.1042  1.6769
   66MOL0     H 8662   1.405  10.219   1.814 -1.3039 -1.0694  0.5285
   66MOL0     H 8663   1.511  10.052   1.574 -1.3984  0.0881 -1.0610
   66MOL0     H 8664   1.497  10.225   1.592 -0.3385  1.3958  0.8183
   66MOL0     H 8665   1.276   9.904   1.647 -2.2771  0.2983 -0.6273
   66MOL0     H 8666   0.955   9.936   1.434  2.0402  1.8579 -1.5747
   66MOL0     H 8667   0.986   9.894   1.599 -2.3452  4.2255 -0.8498
   66MOL0     H 8668   1.121   9.710   1.522  1.2682  0.5800 -0.7839
   66MOL0     H 8669   1.141   9.774   1.360  1.2900 -0.2770  1.4300
   66MOL0     H 8670   0.938   9.707   1.292  1.6378  0.7282  0.1531
   66MOL0     H 8671   1.018   9.578   1.377  2.0740  2.3703 -2.1701
   66MOL0     H 8672   0.842   9.709   1.571 -4.0509 -0.1948  0.9303
   66MOL0     H 8673   0.824   9.549   1.504 -0.0832 -0.1751  1.6976
   66MOL0     H 8674   0.762   9.508   1.230 -0.4595 -2.0294 -2.8284
   66MOL0     H 8675   0.610   9.372   1.141  0.5415 -0.0189  0.9148
   66MOL0     H 8676   0.113   9.155   1.359  0.0960 -0.1851 -0.1824
   66MOL0     H 8677  -0.076   9.035   1.293  2.8176  2.1884  5.1797
   66MOL0     H 8678  -0.049   8.881   1.085  0.9636 -0.4297 -1.3088
   66MOL0     H 8679  -0.117   8.847   0.933  1.5433  2.3956  0.1107
   66MOL0     H 8680  -0.290   8.889   1.182  0.9169  1.6704  0.0970
   66MOL0     H 8681  -0.204   8.736   1.140  1.9975  0.4734 -3.1380
   66MOL0     H 8682  -0.419   8.903   0.984 -1.4026 -0.3244  0.5526
   66MOL0     H 8683  -0.449   8.756   1.075  1.6332 -4.1796 -1.2403
   66MOL0     H 8684  -0.291   8.796   0.824 -1.7438  1.2434  0.7766
   66MOL0     H 8685  -0.260   8.641   0.905  0.8969 -1.4615 -3.3214
   66MOL0     H 8686  -0.421   8.612   0.709  1.4142  1.4515 -0.5066
   66MOL0     H 8687  -0.526   8.733   0.798 -1.2932 -1.0290  2.0420
   66MOL0     H 8688  -0.514   8.569   0.992  0.8451 -0.5275 -0.0164
   66MOL0     H 8689  -0.497   8.456   0.856  0.5664 -0.1365 -1.7123
   66MOL0     H 8690  -0.717   8.663   0.857  1.4238  0.1595  3.0859
   66MOL0     H 8691  -0.695   8.518   0.758  2.8773  2.3158 -1.3153
   66MOL0     H 8692  -0.876   8.477   0.929 -0.3460 -2.0035 -2.0930
   66MOL0     H 8693  -0.761   8.515   1.059  1.6336 -3.5650  1.7986
   66MOL0     H 8694  -0.050   9.218   0.903 -0.2224 -0.7954  0.4611
   66MOL0     H 8695   0.119   9.376   1.001  2.1762 -2.0930 -1.7798
   66MOL0     H 8696   0.285   9.576   1.346 -0.3100  0.7990  2.1583
   66MOL0     H 8697   0.464   9.713   1.462  0.0954  0.9115 -0.1436
   66MOL0     H 8698   2.311  10.042   2.319 -0.8951 -0.7642 -1.5378
   66MOL0     H 8699   2.533  10.156   2.307 -0.7279  0.1181  1.8800
   66MOL0     H 8700   2.833  10.398   1.969  0.8238  2.0885 -0.8912
   66MOL0     H 8701   3.065  10.454   1.958 -2.3828 -3.7843 -0.2569
   66MOL0     H 8702   3.309  10.410   2.258  2.3506 -0.8775 -3.3187
   66MOL0     H 8703   3.296  10.585   2.317 -1.2645 -0.7460  0.3806
   66MOL0     H 8704   3.485  10.654   2.160 -1.5692  0.0138 -3.1012
   66MOL0     H 8705   3.526  10.533   2.271 -1.3990 -2.2590 -0.1567
   66MOL0     H 8706   3.417  10.413   2.011 -1.1596  1.0753  0.9621
   66MOL0     H 8707   3.562  10.378   2.096 -3.2149 -4.1263 -1.9471
   66MOL0     H 8708   3.695  10.563   2.025  2.5414 -3.0396 -0.3816
   66MOL0     H 8709   3.643  10.475   1.893 -3.0402 -2.9263  2.4646
   66MOL0     H 8710   3.420  10.810   1.792  1.6163 -1.3459 -1.3500
   66MOL0     H 8711   3.094  10.526   2.366  0.0360  1.9298 -0.7943
   66MOL0     H 8712   2.848  10.444   2.397  3.2061  0.7596  2.2234
   67MOL0     O 8713   9.695   8.527   8.246  0.5968 -0.1826 -0.0520
   67MOL0     C 8714   9.602   8.598   8.233  1.4370 -0.9669 -1.6598
   67MOL0     O 8715   9.585   8.727   8.289 -0.1430  0.1833  0.3325
   67MOL0     C 8716   9.692   8.798   8.333 -0.6441 -0.6188  0.0881
   67MOL0     C 8717   9.672   8.937   8.349  0.7544  0.5577 -1.7636
   67MOL0     C 8718   9.762   9.041   8.386  0.6721  0.4809 -0.3769
   67MOL0     C 8719   9.894   8.999   8.398 -0.3182  0.2923  1.0703
   67MOL0     O 8720   9.995   9.082   8.437 -0.2402 -0.0871  0.4177
   67MOL0     C 8721   9.971   9.222   8.475  0.3396  0.6804  0.0806
   67MOL0     C 8722  10.100   9.282   8.525  0.1494 -0.7668  0.0704
   67MOL0     C 8723  10.096   9.438   8.553 -1.0381 -0.5149  2.0982
   67MOL0     C 8724  10.074   9.527   8.434 -0.0698  0.3170 -0.6489
   67MOL0     C 8725  10.179   9.499   8.319 -0.6389 -0.1218  0.5172
   67MOL0     C 8726  10.166   9.605   8.211  0.7666 -0.4768  1.1538
   67MOL0     C 8727  10.262   9.578   8.093 -0.9880  0.0042 -0.0741
   67MOL0     C 8728  10.409   9.623   8.126  0.1784 -0.2021  0.2722
   67MOL0     N 8729  10.486   9.624   8.000  0.0191  0.0369 -0.3146
   67MOL0     C 8730  10.547   9.513   7.944  0.2732  0.4170 -0.2513
   67MOL0     C 8731  10.644   9.571   7.877  0.5157 -0.8644 -0.5358
   67MOL0     C 8732  10.755   9.495   7.816 -0.3760  0.3290 -0.2731
   67MOL0     C 8733  10.851   9.417   7.900 -1.1401  0.1314 -0.4566
   67MOL0     C 8734  10.908   9.492   8.017  0.0743 -1.0853  0.0463
   67MOL0     C 8735  11.025   9.431   8.077 -0.2519  1.0201  0.0168
   67MOL0     O 8736  11.104   9.512   8.148 -0.4446  0.0385 -0.1094
   67MOL0     C 8737  11.063   9.567   8.268 -0.5693 -1.1126 -0.3377
   67MOL0     C 8738  10.956   9.525   8.343 -1.3749  0.1239 -0.5129
   67MOL0     C 8739  10.925   9.585   8.471  0.3213 -1.3614 -0.0035
   67MOL0     C 8740  11.000   9.681   8.532  0.2508 -0.0631  0.7302
   67MOL0     C 8741  10.987   9.741   8.655 -0.7259  0.0764  0.4150
   67MOL0     O 8742  10.874   9.718   8.726 -0.4700 -0.7022  0.4107
   67MOL0     C 8743  10.855   9.747   8.857 -0.6034  0.7193  0.0085
   67MOL0     C 8744  10.912   9.862   8.918 -0.9185  0.4042  0.4243
   67MOL0     C 8745  10.866   9.898   9.049  0.6498  0.5359 -0.5378
   67MOL0     C 8746  10.769   9.821   9.110  0.2983 -0.9500 -0.0618
   67MOL0     O 8747  10.717   9.872   9.223 -0.1306 -0.1227 -1.5023
   67MOL0     C 8748  10.796   9.857   9.343 -0.5797 -0.1499  0.0094
   67MOL0     C 8749  10.717   9.815   9.469 -0.2083 -0.1842  0.5150
   67MOL0     C 8750  10.794   9.812   9.598 -0.0446 -0.0820 -0.6178
   67MOL0     C 8751  10.700   9.803   9.724 -1.1455 -0.1298 -0.0649
   67MOL0     C 8752  10.759   9.866   9.843 -1.3424 -0.8088  0.4384
   67MOL0     C 8753  10.689   9.816   9.972 -0.3289  0.8346  0.5823
   67MOL0     C 8754  10.727   9.894  10.108  0.7143  0.5919 -0.5086
   67MOL0     C 8755  10.649   9.828  10.218 -0.3005 -0.5321 -0.1557
   67MOL0    Cl 8756  10.665   9.933  10.368 -0.2078  0.0279  0.2974
   67MOL0     C 8757  10.721   9.702   9.055  0.2903 -0.8047  1.0023
   67MOL0     C 8758  10.761   9.670   8.919 -1.1293 -0.4408  0.9977
   67MOL0     O 8759  11.083   9.807   8.702 -1.0707  0.6500  0.0775
   67MOL0     C 8760  11.103   9.734   8.445  0.1532 -0.3593 -0.0962
   67MOL0     C 8761  11.140   9.676   8.327 -0.3035 -0.0028  1.4390
   67MOL0     N 8762  10.622   9.710   7.860 -0.0537  0.5703 -0.1313
   67MOL0     N 8763  10.534   9.734   7.944  0.9835 -0.1501 -0.0208
   67MOL0     C 8764   9.930   8.860   8.385  0.0064 -0.3508 -0.4146
   67MOL0     C 8765   9.822   8.762   8.362 -0.2882 -0.3016  0.7849
   67MOL0     C 8766   9.501   8.538   8.149 -0.4667 -0.5914 -0.0222
   67MOL0     C 8767   9.392   8.614   8.111  0.8734  0.1925  0.6773
   67MOL0     C 8768   9.305   8.577   8.003 -0.2432  1.2022  0.6858
   67MOL0     C 8769   9.338   8.454   7.934 -1.1464 -0.1244  0.8929
   67MOL0     O 8770   9.272   8.407   7.827 -0.2673  0.2913  0.2538
   67MOL0     C 8771   9.181   8.485   7.757  0.3289  0.1511 -0.9987
   67MOL0     C 8772   9.156   8.409   7.634  0.2690 -0.3379  0.7972
   67MOL0     C 8773   9.055   8.481   7.539 -0.0416 -0.5208  0.3728
   67MOL0     C 8774   9.030   8.411   7.396  0.2626 -0.0948 -1.0295
   67MOL0     C 8775   8.969   8.276   7.416  0.1842 -0.4505  0.2206
   67MOL0     C 8776   8.926   8.173   7.448 -0.6205  0.1977 -0.3443
   67MOL0     C 8777   9.450   8.373   7.970 -0.3318 -1.2478 -0.0841
   67MOL0     C 8778   9.530   8.418   8.079 -0.1398  0.0584  0.0891
   67MOL0     H 8779   9.567   8.965   8.348  0.9880  2.0437  1.6645
   67MOL0     H 8780   9.728   9.142   8.407  1.3462  1.1786 -2.3601
   67MOL0     H 8781   9.895   9.228   8.553  1.5693 -0.3384  1.4077
   67MOL0     H 8782   9.932   9.280   8.391 -1.7523 -0.7249 -0.0028
   67MOL0     H 8783  10.188   9.257   8.466 -0.4507  1.4877 -1.9641
   67MOL0     H 8784  10.112   9.237   8.624 -0.6450 -1.5958 -0.1931
   67MOL0     H 8785  10.183   9.468   8.612 -1.2311  0.5794  1.8595
   67MOL0     H 8786  10.012   9.456   8.621 -2.3657  0.9286  0.1799
   67MOL0     H 8787   9.973   9.512   8.397 -0.0608  0.4015 -0.7119
   67MOL0     H 8788  10.060   9.629   8.473 -2.9151 -0.1859 -0.1662
   67MOL0     H 8789  10.157   9.400   8.277 -1.1847  0.8947 -1.7465
   67MOL0     H 8790  10.276   9.504   8.368 -0.8899  0.1837  0.9876
   67MOL0     H 8791  10.199   9.706   8.237  2.1862  0.0990 -2.3840
   67MOL0     H 8792  10.063   9.614   8.178  1.3116 -3.4989 -1.9352
   67MOL0     H 8793  10.262   9.480   8.046 -0.7169  1.1527 -2.6432
   67MOL0     H 8794  10.232   9.641   8.009  2.5038  1.4073 -0.4236
   67MOL0     H 8795  10.456   9.555   8.197  1.3070  0.3224  0.0588
   67MOL0     H 8796  10.421   9.721   8.172 -3.5334 -0.3302  1.8354
   67MOL0     H 8797  10.538   9.407   7.964 -0.2434  0.2062 -1.5458
   67MOL0     H 8798  10.816   9.563   7.757 -1.1618  2.1765  0.9378
   67MOL0     H 8799  10.705   9.423   7.751 -0.6780  0.8197 -0.5917
   67MOL0     H 8800  10.926   9.360   7.844 -1.4725 -1.2387  0.4117
   67MOL0     H 8801  10.784   9.342   7.942  0.0731 -0.5081  0.4239
   67MOL0     H 8802  10.941   9.592   7.987  0.4450 -1.1199  0.3206
   67MOL0     H 8803  10.831   9.506   8.094  0.9860 -0.7635  0.9231
   67MOL0     H 8804  11.077   9.399   7.987 -0.3343  0.2245  0.2431
   67MOL0     H 8805  11.012   9.344   8.141 -0.1737  2.6513  2.3933
   67MOL0     H 8806  10.896   9.443   8.305  0.7395 -0.3647 -3.0975
   67MOL0     H 8807  10.844   9.541   8.527  0.9711  1.0254  3.0643
   67MOL0     H 8808  10.989   9.925   8.875 -1.2234  0.2623 -0.3392
   67MOL0     H 8809  10.917   9.976   9.105 -0.3698 -0.5212  1.9962
   67MOL0     H 8810  10.835   9.958   9.361 -1.9469  0.1715  1.3194
   67MOL0     H 8811  10.885   9.794   9.328 -0.5159  0.3011 -1.7821
   67MOL0     H 8812  10.689   9.713   9.439  2.3026 -0.0146 -2.9671
   67MOL0     H 8813  10.626   9.875   9.477 -0.8430 -1.1420  0.6695
   67MOL0     H 8814  10.851   9.905   9.601  0.7491 -0.5570  2.3254
   67MOL0     H 8815  10.863   9.727   9.597 -1.3050 -1.3326  2.6224
   67MOL0     H 8816  10.607   9.858   9.705 -1.1550  1.2056  3.1687
   67MOL0     H 8817  10.681   9.698   9.750 -3.5361  0.9718  3.2894
   67MOL0     H 8818  10.738   9.973   9.830  0.6239 -0.1284  2.1936
   67MOL0     H 8819  10.868   9.869   9.854 -1.3096  0.4700 -0.0680
   67MOL0     H 8820  10.707   9.708   9.975 -2.1242  0.2611 -3.3699
   67MOL0     H 8821  10.582   9.830   9.951 -0.0512  0.9391 -0.8454
   67MOL0     H 8822  10.834   9.884  10.130  0.8504  3.2693  0.4531
   67MOL0     H 8823  10.701  10.001  10.106 -1.8345  0.0853  1.1633
   67MOL0     H 8824  10.694   9.730  10.237  4.3616  1.3460 -0.1484
   67MOL0     H 8825  10.542   9.822  10.196  0.0888  0.5890 -2.7583
   67MOL0     H 8826  10.644   9.653   9.115  0.5358  0.2763  2.2445
   67MOL0     H 8827  10.727   9.580   8.870 -1.6329  1.0653 -1.6258
   67MOL0     H 8828  11.173   9.808   8.481  1.6447 -0.2946 -2.8493
   67MOL0     H 8829  11.222   9.713   8.266 -0.8309 -2.3171 -0.8432
   67MOL0     H 8830  10.028   8.814   8.396  0.5568  0.7063 -0.6583
   67MOL0     H 8831   9.854   8.658   8.367 -1.5477 -0.7547  0.0416
   67MOL0     H 8832   9.378   8.711   8.158 -0.2511 -0.4766  1.7907
   67MOL0     H 8833   9.234   8.644   7.958  1.1841  1.4896 -1.2468
   67MOL0     H 8834   9.224   8.579   7.721 -0.0946  0.3789 -0.9216
   67MOL0     H 8835   9.091   8.506   7.816 -0.4834  1.2628 -2.5797
   67MOL0     H 8836   9.250   8.402   7.578 -0.0039 -3.7339  0.5918
   67MOL0     H 8837   9.125   8.305   7.643 -1.5778  0.1609  0.5729
   67MOL0     H 8838   9.081   8.584   7.514 -2.0037 -1.0025 -4.9657
   67MOL0     H 8839   8.957   8.491   7.586 -1.2468  0.1957 -2.1120
   67MOL0     H 8840   8.965   8.473   7.334  1.6113  2.6275  0.1105
   67MOL0     H 8841   9.127   8.397   7.346  0.0341  1.5390 -2.0113
   67MOL0     H 8842   8.887   8.087   7.499 -0.4416  1.2396  1.6606
   67MOL0     H 8843   9.480   8.291   7.905  0.1870 -0.4276 -0.9150
   67MOL0     H 8844   9.619   8.361   8.105  0.2582  0.1135 -1.0833
   68MOL0     O 8845   0.382   9.264   9.906  0.4659 -0.6474  0.2375
   68MOL0     C 8846   0.489   9.327   9.930 -0.4383 -0.3814  1.0554
   68MOL0     O 8847   0.500   9.457   9.980  0.6794 -0.5455  0.0198
   68MOL0     C 8848   0.388   9.532  10.013  0.7540  0.9140  0.5839
   68MOL0     C 8849   0.274   9.484  10.086  0.2252  0.0277 -0.9524
   68MOL0     C 8850   0.169   9.578  10.113  0.8000 -0.5437  0.0320
   68MOL0     C 8851   0.160   9.713  10.066 -1.1027 -0.4604  0.4503
   68MOL0     O 8852   0.059   9.792  10.112  0.6053  0.5788  0.2559
   68MOL0     C 8853   0.041   9.799  10.251 -0.9050 -0.5603 -0.0017
   68MOL0     C 8854  -0.081   9.876  10.287 -0.0164 -0.2663 -0.2739
   68MOL0     C 8855  -0.106   9.883  10.437 -0.3441 -0.5796 -0.8164
   68MOL0     C 8856  -0.022  10.000  10.498  0.1926  0.0034 -0.3972
   68MOL0     C 8857  -0.039  10.001  10.649  0.6459 -0.3182 -0.5522
   68MOL0     C 8858   0.075  10.074  10.727  0.3552 -0.6128  0.5831
   68MOL0     C 8859   0.198   9.992  10.748 -0.0399  0.1850  1.1544
   68MOL0     C 8860   0.309  10.045  10.833 -0.0305  0.6619 -0.9853
   68MOL0     N 8861   0.437  10.031  10.764 -0.4916 -0.4025  0.0265
   68MOL0     C 8862   0.530   9.930  10.803  0.4639 -0.3226  0.8605
   68MOL0     C 8863   0.638   9.953  10.723 -0.2456 -0.5130  0.1538
   68MOL0     C 8864   0.762   9.861  10.717 -0.0551  0.5169  0.4127
   68MOL0     C 8865   0.863   9.915  10.612 -0.0515 -0.1115  0.1729
   68MOL0     C 8866   0.999   9.856  10.661  0.9411 -0.4114 -0.4698
   68MOL0     C 8867   1.107   9.862  10.552 -0.1976 -0.4604  0.1190
   68MOL0     O 8868   1.234   9.823  10.600  0.3466 -0.3833 -0.2098
   68MOL0     C 8869   1.339   9.800  10.511 -0.6546 -0.3332  1.0192
   68MOL0     C 8870   1.458   9.744  10.561  0.7924  0.3180  0.1102
   68MOL0     C 8871   1.569   9.720  10.477  0.0461 -0.1210 -0.0586
   68MOL0     C 8872   1.568   9.751  10.339 -0.9071  0.0955 -1.1192
   68MOL0     C 8873   1.680   9.739  10.246  0.4428 -0.6350 -0.2603
   68MOL0     O 8874   1.798   9.726  10.307 -0.9167  1.0632 -0.5845
   68MOL0     C 8875   1.912   9.720  10.235 -0.5589 -0.8360 -0.6082
   68MOL0     C 8876   1.934   9.639  10.128 -0.0452  1.4692  0.1190
   68MOL0     C 8877   2.042   9.633  10.045 -0.5316  0.0068  0.2407
   68MOL0     C 8878   2.141   9.730  10.070 -0.2367  0.2351 -0.2461
   68MOL0     O 8879   2.254   9.738   9.992  0.1609 -0.4085  0.2219
   68MOL0     C 8880   2.237   9.732   9.842  0.0432  0.2780  0.0267
   68MOL0     C 8881   2.375   9.708   9.775  0.7441  0.0560 -0.0539
   68MOL0     C 8882   2.481   9.788   9.836  0.1230 -0.2827 -0.3851
   68MOL0     C 8883   2.615   9.741   9.783  0.5930  0.1623  0.6362
   68MOL0     C 8884   2.731   9.815   9.855  0.2775  0.8550  0.5583
   68MOL0     C 8885   2.871   9.771   9.810 -0.1085 -0.0194  0.5004
   68MOL0     C 8886   2.922   9.643   9.898  0.5679  0.0191  0.1626
   68MOL0     C 8887   3.068   9.624   9.873 -0.3964  0.0364  0.8646
   68MOL0    Cl 8888   3.132   9.508   9.980  0.6580  0.2214 -0.0940
   68MOL0     C 8889   2.136   9.808  10.187 -0.2988 -0.4449  0.6392
   68MOL0     C 8890   2.021   9.809  10.265  0.1725 -0.2966  0.1080
   68MOL0     O 8891   1.660   9.756  10.124 -0.4242 -0.0779 -0.2381
   68MOL0     C 8892   1.446   9.794  10.286 -0.2199  0.8305 -0.7276
   68MOL0     C 8893   1.340   9.815  10.373  0.8409  0.3405  0.4419
   68MOL0     N 8894   0.613  10.057  10.635  0.3398 -0.2021 -0.8733
   68MOL0     N 8895   0.487  10.102  10.660  0.1270  0.4133 -0.9983
   68MOL0     C 8896   0.275   9.760   9.994  0.7311  0.7427  0.3129
   68MOL0     C 8897   0.381   9.666   9.974 -0.3424 -0.9446 -0.4885
   68MOL0     C 8898   0.622   9.265   9.885  0.1791 -0.1881 -0.9239
   68MOL0     C 8899   0.725   9.354   9.848  1.0766  0.2868  0.7527
   68MOL0     C 8900   0.847   9.292   9.834 -0.2788  0.1464  0.9957
   68MOL0     C 8901   0.876   9.159   9.869  0.3330 -0.5507  0.8942
   68MOL0     O 8902   1.007   9.123   9.851 -0.0749  0.0303 -0.6591
   68MOL0     C 8903   1.056   8.985   9.863  0.4934  0.3814  0.6272
   68MOL0     C 8904   1.121   8.966   9.998  0.0051  0.2410 -1.1454
   68MOL0     C 8905   1.221   8.842   9.989 -0.7943 -0.1911  0.3904
   68MOL0     C 8906   1.316   8.829  10.106  0.4650  0.5304  0.2249
   68MOL0     C 8907   1.419   8.729  10.066 -0.5903 -0.1129 -0.6039
   68MOL0     C 8908   1.509   8.648  10.039 -0.5135 -0.6247 -0.3577
   68MOL0     C 8909   0.762   9.078   9.891  0.1739 -0.4416  0.6697
   68MOL0     C 8910   0.636   9.131   9.894 -0.5054  0.3243 -0.1011
   68MOL0     H 8911   0.275   9.382  10.123 -1.9923  0.8848  1.8735
   68MOL0     H 8912   0.090   9.532  10.171  2.8142 -2.0932  1.6648
   68MOL0     H 8913   0.134   9.836  10.295 -1.4811  1.2179 -0.1844
   68MOL0     H 8914   0.025   9.696  10.284  3.2282 -1.1530  0.7001
   68MOL0     H 8915  -0.168   9.820  10.251 -0.9365  0.3043  1.0207
   68MOL0     H 8916  -0.086   9.975  10.242  2.0557 -1.3148 -3.1027
   68MOL0     H 8917  -0.071   9.788  10.480  2.0432 -1.1223 -3.5566
   68MOL0     H 8918  -0.213   9.898  10.448  0.1946  3.6789 -0.0149
   68MOL0     H 8919   0.084   9.985  10.477  1.1156 -0.2578  3.7112
   68MOL0     H 8920  -0.048  10.096  10.452 -0.4932 -1.6508 -3.8011
   68MOL0     H 8921  -0.049   9.897  10.681 -0.6277 -0.2500 -0.6652
   68MOL0     H 8922  -0.136  10.044  10.676 -0.5950 -3.9312  1.5705
   68MOL0     H 8923   0.033  10.112  10.820 -2.6483  1.3580 -1.4054
   68MOL0     H 8924   0.111  10.157  10.665  0.8646 -1.3710 -0.1586
   68MOL0     H 8925   0.160   9.896  10.784  0.7977 -1.7518 -2.6598
   68MOL0     H 8926   0.234   9.982  10.645 -0.8817  4.4428  0.2332
   68MOL0     H 8927   0.305  10.013  10.937  0.1819 -0.4095 -1.2995
   68MOL0     H 8928   0.309  10.155  10.839  1.5938  0.6606 -0.3487
   68MOL0     H 8929   0.520   9.854  10.880 -1.6460 -2.8487 -1.6991
   68MOL0     H 8930   0.750   9.759  10.680 -2.2012 -0.3528  3.1834
   68MOL0     H 8931   0.806   9.854  10.817  2.4653  1.2320 -0.5635
   68MOL0     H 8932   0.865  10.024  10.607 -0.2711 -0.1174 -0.1025
   68MOL0     H 8933   0.850   9.875  10.511 -0.9356 -3.1707  1.3772
   68MOL0     H 8934   1.027   9.917  10.748 -5.9989  3.0426  0.0357
   68MOL0     H 8935   0.986   9.750  10.685  1.4344 -0.5777 -0.9344
   68MOL0     H 8936   1.124   9.965  10.521  1.7430 -1.3171 -1.9322
   68MOL0     H 8937   1.071   9.809  10.463 -2.0820  1.2806 -0.2373
   68MOL0     H 8938   1.460   9.709  10.664 -1.5989 -0.3797 -0.0233
   68MOL0     H 8939   1.652   9.662  10.517 -0.3184 -0.8044 -0.3021
   68MOL0     H 8940   1.851   9.571  10.112  0.3661  0.0453  3.2428
   68MOL0     H 8941   2.046   9.567   9.959  1.8613 -1.7684  1.5929
   68MOL0     H 8942   2.185   9.823   9.809  0.0486  0.0432 -0.6362
   68MOL0     H 8943   2.181   9.639   9.829  0.0769  0.3987 -1.0096
   68MOL0     H 8944   2.354   9.730   9.670  1.4031 -2.5864 -0.8111
   68MOL0     H 8945   2.388   9.600   9.787  2.8525  0.3929  1.3477
   68MOL0     H 8946   2.487   9.777   9.945  1.4303 -0.4426 -0.4567
   68MOL0     H 8947   2.465   9.893   9.810  0.0547 -0.3690 -0.6934
   68MOL0     H 8948   2.634   9.634   9.796  1.3786 -0.1921 -2.4355
   68MOL0     H 8949   2.608   9.768   9.677  1.8717  2.6065  1.0880
   68MOL0     H 8950   2.718   9.823   9.963  0.6946  2.1266  0.5328
   68MOL0     H 8951   2.716   9.918   9.821  2.7918  0.7908 -1.0353
   68MOL0     H 8952   2.934   9.860   9.818 -1.5205  0.8748  2.7760
   68MOL0     H 8953   2.868   9.746   9.703 -0.5180  1.9584  0.0077
   68MOL0     H 8954   2.885   9.642  10.001 -0.0076  2.5219  0.0468
   68MOL0     H 8955   2.876   9.554   9.855  0.1036 -1.2012  2.9786
   68MOL0     H 8956   3.118   9.717   9.902  2.2407  0.1032 -3.2042
   68MOL0     H 8957   3.083   9.618   9.765 -1.5560 -0.4473  0.7187
   68MOL0     H 8958   2.217   9.878  10.209 -1.9296  1.3905  1.0866
   68MOL0     H 8959   2.009   9.889  10.337 -0.9187  1.2927 -1.7379
   68MOL0     H 8960   1.436   9.819  10.181 -1.7038  1.6554 -0.4248
   68MOL0     H 8961   1.250   9.848  10.323  0.1862 -0.0992  1.3091
   68MOL0     H 8962   0.275   9.861   9.954  1.6574  0.5143 -0.2997
   68MOL0     H 8963   0.464   9.706   9.917  1.0284 -2.5745  0.2667
   68MOL0     H 8964   0.724   9.460   9.825  0.2478  0.1196 -0.0312
   68MOL0     H 8965   0.940   9.340   9.806  0.7987 -1.0221  2.4059
   68MOL0     H 8966   1.120   8.956   9.779 -4.6106 -1.7656 -3.0423
   68MOL0     H 8967   0.979   8.907   9.856  2.3926 -1.5282 -0.3316
   68MOL0     H 8968   1.180   9.053  10.029 -3.0335  1.9839  0.1462
   68MOL0     H 8969   1.051   8.954  10.081 -1.5111  1.3262 -2.2035
   68MOL0     H 8970   1.277   8.846   9.895  0.2289  0.2396  1.0054
   68MOL0     H 8971   1.153   8.756   9.986 -1.5175  0.3749 -2.0015
   68MOL0     H 8972   1.360   8.926  10.131 -1.6978  1.5926  0.1318
   68MOL0     H 8973   1.258   8.803  10.195  2.6180  1.2595  1.9559
   68MOL0     H 8974   1.577   8.569  10.015  0.3931  0.5809 -1.9383
   68MOL0     H 8975   0.774   8.972   9.907  0.1551 -0.5585 -0.0577
   68MOL0     H 8976   0.558   9.056   9.906  0.3517 -0.3392  1.7391
   69MOL0     O 8977   0.576  11.210   7.034 -0.0911 -0.0487  1.4240
   69MOL0     C 8978   0.591  11.299   7.113  0.1007  0.9646  0.1252
   69MOL0     O 8979   0.496  11.377   7.162  0.4249  0.9016  0.6276
   69MOL0     C 8980   0.361  11.370   7.136  0.1592 -0.6118 -0.4329
   69MOL0     C 8981   0.295  11.493   7.140  0.4465  0.4758  0.8213
   69MOL0     C 8982   0.156  11.488   7.119 -0.5805  0.2516  1.0732
   69MOL0     C 8983   0.080  11.367   7.111  0.8868 -0.2494  0.0942
   69MOL0     O 8984  -0.056  11.374   7.096 -0.3417  0.4250  0.7906
   69MOL0     C 8985  -0.124  11.252   7.048  0.1336  0.3660  0.2231
   69MOL0     C 8986  -0.275  11.246   7.038  0.3306  0.9394 -0.5516
   69MOL0     C 8987  -0.345  11.289   7.159  0.0892  0.8946 -1.1354
   69MOL0     C 8988  -0.493  11.301   7.134 -0.3547  0.6704 -0.1104
   69MOL0     C 8989  -0.589  11.288   7.257 -0.1634 -0.4877  0.1824
   69MOL0     C 8990  -0.534  11.367   7.379 -0.0789  0.4765  0.1917
   69MOL0     C 8991  -0.610  11.345   7.505  0.5995 -0.1622 -0.2392
   69MOL0     C 8992  -0.722  11.445   7.497 -0.1043  0.0567 -0.7864
   69MOL0     N 8993  -0.809  11.420   7.618 -0.1289 -0.2235  0.6180
   69MOL0     C 8994  -0.933  11.357   7.627 -0.3175  0.9492 -1.0900
   69MOL0     C 8995  -0.974  11.371   7.758 -0.2003  0.6972  0.8425
   69MOL0     C 8996  -1.092  11.324   7.827 -0.0901 -0.0762 -0.1906
   69MOL0     C 8997  -1.061  11.194   7.900  0.0735  0.1561 -0.1516
   69MOL0     C 8998  -1.181  11.154   7.988 -0.8037  0.0839  1.0681
   69MOL0     C 8999  -1.320  11.184   7.940  0.2506  1.2445  0.0237
   69MOL0     O 9000  -1.386  11.108   8.045 -0.4655  0.7923  1.3820
   69MOL0     C 9001  -1.518  11.106   8.059 -0.3164  0.1698  0.6346
   69MOL0     C 9002  -1.592  11.200   8.135  0.6645 -0.7459  0.3356
   69MOL0     C 9003  -1.722  11.191   8.169 -0.1554  0.3513  0.0750
   69MOL0     C 9004  -1.790  11.072   8.150  0.3612 -0.5331 -0.0691
   69MOL0     C 9005  -1.922  11.048   8.209  0.0689 -0.6809  1.1610
   69MOL0     O 9006  -1.938  10.916   8.252  0.1001  0.1529 -1.0132
   69MOL0     C 9007  -2.068  10.889   8.289  0.5250  0.3117 -0.4566
   69MOL0     C 9008  -2.172  10.858   8.200 -1.5995 -0.9310 -0.0530
   69MOL0     C 9009  -2.303  10.831   8.232  0.2082 -0.2612 -0.4338
   69MOL0     C 9010  -2.343  10.841   8.373 -0.6345 -0.8350  0.7189
   69MOL0     O 9011  -2.475  10.822   8.409 -0.6000  0.7954 -0.4589
   69MOL0     C 9012  -2.522  10.922   8.496 -1.0009 -0.0287  0.2212
   69MOL0     C 9013  -2.677  10.916   8.476 -0.1920 -0.7897  0.4606
   69MOL0     C 9014  -2.731  11.017   8.380 -0.0195  0.2504  1.2541
   69MOL0     C 9015  -2.870  10.978   8.348 -0.1424  0.1876 -1.1212
   69MOL0     C 9016  -2.938  11.051   8.232 -0.0433  0.0116 -0.0422
   69MOL0     C 9017  -2.881  11.033   8.092  0.5060  0.0421 -0.0624
   69MOL0     C 9018  -2.972  11.090   7.986 -0.2924  0.1875  0.4963
   69MOL0     C 9019  -3.076  10.982   7.952  0.0355 -0.6314  0.1601
   69MOL0    Cl 9020  -3.194  11.056   7.853  0.2311  0.0185 -0.3815
   69MOL0     C 9021  -2.241  10.877   8.463 -0.5016 -0.9081 -0.1924
   69MOL0     C 9022  -2.105  10.891   8.422 -0.0961  0.1628 -0.0480
   69MOL0     O 9023  -2.001  11.143   8.229 -0.9065 -0.6448  0.1120
   69MOL0     C 9024  -1.727  10.973   8.069 -0.9276  1.0361  0.3515
   69MOL0     C 9025  -1.591  10.993   8.020  0.4421 -0.4822  0.1841
   69MOL0     N 9026  -0.876  11.451   7.822  0.1644 -0.9310  0.4372
   69MOL0     N 9027  -0.785  11.492   7.730  0.1636  0.0859 -0.0463
   69MOL0     C 9028   0.151  11.247   7.109 -0.6057 -0.6059  0.2168
   69MOL0     C 9029   0.292  11.248   7.112 -1.0493 -1.0186  0.8092
   69MOL0     C 9030   0.727  11.305   7.160 -0.2082  0.0031  0.4151
   69MOL0     C 9031   0.817  11.207   7.129  0.2690 -0.4088  0.4439
   69MOL0     C 9032   0.954  11.235   7.164 -0.1860  0.4726 -0.9328
   69MOL0     C 9033   0.993  11.334   7.248 -0.5075 -0.5734 -0.3795
   69MOL0     O 9034   1.121  11.348   7.281 -0.6414  0.2845  0.1696
   69MOL0     C 9035   1.187  11.453   7.220  0.2537 -1.1261 -0.4905
   69MOL0     C 9036   1.342  11.455   7.259 -0.1633  0.1737 -0.1237
   69MOL0     C 9037   1.419  11.576   7.189  0.6897  0.4269  0.6581
   69MOL0     C 9038   1.575  11.559   7.191  0.9753  0.7599 -0.1230
   69MOL0     C 9039   1.612  11.549   7.330  1.1783 -0.0687 -0.0050
   69MOL0     C 9040   1.619  11.554   7.449 -0.2982 -0.5769  0.7327
   69MOL0     C 9041   0.894  11.425   7.283  0.8662  0.1022 -0.2089
   69MOL0     C 9042   0.766  11.416   7.238 -0.0027 -0.8131 -0.3776
   69MOL0     H 9043   0.345  11.589   7.145  2.1768 -0.3642  0.4396
   69MOL0     H 9044   0.106  11.584   7.116  0.9014  1.0317 -1.2658
   69MOL0     H 9045  -0.097  11.169   7.114  0.3669 -0.9697 -1.4754
   69MOL0     H 9046  -0.090  11.212   6.952 -0.2325 -2.8350  1.2944
   69MOL0     H 9047  -0.318  11.146   7.023  2.0816 -0.3078  1.9604
   69MOL0     H 9048  -0.321  11.306   6.959 -1.0909  2.4348  1.3220
   69MOL0     H 9049  -0.287  11.374   7.199  0.5836  0.0993 -0.1067
   69MOL0     H 9050  -0.321  11.214   7.235 -0.5649 -0.4939 -2.2621
   69MOL0     H 9051  -0.516  11.395   7.083 -0.7030  1.9212  2.2169
   69MOL0     H 9052  -0.522  11.212   7.077 -0.8331 -0.5660  1.9810
   69MOL0     H 9053  -0.598  11.182   7.284 -0.5049 -1.0034 -1.7523
   69MOL0     H 9054  -0.695  11.313   7.241 -0.0529  0.0227  0.2677
   69MOL0     H 9055  -0.517  11.470   7.347  1.8463  0.1215 -0.0362
   69MOL0     H 9056  -0.435  11.328   7.402 -0.0361  1.2667  1.4231
   69MOL0     H 9057  -0.649  11.242   7.506 -2.3990  0.8717  0.5101
   69MOL0     H 9058  -0.559  11.364   7.599 -3.5232 -0.2946  2.2883
   69MOL0     H 9059  -0.790  11.433   7.411  1.9106  0.1819 -2.4743
   69MOL0     H 9060  -0.686  11.548   7.501 -0.1240  0.0300  2.5454
   69MOL0     H 9061  -1.000  11.321   7.550 -3.3189  3.9329 -0.0804
   69MOL0     H 9062  -1.165  11.310   7.746  0.4209 -0.1075 -0.6492
   69MOL0     H 9063  -1.130  11.392   7.903  2.8716 -1.2157  2.5523
   69MOL0     H 9064  -0.983  11.217   7.973 -0.1711 -0.5362  0.3363
   69MOL0     H 9065  -1.033  11.109   7.836 -2.5517 -0.0930 -1.0783
   69MOL0     H 9066  -1.173  11.047   8.010 -1.8759 -0.0049  1.0990
   69MOL0     H 9067  -1.178  11.214   8.079  0.5950  0.0273  1.0785
   69MOL0     H 9068  -1.339  11.145   7.840 -1.0082  4.4067 -1.1135
   69MOL0     H 9069  -1.354  11.288   7.934  3.5145  2.6357  2.4458
   69MOL0     H 9070  -1.537  11.291   8.160  2.7257 -1.1987 -2.1686
   69MOL0     H 9071  -1.777  11.266   8.226  1.5099  0.2105  1.9990
   69MOL0     H 9072  -2.137  10.845   8.098  1.0848  0.1311  0.6566
   69MOL0     H 9073  -2.376  10.798   8.160  1.9270 -1.4480 -1.7188
   69MOL0     H 9074  -2.485  11.022   8.469 -4.7950  1.2412 -0.9650
   69MOL0     H 9075  -2.492  10.889   8.596 -0.4701  0.0624  0.0959
   69MOL0     H 9076  -2.728  10.941   8.569 -0.0334  1.2730  0.0524
   69MOL0     H 9077  -2.701  10.813   8.446  1.6259 -2.1795  3.3468
   69MOL0     H 9078  -2.672  11.028   8.288 -3.2825 -0.2984 -1.0977
   69MOL0     H 9079  -2.744  11.115   8.427 -2.1456  1.3404 -1.3398
   69MOL0     H 9080  -2.879  10.869   8.341  2.5937 -0.0188 -2.8707
   69MOL0     H 9081  -2.926  11.003   8.439 -1.5055  1.8081 -2.3330
   69MOL0     H 9082  -2.933  11.154   8.268  0.5750 -0.3556  0.9703
   69MOL0     H 9083  -3.045  11.037   8.221 -0.4282  3.5349 -2.4699
   69MOL0     H 9084  -2.876  10.924   8.088 -1.7438 -0.0943 -0.6885
   69MOL0     H 9085  -2.784  11.082   8.076  2.3111 -3.2570 -0.0241
   69MOL0     H 9086  -3.035  11.175   8.013 -4.4875 -2.1987 -0.8168
   69MOL0     H 9087  -2.909  11.120   7.901 -0.0930 -1.4923  0.0073
   69MOL0     H 9088  -3.126  10.950   8.043  1.3781  0.0660  1.1801
   69MOL0     H 9089  -3.030  10.897   7.901  0.1338 -0.5138  0.0525
   69MOL0     H 9090  -2.265  10.885   8.568  0.5693 -1.6241  0.1233
   69MOL0     H 9091  -2.035  10.899   8.504 -0.4367 -3.0350  0.6883
   69MOL0     H 9092  -1.778  10.881   8.043  1.9838 -0.8311  0.7946
   69MOL0     H 9093  -1.548  10.915   7.958  0.0590  0.0099 -0.7215
   69MOL0     H 9094   0.098  11.155   7.088  0.4698 -1.6564  1.9262
   69MOL0     H 9095   0.338  11.159   7.073 -2.1849 -0.5098 -1.9099
   69MOL0     H 9096   0.783  11.116   7.082 -0.4849  0.8210 -1.5149
   69MOL0     H 9097   1.032  11.163   7.141 -0.2330  0.3779 -0.7997
   69MOL0     H 9098   1.142  11.534   7.276  0.2823 -2.4130  1.4809
   69MOL0     H 9099   1.171  11.477   7.114  1.1811  1.6851 -0.0670
   69MOL0     H 9100   1.361  11.472   7.365  1.1789  4.2256 -0.8039
   69MOL0     H 9101   1.390  11.361   7.230 -0.8576  0.1532 -1.2714
   69MOL0     H 9102   1.396  11.667   7.246 -0.1446  1.5050 -1.2940
   69MOL0     H 9103   1.383  11.602   7.089 -1.3081 -3.5029  0.1568
   69MOL0     H 9104   1.595  11.473   7.127 -0.5594  0.3409 -0.0693
   69MOL0     H 9105   1.622  11.646   7.144  2.2716  0.3737  0.4090
   69MOL0     H 9106   1.612  11.578   7.553  0.7252  0.3763  0.5905
   69MOL0     H 9107   0.932  11.497   7.354 -1.8915  4.4200 -2.5891
   69MOL0     H 9108   0.691  11.491   7.263  0.9374  0.7562 -2.0809
   70MOL0     O 9109   2.996   1.536   5.686  0.3619  0.3059 -0.5623
   70MOL0     C 9110   3.057   1.645   5.686  0.6566  0.3302 -0.8754
   70MOL0     O 9111   3.100   1.704   5.576 -0.2128  0.1156  0.4619
   70MOL0     C 9112   3.048   1.669   5.451 -0.9740  0.2233 -0.0756
   70MOL0     C 9113   2.916   1.646   5.419  0.1978 -0.0523  1.0381
   70MOL0     C 9114   2.875   1.614   5.282  0.2991  0.1820 -0.3579
   70MOL0     C 9115   2.971   1.590   5.181 -0.5299 -0.1443  0.1732
   70MOL0     O 9116   2.940   1.537   5.060  0.1572 -0.9062  0.7545
   70MOL0     C 9117   3.037   1.471   4.981  0.2372 -0.0257  0.0299
   70MOL0     C 9118   2.984   1.378   4.866  0.0770  0.1906  0.0453
   70MOL0     C 9119   2.843   1.320   4.888 -0.1191 -0.1969 -0.8035
   70MOL0     C 9120   2.822   1.203   4.788  0.3867 -0.5131 -0.5518
   70MOL0     C 9121   2.834   1.236   4.643 -0.7544  0.4543 -0.5379
   70MOL0     C 9122   2.737   1.349   4.595 -0.0216  0.3925  0.6023
   70MOL0     C 9123   2.583   1.314   4.610 -0.3014  0.4207 -0.6333
   70MOL0     C 9124   2.499   1.426   4.561 -0.6267  0.5654 -0.5192
   70MOL0     N 9125   2.348   1.392   4.555  0.4184  0.2413  0.4238
   70MOL0     C 9126   2.271   1.447   4.460 -0.6032  0.2631  0.0208
   70MOL0     C 9127   2.141   1.411   4.489  0.2563  0.3768 -0.0222
   70MOL0     C 9128   2.016   1.452   4.403  0.4626 -0.0367 -0.5944
   70MOL0     C 9129   1.886   1.442   4.491  0.7701  0.0556  0.4449
   70MOL0     C 9130   1.777   1.524   4.424  1.3486  0.1869 -0.3465
   70MOL0     C 9131   1.642   1.531   4.486 -0.1988 -0.1168 -0.2748
   70MOL0     O 9132   1.558   1.626   4.430 -0.6531 -1.5066  0.5296
   70MOL0     C 9133   1.446   1.646   4.502  0.0805 -0.4234  1.0720
   70MOL0     C 9134   1.372   1.539   4.547 -0.8846  0.4798 -0.3125
   70MOL0     C 9135   1.259   1.568   4.623  0.1185 -0.5004 -0.4680
   70MOL0     C 9136   1.207   1.695   4.649  0.6445 -0.2569 -0.1396
   70MOL0     C 9137   1.090   1.719   4.726  0.3134  0.1496  0.0417
   70MOL0     O 9138   1.022   1.603   4.765 -0.5411 -0.2332  0.5144
   70MOL0     C 9139   0.897   1.603   4.821  0.3729  1.1298 -0.0937
   70MOL0     C 9140   0.799   1.699   4.793 -0.0079  0.5296  0.0277
   70MOL0     C 9141   0.678   1.694   4.862  0.0902  0.0749  1.0361
   70MOL0     C 9142   0.650   1.594   4.950  0.8457 -0.2820  0.6801
   70MOL0     O 9143   0.528   1.583   5.017 -1.3834  0.6020  1.3256
   70MOL0     C 9144   0.410   1.619   4.960  0.8616 -0.1762 -0.2622
   70MOL0     C 9145   0.363   1.770   4.982 -1.1777  0.4838  0.4724
   70MOL0     C 9146   0.295   1.770   5.119  0.7795  0.1976  0.1993
   70MOL0     C 9147   0.229   1.907   5.139 -0.5648 -0.4156  0.2958
   70MOL0     C 9148   0.158   1.905   5.273  0.8680  0.1659 -1.2149
   70MOL0     C 9149   0.205   2.007   5.375 -0.5717 -0.3585 -0.2598
   70MOL0     C 9150   0.164   1.985   5.519 -0.3319  0.8441  0.0469
   70MOL0     C 9151   0.016   2.010   5.557  0.2552 -0.5494  0.3020
   70MOL0    Cl 9152  -0.072   1.884   5.482  0.4642  0.3544  0.3176
   70MOL0     C 9153   0.751   1.495   4.975 -0.2009 -1.0008 -0.0604
   70MOL0     C 9154   0.878   1.502   4.911 -0.3701 -0.1149  0.8558
   70MOL0     O 9155   1.048   1.836   4.736  0.5580  0.5201 -0.6490
   70MOL0     C 9156   1.274   1.805   4.591  0.0711  0.6637 -0.1818
   70MOL0     C 9157   1.399   1.775   4.527  0.2219  0.9973 -0.2013
   70MOL0     N 9158   2.146   1.332   4.602  1.3585 -0.0503 -0.1200
   70MOL0     N 9159   2.264   1.341   4.645 -0.0457  0.5412 -0.0402
   70MOL0     C 9160   3.109   1.634   5.207 -0.1493 -0.9344 -0.3538
   70MOL0     C 9161   3.145   1.670   5.344 -0.6606 -0.8568 -0.5620
   70MOL0     C 9162   3.080   1.732   5.812  0.7305 -0.6879  0.5565
   70MOL0     C 9163   3.072   1.674   5.938 -0.2369 -0.5439  0.6063
   70MOL0     C 9164   3.104   1.741   6.053 -0.4935  0.3421 -0.1187
   70MOL0     C 9165   3.137   1.882   6.048  0.2944 -0.9850  0.3217
   70MOL0     O 9166   3.166   1.947   6.165 -0.5934  0.0247  0.0770
   70MOL0     C 9167   3.139   2.090   6.174 -0.1293 -0.0348 -0.6662
   70MOL0     C 9168   3.121   2.128   6.328 -0.8270  0.0264 -0.4624
   70MOL0     C 9169   3.239   2.221   6.373 -0.2070  0.6850  0.2092
   70MOL0     C 9170   3.229   2.265   6.521 -0.4588  1.0344 -0.2621
   70MOL0     C 9171   3.327   2.367   6.562 -0.2933  0.6243  0.5162
   70MOL0     C 9172   3.408   2.460   6.578  0.0265  1.5550 -0.2056
   70MOL0     C 9173   3.126   1.943   5.924 -0.4151  0.3032 -0.2805
   70MOL0     C 9174   3.096   1.873   5.805 -1.1162 -0.0968 -0.0796
   70MOL0     H 9175   2.850   1.654   5.504 -0.1087 -0.0561  0.8010
   70MOL0     H 9176   2.773   1.583   5.262  0.8837 -2.2612  0.1594
   70MOL0     H 9177   3.095   1.411   5.052 -0.0994 -0.3465  0.0313
   70MOL0     H 9178   3.109   1.545   4.944  1.2682 -0.0410  1.9034
   70MOL0     H 9179   3.055   1.301   4.833 -1.7597 -2.7756  2.5532
   70MOL0     H 9180   2.981   1.435   4.773  0.4175 -1.4841 -1.0491
   70MOL0     H 9181   2.763   1.394   4.874  1.7378  2.2395  0.6777
   70MOL0     H 9182   2.828   1.268   4.983 -0.6026  2.0905  0.4574
   70MOL0     H 9183   2.895   1.128   4.818  0.6030 -2.6110 -5.3705
   70MOL0     H 9184   2.722   1.161   4.801  0.6755 -0.9216  0.3967
   70MOL0     H 9185   2.811   1.147   4.584 -0.6894  0.3537 -0.4129
   70MOL0     H 9186   2.938   1.263   4.623 -0.0269 -3.1566 -2.3936
   70MOL0     H 9187   2.762   1.364   4.490 -0.7341  0.2159  0.4014
   70MOL0     H 9188   2.759   1.437   4.656 -3.3386  0.7561  1.4974
   70MOL0     H 9189   2.561   1.217   4.565 -1.1858 -0.1490  0.9351
   70MOL0     H 9190   2.563   1.299   4.716 -0.3960 -1.5635 -0.9058
   70MOL0     H 9191   2.525   1.432   4.455  0.3444 -2.9662 -0.5805
   70MOL0     H 9192   2.522   1.515   4.621 -2.7542 -0.0442  1.3704
   70MOL0     H 9193   2.295   1.500   4.368 -0.1861 -2.4059 -1.5145
   70MOL0     H 9194   1.997   1.396   4.311  1.0134  1.7290 -1.8608
   70MOL0     H 9195   2.043   1.553   4.370  0.8229  0.6523  1.6580
   70MOL0     H 9196   1.900   1.498   4.584 -0.2998 -0.1164  0.7245
   70MOL0     H 9197   1.862   1.337   4.512 -1.4923  0.9463  2.9603
   70MOL0     H 9198   1.816   1.626   4.433 -0.4303  0.9090 -0.3080
   70MOL0     H 9199   1.768   1.492   4.320  1.0613  0.4208 -0.3960
   70MOL0     H 9200   1.651   1.550   4.593 -0.0430  0.5844 -0.4106
   70MOL0     H 9201   1.600   1.430   4.475 -3.4212  1.1167 -0.5688
   70MOL0     H 9202   1.412   1.439   4.528 -0.4204  1.0374 -2.7117
   70MOL0     H 9203   1.207   1.485   4.669 -1.1535 -0.0637 -1.0586
   70MOL0     H 9204   0.825   1.780   4.725  1.4623  0.8563  0.9447
   70MOL0     H 9205   0.607   1.774   4.847 -0.0733 -0.4445 -1.4303
   70MOL0     H 9206   0.325   1.556   4.987  0.6457 -0.9189 -2.4527
   70MOL0     H 9207   0.418   1.611   4.851  1.4830 -1.0089 -0.1621
   70MOL0     H 9208   0.290   1.794   4.904 -1.1219 -0.4263  0.1228
   70MOL0     H 9209   0.438   1.849   4.987  0.1198 -0.7899  2.2462
   70MOL0     H 9210   0.373   1.754   5.194 -1.4060 -0.3478  2.4814
   70MOL0     H 9211   0.231   1.683   5.133  2.3197 -0.6918  2.2920
   70MOL0     H 9212   0.306   1.985   5.141  0.6802 -1.5960  0.2241
   70MOL0     H 9213   0.157   1.922   5.058 -0.0099 -2.6719 -0.6889
   70MOL0     H 9214   0.140   1.803   5.310  0.4446  0.8438  0.5278
   70MOL0     H 9215   0.055   1.930   5.245  0.0908 -4.0300 -2.8044
   70MOL0     H 9216   0.156   2.102   5.350  2.0791  1.4675  0.9616
   70MOL0     H 9217   0.311   2.033   5.365 -0.3888 -1.5963 -1.9169
   70MOL0     H 9218   0.186   1.882   5.548 -2.2934  0.4175  0.0963
   70MOL0     H 9219   0.227   2.046   5.586  1.2976 -2.0181  1.2934
   70MOL0     H 9220  -0.014   2.112   5.533  0.9569  0.6563  3.8741
   70MOL0     H 9221  -0.006   2.001   5.664 -0.7268 -2.7821 -0.0212
   70MOL0     H 9222   0.722   1.414   5.041  1.3510 -0.3475  1.4999
   70MOL0     H 9223   0.946   1.422   4.937 -0.2700 -0.8327 -1.4295
   70MOL0     H 9224   1.239   1.907   4.596 -1.7633  0.0418  2.2763
   70MOL0     H 9225   1.470   1.854   4.501  2.8881 -0.5595  1.7653
   70MOL0     H 9226   3.196   1.630   5.142  1.1291  0.1111  1.2138
   70MOL0     H 9227   3.250   1.693   5.361 -0.6472  0.0358 -1.6772
   70MOL0     H 9228   3.042   1.569   5.942 -1.1976 -0.3715 -1.1849
   70MOL0     H 9229   3.095   1.685   6.145 -2.1886 -1.1629 -1.1315
   70MOL0     H 9230   3.039   2.096   6.130 -0.3439 -1.1154 -0.3456
   70MOL0     H 9231   3.212   2.161   6.132 -2.1632  2.6412  0.0603
   70MOL0     H 9232   3.020   2.169   6.344 -2.8365 -4.7022  0.7143
   70MOL0     H 9233   3.114   2.041   6.393  0.6495  1.5451  1.8593
   70MOL0     H 9234   3.242   2.307   6.306  1.0299 -1.1219 -2.2402
   70MOL0     H 9235   3.333   2.171   6.349  0.2703  1.5965  0.1330
   70MOL0     H 9236   3.134   2.319   6.525 -1.4797 -0.7529  1.6052
   70MOL0     H 9237   3.232   2.185   6.595 -1.6012  0.8648 -0.3818
   70MOL0     H 9238   3.480   2.539   6.571  2.5315 -0.5627  0.0200
   70MOL0     H 9239   3.130   2.051   5.918 -0.5883  0.2390 -4.2125
   70MOL0     H 9240   3.093   1.933   5.715  0.5111 -3.6356 -2.7388
   71MOL0     O 9241   9.028   6.624   8.922  0.2443 -0.3161  0.5824
   71MOL0     C 9242   9.127   6.578   8.875 -0.4132 -0.1460  0.5261
   71MOL0     O 9243   9.189   6.471   8.924 -0.3480 -0.1763  0.7796
   71MOL0     C 9244   9.137   6.389   9.021 -2.1814  0.6305  0.4035
   71MOL0     C 9245   9.210   6.331   9.127 -0.1761 -0.0763 -0.0427
   71MOL0     C 9246   9.152   6.245   9.220 -0.9281  0.6116 -0.7190
   71MOL0     C 9247   9.023   6.211   9.214  1.7049 -0.1787  0.2080
   71MOL0     O 9248   8.954   6.124   9.301  0.1449  0.3131 -0.6784
   71MOL0     C 9249   8.947   6.173   9.432 -0.7287 -1.0145 -1.1628
   71MOL0     C 9250   8.898   6.323   9.451  0.3009 -0.7775  0.9886
   71MOL0     C 9251   8.757   6.342   9.394  0.5861 -0.2850  0.6297
   71MOL0     C 9252   8.664   6.229   9.431  0.3603 -0.2934 -0.8035
   71MOL0     C 9253   8.527   6.254   9.373 -0.0783  0.4135 -0.7307
   71MOL0     C 9254   8.422   6.160   9.435  0.6626 -0.0321  0.2380
   71MOL0     C 9255   8.283   6.204   9.395 -0.4065 -0.3800  0.3540
   71MOL0     C 9256   8.196   6.076   9.430  1.4348  0.1317  1.0660
   71MOL0     N 9257   8.050   6.093   9.429  0.1112  0.5207 -0.8546
   71MOL0     C 9258   7.961   6.055   9.332 -0.3781  0.9426 -0.2568
   71MOL0     C 9259   7.838   6.041   9.377 -0.6800 -0.1705 -0.0240
   71MOL0     C 9260   7.707   6.012   9.309  0.0073 -0.1378 -0.1328
   71MOL0     C 9261   7.657   6.123   9.212  0.2356  1.0774 -0.0120
   71MOL0     C 9262   7.603   6.251   9.277 -0.1183  0.9149 -0.0901
   71MOL0     C 9263   7.717   6.331   9.347  0.0810 -0.6023  0.3326
   71MOL0     O 9264   7.824   6.347   9.253 -0.1253 -0.6631  0.0272
   71MOL0     C 9265   7.920   6.440   9.287 -0.7778 -0.6666  0.2786
   71MOL0     C 9266   7.938   6.498   9.414  0.3799  0.5119 -0.9239
   71MOL0     C 9267   8.044   6.579   9.443 -0.0870 -0.8008 -0.0587
   71MOL0     C 9268   8.134   6.619   9.351 -0.1852 -1.0933  0.4420
   71MOL0     C 9269   8.266   6.689   9.373 -0.1449 -0.1361 -0.1259
   71MOL0     O 9270   8.369   6.671   9.280  0.5901  0.6617 -0.0483
   71MOL0     C 9271   8.498   6.717   9.287  0.4309 -0.3587  0.2338
   71MOL0     C 9272   8.599   6.648   9.232  0.6134  1.1791  0.1203
   71MOL0     C 9273   8.729   6.695   9.228  0.8389 -0.3695 -1.0822
   71MOL0     C 9274   8.762   6.826   9.288 -0.4252  0.3547 -0.1708
   71MOL0     O 9275   8.893   6.872   9.286  0.1904  0.2590 -0.4399
   71MOL0     C 9276   8.984   6.798   9.208  0.1180  0.3172  0.1702
   71MOL0     C 9277   9.105   6.883   9.189  0.0257 -0.4625 -0.4703
   71MOL0     C 9278   9.229   6.807   9.150  0.4245  0.3280 -0.0344
   71MOL0     C 9279   9.311   6.911   9.067 -0.3362 -0.2080 -0.2867
   71MOL0     C 9280   9.454   6.884   9.032 -0.0529 -0.0525  0.3742
   71MOL0     C 9281   9.485   6.882   8.879 -0.5436 -0.9235  0.2014
   71MOL0     C 9282   9.635   6.857   8.836 -0.1357  1.0397 -0.0223
   71MOL0     C 9283   9.680   6.720   8.881  0.1203  0.8452  0.5256
   71MOL0    Cl 9284   9.841   6.684   8.807 -0.0210 -0.0610  0.0660
   71MOL0     C 9285   8.658   6.895   9.345  0.8617  0.6075 -0.8789
   71MOL0     C 9286   8.529   6.840   9.345  0.0953  0.3762  0.9285
   71MOL0     O 9287   8.266   6.748   9.476 -0.9569 -0.6031  0.2655
   71MOL0     C 9288   8.114   6.572   9.216  0.4860 -0.5541 -0.2594
   71MOL0     C 9289   8.003   6.486   9.183  0.2516  0.0358 -0.0469
   71MOL0     N 9290   7.844   6.067   9.518 -0.2619 -0.3859  0.4042
   71MOL0     N 9291   7.968   6.106   9.542 -0.7034 -0.7688  0.3049
   71MOL0     C 9292   8.953   6.262   9.110  0.1442 -0.1522 -0.2138
   71MOL0     C 9293   9.004   6.347   9.015  0.6652 -0.4731 -0.2120
   71MOL0     C 9294   9.189   6.648   8.753  0.7420  1.2172 -0.5483
   71MOL0     C 9295   9.306   6.601   8.697 -0.2501  0.1491  0.4516
   71MOL0     C 9296   9.373   6.664   8.595 -0.6916 -0.2284 -0.3031
   71MOL0     C 9297   9.321   6.789   8.556 -1.7206 -1.0923 -0.6736
   71MOL0     O 9298   9.406   6.856   8.469 -0.2561 -0.8372 -1.4206
   71MOL0     C 9299   9.335   6.953   8.388 -0.3215  0.1623  0.3429
   71MOL0     C 9300   9.387   6.943   8.235  0.6132 -0.0186 -0.9953
   71MOL0     C 9301   9.295   6.873   8.141  0.1507 -0.6110 -0.8808
   71MOL0     C 9302   9.366   6.806   8.018 -0.4151  0.1622 -0.1721
   71MOL0     C 9303   9.458   6.901   7.955 -0.2625 -0.0083 -0.6271
   71MOL0     C 9304   9.540   6.976   7.902  0.0860  0.0880  0.2650
   71MOL0     C 9305   9.212   6.846   8.627  0.0649  0.0776 -0.5276
   71MOL0     C 9306   9.142   6.773   8.716  1.3488  0.0767  0.1273
   71MOL0     H 9307   9.315   6.358   9.135 -0.7572  2.3552  0.1200
   71MOL0     H 9308   9.215   6.200   9.297 -1.7938  0.9691  0.2170
   71MOL0     H 9309   9.051   6.158   9.463 -0.1642 -0.2957 -2.5763
   71MOL0     H 9310   8.881   6.111   9.492  0.8490 -3.1625 -1.5376
   71MOL0     H 9311   8.962   6.391   9.394 -1.6030  1.7340  1.6877
   71MOL0     H 9312   8.900   6.370   9.549 -2.6482  3.1138 -0.5528
   71MOL0     H 9313   8.760   6.332   9.286 -2.7904 -1.1130  0.5041
   71MOL0     H 9314   8.716   6.441   9.417 -1.6360 -0.3229 -2.5102
   71MOL0     H 9315   8.692   6.130   9.393 -2.3424 -3.0977  3.5001
   71MOL0     H 9316   8.662   6.217   9.540  0.5231  0.7142 -0.6776
   71MOL0     H 9317   8.527   6.235   9.265  0.7037  0.4910 -0.7471
   71MOL0     H 9318   8.503   6.359   9.393  2.5671  1.0517 -0.4664
   71MOL0     H 9319   8.447   6.145   9.541  1.4224 -1.8593 -0.1479
   71MOL0     H 9320   8.443   6.064   9.386 -3.7313 -0.0149 -2.1455
   71MOL0     H 9321   8.261   6.289   9.461  2.0371  0.2501  0.4340
   71MOL0     H 9322   8.276   6.232   9.289 -2.2424 -1.7988  0.0400
   71MOL0     H 9323   8.229   6.014   9.513 -0.9039 -3.6765 -0.5952
   71MOL0     H 9324   8.215   6.010   9.344 -1.5853  2.2519 -1.4812
   71MOL0     H 9325   7.986   6.048   9.227 -2.2674  1.2412 -0.7588
   71MOL0     H 9326   7.634   5.988   9.387  0.7378  0.1676  0.6670
   71MOL0     H 9327   7.733   5.919   9.258 -2.8831  0.1319 -2.3131
   71MOL0     H 9328   7.571   6.088   9.155 -2.1385  2.9465  2.2070
   71MOL0     H 9329   7.730   6.139   9.132 -0.3445  0.9976 -0.5657
   71MOL0     H 9330   7.575   6.319   9.196  0.7917  0.6849 -0.6118
   71MOL0     H 9331   7.519   6.229   9.343 -2.5183  1.7160 -2.6893
   71MOL0     H 9332   7.742   6.287   9.445 -0.6544  1.2020  1.3730
   71MOL0     H 9333   7.672   6.428   9.368 -0.4519 -0.9499  0.8334
   71MOL0     H 9334   7.865   6.479   9.492 -0.1076 -1.8443 -1.8721
   71MOL0     H 9335   8.057   6.610   9.546 -0.8424  0.0439 -0.1966
   71MOL0     H 9336   8.569   6.554   9.187  1.9548  0.7319  0.1274
   71MOL0     H 9337   8.791   6.617   9.185 -0.3340 -1.0416 -1.6040
   71MOL0     H 9338   8.940   6.787   9.108  0.7377 -0.1927 -0.0492
   71MOL0     H 9339   9.023   6.704   9.247  0.7255 -1.4959 -4.2549
   71MOL0     H 9340   9.120   6.928   9.288 -1.3801 -1.9660  0.4780
   71MOL0     H 9341   9.086   6.968   9.123  2.5447  1.0727  0.6269
   71MOL0     H 9342   9.215   6.715   9.092  0.0511 -0.5973  1.4781
   71MOL0     H 9343   9.275   6.778   9.245 -0.8694 -0.2550  0.4303
   71MOL0     H 9344   9.257   6.921   8.973 -0.3463 -2.1465 -0.5262
   71MOL0     H 9345   9.304   7.004   9.124 -1.6010  0.3399 -1.2928
   71MOL0     H 9346   9.495   6.790   9.071  0.2385 -1.0052 -2.0870
   71MOL0     H 9347   9.516   6.966   9.072  1.4528 -0.7013 -0.5477
   71MOL0     H 9348   9.458   6.981   8.842  0.3266 -0.1568  1.5247
   71MOL0     H 9349   9.417   6.809   8.835  2.6203 -2.5414 -2.4912
   71MOL0     H 9350   9.640   6.867   8.727 -2.6430 -0.4554 -0.3773
   71MOL0     H 9351   9.708   6.926   8.878  0.9670  0.5409 -1.0479
   71MOL0     H 9352   9.618   6.643   8.835  1.6427  0.5849 -1.2072
   71MOL0     H 9353   9.686   6.716   8.991  0.5487 -0.7829  0.4635
   71MOL0     H 9354   8.679   6.997   9.376 -0.9045  0.6200  0.4387
   71MOL0     H 9355   8.463   6.898   9.409 -0.3141  0.8107  0.1230
   71MOL0     H 9356   8.180   6.594   9.133  0.6856 -0.3545 -0.0472
   71MOL0     H 9357   7.990   6.446   9.083  2.2982 -2.5673  0.6247
   71MOL0     H 9358   8.852   6.228   9.089  0.3801 -0.6959 -0.4870
   71MOL0     H 9359   8.941   6.370   8.930  3.1769  1.2676 -1.7325
   71MOL0     H 9360   9.337   6.498   8.713  0.4432  0.3714  0.5817
   71MOL0     H 9361   9.454   6.613   8.544 -3.0570 -2.0516 -2.5905
   71MOL0     H 9362   9.349   7.052   8.432 -2.2229  1.0738 -0.9532
   71MOL0     H 9363   9.227   6.933   8.396 -0.3838  0.6300  0.6886
   71MOL0     H 9364   9.411   7.037   8.183  0.7494  1.2306  1.2162
   71MOL0     H 9365   9.484   6.893   8.244  1.0373  0.4659 -2.5124
   71MOL0     H 9366   9.216   6.939   8.102  0.7042  0.4204 -0.2993
   71MOL0     H 9367   9.239   6.794   8.191 -1.2557  0.1812 -1.1367
   71MOL0     H 9368   9.414   6.714   8.052  0.6093  1.8151  3.2371
   71MOL0     H 9369   9.291   6.798   7.938 -1.4094  0.1931  0.7404
   71MOL0     H 9370   9.612   7.027   7.842  0.0090 -1.0255 -0.7984
   71MOL0     H 9371   9.181   6.950   8.622 -1.4400 -0.1993  1.7082
   71MOL0     H 9372   9.057   6.815   8.770  0.3271 -2.0609  0.2692
   72MOL0     O 9373   6.480   9.775  11.324  0.0552  0.5430 -0.1369
   72MOL0     C 9374   6.494   9.655  11.326 -0.1852  0.1830 -0.5396
   72MOL0     O 9375   6.394   9.560  11.343 -0.1048 -1.1797  0.0155
   72MOL0     C 9376   6.260   9.601  11.376  0.3644  0.2323 -0.1392
   72MOL0     C 9377   6.174   9.508  11.441 -1.0315 -0.4577 -0.1646
   72MOL0     C 9378   6.050   9.550  11.484  0.8752 -0.3687 -0.6200
   72MOL0     C 9379   5.996   9.682  11.468  0.3097 -1.1710 -1.4222
   72MOL0     O 9380   5.872   9.697  11.516  0.4472  0.9943  0.2575
   72MOL0     C 9381   5.795   9.814  11.484 -0.7163  0.4699  0.5079
   72MOL0     C 9382   5.742   9.801  11.342 -0.4790 -0.0936  0.5282
   72MOL0     C 9383   5.597   9.843  11.334  0.3500  0.5776  0.5109
   72MOL0     C 9384   5.504   9.747  11.405 -0.4152  0.2011 -0.0406
   72MOL0     C 9385   5.351   9.762  11.389 -0.1631  0.6401 -0.5205
   72MOL0     C 9386   5.306   9.694  11.261  0.1131 -0.2569  0.9134
   72MOL0     C 9387   5.150   9.687  11.262 -0.1120 -0.0994  0.6851
   72MOL0     C 9388   5.077   9.676  11.132 -0.1498 -0.0215  1.1193
   72MOL0     N 9389   4.935   9.717  11.145 -0.1684 -0.6855 -0.2890
   72MOL0     C 9390   4.884   9.843  11.165 -0.1431  0.2041  0.6464
   72MOL0     C 9391   4.768   9.847  11.113 -0.1842 -0.2394  0.2898
   72MOL0     C 9392   4.683   9.974  11.083 -1.2983 -0.3594 -0.1160
   72MOL0     C 9393   4.653  10.006  10.936 -0.4597 -0.0481  0.1346
   72MOL0     C 9394   4.520   9.936  10.877  0.0690 -0.0120 -0.2231
   72MOL0     C 9395   4.521   9.926  10.722 -0.2286 -0.0134  1.2736
   72MOL0     O 9396   4.549  10.053  10.669 -0.1177  0.3705 -0.5839
   72MOL0     C 9397   4.457  10.152  10.665  0.5408  0.3606  0.1022
   72MOL0     C 9398   4.320  10.124  10.649 -0.5439 -0.5018  0.0489
   72MOL0     C 9399   4.233  10.235  10.652  0.0006 -1.2618  1.1311
   72MOL0     C 9400   4.277  10.372  10.664 -0.3613 -0.7258  0.9501
   72MOL0     C 9401   4.181  10.485  10.649  0.3484  0.3737  0.5575
   72MOL0     O 9402   4.057  10.446  10.670  0.1273 -0.3003  0.1516
   72MOL0     C 9403   3.944  10.514  10.685  0.1199  0.3000  0.4893
   72MOL0     C 9404   3.932  10.645  10.733  0.9019 -0.2008  0.2114
   72MOL0     C 9405   3.806  10.713  10.728  0.0957 -0.1672  1.0875
   72MOL0     C 9406   3.681  10.647  10.705 -0.7428  0.2296  0.0820
   72MOL0     O 9407   3.560  10.718  10.716 -0.2222 -0.7872  0.3879
   72MOL0     C 9408   3.441  10.657  10.736  0.1089  0.8681  0.0630
   72MOL0     C 9409   3.342  10.757  10.749 -0.5382  0.5230 -0.0134
   72MOL0     C 9410   3.210  10.682  10.789 -0.3844 -0.2967 -0.0153
   72MOL0     C 9411   3.097  10.788  10.781  0.4614  0.2532 -0.3556
   72MOL0     C 9412   2.980  10.784  10.883 -0.2556 -0.7954 -0.6729
   72MOL0     C 9413   2.927  10.648  10.932  0.0881 -0.8228 -0.0803
   72MOL0     C 9414   2.893  10.559  10.809  0.5777 -0.7697  0.3965
   72MOL0     C 9415   2.833  10.429  10.840 -0.6111  0.3251  0.3245
   72MOL0    Cl 9416   2.880  10.296  10.713  0.1139  0.0350 -0.2155
   72MOL0     C 9417   3.700  10.513  10.665 -0.2193 -1.5173 -0.1086
   72MOL0     C 9418   3.826  10.449  10.649 -0.4119  0.5806  0.3592
   72MOL0     O 9419   4.212  10.604  10.637 -0.4635 -0.7487 -0.6527
   72MOL0     C 9420   4.419  10.395  10.672 -0.6267 -0.1595 -0.0619
   72MOL0     C 9421   4.509  10.278  10.668  0.4212 -0.7789  0.6843
   72MOL0     N 9422   4.744   9.722  11.056  0.4747 -1.0539  0.0635
   72MOL0     N 9423   4.836   9.647  11.090 -0.0750  0.6736  0.3001
   72MOL0     C 9424   6.073   9.766  11.396 -0.0550 -1.0518 -0.3886
   72MOL0     C 9425   6.199   9.724  11.344  0.3518 -0.8959 -0.1089
   72MOL0     C 9426   6.629   9.588  11.291 -0.5088 -0.0515  0.3197
   72MOL0     C 9427   6.644   9.455  11.311 -0.1892 -0.0749 -0.4026
   72MOL0     C 9428   6.749   9.373  11.256  0.8496 -0.3004 -0.3913
   72MOL0     C 9429   6.849   9.435  11.170 -0.1614  0.0985  0.7206
   72MOL0     O 9430   6.948   9.378  11.096 -0.1436 -0.1976  0.0052
   72MOL0     C 9431   6.916   9.257  11.027 -0.2091 -0.2294  0.0526
   72MOL0     C 9432   6.980   9.254  10.884 -0.0748 -0.2392  0.0546
   72MOL0     C 9433   7.134   9.224  10.898 -0.3148  0.6428  0.1073
   72MOL0     C 9434   7.186   9.195  10.759 -0.2397  0.5506  0.6760
   72MOL0     C 9435   7.121   9.067  10.706 -0.2689 -0.0960 -1.2562
   72MOL0     C 9436   7.057   8.969  10.671  1.0338 -0.1079 -0.0992
   72MOL0     C 9437   6.832   9.573  11.148 -1.6407 -0.5786 -0.5276
   72MOL0     C 9438   6.736   9.656  11.216 -0.3877  1.3028  1.1697
   72MOL0     H 9439   6.212   9.407  11.447  0.0182 -0.2768 -2.5287
   72MOL0     H 9440   5.978   9.478  11.521  0.4762 -0.4741 -1.5691
   72MOL0     H 9441   5.853   9.907  11.490 -1.5857  1.0831 -0.3788
   72MOL0     H 9442   5.707   9.830  11.546 -2.7108 -0.2432 -1.9777
   72MOL0     H 9443   5.757   9.708  11.285 -2.6611  0.8714 -1.8120
   72MOL0     H 9444   5.807   9.865  11.281 -0.9070 -1.0802 -1.0266
   72MOL0     H 9445   5.568   9.852  11.229 -0.9639  1.8834  0.9488
   72MOL0     H 9446   5.589   9.946  11.372  1.3960  0.7596  0.2892
   72MOL0     H 9447   5.526   9.648  11.364  3.7040  0.7361  0.4491
   72MOL0     H 9448   5.522   9.759  11.512  2.2251  2.4468 -0.6100
   72MOL0     H 9449   5.316   9.863  11.414 -0.0519  0.2517  1.3659
   72MOL0     H 9450   5.304   9.701  11.467  0.8649  0.9809  0.4005
   72MOL0     H 9451   5.333   9.590  11.239 -1.0352  0.0619 -2.6597
   72MOL0     H 9452   5.359   9.756  11.188  0.8119  0.6614  2.1793
   72MOL0     H 9453   5.126   9.589  11.304  1.2039 -1.5930 -1.7819
   72MOL0     H 9454   5.105   9.759  11.331  0.0408 -0.4933  1.2081
   72MOL0     H 9455   5.090   9.572  11.103 -1.9915 -0.2922  1.1691
   72MOL0     H 9456   5.126   9.744  11.061 -1.6865  0.2818  0.3143
   72MOL0     H 9457   4.942   9.932  11.184 -0.3877  1.2208 -2.7633
   72MOL0     H 9458   4.729  10.051  11.145 -0.7188 -0.1135 -0.8400
   72MOL0     H 9459   4.583   9.949  11.121 -1.1845 -2.6638 -1.1442
   72MOL0     H 9460   4.744   9.976  10.882 -1.4904 -2.6866 -0.2517
   72MOL0     H 9461   4.642  10.115  10.932 -0.8779 -0.1250 -1.5486
   72MOL0     H 9462   4.516   9.831  10.907 -1.8383  0.3154  0.8346
   72MOL0     H 9463   4.427   9.981  10.914 -2.9709 -4.2081 -1.9889
   72MOL0     H 9464   4.420   9.901  10.687 -0.2036  0.5550  0.7751
   72MOL0     H 9465   4.579   9.845  10.678 -1.4031  0.7907 -2.0165
   72MOL0     H 9466   4.268  10.029  10.641  0.8952 -1.2425 -0.8201
   72MOL0     H 9467   4.129  10.219  10.627  0.5266 -1.5765 -1.0980
   72MOL0     H 9468   4.021  10.703  10.756 -0.8901  2.3435  1.1750
   72MOL0     H 9469   3.811  10.818  10.754  0.2493  0.4763 -1.2478
   72MOL0     H 9470   3.458  10.586  10.818  0.2933  0.2889 -0.4665
   72MOL0     H 9471   3.408  10.591  10.655  1.0775 -2.6867  2.3059
   72MOL0     H 9472   3.339  10.806  10.651  3.3276  0.8591 -0.1324
   72MOL0     H 9473   3.374  10.834  10.819  0.3226  1.8274 -1.7580
   72MOL0     H 9474   3.226  10.650  10.892 -2.0245 -0.8224  0.1078
   72MOL0     H 9475   3.178  10.605  10.719 -0.5338 -0.7677  0.5618
   72MOL0     H 9476   3.133  10.891  10.772  0.4090  0.1598 -1.9686
   72MOL0     H 9477   3.045  10.781  10.684 -2.5490  2.0526  0.9573
   72MOL0     H 9478   2.898  10.851  10.854  1.6472  1.9863  0.0015
   72MOL0     H 9479   3.023  10.839  10.967 -0.8387  1.7578 -1.9545
   72MOL0     H 9480   2.842  10.676  10.994  2.5882 -0.0431  3.2302
   72MOL0     H 9481   2.990  10.585  10.995  0.6245  0.0701  0.3072
   72MOL0     H 9482   2.835  10.616  10.736  1.0775  1.8642  1.9176
   72MOL0     H 9483   2.980  10.542  10.745 -1.0585  1.0208 -2.5124
   72MOL0     H 9484   2.724  10.426  10.828 -0.5234 -3.1260 -0.6496
   72MOL0     H 9485   2.864  10.412  10.943  2.2654  4.5873  0.4141
   72MOL0     H 9486   3.601  10.474  10.642 -1.7814  2.6262 -1.3409
   72MOL0     H 9487   3.836  10.354  10.597  1.8513  1.9706 -2.0087
   72MOL0     H 9488   4.466  10.492  10.671 -0.7691 -0.0225 -3.0946
   72MOL0     H 9489   4.617  10.290  10.680  0.2736  0.9908  0.5524
   72MOL0     H 9490   6.036   9.864  11.366  2.0234 -0.1219 -0.1041
   72MOL0     H 9491   6.257   9.800  11.293 -1.6139 -0.6120 -2.0691
   72MOL0     H 9492   6.584   9.397  11.380  0.3540  0.1141  0.2428
   72MOL0     H 9493   6.759   9.267  11.276  3.2424 -0.0511  0.0549
   72MOL0     H 9494   6.808   9.248  11.013 -0.1159  0.4592 -1.2039
   72MOL0     H 9495   6.958   9.171  11.081  0.6144 -0.6668 -1.2483
   72MOL0     H 9496   6.923   9.183  10.823 -0.0374  1.1162 -1.6131
   72MOL0     H 9497   6.950   9.343  10.829  0.9849  0.2978  0.3235
   72MOL0     H 9498   7.152   9.146  10.973  2.6739  0.8031 -0.3166
   72MOL0     H 9499   7.187   9.312  10.936  0.6779  0.1649 -0.1613
   72MOL0     H 9500   7.169   9.285  10.698  0.6211  2.1479  2.6589
   72MOL0     H 9501   7.295   9.195  10.749 -0.1578  1.1958  1.4818
   72MOL0     H 9502   7.008   8.878  10.644 -2.4112  0.5825  3.1102
   72MOL0     H 9503   6.891   9.612  11.065  1.1397 -0.5604  1.3240
   72MOL0     H 9504   6.741   9.764  11.201 -2.0397  1.1491 -1.0438
   73MOL0     O 9505   1.853   8.908   7.915 -0.2093 -0.2300 -0.4551
   73MOL0     C 9506   1.801   8.916   7.799  0.1121 -0.3591  0.8453
   73MOL0     O 9507   1.730   8.814   7.735  0.7608  0.2988  0.5091
   73MOL0     C 9508   1.714   8.680   7.766 -0.6311  1.0147  0.3294
   73MOL0     C 9509   1.635   8.599   7.670 -0.1969 -0.4488 -0.4875
   73MOL0     C 9510   1.616   8.463   7.678  0.7298 -0.5323  0.0010
   73MOL0     C 9511   1.659   8.397   7.796  0.2192 -0.5063  0.3927
   73MOL0     O 9512   1.649   8.261   7.811  0.8921 -0.8754  1.2760
   73MOL0     C 9513   1.615   8.181   7.701  0.0334  1.2840 -0.6840
   73MOL0     C 9514   1.732   8.143   7.613  1.1237 -0.8757  0.3933
   73MOL0     C 9515   1.699   8.021   7.532  0.1046  0.6146 -0.5436
   73MOL0     C 9516   1.591   8.056   7.428 -0.0218 -0.3885  0.6222
   73MOL0     C 9517   1.565   7.923   7.350 -0.2279  0.2655 -0.0832
   73MOL0     C 9518   1.689   7.845   7.285  0.4262 -0.2309  0.4831
   73MOL0     C 9519   1.639   7.717   7.224  0.7290 -0.0943  0.4450
   73MOL0     C 9520   1.744   7.624   7.177  0.0547  0.6668  0.2673
   73MOL0     N 9521   1.838   7.679   7.080 -0.1386 -0.2423 -0.3287
   73MOL0     C 9522   1.975   7.693   7.099  0.1919 -0.1217  0.6123
   73MOL0     C 9523   2.020   7.740   6.983 -0.0804  0.8974 -0.5717
   73MOL0     C 9524   2.171   7.775   6.957  0.1014 -0.1304  0.5584
   73MOL0     C 9525   2.271   7.711   7.058 -0.1775 -0.1551 -0.2638
   73MOL0     C 9526   2.307   7.816   7.165  1.4333  1.1305 -0.3833
   73MOL0     C 9527   2.432   7.791   7.245 -1.1203 -0.3046 -0.2901
   73MOL0     O 9528   2.536   7.773   7.156 -0.2557 -0.1176 -0.0977
   73MOL0     C 9529   2.657   7.777   7.217  0.5601 -0.2972 -0.4665
   73MOL0     C 9530   2.752   7.679   7.192  0.6315 -0.1386  0.5544
   73MOL0     C 9531   2.879   7.677   7.256  1.0588 -0.1549  0.2994
   73MOL0     C 9532   2.915   7.774   7.341 -0.0766  0.0981  0.1159
   73MOL0     C 9533   3.049   7.770   7.398 -0.3463 -0.5065 -0.6468
   73MOL0     O 9534   3.142   7.671   7.366 -0.7068 -0.7570  0.7295
   73MOL0     C 9535   3.282   7.658   7.399  0.8298  0.2733 -0.4364
   73MOL0     C 9536   3.324   7.535   7.448 -0.0990 -1.1641  0.1698
   73MOL0     C 9537   3.449   7.520   7.496 -0.8488 -0.2676  0.0425
   73MOL0     C 9538   3.544   7.628   7.485  0.1059  0.3384 -0.0920
   73MOL0     O 9539   3.662   7.597   7.536 -0.8261 -0.1000 -0.1303
   73MOL0     C 9540   3.767   7.692   7.514 -0.7918  0.2604 -0.0575
   73MOL0     C 9541   3.911   7.657   7.527 -0.0129 -0.2128 -0.4798
   73MOL0     C 9542   3.965   7.629   7.668  0.1753 -0.2733 -0.3316
   73MOL0     C 9543   4.105   7.572   7.651  0.3222 -1.4260 -0.3550
   73MOL0     C 9544   4.202   7.674   7.595 -0.6606  0.2917 -0.0037
   73MOL0     C 9545   4.351   7.649   7.641  0.6536 -0.5709  0.0663
   73MOL0     C 9546   4.455   7.747   7.588 -0.2158  0.5193  0.4060
   73MOL0     C 9547   4.605   7.704   7.614 -0.0549 -0.2444  0.5226
   73MOL0    Cl 9548   4.692   7.646   7.467  0.0865 -0.2310 -0.0057
   73MOL0     C 9549   3.506   7.745   7.430  0.4313  0.1617 -0.2368
   73MOL0     C 9550   3.375   7.759   7.384  0.0324 -0.6008 -0.2171
   73MOL0     O 9551   3.076   7.870   7.469 -0.3872  0.4530 -0.2119
   73MOL0     C 9552   2.821   7.875   7.372  0.3403  0.4242  0.8192
   73MOL0     C 9553   2.696   7.880   7.306  0.8301  0.0129 -0.0725
   73MOL0     N 9554   1.918   7.749   6.890  1.2349 -0.1491 -0.0209
   73MOL0     N 9555   1.804   7.716   6.955 -0.6658 -0.4378 -0.1176
   73MOL0     C 9556   1.735   8.463   7.886 -1.0865 -0.0534 -0.2996
   73MOL0     C 9557   1.765   8.603   7.873  0.9159  0.0680 -0.3840
   73MOL0     C 9558   1.812   9.041   7.727  0.6841 -0.1634 -0.1953
   73MOL0     C 9559   1.854   9.167   7.791  0.1434  0.1874  0.2837
   73MOL0     C 9560   1.859   9.291   7.725  0.6928 -0.6345 -0.7847
   73MOL0     C 9561   1.820   9.296   7.589  0.1829 -0.4835  0.2845
   73MOL0     O 9562   1.809   9.425   7.528  0.9862 -0.2894  0.1927
   73MOL0     C 9563   1.762   9.433   7.383 -0.2042 -0.0407 -1.0342
   73MOL0     C 9564   1.603   9.418   7.378 -0.3673 -0.2654  0.0246
   73MOL0     C 9565   1.524   9.549   7.395  1.1907  0.1068  0.8221
   73MOL0     C 9566   1.367   9.533   7.404  0.0783 -0.2363  0.7103
   73MOL0     C 9567   1.334   9.438   7.501  0.3179 -0.6734 -0.4425
   73MOL0     C 9568   1.312   9.356   7.585  0.7181  0.5613  0.2010
   73MOL0     C 9569   1.791   9.174   7.524 -0.2617  0.8424  0.1228
   73MOL0     C 9570   1.784   9.046   7.582 -0.1852 -0.4994  0.1096
   73MOL0     H 9571   1.591   8.652   7.586 -0.5512 -0.6544 -0.4348
   73MOL0     H 9572   1.575   8.406   7.595 -1.5423  3.5779 -2.0027
   73MOL0     H 9573   1.526   8.212   7.646  0.7802 -0.2946 -2.9356
   73MOL0     H 9574   1.593   8.086   7.751 -2.3729  1.3252 -1.5404
   73MOL0     H 9575   1.821   8.113   7.670  2.0387 -0.9389 -1.0139
   73MOL0     H 9576   1.748   8.235   7.556 -0.5580  0.0899  1.4190
   73MOL0     H 9577   1.664   7.947   7.605  0.9582  1.4765  0.7867
   73MOL0     H 9578   1.791   7.991   7.482  0.6971 -0.8298  1.3140
   73MOL0     H 9579   1.502   8.103   7.471  0.6465 -0.7178  2.4707
   73MOL0     H 9580   1.627   8.140   7.368  2.4920 -0.0893  2.4104
   73MOL0     H 9581   1.485   7.925   7.275  2.3936  0.0100 -3.1179
   73MOL0     H 9582   1.528   7.854   7.426 -1.9995  2.5999  1.3141
   73MOL0     H 9583   1.754   7.812   7.367  1.8491  0.2908 -0.4086
   73MOL0     H 9584   1.745   7.906   7.213 -1.2739  1.6224  0.6529
   73MOL0     H 9585   1.568   7.670   7.292 -1.3193 -0.3088 -1.6872
   73MOL0     H 9586   1.583   7.731   7.130  1.9159  1.4784 -0.0762
   73MOL0     H 9587   1.691   7.538   7.135 -0.4711  1.6193 -1.1096
   73MOL0     H 9588   1.792   7.596   7.271 -1.5491  0.8367  1.1733
   73MOL0     H 9589   2.034   7.656   7.182 -1.8795 -1.1780  1.7155
   73MOL0     H 9590   2.196   7.880   6.941 -0.6269  1.0151  5.2707
   73MOL0     H 9591   2.197   7.727   6.862  0.9953  2.4520 -0.5697
   73MOL0     H 9592   2.356   7.670   7.003  1.0165 -1.6001  2.4547
   73MOL0     H 9593   2.227   7.634   7.122  2.7916 -1.3357  0.5354
   73MOL0     H 9594   2.328   7.913   7.118  1.0776  2.9455  2.9413
   73MOL0     H 9595   2.217   7.834   7.225  0.7327 -1.9793 -0.3498
   73MOL0     H 9596   2.416   7.710   7.316 -1.6317  1.1739  1.3424
   73MOL0     H 9597   2.442   7.881   7.307  2.5069 -0.2696 -0.7095
   73MOL0     H 9598   2.733   7.603   7.117  1.9788 -1.6842  1.7084
   73MOL0     H 9599   2.949   7.601   7.222  1.4457  1.2326 -2.2295
   73MOL0     H 9600   3.263   7.446   7.456 -0.4350 -0.8230  1.6452
   73MOL0     H 9601   3.478   7.425   7.539  1.4248 -1.0441 -2.9192
   73MOL0     H 9602   3.752   7.781   7.575  3.0330  2.4609 -1.9132
   73MOL0     H 9603   3.763   7.718   7.407 -2.5719  1.5551  0.2673
   73MOL0     H 9604   3.969   7.741   7.487  1.2605 -0.0131  1.6148
   73MOL0     H 9605   3.926   7.570   7.464 -0.0746 -1.0664  0.6485
   73MOL0     H 9606   3.901   7.558   7.721 -0.1370  0.8698  0.8825
   73MOL0     H 9607   3.965   7.719   7.729  2.1276 -0.7329  0.4170
   73MOL0     H 9608   4.141   7.541   7.749 -3.6391 -1.8102  1.1727
   73MOL0     H 9609   4.105   7.488   7.580  0.7111  0.9715 -3.3841
   73MOL0     H 9610   4.184   7.777   7.628  1.4452  1.0707 -1.0834
   73MOL0     H 9611   4.192   7.684   7.487  0.9466  3.3501  0.0205
   73MOL0     H 9612   4.389   7.551   7.611  0.3338 -0.1936 -1.6747
   73MOL0     H 9613   4.361   7.666   7.749  1.0178  2.6978 -0.3625
   73MOL0     H 9614   4.435   7.752   7.481  0.1112 -2.0198  0.1550
   73MOL0     H 9615   4.415   7.845   7.612 -0.1857  0.9396 -1.1507
   73MOL0     H 9616   4.600   7.639   7.701 -0.3700 -2.9053 -1.3524
   73MOL0     H 9617   4.660   7.792   7.649 -0.2616  0.4873 -0.8836
   73MOL0     H 9618   3.559   7.839   7.426  0.7799  0.3611  4.2402
   73MOL0     H 9619   3.344   7.860   7.363 -0.4750 -0.8861 -0.8539
   73MOL0     H 9620   2.863   7.954   7.432  0.8297  0.5698  0.3002
   73MOL0     H 9621   2.626   7.959   7.330 -0.5976  0.2381 -4.2205
   73MOL0     H 9622   1.783   8.411   7.968 -1.2696  1.1624  0.5985
   73MOL0     H 9623   1.806   8.658   7.957 -2.5334 -1.3479  2.4874
   73MOL0     H 9624   1.878   9.149   7.896 -0.1266  0.4984  0.4012
   73MOL0     H 9625   1.878   9.384   7.778  2.0552 -0.7123 -1.1059
   73MOL0     H 9626   1.817   9.360   7.324  3.9043 -2.3650  4.7191
   73MOL0     H 9627   1.798   9.532   7.353 -1.6255  0.3816 -1.4453
   73MOL0     H 9628   1.577   9.365   7.286 -2.3013 -1.8355  1.4192
   73MOL0     H 9629   1.590   9.351   7.464  4.3026 -3.6108 -1.4598
   73MOL0     H 9630   1.542   9.620   7.313  2.6951 -0.9213  0.2122
   73MOL0     H 9631   1.565   9.588   7.489  0.6741  0.8255  0.7620
   73MOL0     H 9632   1.327   9.628   7.442  1.4305  0.7544 -0.2503
   73MOL0     H 9633   1.323   9.520   7.304  0.9951 -0.7181  0.3646
   73MOL0     H 9634   1.299   9.277   7.657 -2.2194 -0.6099 -1.4192
   73MOL0     H 9635   1.746   9.174   7.425 -0.5112 -1.0640  0.2009
   73MOL0     H 9636   1.759   8.956   7.527 -1.9966  0.0010  0.0377
   74MOL0     O 9637   7.075   8.602   2.770  0.2826 -0.4976 -0.5586
   74MOL0     C 9638   7.101   8.653   2.883 -0.7241 -0.3548  0.6822
   74MOL0     O 9639   7.051   8.625   3.005 -0.3332 -0.1462 -0.1689
   74MOL0     C 9640   6.967   8.512   3.011  1.0808 -0.2247  0.1756
   74MOL0     C 9641   7.007   8.403   3.090  0.1816 -0.5871  0.0628
   74MOL0     C 9642   6.921   8.300   3.117  0.5360 -0.0681 -0.6163
   74MOL0     C 9643   6.793   8.302   3.079 -0.6002  0.0399  0.1321
   74MOL0     O 9644   6.699   8.212   3.117  0.0786  0.1507 -0.1290
   74MOL0     C 9645   6.647   8.207   3.252 -1.0767  0.7659 -1.0072
   74MOL0     C 9646   6.617   8.341   3.314  0.1225  0.5556  0.1103
   74MOL0     C 9647   6.470   8.395   3.290 -0.8114 -0.1610 -0.1480
   74MOL0     C 9648   6.468   8.544   3.316 -0.0582  0.3507 -0.8402
   74MOL0     C 9649   6.438   8.584   3.453  0.0685  0.6018  0.5182
   74MOL0     C 9650   6.419   8.727   3.469  0.3499  0.1327  0.0684
   74MOL0     C 9651   6.448   8.770   3.610 -0.8739 -0.0677 -0.0072
   74MOL0     C 9652   6.409   8.920   3.634 -0.6110  0.7248 -0.6879
   74MOL0     N 9653   6.480   9.023   3.551  0.4494  0.3575 -0.1945
   74MOL0     C 9654   6.591   9.081   3.598  0.0747  1.6311 -1.1064
   74MOL0     C 9655   6.643   9.146   3.494  0.0694 -1.0751  0.0116
   74MOL0     C 9656   6.749   9.247   3.503  0.2245  0.8625 -0.0211
   74MOL0     C 9657   6.889   9.200   3.549 -0.0314 -0.0116  0.3205
   74MOL0     C 9658   6.957   9.117   3.438 -0.5333  0.4895 -0.2808
   74MOL0     C 9659   7.074   9.024   3.477 -0.3291 -1.2276  0.3972
   74MOL0     O 9660   7.013   8.908   3.556  0.8270 -0.6976  0.1516
   74MOL0     C 9661   7.037   8.784   3.505  0.2214 -0.7838 -0.0274
   74MOL0     C 9662   7.163   8.732   3.540 -0.6272 -0.8829  0.1743
   74MOL0     C 9663   7.188   8.597   3.519 -0.4269 -0.2289 -0.1705
   74MOL0     C 9664   7.091   8.508   3.476  0.3561  0.6782 -1.0291
   74MOL0     C 9665   7.104   8.362   3.458 -0.8259 -0.4722  0.0879
   74MOL0     O 9666   6.992   8.275   3.453 -0.5868  0.1978  0.4335
   74MOL0     C 9667   7.012   8.153   3.494  0.8589 -0.3915 -0.4635
   74MOL0     C 9668   7.059   8.138   3.619 -1.8799  0.1289 -0.1706
   74MOL0     C 9669   7.091   8.009   3.674 -0.6934 -0.1882  0.6336
   74MOL0     C 9670   7.097   7.901   3.590  0.6170 -0.3875  0.6241
   74MOL0     O 9671   7.123   7.781   3.641 -0.2708  0.3096 -0.2536
   74MOL0     C 9672   7.230   7.698   3.583  0.0403 -0.4876  0.2862
   74MOL0     C 9673   7.164   7.595   3.482  0.3253  0.2363  0.7558
   74MOL0     C 9674   7.045   7.512   3.549  0.5432  0.4361 -0.4962
   74MOL0     C 9675   7.027   7.384   3.475 -0.6101  0.1496  0.0168
   74MOL0     C 9676   6.975   7.399   3.330 -0.3404 -0.0083  0.5710
   74MOL0     C 9677   6.888   7.288   3.281  0.3735  0.3041 -0.7735
   74MOL0     C 9678   6.805   7.324   3.158 -1.1292 -0.9366  0.8958
   74MOL0     C 9679   6.711   7.217   3.116 -0.0022  0.6288 -0.0636
   74MOL0    Cl 9680   6.811   7.078   3.044 -0.0499 -0.1608  0.0591
   74MOL0     C 9681   7.051   7.913   3.456  0.1044 -0.4277 -0.3938
   74MOL0     C 9682   6.997   8.038   3.409 -0.3234 -0.0122 -1.7240
   74MOL0     O 9683   7.222   8.322   3.459 -0.3385 -0.0270  0.6968
   74MOL0     C 9684   6.967   8.558   3.454  0.2467 -0.1248 -0.2856
   74MOL0     C 9685   6.937   8.698   3.463  0.5813 -0.6534  0.2586
   74MOL0     N 9686   6.553   9.142   3.387  0.6698 -0.2762 -0.5731
   74MOL0     N 9687   6.458   9.067   3.425  0.4817 -0.1183 -0.2825
   74MOL0     C 9688   6.748   8.412   3.004 -0.0208 -0.4506 -0.8313
   74MOL0     C 9689   6.831   8.523   2.968 -0.2042 -1.4631  0.1020
   74MOL0     C 9690   7.200   8.761   2.882  0.6874  0.3202  0.8630
   74MOL0     C 9691   7.226   8.832   2.763 -0.5401 -0.4715  0.1135
   74MOL0     C 9692   7.325   8.928   2.758  0.0660 -0.0881 -0.1541
   74MOL0     C 9693   7.408   8.949   2.868  0.5479  0.6343  0.2570
   74MOL0     O 9694   7.511   9.040   2.849  0.1016  0.2976 -0.5050
   74MOL0     C 9695   7.554   9.123   2.956  0.5441  1.1226 -0.2924
   74MOL0     C 9696   7.593   9.264   2.912 -0.6642 -0.4422 -0.5200
   74MOL0     C 9697   7.730   9.282   2.833 -0.4357 -0.1207  0.4632
   74MOL0     C 9698   7.717   9.368   2.709  0.7389 -0.3547  0.4595
   74MOL0     C 9699   7.733   9.513   2.737  0.2710 -0.6947 -0.0669
   74MOL0     C 9700   7.734   9.626   2.785 -1.1831 -0.5752 -0.3825
   74MOL0     C 9701   7.380   8.884   2.986 -0.8830  0.2846  0.0987
   74MOL0     C 9702   7.275   8.794   2.998 -0.2336 -0.8275  0.4316
   74MOL0     H 9703   7.103   8.403   3.141  0.4677  0.3917 -0.4489
   74MOL0     H 9704   6.943   8.206   3.166 -3.5332 -0.8836  0.0182
   74MOL0     H 9705   6.716   8.163   3.324 -1.1878  1.3769 -0.5190
   74MOL0     H 9706   6.568   8.131   3.262  0.1646 -0.5545 -0.9969
   74MOL0     H 9707   6.696   8.412   3.288  2.8270 -1.7959  1.4105
   74MOL0     H 9708   6.623   8.318   3.421 -0.2295 -2.0973 -0.3815
   74MOL0     H 9709   6.399   8.339   3.350 -0.3163 -2.0026 -1.1826
   74MOL0     H 9710   6.447   8.384   3.183  2.8119 -1.4254 -0.9729
   74MOL0     H 9711   6.568   8.577   3.287  1.4277 -4.9641 -2.9384
   74MOL0     H 9712   6.386   8.579   3.254 -0.9159 -1.2599 -0.6813
   74MOL0     H 9713   6.524   8.549   3.511  1.0655  2.6471  0.3626
   74MOL0     H 9714   6.353   8.527   3.492  0.3496 -0.3579 -0.2409
   74MOL0     H 9715   6.313   8.741   3.447  0.0020 -1.4657  0.6687
   74MOL0     H 9716   6.484   8.790   3.407  3.2451 -0.6919  2.0405
   74MOL0     H 9717   6.393   8.705   3.677 -1.4389  0.6148  0.1968
   74MOL0     H 9718   6.556   8.757   3.622 -0.8418 -0.0922 -0.3015
   74MOL0     H 9719   6.416   8.943   3.740 -0.7347 -0.7345 -0.3355
   74MOL0     H 9720   6.307   8.950   3.610 -0.8376  0.9353  0.5086
   74MOL0     H 9721   6.632   9.077   3.699  1.2781 -2.1862 -1.6081
   74MOL0     H 9722   6.717   9.336   3.557 -0.2212 -0.4000  1.9010
   74MOL0     H 9723   6.765   9.274   3.398 -6.3929  2.4114 -1.0706
   74MOL0     H 9724   6.884   9.129   3.632  1.9096  2.4529  2.7359
   74MOL0     H 9725   6.961   9.278   3.578 -1.0693  0.3485  2.1309
   74MOL0     H 9726   6.885   9.049   3.391 -2.0510  0.0598  2.4377
   74MOL0     H 9727   6.993   9.191   3.366 -1.1968 -0.0781 -1.2133
   74MOL0     H 9728   7.153   9.075   3.532  0.9257 -2.2687 -0.3687
   74MOL0     H 9729   7.118   8.987   3.384 -1.7949 -1.3656 -0.2729
   74MOL0     H 9730   7.238   8.791   3.591 -0.5014 -0.2697 -0.6999
   74MOL0     H 9731   7.277   8.549   3.558 -0.1662  1.7829  1.8983
   74MOL0     H 9732   7.069   8.225   3.684 -0.8346 -0.8541  1.0534
   74MOL0     H 9733   7.124   8.012   3.777 -2.1636  1.9775  1.1053
   74MOL0     H 9734   7.293   7.642   3.652 -1.9398  0.0366  2.6621
   74MOL0     H 9735   7.295   7.764   3.525 -1.3541  1.5677  0.9720
   74MOL0     H 9736   7.243   7.523   3.461  0.3476  0.1670  1.0852
   74MOL0     H 9737   7.136   7.638   3.385  2.7287 -1.4883 -0.8057
   74MOL0     H 9738   6.960   7.580   3.563  1.3302  1.5869 -1.1417
   74MOL0     H 9739   7.077   7.487   3.651  2.5777  1.0882 -0.9319
   74MOL0     H 9740   7.122   7.330   3.479 -1.1719 -0.9015  4.6515
   74MOL0     H 9741   6.965   7.325   3.543  1.1056  0.5514  2.0298
   74MOL0     H 9742   7.062   7.404   3.264 -1.4606 -2.0063 -1.1329
   74MOL0     H 9743   6.912   7.488   3.320 -1.0744 -0.8251 -3.9498
   74MOL0     H 9744   6.814   7.272   3.361  1.5220 -4.2137 -0.3316
   74MOL0     H 9745   6.939   7.194   3.259 -1.5421 -1.8125  2.7621
   74MOL0     H 9746   6.746   7.415   3.173  0.6159  0.9741 -2.6114
   74MOL0     H 9747   6.867   7.347   3.071 -2.2787 -2.6735 -0.4396
   74MOL0     H 9748   6.644   7.250   3.036 -1.1579  2.2270  1.4840
   74MOL0     H 9749   6.642   7.189   3.197  0.6043  1.5963  0.8248
   74MOL0     H 9750   7.043   7.826   3.392  1.1067 -0.0189 -1.1164
   74MOL0     H 9751   6.966   8.039   3.305 -1.2025 -2.1117 -1.5435
   74MOL0     H 9752   6.894   8.487   3.416 -1.1217  2.2321 -2.3261
   74MOL0     H 9753   6.836   8.734   3.445 -0.2069 -2.0652  1.6442
   74MOL0     H 9754   6.640   8.411   2.992 -0.5353 -0.6680  2.7580
   74MOL0     H 9755   6.784   8.606   2.917  3.4826  0.1307 -0.9960
   74MOL0     H 9756   7.174   8.797   2.674  3.3708 -4.0143 -1.0975
   74MOL0     H 9757   7.327   8.993   2.671 -3.1877  0.7408  0.2542
   74MOL0     H 9758   7.636   9.075   3.010  0.9346  3.8625  1.7151
   74MOL0     H 9759   7.478   9.141   3.032  0.5864 -2.1355  0.6917
   74MOL0     H 9760   7.508   9.307   2.859  0.0177 -0.7255 -1.9047
   74MOL0     H 9761   7.597   9.334   2.997 -3.3446 -1.6592  0.7227
   74MOL0     H 9762   7.775   9.187   2.802  4.8727  0.4932  4.8211
   74MOL0     H 9763   7.808   9.335   2.887  0.3590 -0.1502 -0.6228
   74MOL0     H 9764   7.797   9.344   2.638  3.2616 -1.3877  3.4204
   74MOL0     H 9765   7.620   9.351   2.661  2.5698  0.7156 -4.0769
   74MOL0     H 9766   7.739   9.733   2.791 -0.9331 -0.6443  0.7886
   74MOL0     H 9767   7.432   8.918   3.074 -2.4124 -2.4970  2.2375
   74MOL0     H 9768   7.248   8.766   3.099 -0.8762 -0.6467  0.3137
   75MOL0     O 9769  11.406   8.821   6.834  0.0691  0.6637  0.0762
   75MOL0     C 9770  11.447   8.704   6.840 -0.5581  0.3758 -0.5263
   75MOL0     O 9771  11.558   8.650   6.906  0.0715 -0.5880  0.3020
   75MOL0     C 9772  11.643   8.724   6.992  0.4051  0.2594  0.6315
   75MOL0     C 9773  11.729   8.642   7.083 -1.2952  0.5963  0.4318
   75MOL0     C 9774  11.827   8.699   7.162  0.9346  0.2152 -0.1516
   75MOL0     C 9775  11.833   8.837   7.164 -0.2495 -0.5910 -0.9550
   75MOL0     O 9776  11.908   8.915   7.248  0.2747  0.2654 -0.0387
   75MOL0     C 9777  11.869   8.911   7.389  0.2339 -0.8527  0.4738
   75MOL0     C 9778  11.746   8.992   7.406  0.7385 -1.3903 -0.3708
   75MOL0     C 9779  11.691   8.984   7.551 -0.3250  0.7301  0.2499
   75MOL0     C 9780  11.562   9.054   7.560  0.6217  0.2971  0.4081
   75MOL0     C 9781  11.482   9.025   7.691 -0.9618  0.4685 -0.6694
   75MOL0     C 9782  11.556   9.094   7.807 -1.0374 -1.1632 -0.0948
   75MOL0     C 9783  11.460   9.101   7.927 -0.4638  0.4235  0.5043
   75MOL0     C 9784  11.363   9.227   7.916 -0.8388 -0.4151 -0.1065
   75MOL0     N 9785  11.271   9.206   7.799  0.0702  0.2061  0.0237
   75MOL0     C 9786  11.247   9.319   7.723  0.4885  0.2565 -0.4469
   75MOL0     C 9787  11.144   9.286   7.641  0.4400  0.9896  0.0423
   75MOL0     C 9788  11.087   9.387   7.540 -0.4426 -0.4816  0.3398
   75MOL0     C 9789  11.166   9.391   7.409  0.3831  0.0221 -0.6644
   75MOL0     C 9790  11.130   9.268   7.324  0.3989  0.1578 -0.6793
   75MOL0     C 9791  10.984   9.245   7.309  0.1936 -0.1772  0.0787
   75MOL0     O 9792  10.967   9.185   7.179 -0.2719  0.4522 -0.7869
   75MOL0     C 9793  10.848   9.191   7.126  0.2038 -0.1208  0.9750
   75MOL0     C 9794  10.735   9.238   7.191 -0.6936  0.4098  0.4876
   75MOL0     C 9795  10.616   9.250   7.123  0.2116 -0.2766 -0.5253
   75MOL0     C 9796  10.612   9.235   6.984 -0.5027  0.6060  0.2341
   75MOL0     C 9797  10.484   9.248   6.913 -0.0651 -0.1801  0.0869
   75MOL0     O 9798  10.481   9.293   6.784 -0.5479 -0.7403 -0.2346
   75MOL0     C 9799  10.358   9.295   6.724 -0.4672 -0.1077  0.0545
   75MOL0     C 9800  10.260   9.183   6.734 -0.0574 -0.3208  0.6991
   75MOL0     C 9801  10.140   9.196   6.671 -0.0395  0.7363  0.3590
   75MOL0     C 9802  10.106   9.303   6.598 -0.8405 -0.1714 -0.1000
   75MOL0     O 9803   9.982   9.293   6.537 -0.1189  0.0006 -0.3161
   75MOL0     C 9804   9.944   9.406   6.464 -0.4453 -0.4874  0.2067
   75MOL0     C 9805   9.800   9.399   6.418  0.4911  0.3478  0.6951
   75MOL0     C 9806   9.752   9.523   6.339  0.2382 -0.1966 -0.3037
   75MOL0     C 9807   9.770   9.512   6.189  0.6598 -0.5512  0.1007
   75MOL0     C 9808   9.702   9.631   6.120 -1.4775  0.0940 -0.1944
   75MOL0     C 9809   9.686   9.603   5.973 -0.1311  0.6719  0.2968
   75MOL0     C 9810   9.605   9.714   5.910 -0.6575  0.2700  0.7549
   75MOL0     C 9811   9.557   9.687   5.770 -0.0558 -0.6596 -0.3598
   75MOL0    Cl 9812   9.489   9.843   5.698  0.6796 -0.2066 -0.9052
   75MOL0     C 9813  10.200   9.409   6.581 -0.3870  0.5185  0.2591
   75MOL0     C 9814  10.324   9.402   6.645 -0.0086 -0.0610  0.1209
   75MOL0     O 9815  10.390   9.242   6.981  0.0377 -0.3688 -0.0107
   75MOL0     C 9816  10.724   9.194   6.921 -0.6106  0.2472 -0.0916
   75MOL0     C 9817  10.835   9.171   6.996 -0.9768 -0.2721 -1.1965
   75MOL0     N 9818  11.116   9.147   7.653 -0.1760  0.3653 -0.5249
   75MOL0     N 9819  11.182   9.110   7.764 -0.3160  0.0856 -0.0733
   75MOL0     C 9820  11.764   8.916   7.064  0.3906  0.2262  0.1943
   75MOL0     C 9821  11.662   8.865   6.991 -0.6969 -0.4489 -0.0850
   75MOL0     C 9822  11.368   8.608   6.756  0.8554 -0.1277 -0.9162
   75MOL0     C 9823  11.293   8.644   6.647 -0.0977 -0.4475  0.6478
   75MOL0     C 9824  11.206   8.549   6.585 -0.4131 -0.3679  0.3133
   75MOL0     C 9825  11.204   8.416   6.633  0.4154 -0.4675  0.2524
   75MOL0     O 9826  11.125   8.332   6.554  0.5722 -0.0579 -0.3356
   75MOL0     C 9827  11.093   8.197   6.581  0.1605 -0.7108  0.2410
   75MOL0     C 9828  11.074   8.123   6.450  0.5544 -0.1589 -0.0300
   75MOL0     C 9829  11.209   8.102   6.378  0.2036  0.4871 -0.2441
   75MOL0     C 9830  11.196   8.071   6.233 -1.1335 -0.5144 -0.6576
   75MOL0     C 9831  11.158   7.930   6.233 -0.0678  0.1097 -0.5847
   75MOL0     C 9832  11.129   7.810   6.240 -0.3928  0.1918  0.2927
   75MOL0     C 9833  11.288   8.378   6.738  0.1537 -0.5849  0.1393
   75MOL0     C 9834  11.362   8.473   6.806  0.7923  0.1373  1.1873
   75MOL0     H 9835  11.727   8.534   7.081 -2.6143  0.6003  0.4181
   75MOL0     H 9836  11.894   8.644   7.227  3.4435  2.0673 -1.0357
   75MOL0     H 9837  11.947   8.960   7.448 -1.2159  2.4083 -0.0786
   75MOL0     H 9838  11.857   8.809   7.427  0.6297 -1.1646 -0.2259
   75MOL0     H 9839  11.666   8.954   7.341 -0.3502 -1.4893  0.9884
   75MOL0     H 9840  11.767   9.097   7.384  0.7992 -2.0439 -4.0741
   75MOL0     H 9841  11.776   9.021   7.609  1.3017  0.0644 -1.5820
   75MOL0     H 9842  11.688   8.877   7.576 -2.7503  0.2522 -1.7053
   75MOL0     H 9843  11.567   9.162   7.546 -0.8582  0.4004  0.5188
   75MOL0     H 9844  11.496   9.016   7.482 -1.0986 -2.0333  2.7969
   75MOL0     H 9845  11.486   8.917   7.707 -1.3110  0.7638  1.8833
   75MOL0     H 9846  11.375   9.038   7.675 -1.5667 -0.0784  2.3375
   75MOL0     H 9847  11.582   9.194   7.772 -0.7753 -1.7310 -1.6015
   75MOL0     H 9848  11.646   9.036   7.826 -0.7941 -1.0130 -0.7502
   75MOL0     H 9849  11.403   9.008   7.928 -0.1872  0.0931 -2.9180
   75MOL0     H 9850  11.517   9.111   8.020  0.4268 -0.5411  0.0780
   75MOL0     H 9851  11.422   9.316   7.894  0.3850 -1.6071 -1.9696
   75MOL0     H 9852  11.311   9.245   8.010 -1.2323 -1.1334 -0.1805
   75MOL0     H 9853  11.300   9.413   7.738  1.4138 -0.2090 -0.6861
   75MOL0     H 9854  11.103   9.483   7.589  1.1385 -0.7417  0.4101
   75MOL0     H 9855  10.979   9.380   7.527 -0.5844  1.6641  0.1428
   75MOL0     H 9856  11.275   9.400   7.415  0.1696  5.7218  0.2631
   75MOL0     H 9857  11.132   9.485   7.364 -1.9289 -0.8720 -0.9150
   75MOL0     H 9858  11.178   9.275   7.226  0.9310 -1.1216 -0.5241
   75MOL0     H 9859  11.179   9.179   7.364  1.3960  1.1319  0.3255
   75MOL0     H 9860  10.932   9.341   7.305 -0.1151 -0.1374  2.9800
   75MOL0     H 9861  10.948   9.174   7.384 -0.0327  0.7006  0.8260
   75MOL0     H 9862  10.738   9.255   7.298 -0.9050  0.0406  0.5560
   75MOL0     H 9863  10.527   9.274   7.180  1.8338  0.7171  1.7468
   75MOL0     H 9864  10.294   9.092   6.781  3.6238 -0.0295 -0.9837
   75MOL0     H 9865  10.069   9.115   6.684  0.9011 -0.3020 -0.6450
   75MOL0     H 9866  10.020   9.428   6.389  0.9772  2.2298  2.2411
   75MOL0     H 9867   9.959   9.495   6.526 -1.1235  0.1158 -0.4877
   75MOL0     H 9868   9.740   9.396   6.509  1.0876  1.2807  1.1389
   75MOL0     H 9869   9.780   9.303   6.369  1.1790 -0.4677  1.9645
   75MOL0     H 9870   9.802   9.605   6.390 -0.1825  0.4010 -0.8322
   75MOL0     H 9871   9.648   9.539   6.370  0.9242  2.7204  0.7688
   75MOL0     H 9872   9.878   9.518   6.173  0.3999  2.5025 -1.2528
   75MOL0     H 9873   9.733   9.423   6.137 -0.3448  0.3585 -0.8217
   75MOL0     H 9874   9.768   9.714   6.146 -1.1839 -0.0839 -0.3680
   75MOL0     H 9875   9.604   9.659   6.159 -3.1669 -0.9522 -3.3297
   75MOL0     H 9876   9.648   9.505   5.943  0.7043  1.0843 -2.3687
   75MOL0     H 9877   9.781   9.595   5.920 -0.5221  0.1077 -0.3486
   75MOL0     H 9878   9.512   9.725   5.967 -1.2816  1.2820 -0.4192
   75MOL0     H 9879   9.667   9.804   5.905  0.2058 -0.3102  0.7362
   75MOL0     H 9880   9.474   9.617   5.775  0.1144 -0.8801 -0.6160
   75MOL0     H 9881   9.646   9.659   5.713 -1.0786 -1.6699 -1.5197
   75MOL0     H 9882  10.162   9.495   6.527  0.3805 -0.3418 -1.7407
   75MOL0     H 9883  10.401   9.479   6.646  3.2134 -3.0316 -1.1177
   75MOL0     H 9884  10.726   9.173   6.815 -2.0006 -1.6690  0.2144
   75MOL0     H 9885  10.915   9.137   6.931  0.7370 -0.6287  0.9958
   75MOL0     H 9886  11.794   9.020   7.070 -0.1938  0.5317 -1.6287
   75MOL0     H 9887  11.609   8.936   6.928  1.8709 -0.4726 -2.4490
   75MOL0     H 9888  11.271   8.743   6.610  0.2992 -0.4412  0.4114
   75MOL0     H 9889  11.142   8.588   6.506  1.6868 -0.5142 -1.5535
   75MOL0     H 9890  11.000   8.191   6.638 -0.7522 -0.5971 -1.1670
   75MOL0     H 9891  11.161   8.144   6.648 -0.3864 -1.4294  0.2411
   75MOL0     H 9892  11.028   8.025   6.464  0.0566  0.3013  1.8075
   75MOL0     H 9893  11.007   8.187   6.393  1.9491  1.2455 -0.1716
   75MOL0     H 9894  11.269   8.021   6.420  0.2899  0.8117  0.2681
   75MOL0     H 9895  11.259   8.199   6.392  0.4715  0.5933 -1.7859
   75MOL0     H 9896  11.123   8.143   6.195 -1.2464  0.2491  0.9604
   75MOL0     H 9897  11.299   8.089   6.202 -0.6263 -1.1726  0.5851
   75MOL0     H 9898  11.101   7.707   6.232  0.3285 -0.0573  0.9062
   75MOL0     H 9899  11.285   8.273   6.766 -1.5005 -0.2979  1.1653
   75MOL0     H 9900  11.420   8.422   6.881  1.5070 -0.4310  0.2690
   76MOL0     O 9901   7.995  10.599   3.793 -0.6292  0.3315  0.2682
   76MOL0     C 9902   7.993  10.664   3.689  0.6839 -0.9075 -0.2919
   76MOL0     O 9903   8.003  10.615   3.564  0.4780  0.1730 -0.0551
   76MOL0     C 9904   8.038  10.477   3.554 -0.3424 -0.9061 -0.0395
   76MOL0     C 9905   8.144  10.423   3.630 -1.2783  0.3470  0.1913
   76MOL0     C 9906   8.173  10.283   3.626 -0.1265  0.4256  0.0597
   76MOL0     C 9907   8.085  10.195   3.564  0.0182  0.5340 -0.5911
   76MOL0     O 9908   8.119  10.059   3.562  0.4049 -0.2075  0.1177
   76MOL0     C 9909   8.019   9.965   3.509  0.2590  0.2971  0.4082
   76MOL0     C 9910   8.074   9.824   3.489 -0.8773  0.4369 -0.2437
   76MOL0     C 9911   8.137   9.775   3.630  0.8851  0.2732  0.6100
   76MOL0     C 9912   8.216   9.644   3.611  0.2228  0.4986 -0.1907
   76MOL0     C 9913   8.279   9.605   3.740 -0.6986 -0.3027 -1.2761
   76MOL0     C 9914   8.231   9.477   3.799  0.2352  0.0809  0.6169
   76MOL0     C 9915   8.287   9.449   3.940 -0.1758 -0.6006  0.3000
   76MOL0     C 9916   8.428   9.395   3.928  0.5838 -0.3987 -0.9289
   76MOL0     N 9917   8.478   9.348   4.057 -0.0719 -1.3176 -0.4618
   76MOL0     C 9918   8.476   9.217   4.104 -0.5314  0.0704 -0.5996
   76MOL0     C 9919   8.521   9.230   4.233  0.1654 -0.9753  0.4878
   76MOL0     C 9920   8.531   9.114   4.323 -0.2897 -0.7821  0.1260
   76MOL0     C 9921   8.608   9.142   4.463 -0.0362 -0.3557 -0.6543
   76MOL0     C 9922   8.661   9.017   4.536 -0.8387  0.2796  1.1031
   76MOL0     C 9923   8.778   8.931   4.473  0.2625 -0.7762 -0.5761
   76MOL0     O 9924   8.733   8.879   4.348 -0.6833  0.4859  0.4077
   76MOL0     C 9925   8.829   8.813   4.261  0.2829 -0.1278  0.1927
   76MOL0     C 9926   8.960   8.784   4.296  0.0290 -0.2854  0.1788
   76MOL0     C 9927   9.048   8.704   4.214  0.6298  0.2291 -0.1814
   76MOL0     C 9928   9.004   8.672   4.079  0.7527  0.4087 -0.7616
   76MOL0     C 9929   9.091   8.611   3.976 -0.4537  0.4971  0.1040
   76MOL0     O 9930   9.216   8.577   4.016  0.1289  0.1033 -0.0889
   76MOL0     C 9931   9.289   8.498   3.939 -0.5850 -0.4461  0.3943
   76MOL0     C 9932   9.411   8.546   3.882  0.3581 -0.6364 -0.6130
   76MOL0     C 9933   9.490   8.474   3.798  0.3681 -0.1662 -0.0502
   76MOL0     C 9934   9.449   8.341   3.772 -0.6758 -0.1527 -0.0512
   76MOL0     O 9935   9.523   8.253   3.692  0.4164  0.2108 -0.0326
   76MOL0     C 9936   9.660   8.298   3.649  0.0750 -0.3818 -0.3182
   76MOL0     C 9937   9.729   8.183   3.564  0.0933  1.2924 -0.1004
   76MOL0     C 9938   9.637   8.118   3.458  0.7766 -0.1380  0.4436
   76MOL0     C 9939   9.606   8.214   3.335 -0.5844  0.4660  0.7299
   76MOL0     C 9940   9.530   8.140   3.226 -0.2156  0.0755  0.4465
   76MOL0     C 9941   9.450   8.241   3.140  0.5290 -0.6338 -0.8334
   76MOL0     C 9942   9.411   8.174   3.012  0.5493  1.0137  0.2229
   76MOL0     C 9943   9.526   8.149   2.910 -0.1470 -0.2895  0.6800
   76MOL0    Cl 9944   9.432   8.105   2.753  0.3600 -0.2300 -0.3588
   76MOL0     C 9945   9.330   8.299   3.812  0.3621 -0.5769 -0.5079
   76MOL0     C 9946   9.245   8.372   3.892 -0.3627 -0.3954 -0.5821
   76MOL0     O 9947   9.046   8.605   3.861 -0.2408  0.0846  0.0209
   76MOL0     C 9948   8.865   8.704   4.047 -0.7446 -0.1623 -0.3088
   76MOL0     C 9949   8.789   8.785   4.129 -0.0323  0.0911 -0.5918
   76MOL0     N 9950   8.541   9.363   4.264  0.0521 -0.2029 -0.2683
   76MOL0     N 9951   8.511   9.431   4.156  0.0973  1.2338 -0.7187
   76MOL0     C 9952   7.974  10.249   3.497  1.8438 -0.5816 -0.6551
   76MOL0     C 9953   7.947  10.390   3.488 -0.9380  0.0295  0.3886
   76MOL0     C 9954   7.976  10.814   3.700 -1.2556  0.6456  0.2306
   76MOL0     C 9955   7.984  10.906   3.585 -0.4500  0.5340 -0.0833
   76MOL0     C 9956   7.989  11.038   3.602 -0.1725  0.1478  0.1052
   76MOL0     C 9957   7.980  11.097   3.728  0.5643 -0.5295 -1.6607
   76MOL0     O 9958   7.997  11.236   3.728 -0.0863  0.0595  0.3328
   76MOL0     C 9959   8.002  11.303   3.855  0.3261 -0.1802  0.2049
   76MOL0     C 9960   8.018  11.455   3.832 -0.8179  0.1004  0.0466
   76MOL0     C 9961   7.896  11.510   3.772 -0.2726 -0.6049 -0.5611
   76MOL0     C 9962   7.847  11.636   3.840  1.2992  0.1193  0.2748
   76MOL0     C 9963   7.925  11.759   3.801 -0.5455 -0.0607 -0.0489
   76MOL0     C 9964   7.983  11.867   3.771  0.3642 -0.8356 -0.7202
   76MOL0     C 9965   7.980  11.012   3.849  0.0215  1.2095  0.0131
   76MOL0     C 9966   7.977  10.870   3.831 -0.8290  0.2476 -0.0272
   76MOL0     H 9967   8.219  10.479   3.685 -0.7976 -1.2277  1.2158
   76MOL0     H 9968   8.258  10.236   3.674 -1.3599 -0.7170  1.1732
   76MOL0     H 9969   7.996  10.005   3.409  0.8605  1.4500  0.7084
   76MOL0     H 9970   7.923   9.969   3.561  0.6418 -1.5784  1.3209
   76MOL0     H 9971   8.150   9.817   3.411  1.5580 -1.0123  2.0942
   76MOL0     H 9972   7.996   9.754   3.458  1.8211 -2.0705 -1.7531
   76MOL0     H 9973   8.053   9.751   3.696 -3.4258 -2.0253 -4.8976
   76MOL0     H 9974   8.197   9.853   3.678  1.7610 -0.8041  1.3467
   76MOL0     H 9975   8.166   9.559   3.564  1.7486 -0.9498  0.6875
   76MOL0     H 9976   8.294   9.673   3.540  2.9384 -1.8149  1.5741
   76MOL0     H 9977   8.252   9.676   3.818  0.4947 -1.5052  0.2813
   76MOL0     H 9978   8.388   9.611   3.738 -0.6240  1.8229  1.8682
   76MOL0     H 9979   8.245   9.398   3.724  0.5920 -0.7230  1.5200
   76MOL0     H 9980   8.123   9.494   3.812 -0.0307  1.7712 -2.6550
   76MOL0     H 9981   8.279   9.527   4.016  2.8868  0.9031 -0.7430
   76MOL0     H 9982   8.237   9.359   3.979 -0.1522 -0.0557  1.6319
   76MOL0     H 9983   8.497   9.473   3.893 -1.5286  1.6340 -0.7934
   76MOL0     H 9984   8.427   9.305   3.866  2.8279 -1.6509  0.7018
   76MOL0     H 9985   8.443   9.126   4.056 -2.8440  0.7572 -0.4371
   76MOL0     H 9986   8.572   9.025   4.274 -1.0403 -0.8436 -0.3906
   76MOL0     H 9987   8.432   9.075   4.345 -1.7837  2.5578 -0.1457
   76MOL0     H 9988   8.536   9.192   4.528  0.0079  0.8255 -1.4719
   76MOL0     H 9989   8.684   9.221   4.468 -1.9171  1.4517  2.5742
   76MOL0     H 9990   8.682   9.028   4.643  2.9425  1.3378  0.3872
   76MOL0     H 9991   8.572   8.954   4.541 -3.1930  2.8810 -2.7097
   76MOL0     H 9992   8.790   8.846   4.540 -0.0395 -0.1812  0.2555
   76MOL0     H 9993   8.871   8.987   4.458  0.7428 -1.3013  0.3681
   76MOL0     H 9994   9.005   8.805   4.393  0.0843  2.8539 -0.4260
   76MOL0     H 9995   9.143   8.674   4.258  0.3279 -2.5132 -1.1893
   76MOL0     H 9996   9.446   8.645   3.910  2.0499 -1.3607 -0.0307
   76MOL0     H 9997   9.580   8.517   3.755 -0.5865  2.0870  0.0873
   76MOL0     H 9998   9.724   8.341   3.727  1.7217  1.8506 -2.7517
   76MOL0     H 9999   9.652   8.388   3.588 -2.4691  0.2720  0.8278
   76MOL0     H10000   9.767   8.111   3.637 -0.4007  2.2632  1.1620
   76MOL0     H10001   9.819   8.216   3.513 -0.3956  1.4402 -0.8837
   76MOL0     H10002   9.543   8.082   3.501  0.9774  0.4862  1.4397
   76MOL0     H10003   9.680   8.025   3.419 -0.0050 -1.9811  3.6065
   76MOL0     H10004   9.544   8.299   3.367 -3.4014 -0.0969 -2.6401
   76MOL0     H10005   9.704   8.235   3.291 -0.3505  0.4195  1.2239
   76MOL0     H10006   9.479   8.046   3.251  2.7877 -1.5692  0.9403
   76MOL0     H10007   9.602   8.098   3.155 -0.1737 -0.6562  0.9172
   76MOL0     H10008   9.501   8.335   3.117 -0.2771  0.0867  0.2245
   76MOL0     H10009   9.358   8.278   3.187  1.3792  0.6236 -0.1166
   76MOL0     H10010   9.361   8.078   3.026  0.6613  0.6111 -1.8164
   76MOL0     H10011   9.329   8.230   2.967 -1.5651 -1.2898  0.9777
   76MOL0     H10012   9.594   8.065   2.927 -1.2399 -1.6655 -1.3538
   76MOL0     H10013   9.592   8.234   2.892  0.1158 -0.4308  0.9489
   76MOL0     H10014   9.295   8.202   3.781  1.9752 -0.9798 -1.1835
   76MOL0     H10015   9.146   8.336   3.917 -1.6033  2.5265 -0.9686
   76MOL0     H10016   8.818   8.686   3.950 -0.0017 -0.1999 -0.6689
   76MOL0     H10017   8.687   8.807   4.097 -0.7074 -4.5117 -2.2924
   76MOL0     H10018   7.904  10.193   3.435 -1.3785  0.9000  1.3809
   76MOL0     H10019   7.861  10.435   3.440 -1.7005 -0.7848  0.9764
   76MOL0     H10020   7.997  10.868   3.484 -0.0432 -3.2036  1.1929
   76MOL0     H10021   8.010  11.110   3.524 -1.5980 -0.0955 -0.5252
   76MOL0     H10022   8.097  11.272   3.901  1.7493  0.4661 -2.1158
   76MOL0     H10023   7.921  11.277   3.923  0.5911  0.0999  0.6301
   76MOL0     H10024   8.021  11.504   3.929 -2.5180 -1.5900  1.0096
   76MOL0     H10025   8.112  11.482   3.782  1.2981 -2.0166  2.6250
   76MOL0     H10026   7.806  11.450   3.788 -1.0843  1.3312  3.7589
   76MOL0     H10027   7.910  11.524   3.665 -1.6228  2.0425 -0.4666
   76MOL0     H10028   7.744  11.648   3.804  0.7984  1.0291  1.9004
   76MOL0     H10029   7.841  11.620   3.949  3.5023 -0.5824  0.3298
   76MOL0     H10030   8.036  11.955   3.742 -2.3132  1.2655  0.3573
   76MOL0     H10031   7.973  11.051   3.950  0.6736 -0.4405  0.7241
   76MOL0     H10032   7.965  10.800   3.914 -2.3215 -2.4168 -2.3192
   77MOL0     O10033   8.769   4.633   6.610  1.1808  0.5151 -1.2521
   77MOL0     C10034   8.707   4.723   6.560 -0.4842 -0.4287 -0.1197
   77MOL0     O10035   8.748   4.836   6.485  0.0110  0.2094 -0.2081
   77MOL0     C10036   8.886   4.855   6.476 -0.1075  0.0055 -0.0561
   77MOL0     C10037   8.968   4.892   6.582 -0.2393 -0.1615 -0.5302
   77MOL0     C10038   9.098   4.911   6.560  0.2511 -0.4576 -0.2705
   77MOL0     C10039   9.156   4.880   6.435  2.0035  0.3262  0.3106
   77MOL0     O10040   9.287   4.897   6.396 -0.5206  0.9415 -0.3162
   77MOL0     C10041   9.367   4.962   6.490  0.6311 -0.4196 -0.2160
   77MOL0     C10042   9.509   4.930   6.442 -0.4013  0.2201 -0.3269
   77MOL0     C10043   9.565   4.793   6.475  0.2931  0.2636 -0.4971
   77MOL0     C10044   9.700   4.767   6.435 -0.2911 -0.5434 -0.3385
   77MOL0     C10045   9.752   4.638   6.488 -0.4757 -1.1397 -0.1493
   77MOL0     C10046   9.899   4.638   6.478  0.3638  0.6046  0.2978
   77MOL0     C10047   9.947   4.649   6.340  0.9457  0.4253 -0.3819
   77MOL0     C10048  10.091   4.582   6.308  0.1147 -0.1304 -0.5387
   77MOL0     N10049  10.117   4.446   6.360 -1.1162  0.6501  0.3838
   77MOL0     C10050  10.235   4.412   6.426  0.1243 -1.0051 -0.0420
   77MOL0     C10051  10.223   4.275   6.427 -0.0282  0.3787  0.5918
   77MOL0     C10052  10.340   4.179   6.468  0.9180 -0.0799  0.3729
   77MOL0     C10053  10.323   4.040   6.404  0.6538  0.3823  1.3279
   77MOL0     C10054  10.462   3.972   6.411  0.0921 -0.6122  0.0958
   77MOL0     C10055  10.574   4.026   6.313 -0.4830  0.9533 -0.1028
   77MOL0     O10056  10.567   3.956   6.179 -0.3684  0.2214 -0.1140
   77MOL0     C10057  10.648   4.001   6.078 -0.1464  0.9930 -0.0542
   77MOL0     C10058  10.672   3.894   5.977  0.1855 -0.3400  0.3481
   77MOL0     C10059  10.761   3.919   5.870 -0.0571  0.3184  0.3355
   77MOL0     C10060  10.826   4.048   5.873  0.0328  0.6727  0.1338
   77MOL0     C10061  10.927   4.067   5.766 -0.1199 -0.9777  0.1249
   77MOL0     O10062  11.001   4.191   5.774  0.2469 -0.3041  0.3278
   77MOL0     C10063  11.088   4.209   5.664 -0.2153  0.3493 -0.3062
   77MOL0     C10064  11.061   4.324   5.585 -0.9853 -0.1270  1.3304
   77MOL0     C10065  11.154   4.363   5.488 -0.2725  0.4990  0.0179
   77MOL0     C10066  11.281   4.297   5.488 -0.0378 -0.0434 -0.1356
   77MOL0     O10067  11.376   4.343   5.404  0.1701  0.2969  0.2540
   77MOL0     C10068  11.411   4.477   5.411 -0.0616 -0.3989 -0.7630
   77MOL0     C10069  11.527   4.494   5.308  0.5280 -0.4089 -0.5126
   77MOL0     C10070  11.560   4.641   5.274  0.5307 -0.5747 -0.8168
   77MOL0     C10071  11.648   4.655   5.150 -0.6861 -0.1665  0.5509
   77MOL0     C10072  11.707   4.801   5.132 -0.3786 -0.1671 -0.6458
   77MOL0     C10073  11.754   4.834   4.989  0.4678  0.0257  0.6714
   77MOL0     C10074  11.858   4.732   4.948  0.0560  0.4782  0.9954
   77MOL0     C10075  11.891   4.757   4.794  0.2431 -0.0477 -0.2171
   77MOL0    Cl10076  11.916   4.928   4.759  0.2142 -0.2923  0.1775
   77MOL0     C10077  11.306   4.176   5.560 -0.5089 -1.0822 -0.1730
   77MOL0     C10078  11.215   4.140   5.659 -0.3421 -1.0492 -0.2198
   77MOL0     O10079  10.953   3.977   5.681 -0.6080 -0.1710 -0.7832
   77MOL0     C10080  10.790   4.152   5.962 -0.1993 -0.4730  0.2951
   77MOL0     C10081  10.705   4.127   6.068 -0.1618  1.0345 -0.8283
   77MOL0     N10082  10.107   4.245   6.362 -0.2568  0.3232  0.8506
   77MOL0     N10083  10.038   4.339   6.332  0.1685 -0.9014 -0.8350
   77MOL0     C10084   9.076   4.845   6.324 -0.4400 -0.0614 -0.2194
   77MOL0     C10085   8.941   4.833   6.344  0.6041 -0.1593 -0.1898
   77MOL0     C10086   8.560   4.714   6.585 -0.1961  0.5608  0.1876
   77MOL0     C10087   8.509   4.612   6.672  0.7515  0.2269 -0.1275
   77MOL0     C10088   8.375   4.614   6.706 -0.8022 -0.0019  0.2401
   77MOL0     C10089   8.285   4.708   6.649  0.2687 -1.0431 -0.5219
   77MOL0     O10090   8.156   4.690   6.684 -0.1845  0.5574 -0.3236
   77MOL0     C10091   8.064   4.764   6.610 -0.0628 -0.5076 -0.3346
   77MOL0     C10092   7.925   4.715   6.628 -0.3992  0.2289 -0.7726
   77MOL0     C10093   7.821   4.827   6.570  0.9251 -0.1406 -0.1110
   77MOL0     C10094   7.677   4.778   6.598 -0.0764  0.8917 -0.1693
   77MOL0     C10095   7.643   4.810   6.742 -0.6737  0.3653  0.6950
   77MOL0     C10096   7.609   4.823   6.852 -1.1006 -0.1807 -1.1429
   77MOL0     C10097   8.334   4.809   6.566 -0.2785 -0.8886  0.4305
   77MOL0     C10098   8.467   4.814   6.536 -0.2874 -0.3240 -0.0044
   77MOL0     H10099   8.916   4.912   6.675  0.2191 -1.2254 -0.0349
   77MOL0     H10100   9.159   4.947   6.643 -0.3991 -0.1515  0.0883
   77MOL0     H10101   9.364   4.915   6.589  0.4541 -0.6618 -0.3348
   77MOL0     H10102   9.348   5.069   6.491 -1.1993 -0.6667 -1.7202
   77MOL0     H10103   9.566   5.006   6.496  0.8281  0.0100 -1.2745
   77MOL0     H10104   9.532   4.942   6.335  1.6594 -3.7759 -0.5256
   77MOL0     H10105   9.498   4.716   6.436 -0.1192  0.8010 -0.8763
   77MOL0     H10106   9.571   4.785   6.584 -1.9428 -2.0827 -0.4585
   77MOL0     H10107   9.704   4.776   6.326 -0.2400  3.1682 -0.1580
   77MOL0     H10108   9.769   4.846   6.465  0.1658 -1.2728  0.5592
   77MOL0     H10109   9.716   4.556   6.426 -3.4319 -1.4019  1.6951
   77MOL0     H10110   9.723   4.616   6.592  1.7386 -1.7030  0.3925
   77MOL0     H10111   9.936   4.543   6.518 -1.3729  0.1255  0.8652
   77MOL0     H10112   9.943   4.712   6.545 -1.4202  0.2060  1.9870
   77MOL0     H10113   9.878   4.597   6.273  1.6400  0.4826 -1.1611
   77MOL0     H10114   9.947   4.756   6.317 -0.9782  0.3732 -0.7383
   77MOL0     H10115  10.164   4.651   6.352 -2.9916  0.6791  4.1890
   77MOL0     H10116  10.100   4.580   6.199 -2.1766  2.4022 -0.8724
   77MOL0     H10117  10.323   4.464   6.461 -0.3908  1.4425 -2.1489
   77MOL0     H10118  10.340   4.165   6.576  0.6299  0.1719  0.4051
   77MOL0     H10119  10.432   4.228   6.435 -0.3549  1.6383 -0.8443
   77MOL0     H10120  10.287   4.046   6.301 -2.1400  1.1073  2.2427
   77MOL0     H10121  10.249   3.982   6.461  0.3187  0.7886  1.3166
   77MOL0     H10122  10.504   3.982   6.511  0.2036  3.7763 -0.2225
   77MOL0     H10123  10.448   3.868   6.377  1.1111 -0.2338 -1.6316
   77MOL0     H10124  10.671   4.003   6.358  0.8057 -0.3458 -3.2396
   77MOL0     H10125  10.557   4.133   6.300 -1.6714  0.9675  1.3537
   77MOL0     H10126  10.602   3.811   5.973 -0.5916  0.2973  0.4566
   77MOL0     H10127  10.790   3.846   5.794 -1.4521 -0.5290  0.5967
   77MOL0     H10128  10.976   4.387   5.609 -0.3467  1.8235 -1.0695
   77MOL0     H10129  11.135   4.450   5.426  1.4473 -0.8123 -2.5105
   77MOL0     H10130  11.440   4.508   5.512  0.2983 -0.8048 -0.7361
   77MOL0     H10131  11.331   4.545   5.381  0.8700  2.4445  2.5199
   77MOL0     H10132  11.488   4.442   5.220 -2.3481 -1.5118  1.2828
   77MOL0     H10133  11.612   4.439   5.349  1.0274 -1.2902 -2.5925
   77MOL0     H10134  11.617   4.688   5.354  2.0477 -0.6163 -1.8358
   77MOL0     H10135  11.470   4.698   5.245 -1.9633 -2.7084  2.1333
   77MOL0     H10136  11.735   4.591   5.163  0.1883  0.7424 -0.7006
   77MOL0     H10137  11.590   4.622   5.063 -0.4163 -0.7950  0.6064
   77MOL0     H10138  11.777   4.832   5.209 -2.5670  1.7266  0.7223
   77MOL0     H10139  11.624   4.868   5.155  0.7023  0.5129  1.4957
   77MOL0     H10140  11.783   4.939   4.980  1.8612  0.3436  5.7947
   77MOL0     H10141  11.670   4.820   4.921  1.1965  0.1107 -0.2783
   77MOL0     H10142  11.951   4.737   5.005 -0.1179 -1.6755  1.5550
   77MOL0     H10143  11.823   4.629   4.961  3.2055 -0.7066  0.9798
   77MOL0     H10144  11.810   4.728   4.726  1.3431 -3.1988 -0.3049
   77MOL0     H10145  11.983   4.702   4.776  0.3583  0.4032 -1.0878
   77MOL0     H10146  11.406   4.133   5.551  0.8380  1.5216  1.1495
   77MOL0     H10147  11.245   4.062   5.728  1.2558 -1.5763 -1.4242
   77MOL0     H10148  10.837   4.248   5.942 -3.0351  0.7170 -1.2196
   77MOL0     H10149  10.689   4.207   6.139  1.1540  0.8455 -0.2813
   77MOL0     H10150   9.113   4.818   6.226 -1.7508 -0.4277 -0.6336
   77MOL0     H10151   8.868   4.805   6.268  1.7054  0.3646 -1.4689
   77MOL0     H10152   8.559   4.523   6.709  3.6290  1.7829 -0.0272
   77MOL0     H10153   8.329   4.547   6.777 -1.9681  2.1812  1.6378
   77MOL0     H10154   8.091   4.757   6.504 -1.2990  1.0731 -0.7880
   77MOL0     H10155   8.074   4.870   6.634  0.4871 -0.7140  0.4074
   77MOL0     H10156   7.914   4.617   6.580 -2.0301 -0.6323  1.1738
   77MOL0     H10157   7.906   4.692   6.733 -0.8899 -1.4834 -1.1975
   77MOL0     H10158   7.829   4.844   6.462  0.8478 -2.1912 -0.4856
   77MOL0     H10159   7.845   4.918   6.625 -0.7025 -0.0898  0.5792
   77MOL0     H10160   7.608   4.837   6.537 -1.3420  2.0962  2.2566
   77MOL0     H10161   7.672   4.672   6.569 -0.5926  0.3673  1.6731
   77MOL0     H10162   7.589   4.817   6.957  0.1866 -2.2509 -0.9592
   77MOL0     H10163   8.266   4.888   6.534 -2.3023 -1.7978  2.2352
   77MOL0     H10164   8.504   4.897   6.476 -2.2649  1.0373  0.5776
   78MOL0     O10165   6.632   3.384   4.676  0.2652  0.1689 -0.0574
   78MOL0     C10166   6.652   3.369   4.798 -0.0186 -0.8717  0.8379
   78MOL0     O10167   6.770   3.404   4.863  0.2222  0.0745 -0.2209
   78MOL0     C10168   6.885   3.466   4.809  0.2746  1.0678 -0.5090
   78MOL0     C10169   7.003   3.448   4.885  0.5508  0.2048  0.2305
   78MOL0     C10170   7.123   3.516   4.858  1.0398  0.3426 -0.0210
   78MOL0     C10171   7.132   3.596   4.738 -0.8796 -0.4657  0.6033
   78MOL0     O10172   7.255   3.660   4.715 -0.3379 -0.1817  0.0564
   78MOL0     C10173   7.289   3.731   4.589  0.1710  0.0096  0.2964
   78MOL0     C10174   7.249   3.881   4.575 -0.6923 -0.0741  0.1117
   78MOL0     C10175   7.302   3.934   4.439  0.6754 -0.2988  0.6386
   78MOL0     C10176   7.247   3.869   4.320  0.6894  0.7767 -0.6800
   78MOL0     C10177   7.288   3.928   4.180  1.1839  0.0864 -0.7011
   78MOL0     C10178   7.435   3.897   4.148  0.0792  0.2774  0.2036
   78MOL0     C10179   7.509   3.982   4.047 -0.7667 -0.2622 -0.3483
   78MOL0     C10180   7.532   4.132   4.083  1.1963  0.1511  0.2455
   78MOL0     N10181   7.562   4.147   4.233  0.4362 -0.1862 -0.0203
   78MOL0     C10182   7.678   4.118   4.298  0.0015 -0.2308  0.4731
   78MOL0     C10183   7.650   4.142   4.425  0.2326 -0.6500 -0.5480
   78MOL0     C10184   7.753   4.140   4.530 -0.6266  0.4167  0.1385
   78MOL0     C10185   7.748   4.003   4.606 -0.6011 -0.1511 -1.1232
   78MOL0     C10186   7.806   4.018   4.747  1.5490  0.0065  0.2493
   78MOL0     C10187   7.861   3.894   4.818 -0.4443  1.0039  0.0409
   78MOL0     O10188   7.762   3.793   4.827  0.4338 -0.5269 -0.1134
   78MOL0     C10189   7.659   3.810   4.913 -0.5231 -0.1788  0.4012
   78MOL0     C10190   7.679   3.831   5.048 -0.4028  0.2705  0.3869
   78MOL0     C10191   7.575   3.839   5.135  1.1759 -0.9207  1.0964
   78MOL0     C10192   7.444   3.787   5.089 -1.2830  0.7110 -0.1710
   78MOL0     C10193   7.329   3.779   5.175  0.0276  0.4788 -0.8083
   78MOL0     O10194   7.202   3.764   5.116  0.3959 -0.1727 -0.8883
   78MOL0     C10195   7.090   3.743   5.194  0.4977  0.2897  0.4889
   78MOL0     C10196   6.970   3.710   5.121 -0.4592 -0.3677 -0.6256
   78MOL0     C10197   6.843   3.721   5.176 -0.6020  0.4780 -0.8765
   78MOL0     C10198   6.820   3.767   5.304  0.3244  0.6551 -0.1155
   78MOL0     O10199   6.690   3.782   5.344  0.1740 -0.8859 -0.1555
   78MOL0     C10200   6.648   3.894   5.434  0.0154  0.3258  0.0451
   78MOL0     C10201   6.628   3.846   5.578  0.4605 -0.9546  0.9368
   78MOL0     C10202   6.602   3.965   5.669  0.4501  0.0796  0.4768
   78MOL0     C10203   6.566   3.922   5.813 -0.1992  0.4562 -0.3921
   78MOL0     C10204   6.417   3.918   5.842 -0.1668 -0.6607  0.1415
   78MOL0     C10205   6.394   3.892   5.988  0.6959 -0.5973  0.2298
   78MOL0     C10206   6.399   3.748   6.032 -0.8492 -0.2112 -0.1939
   78MOL0     C10207   6.282   3.715   6.134 -0.1403  0.1502 -0.3407
   78MOL0    Cl10208   6.118   3.695   6.056 -0.1618 -0.1038  0.2553
   78MOL0     C10209   6.933   3.789   5.385  0.4907  0.7849  0.6269
   78MOL0     C10210   7.066   3.779   5.329 -1.1939 -0.1670  0.5602
   78MOL0     O10211   7.353   3.768   5.291 -0.0196  0.9323 -0.2147
   78MOL0     C10212   7.431   3.756   4.950  0.1648  0.4144  0.6169
   78MOL0     C10213   7.537   3.769   4.865  0.1199  0.5338  0.7882
   78MOL0     N10214   7.523   4.199   4.448  0.4389 -0.4445  0.7225
   78MOL0     N10215   7.471   4.197   4.328  0.3162  0.2798  0.2024
   78MOL0     C10216   7.018   3.608   4.655  0.2753  0.4758 -0.8903
   78MOL0     C10217   6.890   3.554   4.700 -0.4137 -0.2034 -0.0197
   78MOL0     C10218   6.543   3.314   4.881  1.1524 -0.1110 -0.0364
   78MOL0     C10219   6.550   3.303   5.021  0.1971  0.0395  0.0241
   78MOL0     C10220   6.438   3.258   5.093  1.2939 -0.3200  0.1999
   78MOL0     C10221   6.312   3.221   5.033 -0.6983 -0.4594  0.4327
   78MOL0     O10222   6.203   3.166   5.094 -0.3265 -0.3237 -0.0850
   78MOL0     C10223   6.176   3.191   5.230 -1.0081  0.0649  0.2878
   78MOL0     C10224   6.064   3.107   5.281  0.4366 -0.3159 -0.1381
   78MOL0     C10225   6.090   2.950   5.269 -0.1779  0.3142  0.3758
   78MOL0     C10226   6.096   2.887   5.126  0.1747  0.3290  0.0066
   78MOL0     C10227   5.981   2.921   5.056  0.9639  0.3157  0.2974
   78MOL0     C10228   5.874   2.953   4.992  0.4710  0.6694 -0.1758
   78MOL0     C10229   6.312   3.227   4.895 -0.7483  0.3696  0.5332
   78MOL0     C10230   6.425   3.272   4.822 -0.8290 -0.4471  0.1357
   78MOL0     H10231   6.996   3.401   4.982  4.9222  0.6147  0.9437
   78MOL0     H10232   7.213   3.498   4.915  0.3027  1.3663  1.5515
   78MOL0     H10233   7.232   3.680   4.511  1.5792 -0.1167 -0.7007
   78MOL0     H10234   7.397   3.726   4.571  0.1855  2.3250 -0.5902
   78MOL0     H10235   7.287   3.943   4.657 -2.6831 -3.5654  4.0085
   78MOL0     H10236   7.140   3.881   4.584 -0.7833 -1.7763 -0.5924
   78MOL0     H10237   7.411   3.944   4.448  0.8020 -0.2947 -0.7686
   78MOL0     H10238   7.263   4.036   4.433  2.2716  0.4688  2.2695
   78MOL0     H10239   7.264   3.761   4.323 -0.6492  0.5649  1.3615
   78MOL0     H10240   7.139   3.860   4.326  0.8770 -1.7960 -0.1046
   78MOL0     H10241   7.252   4.031   4.167 -1.0151 -0.8827 -3.2408
   78MOL0     H10242   7.224   3.877   4.108 -0.0843 -1.2054  1.2669
   78MOL0     H10243   7.454   3.797   4.109  1.5950  1.0479 -1.1599
   78MOL0     H10244   7.479   3.912   4.247  0.0204  3.9492 -0.1563
   78MOL0     H10245   7.608   3.937   4.034 -0.2771  0.6592  0.1377
   78MOL0     H10246   7.451   3.989   3.954 -3.2681  1.2621  1.1900
   78MOL0     H10247   7.437   4.185   4.071  0.6827 -0.1423  2.4581
   78MOL0     H10248   7.618   4.177   4.035 -0.1899  1.5388 -1.0453
   78MOL0     H10249   7.768   4.071   4.261  1.3663  0.4242  2.7877
   78MOL0     H10250   7.743   4.232   4.589 -0.6375  0.2812  0.3481
   78MOL0     H10251   7.850   4.144   4.478  0.0642 -1.0684  1.2642
   78MOL0     H10252   7.809   3.947   4.535 -1.5641  1.3507 -3.2387
   78MOL0     H10253   7.648   3.958   4.606 -0.1953 -1.4455  2.8782
   78MOL0     H10254   7.887   4.090   4.735  0.3198  0.9512 -4.4248
   78MOL0     H10255   7.739   4.072   4.813  2.3484 -0.5337  1.5511
   78MOL0     H10256   7.903   3.911   4.918  0.8512 -2.1279  0.1439
   78MOL0     H10257   7.946   3.863   4.757 -0.5886  1.1465 -0.2365
   78MOL0     H10258   7.783   3.827   5.077  0.8786 -0.9590 -3.6547
   78MOL0     H10259   7.604   3.850   5.239  1.1220 -1.3920  1.1606
   78MOL0     H10260   6.983   3.684   5.017  0.4116  0.0609 -0.6340
   78MOL0     H10261   6.756   3.695   5.117 -1.2760  0.7778 -0.0417
   78MOL0     H10262   6.549   3.910   5.390 -0.4014 -2.7142 -0.3249
   78MOL0     H10263   6.711   3.982   5.427 -0.6035  1.0782  2.6496
   78MOL0     H10264   6.726   3.806   5.604  1.1752  2.2375  3.8597
   78MOL0     H10265   6.557   3.763   5.586 -0.9557  0.1807  0.7492
   78MOL0     H10266   6.512   4.008   5.623  0.0332  1.0863  2.1165
   78MOL0     H10267   6.687   4.033   5.654 -0.3462  0.5617 -2.5536
   78MOL0     H10268   6.608   3.822   5.828 -0.8047  0.3460  0.6576
   78MOL0     H10269   6.623   3.975   5.889 -0.3694  0.2875 -0.1415
   78MOL0     H10270   6.352   3.855   5.780 -0.9259  1.7341 -1.6674
   78MOL0     H10271   6.384   4.020   5.824 -1.1296 -1.4298 -3.3191
   78MOL0     H10272   6.289   3.923   5.997  0.7214  0.0391 -1.3784
   78MOL0     H10273   6.443   3.958   6.060 -3.1337  1.6803  1.0461
   78MOL0     H10274   6.385   3.690   5.940  1.1466  0.8450 -1.2351
   78MOL0     H10275   6.502   3.735   6.067 -0.3845  0.3028 -1.3272
   78MOL0     H10276   6.280   3.779   6.222  1.9524  1.1092 -0.9311
   78MOL0     H10277   6.300   3.612   6.168  2.9702  0.3269 -1.1457
   78MOL0     H10278   6.922   3.836   5.483  0.3442 -1.1230  1.5724
   78MOL0     H10279   7.154   3.812   5.383 -0.9643  4.0480 -1.9341
   78MOL0     H10280   7.330   3.735   4.917  0.5209 -0.4215  0.0321
   78MOL0     H10281   7.525   3.746   4.759 -2.0175 -0.7383  1.2514
   78MOL0     H10282   7.027   3.665   4.562 -0.3893  1.5732 -0.3048
   78MOL0     H10283   6.798   3.586   4.653 -0.4766  0.3374  0.4631
   78MOL0     H10284   6.637   3.320   5.083  1.8154 -1.1141 -1.8087
   78MOL0     H10285   6.442   3.253   5.202 -1.1694 -2.6846  0.2780
   78MOL0     H10286   6.158   3.298   5.241 -0.7256 -0.0445  2.2625
   78MOL0     H10287   6.260   3.173   5.298 -1.0476  0.9114  0.5741
   78MOL0     H10288   6.049   3.137   5.386 -0.2611 -0.4232 -0.2030
   78MOL0     H10289   5.970   3.118   5.226  0.6070  2.3226 -0.0598
   78MOL0     H10290   6.016   2.907   5.337  1.1028  0.1640  1.7203
   78MOL0     H10291   6.188   2.935   5.316 -0.1894  0.6754  0.5190
   78MOL0     H10292   6.185   2.931   5.079 -0.8205  0.8637 -1.4402
   78MOL0     H10293   6.104   2.778   5.134 -2.4620  0.2550  4.3079
   78MOL0     H10294   5.786   2.974   4.935  1.0612  1.1490 -0.9261
   78MOL0     H10295   6.228   3.184   4.840 -0.5419  0.0733  0.4445
   78MOL0     H10296   6.423   3.281   4.714  1.3756  2.2055  0.2033
   79MOL0     O10297   8.359   8.391   6.863  0.8714  0.6155 -0.1194
   79MOL0     C10298   8.331   8.506   6.827  0.1041 -0.9476 -0.6334
   79MOL0     O10299   8.429   8.612   6.812  0.1448 -0.3720  0.4044
   79MOL0     C10300   8.565   8.575   6.824  0.7468  0.4491 -0.8052
   79MOL0     C10301   8.665   8.593   6.725  0.3627  0.3747  0.9240
   79MOL0     C10302   8.800   8.580   6.743  0.2093 -0.0015  0.7528
   79MOL0     C10303   8.841   8.534   6.871 -0.3140  0.2942 -1.1073
   79MOL0     O10304   8.978   8.517   6.877 -0.7891 -0.1246  0.1670
   79MOL0     C10305   9.033   8.578   7.000  0.6948  0.1125  0.7636
   79MOL0     C10306   9.183   8.559   6.978 -0.0183  1.0069 -0.0792
   79MOL0     C10307   9.265   8.664   7.055  0.0573  0.3004  0.2239
   79MOL0     C10308   9.268   8.630   7.205  0.1813  0.4311 -0.2045
   79MOL0     C10309   9.348   8.732   7.273  0.1430 -0.1540 -0.0993
   79MOL0     C10310   9.330   8.738   7.426  0.7679 -0.1971  0.1938
   79MOL0     C10311   9.413   8.845   7.506  0.3278  0.0371  0.0781
   79MOL0     C10312   9.569   8.849   7.477  0.0187 -0.3024 -0.9974
   79MOL0     N10313   9.630   8.933   7.582  0.5380 -0.3129  0.1388
   79MOL0     C10314   9.732   8.892   7.657  0.1631  0.1748  0.8575
   79MOL0     C10315   9.771   8.999   7.740 -0.7089  0.4061  0.2906
   79MOL0     C10316   9.875   8.989   7.845  0.1767  0.5007  0.6041
   79MOL0     C10317   9.921   9.130   7.887  0.5171 -0.0928  0.2328
   79MOL0     C10318  10.009   9.152   8.007  0.0440  1.3629 -0.1014
   79MOL0     C10319  10.158   9.118   7.988 -0.3913  0.1576 -0.3853
   79MOL0     O10320  10.245   9.229   7.962  0.7096 -0.8049  0.3030
   79MOL0     C10321  10.281   9.242   7.831 -0.2753 -1.0491  0.2912
   79MOL0     C10322  10.203   9.322   7.746 -0.3097 -0.1086 -0.1611
   79MOL0     C10323  10.247   9.353   7.623 -0.5502  0.0211  0.0357
   79MOL0     C10324  10.380   9.318   7.583 -0.3828  0.1151 -0.5295
   79MOL0     C10325  10.450   9.371   7.458 -0.8100 -0.1284 -0.9523
   79MOL0     O10326  10.381   9.456   7.380  0.2938  0.0688  0.4173
   79MOL0     C10327  10.452   9.528   7.286  0.1647  0.3765  0.0412
   79MOL0     C10328  10.422   9.501   7.155  0.0468  0.6754 -0.6740
   79MOL0     C10329  10.499   9.543   7.055 -1.3553  0.5088 -0.1166
   79MOL0     C10330  10.595   9.635   7.076 -1.5457 -0.6278 -0.1774
   79MOL0     O10331  10.682   9.681   6.977 -0.3646 -0.6829 -0.3236
   79MOL0     C10332  10.757   9.585   6.911 -0.0585 -0.2345  0.5363
   79MOL0     C10333  10.856   9.515   7.005 -0.0502  0.0029 -0.0501
   79MOL0     C10334  10.948   9.616   7.075  0.1471 -0.1180 -0.0972
   79MOL0     C10335  11.068   9.636   6.985 -0.0765 -1.1341 -0.3974
   79MOL0     C10336  11.112   9.786   6.995 -0.7006 -0.6263 -0.1038
   79MOL0     C10337  11.222   9.823   6.903  0.4956  1.1761  0.1624
   79MOL0     C10338  11.355   9.752   6.932  0.1312  1.0755 -0.0602
   79MOL0     C10339  11.476   9.820   6.882 -0.5116 -0.4620 -0.3907
   79MOL0    Cl10340  11.552   9.950   6.998  0.0769  0.0194  0.3201
   79MOL0     C10341  10.612   9.687   7.208  0.0461 -0.1190 -0.1446
   79MOL0     C10342  10.542   9.625   7.316  0.7403  0.6774 -0.5732
   79MOL0     O10343  10.567   9.353   7.449 -0.5556  0.7373 -0.2040
   79MOL0     C10344  10.457   9.231   7.656 -0.0061  0.2674 -0.3045
   79MOL0     C10345  10.408   9.203   7.787 -0.2130 -0.0881 -0.4871
   79MOL0     N10346   9.696   9.107   7.686  0.2107 -0.1468 -0.5454
   79MOL0     N10347   9.609   9.061   7.598  0.5037  0.4449 -1.0043
   79MOL0     C10348   8.751   8.512   6.974 -0.7861  0.3804  0.7894
   79MOL0     C10349   8.612   8.526   6.943  0.9477 -0.1752 -0.3218
   79MOL0     C10350   8.185   8.542   6.820 -0.0607 -0.3180  0.0800
   79MOL0     C10351   8.159   8.667   6.752 -0.3654 -0.5779  1.4718
   79MOL0     C10352   8.030   8.692   6.704  0.5345  0.2010 -0.4587
   79MOL0     C10353   7.923   8.609   6.742 -0.5597  0.2533  0.2587
   79MOL0     O10354   7.792   8.631   6.709 -0.3844 -0.0154  0.2970
   79MOL0     C10355   7.761   8.753   6.634  0.2414  0.1259  0.0359
   79MOL0     C10356   7.608   8.752   6.624 -0.2741  0.4626  0.3198
   79MOL0     C10357   7.552   8.632   6.550 -0.3012  0.6245  0.1723
   79MOL0     C10358   7.413   8.660   6.482  0.9684 -0.4495 -1.0327
   79MOL0     C10359   7.333   8.732   6.578 -0.1308  0.3354 -0.5114
   79MOL0     C10360   7.270   8.773   6.670 -0.8332  0.7781  0.3888
   79MOL0     C10361   7.953   8.486   6.807 -0.0997 -1.0213 -0.6793
   79MOL0     C10362   8.082   8.454   6.845  0.4870  0.0020 -0.9654
   79MOL0     H10363   8.631   8.618   6.625  1.6264  1.8457  0.8308
   79MOL0     H10364   8.878   8.585   6.669 -0.3519 -2.2537 -0.0815
   79MOL0     H10365   9.004   8.524   7.090 -1.4194  1.6769  1.1163
   79MOL0     H10366   9.023   8.687   7.004  2.8655  0.4993 -1.3815
   79MOL0     H10367   9.195   8.563   6.869 -1.1998  0.6324 -0.2442
   79MOL0     H10368   9.218   8.463   7.017 -0.9263  0.4107 -0.6917
   79MOL0     H10369   9.234   8.768   7.038  1.0274  0.6089  0.3003
   79MOL0     H10370   9.369   8.655   7.025  0.1221 -1.5898  0.8858
   79MOL0     H10371   9.166   8.630   7.245 -0.0019  0.2725 -0.6712
   79MOL0     H10372   9.310   8.530   7.218 -1.3882 -0.3907 -1.2237
   79MOL0     H10373   9.318   8.834   7.248  1.6212 -0.5791 -4.4013
   79MOL0     H10374   9.453   8.702   7.261  0.1293 -0.2081 -0.0918
   79MOL0     H10375   9.359   8.642   7.470  1.7467  1.0489  2.4233
   79MOL0     H10376   9.229   8.759   7.461  1.1338  0.4849  0.8636
   79MOL0     H10377   9.375   8.944   7.480  0.9195  0.7353  1.7458
   79MOL0     H10378   9.400   8.835   7.614  0.7718 -0.0127  0.1272
   79MOL0     H10379   9.582   8.884   7.374 -1.9313  2.8866 -0.2654
   79MOL0     H10380   9.610   8.747   7.484  0.1276 -0.1859  0.2889
   79MOL0     H10381   9.765   8.789   7.666  0.3177  0.2226  0.8305
   79MOL0     H10382   9.961   8.931   7.811  2.1038  1.8948  2.8182
   79MOL0     H10383   9.847   8.933   7.934  2.0205  1.4227  1.8157
   79MOL0     H10384   9.830   9.188   7.902 -0.8713 -1.5533 -1.9605
   79MOL0     H10385   9.976   9.171   7.801  2.2844  0.5797  1.6291
   79MOL0     H10386   9.997   9.250   8.052  2.4048  0.5584  2.6400
   79MOL0     H10387   9.960   9.088   8.081  2.0655 -1.0928 -0.7038
   79MOL0     H10388  10.165   9.033   7.920 -1.3307 -0.6033  0.4486
   79MOL0     H10389  10.195   9.082   8.084  0.3293  1.4604 -0.1448
   79MOL0     H10390  10.108   9.358   7.783 -1.0371  0.6124 -2.5702
   79MOL0     H10391  10.182   9.409   7.556 -1.4694 -0.6118  0.3729
   79MOL0     H10392  10.346   9.425   7.143 -1.0745  1.4258  1.2668
   79MOL0     H10393  10.487   9.512   6.952  1.7266 -0.0290 -0.4020
   79MOL0     H10394  10.812   9.637   6.832  3.8810 -0.5214  2.8253
   79MOL0     H10395  10.687   9.518   6.861  1.4178  0.7788 -3.2756
   79MOL0     H10396  10.906   9.433   6.952 -1.2255 -2.0980  1.9694
   79MOL0     H10397  10.806   9.468   7.089 -0.4296 -1.6084 -1.1379
   79MOL0     H10398  10.990   9.573   7.167  2.6536 -0.9192 -1.5305
   79MOL0     H10399  10.889   9.707   7.092  1.2667  0.2838  2.0802
   79MOL0     H10400  11.146   9.566   7.018 -0.5145 -0.7128  1.6526
   79MOL0     H10401  11.046   9.621   6.879  0.2739  0.8509 -0.7979
   79MOL0     H10402  11.147   9.813   7.095  2.0306  2.2522 -1.6556
   79MOL0     H10403  11.019   9.840   6.978 -1.6837 -2.1221  0.3223
   79MOL0     H10404  11.247   9.930   6.904  1.1307  1.0510 -0.5824
   79MOL0     H10405  11.190   9.811   6.799  2.3032  3.8404 -0.8513
   79MOL0     H10406  11.375   9.730   7.037  5.4191 -2.3587 -1.3645
   79MOL0     H10407  11.347   9.657   6.879 -1.1945  0.7522  0.6979
   79MOL0     H10408  11.472   9.859   6.780 -0.6271 -1.1288 -0.6471
   79MOL0     H10409  11.556   9.747   6.864  0.7163  1.2688 -2.4623
   79MOL0     H10410  10.695   9.746   7.244  0.3036 -1.6788  2.0383
   79MOL0     H10411  10.550   9.646   7.422  1.0182 -3.2469  0.3028
   79MOL0     H10412  10.555   9.195   7.627  0.3676  1.9518 -1.2562
   79MOL0     H10413  10.456   9.140   7.861 -1.8667  0.7942  1.4361
   79MOL0     H10414   8.800   8.471   7.062 -1.5122 -1.2165  0.4824
   79MOL0     H10415   8.543   8.502   7.024  1.0850 -0.4505 -0.2861
   79MOL0     H10416   8.233   8.742   6.724 -2.4511  1.7396  1.7496
   79MOL0     H10417   8.023   8.784   6.646 -3.4295  0.0009 -0.5571
   79MOL0     H10418   7.810   8.764   6.537 -0.9354  3.3199 -0.2998
   79MOL0     H10419   7.797   8.840   6.689  0.9586 -2.6880  4.4952
   79MOL0     H10420   7.565   8.765   6.724 -3.0613  3.1718 -1.0714
   79MOL0     H10421   7.578   8.835   6.560 -0.9917 -0.3988 -0.4929
   79MOL0     H10422   7.539   8.557   6.629 -1.6684  0.0981 -0.5195
   79MOL0     H10423   7.610   8.579   6.475 -2.5393  0.2450 -1.3990
   79MOL0     H10424   7.425   8.724   6.394 -0.3338  0.1338 -0.8126
   79MOL0     H10425   7.374   8.561   6.456  1.6512 -1.9015  2.8425
   79MOL0     H10426   7.219   8.822   6.751 -2.9875 -3.1205  1.6525
   79MOL0     H10427   7.871   8.423   6.839 -1.6292  0.3777 -1.6585
   79MOL0     H10428   8.105   8.367   6.905  5.4923  1.7440  0.1172
   80MOL0     O10429   2.459   8.018   4.557  0.1506  0.3881 -0.1973
   80MOL0     C10430   2.511   8.015   4.666  0.1288 -0.4558  1.0012
   80MOL0     O10431   2.458   8.052   4.778  1.4082 -0.0525  0.2222
   80MOL0     C10432   2.326   8.088   4.792 -0.7160 -1.2327 -0.2015
   80MOL0     C10433   2.280   8.214   4.753 -0.7530  0.5425 -0.2329
   80MOL0     C10434   2.156   8.267   4.767 -0.9617  0.3308 -1.0937
   80MOL0     C10435   2.062   8.185   4.838 -0.3220 -0.4185  0.0831
   80MOL0     O10436   1.947   8.245   4.883  0.3074  0.6310  0.1656
   80MOL0     C10437   1.823   8.170   4.878  0.0377  0.4399 -0.4643
   80MOL0     C10438   1.706   8.253   4.905  0.2211  0.8142 -0.1303
   80MOL0     C10439   1.571   8.210   4.836  0.9775  0.4888  0.2775
   80MOL0     C10440   1.517   8.072   4.890 -0.4794 -0.9932 -0.9991
   80MOL0     C10441   1.394   8.034   4.816  0.8700 -0.3747 -0.3625
   80MOL0     C10442   1.321   7.924   4.890  0.5982 -0.0574 -0.2148
   80MOL0     C10443   1.206   7.861   4.817 -0.3422 -0.1654  0.5997
   80MOL0     C10444   1.107   7.957   4.745 -0.5973  0.1381  0.8442
   80MOL0     N10445   1.046   8.062   4.827  0.9280 -0.9432 -0.1088
   80MOL0     C10446   0.990   8.179   4.773  0.2244  0.3793  0.8088
   80MOL0     C10447   0.933   8.237   4.880  0.3275  0.8432  0.3558
   80MOL0     C10448   0.850   8.364   4.867 -0.4946 -0.2576 -0.4806
   80MOL0     C10449   0.934   8.482   4.918 -0.0296 -0.5625  0.7073
   80MOL0     C10450   1.015   8.537   4.803 -0.4136  0.0616 -0.9384
   80MOL0     C10451   1.119   8.627   4.866  0.7272 -0.7284 -0.0383
   80MOL0     O10452   1.193   8.690   4.766 -0.0301 -0.2805 -0.1690
   80MOL0     C10453   1.279   8.794   4.807  0.3916  0.8074  0.4391
   80MOL0     C10454   1.233   8.911   4.863 -0.2450 -0.1943 -0.2505
   80MOL0     C10455   1.324   9.015   4.887  0.5506 -0.3211 -0.7493
   80MOL0     C10456   1.463   8.998   4.873 -0.1067  0.2098  0.8549
   80MOL0     C10457   1.566   9.100   4.908  0.1604  0.6031  1.1352
   80MOL0     O10458   1.693   9.062   4.876  0.0720 -0.4469  0.1710
   80MOL0     C10459   1.797   9.141   4.885 -0.0865 -0.0994 -0.0816
   80MOL0     C10460   1.866   9.177   4.768 -0.4329  0.5077 -0.8087
   80MOL0     C10461   1.986   9.243   4.763 -0.2567  0.7636 -0.1807
   80MOL0     C10462   2.028   9.292   4.890 -1.2786 -0.4806 -0.1489
   80MOL0     O10463   2.145   9.371   4.905 -0.7269  0.9719 -0.1646
   80MOL0     C10464   2.194   9.452   4.802 -0.6516  0.1887  0.7351
   80MOL0     C10465   2.339   9.420   4.771 -0.0443  0.6815  0.6982
   80MOL0     C10466   2.434   9.454   4.884  0.0566 -0.8896  0.9875
   80MOL0     C10467   2.580   9.412   4.866  0.3844  0.2838 -0.3176
   80MOL0     C10468   2.663   9.468   4.982  0.6561  0.0547  0.7372
   80MOL0     C10469   2.791   9.386   4.996 -0.7020  0.7712  0.1441
   80MOL0     C10470   2.876   9.421   5.120 -0.6456 -1.0727  0.2290
   80MOL0     C10471   2.987   9.325   5.133  0.0864 -0.1423 -0.7896
   80MOL0    Cl10472   3.094   9.372   4.999  0.2936  0.1906 -0.7687
   80MOL0     C10473   1.959   9.268   5.005 -0.2419  1.2144 -0.0123
   80MOL0     C10474   1.845   9.186   5.003  0.6057 -0.2790  0.1515
   80MOL0     O10475   1.530   9.208   4.948 -0.2940 -0.2074  0.0412
   80MOL0     C10476   1.505   8.881   4.808  0.4685  0.3634 -0.2919
   80MOL0     C10477   1.412   8.783   4.781  0.3187 -0.5052 -0.5829
   80MOL0     N10478   0.944   8.151   4.994 -0.2624 -0.1048 -0.1107
   80MOL0     N10479   1.021   8.055   4.953  0.1230 -0.2752 -0.3442
   80MOL0     C10480   2.103   8.055   4.872  0.6199  0.5937  0.6176
   80MOL0     C10481   2.230   8.003   4.838 -0.5909  0.2820  0.0325
   80MOL0     C10482   2.662   7.977   4.667 -0.1688 -0.2129 -0.6458
   80MOL0     C10483   2.727   7.906   4.563  0.1591  0.5854 -0.3323
   80MOL0     C10484   2.863   7.885   4.567 -0.1771  0.4736 -0.1381
   80MOL0     C10485   2.932   7.918   4.678  0.5679 -0.3392 -0.2168
   80MOL0     O10486   3.064   7.914   4.700  0.6632 -0.6223  0.6760
   80MOL0     C10487   3.132   7.833   4.601 -0.4602 -0.2396 -1.1940
   80MOL0     C10488   3.283   7.855   4.636  0.3447 -0.2398  0.1309
   80MOL0     C10489   3.313   7.772   4.757  0.1112  0.0986  0.1802
   80MOL0     C10490   3.468   7.802   4.796 -0.3326  0.6529  0.5928
   80MOL0     C10491   3.501   7.708   4.899  0.7890  0.4301  0.1396
   80MOL0     C10492   3.531   7.615   4.977 -0.3523  0.6141 -0.1706
   80MOL0     C10493   2.870   7.982   4.788  0.8922 -0.0404 -0.9362
   80MOL0     C10494   2.736   8.012   4.782 -0.3849  0.3210 -0.0720
   80MOL0     H10495   2.359   8.278   4.715  1.7671 -0.5620  2.6517
   80MOL0     H10496   2.130   8.371   4.749  0.3001  0.9222  0.2684
   80MOL0     H10497   1.825   8.101   4.962 -0.4873  0.9260 -0.0435
   80MOL0     H10498   1.813   8.119   4.782 -2.6324  2.2530 -1.2793
   80MOL0     H10499   1.728   8.356   4.875  0.2780  0.1873 -2.4329
   80MOL0     H10500   1.681   8.253   5.012 -4.8851  0.0826 -1.0381
   80MOL0     H10501   1.592   8.213   4.729  2.4360  0.7795  0.5452
   80MOL0     H10502   1.497   8.291   4.840 -2.1238 -1.5803 -4.8696
   80MOL0     H10503   1.587   7.988   4.877  0.1427 -0.6092 -0.2533
   80MOL0     H10504   1.497   8.082   4.997  0.7284 -4.2759 -0.3219
   80MOL0     H10505   1.420   7.992   4.718 -4.7538 -2.1979 -1.4618
   80MOL0     H10506   1.335   8.126   4.800  0.3560 -0.7033 -0.3764
   80MOL0     H10507   1.285   7.956   4.988  0.4361  2.0201 -0.9037
   80MOL0     H10508   1.393   7.846   4.914  2.0228  1.9082  2.5064
   80MOL0     H10509   1.247   7.795   4.741 -2.8751  0.9492 -1.9018
   80MOL0     H10510   1.151   7.790   4.880 -2.7605 -1.4804 -2.7155
   80MOL0     H10511   1.024   7.898   4.705 -0.3259 -1.2685  2.2416
   80MOL0     H10512   1.155   8.004   4.659  0.1817  0.3404  1.3831
   80MOL0     H10513   0.993   8.201   4.666  3.1409  2.1281  1.1195
   80MOL0     H10514   0.764   8.355   4.934  0.4272 -2.0815  0.5258
   80MOL0     H10515   0.819   8.385   4.764  4.4418  0.2771 -2.1373
   80MOL0     H10516   0.981   8.442   5.008 -2.3249 -0.4158  2.0687
   80MOL0     H10517   0.861   8.560   4.940 -2.3495 -1.9952 -1.3015
   80MOL0     H10518   1.069   8.456   4.752 -1.2513  1.2884 -4.0037
   80MOL0     H10519   0.959   8.589   4.725  0.5964  1.7152 -0.6210
   80MOL0     H10520   1.186   8.580   4.938  0.4933  1.8402  2.0080
   80MOL0     H10521   1.058   8.706   4.910 -1.9363 -3.4151  1.3905
   80MOL0     H10522   1.129   8.929   4.887  0.2937  0.3899  1.8719
   80MOL0     H10523   1.282   9.106   4.927 -1.8287 -0.9281 -1.7309
   80MOL0     H10524   1.822   9.137   4.677  1.3904 -0.6097 -1.2733
   80MOL0     H10525   2.043   9.256   4.672  0.9812 -1.1773  0.2535
   80MOL0     H10526   2.193   9.559   4.824  0.9369 -0.1175  2.4920
   80MOL0     H10527   2.135   9.445   4.710  0.8075  0.3807 -0.2588
   80MOL0     H10528   2.381   9.483   4.691 -2.9105  1.7297 -0.1140
   80MOL0     H10529   2.356   9.317   4.740 -1.2353  0.4958  0.5925
   80MOL0     H10530   2.393   9.410   4.975  0.1906  1.2011  2.1101
   80MOL0     H10531   2.438   9.563   4.894  0.1910 -0.9740  1.9723
   80MOL0     H10532   2.597   9.304   4.876 -2.9251 -0.9232 -4.4788
   80MOL0     H10533   2.614   9.434   4.765  0.7326 -1.6262 -0.6465
   80MOL0     H10534   2.611   9.460   5.078  2.2015 -0.0933  1.5928
   80MOL0     H10535   2.686   9.574   4.968  1.7662 -0.2516  0.1380
   80MOL0     H10536   2.849   9.401   4.904 -2.1598 -1.3119 -1.1935
   80MOL0     H10537   2.768   9.279   4.998 -0.3605  0.6151 -1.8996
   80MOL0     H10538   2.915   9.522   5.103  0.5307 -1.9947 -3.4108
   80MOL0     H10539   2.808   9.429   5.205 -1.1334 -0.0589 -0.2409
   80MOL0     H10540   2.948   9.223   5.124 -1.6449  0.4235 -0.0338
   80MOL0     H10541   3.041   9.337   5.227 -2.0537  2.0525  0.2459
   80MOL0     H10542   1.992   9.291   5.106 -2.3155  0.9483  0.7697
   80MOL0     H10543   1.787   9.153   5.088 -0.2843 -0.2530 -0.4283
   80MOL0     H10544   1.609   8.876   4.775  0.6418 -1.4834  0.3830
   80MOL0     H10545   1.440   8.692   4.728  1.8945 -1.6320  1.9599
   80MOL0     H10546   2.030   7.991   4.919 -0.1367 -1.1797 -2.6915
   80MOL0     H10547   2.249   7.906   4.884 -3.2600  1.0133  3.0911
   80MOL0     H10548   2.661   7.858   4.491  1.0665  0.2895 -0.9848
   80MOL0     H10549   2.915   7.857   4.475  0.8117  0.9701  0.2587
   80MOL0     H10550   3.101   7.871   4.503 -0.9928  2.7592  0.0140
   80MOL0     H10551   3.096   7.730   4.614  1.7770 -1.0286 -0.8551
   80MOL0     H10552   3.348   7.822   4.555 -1.9303  0.3648 -2.0690
   80MOL0     H10553   3.313   7.960   4.647  3.6833 -1.0791  0.1853
   80MOL0     H10554   3.301   7.665   4.738 -0.5444  0.5302 -2.1262
   80MOL0     H10555   3.254   7.800   4.846 -3.0379 -0.9029 -1.4206
   80MOL0     H10556   3.528   7.776   4.708  1.2252 -0.6041  1.9670
   80MOL0     H10557   3.488   7.905   4.827  1.2655  0.9610 -1.2322
   80MOL0     H10558   3.554   7.541   5.051  0.1688 -0.1087 -1.0322
   80MOL0     H10559   2.923   8.017   4.876 -1.5872 -0.2163  0.7439
   80MOL0     H10560   2.692   8.071   4.862  0.1220  0.8022 -0.1422
   81MOL0     O10561   5.028   8.039   0.628  0.2659 -0.2748 -0.3734
   81MOL0     C10562   4.972   7.988   0.531  0.4486 -0.5339 -0.2531
   81MOL0     O10563   5.025   7.970   0.406  0.7421  0.5823 -0.1447
   81MOL0     C10564   5.157   8.005   0.399 -0.2882 -0.3139 -0.4079
   81MOL0     C10565   5.260   7.916   0.422 -0.6000 -0.1664 -1.2441
   81MOL0     C10566   5.399   7.949   0.419  0.1957  0.1205  0.4342
   81MOL0     C10567   5.432   8.074   0.370  0.6322  1.3129 -0.2985
   81MOL0     O10568   5.559   8.097   0.354 -0.6168 -0.1588  0.5676
   81MOL0     C10569   5.617   8.227   0.317  0.1087 -0.6635 -0.2923
   81MOL0     C10570   5.766   8.234   0.353  0.1906 -0.2159  0.3351
   81MOL0     C10571   5.808   8.202   0.498 -1.0328 -0.9237  0.0186
   81MOL0     C10572   5.948   8.164   0.507  0.5675  0.0722 -0.0684
   81MOL0     C10573   5.997   8.186   0.646 -0.1484 -1.0417  0.0868
   81MOL0     C10574   6.096   8.095   0.704  0.2237  0.6844 -0.6396
   81MOL0     C10575   6.145   8.154   0.840 -0.4810 -0.2871 -0.4815
   81MOL0     C10576   6.234   8.055   0.931 -0.1566  0.0630 -0.1483
   81MOL0     N10577   6.155   7.937   0.963 -0.0932  0.2563 -0.1642
   81MOL0     C10578   6.194   7.807   0.936 -0.3428 -0.4430 -0.4925
   81MOL0     C10579   6.097   7.719   0.991 -0.7039  0.1080 -0.1823
   81MOL0     C10580   6.104   7.564   0.982 -0.8560  0.7813 -0.3654
   81MOL0     C10581   6.127   7.516   0.834  0.0491 -0.0044 -0.0138
   81MOL0     C10582   6.069   7.375   0.814  0.0174  0.2380  0.1886
   81MOL0     C10583   6.137   7.268   0.898  0.3483 -1.0615 -0.8470
   81MOL0     O10584   6.281   7.256   0.883  0.8517  1.0653 -0.5995
   81MOL0     C10585   6.342   7.160   0.813 -0.4597  0.7342 -0.7844
   81MOL0     C10586   6.479   7.158   0.819 -0.6099 -0.2026 -0.8314
   81MOL0     C10587   6.553   7.059   0.770  0.3226  0.2136  0.4009
   81MOL0     C10588   6.495   6.948   0.699  0.3306  0.1001 -0.7473
   81MOL0     C10589   6.576   6.849   0.631 -0.3234  0.0315  0.0765
   81MOL0     O10590   6.707   6.880   0.601  0.3932 -0.3827 -0.1551
   81MOL0     C10591   6.794   6.782   0.557  0.3358 -0.6765 -0.7971
   81MOL0     C10592   6.894   6.745   0.641 -0.1589  0.2020  0.2176
   81MOL0     C10593   6.995   6.661   0.590  0.6455  0.0674 -0.4967
   81MOL0     C10594   6.990   6.623   0.456 -0.7434 -0.6233 -0.5110
   81MOL0     O10595   7.077   6.520   0.405  0.7141  0.8521  1.3327
   81MOL0     C10596   7.156   6.441   0.484 -0.1490  0.3419  0.9672
   81MOL0     C10597   7.219   6.319   0.408 -0.7352 -0.1070  0.5830
   81MOL0     C10598   7.304   6.384   0.288 -0.9218 -0.2254 -0.0851
   81MOL0     C10599   7.344   6.279   0.194  0.4973  0.1635 -0.4557
   81MOL0     C10600   7.460   6.322   0.109  0.1470  0.3362  0.3011
   81MOL0     C10601   7.515   6.194   0.038 -0.0968 -0.0025 -0.8554
   81MOL0     C10602   7.597   6.236  -0.084 -0.6460  0.3893 -0.3906
   81MOL0     C10603   7.675   6.116  -0.140  0.5485 -0.5902 -0.1112
   81MOL0    Cl10604   7.810   6.084  -0.022  0.0171  0.2326  0.2528
   81MOL0     C10605   6.888   6.662   0.367  0.0198 -0.1400  0.2482
   81MOL0     C10606   6.790   6.738   0.430  0.1125  0.4391  0.2817
   81MOL0     O10607   6.526   6.746   0.586  0.0860 -0.3411 -0.3876
   81MOL0     C10608   6.349   6.952   0.681 -1.0499 -0.0910  1.1564
   81MOL0     C10609   6.273   7.066   0.732  0.0208  0.1898  0.5359
   81MOL0     N10610   6.005   7.800   1.054 -0.4548  0.1955  1.0835
   81MOL0     N10611   6.033   7.925   1.031 -0.1225  0.7498  0.3107
   81MOL0     C10612   5.332   8.163   0.330 -0.3024  0.6520  0.5814
   81MOL0     C10613   5.195   8.131   0.351 -0.5993  0.9006  0.1442
   81MOL0     C10614   4.849   7.921   0.575 -0.0840  0.8961  0.6675
   81MOL0     C10615   4.774   7.846   0.485 -0.3261  0.1710 -0.6957
   81MOL0     C10616   4.645   7.791   0.523 -0.9365  0.2979 -0.4275
   81MOL0     C10617   4.593   7.817   0.647 -0.1650 -0.4011 -0.8563
   81MOL0     O10618   4.471   7.772   0.676  1.3619 -0.0560  0.0442
   81MOL0     C10619   4.412   7.780   0.805  0.4183  0.8658 -0.9252
   81MOL0     C10620   4.332   7.912   0.836  0.2298 -0.3497  1.1746
   81MOL0     C10621   4.252   7.953   0.713 -0.3809  0.2482 -0.2663
   81MOL0     C10622   4.167   8.066   0.736 -0.3000  0.5154  0.3152
   81MOL0     C10623   4.138   8.139   0.612 -0.2768 -0.6957 -0.7325
   81MOL0     C10624   4.101   8.194   0.508 -0.6379  0.3682  0.1207
   81MOL0     C10625   4.667   7.891   0.741 -0.8672 -0.9570  0.3611
   81MOL0     C10626   4.794   7.938   0.704 -0.7386  0.0515 -0.7152
   81MOL0     H10627   5.231   7.816   0.452  2.8343 -0.7377  0.8414
   81MOL0     H10628   5.479   7.881   0.447 -2.5877 -2.9388  1.6202
   81MOL0     H10629   5.570   8.311   0.368  2.5040  1.1437 -0.8732
   81MOL0     H10630   5.613   8.247   0.209  0.8319 -0.8974 -0.3717
   81MOL0     H10631   5.803   8.331   0.320 -2.9306  0.7509 -0.6244
   81MOL0     H10632   5.826   8.177   0.282  0.0864  2.5218 -2.1243
   81MOL0     H10633   5.738   8.132   0.544 -1.9621  0.6222  1.0671
   81MOL0     H10634   5.786   8.294   0.554  0.3317 -1.0454  0.7797
   81MOL0     H10635   5.957   8.057   0.489 -2.5788 -0.9080  3.0556
   81MOL0     H10636   5.997   8.225   0.430 -2.1024 -0.9313 -2.7812
   81MOL0     H10637   5.913   8.167   0.714 -1.7268  2.0559 -0.7966
   81MOL0     H10638   6.031   8.290   0.653 -0.8012 -0.6745 -1.7704
   81MOL0     H10639   6.189   8.089   0.647  1.4652 -1.3510  1.4303
   81MOL0     H10640   6.051   7.996   0.712 -2.7472  1.9749  0.1147
   81MOL0     H10641   6.199   8.248   0.831 -1.4397  0.6842  2.5252
   81MOL0     H10642   6.057   8.193   0.893 -2.0650 -1.9274 -1.7738
   81MOL0     H10643   6.258   8.110   1.022 -2.8487  0.8598  0.1767
   81MOL0     H10644   6.329   8.019   0.891 -0.6737 -2.6136  0.8322
   81MOL0     H10645   6.290   7.776   0.894  1.3310 -0.2668  2.8766
   81MOL0     H10646   6.004   7.529   1.010 -0.1274 -0.6467  0.5500
   81MOL0     H10647   6.185   7.533   1.049 -0.3237  1.4965 -0.6622
   81MOL0     H10648   6.235   7.505   0.823  0.2564 -0.5911  2.1261
   81MOL0     H10649   6.091   7.579   0.752 -0.2977 -2.9840 -2.2850
   81MOL0     H10650   5.960   7.373   0.818 -0.0399  1.5534 -0.2257
   81MOL0     H10651   6.077   7.350   0.707 -0.3853  1.9231 -0.2657
   81MOL0     H10652   6.079   7.175   0.894  2.2076 -2.2354 -1.7309
   81MOL0     H10653   6.114   7.296   1.002  0.8474 -0.3651 -0.9229
   81MOL0     H10654   6.533   7.236   0.872 -1.5076 -0.3382  0.3188
   81MOL0     H10655   6.661   7.060   0.781  0.4545  4.4332  0.5389
   81MOL0     H10656   6.906   6.784   0.742  1.0980 -0.3499  0.2985
   81MOL0     H10657   7.063   6.635   0.670  0.2899  5.4284  2.0246
   81MOL0     H10658   7.108   6.397   0.572  1.7286 -4.5811 -0.1801
   81MOL0     H10659   7.238   6.504   0.521 -0.2539 -0.0207  1.8594
   81MOL0     H10660   7.146   6.252   0.360  0.5568 -0.4360 -1.0141
   81MOL0     H10661   7.274   6.248   0.471  1.3841  1.3433  0.4682
   81MOL0     H10662   7.386   6.443   0.329 -0.0096  0.7350 -3.0493
   81MOL0     H10663   7.239   6.461   0.245 -0.3918  0.9139  1.0769
   81MOL0     H10664   7.368   6.190   0.253 -0.9116  0.0679  0.0187
   81MOL0     H10665   7.255   6.247   0.137 -1.7563  1.8664  1.8748
   81MOL0     H10666   7.535   6.377   0.167 -0.7284  0.7150  1.0967
   81MOL0     H10667   7.432   6.382   0.022 -0.6130 -1.5955 -0.8505
   81MOL0     H10668   7.434   6.128   0.006 -1.6844  0.8625  1.1754
   81MOL0     H10669   7.574   6.145   0.116 -1.3979 -1.8912 -1.0062
   81MOL0     H10670   7.528   6.286  -0.152 -1.8161 -0.4404  0.1565
   81MOL0     H10671   7.665   6.312  -0.044 -3.2866  2.6797  0.0543
   81MOL0     H10672   7.715   6.163  -0.230  2.4953 -1.8824  0.0174
   81MOL0     H10673   7.622   6.023  -0.163 -0.7748 -0.8454  3.4207
   81MOL0     H10674   6.878   6.627   0.265 -0.5990 -1.0075  0.6027
   81MOL0     H10675   6.700   6.744   0.369 -0.1936 -0.2065  0.6651
   81MOL0     H10676   6.290   6.883   0.622 -0.4921  0.9513 -0.7210
   81MOL0     H10677   6.164   7.064   0.728 -0.0248  1.3435  1.0295
   81MOL0     H10678   5.353   8.267   0.310  0.0407  0.0119 -3.0548
   81MOL0     H10679   5.120   8.203   0.321  0.8984  2.2386 -0.5493
   81MOL0     H10680   4.821   7.832   0.388  1.6174 -0.5659  0.2943
   81MOL0     H10681   4.602   7.717   0.457  0.3547  0.0613 -1.0404
   81MOL0     H10682   4.490   7.769   0.881 -0.3535 -1.5886 -0.3921
   81MOL0     H10683   4.344   7.695   0.815  1.7965 -0.1273  0.3411
   81MOL0     H10684   4.264   7.881   0.916 -0.2950 -1.8815  0.1682
   81MOL0     H10685   4.389   7.995   0.880 -0.7615  1.6696 -1.0877
   81MOL0     H10686   4.186   7.869   0.690 -0.3560  0.3860 -0.8544
   81MOL0     H10687   4.319   7.966   0.628  1.3270 -1.6936  0.7008
   81MOL0     H10688   4.070   8.035   0.777 -0.2611 -1.6981 -1.0955
   81MOL0     H10689   4.218   8.129   0.809  3.0496 -1.8681  0.2596
   81MOL0     H10690   4.072   8.262   0.431 -4.3486  1.2130  2.0010
   81MOL0     H10691   4.630   7.910   0.841  0.1539 -1.0218  0.7645
   81MOL0     H10692   4.853   8.000   0.771  0.3309 -0.3237 -1.2794
   82MOL0     O10693   5.457   7.032  10.027 -0.0979  0.1180 -0.1995
   82MOL0     C10694   5.519   7.137  10.019  0.6505  0.1949 -0.6809
   82MOL0     O10695   5.510   7.230   9.924 -0.1756 -0.0854 -0.2463
   82MOL0     C10696   5.412   7.237   9.834  0.1782 -1.0188 -0.2441
   82MOL0     C10697   5.416   7.346   9.748 -0.1901  0.1502 -0.0013
   82MOL0     C10698   5.325   7.369   9.647  0.5101  0.2036  0.9350
   82MOL0     C10699   5.221   7.272   9.629 -0.1445  0.5959  0.5999
   82MOL0     O10700   5.129   7.266   9.530  0.3250 -0.2950 -0.6110
   82MOL0     C10701   5.149   7.350   9.416  0.3509 -0.1409 -0.4173
   82MOL0     C10702   5.067   7.281   9.302 -0.8344 -0.9214 -0.7415
   82MOL0     C10703   4.927   7.323   9.321 -0.0195 -0.1987  0.4573
   82MOL0     C10704   4.839   7.239   9.237 -0.1198 -0.8478 -0.5128
   82MOL0     C10705   4.707   7.237   9.290  0.3489  1.0550  0.5814
   82MOL0     C10706   4.610   7.188   9.176  0.0062  0.8183 -0.3021
   82MOL0     C10707   4.461   7.217   9.200 -0.9103  0.9102  0.4472
   82MOL0     C10708   4.370   7.173   9.083  0.1885  0.0751 -0.1246
   82MOL0     N10709   4.229   7.195   9.131  0.3574  0.3567 -0.4598
   82MOL0     C10710   4.137   7.094   9.173  1.3708 -0.2666  0.2832
   82MOL0     C10711   4.020   7.167   9.179  0.2948 -0.1597  0.8250
   82MOL0     C10712   3.891   7.102   9.224 -0.0804 -0.4437 -0.5478
   82MOL0     C10713   3.774   7.185   9.177  0.0512  0.5890  0.6243
   82MOL0     C10714   3.647   7.091   9.190 -0.8785  0.2717  0.8845
   82MOL0     C10715   3.565   7.114   9.306  0.2533 -0.1407 -0.3269
   82MOL0     O10716   3.494   7.230   9.305  0.3544  0.1363  0.1022
   82MOL0     C10717   3.359   7.234   9.269  0.5437 -0.5945  0.5239
   82MOL0     C10718   3.285   7.141   9.192  0.4767 -0.8066 -0.3781
   82MOL0     C10719   3.149   7.154   9.169 -0.1401  0.3555  0.5279
   82MOL0     C10720   3.075   7.253   9.238  0.7871  0.1812 -0.1261
   82MOL0     C10721   2.926   7.279   9.237  0.3568  0.7544  0.1255
   82MOL0     O10722   2.873   7.403   9.277  0.3977  0.0712  0.5238
   82MOL0     C10723   2.737   7.437   9.263 -0.2531 -0.4095  0.7983
   82MOL0     C10724   2.722   7.577   9.265  0.5094  0.0687 -0.0836
   82MOL0     C10725   2.594   7.633   9.245 -0.8476  0.1338  0.0287
   82MOL0     C10726   2.477   7.558   9.238  0.3453  0.8386 -0.2881
   82MOL0     O10727   2.350   7.614   9.220 -0.4035  0.1458 -0.1413
   82MOL0     C10728   2.354   7.760   9.213 -0.4189 -0.3582 -0.2576
   82MOL0     C10729   2.215   7.821   9.190  0.1654  1.3400  0.1507
   82MOL0     C10730   2.095   7.743   9.239 -0.5015 -0.2698 -0.4218
   82MOL0     C10731   2.090   7.704   9.387 -0.4319  0.0341  0.4037
   82MOL0     C10732   1.972   7.616   9.412 -0.1340  0.2763  0.6516
   82MOL0     C10733   1.839   7.683   9.392 -0.0774 -0.1835 -0.3704
   82MOL0     C10734   1.726   7.585   9.427  0.5051 -0.5065 -0.0190
   82MOL0     C10735   1.586   7.656   9.446 -0.1065 -0.2955  0.7202
   82MOL0    Cl10736   1.578   7.799   9.345 -0.0790  0.6302  0.1489
   82MOL0     C10737   2.498   7.418   9.248  0.9165  0.6281  1.1957
   82MOL0     C10738   2.625   7.354   9.257 -0.2445  0.3752  0.4010
   82MOL0     O10739   2.864   7.180   9.196 -0.1826  0.1709  0.5895
   82MOL0     C10740   3.147   7.345   9.314  0.8382 -0.2873 -0.2594
   82MOL0     C10741   3.281   7.342   9.326  0.0251  0.5881  0.2789
   82MOL0     N10742   4.046   7.300   9.144  0.1650  0.0051 -0.9099
   82MOL0     N10743   4.171   7.318   9.130 -0.6065 -0.3820 -0.4202
   82MOL0     C10744   5.209   7.170   9.725  0.7412  1.1816  0.0780
   82MOL0     C10745   5.297   7.152   9.829  0.7798 -0.5738  0.0833
   82MOL0     C10746   5.634   7.158  10.106 -0.9852  0.0191  0.8103
   82MOL0     C10747   5.703   7.045  10.154 -0.8301 -0.5313  0.6914
   82MOL0     C10748   5.807   7.054  10.244 -0.0944  0.4951 -0.0531
   82MOL0     C10749   5.860   7.179  10.276 -0.7226  0.3112  0.4138
   82MOL0     O10750   5.979   7.175  10.347  0.1440  0.2901  0.4568
   82MOL0     C10751   6.028   7.290  10.422 -0.5169 -1.5199  0.2183
   82MOL0     C10752   5.928   7.327  10.539 -0.6580  0.4038  0.7267
   82MOL0     C10753   5.999   7.422  10.643  0.0246 -0.5846 -0.7647
   82MOL0     C10754   6.067   7.374  10.774  0.3355  0.5861  0.2252
   82MOL0     C10755   6.127   7.245  10.762 -0.2567 -0.0265 -1.0425
   82MOL0     C10756   6.177   7.136  10.745 -0.3389  1.2071 -0.3413
   82MOL0     C10757   5.789   7.290  10.231  0.4050 -0.3478  0.3879
   82MOL0     C10758   5.683   7.290  10.140  0.4221 -0.2485 -0.5102
   82MOL0     H10759   5.498   7.417   9.759 -0.8015  1.4627 -2.9033
   82MOL0     H10760   5.331   7.453   9.578 -2.3282 -0.4305 -0.2393
   82MOL0     H10761   5.252   7.366   9.382  0.4523  1.2175  0.4494
   82MOL0     H10762   5.117   7.451   9.441 -1.3543 -0.8628  0.4675
   82MOL0     H10763   5.091   7.174   9.306 -2.0053 -1.2285  3.8589
   82MOL0     H10764   5.094   7.318   9.203  1.0306  1.5449  0.5631
   82MOL0     H10765   4.916   7.428   9.290 -0.5823 -1.2270 -3.4700
   82MOL0     H10766   4.901   7.308   9.426 -1.1034 -0.5086  0.1574
   82MOL0     H10767   4.850   7.251   9.129 -0.7491  0.3301 -0.4613
   82MOL0     H10768   4.874   7.136   9.249 -2.8783 -1.9841 -1.3237
   82MOL0     H10769   4.683   7.339   9.323  0.4046  1.4682 -0.6126
   82MOL0     H10770   4.695   7.180   9.382  1.7561  0.0182  0.1586
   82MOL0     H10771   4.609   7.079   9.170  0.0379  0.8806 -2.0977
   82MOL0     H10772   4.635   7.228   9.077 -1.0150  0.9473 -0.5145
   82MOL0     H10773   4.441   7.160   9.291  2.2641 -1.0563  0.0699
   82MOL0     H10774   4.430   7.321   9.217 -1.9247  0.4009  1.9112
   82MOL0     H10775   4.382   7.069   9.052 -1.9145  0.0436 -0.9316
   82MOL0     H10776   4.393   7.239   8.999  3.7773  0.1904  0.7597
   82MOL0     H10777   4.143   6.987   9.190  1.2072 -0.0174  2.1303
   82MOL0     H10778   3.899   7.094   9.333 -0.7317 -3.6012 -0.6500
   82MOL0     H10779   3.879   7.000   9.187 -0.7554  0.8560 -4.3612
   82MOL0     H10780   3.803   7.207   9.073  0.8602 -0.9205  0.4986
   82MOL0     H10781   3.759   7.276   9.235 -0.1966  0.1842  1.1982
   82MOL0     H10782   3.597   7.105   9.093  1.0706  5.3599  0.2800
   82MOL0     H10783   3.673   6.985   9.185  1.5092  0.8052  0.7691
   82MOL0     H10784   3.631   7.113   9.394 -0.5538 -1.4783  0.2932
   82MOL0     H10785   3.489   7.035   9.300  0.5114 -0.3832 -0.4840
   82MOL0     H10786   3.340   7.060   9.144  1.5848  0.3343 -1.0980
   82MOL0     H10787   3.097   7.086   9.103  0.2114 -0.3531  0.9654
   82MOL0     H10788   2.811   7.633   9.292  1.4526 -0.6798 -1.5419
   82MOL0     H10789   2.601   7.741   9.259  2.4476 -0.0327  0.4255
   82MOL0     H10790   2.408   7.798   9.126 -0.3375  0.5837  0.1985
   82MOL0     H10791   2.400   7.792   9.306 -0.9877 -3.1374  1.0973
   82MOL0     H10792   2.206   7.846   9.084  4.1768  0.9902 -0.4058
   82MOL0     H10793   2.223   7.916   9.244  2.6524  0.5740  1.2840
   82MOL0     H10794   2.074   7.656   9.176 -3.5949  0.3266 -0.3917
   82MOL0     H10795   2.004   7.800   9.217 -2.5741 -3.0220  0.3793
   82MOL0     H10796   2.179   7.642   9.402 -0.9705 -1.3817 -1.7539
   82MOL0     H10797   2.077   7.790   9.452 -2.2049 -1.1552  1.7189
   82MOL0     H10798   1.975   7.591   9.518 -0.6829  2.0436  1.1117
   82MOL0     H10799   1.971   7.518   9.363 -1.1582 -1.4490  3.8657
   82MOL0     H10800   1.835   7.723   9.290 -0.5239  0.2392 -0.1928
   82MOL0     H10801   1.842   7.769   9.461  0.8854 -0.3082 -0.2361
   82MOL0     H10802   1.718   7.523   9.337  2.9808  1.4842 -1.7396
   82MOL0     H10803   1.740   7.520   9.514 -0.6825  0.4927  0.9659
   82MOL0     H10804   1.566   7.687   9.549  1.8920  0.1145  1.0262
   82MOL0     H10805   1.500   7.601   9.406  0.2870  0.3049 -1.0559
   82MOL0     H10806   2.405   7.362   9.247  0.6307  0.9347 -1.9693
   82MOL0     H10807   2.630   7.247   9.239 -2.7316 -0.1932  2.4664
   82MOL0     H10808   3.094   7.418   9.374  1.3420 -1.4339  1.6730
   82MOL0     H10809   3.331   7.415   9.389  1.1158 -0.8469  1.1283
   82MOL0     H10810   5.118   7.112   9.720  2.5320 -1.7270 -1.9257
   82MOL0     H10811   5.286   7.075   9.905  0.2504  0.3694  0.9827
   82MOL0     H10812   5.673   6.944  10.128 -3.4761  0.7085 -1.6059
   82MOL0     H10813   5.850   6.963  10.284 -3.1624 -2.0379 -1.9607
   82MOL0     H10814   6.058   7.376  10.362  0.0562 -0.5859  1.7809
   82MOL0     H10815   6.125   7.259  10.462 -0.7452 -2.4580  0.0834
   82MOL0     H10816   5.849   7.390  10.497 -1.1242  0.7646  2.0901
   82MOL0     H10817   5.877   7.235  10.570 -2.0716 -0.6687 -4.0067
   82MOL0     H10818   5.932   7.502  10.675 -0.1086 -1.0796  0.2478
   82MOL0     H10819   6.091   7.461  10.599 -1.1423  1.6968 -1.3361
   82MOL0     H10820   6.131   7.451  10.818  0.0052  0.8182  0.3084
   82MOL0     H10821   5.987   7.362  10.847 -3.1148 -0.5984 -3.3716
   82MOL0     H10822   6.222   7.043  10.717 -3.2908 -0.9880  1.5611
   82MOL0     H10823   5.835   7.387  10.252 -2.1963  0.8293  1.0604
   82MOL0     H10824   5.633   7.378  10.100 -2.2838 -1.0918  0.7812
   83MOL0     O10825  11.134   8.075   4.790 -0.1304  0.4782  0.0925
   83MOL0     C10826  11.224   8.031   4.852 -0.0268  0.4928  0.5378
   83MOL0     O10827  11.252   8.049   4.980 -0.0492 -0.1785  0.0770
   83MOL0     C10828  11.171   8.123   5.065  0.5412  0.7437  0.0150
   83MOL0     C10829  11.230   8.139   5.193 -0.2274  0.5442 -0.1888
   83MOL0     C10830  11.158   8.198   5.293  0.7765 -0.4694 -0.0480
   83MOL0     C10831  11.028   8.238   5.284  0.4649 -0.0300  0.5901
   83MOL0     O10832  10.964   8.303   5.385 -0.5116  0.3217 -0.8782
   83MOL0     C10833  10.855   8.393   5.369  0.4281  0.5308  0.3564
   83MOL0     C10834  10.905   8.523   5.315  0.7647  0.2363  0.3625
   83MOL0     C10835  10.887   8.639   5.409 -0.1379 -0.0094  0.2516
   83MOL0     C10836  10.757   8.696   5.406 -0.4224  0.4051 -0.0796
   83MOL0     C10837  10.725   8.768   5.543 -0.4644  0.9307  0.6190
   83MOL0     C10838  10.800   8.902   5.565 -0.5228  0.2535 -0.5917
   83MOL0     C10839  10.762   8.963   5.698  0.2799 -0.8370  0.5615
   83MOL0     C10840  10.836   9.094   5.720 -1.1140 -0.3420  0.4598
   83MOL0     N10841  10.982   9.081   5.736 -0.2022  0.0523  0.4101
   83MOL0     C10842  11.074   9.138   5.650  0.0637  0.7835  0.4244
   83MOL0     C10843  11.189   9.104   5.702  0.3620  0.6584  0.1217
   83MOL0     C10844  11.308   9.148   5.632 -0.4739 -0.2020  0.5837
   83MOL0     C10845  11.410   9.036   5.586  0.4659  0.3107  0.3121
   83MOL0     C10846  11.558   9.089   5.558  0.9980 -0.2081  0.2189
   83MOL0     C10847  11.630   9.155   5.677 -0.1897  0.5813  1.1554
   83MOL0     O10848  11.623   9.067   5.788 -0.5960  0.2840  1.0555
   83MOL0     C10849  11.693   8.947   5.788 -0.0527 -0.2614 -0.1288
   83MOL0     C10850  11.635   8.826   5.819 -0.3181  1.1115 -0.6438
   83MOL0     C10851  11.713   8.711   5.825  0.4186  0.6405  0.2039
   83MOL0     C10852  11.852   8.715   5.793 -0.3525  0.1494 -0.4225
   83MOL0     C10853  11.949   8.600   5.809  0.3519 -0.0589  0.0779
   83MOL0     O10854  12.067   8.605   5.750  0.7980 -0.9070  0.4380
   83MOL0     C10855  12.143   8.494   5.745  0.1005  0.3743  0.0608
   83MOL0     C10856  12.262   8.468   5.812  0.5858 -0.0991  0.5455
   83MOL0     C10857  12.327   8.345   5.798  0.5056  0.7095 -0.7410
   83MOL0     C10858  12.279   8.252   5.709 -0.3797 -0.4327 -0.0518
   83MOL0     O10859  12.371   8.146   5.697  0.3778 -0.1372  0.6033
   83MOL0     C10860  12.345   8.033   5.604  0.2741  0.7125 -0.1056
   83MOL0     C10861  12.423   7.905   5.638  0.0875 -0.7776 -0.8666
   83MOL0     C10862  12.369   7.834   5.762  0.3055  0.0714 -0.3760
   83MOL0     C10863  12.472   7.730   5.820 -0.2436 -0.7777  0.1022
   83MOL0     C10864  12.418   7.659   5.949 -0.0888  0.5670  0.8360
   83MOL0     C10865  12.490   7.531   5.971  0.5262  0.7658  0.1135
   83MOL0     C10866  12.439   7.426   5.865  0.0422  0.7266 -1.1481
   83MOL0     C10867  12.554   7.336   5.818  0.0627  0.0920 -0.0974
   83MOL0    Cl10868  12.489   7.242   5.676  0.3129 -0.0124 -0.1392
   83MOL0     C10869  12.161   8.278   5.632  0.1712 -0.3102 -0.9088
   83MOL0     C10870  12.099   8.399   5.654  0.6721 -0.1069 -0.0804
   83MOL0     O10871  11.908   8.495   5.872 -0.0383  0.3011 -0.6003
   83MOL0     C10872  11.915   8.841   5.770  0.0110 -0.2047  0.5728
   83MOL0     C10873  11.836   8.956   5.775  0.0837 -0.1131 -0.4382
   83MOL0     N10874  11.175   9.023   5.814 -0.3561 -0.8189  0.0340
   83MOL0     N10875  11.042   9.009   5.828  0.1611 -0.2234 -0.6789
   83MOL0     C10876  10.966   8.216   5.155  0.2110 -0.4315 -0.6203
   83MOL0     C10877  11.036   8.163   5.045  0.9265  0.6158 -0.2267
   83MOL0     C10878  11.318   7.944   4.776  0.1616 -0.6131 -0.2722
   83MOL0     C10879  11.434   7.892   4.839  0.2821  0.4273 -0.0671
   83MOL0     C10880  11.522   7.805   4.768  0.1739 -0.2881 -0.2463
   83MOL0     C10881  11.502   7.769   4.639  0.9422  0.8749  0.6954
   83MOL0     O10882  11.611   7.700   4.575  0.7098 -0.9063  0.0918
   83MOL0     C10883  11.589   7.675   4.436  0.4821  0.1355 -0.5362
   83MOL0     C10884  11.708   7.626   4.355 -0.3022 -0.7688 -0.5022
   83MOL0     C10885  11.834   7.707   4.374  0.7863  0.4092 -0.6589
   83MOL0     C10886  11.910   7.673   4.498 -0.6830  0.2243 -1.1164
   83MOL0     C10887  11.975   7.533   4.509  0.6677  0.1020  0.2269
   83MOL0     C10888  12.017   7.424   4.519 -0.3726  0.5611  0.0949
   83MOL0     C10889  11.393   7.830   4.575  0.4561  0.1735 -0.1202
   83MOL0     C10890  11.294   7.907   4.642 -0.6368  0.1380  0.2503
   83MOL0     H10891  11.324   8.087   5.210  0.1367  0.6011 -1.8539
   83MOL0     H10892  11.207   8.217   5.388  2.2800 -2.0738 -0.4583
   83MOL0     H10893  10.803   8.392   5.465 -2.7092 -1.2406 -1.2147
   83MOL0     H10894  10.772   8.348   5.313  1.5559 -0.9514 -0.1759
   83MOL0     H10895  10.874   8.551   5.214  1.7008 -1.5243 -0.4539
   83MOL0     H10896  11.012   8.512   5.292  0.5364  2.2246 -2.1153
   83MOL0     H10897  10.961   8.716   5.385 -0.0482 -0.2545 -0.2879
   83MOL0     H10898  10.912   8.607   5.510  0.9288 -0.7258 -0.2132
   83MOL0     H10899  10.732   8.768   5.327  0.9531 -0.7282 -1.6245
   83MOL0     H10900  10.692   8.609   5.410 -0.6359  0.6131  1.5292
   83MOL0     H10901  10.753   8.698   5.622  0.9271 -1.2046 -1.6570
   83MOL0     H10902  10.616   8.777   5.540 -0.7366 -1.7402 -2.9919
   83MOL0     H10903  10.771   8.970   5.484 -1.9797 -3.1041 -3.1462
   83MOL0     H10904  10.907   8.894   5.545  0.1388  2.5367  1.5103
   83MOL0     H10905  10.656   8.988   5.702  0.2227 -0.8798 -0.3856
   83MOL0     H10906  10.790   8.894   5.778  0.9632 -0.3620  0.7456
   83MOL0     H10907  10.808   9.127   5.820  1.8199 -2.0112  1.9893
   83MOL0     H10908  10.823   9.170   5.643  2.1290 -1.0576 -0.9763
   83MOL0     H10909  11.065   9.195   5.558  0.0588 -0.3350 -0.2865
   83MOL0     H10910  11.368   9.210   5.699  0.8939  1.8126 -2.3387
   83MOL0     H10911  11.274   9.228   5.566 -1.5830 -0.4093  0.8723
   83MOL0     H10912  11.369   9.000   5.491  1.0570  3.9039 -1.4894
   83MOL0     H10913  11.411   8.957   5.662 -2.0835 -1.0060 -0.9070
   83MOL0     H10914  11.620   9.012   5.511 -0.4114 -1.0845 -0.2712
   83MOL0     H10915  11.542   9.167   5.484 -1.0777  1.0395  1.8594
   83MOL0     H10916  11.581   9.249   5.703 -1.2047 -0.1106  1.7779
   83MOL0     H10917  11.735   9.181   5.661  0.1696 -1.9313 -1.7047
   83MOL0     H10918  11.530   8.826   5.850  0.2439 -0.8793  1.5720
   83MOL0     H10919  11.670   8.616   5.854  1.0204  0.7362  1.4541
   83MOL0     H10920  12.286   8.556   5.871 -2.1410  1.1499 -0.0442
   83MOL0     H10921  12.419   8.320   5.849  1.5333  1.5159 -2.1553
   83MOL0     H10922  12.381   8.066   5.506 -0.6896  1.7868 -0.1131
   83MOL0     H10923  12.240   8.006   5.598  0.6848 -0.5952 -2.8252
   83MOL0     H10924  12.526   7.934   5.663  0.3057 -0.8502 -1.6508
   83MOL0     H10925  12.426   7.832   5.557 -0.0272 -1.1238 -0.5634
   83MOL0     H10926  12.268   7.793   5.750 -0.1813  1.5552 -1.7984
   83MOL0     H10927  12.360   7.907   5.843  1.3579  0.3136 -0.4671
   83MOL0     H10928  12.488   7.652   5.745  2.6824  0.9546 -1.2841
   83MOL0     H10929  12.564   7.784   5.846 -0.4266 -0.5203  0.2244
   83MOL0     H10930  12.310   7.645   5.946 -0.4358  2.3958  2.6292
   83MOL0     H10931  12.442   7.721   6.037  3.1202  1.0408 -0.2436
   83MOL0     H10932  12.472   7.501   6.075  1.0611 -1.3731 -0.3540
   83MOL0     H10933  12.597   7.550   5.962  1.4150 -3.1916  0.2338
   83MOL0     H10934  12.359   7.360   5.900  0.5583 -1.6591 -4.0457
   83MOL0     H10935  12.396   7.468   5.773  1.9439  1.3352 -1.8171
   83MOL0     H10936  12.572   7.268   5.902 -2.5242 -0.9880 -0.3356
   83MOL0     H10937  12.646   7.385   5.785 -0.3573  0.2927 -1.0212
   83MOL0     H10938  12.113   8.212   5.561 -2.3502 -0.0016  0.4129
   83MOL0     H10939  12.018   8.419   5.585  0.3436  2.3184  0.8985
   83MOL0     H10940  12.021   8.855   5.750 -0.0636  1.1739  1.0452
   83MOL0     H10941  11.884   9.052   5.753  0.2583 -0.7382 -3.1771
   83MOL0     H10942  10.870   8.260   5.131  0.7661  1.2138  0.0394
   83MOL0     H10943  10.982   8.160   4.951  3.5069 -0.7814 -1.7963
   83MOL0     H10944  11.449   7.926   4.941 -4.3143  0.6474  0.7443
   83MOL0     H10945  11.595   7.761   4.835 -0.2770 -1.4260 -0.4893
   83MOL0     H10946  11.542   7.757   4.383 -0.1694 -0.4377 -0.8608
   83MOL0     H10947  11.526   7.585   4.431  0.9727 -0.2129 -0.5355
   83MOL0     H10948  11.734   7.523   4.380 -0.8487 -0.5691  1.0026
   83MOL0     H10949  11.684   7.628   4.248  1.9816  1.5883 -1.0684
   83MOL0     H10950  11.791   7.807   4.375 -0.4179 -0.0882  0.9781
   83MOL0     H10951  11.893   7.690   4.284  1.5694 -2.8507  0.3174
   83MOL0     H10952  11.993   7.743   4.511  0.0734 -0.9690  0.7419
   83MOL0     H10953  11.843   7.678   4.584 -2.9151 -1.0831 -2.6652
   83MOL0     H10954  12.066   7.330   4.532 -1.5352  0.0227  0.7569
   83MOL0     H10955  11.360   7.820   4.473 -3.5383  4.2608  0.4795
   83MOL0     H10956  11.217   7.952   4.581  0.0076 -0.7334 -1.2574
   84MOL0     O10957   4.187   4.015   4.216  0.5160  0.3836  0.8132
   84MOL0     C10958   4.188   3.908   4.276 -0.5343  1.0766 -0.0740
   84MOL0     O10959   4.268   3.878   4.383 -0.3726 -0.5745 -0.3209
   84MOL0     C10960   4.356   3.979   4.407  0.3591 -0.4233  0.6129
   84MOL0     C10961   4.334   4.065   4.515  0.3749 -0.1131  1.3234
   84MOL0     C10962   4.419   4.167   4.534  0.1612 -0.9626  0.2279
   84MOL0     C10963   4.530   4.194   4.456 -0.3210 -0.0313  0.8163
   84MOL0     O10964   4.612   4.308   4.468 -0.4504 -0.4107 -0.8808
   84MOL0     C10965   4.755   4.292   4.434 -0.7243 -0.5696 -0.2870
   84MOL0     C10966   4.839   4.201   4.530 -0.4779 -0.1606 -0.4413
   84MOL0     C10967   4.947   4.137   4.451 -0.0715  0.1631  0.6733
   84MOL0     C10968   5.058   4.055   4.522  1.0584 -0.0110  0.0460
   84MOL0     C10969   5.150   3.998   4.427  0.2125  0.7134  0.5418
   84MOL0     C10970   5.090   3.898   4.326 -0.1496  0.1371  0.3065
   84MOL0     C10971   5.208   3.853   4.237 -0.1631 -0.4466  0.2242
   84MOL0     C10972   5.140   3.782   4.117  1.3523 -0.1124 -0.3616
   84MOL0     N10973   5.232   3.687   4.059  0.4932 -0.3042 -0.6032
   84MOL0     C10974   5.355   3.730   4.005 -0.1563  0.1278 -0.7414
   84MOL0     C10975   5.409   3.607   3.958 -0.6206 -0.4863 -0.4749
   84MOL0     C10976   5.541   3.591   3.892 -0.1995 -0.0294  0.4515
   84MOL0     C10977   5.544   3.544   3.751  0.0219  0.7515  0.5431
   84MOL0     C10978   5.699   3.510   3.706  0.6938  0.3135 -0.6651
   84MOL0     C10979   5.787   3.627   3.655  0.4242  0.9654 -0.5920
   84MOL0     O10980   5.923   3.590   3.674  0.4169  0.5801 -0.6011
   84MOL0     C10981   6.005   3.582   3.565  0.8251 -0.5727  0.3129
   84MOL0     C10982   6.134   3.642   3.563 -0.8494  1.1409 -0.5486
   84MOL0     C10983   6.216   3.634   3.443  0.6270 -0.0274  0.0861
   84MOL0     C10984   6.174   3.556   3.333  0.1959 -0.5443  0.4223
   84MOL0     C10985   6.267   3.540   3.213 -0.0778  0.5252  0.9638
   84MOL0     O10986   6.365   3.631   3.205 -0.3984  0.1387  0.0409
   84MOL0     C10987   6.445   3.626   3.095 -0.4587 -0.8563  0.0224
   84MOL0     C10988   6.450   3.734   3.005 -0.5487 -0.4097 -0.1056
   84MOL0     C10989   6.535   3.723   2.886 -0.5027 -0.2202 -1.1831
   84MOL0     C10990   6.610   3.608   2.860 -0.7204 -0.5326  0.2639
   84MOL0     O10991   6.693   3.611   2.742  0.3363 -0.4743  0.0767
   84MOL0     C10992   6.817   3.548   2.760 -0.4141 -0.6996 -0.3709
   84MOL0     C10993   6.923   3.601   2.659 -0.0975 -0.5212  1.1853
   84MOL0     C10994   6.902   3.518   2.517  0.1739  0.5432 -0.1750
   84MOL0     C10995   7.006   3.554   2.414 -0.3105 -0.7088  0.5412
   84MOL0     C10996   7.002   3.471   2.285 -1.3666  0.9646 -0.1569
   84MOL0     C10997   6.992   3.315   2.317  0.9099 -0.2342  0.6782
   84MOL0     C10998   7.105   3.263   2.408 -0.2388  0.3843  0.5510
   84MOL0     C10999   7.160   3.139   2.351 -0.3403 -0.8558 -0.3579
   84MOL0    Cl11000   7.240   3.169   2.184  0.4275 -0.0949  0.2237
   84MOL0     C11001   6.606   3.515   2.960 -0.4969  1.0206  0.0072
   84MOL0     C11002   6.525   3.518   3.066 -0.5238 -0.3352  0.0658
   84MOL0     O11003   6.227   3.465   3.123 -0.2864  0.1930 -0.6967
   84MOL0     C11004   6.048   3.495   3.336  1.2918  0.0939  0.4230
   84MOL0     C11005   5.972   3.508   3.453  0.9550  0.5457 -1.3106
   84MOL0     N11006   5.328   3.499   4.000  1.1600 -0.4040  0.2291
   84MOL0     N11007   5.220   3.549   4.055 -0.4272  0.1671  0.6780
   84MOL0     C11008   4.551   4.095   4.355  0.3676 -0.7957  1.0372
   84MOL0     C11009   4.465   3.993   4.323  0.0204  0.2603  0.6302
   84MOL0     C11010   4.087   3.803   4.237 -0.4689 -0.0831  0.4459
   84MOL0     C11011   4.000   3.824   4.125 -0.4625  0.6993 -0.2087
   84MOL0     C11012   3.907   3.730   4.093  0.1159 -1.0577 -0.2595
   84MOL0     C11013   3.876   3.614   4.170 -0.5062  0.0038  0.1409
   84MOL0     O11014   3.784   3.515   4.137  0.2088 -0.1910  0.5292
   84MOL0     C11015   3.741   3.498   3.998  0.2662  0.2532  0.9003
   84MOL0     C11016   3.854   3.421   3.921  0.0461  0.9779 -0.0505
   84MOL0     C11017   3.891   3.278   3.970 -0.1948 -1.3594  0.4215
   84MOL0     C11018   4.040   3.249   3.951  0.4887 -0.2750  0.0402
   84MOL0     C11019   4.086   3.243   3.816 -0.7518 -0.2318  0.2976
   84MOL0     C11020   4.121   3.236   3.707  0.6630  0.5674  0.9735
   84MOL0     C11021   3.962   3.600   4.288 -0.1906 -0.0032  0.2965
   84MOL0     C11022   4.062   3.689   4.318 -0.1752 -0.1376 -0.2725
   84MOL0     H11023   4.260   4.061   4.594  1.1102  3.9979  2.4355
   84MOL0     H11024   4.402   4.233   4.619 -0.8066 -1.0421  0.1107
   84MOL0     H11025   4.801   4.390   4.444  0.0982 -0.5218 -3.5298
   84MOL0     H11026   4.759   4.265   4.328 -0.0382 -0.7148 -0.2273
   84MOL0     H11027   4.784   4.111   4.559  0.3185 -1.2183 -2.0373
   84MOL0     H11028   4.879   4.254   4.616 -1.2885  0.1475 -0.2408
   84MOL0     H11029   4.995   4.218   4.395 -1.4619  1.5941  1.4384
   84MOL0     H11030   4.898   4.072   4.378  3.0851 -1.6426  0.0111
   84MOL0     H11031   5.111   4.110   4.601  0.8922 -0.9546  0.8296
   84MOL0     H11032   5.015   3.971   4.577 -0.0632  0.6305  0.1864
   84MOL0     H11033   5.223   3.936   4.481  0.7638  0.9496  0.0719
   84MOL0     H11034   5.204   4.081   4.382 -2.5495  1.7045 -1.1768
   84MOL0     H11035   5.030   3.954   4.254  1.6746 -3.7104 -4.8808
   84MOL0     H11036   5.025   3.823   4.373 -1.3155  0.2907 -1.0058
   84MOL0     H11037   5.276   3.934   4.211 -1.5343  0.7063  0.1150
   84MOL0     H11038   5.277   3.784   4.288  1.2499 -0.3870 -1.5244
   84MOL0     H11039   5.102   3.858   4.048 -0.4296 -0.3126  0.3271
   84MOL0     H11040   5.051   3.731   4.156 -0.5551  0.9493 -3.0134
   84MOL0     H11041   5.395   3.830   4.015  1.7257 -0.8222  2.8532
   84MOL0     H11042   5.608   3.531   3.953  0.5992  0.1876 -0.1926
   84MOL0     H11043   5.578   3.694   3.886 -1.3296  0.3381 -1.2944
   84MOL0     H11044   5.510   3.613   3.674 -0.7156  0.2504  0.4092
   84MOL0     H11045   5.476   3.458   3.747 -2.1955  2.2532  2.9883
   84MOL0     H11046   5.752   3.470   3.793 -0.2976  1.3934  0.4834
   84MOL0     H11047   5.704   3.436   3.625 -2.3019 -1.1823  0.3753
   84MOL0     H11048   5.763   3.710   3.722 -2.7167 -0.0463 -0.3243
   84MOL0     H11049   5.765   3.662   3.554  0.3535 -1.5674 -1.5280
   84MOL0     H11050   6.181   3.684   3.651 -1.4427 -1.0180  0.8694
   84MOL0     H11051   6.310   3.690   3.443 -0.1500  1.3454  1.0056
   84MOL0     H11052   6.384   3.818   3.025  0.2522  0.9452 -2.6994
   84MOL0     H11053   6.525   3.810   2.822  0.4597  0.4152 -0.4967
   84MOL0     H11054   6.799   3.441   2.746 -1.8170 -0.6182  0.6247
   84MOL0     H11055   6.856   3.566   2.861  1.2062 -0.0837 -1.0640
   84MOL0     H11056   7.025   3.569   2.684  1.0800  0.4148 -1.9436
   84MOL0     H11057   6.916   3.709   2.646  2.8576 -0.5906 -2.9483
   84MOL0     H11058   6.803   3.540   2.475 -0.4892 -1.0302  0.5238
   84MOL0     H11059   6.900   3.412   2.541  5.1162  0.6647  1.8870
   84MOL0     H11060   7.000   3.661   2.392  1.6327 -0.4782  0.8805
   84MOL0     H11061   7.097   3.529   2.470 -1.5937 -0.0528  3.0794
   84MOL0     H11062   7.101   3.483   2.242 -1.8167 -1.4599 -2.0250
   84MOL0     H11063   6.922   3.505   2.219 -2.5594  0.4808  0.9891
   84MOL0     H11064   6.995   3.263   2.221  0.4268 -0.9428  1.0418
   84MOL0     H11065   6.898   3.291   2.367  1.3878  0.9855  2.2184
   84MOL0     H11066   7.188   3.334   2.414 -0.4802  1.0728 -2.5668
   84MOL0     H11067   7.076   3.235   2.510  1.3141 -0.0172  0.9082
   84MOL0     H11068   7.082   3.066   2.327 -1.5286  0.5679 -0.9000
   84MOL0     H11069   7.230   3.092   2.421 -0.6106  0.8562  1.1347
   84MOL0     H11070   6.681   3.436   2.956 -0.9290  0.6344 -0.5098
   84MOL0     H11071   6.517   3.427   3.125 -0.5112  0.9352  2.1256
   84MOL0     H11072   6.023   3.427   3.255 -0.0337  1.8343 -0.6954
   84MOL0     H11073   5.873   3.463   3.459  0.7477  1.1861  0.6148
   84MOL0     H11074   4.634   4.102   4.285 -1.9360 -2.2368 -2.0768
   84MOL0     H11075   4.484   3.929   4.238 -2.9324  1.2580 -0.9193
   84MOL0     H11076   4.010   3.911   4.061  1.3041  1.2561  0.7391
   84MOL0     H11077   3.834   3.762   4.019 -1.5106  0.9747  2.0685
   84MOL0     H11078   3.737   3.592   3.943  2.6155 -0.5733 -0.8734
   84MOL0     H11079   3.638   3.461   3.991 -0.6400  2.6248  0.8691
   84MOL0     H11080   3.824   3.419   3.816 -2.0536  1.5924  0.4753
   84MOL0     H11081   3.942   3.486   3.927  0.0917  0.8600  0.6835
   84MOL0     H11082   3.832   3.211   3.908  1.0065 -2.6794  0.6601
   84MOL0     H11083   3.860   3.277   4.074 -0.9652 -0.1210  0.2292
   84MOL0     H11084   4.103   3.318   4.008  3.9423 -2.7808 -0.3946
   84MOL0     H11085   4.055   3.151   3.998 -2.9550 -1.3262 -0.7823
   84MOL0     H11086   4.152   3.236   3.604 -3.7372 -0.4768 -0.5739
   84MOL0     H11087   3.953   3.509   4.347 -0.0427  0.5681  1.2183
   84MOL0     H11088   4.130   3.681   4.403  0.8771 -2.2575 -1.2542
   85MOL0     O11089   6.811   6.833   6.509  0.9812  0.1226 -0.3112
   85MOL0     C11090   6.733   6.742   6.537  0.1035  0.0378 -0.2638
   85MOL0     O11091   6.592   6.737   6.522  0.6455 -0.8298  0.1136
   85MOL0     C11092   6.529   6.811   6.422 -0.5100  0.7195 -0.4111
   85MOL0     C11093   6.591   6.817   6.293  0.2228  0.3494  0.6904
   85MOL0     C11094   6.531   6.902   6.197 -0.7209 -0.2510 -0.1511
   85MOL0     C11095   6.419   6.977   6.220 -1.2530  0.4040  0.2327
   85MOL0     O11096   6.366   7.048   6.123 -0.8148 -0.1441  0.4931
   85MOL0     C11097   6.305   6.975   6.011  0.3200 -0.0342 -0.5146
   85MOL0     C11098   6.271   7.084   5.903 -0.5451  0.0081  0.0302
   85MOL0     C11099   6.212   7.025   5.771  0.0407 -0.2847 -0.1360
   85MOL0     C11100   6.215   7.115   5.640  1.2357 -0.5713  0.0082
   85MOL0     C11101   6.108   7.087   5.538 -0.1412 -0.3545  0.4146
   85MOL0     C11102   6.143   6.961   5.456  0.0993 -0.5752 -0.3091
   85MOL0     C11103   6.041   6.948   5.336 -0.4002  0.4858 -0.0838
   85MOL0     C11104   6.088   6.849   5.222 -0.1877 -1.2861 -0.1009
   85MOL0     N11105   6.122   6.717   5.277 -0.6492  0.7507  0.3864
   85MOL0     C11106   6.038   6.647   5.359  0.0012  0.2953  1.5996
   85MOL0     C11107   6.108   6.539   5.392 -0.6266  0.2650 -0.2694
   85MOL0     C11108   6.046   6.419   5.472 -0.0651 -0.8956 -1.0595
   85MOL0     C11109   6.128   6.345   5.571 -1.4981  0.9562 -0.4124
   85MOL0     C11110   6.207   6.416   5.677  0.5494 -0.0209 -0.6597
   85MOL0     C11111   6.262   6.330   5.796  0.3786 -0.8640  0.2379
   85MOL0     O11112   6.338   6.407   5.882 -0.4000 -0.3354 -0.6511
   85MOL0     C11113   6.358   6.377   6.009 -0.5189 -0.3008 -0.8564
   85MOL0     C11114   6.367   6.243   6.058 -0.2864 -0.2109 -0.7565
   85MOL0     C11115   6.405   6.216   6.191  0.2251  0.4518 -0.2097
   85MOL0     C11116   6.418   6.320   6.284 -0.5296 -0.2397 -0.0182
   85MOL0     C11117   6.437   6.285   6.424 -0.4943 -0.4987  0.2593
   85MOL0     O11118   6.483   6.163   6.455 -0.7298  0.1359  0.2478
   85MOL0     C11119   6.495   6.115   6.590 -0.1631 -0.6775  0.2070
   85MOL0     C11120   6.569   5.998   6.606  0.2685 -1.0845  0.0398
   85MOL0     C11121   6.584   5.945   6.733  0.2833  0.2616  0.0116
   85MOL0     C11122   6.519   5.997   6.844 -0.3306  0.2912 -0.3145
   85MOL0     O11123   6.542   5.915   6.949  0.2319  0.7604  0.4770
   85MOL0     C11124   6.487   5.947   7.078 -0.6796 -0.6957 -0.3768
   85MOL0     C11125   6.351   5.892   7.091 -0.2688  0.1214  1.0118
   85MOL0     C11126   6.243   5.985   7.165 -0.5173 -0.5402  0.0002
   85MOL0     C11127   6.275   5.992   7.310 -0.3002 -0.4504 -1.4634
   85MOL0     C11128   6.196   6.089   7.400  0.3167 -0.3109 -0.1212
   85MOL0     C11129   6.286   6.144   7.516 -0.0735  0.4422  0.0532
   85MOL0     C11130   6.391   6.246   7.456 -0.0176  0.0610 -0.6328
   85MOL0     C11131   6.361   6.391   7.502  1.1630  0.1908  1.0893
   85MOL0    Cl11132   6.399   6.391   7.686 -0.0620 -0.0530 -0.0725
   85MOL0     C11133   6.439   6.107   6.833 -0.0808 -0.8822 -0.7315
   85MOL0     C11134   6.429   6.171   6.708 -0.3757 -0.0634 -0.0941
   85MOL0     O11135   6.413   6.378   6.505  0.2673  0.1504  0.5446
   85MOL0     C11136   6.417   6.451   6.244  0.1811 -0.0064  0.3311
   85MOL0     C11137   6.391   6.474   6.109 -0.2598  0.6022 -0.4994
   85MOL0     N11138   6.239   6.557   5.352  0.0435  0.9371  0.6752
   85MOL0     N11139   6.246   6.665   5.278 -1.0112  0.1189 -0.1916
   85MOL0     C11140   6.368   6.974   6.351 -0.3315  0.1389 -0.4668
   85MOL0     C11141   6.410   6.879   6.440  0.7951  0.2627 -0.3861
   85MOL0     C11142   6.789   6.618   6.599 -0.3194  0.1489  0.3532
   85MOL0     C11143   6.715   6.507   6.621  0.4358  0.0381 -0.8104
   85MOL0     C11144   6.775   6.380   6.649  0.6161  0.0905 -0.0294
   85MOL0     C11145   6.912   6.377   6.669 -0.3585  0.3999 -0.4941
   85MOL0     O11146   6.968   6.260   6.703 -0.0480  0.3567  0.6921
   85MOL0     C11147   7.087   6.216   6.637  0.1428 -0.3571 -0.1350
   85MOL0     C11148   7.079   6.219   6.486 -0.4356  1.0910  0.7383
   85MOL0     C11149   7.197   6.144   6.425 -0.5187  0.4467 -0.9082
   85MOL0     C11150   7.324   6.227   6.390  0.5971  0.9544 -1.1876
   85MOL0     C11151   7.300   6.312   6.275  1.0444 -0.6679 -0.1015
   85MOL0     C11152   7.291   6.404   6.198  0.9131  0.7737 -1.1026
   85MOL0     C11153   6.991   6.497   6.669 -0.5713 -0.1497 -0.0892
   85MOL0     C11154   6.929   6.613   6.629  0.2615 -0.9245  0.0957
   85MOL0     H11155   6.683   6.764   6.272  0.6632  0.6838  1.7103
   85MOL0     H11156   6.579   6.909   6.100 -0.0941 -0.7785  0.1188
   85MOL0     H11157   6.214   6.930   6.052  0.7959 -0.9955 -0.4781
   85MOL0     H11158   6.369   6.898   5.966  1.6823  0.9308 -0.2956
   85MOL0     H11159   6.357   7.142   5.868 -1.3781  0.9757 -0.4717
   85MOL0     H11160   6.198   7.157   5.938 -1.5647  0.0799 -2.0900
   85MOL0     H11161   6.106   7.011   5.793 -0.8225  2.8536 -1.6826
   85MOL0     H11162   6.271   6.935   5.750  2.8322  1.1731  0.8830
   85MOL0     H11163   6.203   7.220   5.668 -0.0255 -0.4327 -0.9765
   85MOL0     H11164   6.319   7.113   5.604  1.2481 -0.2114  0.0215
   85MOL0     H11165   6.117   7.173   5.472  2.9107  0.1918  1.3761
   85MOL0     H11166   6.011   7.060   5.582 -1.2465  0.8214 -1.2016
   85MOL0     H11167   6.137   6.868   5.514  0.2555 -2.0122 -2.4658
   85MOL0     H11168   6.244   6.969   5.414  0.1870 -0.3506 -0.0577
   85MOL0     H11169   5.945   6.920   5.382 -1.3974  3.0386 -0.4656
   85MOL0     H11170   6.025   7.048   5.295  1.8405  0.9061 -0.0510
   85MOL0     H11171   6.178   6.880   5.169  0.6418 -0.2061  1.8443
   85MOL0     H11172   6.021   6.825   5.139  2.3163 -2.2481 -1.9774
   85MOL0     H11173   5.936   6.670   5.387 -0.1093  1.2042  0.5100
   85MOL0     H11174   5.987   6.359   5.402 -1.5910  1.7177 -2.1666
   85MOL0     H11175   5.964   6.470   5.523  0.4326  0.9169 -2.0158
   85MOL0     H11176   6.196   6.293   5.503 -3.2187  2.0944 -3.1635
   85MOL0     H11177   6.071   6.258   5.606 -0.1444  0.4922  0.7800
   85MOL0     H11178   6.296   6.461   5.631 -0.3820 -0.3945 -3.0021
   85MOL0     H11179   6.146   6.498   5.714  1.4035 -0.3374  1.6316
   85MOL0     H11180   6.335   6.255   5.765 -1.6538 -3.3142  0.9700
   85MOL0     H11181   6.182   6.274   5.846  3.3119 -6.5115 -0.5466
   85MOL0     H11182   6.352   6.158   5.992  2.0194 -2.5106  1.4535
   85MOL0     H11183   6.390   6.113   6.222 -1.9145 -0.9564 -4.9104
   85MOL0     H11184   6.614   5.943   6.524  2.9342  0.1121  0.5951
   85MOL0     H11185   6.630   5.848   6.749  1.5441  0.9036  0.3527
   85MOL0     H11186   6.468   6.054   7.088 -3.8344 -1.2329  0.4697
   85MOL0     H11187   6.555   5.937   7.163 -1.5058  0.9773  0.5276
   85MOL0     H11188   6.360   5.793   7.138  1.1889  0.5914  1.8185
   85MOL0     H11189   6.320   5.875   6.987  3.0727 -0.4716 -0.0204
   85MOL0     H11190   6.143   5.941   7.155 -0.1283 -1.0843 -1.9197
   85MOL0     H11191   6.236   6.088   7.130  0.5988 -0.7272 -0.8210
   85MOL0     H11192   6.274   5.890   7.350 -2.0044 -0.4214 -1.3456
   85MOL0     H11193   6.380   6.023   7.314 -0.6329  0.7010  1.7562
   85MOL0     H11194   6.113   6.047   7.458  0.6221 -1.6844 -0.6312
   85MOL0     H11195   6.152   6.166   7.336 -3.0222 -0.1396  2.1053
   85MOL0     H11196   6.337   6.053   7.549 -0.9510 -1.3334 -3.1120
   85MOL0     H11197   6.228   6.189   7.597 -0.4581 -0.4484  0.2907
   85MOL0     H11198   6.492   6.224   7.491 -0.3130  0.6539  0.6344
   85MOL0     H11199   6.396   6.242   7.346 -0.0772  1.3118 -0.7006
   85MOL0     H11200   6.254   6.404   7.484  0.7858 -3.1026  0.1235
   85MOL0     H11201   6.419   6.461   7.441  0.0656  0.6071  0.4976
   85MOL0     H11202   6.380   6.145   6.916  0.3912 -1.3869 -0.1496
   85MOL0     H11203   6.370   6.261   6.706  2.8888  2.4181  2.7050
   85MOL0     H11204   6.427   6.537   6.310  1.1504  1.7301 -1.9197
   85MOL0     H11205   6.405   6.577   6.079  2.2339 -0.2977 -2.9221
   85MOL0     H11206   6.285   7.038   6.378  0.9891  2.1208 -0.8975
   85MOL0     H11207   6.351   6.874   6.530 -1.6250  0.2152 -1.9020
   85MOL0     H11208   6.607   6.516   6.617  0.4706  0.0575 -1.9277
   85MOL0     H11209   6.716   6.290   6.663  3.2757 -1.5457  1.4181
   85MOL0     H11210   7.105   6.115   6.673  0.4988  0.8354  3.4831
   85MOL0     H11211   7.169   6.279   6.671  0.4446 -1.1815  0.6938
   85MOL0     H11212   6.991   6.169   6.445 -0.6740  1.9620  0.1554
   85MOL0     H11213   7.067   6.320   6.446 -5.4795 -0.0610 -1.4772
   85MOL0     H11214   7.170   6.094   6.332 -0.2403  0.6028 -1.0727
   85MOL0     H11215   7.237   6.072   6.497  1.8088  2.6808  0.1787
   85MOL0     H11216   7.350   6.291   6.475  2.4925  0.0235 -0.9984
   85MOL0     H11217   7.417   6.170   6.381 -0.0833 -1.2983  3.2291
   85MOL0     H11218   7.260   6.490   6.142  0.1504  1.4979  0.3934
   85MOL0     H11219   7.094   6.479   6.700 -0.2088 -2.0500 -2.1412
   85MOL0     H11220   6.996   6.697   6.616 -2.8464  1.8209  0.5509
   86MOL0     O11221   0.279   8.548  10.486  0.3707 -0.3605  0.0195
   86MOL0     C11222   0.275   8.648  10.561 -0.4714 -0.5482 -0.0808
   86MOL0     O11223   0.158   8.714  10.600 -0.5546 -0.1677  0.1361
   86MOL0     C11224   0.031   8.668  10.556  0.8696 -0.1574  0.4450
   86MOL0     C11225  -0.053   8.740  10.475 -0.0953 -0.1645  0.5432
   86MOL0     C11226  -0.181   8.695  10.446  0.2494 -0.8538 -0.3609
   86MOL0     C11227  -0.224   8.575  10.497  0.3492 -0.4712 -0.5366
   86MOL0     O11228  -0.353   8.526  10.473  1.2159 -0.3150 -0.2386
   86MOL0     C11229  -0.432   8.573  10.358 -1.3818 -0.9197 -0.3130
   86MOL0     C11230  -0.548   8.482  10.331  0.1337 -0.8805 -0.3669
   86MOL0     C11231  -0.604   8.500  10.184 -0.8371 -0.1532  0.3183
   86MOL0     C11232  -0.719   8.397  10.158  1.5750 -0.3271 -0.5350
   86MOL0     C11233  -0.770   8.402  10.017  0.1560 -0.2894  0.0299
   86MOL0     C11234  -0.890   8.309   9.994 -0.1034  0.0506  0.6012
   86MOL0     C11235  -0.970   8.344   9.864  0.4560 -0.4916 -0.8440
   86MOL0     C11236  -1.101   8.418   9.908  0.3925  0.1564  0.0299
   86MOL0     N11237  -1.199   8.450   9.797  0.9262  0.1036 -0.0895
   86MOL0     C11238  -1.241   8.362   9.702 -0.2884 -0.5957 -0.3040
   86MOL0     C11239  -1.306   8.437   9.605  0.0630 -0.0331  0.7629
   86MOL0     C11240  -1.359   8.375   9.480 -0.1284  0.3513  0.3458
   86MOL0     C11241  -1.294   8.424   9.354 -0.2048  1.1591 -0.1973
   86MOL0     C11242  -1.280   8.575   9.333  0.4448  0.0149  0.4688
   86MOL0     C11243  -1.415   8.635   9.357 -0.5079  0.2225  0.1412
   86MOL0     O11244  -1.440   8.747   9.276  0.0881  0.2426  0.0555
   86MOL0     C11245  -1.566   8.792   9.257  0.1739 -0.2995 -0.1763
   86MOL0     C11246  -1.578   8.932   9.242  0.4124  1.0352 -0.2163
   86MOL0     C11247  -1.702   8.987   9.205 -0.2951 -0.2873  0.0337
   86MOL0     C11248  -1.816   8.911   9.182 -0.7456 -0.1237 -0.4121
   86MOL0     C11249  -1.936   8.975   9.136  0.0866 -0.2206 -0.5998
   86MOL0     O11250  -1.957   9.108   9.155  0.0284 -0.7856  1.0342
   86MOL0     C11251  -2.043   9.183   9.078 -0.1640 -0.9110 -0.1364
   86MOL0     C11252  -1.993   9.295   9.012  0.7381 -0.6222  0.0802
   86MOL0     C11253  -2.083   9.358   8.930 -0.0363  0.7466  0.3893
   86MOL0     C11254  -2.220   9.320   8.904  0.1760 -0.4260  0.0249
   86MOL0     O11255  -2.288   9.398   8.816  0.2125  0.0528 -1.0504
   86MOL0     C11256  -2.369   9.327   8.714  0.1431  0.3651 -0.1286
   86MOL0     C11257  -2.465   9.415   8.634 -0.3046  0.0114  0.1673
   86MOL0     C11258  -2.565   9.318   8.565  0.1170 -0.1235  0.8104
   86MOL0     C11259  -2.650   9.381   8.453  0.5955 -0.2620  0.1412
   86MOL0     C11260  -2.756   9.488   8.487  0.6337  0.5762  0.1821
   86MOL0     C11261  -2.862   9.423   8.589 -0.2456 -0.8235 -0.4380
   86MOL0     C11262  -2.965   9.530   8.629 -0.4412 -0.1299  0.8853
   86MOL0     C11263  -2.933   9.604   8.751  0.6536 -0.3101 -1.3366
   86MOL0    Cl11264  -3.062   9.735   8.771 -0.7497 -0.0341  0.3978
   86MOL0     C11265  -2.269   9.207   8.970 -0.3437  0.2446 -0.5677
   86MOL0     C11266  -2.183   9.145   9.060 -0.2244 -1.2312 -0.6853
   86MOL0     O11267  -2.016   8.898   9.078 -0.0949 -0.3666 -0.3165
   86MOL0     C11268  -1.789   8.770   9.184  0.1612 -0.3145  0.6596
   86MOL0     C11269  -1.675   8.711   9.229  0.4570  0.3501 -0.2950
   86MOL0     N11270  -1.307   8.567   9.643 -0.9011  0.5404 -0.7682
   86MOL0     N11271  -1.237   8.575   9.753 -0.6291 -0.4133 -0.1665
   86MOL0     C11272  -0.139   8.504  10.584 -0.3666  0.5301 -0.7200
   86MOL0     C11273  -0.013   8.551  10.614 -0.0930  0.1280 -0.1449
   86MOL0     C11274   0.414   8.713  10.586  0.3198 -0.2295  0.0352
   86MOL0     C11275   0.532   8.652  10.539  0.0741 -0.0228  0.4767
   86MOL0     C11276   0.660   8.694  10.577  0.1615  0.4028 -0.2420
   86MOL0     C11277   0.674   8.817  10.639 -0.2425 -0.0092  0.5029
   86MOL0     O11278   0.804   8.864  10.655  0.4275  0.0976  1.1119
   86MOL0     C11279   0.835   8.955  10.754  0.0885  0.2568 -0.1641
   86MOL0     C11280   0.983   8.960  10.739 -0.6385  0.4227  0.3789
   86MOL0     C11281   1.052   8.826  10.771 -0.0618  0.2838  0.2051
   86MOL0     C11282   1.018   8.770  10.914  0.1463 -0.1302 -0.0209
   86MOL0     C11283   1.082   8.639  10.924 -0.1538 -0.0099 -0.9427
   86MOL0     C11284   1.151   8.533  10.932  0.2214 -0.0972  1.0380
   86MOL0     C11285   0.554   8.887  10.668  0.2755 -1.1947  0.2818
   86MOL0     C11286   0.424   8.841  10.633 -0.0278  0.2207  0.3229
   86MOL0     H11287  -0.024   8.838  10.439 -0.1744 -1.2398 -2.8674
   86MOL0     H11288  -0.237   8.755  10.376  0.8890  0.8741  0.5356
   86MOL0     H11289  -0.359   8.586  10.277 -2.2022  1.8356 -0.7124
   86MOL0     H11290  -0.465   8.676  10.375  1.8581  0.1075  0.5082
   86MOL0     H11291  -0.624   8.507  10.405  0.0866 -2.5838  0.1893
   86MOL0     H11292  -0.511   8.382  10.354  1.6346 -0.2207  0.2862
   86MOL0     H11293  -0.525   8.500  10.108 -0.4166  0.2646  0.7476
   86MOL0     H11294  -0.640   8.601  10.164  0.4665  0.3508  0.4275
   86MOL0     H11295  -0.694   8.293  10.182 -0.4302 -0.5131  0.9654
   86MOL0     H11296  -0.800   8.422  10.227  1.6225  4.6447 -1.9224
   86MOL0     H11297  -0.685   8.397   9.948  2.0696  2.9882  1.9277
   86MOL0     H11298  -0.818   8.499  10.006  4.9037  2.4242  0.6433
   86MOL0     H11299  -0.949   8.306  10.086 -0.9181  2.7623  0.2533
   86MOL0     H11300  -0.857   8.205   9.984 -1.1995 -0.2292 -0.2708
   86MOL0     H11301  -0.914   8.410   9.797  1.9895  0.8302  1.5833
   86MOL0     H11302  -0.991   8.254   9.807 -0.1059 -1.7371  1.2089
   86MOL0     H11303  -1.083   8.521   9.940 -1.2781  0.5303 -0.1508
   86MOL0     H11304  -1.147   8.363   9.990 -1.2587 -0.1338 -1.0493
   86MOL0     H11305  -1.227   8.255   9.702  4.2941 -0.2056 -2.0008
   86MOL0     H11306  -1.468   8.389   9.474 -0.6420 -3.1159 -0.7971
   86MOL0     H11307  -1.348   8.267   9.475 -1.3902  0.2110  0.2798
   86MOL0     H11308  -1.352   8.387   9.269 -0.0972 -1.7298  0.8435
   86MOL0     H11309  -1.201   8.373   9.330 -0.2397  1.2176 -0.4576
   86MOL0     H11310  -1.195   8.610   9.391  1.0624  2.5925 -1.7941
   86MOL0     H11311  -1.252   8.589   9.228 -1.4978  1.4735  0.0992
   86MOL0     H11312  -1.449   8.658   9.458 -3.7055 -3.3971  0.1086
   86MOL0     H11313  -1.486   8.558   9.324 -1.1443 -0.0152  1.9519
   86MOL0     H11314  -1.491   8.996   9.238  0.0357  1.5882 -5.0802
   86MOL0     H11315  -1.705   9.095   9.192  3.0341 -0.1040 -0.1222
   86MOL0     H11316  -1.892   9.329   9.031  1.4014 -3.0004  1.1006
   86MOL0     H11317  -2.047   9.446   8.878 -0.8636  0.6707 -0.3508
   86MOL0     H11318  -2.423   9.248   8.768 -2.4407  0.0663 -2.8930
   86MOL0     H11319  -2.297   9.290   8.640 -1.5866 -1.3535 -1.0570
   86MOL0     H11320  -2.398   9.463   8.562 -1.1513  0.9411 -0.0215
   86MOL0     H11321  -2.519   9.489   8.694  0.5779 -0.6834  1.8886
   86MOL0     H11322  -2.638   9.270   8.631 -1.2501 -0.8189 -1.1129
   86MOL0     H11323  -2.511   9.239   8.512 -2.4470 -0.0344 -2.2913
   86MOL0     H11324  -2.581   9.437   8.389  0.7922 -2.5460 -1.7817
   86MOL0     H11325  -2.698   9.306   8.389  0.0194 -0.7956  1.1707
   86MOL0     H11326  -2.800   9.515   8.391  1.5622 -1.2717 -0.8228
   86MOL0     H11327  -2.717   9.579   8.534 -2.0221  4.6553 -4.5448
   86MOL0     H11328  -2.803   9.377   8.668  1.0464 -0.0150 -0.9021
   86MOL0     H11329  -2.916   9.347   8.531 -1.2854 -0.6857  0.3247
   86MOL0     H11330  -2.990   9.593   8.543  0.4758 -1.7228 -0.6301
   86MOL0     H11331  -3.060   9.479   8.649  0.4047 -1.4465  1.6612
   86MOL0     H11332  -2.832   9.643   8.739  1.1470 -1.1408 -0.0380
   86MOL0     H11333  -2.940   9.546   8.843  0.1282  2.2597  0.3654
   86MOL0     H11334  -2.357   9.147   8.950  1.3129 -2.3728 -0.4053
   86MOL0     H11335  -2.226   9.061   9.112 -4.1198 -0.2940 -2.0725
   86MOL0     H11336  -1.858   8.700   9.137 -1.1595 -0.2300  2.3947
   86MOL0     H11337  -1.671   8.603   9.227  0.0301  0.2492  1.6639
   86MOL0     H11338  -0.170   8.408  10.625  1.5691  1.0081  2.1145
   86MOL0     H11339   0.053   8.502  10.686 -1.8742 -0.3301  1.2620
   86MOL0     H11340   0.530   8.574  10.464  0.0189  2.8171 -2.7448
   86MOL0     H11341   0.754   8.651  10.543 -1.1273 -1.1241 -2.1036
   86MOL0     H11342   0.799   8.927  10.853  0.9771  1.1772  0.4461
   86MOL0     H11343   0.798   9.057  10.743 -0.7315 -0.1648 -1.5292
   86MOL0     H11344   1.010   8.987  10.636  1.1602  2.8395  1.3619
   86MOL0     H11345   1.040   9.032  10.798  1.2431  0.6277 -1.5680
   86MOL0     H11346   1.157   8.856  10.768  0.0827 -0.1426  0.8223
   86MOL0     H11347   1.031   8.754  10.692 -1.3520  1.3929 -0.5078
   86MOL0     H11348   1.054   8.845  10.986 -1.3048  0.3552  0.2161
   86MOL0     H11349   0.911   8.749  10.923  0.2344  0.0812  1.9106
   86MOL0     H11350   1.214   8.447  10.924 -0.2087 -0.2234 -1.7397
   86MOL0     H11351   0.564   8.987  10.709 -2.0840  0.8494 -3.4278
   86MOL0     H11352   0.342   8.911  10.647  2.1685  3.4575 -1.6483
   87MOL0     O11353   7.149   4.988   1.021  0.1053  0.6934 -0.6599
   87MOL0     C11354   7.046   4.917   1.042 -1.0674 -0.2284  0.1171
   87MOL0     O11355   7.039   4.801   1.097 -0.8503 -0.4329 -0.2673
   87MOL0     C11356   7.154   4.741   1.151  0.4295 -0.2435 -0.6475
   87MOL0     C11357   7.264   4.690   1.077 -0.6457  0.2789 -0.3031
   87MOL0     C11358   7.367   4.620   1.139 -0.6286 -0.3695 -0.3034
   87MOL0     C11359   7.382   4.617   1.279 -0.9578 -0.1251 -0.9275
   87MOL0     O11360   7.489   4.547   1.337  0.8821 -0.2791 -0.3621
   87MOL0     C11361   7.494   4.533   1.483  0.6571  0.1610 -1.4009
   87MOL0     C11362   7.644   4.503   1.506 -1.5236  0.3694  0.2722
   87MOL0     C11363   7.667   4.483   1.655  0.3531 -0.2500 -0.0391
   87MOL0     C11364   7.634   4.337   1.695 -0.4871 -0.5043  0.1368
   87MOL0     C11365   7.657   4.311   1.843  0.0585 -0.8586 -0.1569
   87MOL0     C11366   7.543   4.371   1.939 -0.1688 -0.3523  0.9427
   87MOL0     C11367   7.565   4.366   2.099 -1.0969 -0.5669 -0.4108
   87MOL0     C11368   7.624   4.230   2.142  0.5687  0.0131 -0.4264
   87MOL0     N11369   7.636   4.207   2.291 -0.3316 -1.2882 -0.4760
   87MOL0     C11370   7.753   4.240   2.363  1.6276 -0.8929 -0.6397
   87MOL0     C11371   7.714   4.245   2.493  0.0200 -0.1148  0.3438
   87MOL0     C11372   7.803   4.284   2.607  0.4952 -0.5763 -0.2536
   87MOL0     C11373   7.903   4.169   2.642  0.6580  0.2966  0.4532
   87MOL0     C11374   8.007   4.223   2.739  0.4470  0.2002  0.1136
   87MOL0     C11375   8.080   4.332   2.662 -1.1794  0.1965 -0.1296
   87MOL0     O11376   8.204   4.346   2.730  0.6580 -0.3210  0.7534
   87MOL0     C11377   8.305   4.402   2.662 -0.0458 -0.0007  0.6797
   87MOL0     C11378   8.439   4.408   2.717  0.5271  0.8418 -0.3216
   87MOL0     C11379   8.543   4.450   2.638  0.2567 -0.6090  0.1317
   87MOL0     C11380   8.523   4.492   2.508  0.2989  0.9159  0.3383
   87MOL0     C11381   8.633   4.520   2.413  0.4659  0.4561  0.7235
   87MOL0     O11382   8.600   4.586   2.296 -0.4940 -0.1275 -0.3849
   87MOL0     C11383   8.686   4.611   2.188  0.7792  0.1511  0.8838
   87MOL0     C11384   8.789   4.526   2.151 -0.0542  0.2597 -1.3910
   87MOL0     C11385   8.879   4.560   2.048 -0.5859  0.2220 -0.4726
   87MOL0     C11386   8.881   4.688   2.000 -0.3727 -0.8638  0.0647
   87MOL0     O11387   8.959   4.718   1.885  0.8117  0.5028 -1.3403
   87MOL0     C11388   8.891   4.688   1.761  0.7978  0.1204 -0.4314
   87MOL0     C11389   8.897   4.808   1.667 -0.5230 -0.4939 -0.5108
   87MOL0     C11390   8.847   4.768   1.528 -0.1106  0.3794  1.2694
   87MOL0     C11391   8.826   4.881   1.426  0.7267  0.2964 -0.4719
   87MOL0     C11392   8.769   4.826   1.296 -0.2274 -0.6233 -0.1077
   87MOL0     C11393   8.770   4.899   1.162 -0.2058 -0.9051 -0.2548
   87MOL0     C11394   8.740   4.803   1.044 -0.7614 -0.5695 -0.7508
   87MOL0     C11395   8.721   4.885   0.915 -0.9344  0.3965 -0.2519
   87MOL0    Cl11396   8.583   4.997   0.956  0.2744  0.0251 -0.0122
   87MOL0     C11397   8.797   4.785   2.063 -0.0934 -0.2063  0.3503
   87MOL0     C11398   8.685   4.742   2.144 -0.8976 -0.3601  1.1338
   87MOL0     O11399   8.745   4.479   2.449 -0.3193  0.4691  0.3911
   87MOL0     C11400   8.390   4.506   2.460  0.0273  0.1244  0.1271
   87MOL0     C11401   8.281   4.465   2.538  0.9743 -0.1505 -0.0391
   87MOL0     N11402   7.580   4.219   2.500  0.4934  0.4232 -0.4147
   87MOL0     N11403   7.536   4.203   2.385  0.5812 -0.1752  1.0855
   87MOL0     C11404   7.276   4.658   1.359  0.2514  0.0628 -0.4611
   87MOL0     C11405   7.167   4.724   1.290  0.1994 -0.2836 -0.2759
   87MOL0     C11406   6.920   4.968   0.978  0.2186  0.1580 -0.0192
   87MOL0     C11407   6.797   4.905   1.011 -0.9275 -0.4801  0.7849
   87MOL0     C11408   6.675   4.959   0.964  0.2260  0.3615 -0.2276
   87MOL0     C11409   6.677   5.070   0.882  0.6556  0.1910 -0.4267
   87MOL0     O11410   6.551   5.118   0.842 -0.1216  0.0743  0.4618
   87MOL0     C11411   6.548   5.248   0.789 -0.0438  0.2966  0.1060
   87MOL0     C11412   6.553   5.237   0.634  0.5954  0.1481 -0.3694
   87MOL0     C11413   6.562   5.380   0.580 -0.1464  0.3176 -1.2219
   87MOL0     C11414   6.560   5.370   0.431 -0.1880 -0.8218  0.0159
   87MOL0     C11415   6.554   5.504   0.373  0.3368 -0.8362 -0.3091
   87MOL0     C11416   6.524   5.617   0.336 -0.1924  0.4504  0.9038
   87MOL0     C11417   6.801   5.124   0.848  1.1749 -0.1632  0.7848
   87MOL0     C11418   6.918   5.093   0.907  0.1689  0.2226  0.0863
   87MOL0     H11419   7.281   4.710   0.971 -0.6346 -2.7324 -0.9610
   87MOL0     H11420   7.454   4.585   1.083  1.4224 -0.8897  2.9702
   87MOL0     H11421   7.425   4.456   1.520 -0.0635  1.2267 -0.4659
   87MOL0     H11422   7.463   4.625   1.532 -2.2014 -1.7341  0.6198
   87MOL0     H11423   7.710   4.586   1.477 -1.5133  0.2392 -0.0787
   87MOL0     H11424   7.682   4.422   1.443 -1.9468  2.4031 -2.8299
   87MOL0     H11425   7.603   4.551   1.712  0.9689 -0.8287  1.3861
   87MOL0     H11426   7.771   4.514   1.661  0.8198 -1.0122 -2.7717
   87MOL0     H11427   7.529   4.314   1.675 -1.2197  2.2724  0.3711
   87MOL0     H11428   7.709   4.275   1.643 -1.1764 -1.0980 -0.1715
   87MOL0     H11429   7.754   4.354   1.866 -0.8529  1.5593 -0.4842
   87MOL0     H11430   7.645   4.203   1.856 -2.3724 -0.4755  1.5826
   87MOL0     H11431   7.453   4.316   1.911 -0.3771  0.9351 -1.1584
   87MOL0     H11432   7.528   4.476   1.913  0.3310 -0.9490 -2.1044
   87MOL0     H11433   7.641   4.441   2.123 -0.6268 -0.7498 -1.2841
   87MOL0     H11434   7.472   4.387   2.153  0.3845 -0.3943  2.2605
   87MOL0     H11435   7.726   4.218   2.107  0.9344  3.3078 -0.7954
   87MOL0     H11436   7.563   4.151   2.098 -1.7107  2.6015 -2.2731
   87MOL0     H11437   7.851   4.257   2.320  1.6476 -3.7673 -1.9833
   87MOL0     H11438   7.735   4.303   2.691  0.3944  0.2542 -0.5203
   87MOL0     H11439   7.848   4.378   2.577 -1.3456  1.0585  1.7582
   87MOL0     H11440   7.950   4.123   2.555 -1.5592 -4.4388  1.4220
   87MOL0     H11441   7.845   4.091   2.692 -1.6504  1.3709 -0.3773
   87MOL0     H11442   7.956   4.262   2.828  3.6773  0.5247  1.9735
   87MOL0     H11443   8.082   4.148   2.767  0.7987  1.3214  2.4877
   87MOL0     H11444   8.032   4.430   2.658  0.3465  0.9945  0.1533
   87MOL0     H11445   8.106   4.294   2.562  1.4261  3.4824 -0.8792
   87MOL0     H11446   8.469   4.371   2.815  1.8174 -1.2517 -1.4449
   87MOL0     H11447   8.645   4.430   2.668  1.8590  1.5663 -3.2394
   87MOL0     H11448   8.788   4.424   2.188 -1.1267 -0.2755 -2.8262
   87MOL0     H11449   8.957   4.493   2.013  1.1966  1.4707  0.9014
   87MOL0     H11450   8.789   4.652   1.779  1.2488 -1.8148 -1.5352
   87MOL0     H11451   8.941   4.602   1.717 -0.3591 -1.1252  0.6071
   87MOL0     H11452   8.998   4.850   1.660 -0.4970 -0.4774 -0.0446
   87MOL0     H11453   8.822   4.879   1.704  1.0147  0.7198  0.3766
   87MOL0     H11454   8.746   4.728   1.542  0.0250  0.2383  1.8192
   87MOL0     H11455   8.922   4.694   1.499  0.1819  1.1731 -0.1077
   87MOL0     H11456   8.749   4.949   1.465 -2.8755 -4.6776  2.1552
   87MOL0     H11457   8.923   4.929   1.411  0.5258  0.7770 -0.2590
   87MOL0     H11458   8.672   4.774   1.299  0.8937 -2.8926 -0.8071
   87MOL0     H11459   8.834   4.743   1.266  0.8324  0.9060 -2.2718
   87MOL0     H11460   8.859   4.958   1.140 -1.5992  0.4954 -2.4698
   87MOL0     H11461   8.698   4.979   1.185  0.1592 -0.2570 -1.3017
   87MOL0     H11462   8.827   4.738   1.041  0.3386  0.5767  2.3094
   87MOL0     H11463   8.651   4.743   1.064 -1.0437  0.3469  0.9648
   87MOL0     H11464   8.692   4.811   0.840  2.5330 -1.2703 -0.1937
   87MOL0     H11465   8.814   4.931   0.878  0.7122 -3.1880 -1.0393
   87MOL0     H11466   8.798   4.888   2.028  0.1255 -0.3994 -0.2204
   87MOL0     H11467   8.609   4.810   2.182 -0.9040 -0.5201  1.4063
   87MOL0     H11468   8.369   4.540   2.359  1.4390  0.3027 -0.1293
   87MOL0     H11469   8.186   4.480   2.489  0.6264  2.2662  1.2016
   87MOL0     H11470   7.265   4.637   1.465 -2.4339  1.1577 -0.4460
   87MOL0     H11471   7.083   4.753   1.353 -0.1610 -1.5101 -0.1710
   87MOL0     H11472   6.784   4.829   1.088  2.7442 -0.9285  1.1445
   87MOL0     H11473   6.574   4.921   0.973 -0.2667  1.0596 -2.2444
   87MOL0     H11474   6.627   5.313   0.828  0.9910 -1.4469  1.0313
   87MOL0     H11475   6.451   5.291   0.815 -1.4124 -3.4181  1.9204
   87MOL0     H11476   6.639   5.176   0.605 -2.9687 -5.4062 -0.5559
   87MOL0     H11477   6.464   5.181   0.604  1.5862 -1.8723  0.3159
   87MOL0     H11478   6.653   5.433   0.609 -1.5453  2.7260 -0.9669
   87MOL0     H11479   6.477   5.438   0.618  0.9444  4.2649 -4.2203
   87MOL0     H11480   6.647   5.316   0.393 -2.8687 -4.8381 -1.0760
   87MOL0     H11481   6.472   5.308   0.409 -0.7460 -0.0735  0.0950
   87MOL0     H11482   6.483   5.715   0.319  0.2005  0.6488  1.1009
   87MOL0     H11483   6.808   5.214   0.787 -0.9496  0.0716  0.8216
   87MOL0     H11484   7.003   5.158   0.891  0.6619 -0.6986 -1.1844
   88MOL0     O11485   1.637   7.352   7.240 -0.7091  0.0534 -0.3328
   88MOL0     C11486   1.539   7.301   7.294 -0.1840 -0.3598  0.1992
   88MOL0     O11487   1.509   7.293   7.429  0.2738  0.7126  0.9583
   88MOL0     C11488   1.604   7.350   7.502  0.4308  0.0517  0.8611
   88MOL0     C11489   1.718   7.280   7.539  0.3175 -0.3303  0.1152
   88MOL0     C11490   1.815   7.358   7.601 -0.0170  0.2208 -0.3129
   88MOL0     C11491   1.801   7.498   7.638  0.1171  0.7759  0.6827
   88MOL0     O11492   1.898   7.570   7.699  0.3760  0.6103 -0.1842
   88MOL0     C11493   2.040   7.545   7.682  0.0516 -1.1041 -0.0671
   88MOL0     C11494   2.119   7.649   7.767  0.3022 -0.0941  0.2607
   88MOL0     C11495   2.054   7.786   7.776  0.3947 -1.1111  0.0355
   88MOL0     C11496   2.144   7.883   7.847  0.9132 -0.4362  1.8016
   88MOL0     C11497   2.107   8.025   7.810  0.5717  0.3012 -0.1877
   88MOL0     C11498   2.181   8.113   7.910  0.5454 -1.4014 -0.1324
   88MOL0     C11499   2.172   8.263   7.881 -0.0559  0.5383  0.2277
   88MOL0     C11500   2.040   8.333   7.929 -0.4186  0.3605 -0.9037
   88MOL0     N11501   2.038   8.330   8.075 -0.1812 -0.4352  0.7578
   88MOL0     C11502   2.140   8.382   8.160 -0.0514  0.4566  0.3048
   88MOL0     C11503   2.091   8.338   8.277 -0.4890  0.1603 -0.4490
   88MOL0     C11504   2.165   8.363   8.407 -0.0453 -0.1092 -0.1615
   88MOL0     C11505   2.113   8.303   8.531  0.1697 -0.5430  1.0124
   88MOL0     C11506   2.220   8.305   8.647  0.2493 -1.0932 -0.2315
   88MOL0     C11507   2.215   8.444   8.719  0.6113 -0.2496 -0.4604
   88MOL0     O11508   2.345   8.465   8.778 -0.4355  0.0312  0.2992
   88MOL0     C11509   2.387   8.380   8.873 -0.5112  0.5301 -0.1298
   88MOL0     C11510   2.317   8.368   8.993 -0.4468 -0.1850  0.2217
   88MOL0     C11511   2.369   8.283   9.092  0.3331  1.0923 -0.2839
   88MOL0     C11512   2.488   8.212   9.078  0.4637 -0.0834  0.1837
   88MOL0     C11513   2.550   8.125   9.188  0.6275 -1.1447 -0.1807
   88MOL0     O11514   2.491   8.132   9.311 -0.6747 -0.7485 -0.4632
   88MOL0     C11515   2.534   8.041   9.404  0.1908 -0.3218 -0.6679
   88MOL0     C11516   2.669   8.014   9.444 -0.1289  0.2027 -0.8021
   88MOL0     C11517   2.692   7.922   9.549 -0.7082  0.1722  0.1593
   88MOL0     C11518   2.592   7.863   9.625 -0.0147 -0.2643 -0.8285
   88MOL0     O11519   2.589   7.773   9.727  0.6089 -0.7252 -0.1588
   88MOL0     C11520   2.680   7.807   9.833  0.2869 -0.3422  0.5057
   88MOL0     C11521   2.581   7.885   9.929  0.4353  0.0027 -0.2509
   88MOL0     C11522   2.465   7.788   9.978 -0.0547  0.3626  0.6039
   88MOL0     C11523   2.358   7.863  10.050 -0.1393 -0.0883 -0.5905
   88MOL0     C11524   2.404   7.937  10.173 -0.0352 -0.1423  0.6938
   88MOL0     C11525   2.289   7.959  10.265  0.2380 -0.0240 -0.6341
   88MOL0     C11526   2.317   8.046  10.386  0.5536 -0.0116  0.7337
   88MOL0     C11527   2.213   8.037  10.504 -1.5034  1.2620  0.6000
   88MOL0    Cl11528   2.049   8.061  10.447  0.6478  0.0481  0.1164
   88MOL0     C11529   2.460   7.900   9.594  0.5663  0.2135  0.3072
   88MOL0     C11530   2.437   7.991   9.484  0.6272 -1.0062 -0.4888
   88MOL0     O11531   2.652   8.066   9.153  0.0349 -0.4943  0.1108
   88MOL0     C11532   2.551   8.213   8.952  0.7035 -0.0858 -0.1952
   88MOL0     C11533   2.505   8.296   8.850 -0.3435  0.7699 -0.5814
   88MOL0     N11534   1.965   8.277   8.273  0.6210  0.3083  0.6259
   88MOL0     N11535   1.947   8.265   8.149  0.2167  0.4136  0.8710
   88MOL0     C11536   1.689   7.564   7.593 -0.1769 -0.4716  0.1748
   88MOL0     C11537   1.592   7.484   7.534  0.3040 -0.2498  0.3548
   88MOL0     C11538   1.447   7.230   7.202  0.4118  0.3967 -0.0884
   88MOL0     C11539   1.343   7.157   7.258  0.2362 -0.6438  0.4935
   88MOL0     C11540   1.253   7.084   7.187 -0.4856  0.3379  0.4034
   88MOL0     C11541   1.258   7.088   7.051  0.6889  0.5353 -0.8472
   88MOL0     O11542   1.156   7.017   6.984 -1.1370  0.4283  0.4725
   88MOL0     C11543   1.171   6.975   6.841 -0.0138 -0.9679 -0.8487
   88MOL0     C11544   1.085   7.061   6.748 -0.1915  0.1366 -0.4759
   88MOL0     C11545   0.940   7.041   6.785  0.1896  0.3384  0.8243
   88MOL0     C11546   0.903   7.130   6.906  1.0561  0.7635  1.1324
   88MOL0     C11547   0.757   7.131   6.902 -0.2936 -0.3693  0.1214
   88MOL0     C11548   0.636   7.144   6.908 -1.0408 -0.2362  0.1873
   88MOL0     C11549   1.358   7.165   6.986 -0.5243 -0.0250  0.5089
   88MOL0     C11550   1.455   7.233   7.065 -0.2622 -1.4151 -1.0511
   88MOL0     H11551   1.726   7.176   7.508 -3.7182 -0.8563  0.2739
   88MOL0     H11552   1.910   7.310   7.622  1.2075  3.0671  1.4174
   88MOL0     H11553   2.070   7.557   7.577  2.7883  2.5951  0.9366
   88MOL0     H11554   2.063   7.442   7.712  2.1602 -0.4897  0.6023
   88MOL0     H11555   2.214   7.659   7.714 -0.4305 -1.9479 -1.5321
   88MOL0     H11556   2.137   7.611   7.868 -0.3139 -1.6619 -0.1856
   88MOL0     H11557   1.963   7.775   7.835 -0.5723 -0.6717 -1.3327
   88MOL0     H11558   2.032   7.814   7.672 -1.2937 -0.8173  0.4463
   88MOL0     H11559   2.120   7.879   7.953  2.4573 -0.1092  2.1968
   88MOL0     H11560   2.247   7.862   7.816  0.0138 -0.9579 -1.1924
   88MOL0     H11561   2.001   8.050   7.818  0.2362 -0.7721 -1.0339
   88MOL0     H11562   2.146   8.040   7.709 -0.1052 -0.5195 -0.5887
   88MOL0     H11563   2.286   8.081   7.906  1.3797  0.8732  1.1238
   88MOL0     H11564   2.147   8.111   8.013  2.5027  0.1281  0.6326
   88MOL0     H11565   2.259   8.311   7.926 -0.1443  0.2489  0.7132
   88MOL0     H11566   2.170   8.290   7.775 -1.5702  0.2789  0.1733
   88MOL0     H11567   1.957   8.271   7.894  2.6582 -3.8943 -1.4313
   88MOL0     H11568   2.029   8.432   7.884 -1.1516 -0.7798 -3.4006
   88MOL0     H11569   2.235   8.432   8.140  0.5420 -0.9944 -0.7050
   88MOL0     H11570   2.183   8.471   8.413 -4.6489  0.8626 -0.4373
   88MOL0     H11571   2.261   8.311   8.402 -0.9468 -1.9693  0.7877
   88MOL0     H11572   2.074   8.203   8.509 -2.8147  1.3897 -4.3864
   88MOL0     H11573   2.034   8.375   8.553 -1.5289 -1.4597 -1.6088
   88MOL0     H11574   2.197   8.230   8.723  0.6764 -0.3018  0.6956
   88MOL0     H11575   2.315   8.291   8.596  0.6617  1.8081 -0.4084
   88MOL0     H11576   2.137   8.445   8.796  1.1391 -1.0371  0.1047
   88MOL0     H11577   2.208   8.525   8.646 -0.5645  0.0157 -0.0724
   88MOL0     H11578   2.231   8.431   9.014 -0.2851 -0.2607  1.1484
   88MOL0     H11579   2.309   8.287   9.183 -3.4267  0.5936 -2.5036
   88MOL0     H11580   2.763   8.046   9.401  2.1628 -0.9637  2.9490
   88MOL0     H11581   2.797   7.891   9.554  0.4687  2.3966 -4.6972
   88MOL0     H11582   2.770   7.867   9.815  0.0844 -0.5358 -1.4491
   88MOL0     H11583   2.717   7.715   9.879  1.2807 -0.3243 -0.2092
   88MOL0     H11584   2.543   7.980   9.891  2.3132  1.2571  0.8105
   88MOL0     H11585   2.643   7.909  10.016  0.3800 -0.2585 -0.1401
   88MOL0     H11586   2.509   7.715  10.046  2.5736  2.0870  0.9274
   88MOL0     H11587   2.422   7.733   9.893  0.8051  2.7989 -1.5561
   88MOL0     H11588   2.295   7.927   9.988 -1.5067 -1.7475 -0.9985
   88MOL0     H11589   2.291   7.785  10.087 -1.9654  2.1133  1.0554
   88MOL0     H11590   2.454   8.030  10.143 -0.5158 -0.3977 -1.0062
   88MOL0     H11591   2.476   7.873  10.225  0.8003 -0.6537 -1.0162
   88MOL0     H11592   2.273   7.860  10.308  0.1467  1.3142  2.7401
   88MOL0     H11593   2.197   8.002  10.225  1.0434  4.8647  1.9670
   88MOL0     H11594   2.420   8.014  10.406  0.5230 -1.8744 -1.6598
   88MOL0     H11595   2.319   8.149  10.350 -3.6473 -0.4865 -1.5271
   88MOL0     H11596   2.226   8.129  10.563 -1.6720  2.0999 -0.6351
   88MOL0     H11597   2.226   7.941  10.553  1.7486 -0.4655 -3.0846
   88MOL0     H11598   2.379   7.848   9.645  1.1449  0.0868  1.1245
   88MOL0     H11599   2.336   8.006   9.449  1.0176  1.2164 -0.8301
   88MOL0     H11600   2.635   8.152   8.919  1.3298  1.2558 -1.1538
   88MOL0     H11601   2.549   8.313   8.753 -1.9285 -0.0331 -1.4879
   88MOL0     H11602   1.700   7.672   7.603  1.5712 -0.7007  1.2816
   88MOL0     H11603   1.505   7.535   7.495  0.1817 -1.0138 -0.3779
   88MOL0     H11604   1.336   7.156   7.366  1.1344  1.2465  0.6237
   88MOL0     H11605   1.171   7.033   7.236 -0.5300 -0.0956 -0.1187
   88MOL0     H11606   1.146   6.869   6.826  2.5231 -2.0259  1.3562
   88MOL0     H11607   1.275   6.973   6.808  0.5055  1.3117  0.4125
   88MOL0     H11608   1.119   7.165   6.753 -4.4548  1.7085 -0.0554
   88MOL0     H11609   1.098   7.032   6.643 -2.6359  1.4583 -1.2089
   88MOL0     H11610   0.930   6.933   6.797  1.5047  0.1250  0.1600
   88MOL0     H11611   0.877   7.060   6.697  1.1638 -0.8007 -0.1483
   88MOL0     H11612   0.933   7.091   7.003  0.2365  1.3660  1.6384
   88MOL0     H11613   0.946   7.231   6.902 -1.0086  1.6985  1.0886
   88MOL0     H11614   0.529   7.147   6.917 -0.9482 -1.4566  2.8446
   88MOL0     H11615   1.347   7.174   6.878 -0.5463  0.4106  0.5469
   88MOL0     H11616   1.532   7.295   7.021  0.5047 -1.6327 -0.0438
   89MOL0     O11617   2.450   6.408   3.933  0.4127 -0.6483 -0.3548
   89MOL0     C11618   2.550   6.476   3.949  0.0378 -0.5679  0.0877
   89MOL0     O11619   2.635   6.509   3.844  0.2260  0.6719 -0.7109
   89MOL0     C11620   2.618   6.441   3.730 -0.3577  0.0011 -0.3147
   89MOL0     C11621   2.642   6.305   3.732  0.2865  0.3215 -0.0529
   89MOL0     C11622   2.632   6.226   3.617  0.6798 -0.6514  0.2666
   89MOL0     C11623   2.611   6.294   3.496  0.2192 -0.2690  0.7960
   89MOL0     O11624   2.602   6.223   3.380 -0.4956 -0.8448 -0.5043
   89MOL0     C11625   2.530   6.097   3.382 -0.1282  0.7642 -0.3919
   89MOL0     C11626   2.474   6.074   3.230 -0.2355 -0.7142  0.3499
   89MOL0     C11627   2.386   6.192   3.192 -0.5687  0.5471 -0.8220
   89MOL0     C11628   2.246   6.193   3.264  0.0396  0.8315 -0.6975
   89MOL0     C11629   2.166   6.319   3.238 -0.5361  0.3876  0.2765
   89MOL0     C11630   2.179   6.384   3.095 -0.0404  1.1701 -0.4064
   89MOL0     C11631   2.075   6.327   3.004 -0.3883 -0.3349  0.6511
   89MOL0     C11632   2.099   6.379   2.866  0.0443 -0.0030 -0.4958
   89MOL0     N11633   2.004   6.309   2.769  0.3263 -1.0224 -0.7766
   89MOL0     C11634   2.020   6.196   2.697  0.2705 -0.0122  0.1598
   89MOL0     C11635   1.903   6.170   2.629  0.4029 -0.9447  0.4399
   89MOL0     C11636   1.868   6.057   2.539 -0.1915 -0.2789  0.1056
   89MOL0     C11637   1.996   5.986   2.479 -0.1080  0.0079  0.1690
   89MOL0     C11638   1.990   5.972   2.328  0.1639 -0.5336  0.1329
   89MOL0     C11639   1.890   5.855   2.300  1.1642 -0.3674  0.1700
   89MOL0     O11640   1.753   5.906   2.294 -0.4593  0.2919  0.1980
   89MOL0     C11641   1.651   5.812   2.286  0.4452 -0.0280  0.4682
   89MOL0     C11642   1.669   5.681   2.243 -1.2250 -0.2620  0.5716
   89MOL0     C11643   1.569   5.591   2.215  0.2085 -0.2189  1.8037
   89MOL0     C11644   1.432   5.631   2.239 -1.0669 -0.5452  0.1753
   89MOL0     C11645   1.323   5.548   2.211  0.1086  0.7526 -0.5612
   89MOL0     O11646   1.212   5.606   2.155 -0.1947  0.0441  0.6577
   89MOL0     C11647   1.102   5.531   2.125  0.1007 -0.4211 -0.0227
   89MOL0     C11648   1.092   5.450   2.014  0.5786  1.2798  0.2001
   89MOL0     C11649   0.979   5.389   1.966  0.1563 -0.7216 -0.0174
   89MOL0     C11650   0.863   5.402   2.027 -0.0544  0.1215 -1.1362
   89MOL0     O11651   0.741   5.349   1.991 -0.4993 -0.1671  0.0680
   89MOL0     C11652   0.671   5.423   1.889  0.3883  0.1866 -0.1941
   89MOL0     C11653   0.628   5.567   1.918 -0.5342 -0.0746 -0.2753
   89MOL0     C11654   0.505   5.564   2.013 -0.4379 -0.4210  0.1469
   89MOL0     C11655   0.440   5.703   2.032  0.5707 -0.3240  0.5164
   89MOL0     C11656   0.514   5.787   2.132  0.6778  1.0294  0.3463
   89MOL0     C11657   0.481   5.769   2.282  0.3663 -0.2617 -0.1842
   89MOL0     C11658   0.566   5.850   2.376 -0.2860  0.0625  0.6675
   89MOL0     C11659   0.555   5.832   2.523 -0.5508 -0.5376 -0.4230
   89MOL0    Cl11660   0.607   5.662   2.563  0.5260 -0.2612  0.1671
   89MOL0     C11661   0.862   5.493   2.140 -0.1012  0.2537  1.1320
   89MOL0     C11662   0.976   5.551   2.180 -0.3937 -0.2206 -1.1460
   89MOL0     O11663   1.335   5.429   2.227 -0.0543 -0.4172 -0.4166
   89MOL0     C11664   1.410   5.771   2.259  0.1507  0.0469 -0.6106
   89MOL0     C11665   1.518   5.853   2.298 -0.0939  0.5989 -0.3751
   89MOL0     N11666   1.815   6.273   2.673 -0.6410  0.4707  0.7078
   89MOL0     N11667   1.874   6.352   2.758  0.3169 -0.9701 -0.4837
   89MOL0     C11668   2.585   6.430   3.495  0.0451 -0.3045  0.2314
   89MOL0     C11669   2.597   6.501   3.609 -1.0571  0.5335  0.2379
   89MOL0     C11670   2.565   6.536   4.087  0.0012 -0.3603  0.8095
   89MOL0     C11671   2.466   6.532   4.188  0.4456  0.3816  0.5842
   89MOL0     C11672   2.479   6.626   4.298  0.7549 -0.3177  1.9267
   89MOL0     C11673   2.591   6.701   4.319 -0.6530  0.3049  0.6625
   89MOL0     O11674   2.597   6.811   4.400  0.2115 -0.0998  0.6925
   89MOL0     C11675   2.648   6.801   4.537 -0.3352 -0.2262  1.3328
   89MOL0     C11676   2.769   6.891   4.537  0.4570 -0.6521  0.6985
   89MOL0     C11677   2.846   6.875   4.666  0.0848 -0.1608 -0.6576
   89MOL0     C11678   2.943   6.994   4.698  0.5995  0.0824 -0.4768
   89MOL0     C11679   2.865   7.114   4.728  1.2450  0.2379 -0.7093
   89MOL0     C11680   2.802   7.215   4.751  0.3617  0.0744  1.0813
   89MOL0     C11681   2.694   6.690   4.227 -0.4537  0.0298  1.0040
   89MOL0     C11682   2.691   6.603   4.115  0.8330 -0.1838  0.0609
   89MOL0     H11683   2.672   6.261   3.827 -0.8703  0.9836  0.6448
   89MOL0     H11684   2.633   6.118   3.618 -1.1625 -0.7198 -0.5700
   89MOL0     H11685   2.443   6.092   3.448  1.1533  2.8745  1.6077
   89MOL0     H11686   2.594   6.015   3.416  0.3022  0.5349 -1.7146
   89MOL0     H11687   2.414   5.983   3.229  1.3790 -1.8373 -1.8222
   89MOL0     H11688   2.562   6.068   3.166  0.0778  0.6675  0.6213
   89MOL0     H11689   2.376   6.183   3.084  2.2424 -2.5412 -0.9664
   89MOL0     H11690   2.431   6.289   3.215 -0.6147  0.4837 -0.4550
   89MOL0     H11691   2.191   6.102   3.240 -2.5029  1.0572  3.3757
   89MOL0     H11692   2.256   6.192   3.373 -2.9293  1.4013 -0.3363
   89MOL0     H11693   2.200   6.396   3.308  1.0507  0.5358 -0.6020
   89MOL0     H11694   2.061   6.294   3.256 -0.6750  1.1715  0.5945
   89MOL0     H11695   2.280   6.370   3.054  1.2110  0.9486  2.5218
   89MOL0     H11696   2.168   6.493   3.098 -3.6150  0.9156  0.7446
   89MOL0     H11697   2.076   6.218   2.997 -0.5674 -0.3019  0.0441
   89MOL0     H11698   1.977   6.357   3.042 -0.3535  1.3289 -0.4589
   89MOL0     H11699   2.201   6.370   2.826 -0.3945  2.3568 -2.4075
   89MOL0     H11700   2.069   6.483   2.882 -0.0462  0.1229 -1.4225
   89MOL0     H11701   2.113   6.141   2.699  0.4284  0.2598  0.4577
   89MOL0     H11702   1.807   6.094   2.457 -1.9291  0.9809  1.8612
   89MOL0     H11703   1.815   5.979   2.594 -0.5360  0.6411  1.1105
   89MOL0     H11704   2.000   5.888   2.528  1.7776 -1.3765 -2.5294
   89MOL0     H11705   2.096   6.029   2.492 -0.2888 -0.0809  2.2968
   89MOL0     H11706   1.978   6.065   2.270 -0.7884 -0.0436  1.0777
   89MOL0     H11707   2.087   5.949   2.282 -0.3171 -1.2063 -0.5686
   89MOL0     H11708   1.900   5.776   2.375 -1.1697 -0.9340 -0.0359
   89MOL0     H11709   1.901   5.810   2.201  0.1274  0.2279 -0.2347
   89MOL0     H11710   1.767   5.634   2.247 -1.3554 -0.5255  0.7865
   89MOL0     H11711   1.585   5.495   2.167 -2.3950  0.8119 -1.5523
   89MOL0     H11712   1.187   5.447   1.960  1.4526 -0.1995  1.7101
   89MOL0     H11713   0.991   5.320   1.884  0.2376 -2.0934  1.1080
   89MOL0     H11714   0.578   5.369   1.869 -0.2334  1.0079  0.4399
   89MOL0     H11715   0.734   5.413   1.800 -0.5460  0.6283 -0.9149
   89MOL0     H11716   0.606   5.606   1.818 -0.0311 -1.6179 -1.0308
   89MOL0     H11717   0.716   5.615   1.961  0.9269 -3.5798  1.0143
   89MOL0     H11718   0.538   5.532   2.113  0.6234  1.0658  0.2958
   89MOL0     H11719   0.439   5.487   1.971  2.9341 -2.0277 -2.6327
   89MOL0     H11720   0.441   5.769   1.944  0.4209  2.2734  2.3607
   89MOL0     H11721   0.337   5.679   2.057  0.1691  0.8185  0.0459
   89MOL0     H11722   0.492   5.887   2.095 -0.5018  1.0992  1.1601
   89MOL0     H11723   0.618   5.762   2.109  0.4850  0.3884  0.1392
   89MOL0     H11724   0.492   5.663   2.307 -0.4301  0.0084  1.4734
   89MOL0     H11725   0.377   5.797   2.299  0.3690  0.8130 -1.7393
   89MOL0     H11726   0.670   5.856   2.343  0.1132 -1.7195  1.5061
   89MOL0     H11727   0.526   5.949   2.350  5.6057  2.5027 -0.7805
   89MOL0     H11728   0.451   5.848   2.553  0.0671  0.4726  1.3365
   89MOL0     H11729   0.627   5.898   2.573 -0.4223 -1.7598  1.0486
   89MOL0     H11730   0.765   5.514   2.184  0.2330 -0.2681  2.1482
   89MOL0     H11731   0.974   5.625   2.260  0.9816 -2.7320  1.4040
   89MOL0     H11732   1.308   5.803   2.277  0.4029  1.1511 -1.0801
   89MOL0     H11733   1.492   5.958   2.305 -1.1934  0.3500 -0.5894
   89MOL0     H11734   2.586   6.493   3.406  0.5028  0.5220  0.8148
   89MOL0     H11735   2.588   6.609   3.606 -1.6016  0.5042  0.7317
   89MOL0     H11736   2.378   6.474   4.162 -0.0782  1.5231 -0.2867
   89MOL0     H11737   2.386   6.641   4.353 -1.1025 -1.1464 -0.8169
   89MOL0     H11738   2.675   6.701   4.574 -0.8760 -0.3885  1.3099
   89MOL0     H11739   2.564   6.832   4.600 -1.4932 -0.1553 -0.1598
   89MOL0     H11740   2.829   6.859   4.452 -0.1797 -3.1234  1.0954
   89MOL0     H11741   2.738   6.995   4.523  0.8441 -0.4845  1.0742
   89MOL0     H11742   2.905   6.785   4.643 -1.7213 -0.9919 -2.3104
   89MOL0     H11743   2.766   6.863   4.740 -0.6819 -1.9672 -1.7051
   89MOL0     H11744   3.026   6.964   4.763  1.3399 -0.0983 -1.4853
   89MOL0     H11745   2.986   7.004   4.598 -2.3108 -1.6859 -2.0360
   89MOL0     H11746   2.764   7.309   4.785 -0.2855 -0.1742  1.0547
   89MOL0     H11747   2.777   6.758   4.232  0.6770 -1.3185  1.2437
   89MOL0     H11748   2.777   6.615   4.050 -0.0482  1.1893 -0.8936
   90MOL0     O11749   2.339   8.575   9.327  0.0216 -0.7772  0.1116
   90MOL0     C11750   2.403   8.628   9.420 -1.0336 -0.1840 -1.1791
   90MOL0     O11751   2.373   8.737   9.494  0.6809 -0.2248  0.1363
   90MOL0     C11752   2.259   8.821   9.475 -0.0963  0.3794 -0.1803
   90MOL0     C11753   2.271   8.951   9.420  0.3939 -0.0825  0.7638
   90MOL0     C11754   2.155   9.032   9.421 -0.0785 -0.0907  0.0469
   90MOL0     C11755   2.026   8.973   9.438  0.1410  0.1185 -0.9430
   90MOL0     O11756   1.906   9.053   9.424 -0.3852  0.2688 -0.0470
   90MOL0     C11757   1.795   9.014   9.510 -0.0200 -0.7124 -0.8073
   90MOL0     C11758   1.717   9.143   9.532 -0.5221  0.2006 -0.3825
   90MOL0     C11759   1.588   9.116   9.606 -0.1131 -0.9905 -0.2041
   90MOL0     C11760   1.527   9.251   9.621  0.0441  0.3995 -0.7641
   90MOL0     C11761   1.375   9.251   9.646 -0.1462 -0.3608  0.5541
   90MOL0     C11762   1.333   9.390   9.652 -0.4991 -0.6612  0.4476
   90MOL0     C11763   1.185   9.401   9.686  0.5623 -0.9483 -0.4084
   90MOL0     C11764   1.126   9.537   9.648  0.6660  0.2304 -0.8874
   90MOL0     N11765   1.187   9.642   9.728 -0.4258  1.0035 -0.2647
   90MOL0     C11766   1.315   9.705   9.702  0.4582  0.1150 -0.1834
   90MOL0     C11767   1.335   9.787   9.808 -0.0391  0.0201 -0.2913
   90MOL0     C11768   1.471   9.862   9.848 -0.3755 -0.3999  0.2436
   90MOL0     C11769   1.585   9.846   9.743 -1.0913  0.4469  1.0621
   90MOL0     C11770   1.634   9.694   9.737  0.1037 -0.0503 -0.7823
   90MOL0     C11771   1.692   9.670   9.596  0.3951  0.7313  0.2755
   90MOL0     O11772   1.736   9.526   9.599  0.5061 -0.0745  0.8069
   90MOL0     C11773   1.847   9.502   9.519  0.5955 -0.3869  0.7601
   90MOL0     C11774   1.823   9.439   9.391 -0.7165 -1.1635 -0.4029
   90MOL0     C11775   1.931   9.416   9.298  0.7316  0.4595  0.5331
   90MOL0     C11776   2.063   9.442   9.342 -0.2008  0.1376 -0.3387
   90MOL0     C11777   2.186   9.411   9.271  0.0328  1.3241  0.2760
   90MOL0     O11778   2.303   9.436   9.320  0.3685  0.2404  0.6783
   90MOL0     C11779   2.415   9.404   9.248 -0.3501  0.7336  0.0333
   90MOL0     C11780   2.509   9.511   9.234  0.0941 -0.2215 -1.3588
   90MOL0     C11781   2.637   9.497   9.183  0.5214 -0.4161  1.6198
   90MOL0     C11782   2.678   9.369   9.136 -0.3357 -0.1930 -0.0535
   90MOL0     O11783   2.799   9.337   9.085  0.2221  0.5986  0.5888
   90MOL0     C11784   2.867   9.443   9.013 -0.3892  0.4797  0.8290
   90MOL0     C11785   2.990   9.371   8.963  0.0417  0.1069 -0.9650
   90MOL0     C11786   3.098   9.344   9.070  0.3551 -0.2005 -0.4526
   90MOL0     C11787   3.200   9.450   9.114 -0.8033  0.1216  0.1815
   90MOL0     C11788   3.273   9.502   8.998 -0.6198  1.2683 -0.3908
   90MOL0     C11789   3.385   9.598   9.034  1.1194 -0.8128  0.1377
   90MOL0     C11790   3.354   9.746   8.989  0.9183 -0.4735 -0.2003
   90MOL0     C11791   3.478   9.832   9.019 -0.2875  0.0381 -0.7141
   90MOL0    Cl11792   3.500   9.858   9.200 -0.2417  0.1075 -0.1802
   90MOL0     C11793   2.587   9.265   9.144  0.1952  0.6684 -0.5161
   90MOL0     C11794   2.456   9.274   9.200 -0.7947 -0.2436 -0.2889
   90MOL0     O11795   2.170   9.353   9.162  0.5452 -0.1397  0.4868
   90MOL0     C11796   2.075   9.483   9.479 -1.1284  0.7023  0.6887
   90MOL0     C11797   1.971   9.516   9.564 -0.5997 -1.1518  0.5244
   90MOL0     N11798   1.232   9.773   9.900 -0.2353  0.6391 -0.3572
   90MOL0     N11799   1.149   9.679   9.854  0.5668  0.4357  0.8332
   90MOL0     C11800   2.025   8.838   9.477  0.4531 -0.4295 -0.2243
   90MOL0     C11801   2.137   8.762   9.497 -0.3197  0.6832  0.4024
   90MOL0     C11802   2.548   8.585   9.428  0.4351 -0.1185 -0.0532
   90MOL0     C11803   2.618   8.495   9.334  0.3346 -0.9238 -0.2848
   90MOL0     C11804   2.748   8.446   9.351 -0.6023 -1.1023  0.9998
   90MOL0     C11805   2.816   8.489   9.467 -0.5011  1.2562  0.2854
   90MOL0     O11806   2.934   8.433   9.506 -0.5052 -0.5453  1.0377
   90MOL0     C11807   2.954   8.295   9.491 -0.2101  0.0866  0.5790
   90MOL0     C11808   3.083   8.254   9.573 -1.2708  0.1326 -0.3569
   90MOL0     C11809   3.211   8.314   9.505 -0.4154 -0.0614  0.1227
   90MOL0     C11810   3.320   8.335   9.616  1.2405  0.0268  0.7014
   90MOL0     C11811   3.353   8.197   9.662 -0.9815 -1.0714  0.3452
   90MOL0     C11812   3.377   8.093   9.708  0.4554  0.3156  0.9358
   90MOL0     C11813   2.755   8.577   9.558 -0.0309 -0.1873  0.8420
   90MOL0     C11814   2.627   8.629   9.535 -0.5129 -0.0882  0.2214
   90MOL0     H11815   2.364   9.006   9.412  0.5014 -0.4355 -0.5527
   90MOL0     H11816   2.159   9.136   9.393  2.0589  0.1691  1.1253
   90MOL0     H11817   1.829   8.965   9.602 -3.6639  0.1486  1.1963
   90MOL0     H11818   1.743   8.941   9.447  0.5183  1.5850 -4.1838
   90MOL0     H11819   1.703   9.202   9.441  2.0712  0.4452 -0.7014
   90MOL0     H11820   1.787   9.202   9.592  0.7527 -1.0263 -0.6082
   90MOL0     H11821   1.607   9.089   9.711 -0.5843  2.5161  0.9250
   90MOL0     H11822   1.522   9.051   9.549 -0.0688 -0.5892 -0.7217
   90MOL0     H11823   1.561   9.307   9.708 -0.5269  1.4291 -1.1934
   90MOL0     H11824   1.546   9.306   9.529  0.3311  3.6309  1.0848
   90MOL0     H11825   1.351   9.206   9.743 -1.4436  1.9026  1.3706
   90MOL0     H11826   1.317   9.200   9.569 -1.9720  1.5995  0.5142
   90MOL0     H11827   1.350   9.425   9.550  1.7818  0.0550  1.0081
   90MOL0     H11828   1.390   9.451   9.723  0.9412 -0.4661 -0.8295
   90MOL0     H11829   1.125   9.326   9.635 -1.9649 -0.6208  1.8206
   90MOL0     H11830   1.177   9.378   9.793 -2.9283  0.0265 -0.3474
   90MOL0     H11831   1.019   9.531   9.668  0.8540  0.5112  0.2867
   90MOL0     H11832   1.130   9.557   9.541 -0.4124 -0.0736 -1.0021
   90MOL0     H11833   1.373   9.696   9.610 -0.4293 -3.0122 -0.5307
   90MOL0     H11834   1.488   9.811   9.943 -3.0025  1.4135  1.8081
   90MOL0     H11835   1.456   9.969   9.866  2.0903 -0.2437  1.8727
   90MOL0     H11836   1.659   9.924   9.761 -1.7865  0.8485  2.2597
   90MOL0     H11837   1.542   9.866   9.644  1.4653 -0.5681 -0.3422
   90MOL0     H11838   1.718   9.689   9.807 -0.8021  1.9141  0.5562
   90MOL0     H11839   1.550   9.628   9.761  3.0521 -3.1391  2.2490
   90MOL0     H11840   1.783   9.728   9.578  1.2798 -0.6837  0.1038
   90MOL0     H11841   1.617   9.690   9.518  1.8180 -1.1008 -1.6615
   90MOL0     H11842   1.722   9.412   9.364 -0.1763 -3.5797 -0.2309
   90MOL0     H11843   1.898   9.368   9.206  1.5371  0.0968  0.4255
   90MOL0     H11844   2.473   9.611   9.258 -2.7343 -1.6611  1.0192
   90MOL0     H11845   2.689   9.591   9.172  2.1464 -1.3626  0.8198
   90MOL0     H11846   2.884   9.523   9.085  0.5533  0.8756  0.1756
   90MOL0     H11847   2.811   9.470   8.923  1.9039 -0.6200 -1.0390
   90MOL0     H11848   3.033   9.422   8.876 -0.0525  0.4747 -0.7952
   90MOL0     H11849   2.953   9.271   8.939 -2.7491  0.9438 -0.5692
   90MOL0     H11850   3.140   9.246   9.048 -2.5015 -2.1529  1.9165
   90MOL0     H11851   3.042   9.321   9.161 -0.3171  0.9482 -0.5580
   90MOL0     H11852   3.146   9.539   9.148 -0.4843  0.5420 -0.3881
   90MOL0     H11853   3.260   9.414   9.197  0.1442  1.4662  0.1168
   90MOL0     H11854   3.198   9.553   8.936 -1.9867  0.1399  0.2839
   90MOL0     H11855   3.315   9.416   8.945 -0.3428  0.4391  1.1282
   90MOL0     H11856   3.485   9.574   8.997  0.7747  0.1858 -1.5699
   90MOL0     H11857   3.395   9.611   9.142 -0.5608 -0.8009  0.3215
   90MOL0     H11858   3.341   9.756   8.881  1.2697  2.6219 -0.0379
   90MOL0     H11859   3.275   9.785   9.055  1.2439  0.0085 -0.0889
   90MOL0     H11860   3.468   9.932   8.975 -1.6958  0.0869 -0.3287
   90MOL0     H11861   3.570   9.788   8.979  1.1435  2.8241 -0.7132
   90MOL0     H11862   2.619   9.169   9.104 -0.2909  1.0141 -1.7954
   90MOL0     H11863   2.397   9.183   9.209 -1.9842  0.1141 -3.2727
   90MOL0     H11864   2.170   9.523   9.514 -0.7651 -0.5642  1.2012
   90MOL0     H11865   1.984   9.555   9.665 -1.4093 -0.6890  0.4593
   90MOL0     H11866   1.929   8.789   9.493 -0.4467  0.6223 -2.0555
   90MOL0     H11867   2.136   8.658   9.527  1.1303  0.9326  1.4204
   90MOL0     H11868   2.559   8.446   9.257  2.0147 -1.6957 -1.1355
   90MOL0     H11869   2.793   8.370   9.288  1.7463 -0.5862  1.9714
   90MOL0     H11870   2.975   8.271   9.387 -2.7948 -1.2145  0.2668
   90MOL0     H11871   2.867   8.236   9.520  2.1959 -4.1712 -0.0525
   90MOL0     H11872   3.078   8.303   9.671 -0.0980  0.2350 -0.3357
   90MOL0     H11873   3.098   8.146   9.579  2.4551  0.5829  3.1652
   90MOL0     H11874   3.185   8.408   9.455 -3.8928 -1.3637 -0.8041
   90MOL0     H11875   3.253   8.246   9.431 -1.0561  2.6961 -2.9805
   90MOL0     H11876   3.398   8.400   9.577  0.2110  1.5794  1.1342
   90MOL0     H11877   3.274   8.394   9.696  0.3783  0.5705 -0.1821
   90MOL0     H11878   3.412   8.003   9.754  1.5255  0.0161 -0.3974
   90MOL0     H11879   2.822   8.603   9.639  1.9408  2.8586 -1.4999
   90MOL0     H11880   2.595   8.706   9.604 -0.8858  0.5032 -0.6049
   91MOL0     O11881   1.691   2.721   1.961  0.7360 -0.4547  0.8264
   91MOL0     C11882   1.633   2.800   1.892 -0.3551 -0.7894  0.0883
   91MOL0     O11883   1.500   2.838   1.912 -0.5141  0.0092 -0.0938
   91MOL0     C11884   1.446   2.788   2.025 -0.3094 -0.6833 -0.1466
   91MOL0     C11885   1.362   2.682   2.001 -0.2860  0.5210  0.2759
   91MOL0     C11886   1.291   2.626   2.107 -0.4746 -0.4881  0.0056
   91MOL0     C11887   1.302   2.686   2.234  0.4476 -0.0225 -0.4544
   91MOL0     O11888   1.241   2.617   2.340 -0.1443  0.2516  0.1385
   91MOL0     C11889   1.303   2.621   2.464  0.7867 -1.7197  0.6378
   91MOL0     C11890   1.239   2.526   2.560 -0.1054  0.6989  0.7764
   91MOL0     C11891   1.276   2.553   2.709 -0.8575 -0.3706 -0.6791
   91MOL0     C11892   1.194   2.464   2.796  0.1003  0.6467 -0.2295
   91MOL0     C11893   1.248   2.457   2.941 -0.7331  0.2918 -0.0531
   91MOL0     C11894   1.304   2.582   3.013 -0.5545 -0.2767  0.5133
   91MOL0     C11895   1.193   2.687   3.023  0.5723 -0.1496 -0.8544
   91MOL0     C11896   1.075   2.652   3.111  0.8138 -0.0864  0.4875
   91MOL0     N11897   0.983   2.761   3.145 -0.2339 -0.9320  0.7722
   91MOL0     C11898   1.001   2.897   3.141 -0.2639 -0.0245  0.2923
   91MOL0     C11899   0.908   2.955   3.222 -0.3617  0.3940 -0.4000
   91MOL0     C11900   0.899   3.104   3.243  0.2209 -1.0562  0.1844
   91MOL0     C11901   1.015   3.158   3.323 -0.4193  0.7892 -0.3009
   91MOL0     C11902   1.038   3.075   3.453 -0.5840 -0.0529 -0.0594
   91MOL0     C11903   0.916   3.044   3.537  0.1796  0.9622  0.7492
   91MOL0     O11904   0.829   3.163   3.549 -0.3137  0.3507 -1.0584
   91MOL0     C11905   0.737   3.171   3.657  0.1664  0.1017 -1.0453
   91MOL0     C11906   0.707   3.066   3.738 -0.0269 -0.2713 -1.1371
   91MOL0     C11907   0.600   3.076   3.838  0.8136 -0.1229  0.1667
   91MOL0     C11908   0.531   3.197   3.851  0.5152 -0.0373 -0.1035
   91MOL0     C11909   0.403   3.206   3.931  0.3487 -0.3363  0.0153
   91MOL0     O11910   0.415   3.133   4.046 -0.2062 -0.2928  0.6235
   91MOL0     C11911   0.320   3.160   4.147  0.3433  0.5155 -0.0256
   91MOL0     C11912   0.286   3.045   4.223  0.4053  0.1805 -0.1980
   91MOL0     C11913   0.217   3.067   4.338  0.5417 -0.7989 -0.1561
   91MOL0     C11914   0.182   3.193   4.385 -0.1910  0.1009  0.8369
   91MOL0     O11915   0.112   3.185   4.506 -0.1759  0.5169 -0.3212
   91MOL0     C11916   0.125   3.306   4.577 -0.5069 -0.2264 -1.3225
   91MOL0     C11917   0.076   3.291   4.723 -0.4797 -0.2481 -0.3096
   91MOL0     C11918   0.183   3.355   4.819  0.4421 -0.0089  0.2753
   91MOL0     C11919   0.103   3.387   4.938 -0.4831  0.1272 -0.2512
   91MOL0     C11920   0.184   3.451   5.054  0.3055 -0.2429 -1.4494
   91MOL0     C11921   0.306   3.365   5.091  0.1398 -0.0512 -0.4911
   91MOL0     C11922   0.385   3.413   5.211 -0.2511 -0.7106 -0.3597
   91MOL0     C11923   0.310   3.404   5.343 -0.7241  0.1212 -1.4196
   91MOL0    Cl11924   0.419   3.444   5.483 -0.7123  0.2767 -0.4396
   91MOL0     C11925   0.193   3.302   4.297 -0.0084 -0.7107 -0.1828
   91MOL0     C11926   0.273   3.284   4.185  0.6279  0.0512 -0.1723
   91MOL0     O11927   0.302   3.243   3.872 -0.1619 -0.4831 -0.0330
   91MOL0     C11928   0.570   3.306   3.779  1.2519  0.9045  2.1700
   91MOL0     C11929   0.673   3.292   3.680  0.0089 -0.2501  0.3080
   91MOL0     N11930   0.824   2.853   3.256  0.7859  0.5692  0.4186
   91MOL0     N11931   0.879   2.739   3.233 -0.2561  0.0218 -0.6534
   91MOL0     C11932   1.389   2.794   2.259  0.4865 -0.4073 -0.7359
   91MOL0     C11933   1.448   2.853   2.145 -0.1502 -0.0600 -0.3091
   91MOL0     C11934   1.707   2.881   1.797  0.8306  0.5701 -0.4768
   91MOL0     C11935   1.656   2.992   1.732 -0.4752 -0.2443 -0.3370
   91MOL0     C11936   1.736   3.074   1.642  0.4722 -0.0547 -0.2312
   91MOL0     C11937   1.858   3.018   1.608 -0.0440  0.6921 -0.0575
   91MOL0     O11938   1.939   3.070   1.514  0.6120  0.9536  0.3959
   91MOL0     C11939   1.896   3.173   1.416  0.1347 -0.4129 -0.2594
   91MOL0     C11940   1.965   3.149   1.292 -0.0800  0.0759 -0.6147
   91MOL0     C11941   2.039   3.267   1.230 -0.0236  0.0675  1.1148
   91MOL0     C11942   2.128   3.219   1.120  0.5128 -0.0646  0.0762
   91MOL0     C11943   2.194   3.323   1.038  0.1042  0.0835 -0.4532
   91MOL0     C11944   2.261   3.402   0.983  0.2844  0.2828 -0.1372
   91MOL0     C11945   1.907   2.900   1.664 -0.7176 -0.6301 -0.0360
   91MOL0     C11946   1.840   2.844   1.760 -0.1145  1.7016 -0.3015
   91MOL0     H11947   1.362   2.636   1.903  1.8512  0.5886  0.2002
   91MOL0     H11948   1.247   2.527   2.118  0.5155 -0.6847  3.4521
   91MOL0     H11949   1.293   2.724   2.498 -1.4453 -0.4477 -3.2280
   91MOL0     H11950   1.408   2.595   2.448 -0.1372 -4.9699 -1.2507
   91MOL0     H11951   1.273   2.424   2.540  1.5507  1.3619  0.0250
   91MOL0     H11952   1.130   2.538   2.550 -0.2617 -0.8266  0.4389
   91MOL0     H11953   1.259   2.656   2.741  2.2589 -0.2264  0.8792
   91MOL0     H11954   1.384   2.538   2.723 -0.8558 -0.5432 -0.8822
   91MOL0     H11955   1.098   2.512   2.813  1.4962  2.2940  4.6101
   91MOL0     H11956   1.192   2.367   2.744  2.6892  0.5761 -0.3515
   91MOL0     H11957   1.333   2.389   2.939 -0.8428  0.1672 -0.9488
   91MOL0     H11958   1.169   2.409   3.000 -1.2884  1.1458 -0.0847
   91MOL0     H11959   1.382   2.634   2.957  1.8403 -1.8868  2.1993
   91MOL0     H11960   1.349   2.562   3.110 -1.7275 -0.0534  1.1189
   91MOL0     H11961   1.238   2.775   3.071  0.8933 -0.6882 -0.1491
   91MOL0     H11962   1.145   2.705   2.926 -1.1766  3.0707  0.4457
   91MOL0     H11963   1.115   2.602   3.199  2.9813  0.4743 -0.1353
   91MOL0     H11964   1.014   2.584   3.050 -0.6544  2.0097 -0.5044
   91MOL0     H11965   1.089   2.941   3.094 -0.4639 -1.2974 -1.3410
   91MOL0     H11966   0.804   3.125   3.293  1.0501  3.7749  0.1922
   91MOL0     H11967   0.886   3.138   3.140  0.6403  0.3188  0.5679
   91MOL0     H11968   1.000   3.261   3.355 -0.0852  0.4416  1.0852
   91MOL0     H11969   1.102   3.159   3.257  0.8477 -1.1189  1.2021
   91MOL0     H11970   1.088   2.982   3.426 -1.6362 -0.9727  1.0757
   91MOL0     H11971   1.108   3.127   3.520 -2.0989 -0.5690  2.0395
   91MOL0     H11972   0.939   3.001   3.634  2.0263 -0.9106 -0.4348
   91MOL0     H11973   0.855   2.964   3.494 -1.6705  2.4540  0.4796
   91MOL0     H11974   0.750   2.968   3.721 -0.7689 -0.4055 -2.3651
   91MOL0     H11975   0.562   2.990   3.893 -1.2583  0.7810  0.2463
   91MOL0     H11976   0.321   2.948   4.189  1.4032 -0.1030  1.5143
   91MOL0     H11977   0.182   2.982   4.395  2.0541 -1.4694 -0.1815
   91MOL0     H11978   0.066   3.386   4.528 -0.7359  0.3380 -0.1546
   91MOL0     H11979   0.226   3.347   4.574 -0.7817  0.4317 -3.4857
   91MOL0     H11980   0.067   3.183   4.740 -0.8181 -0.6187 -2.6203
   91MOL0     H11981  -0.019   3.346   4.721  0.2805  1.3308 -5.1027
   91MOL0     H11982   0.227   3.444   4.774 -1.2210 -0.7378 -3.1643
   91MOL0     H11983   0.255   3.276   4.841 -3.7459 -3.6155  2.8417
   91MOL0     H11984   0.020   3.446   4.898  0.0071  0.5911 -0.5877
   91MOL0     H11985   0.062   3.295   4.981  4.1970 -1.6638  0.9893
   91MOL0     H11986   0.109   3.459   5.134  0.7822  0.1928 -1.0431
   91MOL0     H11987   0.216   3.551   5.024  0.3542  1.1624  2.6728
   91MOL0     H11988   0.358   3.377   4.996 -0.8164 -1.2503 -1.2103
   91MOL0     H11989   0.291   3.256   5.095  0.4504 -0.0837 -0.2474
   91MOL0     H11990   0.474   3.351   5.221  1.2612  1.6207  1.7726
   91MOL0     H11991   0.411   3.515   5.182  1.7056 -0.5836  1.6150
   91MOL0     H11992   0.277   3.300   5.353  0.5305 -0.1073  1.3505
   91MOL0     H11993   0.225   3.473   5.348  1.0086  2.2694  1.0193
   91MOL0     H11994   0.145   3.398   4.316  1.8237  0.4865 -1.3038
   91MOL0     H11995   0.293   3.375   4.129 -2.5799  1.0677  0.1584
   91MOL0     H11996   0.525   3.403   3.799  1.5803  0.9425  2.7405
   91MOL0     H11997   0.693   3.374   3.610 -4.2709 -0.2459 -1.1751
   91MOL0     H11998   1.405   2.831   2.360  0.7571 -2.1584 -0.1026
   91MOL0     H11999   1.519   2.934   2.158  0.4969 -0.7963  0.9156
   91MOL0     H12000   1.567   3.039   1.773  1.1150  0.6252  2.3694
   91MOL0     H12001   1.689   3.162   1.600 -2.8153 -2.0585 -1.1240
   91MOL0     H12002   1.918   3.269   1.464  3.6245 -1.9129  1.4993
   91MOL0     H12003   1.789   3.160   1.402 -0.0413  0.4500  0.1922
   91MOL0     H12004   2.028   3.062   1.310  2.0934  2.0481  2.3170
   91MOL0     H12005   1.881   3.117   1.230 -0.8208  0.1851  0.3159
   91MOL0     H12006   2.097   3.313   1.310  1.1728 -0.8445  0.8128
   91MOL0     H12007   1.960   3.337   1.202  1.6778  2.3568  1.7973
   91MOL0     H12008   2.216   3.174   1.166 -0.1657 -2.3672 -0.7223
   91MOL0     H12009   2.086   3.134   1.065 -0.5688  0.0425  0.7117
   91MOL0     H12010   2.326   3.474   0.937  2.9113 -1.5355  0.5068
   91MOL0     H12011   2.005   2.860   1.640 -0.7145 -0.2103 -0.7568
   91MOL0     H12012   1.884   2.758   1.808  0.4594  1.6725 -0.8576
   92MOL0     O12013   7.659   2.155   5.730 -0.4835  0.3954  1.0419
   92MOL0     C12014   7.730   2.257   5.734  0.8523  1.1290 -0.4891
   92MOL0     O12015   7.705   2.369   5.805 -0.0236 -0.2765 -0.1225
   92MOL0     C12016   7.607   2.390   5.895  0.0045 -0.6497 -0.4988
   92MOL0     C12017   7.483   2.328   5.919 -0.4696 -0.5503  0.6620
   92MOL0     C12018   7.398   2.373   6.024 -0.3338 -0.3007 -0.7815
   92MOL0     C12019   7.436   2.472   6.118  0.8752  0.4761 -0.0675
   92MOL0     O12020   7.361   2.520   6.222  0.1060 -0.0395  0.6704
   92MOL0     C12021   7.244   2.458   6.262 -0.3075 -0.2254 -0.1123
   92MOL0     C12022   7.274   2.320   6.329  0.2373 -0.0529  0.4744
   92MOL0     C12023   7.133   2.260   6.366  0.3603 -0.1021  1.1751
   92MOL0     C12024   7.049   2.327   6.478 -0.1896 -0.3627 -0.0136
   92MOL0     C12025   6.933   2.240   6.529 -0.4179 -0.4328  0.1696
   92MOL0     C12026   6.810   2.320   6.583 -0.9087 -0.4135  0.5419
   92MOL0     C12027   6.829   2.435   6.688  0.0326 -0.2909  0.7461
   92MOL0     C12028   6.790   2.411   6.833 -1.4345 -0.4521 -0.5706
   92MOL0     N12029   6.662   2.354   6.855  0.7018 -0.3279 -0.2439
   92MOL0     C12030   6.634   2.232   6.870 -0.4317 -0.0625  0.1691
   92MOL0     C12031   6.510   2.224   6.885  0.1440  0.5463 -0.0390
   92MOL0     C12032   6.443   2.099   6.905 -0.1622 -1.1499 -0.5418
   92MOL0     C12033   6.464   2.064   7.059  0.0453 -0.9174 -0.1539
   92MOL0     C12034   6.378   1.945   7.106 -0.3303  0.2333  0.0209
   92MOL0     C12035   6.360   1.935   7.256 -0.6243 -0.0691  0.2715
   92MOL0     O12036   6.241   1.866   7.280  0.7877  0.1948  0.5855
   92MOL0     C12037   6.164   1.887   7.393 -0.3978  1.2386  0.6127
   92MOL0     C12038   6.167   1.991   7.489  0.2196  1.0408  0.1328
   92MOL0     C12039   6.074   2.013   7.592 -1.0108 -0.4736 -0.0563
   92MOL0     C12040   5.962   1.926   7.606  0.4397  0.6005 -0.7249
   92MOL0     C12041   5.852   1.928   7.707  0.1921 -0.9872 -0.7373
   92MOL0     O12042   5.858   2.038   7.785 -0.1096 -0.5103  0.0591
   92MOL0     C12043   5.784   2.048   7.899 -0.6954  0.2133  0.7473
   92MOL0     C12044   5.806   1.967   8.013 -0.7260 -0.8252  0.1080
   92MOL0     C12045   5.728   1.984   8.124  0.3136  1.0033 -0.8485
   92MOL0     C12046   5.613   2.061   8.122 -1.1231 -0.9708  0.8225
   92MOL0     O12047   5.523   2.036   8.219 -0.6073  0.7856 -0.3888
   92MOL0     C12048   5.398   2.096   8.181 -0.7514  0.1241  0.5071
   92MOL0     C12049   5.300   2.063   8.285  0.1285  0.0637  0.5701
   92MOL0     C12050   5.177   2.137   8.252 -0.1545  0.0631 -0.9703
   92MOL0     C12051   5.118   2.089   8.119 -0.3929 -0.6064  0.6452
   92MOL0     C12052   4.963   2.121   8.104 -0.7113 -1.1796 -0.7596
   92MOL0     C12053   4.929   2.267   8.096 -0.1468  0.9061  0.1035
   92MOL0     C12054   5.016   2.317   7.988  0.4687 -0.2299  0.4655
   92MOL0     C12055   4.957   2.439   7.919  0.0842 -0.9000  0.2696
   92MOL0    Cl12056   4.803   2.385   7.818  0.5706  0.0538 -0.0583
   92MOL0     C12057   5.601   2.147   8.005  0.0958 -0.6735  0.0870
   92MOL0     C12058   5.689   2.145   7.898  0.2427  0.0881 -0.7858
   92MOL0     O12059   5.768   1.841   7.708  0.1356  0.7965 -0.9138
   92MOL0     C12060   5.955   1.822   7.503 -0.1897  0.9547  0.6370
   92MOL0     C12061   6.053   1.805   7.403  0.1171  0.7241  0.0625
   92MOL0     N12062   6.457   2.351   6.890  0.2225  0.1613  0.4527
   92MOL0     N12063   6.555   2.433   6.876 -0.8265  0.7047 -0.1973
   92MOL0     C12064   7.558   2.529   6.093  0.4082 -0.2436 -0.8869
   92MOL0     C12065   7.643   2.484   5.988 -0.2754 -0.7935  0.0079
   92MOL0     C12066   7.855   2.245   5.654  0.1830 -0.4466  0.7630
   92MOL0     C12067   7.949   2.353   5.682 -0.0852 -0.0181  0.4929
   92MOL0     C12068   8.065   2.344   5.600  0.0967  1.3575 -0.0983
   92MOL0     C12069   8.092   2.235   5.520 -0.0108 -0.8921 -0.2084
   92MOL0     O12070   8.217   2.240   5.454  0.3897 -0.0802 -0.0823
   92MOL0     C12071   8.215   2.198   5.318  0.4831  0.2773  0.3040
   92MOL0     C12072   8.266   2.066   5.288  1.5219 -0.5292  0.1664
   92MOL0     C12073   8.408   2.049   5.328 -0.3618 -0.4796  0.0675
   92MOL0     C12074   8.445   1.898   5.337 -0.6320  0.0725 -0.3331
   92MOL0     C12075   8.391   1.804   5.241 -0.1567 -0.5187  0.4503
   92MOL0     C12076   8.340   1.732   5.155 -0.2563 -0.6002  0.3416
   92MOL0     C12077   7.993   2.134   5.503  0.0468  0.3926  0.4099
   92MOL0     C12078   7.868   2.139   5.558 -0.1417  0.2350 -0.3119
   92MOL0     H12079   7.455   2.249   5.849  1.8343 -0.0221 -0.9766
   92MOL0     H12080   7.296   2.336   6.032 -0.5641  0.3842 -0.4356
   92MOL0     H12081   7.167   2.449   6.185  1.0449  2.9782 -2.0307
   92MOL0     H12082   7.198   2.526   6.334  1.6976 -1.1723  2.2391
   92MOL0     H12083   7.341   2.316   6.415  1.9687 -1.0591 -0.8667
   92MOL0     H12084   7.316   2.255   6.252 -2.2879 -0.9599 -0.2451
   92MOL0     H12085   7.151   2.155   6.393  0.4549 -0.1941  0.7714
   92MOL0     H12086   7.072   2.261   6.275 -0.0109  0.6082  1.4288
   92MOL0     H12087   7.115   2.338   6.566 -3.0218 -0.8673  2.3204
   92MOL0     H12088   7.005   2.420   6.443  0.5795  1.5542  3.5875
   92MOL0     H12089   6.973   2.172   6.605 -0.0355  0.4846  0.8018
   92MOL0     H12090   6.897   2.180   6.445  1.8620  0.6171 -1.6642
   92MOL0     H12091   6.750   2.245   6.635 -0.7947 -1.2805 -0.5257
   92MOL0     H12092   6.756   2.363   6.498  1.1266 -0.2765 -0.7470
   92MOL0     H12093   6.937   2.449   6.683  0.0620 -0.9038 -1.2489
   92MOL0     H12094   6.770   2.518   6.647  1.3275  0.7508  0.9546
   92MOL0     H12095   6.785   2.505   6.888 -1.2296 -1.7809  1.8693
   92MOL0     H12096   6.868   2.349   6.880  2.8629  2.1581 -3.5529
   92MOL0     H12097   6.693   2.141   6.870  1.5131  1.0791  3.1105
   92MOL0     H12098   6.473   2.011   6.847 -2.4266 -1.3498 -1.5088
   92MOL0     H12099   6.337   2.122   6.886  0.0320  0.5662  0.2294
   92MOL0     H12100   6.434   2.154   7.114  1.6076 -0.1775 -0.4558
   92MOL0     H12101   6.572   2.049   7.074 -0.4585 -1.4358  4.0721
   92MOL0     H12102   6.275   1.966   7.076 -0.2433  0.4801 -0.1071
   92MOL0     H12103   6.423   1.855   7.062 -0.2921 -0.4935  1.4757
   92MOL0     H12104   6.362   2.037   7.295  0.9913  0.7802 -1.8356
   92MOL0     H12105   6.441   1.879   7.303  0.2967 -0.0704 -1.2442
   92MOL0     H12106   6.238   2.073   7.486 -1.5655  2.6462  0.2273
   92MOL0     H12107   6.104   2.101   7.648 -1.2078 -1.4029  1.5756
   92MOL0     H12108   5.891   1.900   8.014  0.0392  0.0166 -2.2957
   92MOL0     H12109   5.752   1.914   8.203  1.4500  1.8851 -0.3781
   92MOL0     H12110   5.365   2.060   8.083  0.8746  2.0626 -0.8195
   92MOL0     H12111   5.412   2.204   8.177  1.3066 -0.1335 -0.8618
   92MOL0     H12112   5.342   2.089   8.382  3.4520 -3.1957  0.2091
   92MOL0     H12113   5.292   1.954   8.292  1.1907 -0.1317 -0.8210
   92MOL0     H12114   5.202   2.244   8.241  1.1600  0.1469  1.9713
   92MOL0     H12115   5.121   2.124   8.344  2.4272  1.6556  0.9932
   92MOL0     H12116   5.175   2.128   8.034  0.3693 -2.1369  0.4339
   92MOL0     H12117   5.136   1.983   8.104  0.1137 -0.2621 -1.5085
   92MOL0     H12118   4.909   2.092   8.194 -2.3786 -0.5124 -1.5071
   92MOL0     H12119   4.912   2.075   8.018 -2.2546  1.5473 -1.4361
   92MOL0     H12120   4.928   2.329   8.186 -1.4343 -0.9071  1.4195
   92MOL0     H12121   4.834   2.271   8.041  1.6588  1.8583 -3.2438
   92MOL0     H12122   5.108   2.347   8.039  2.2166  2.0578 -3.5861
   92MOL0     H12123   5.036   2.235   7.919  0.0532 -0.6578  0.8476
   92MOL0     H12124   5.024   2.477   7.841 -1.7305  1.4390 -0.2893
   92MOL0     H12125   4.949   2.529   7.981  0.0851  1.1333 -2.4926
   92MOL0     H12126   5.528   2.228   8.004  1.5633  0.6980  0.5654
   92MOL0     H12127   5.689   2.221   7.821  1.4247 -1.2070 -2.1227
   92MOL0     H12128   5.877   1.746   7.501 -0.4108  1.0348 -4.4733
   92MOL0     H12129   6.041   1.730   7.325  0.3447  1.9202 -1.1695
   92MOL0     H12130   7.601   2.586   6.175  1.0124 -1.0822 -0.6051
   92MOL0     H12131   7.736   2.537   5.969  0.7292 -0.9838  3.5733
   92MOL0     H12132   7.932   2.420   5.766  3.4330 -0.2901  1.6218
   92MOL0     H12133   8.148   2.408   5.625  0.8145 -0.6958  3.4825
   92MOL0     H12134   8.283   2.269   5.272  0.7016 -0.1434 -0.0248
   92MOL0     H12135   8.116   2.213   5.274  0.8815  0.9068 -0.3830
   92MOL0     H12136   8.219   1.984   5.343  0.7241 -0.7434 -0.8116
   92MOL0     H12137   8.259   2.049   5.180  0.8233 -0.2612  0.1655
   92MOL0     H12138   8.421   2.099   5.424  0.7299  2.6318 -1.5272
   92MOL0     H12139   8.461   2.099   5.246 -1.3107 -3.6665 -2.7272
   92MOL0     H12140   8.553   1.896   5.324 -0.6372  4.9994 -3.9238
   92MOL0     H12141   8.409   1.868   5.436 -0.3925  0.1188 -0.2318
   92MOL0     H12142   8.305   1.670   5.074  1.4771  1.2694 -2.0058
   92MOL0     H12143   8.014   2.047   5.442 -1.4832  0.1180  0.2274
   92MOL0     H12144   7.788   2.073   5.527 -2.6549  3.4155 -1.1695
   93MOL0     O12145   1.480   6.863  10.511  0.1529  0.0661  0.4854
   93MOL0     C12146   1.390   6.805  10.440 -0.9393 -0.2430 -0.2324
   93MOL0     O12147   1.260   6.839  10.429  0.1287 -0.6178 -1.3332
   93MOL0     C12148   1.227   6.949  10.497 -0.7581  0.0659  0.9119
   93MOL0     C12149   1.238   7.071  10.453  0.8962 -1.0879  0.6411
   93MOL0     C12150   1.200   7.189  10.527  0.0413 -0.2074  0.1185
   93MOL0     C12151   1.126   7.168  10.648 -0.2380 -0.1474  0.0002
   93MOL0     O12152   1.068   7.273  10.728 -0.3605  0.6693  0.7091
   93MOL0     C12153   1.067   7.409  10.693 -0.5571  0.8318  0.3005
   93MOL0     C12154   1.056   7.491  10.820  0.0115  0.0172  0.0449
   93MOL0     C12155   1.030   7.637  10.799  0.5932  0.9829 -0.9671
   93MOL0     C12156   0.990   7.706  10.929 -0.4244  0.4526  0.7392
   93MOL0     C12157   1.081   7.820  10.972  0.2305  0.2290  0.9331
   93MOL0     C12158   1.210   7.754  11.039 -0.3150  0.0275 -0.4377
   93MOL0     C12159   1.277   7.865  11.112  1.1768 -0.2930 -0.2051
   93MOL0     C12160   1.337   7.976  11.021 -0.2862 -0.1769  1.2242
   93MOL0     N12161   1.432   8.065  11.089 -0.2086 -0.5937 -0.1634
   93MOL0     C12162   1.397   8.188  11.142 -0.6683  0.9790  0.0186
   93MOL0     C12163   1.514   8.249  11.162 -0.8429 -0.8780  0.2054
   93MOL0     C12164   1.541   8.380  11.230  0.9369 -0.7474  0.6369
   93MOL0     C12165   1.562   8.498  11.131 -0.0362  0.1749  0.1155
   93MOL0     C12166   1.700   8.522  11.089 -1.3165 -0.0442 -0.1411
   93MOL0     C12167   1.802   8.526  11.210 -1.1678  0.0633  0.1230
   93MOL0     O12168   1.914   8.598  11.159  0.3931 -0.4296  0.4406
   93MOL0     C12169   2.039   8.569  11.205 -0.4476 -0.0804  0.2753
   93MOL0     C12170   2.078   8.468  11.305 -0.6661 -0.8038  0.1080
   93MOL0     C12171   2.208   8.474  11.364  0.5155 -0.4062 -0.6700
   93MOL0     C12172   2.312   8.555  11.323  0.0386  0.0207  0.1077
   93MOL0     C12173   2.441   8.568  11.383 -0.1647  0.2761  0.2447
   93MOL0     O12174   2.534   8.668  11.341  1.0182  0.3185  0.2729
   93MOL0     C12175   2.655   8.673  11.413 -0.1702  0.5902 -0.5241
   93MOL0     C12176   2.653   8.697  11.552  0.0853  0.8371 -0.1013
   93MOL0     C12177   2.777   8.716  11.623 -0.2157 -0.1810  0.3648
   93MOL0     C12178   2.899   8.701  11.556  0.2255  0.0573  0.5274
   93MOL0     O12179   3.013   8.698  11.632 -0.8320 -0.4882 -0.2285
   93MOL0     C12180   3.143   8.698  11.569  0.0317  0.4413  0.3530
   93MOL0     C12181   3.259   8.708  11.666 -0.4423 -0.7715 -0.9313
   93MOL0     C12182   3.389   8.697  11.580 -0.2371  0.6901 -0.5870
   93MOL0     C12183   3.514   8.707  11.659 -0.1164  0.6541  0.1082
   93MOL0     C12184   3.644   8.716  11.575 -0.9166  0.2401 -0.4429
   93MOL0     C12185   3.773   8.716  11.661 -1.0937 -0.0998  0.0911
   93MOL0     C12186   3.898   8.739  11.587 -0.6202 -0.0893 -0.7065
   93MOL0     C12187   4.016   8.731  11.686 -0.5532 -0.1415 -0.0486
   93MOL0    Cl12188   4.033   8.567  11.737  0.6587  0.2256 -0.3661
   93MOL0     C12189   2.896   8.679  11.417  0.2463 -0.0831 -0.1289
   93MOL0     C12190   2.779   8.669  11.347  0.0375  0.5188  0.1879
   93MOL0     O12191   2.455   8.506  11.487 -0.4754  0.4806 -0.4384
   93MOL0     C12192   2.269   8.640  11.219 -0.0868 -0.6633 -0.3018
   93MOL0     C12193   2.141   8.653  11.165  0.3192  0.0342 -0.6440
   93MOL0     N12194   1.621   8.162  11.139 -1.0371  0.1693 -0.5264
   93MOL0     N12195   1.564   8.048  11.108 -0.3682 -0.2462  0.1414
   93MOL0     C12196   1.117   7.041  10.703  0.1209 -0.0613  1.2467
   93MOL0     C12197   1.172   6.935  10.627  0.0159 -0.4421 -0.4160
   93MOL0     C12198   1.427   6.688  10.359  0.9519 -0.3424  0.4165
   93MOL0     C12199   1.555   6.632  10.356 -0.1230  1.1005  0.3351
   93MOL0     C12200   1.575   6.519  10.279 -0.3092 -0.5360 -0.0254
   93MOL0     C12201   1.487   6.462  10.188  0.1628  0.4115 -0.8116
   93MOL0     O12202   1.536   6.361  10.110 -0.5871  0.0882  0.0722
   93MOL0     C12203   1.451   6.318  10.000 -0.4646  0.5037 -0.1039
   93MOL0     C12204   1.545   6.255   9.897  0.2193  0.9508 -0.5579
   93MOL0     C12205   1.598   6.113   9.930  0.6725 -0.0842 -0.8744
   93MOL0     C12206   1.693   6.057   9.827  0.5025  0.3027  0.0232
   93MOL0     C12207   1.626   6.012   9.699 -0.2811  0.9803 -0.7266
   93MOL0     C12208   1.565   5.971   9.592 -0.3015 -0.1773 -0.9985
   93MOL0     C12209   1.364   6.528  10.179 -0.4610  0.5108  0.8323
   93MOL0     C12210   1.337   6.636  10.266  1.0532  0.2952  0.8183
   93MOL0     H12211   1.283   7.079  10.354 -0.0091 -0.1439  0.2827
   93MOL0     H12212   1.222   7.290  10.494 -3.1629 -0.6313 -4.1591
   93MOL0     H12213   0.970   7.426  10.645 -1.1018 -0.1727  1.0294
   93MOL0     H12214   1.156   7.442  10.639 -0.3068 -0.5621 -0.1854
   93MOL0     H12215   1.144   7.473  10.883  0.5427  3.0145  0.2874
   93MOL0     H12216   0.965   7.449  10.863 -0.5624  0.8011 -0.3796
   93MOL0     H12217   0.951   7.654  10.726  0.7587  0.5598 -1.2459
   93MOL0     H12218   1.124   7.684  10.770  2.1617 -0.3585  1.5711
   93MOL0     H12219   0.888   7.740  10.907 -0.3038 -1.4717 -4.0300
   93MOL0     H12220   0.983   7.623  11.000  0.9354  0.0944  0.4905
   93MOL0     H12221   1.021   7.859  11.054  1.5409  0.0131  2.0207
   93MOL0     H12222   1.094   7.901  10.899 -1.2479  0.6152  1.0732
   93MOL0     H12223   1.272   7.708  10.961 -0.3963 -1.8645  0.5777
   93MOL0     H12224   1.180   7.668  11.099  1.5848  0.1897  0.8316
   93MOL0     H12225   1.208   7.903  11.189  2.9864 -0.3847  1.5417
   93MOL0     H12226   1.356   7.817  11.171  0.4599  0.9158  1.8376
   93MOL0     H12227   1.258   8.036  10.975  1.3987  0.8968 -0.4397
   93MOL0     H12228   1.399   7.928  10.944 -0.2158 -4.1061  3.4533
   93MOL0     H12229   1.297   8.230  11.148 -1.0899 -0.1459  4.5044
   93MOL0     H12230   1.628   8.358  11.292  1.3502 -0.2882  0.2299
   93MOL0     H12231   1.460   8.409  11.297  1.2828  0.7329  0.4444
   93MOL0     H12232   1.536   8.591  11.182  1.0489 -0.2493  1.5025
   93MOL0     H12233   1.506   8.492  11.038  1.8153  1.6842 -1.1694
   93MOL0     H12234   1.734   8.446  11.018  1.8422  0.5977  0.5664
   93MOL0     H12235   1.682   8.619  11.042 -2.5295 -0.1071  0.1466
   93MOL0     H12236   1.823   8.420  11.230 -2.4324  0.0465  1.6569
   93MOL0     H12237   1.753   8.576  11.295  0.1694  1.5424  0.0593
   93MOL0     H12238   2.007   8.391  11.334 -1.0109 -0.5663 -0.1025
   93MOL0     H12239   2.234   8.400  11.439 -2.2274 -0.9171 -0.1108
   93MOL0     H12240   2.562   8.705  11.609  2.0046 -0.7734  3.4752
   93MOL0     H12241   2.763   8.728  11.730 -1.0022  1.7187  0.0951
   93MOL0     H12242   3.138   8.794  11.518 -0.9687  1.1801  1.7533
   93MOL0     H12243   3.161   8.615  11.500  2.3508  0.4664  0.8770
   93MOL0     H12244   3.259   8.627  11.740 -0.6045  1.5146  1.7107
   93MOL0     H12245   3.266   8.804  11.718  0.6527  0.3563 -3.0345
   93MOL0     H12246   3.394   8.794  11.529 -0.6174  1.8996  1.5534
   93MOL0     H12247   3.393   8.620  11.502 -0.4102  0.7848 -0.6897
   93MOL0     H12248   3.495   8.800  11.714 -2.3868  0.3352 -0.0572
   93MOL0     H12249   3.526   8.631  11.737  1.0671 -0.0722 -0.7569
   93MOL0     H12250   3.642   8.803  11.510  0.7005  0.9808  0.4428
   93MOL0     H12251   3.652   8.627  11.512  3.9812  0.2427 -0.2441
   93MOL0     H12252   3.773   8.618  11.709  0.5722 -0.5163 -0.6952
   93MOL0     H12253   3.766   8.791  11.740  1.5277  2.3199 -1.7755
   93MOL0     H12254   3.904   8.662  11.510 -0.8350  0.2405 -1.0578
   93MOL0     H12255   3.905   8.839  11.543  2.2185 -0.6619 -1.7309
   93MOL0     H12256   4.015   8.802  11.770  1.1940  0.1085 -0.1983
   93MOL0     H12257   4.107   8.770  11.640 -0.4082 -0.5140 -0.0780
   93MOL0     H12258   2.993   8.671  11.368  0.0281 -0.4862 -0.4998
   93MOL0     H12259   2.776   8.655  11.240 -2.0893  0.2812  0.2345
   93MOL0     H12260   2.335   8.708  11.166 -0.6192 -0.7860 -1.1469
   93MOL0     H12261   2.115   8.731  11.095 -0.3105  0.2123 -0.2212
   93MOL0     H12262   1.079   7.036  10.805  1.2231 -1.1548  1.6407
   93MOL0     H12263   1.183   6.838  10.675  0.9878  1.1557  2.8384
   93MOL0     H12264   1.623   6.661  10.435 -1.5571 -0.6995  2.3721
   93MOL0     H12265   1.674   6.479  10.297  0.4983  2.1352  2.2967
   93MOL0     H12266   1.412   6.411   9.958  2.7595  2.9919  1.8480
   93MOL0     H12267   1.373   6.249  10.031 -1.3373  1.5854  0.1903
   93MOL0     H12268   1.481   6.242   9.809  1.3078 -2.2377 -1.0010
   93MOL0     H12269   1.631   6.314   9.864 -1.6788  2.1178 -3.8931
   93MOL0     H12270   1.516   6.040   9.933 -0.0137  0.5813 -2.3676
   93MOL0     H12271   1.659   6.117  10.021  1.8727 -1.8582 -1.5442
   93MOL0     H12272   1.764   6.139   9.811  1.7843 -0.7862 -0.0217
   93MOL0     H12273   1.741   5.967   9.867  2.3460 -0.3720 -3.2556
   93MOL0     H12274   1.496   5.940   9.517 -2.0964 -0.3500  0.6569
   93MOL0     H12275   1.296   6.496  10.100 -0.1499  3.0097 -0.5719
   93MOL0     H12276   1.239   6.682  10.263  1.3947  1.0469  1.0730
   94MOL0     O12277   7.769   2.264   7.343  0.0421 -0.0236  0.0053
   94MOL0     C12278   7.825   2.317   7.445  0.1213 -0.4792  0.0507
   94MOL0     O12279   7.758   2.367   7.559  0.2769 -0.2794 -0.6129
   94MOL0     C12280   7.621   2.379   7.564  1.0986  0.6407  0.4855
   94MOL0     C12281   7.546   2.422   7.446 -0.3652  0.0199  0.7267
   94MOL0     C12282   7.405   2.437   7.451 -0.1461  1.1577 -0.6436
   94MOL0     C12283   7.346   2.435   7.578 -0.4174 -0.1561 -0.1715
   94MOL0     O12284   7.211   2.460   7.605  0.5430 -0.6088  0.1728
   94MOL0     C12285   7.127   2.493   7.495  0.4988 -0.3395 -0.4700
   94MOL0     C12286   6.990   2.545   7.553 -0.1176  0.0617  0.0172
   94MOL0     C12287   6.894   2.591   7.435 -0.2279 -0.3516 -1.1424
   94MOL0     C12288   6.791   2.691   7.488 -0.4610  0.5275 -0.2128
   94MOL0     C12289   6.732   2.760   7.364 -0.6809 -0.1899 -0.7792
   94MOL0     C12290   6.612   2.692   7.310  0.4831 -0.3864  0.3147
   94MOL0     C12291   6.562   2.785   7.199  0.2132  0.2151  0.2993
   94MOL0     C12292   6.455   2.732   7.103  0.3222  0.6902  0.6008
   94MOL0     N12293   6.319   2.695   7.147  0.7871  0.0115  0.2830
   94MOL0     C12294   6.279   2.568   7.201  0.3064  0.3290  0.0287
   94MOL0     C12295   6.156   2.595   7.256  0.9139 -0.9024 -0.8606
   94MOL0     C12296   6.067   2.495   7.317 -0.1684  0.1472  0.1652
   94MOL0     C12297   6.117   2.460   7.459  0.0245  0.4132  0.9643
   94MOL0     C12298   6.013   2.364   7.518 -0.2382  0.7203 -0.1433
   94MOL0     C12299   5.868   2.412   7.536  0.2607 -0.4478  0.0840
   94MOL0     O12300   5.788   2.395   7.414 -0.4592 -0.0739 -0.1168
   94MOL0     C12301   5.709   2.285   7.388 -0.0873 -0.3649  0.5520
   94MOL0     C12302   5.604   2.304   7.303  0.4549  0.7076 -0.4553
   94MOL0     C12303   5.513   2.205   7.270 -0.3195  0.1774 -0.2464
   94MOL0     C12304   5.533   2.079   7.313  0.9303 -0.0436  1.2263
   94MOL0     C12305   5.459   1.971   7.251  1.0999 -0.2212 -0.8701
   94MOL0     O12306   5.330   2.006   7.214 -0.6916 -0.5728 -0.0861
   94MOL0     C12307   5.223   1.915   7.190  0.9731 -0.4790 -0.8459
   94MOL0     C12308   5.230   1.774   7.206  0.1243 -0.6546 -0.0925
   94MOL0     C12309   5.112   1.698   7.182 -0.1197  0.9256 -0.9222
   94MOL0     C12310   4.989   1.758   7.146  0.2921 -1.1819 -1.2461
   94MOL0     O12311   4.864   1.705   7.129  0.5575  0.8071  0.2336
   94MOL0     C12312   4.843   1.562   7.098  0.5435  0.1184  0.8369
   94MOL0     C12313   4.903   1.526   6.958  0.4577  0.6827 -0.4915
   94MOL0     C12314   4.840   1.409   6.896  0.1934 -0.3413 -0.5235
   94MOL0     C12315   4.933   1.347   6.797 -0.0484 -0.3502 -0.0051
   94MOL0     C12316   4.854   1.285   6.676 -0.1323  0.3396  0.2782
   94MOL0     C12317   4.957   1.223   6.577  0.5851  0.3259  0.2839
   94MOL0     C12318   4.874   1.170   6.453 -0.3539 -0.6095  0.5660
   94MOL0     C12319   4.959   1.091   6.354 -0.9525 -0.8668  0.4012
   94MOL0    Cl12320   5.088   1.199   6.302 -0.3578  0.7256  0.2488
   94MOL0     C12321   4.987   1.899   7.130  0.3535 -0.0725 -0.5307
   94MOL0     C12322   5.099   1.974   7.143 -0.7568  0.0551  0.0003
   94MOL0     O12323   5.509   1.860   7.249 -0.1127  0.4338 -0.2668
   94MOL0     C12324   5.623   2.057   7.413 -0.1242 -0.5917  0.6056
   94MOL0     C12325   5.712   2.162   7.449  0.4910 -0.0734 -0.1037
   94MOL0     N12326   6.123   2.733   7.236 -0.2512 -0.0182 -0.6729
   94MOL0     N12327   6.218   2.781   7.176  0.6906 -0.6418  0.3640
   94MOL0     C12328   7.422   2.392   7.695  0.2233 -0.1308 -0.0608
   94MOL0     C12329   7.553   2.347   7.680  0.5583 -0.6569 -0.7509
   94MOL0     C12330   7.969   2.347   7.435 -0.1472 -0.2433 -0.8494
   94MOL0     C12331   8.057   2.282   7.353  1.1978  0.5087  0.0916
   94MOL0     C12332   8.193   2.317   7.352  0.0934  0.1080 -0.6713
   94MOL0     C12333   8.252   2.408   7.441  0.9835  0.5320 -1.1062
   94MOL0     O12334   8.378   2.458   7.431  0.9846  0.3500 -0.6252
   94MOL0     C12335   8.412   2.505   7.304 -0.1524 -0.2891  0.2324
   94MOL0     C12336   8.344   2.633   7.263 -1.6077  0.6334  0.1684
   94MOL0     C12337   8.379   2.666   7.116  0.1689  0.6430 -0.2393
   94MOL0     C12338   8.507   2.757   7.103 -0.3156  0.8201 -0.3645
   94MOL0     C12339   8.558   2.762   6.960 -0.1792  0.5680 -0.8019
   94MOL0     C12340   8.616   2.765   6.853  0.1007 -0.0136 -0.1864
   94MOL0     C12341   8.163   2.465   7.538 -0.6687  0.3665  0.2936
   94MOL0     C12342   8.024   2.438   7.530 -0.2704  0.3592 -0.1556
   94MOL0     H12343   7.586   2.442   7.347 -3.2161 -0.9674 -0.7213
   94MOL0     H12344   7.342   2.447   7.363 -2.4928 -0.5520  0.7028
   94MOL0     H12345   7.116   2.397   7.443 -0.6730 -1.3664  1.5301
   94MOL0     H12346   7.173   2.569   7.432 -0.3314 -0.8818 -1.7719
   94MOL0     H12347   7.017   2.622   7.627 -0.3903 -0.6363  0.8585
   94MOL0     H12348   6.939   2.470   7.613 -1.1833  1.4818  0.9557
   94MOL0     H12349   6.827   2.511   7.404 -1.6988  0.7047 -0.7595
   94MOL0     H12350   6.945   2.629   7.346  0.9255  1.2034  0.1254
   94MOL0     H12351   6.720   2.638   7.553 -0.6048  0.4830 -0.4040
   94MOL0     H12352   6.853   2.760   7.546 -0.0277 -2.0557  2.6702
   94MOL0     H12353   6.814   2.784   7.295  0.3251 -0.8504  0.1616
   94MOL0     H12354   6.696   2.854   7.407 -1.8340 -1.3972  1.0125
   94MOL0     H12355   6.544   2.682   7.396  1.4362  0.3813  1.1879
   94MOL0     H12356   6.632   2.593   7.267 -1.2220 -0.0257 -1.4194
   94MOL0     H12357   6.537   2.886   7.236 -2.6330 -0.7556  1.2934
   94MOL0     H12358   6.653   2.797   7.139  0.6754 -1.1235  0.6972
   94MOL0     H12359   6.491   2.646   7.046  2.0529  1.0528  1.0596
   94MOL0     H12360   6.450   2.802   7.019  1.1601 -3.1574 -2.9930
   94MOL0     H12361   6.342   2.482   7.221  0.8145  0.7433  0.2236
   94MOL0     H12362   6.061   2.408   7.251  1.0466  0.6603 -0.6522
   94MOL0     H12363   5.966   2.539   7.324 -0.4840  0.1167 -2.8183
   94MOL0     H12364   6.121   2.547   7.526  0.2947 -1.0391  2.9089
   94MOL0     H12365   6.216   2.416   7.468  0.1935  0.2057 -1.3628
   94MOL0     H12366   6.019   2.274   7.455  1.7717  1.2563 -0.8073
   94MOL0     H12367   6.061   2.343   7.614  1.4150  3.4542 -0.2625
   94MOL0     H12368   5.868   2.510   7.585  0.6500 -0.9401  1.0941
   94MOL0     H12369   5.816   2.350   7.608 -2.5731  2.6478  0.9371
   94MOL0     H12370   5.583   2.409   7.290 -3.8948  1.0734  5.5713
   94MOL0     H12371   5.426   2.243   7.219 -0.8144  0.7564  0.9867
   94MOL0     H12372   5.320   1.724   7.240  0.1022 -1.0778 -0.6435
   94MOL0     H12373   5.114   1.591   7.200 -0.4282  1.2190  1.0988
   94MOL0     H12374   4.735   1.544   7.095  0.5175  0.1194  1.6485
   94MOL0     H12375   4.889   1.500   7.175  0.2125 -1.0928  0.0892
   94MOL0     H12376   5.010   1.512   6.977  0.2355  1.7421  1.9236
   94MOL0     H12377   4.880   1.609   6.891 -1.3630  0.4615 -0.1889
   94MOL0     H12378   4.750   1.446   6.846 -1.2510  0.9744  2.7753
   94MOL0     H12379   4.807   1.336   6.970 -1.0478  2.1053  1.4909
   94MOL0     H12380   5.007   1.419   6.761 -2.5268  1.6750 -1.4440
   94MOL0     H12381   4.985   1.261   6.838 -1.0134 -2.0786 -2.1961
   94MOL0     H12382   4.796   1.363   6.625 -0.2263  0.6244  0.8223
   94MOL0     H12383   4.796   1.202   6.718  3.3754 -1.6354  1.6320
   94MOL0     H12384   5.005   1.133   6.615 -1.8610 -0.5675  1.4710
   94MOL0     H12385   5.042   1.288   6.553  1.0896  0.1571  1.5331
   94MOL0     H12386   4.791   1.110   6.491  1.0855 -3.2969 -0.2628
   94MOL0     H12387   4.840   1.255   6.393  0.2652  1.0947  2.5241
   94MOL0     H12388   4.912   1.070   6.258  1.3785  1.0709 -1.3055
   94MOL0     H12389   5.003   1.006   6.408  1.1140  1.1473  2.1104
   94MOL0     H12390   4.893   1.937   7.092  0.2882 -2.1890 -2.7522
   94MOL0     H12391   5.095   2.080   7.120 -2.5947 -0.0128 -0.0836
   94MOL0     H12392   5.635   1.960   7.460  5.4380 -1.8094 -2.4220
   94MOL0     H12393   5.776   2.148   7.535  0.8423 -0.4707 -0.4283
   94MOL0     H12394   7.369   2.391   7.789  1.7943 -2.7062  0.8830
   94MOL0     H12395   7.599   2.305   7.768 -3.1488 -5.6805 -0.7631
   94MOL0     H12396   8.015   2.204   7.291  0.2015  2.5200 -1.9340
   94MOL0     H12397   8.247   2.255   7.282 -2.1969 -0.3060 -2.2011
   94MOL0     H12398   8.400   2.422   7.235 -0.0368  1.7113 -2.3596
   94MOL0     H12399   8.517   2.536   7.311  1.2267 -3.9930 -1.6543
   94MOL0     H12400   8.236   2.615   7.268 -1.3679 -0.5443  2.2793
   94MOL0     H12401   8.371   2.719   7.326  2.8356 -1.1243  1.0519
   94MOL0     H12402   8.299   2.724   7.069 -0.1316  1.1776  0.8970
   94MOL0     H12403   8.386   2.569   7.064  2.3151  0.4673  0.3095
   94MOL0     H12404   8.486   2.855   7.147 -2.4970  0.3426 -0.2064
   94MOL0     H12405   8.588   2.720   7.166  0.8584  4.3151  0.4204
   94MOL0     H12406   8.669   2.772   6.760 -2.2455 -0.7749 -1.6803
   94MOL0     H12407   8.208   2.537   7.606  4.3984 -1.3273 -0.8003
   94MOL0     H12408   7.966   2.506   7.592  1.5712  0.4604  1.5402
   95MOL0     O12409   7.382   1.940   2.530  0.7778 -0.2736 -0.0559
   95MOL0     C12410   7.304   1.861   2.476  0.6430 -0.3822  0.1667
   95MOL0     O12411   7.331   1.731   2.450 -0.3495  0.0870 -0.0580
   95MOL0     C12412   7.421   1.666   2.533 -0.3201  0.1586 -0.5836
   95MOL0     C12413   7.554   1.683   2.529  0.4097 -0.3028 -1.1196
   95MOL0     C12414   7.638   1.608   2.609 -0.3668  0.5037 -0.7220
   95MOL0     C12415   7.585   1.512   2.697 -0.0428 -0.5127 -0.0054
   95MOL0     O12416   7.670   1.431   2.768 -0.3529 -0.6031  0.1669
   95MOL0     C12417   7.735   1.505   2.874  0.8042  0.0191 -0.2562
   95MOL0     C12418   7.809   1.414   2.972 -0.7181  0.1421 -0.3034
   95MOL0     C12419   7.936   1.349   2.900  0.5090  0.4670 -0.0497
   95MOL0     C12420   8.033   1.263   2.987 -0.2384  0.7796 -0.4153
   95MOL0     C12421   8.143   1.191   2.897  0.5678  0.2338 -0.3135
   95MOL0     C12422   8.238   1.113   2.969  0.3048  0.1469 -1.1647
   95MOL0     C12423   8.182   1.027   3.090 -0.7606  0.6120  0.4172
   95MOL0     C12424   8.286   0.918   3.131  0.4987  1.4234  0.0630
   95MOL0     N12425   8.221   0.785   3.129 -0.3439  0.1390 -0.3455
   95MOL0     C12426   8.183   0.708   3.024 -1.1754  0.0756  0.4869
   95MOL0     C12427   8.097   0.619   3.086 -0.5496 -0.3345  0.0321
   95MOL0     C12428   7.991   0.530   3.042  0.2308  0.9160  0.0627
   95MOL0     C12429   7.946   0.411   3.134 -0.0677  0.8600  0.0732
   95MOL0     C12430   8.052   0.295   3.145  0.0333 -0.0708 -0.3695
   95MOL0     C12431   8.010   0.182   3.251 -0.0316  0.6612  1.0723
   95MOL0     O12432   7.886   0.134   3.190  0.0049  0.3287  0.3105
   95MOL0     C12433   7.813   0.047   3.261  0.5246  0.2549  0.9052
   95MOL0     C12434   7.856  -0.032   3.367 -0.3581  0.1155  1.2202
   95MOL0     C12435   7.768  -0.123   3.422  0.2536 -0.5608  0.3390
   95MOL0     C12436   7.636  -0.132   3.378 -0.0962  0.5362  0.2708
   95MOL0     C12437   7.554  -0.239   3.438  0.5375 -0.3120  0.0449
   95MOL0     O12438   7.622  -0.317   3.529  0.5428  0.6120 -0.0013
   95MOL0     C12439   7.572  -0.427   3.597 -0.3519  0.0274  0.3518
   95MOL0     C12440   7.456  -0.498   3.554  0.4219  0.1039 -0.3314
   95MOL0     C12441   7.406  -0.596   3.636 -0.2778 -0.1888  0.6172
   95MOL0     C12442   7.463  -0.635   3.754  0.0127  0.1950 -0.9844
   95MOL0     O12443   7.423  -0.739   3.836 -0.1759  1.0395  0.0585
   95MOL0     C12444   7.301  -0.805   3.814 -0.2300  0.0450  1.3607
   95MOL0     C12445   7.300  -0.918   3.909 -0.6066  1.0912 -0.9286
   95MOL0     C12446   7.170  -1.004   3.894  0.2865 -0.6463  0.4662
   95MOL0     C12447   7.116  -1.081   4.017 -0.1362 -0.4619  0.4598
   95MOL0     C12448   7.217  -1.164   4.085  0.5054  0.4081 -0.6159
   95MOL0     C12449   7.141  -1.253   4.179 -0.4912 -0.0883 -0.7855
   95MOL0     C12450   7.232  -1.316   4.280  0.2875  0.0583 -0.9715
   95MOL0     C12451   7.340  -1.411   4.229  0.4370 -0.1430  0.3996
   95MOL0    Cl12452   7.295  -1.545   4.124 -0.3846 -0.1315 -0.3486
   95MOL0     C12453   7.578  -0.575   3.792  0.2503  0.2173  1.3962
   95MOL0     C12454   7.635  -0.476   3.714  0.1005  0.2475  0.3096
   95MOL0     O12455   7.438  -0.244   3.415  0.1628 -0.3589  0.2437
   95MOL0     C12456   7.594  -0.039   3.276  0.6732  0.4147 -0.1280
   95MOL0     C12457   7.681   0.053   3.226  0.3633  0.9820  1.1983
   95MOL0     N12458   8.118   0.624   3.220 -0.9357 -0.6336  0.2911
   95MOL0     N12459   8.199   0.719   3.251 -0.0093  0.1211  0.3264
   95MOL0     C12460   7.449   1.491   2.700 -0.1290  0.6790 -0.0558
   95MOL0     C12461   7.364   1.565   2.617 -0.2805 -0.0523 -0.2822
   95MOL0     C12462   7.178   1.917   2.441  0.2477  0.9050  0.1239
   95MOL0     C12463   7.156   2.055   2.434 -0.6726  0.1316  0.4463
   95MOL0     C12464   7.037   2.107   2.394  0.1372  0.2661 -0.7145
   95MOL0     C12465   6.919   2.027   2.390 -0.2594 -0.9363 -0.3412
   95MOL0     O12466   6.789   2.074   2.369  0.4153  0.1365  0.4580
   95MOL0     C12467   6.758   2.205   2.322 -0.3178  0.0936 -0.4563
   95MOL0     C12468   6.617   2.244   2.352 -0.2100 -0.1992 -0.2536
   95MOL0     C12469   6.500   2.162   2.289 -0.4682  0.0431 -0.7990
   95MOL0     C12470   6.476   2.039   2.376  0.7553  0.0596 -0.5113
   95MOL0     C12471   6.380   2.070   2.484 -0.5782 -0.7640 -0.1818
   95MOL0     C12472   6.308   2.111   2.574 -0.2542  0.0174  0.9767
   95MOL0     C12473   6.933   1.890   2.412 -0.2828  0.7118 -0.5709
   95MOL0     C12474   7.060   1.836   2.432 -0.7098  0.1236  1.0455
   95MOL0     H12475   7.593   1.765   2.469  5.8074 -0.2015  1.8919
   95MOL0     H12476   7.747   1.617   2.609 -0.3544  0.7011  0.8301
   95MOL0     H12477   7.658   1.560   2.929 -3.0700 -1.6939 -3.4538
   95MOL0     H12478   7.792   1.584   2.823  0.3154  0.8458  0.4499
   95MOL0     H12479   7.740   1.343   3.019 -1.7723  0.9239 -0.6267
   95MOL0     H12480   7.845   1.474   3.056 -0.3253 -1.0139  0.3776
   95MOL0     H12481   7.993   1.440   2.881 -0.1678  0.7836 -0.5711
   95MOL0     H12482   7.915   1.304   2.802 -1.1014  2.8601 -0.8742
   95MOL0     H12483   8.081   1.336   3.053 -0.4865  0.2022  0.4112
   95MOL0     H12484   7.977   1.186   3.041 -1.6359  2.5591  0.8022
   95MOL0     H12485   8.197   1.266   2.838  3.4526 -1.8342 -0.5312
   95MOL0     H12486   8.097   1.116   2.833 -0.4574 -0.2057  0.9026
   95MOL0     H12487   8.323   1.177   2.994  1.0811  0.8983 -5.0605
   95MOL0     H12488   8.291   1.048   2.899  1.9887 -1.3145  1.2786
   95MOL0     H12489   8.173   1.102   3.168  1.0015 -2.6129  4.0625
   95MOL0     H12490   8.079   1.002   3.062 -1.1632  2.8343 -0.2789
   95MOL0     H12491   8.330   0.935   3.229  0.9650  2.0381 -0.2462
   95MOL0     H12492   8.368   0.918   3.059  1.5287  0.3963  1.1857
   95MOL0     H12493   8.200   0.736   2.920 -0.1967  1.3186  0.9394
   95MOL0     H12494   8.019   0.484   2.947  0.4906 -0.7927  0.9239
   95MOL0     H12495   7.893   0.576   3.027 -0.7399 -1.1525 -0.3486
   95MOL0     H12496   7.857   0.358   3.098 -0.5149  2.6977 -1.7125
   95MOL0     H12497   7.918   0.447   3.233 -1.5560 -0.8036  0.3015
   95MOL0     H12498   8.060   0.248   3.047  3.1119 -0.9371  0.1997
   95MOL0     H12499   8.145   0.343   3.176  0.3784 -0.3398 -0.9627
   95MOL0     H12500   7.997   0.227   3.349  1.9812  0.6179  1.3979
   95MOL0     H12501   8.083   0.100   3.248 -1.0452 -0.3012 -2.2681
   95MOL0     H12502   7.961  -0.027   3.395 -0.0954  2.5762  0.0277
   95MOL0     H12503   7.811  -0.196   3.490 -0.6045 -2.6509 -1.2563
   95MOL0     H12504   7.392  -0.492   3.466 -3.4351 -4.4132  1.7463
   95MOL0     H12505   7.318  -0.653   3.607 -0.0855 -1.2354  1.9437
   95MOL0     H12506   7.293  -0.859   3.719  2.0728 -0.9884  1.6863
   95MOL0     H12507   7.224  -0.729   3.832 -1.8821 -0.8339 -1.2839
   95MOL0     H12508   7.310  -0.879   4.011 -1.3499  0.0751 -0.4519
   95MOL0     H12509   7.383  -0.986   3.889  0.1154  0.7689  2.4955
   95MOL0     H12510   7.202  -1.076   3.818 -1.2687  0.4369 -1.3204
   95MOL0     H12511   7.091  -0.936   3.860  0.0920 -1.3838 -0.6200
   95MOL0     H12512   7.080  -1.013   4.094 -0.2911 -1.7906  1.5862
   95MOL0     H12513   7.038  -1.150   3.985  0.7694 -1.9039  1.2663
   95MOL0     H12514   7.288  -1.105   4.144  0.3948 -0.4644  0.4177
   95MOL0     H12515   7.278  -1.221   4.014  1.3868 -2.0555  1.9379
   95MOL0     H12516   7.097  -1.339   4.128 -0.6740  0.0804 -0.9117
   95MOL0     H12517   7.072  -1.186   4.230 -0.6553 -0.8289 -0.0220
   95MOL0     H12518   7.287  -1.234   4.326 -0.4084  0.0012 -0.0027
   95MOL0     H12519   7.171  -1.370   4.354 -0.3680  0.4026 -1.2538
   95MOL0     H12520   7.392  -1.438   4.321  1.3177  0.9721  0.2501
   95MOL0     H12521   7.415  -1.351   4.177 -0.6845  0.9144 -0.0342
   95MOL0     H12522   7.614  -0.610   3.888 -0.2586  3.5850  2.9692
   95MOL0     H12523   7.717  -0.419   3.755  1.0637  0.6274 -1.9529
   95MOL0     H12524   7.497  -0.048   3.228 -1.0765 -1.2454  3.3675
   95MOL0     H12525   7.655   0.124   3.149  4.8985 -0.9389 -2.5724
   95MOL0     H12526   7.400   1.415   2.760 -1.4209 -1.1406 -3.1099
   95MOL0     H12527   7.261   1.532   2.613  0.0710 -1.0811 -2.2520
   95MOL0     H12528   7.237   2.128   2.435  1.5919 -2.2294 -0.1896
   95MOL0     H12529   7.021   2.215   2.387  0.5243  0.3748  0.0321
   95MOL0     H12530   6.785   2.219   2.217  0.9110  2.0306  0.0537
   95MOL0     H12531   6.821   2.272   2.382 -0.0148  1.6407 -2.3876
   95MOL0     H12532   6.605   2.256   2.461  0.2711 -0.4675 -0.1679
   95MOL0     H12533   6.592   2.341   2.308 -2.5751 -0.3321  0.6394
   95MOL0     H12534   6.523   2.134   2.185 -1.6802 -2.3083 -0.4760
   95MOL0     H12535   6.409   2.222   2.287 -1.7268 -1.8352 -2.0088
   95MOL0     H12536   6.433   1.965   2.308  1.7351 -0.5780 -0.4602
   95MOL0     H12537   6.556   1.982   2.425 -0.8266 -2.1337 -0.3134
   95MOL0     H12538   6.238   2.147   2.647  0.7859  0.5489  1.7377
   95MOL0     H12539   6.843   1.831   2.429  0.2057 -0.1057 -0.7761
   95MOL0     H12540   7.072   1.730   2.447 -1.1158 -0.1054 -0.2021
   96MOL0     O12541  10.496   3.140   6.508  0.7170  0.9362 -0.4497
   96MOL0     C12542  10.608   3.116   6.470 -0.1397  0.2479  0.1248
   96MOL0     O12543  10.646   3.134   6.339 -0.3424 -0.0688  0.8646
   96MOL0     C12544  10.570   3.216   6.264  0.9231 -0.4950  0.7990
   96MOL0     C12545  10.517   3.343   6.297  0.4028  0.1766 -0.0337
   96MOL0     C12546  10.419   3.409   6.211  0.5993  0.0212 -0.9759
   96MOL0     C12547  10.375   3.348   6.092  0.4296 -0.5662  1.1760
   96MOL0     O12548  10.276   3.395   6.011  0.8713 -0.0462  0.3686
   96MOL0     C12549  10.221   3.527   6.026  0.3456 -0.3350 -0.1529
   96MOL0     C12550  10.328   3.648   6.015  0.3597  0.1972 -0.3454
   96MOL0     C12551  10.276   3.791   5.976 -1.3298 -0.2003  0.4273
   96MOL0     C12552  10.271   3.815   5.821  0.8385  0.9219  0.3964
   96MOL0     C12553  10.380   3.906   5.763  0.5873  0.0333  0.2235
   96MOL0     C12554  10.311   3.970   5.642  0.2290  0.0022 -0.0494
   96MOL0     C12555  10.419   4.018   5.545 -0.4863  0.7759  0.2175
   96MOL0     C12556  10.516   4.132   5.591 -0.7659  0.0030  0.1502
   96MOL0     N12557  10.612   4.167   5.490 -0.3579  0.1645  0.6353
   96MOL0     C12558  10.723   4.093   5.444  0.5708  0.1755  0.2403
   96MOL0     C12559  10.801   4.163   5.357  0.6749  0.0303 -0.4268
   96MOL0     C12560  10.923   4.111   5.282  0.9668 -0.9924  0.0417
   96MOL0     C12561  10.930   4.159   5.125 -0.4388  0.1193 -0.2351
   96MOL0     C12562  11.075   4.147   5.073  0.9072 -0.3876  0.1710
   96MOL0     C12563  11.165   4.264   5.107 -0.0259 -1.0190  0.1051
   96MOL0     O12564  11.293   4.246   5.070 -0.2168  0.5173 -0.1503
   96MOL0     C12565  11.388   4.172   5.148  0.6524  0.2493  0.4558
   96MOL0     C12566  11.525   4.188   5.122 -0.2158 -0.3226 -0.0945
   96MOL0     C12567  11.624   4.107   5.170  0.3692 -0.4419 -0.2789
   96MOL0     C12568  11.591   4.002   5.253 -0.2471  1.2545  0.5040
   96MOL0     C12569  11.695   3.915   5.314 -0.1855  0.5800 -0.2478
   96MOL0     O12570  11.827   3.959   5.294 -0.2993 -0.6856  0.0720
   96MOL0     C12571  11.932   3.871   5.317 -0.8651 -0.4776 -0.7566
   96MOL0     C12572  11.954   3.783   5.421 -0.2482  1.0544 -0.0245
   96MOL0     C12573  12.071   3.706   5.429 -0.1423  0.1334  0.2349
   96MOL0     C12574  12.164   3.702   5.325  0.6389 -1.8530  0.1123
   96MOL0     O12575  12.269   3.610   5.315  0.0595  0.4844  0.9038
   96MOL0     C12576  12.282   3.504   5.415  0.4316 -0.4973 -0.4015
   96MOL0     C12577  12.188   3.392   5.404  0.1129 -0.0876 -0.3734
   96MOL0     C12578  12.201   3.325   5.271  0.2562  0.2708  0.4559
   96MOL0     C12579  12.164   3.173   5.279  0.1214 -0.7519  0.0488
   96MOL0     C12580  12.175   3.107   5.129  0.3526 -0.7724 -0.0180
   96MOL0     C12581  12.064   3.169   5.033 -0.9749  0.9736  0.5411
   96MOL0     C12582  12.077   3.092   4.898 -0.7698 -0.4739 -0.3824
   96MOL0     C12583  11.949   3.079   4.817  0.7321  0.7310  0.5659
   96MOL0    Cl12584  11.850   2.969   4.916  0.1232 -0.1156 -0.4377
   96MOL0     C12585  12.142   3.790   5.222 -0.1756 -0.7189  0.2469
   96MOL0     C12586  12.032   3.878   5.220  0.0906  0.3019 -0.8244
   96MOL0     O12587  11.657   3.806   5.358 -0.2531  0.6270 -0.2109
   96MOL0     C12588  11.451   3.985   5.287  0.6073  0.5449 -0.7731
   96MOL0     C12589  11.355   4.072   5.240 -0.4429 -0.5527 -0.3287
   96MOL0     N12590  10.717   4.280   5.335 -0.7963 -0.2131 -0.7765
   96MOL0     N12591  10.614   4.284   5.411 -0.0330 -0.2196  0.6866
   96MOL0     C12592  10.438   3.233   6.056  0.9324  0.0853  0.3596
   96MOL0     C12593  10.524   3.170   6.138 -0.6512 -0.5414  0.6376
   96MOL0     C12594  10.697   3.046   6.559 -0.2059  0.4832 -0.1811
   96MOL0     C12595  10.829   3.018   6.521 -0.7386 -0.5528 -0.2795
   96MOL0     C12596  10.920   2.941   6.606  0.8032 -0.5478  0.1986
   96MOL0     C12597  10.868   2.898   6.723 -0.1045  0.1300 -0.4235
   96MOL0     O12598  10.949   2.829   6.803  0.4287  0.4282 -0.5630
   96MOL0     C12599  10.889   2.745   6.914  0.5939  0.1656 -0.9500
   96MOL0     C12600  10.995   2.640   6.978  0.8239  0.4449  0.3916
   96MOL0     C12601  11.049   2.691   7.116 -1.5285  1.0734 -0.0635
   96MOL0     C12602  11.154   2.796   7.088  0.3517  0.2408 -0.2399
   96MOL0     C12603  11.203   2.842   7.216  0.5882  0.3358 -0.1062
   96MOL0     C12604  11.250   2.847   7.321  0.3272  0.4067  0.1590
   96MOL0     C12605  10.731   2.925   6.757 -0.5789 -0.7088 -0.3527
   96MOL0     C12606  10.656   2.990   6.672  0.5900 -0.0099  0.0774
   96MOL0     H12607  10.539   3.399   6.387 -1.2611  1.3461 -0.2838
   96MOL0     H12608  10.366   3.493   6.255 -1.0058 -0.5820 -1.6426
   96MOL0     H12609  10.166   3.533   6.120  1.0323  2.2114  0.1683
   96MOL0     H12610  10.143   3.544   5.951 -0.2295 -0.3417  0.4425
   96MOL0     H12611  10.398   3.621   5.935 -1.1303 -0.6571 -1.4125
   96MOL0     H12612  10.363   3.655   6.118 -2.5096  0.8080  0.6527
   96MOL0     H12613  10.334   3.867   6.030 -0.5703 -1.2659  1.1675
   96MOL0     H12614  10.173   3.798   6.013 -1.0915  2.2967  0.7614
   96MOL0     H12615  10.276   3.722   5.765  2.6062  0.8832  0.5526
   96MOL0     H12616  10.178   3.869   5.804  0.0619 -0.8464 -1.3307
   96MOL0     H12617  10.468   3.846   5.739 -1.1190 -1.8834 -1.7364
   96MOL0     H12618  10.406   3.984   5.834  0.5431 -1.5517  2.0508
   96MOL0     H12619  10.242   4.053   5.665 -2.1295 -1.9167  0.1895
   96MOL0     H12620  10.248   3.894   5.597 -2.2048  2.7215 -1.6249
   96MOL0     H12621  10.484   3.937   5.511 -0.0130  1.6556 -1.0770
   96MOL0     H12622  10.365   4.057   5.457 -3.0288 -0.6949  1.0195
   96MOL0     H12623  10.578   4.115   5.680 -0.7365 -0.5889  0.0211
   96MOL0     H12624  10.463   4.224   5.618 -3.2876 -1.5075  0.6440
   96MOL0     H12625  10.730   3.993   5.486  0.3803  0.9289  2.1810
   96MOL0     H12626  10.930   4.002   5.293  0.9800 -0.9632  0.3601
   96MOL0     H12627  11.012   4.159   5.325  1.4563  0.9322 -2.8577
   96MOL0     H12628  10.907   4.265   5.124 -0.6803  0.0655 -0.3692
   96MOL0     H12629  10.853   4.100   5.074 -0.6581 -0.9520  1.2512
   96MOL0     H12630  11.117   4.052   5.106  0.4218 -0.3585  0.8920
   96MOL0     H12631  11.073   4.139   4.964  0.3673  0.2527  0.1304
   96MOL0     H12632  11.156   4.263   5.217 -0.6515 -1.9262  0.0635
   96MOL0     H12633  11.134   4.356   5.058  2.4982 -0.5918 -0.8278
   96MOL0     H12634  11.560   4.262   5.050  0.5889 -0.2471  0.3687
   96MOL0     H12635  11.721   4.149   5.146  0.7127 -1.3715 -0.5740
   96MOL0     H12636  11.871   3.774   5.490  0.1684 -1.9273  0.2137
   96MOL0     H12637  12.088   3.645   5.517  1.9937  2.0364  1.2560
   96MOL0     H12638  12.279   3.542   5.518  1.6739  0.3952 -0.6720
   96MOL0     H12639  12.385   3.472   5.399  0.6549 -1.5839  2.5629
   96MOL0     H12640  12.089   3.431   5.428  0.4107  0.7465 -0.4971
   96MOL0     H12641  12.212   3.333   5.493  1.2762 -0.8199 -1.1455
   96MOL0     H12642  12.305   3.332   5.237  0.3348 -1.4585  0.2458
   96MOL0     H12643  12.147   3.374   5.189 -2.0203 -1.6232  0.7094
   96MOL0     H12644  12.232   3.118   5.344  1.7951  0.8544 -0.2645
   96MOL0     H12645  12.065   3.153   5.322  1.0183  0.4700  2.8804
   96MOL0     H12646  12.155   2.999   5.131  2.3567 -1.1824  0.6313
   96MOL0     H12647  12.274   3.126   5.085 -0.7179  0.3163 -2.0775
   96MOL0     H12648  12.081   3.276   5.020 -4.5915  1.5778 -0.3797
   96MOL0     H12649  11.967   3.160   5.083 -1.0322  0.6549  0.3711
   96MOL0     H12650  12.151   3.150   4.842  0.3089  0.9703  2.3648
   96MOL0     H12651  12.125   2.994   4.908 -0.5777 -0.3908 -0.4624
   96MOL0     H12652  11.963   3.025   4.723  1.0475 -1.0040  1.5594
   96MOL0     H12653  11.894   3.173   4.806 -1.3054 -0.3711  0.7600
   96MOL0     H12654  12.200   3.791   5.130 -1.3888 -0.6239 -0.5527
   96MOL0     H12655  12.018   3.942   5.134  0.3386 -2.1364 -2.7781
   96MOL0     H12656  11.413   3.904   5.349  2.9754 -2.2707 -2.7360
   96MOL0     H12657  11.256   4.052   5.279 -0.9078  0.3217 -1.0117
   96MOL0     H12658  10.415   3.203   5.955  0.9493 -0.7101  0.5886
   96MOL0     H12659  10.571   3.079   6.103  2.9645  1.4990 -0.4339
   96MOL0     H12660  10.876   3.051   6.429  1.9128  0.9707  1.4684
   96MOL0     H12661  11.022   2.924   6.573  1.1961  0.5385  0.7971
   96MOL0     H12662  10.804   2.691   6.871 -1.2792  4.0299 -2.5003
   96MOL0     H12663  10.856   2.815   6.991  0.4707 -0.0170 -0.8339
   96MOL0     H12664  10.947   2.542   6.991  2.8972 -0.5020  1.3443
   96MOL0     H12665  11.078   2.619   6.910  1.3102  2.0781  0.4512
   96MOL0     H12666  11.088   2.601   7.164 -3.2383  0.6267  0.5341
   96MOL0     H12667  10.971   2.738   7.177  0.4651  1.3100  2.4781
   96MOL0     H12668  11.234   2.756   7.024  3.5023  2.1641  2.2273
   96MOL0     H12669  11.094   2.868   7.032 -2.8249 -1.1460  1.1220
   96MOL0     H12670  11.301   2.880   7.410 -3.2691  1.6341  1.9367
   96MOL0     H12671  10.677   2.891   6.844 -4.1835  1.8562 -1.3558
   96MOL0     H12672  10.553   2.997   6.705  1.3743  0.9251  2.5974
   97MOL0     O12673   0.547   7.427   6.835  0.4982  0.0140  0.1083
   97MOL0     C12674   0.614   7.430   6.731 -0.1322  0.5107 -0.2211
   97MOL0     O12675   0.733   7.510   6.709 -0.8136  0.1269 -0.5898
   97MOL0     C12676   0.775   7.609   6.801 -0.7587 -0.4801 -0.0791
   97MOL0     C12677   0.907   7.623   6.839 -0.2946 -1.3776  0.4071
   97MOL0     C12678   0.939   7.714   6.942  0.8462  1.1910  0.3106
   97MOL0     C12679   0.833   7.781   7.012 -0.8055 -0.0483  0.7042
   97MOL0     O12680   0.850   7.855   7.122 -0.5384  0.4641 -0.0557
   97MOL0     C12681   0.859   7.998   7.098  0.0299 -0.3033  0.2956
   97MOL0     C12682   0.949   8.053   7.205 -0.1466  0.2708  0.5396
   97MOL0     C12683   1.089   7.981   7.222  0.5403  0.2394 -0.0321
   97MOL0     C12684   1.207   8.086   7.250  0.5522 -0.0713  0.5811
   97MOL0     C12685   1.239   8.150   7.113 -0.4623 -0.2088  0.1850
   97MOL0     C12686   1.387   8.139   7.078  0.6787  0.0854  0.3000
   97MOL0     C12687   1.406   8.009   6.993 -0.5896 -0.4138 -0.0411
   97MOL0     C12688   1.535   7.994   6.909 -0.1622  0.0702 -0.2152
   97MOL0     N12689   1.549   8.103   6.807 -0.5493 -0.3978  0.5641
   97MOL0     C12690   1.454   8.173   6.733  1.0544 -0.3047  0.0725
   97MOL0     C12691   1.523   8.262   6.660  0.6634 -0.2866 -0.0830
   97MOL0     C12692   1.467   8.353   6.549  0.1285  0.0977 -0.2555
   97MOL0     C12693   1.543   8.344   6.410 -0.8048 -0.2382 -0.8712
   97MOL0     C12694   1.570   8.191   6.362  0.5820  0.0393  0.2852
   97MOL0     C12695   1.447   8.110   6.319 -0.7257 -0.5010  0.2557
   97MOL0     O12696   1.379   8.190   6.221 -0.5592 -0.3035  0.5174
   97MOL0     C12697   1.263   8.252   6.252 -1.2460  0.0058 -0.4618
   97MOL0     C12698   1.175   8.211   6.350  0.9492  0.4863  0.3303
   97MOL0     C12699   1.051   8.283   6.377  0.0391  1.1144  0.8855
   97MOL0     C12700   1.026   8.392   6.294  0.8749  0.2900 -0.7680
   97MOL0     C12701   0.902   8.470   6.309  0.2306  0.7053  0.3928
   97MOL0     O12702   0.870   8.567   6.218  0.3374 -0.2443  0.8264
   97MOL0     C12703   0.761   8.644   6.248  0.1036 -0.1260 -0.6541
   97MOL0     C12704   0.766   8.732   6.358 -0.3968 -0.1833  0.2921
   97MOL0     C12705   0.649   8.803   6.387  0.5668  0.1969  0.2478
   97MOL0     C12706   0.528   8.783   6.322  0.7123 -0.3380 -0.0617
   97MOL0     O12707   0.409   8.847   6.344  0.3816 -0.3735  0.4877
   97MOL0     C12708   0.383   8.903   6.477  0.1632 -0.3207  0.5344
   97MOL0     C12709   0.258   8.991   6.478  0.5042 -0.1942  0.4115
   97MOL0     C12710   0.244   9.065   6.623 -0.1784  0.2495 -0.2950
   97MOL0     C12711   0.121   9.141   6.645 -0.4678 -0.8356  1.1029
   97MOL0     C12712   0.105   9.206   6.788 -0.2508 -0.2639  0.2896
   97MOL0     C12713   0.208   9.323   6.818  0.4280  0.2867  0.3757
   97MOL0     C12714   0.140   9.406   6.929  0.4525 -0.0008 -0.2654
   97MOL0     C12715   0.122   9.331   7.058 -0.1189 -0.8321  0.5947
   97MOL0    Cl12716   0.282   9.268   7.119 -0.1884  0.6572  0.2007
   97MOL0     C12717   0.523   8.695   6.214  0.0782 -0.6676 -0.2702
   97MOL0     C12718   0.646   8.635   6.169 -0.0360 -0.3172 -0.4794
   97MOL0     O12719   0.827   8.430   6.400 -0.7259  0.7984 -0.2408
   97MOL0     C12720   1.103   8.427   6.180 -0.2743  0.6186  0.4745
   97MOL0     C12721   1.230   8.360   6.164  1.2376 -0.8315 -0.6721
   97MOL0     N12722   1.654   8.239   6.695  0.4944 -0.5393  0.2533
   97MOL0     N12723   1.672   8.156   6.788 -0.0409  0.6919 -0.7277
   97MOL0     C12724   0.703   7.768   6.970  1.1745 -1.1944  0.1530
   97MOL0     C12725   0.680   7.698   6.850 -0.4447  0.1857  0.2277
   97MOL0     C12726   0.590   7.332   6.618  0.0239 -0.2508  0.0933
   97MOL0     C12727   0.458   7.305   6.583  0.5209  0.6416  0.7154
   97MOL0     C12728   0.430   7.222   6.474 -0.2520  0.0713  0.8291
   97MOL0     C12729   0.526   7.168   6.384  0.3757  0.1559  0.1512
   97MOL0     O12730   0.501   7.103   6.273 -0.4362  0.3340 -0.5320
   97MOL0     C12731   0.371   7.108   6.212 -0.5513  1.5341 -0.0352
   97MOL0     C12732   0.363   7.240   6.144 -0.4246  1.6031 -0.2195
   97MOL0     C12733   0.221   7.250   6.092  0.0738 -1.3155 -0.3164
   97MOL0     C12734   0.231   7.348   5.984  0.2919 -0.1685 -0.0768
   97MOL0     C12735   0.094   7.362   5.933  0.8267 -0.5328  0.4130
   97MOL0     C12736  -0.025   7.371   5.913  0.2594  0.8382  1.0544
   97MOL0     C12737   0.660   7.193   6.433  0.1929  0.6310 -0.3129
   97MOL0     C12738   0.697   7.275   6.545  0.3478 -0.4006  1.2794
   97MOL0     H12739   0.984   7.571   6.782  2.5219  0.1402  2.5628
   97MOL0     H12740   1.046   7.732   6.946  0.6192  3.6247 -1.9760
   97MOL0     H12741   0.761   8.044   7.108  0.6056  0.8635  0.7714
   97MOL0     H12742   0.916   8.018   7.007  1.7291  0.1168  1.3873
   97MOL0     H12743   0.901   8.026   7.299 -0.6752  0.6529  0.3837
   97MOL0     H12744   0.964   8.161   7.208  3.2681 -0.0759  4.3281
   97MOL0     H12745   1.109   7.912   7.139 -0.4007 -0.7432  0.5303
   97MOL0     H12746   1.079   7.916   7.310  1.2494  2.3043  1.6697
   97MOL0     H12747   1.176   8.165   7.319  1.9678 -1.4925  2.9671
   97MOL0     H12748   1.289   8.037   7.303 -0.1533 -2.3462 -0.2865
   97MOL0     H12749   1.222   8.257   7.129 -3.8614 -0.7085  0.7180
   97MOL0     H12750   1.166   8.119   7.038 -0.9025  1.6048 -0.1879
   97MOL0     H12751   1.445   8.142   7.170 -2.5989 -1.3386  2.5739
   97MOL0     H12752   1.413   8.228   7.019  3.5527  0.7379  2.3617
   97MOL0     H12753   1.397   7.920   7.056 -0.0717 -0.7928 -0.4960
   97MOL0     H12754   1.331   8.004   6.914  1.0063 -1.3639 -1.5763
   97MOL0     H12755   1.541   7.899   6.855  1.2369 -1.2547  2.1290
   97MOL0     H12756   1.621   8.000   6.976 -0.5461  3.1490  0.1526
   97MOL0     H12757   1.347   8.160   6.729  0.7362  2.1815 -1.1213
   97MOL0     H12758   1.465   8.452   6.594 -0.2604  1.0294 -2.1860
   97MOL0     H12759   1.364   8.318   6.533  0.3164  0.2446 -1.9519
   97MOL0     H12760   1.642   8.383   6.434 -1.4967  1.0885 -0.0862
   97MOL0     H12761   1.491   8.400   6.332 -0.6982  1.7472  0.4243
   97MOL0     H12762   1.639   8.201   6.278 -0.5425  1.0465 -0.5571
   97MOL0     H12763   1.632   8.142   6.437  2.4288 -1.6796 -2.1976
   97MOL0     H12764   1.391   8.101   6.413 -2.0712  1.6176 -0.2600
   97MOL0     H12765   1.455   8.012   6.272 -1.1508  0.9862 -3.2650
   97MOL0     H12766   1.199   8.116   6.396 -1.0638 -0.6005 -0.7363
   97MOL0     H12767   0.984   8.253   6.456  1.3271 -0.5901  1.3831
   97MOL0     H12768   0.860   8.741   6.410 -0.0024  2.6837 -0.7230
   97MOL0     H12769   0.657   8.884   6.459  0.4524  2.4608 -2.1237
   97MOL0     H12770   0.455   8.971   6.522  1.8958 -0.1351 -2.2735
   97MOL0     H12771   0.364   8.814   6.537  0.1037 -0.6945 -0.0256
   97MOL0     H12772   0.172   8.926   6.459  1.4867 -0.4162 -4.2854
   97MOL0     H12773   0.259   9.069   6.402 -0.7979 -2.4580 -2.0759
   97MOL0     H12774   0.330   9.125   6.655  1.0770 -2.1363  1.1343
   97MOL0     H12775   0.245   8.997   6.709  1.9983  2.7085  1.7711
   97MOL0     H12776   0.108   9.220   6.571  1.0823 -1.6141 -0.0537
   97MOL0     H12777   0.035   9.074   6.630 -1.5381  1.2565 -4.3335
   97MOL0     H12778   0.117   9.131   6.866 -0.6724  0.8125  1.4044
   97MOL0     H12779   0.000   9.235   6.794  0.2047  1.8284 -0.8756
   97MOL0     H12780   0.218   9.391   6.732  0.4391 -0.8072 -0.5183
   97MOL0     H12781   0.307   9.289   6.848 -0.0665  0.4575  2.2904
   97MOL0     H12782   0.204   9.493   6.946 -4.3519  3.4113  2.9184
   97MOL0     H12783   0.045   9.447   6.896 -1.3375 -3.4546  0.1742
   97MOL0     H12784   0.063   9.240   7.045  0.1914 -0.7818 -1.4284
   97MOL0     H12785   0.074   9.395   7.132  2.3617  1.5045  0.3536
   97MOL0     H12786   0.434   8.702   6.152 -0.4372  0.3089  0.5673
   97MOL0     H12787   0.631   8.559   6.092 -4.6698  0.2645 -0.3966
   97MOL0     H12788   1.077   8.497   6.101 -0.4978 -0.8941 -0.8462
   97MOL0     H12789   1.290   8.390   6.079  1.6249 -1.2815 -0.5623
   97MOL0     H12790   0.630   7.826   7.025  1.3271 -1.0612  0.2158
   97MOL0     H12791   0.583   7.705   6.803  1.3615  1.7389 -3.7907
   97MOL0     H12792   0.371   7.340   6.637  0.5666  0.7786  0.6988
   97MOL0     H12793   0.328   7.221   6.437 -0.3311 -2.9182  0.8819
   97MOL0     H12794   0.284   7.090   6.276  0.9496  2.2783  2.3554
   97MOL0     H12795   0.365   7.032   6.133 -2.0844  1.2742  0.3083
   97MOL0     H12796   0.394   7.318   6.214  4.3422 -1.4040  1.5852
   97MOL0     H12797   0.438   7.231   6.066  1.0891  4.5694  0.7601
   97MOL0     H12798   0.159   7.283   6.176 -0.2896  1.8523 -1.7059
   97MOL0     H12799   0.187   7.150   6.063 -1.0571 -0.9365 -0.3385
   97MOL0     H12800   0.262   7.445   6.024  0.0598 -0.0122 -0.2706
   97MOL0     H12801   0.291   7.324   5.895  0.7581 -1.2832  0.5227
   97MOL0     H12802  -0.129   7.369   5.884  0.1760 -1.4902  1.2479
   97MOL0     H12803   0.742   7.169   6.365  0.2773  2.3057 -0.8513
   97MOL0     H12804   0.796   7.317   6.561  0.7672 -1.1686  0.7393
   98MOL0     O12805   1.234   1.926  11.237 -0.7918  0.2654 -0.5213
   98MOL0     C12806   1.341   1.948  11.308  0.7955 -0.9805 -0.6378
   98MOL0     O12807   1.403   2.069  11.315  0.7063  0.4360  0.2925
   98MOL0     C12808   1.367   2.179  11.242 -0.1715 -0.5517 -0.7682
   98MOL0     C12809   1.308   2.186  11.116  0.9561 -0.3142 -0.4670
   98MOL0     C12810   1.300   2.305  11.044 -0.2790  0.0617 -0.5662
   98MOL0     C12811   1.347   2.423  11.102 -0.8233 -0.1005 -0.4516
   98MOL0     O12812   1.356   2.537  11.038 -0.2063 -0.1167  0.2069
   98MOL0     C12813   1.289   2.561  10.913  0.1442 -0.5994 -0.1942
   98MOL0     C12814   1.262   2.712  10.897  0.3460  0.4285 -0.5745
   98MOL0     C12815   1.202   2.750  10.759 -0.5493  0.5890  0.0871
   98MOL0     C12816   1.160   2.900  10.751  0.1019 -0.3080  0.0075
   98MOL0     C12817   1.059   2.917  10.633  0.5957 -0.4148  0.1897
   98MOL0     C12818   1.113   2.845  10.500 -0.4442  0.2834  0.1984
   98MOL0     C12819   1.044   2.907  10.368 -0.5519  0.8173  0.0926
   98MOL0     C12820   1.103   3.034  10.307 -0.7486  0.7718 -0.3884
   98MOL0     N12821   1.006   3.085  10.202 -0.3429  0.2131  1.0207
   98MOL0     C12822   0.894   3.160  10.224  0.4605  0.5551  0.7016
   98MOL0     C12823   0.834   3.161  10.105 -0.0333  0.2313 -0.3525
   98MOL0     C12824   0.711   3.244  10.084  0.3039 -0.1269  0.6952
   98MOL0     C12825   0.588   3.168  10.125  0.3051 -0.2140 -0.7496
   98MOL0     C12826   0.577   3.026  10.071 -0.4772 -0.4842 -0.3570
   98MOL0     C12827   0.449   2.955  10.099  0.5544 -0.0205  0.5929
   98MOL0     O12828   0.442   2.923  10.240 -1.0025  0.1136  0.3251
   98MOL0     C12829   0.347   2.834  10.281  0.0824 -0.3428  0.5076
   98MOL0     C12830   0.263   2.756  10.201  0.4357 -0.1478 -0.3172
   98MOL0     C12831   0.160   2.667  10.248 -0.9123  0.2443 -0.0797
   98MOL0     C12832   0.144   2.657  10.387 -0.3091 -0.3993 -0.0591
   98MOL0     C12833   0.037   2.571  10.436 -0.0786 -0.0721 -0.3897
   98MOL0     O12834  -0.006   2.592  10.567 -0.4708  0.5491 -0.5075
   98MOL0     C12835  -0.114   2.536  10.624 -0.1011  0.4491 -0.1009
   98MOL0     C12836  -0.113   2.518  10.761 -0.0079 -1.0128  0.4183
   98MOL0     C12837  -0.219   2.462  10.829 -0.3908  0.5566  0.1271
   98MOL0     C12838  -0.339   2.442  10.770  0.3192 -0.4497 -1.0621
   98MOL0     O12839  -0.440   2.400  10.850 -0.1323 -0.0179 -0.2891
   98MOL0     C12840  -0.574   2.422  10.816 -0.5998 -0.3383  1.5028
   98MOL0     C12841  -0.664   2.389  10.923  0.0611  0.1907 -0.3438
   98MOL0     C12842  -0.656   2.486  11.042 -0.6609 -1.2987  0.4600
   98MOL0     C12843  -0.743   2.611  11.034  0.6324 -0.4962  0.4231
   98MOL0     C12844  -0.736   2.695  11.162  0.0478  0.4945 -0.2475
   98MOL0     C12845  -0.766   2.624  11.287  0.2345  0.2988  0.2724
   98MOL0     C12846  -0.912   2.566  11.317  0.8748  0.6929  0.3501
   98MOL0     C12847  -0.930   2.476  11.437 -0.2187  0.7622 -0.1642
   98MOL0    Cl12848  -0.924   2.301  11.394 -0.1406  0.2966 -0.2600
   98MOL0     C12849  -0.347   2.466  10.627 -0.0905  0.1057 -0.7729
   98MOL0     C12850  -0.236   2.510  10.552 -0.0436  0.0885  0.2108
   98MOL0     O12851  -0.005   2.490  10.364 -0.2364  0.6463 -0.2631
   98MOL0     C12852   0.235   2.729  10.472  0.2948  0.9422  0.1362
   98MOL0     C12853   0.327   2.816  10.422  0.3931  0.5877 -0.4258
   98MOL0     N12854   0.908   3.102  10.001 -1.4046  0.4008 -0.0344
   98MOL0     N12855   1.008   3.049  10.070 -0.8122 -0.3043 -0.4393
   98MOL0     C12856   1.418   2.413  11.222 -0.3212 -0.4166  0.5637
   98MOL0     C12857   1.432   2.297  11.289 -1.0683  0.3473  0.0366
   98MOL0     C12858   1.395   1.828  11.370 -1.3449  0.0421 -1.0141
   98MOL0     C12859   1.330   1.702  11.363 -0.1465  0.1579  0.2798
   98MOL0     C12860   1.383   1.591  11.424  0.2398 -0.6531 -0.9260
   98MOL0     C12861   1.495   1.601  11.500 -0.1713  1.0070 -1.2086
   98MOL0     O12862   1.538   1.479  11.557  0.3109  0.0581 -0.5508
   98MOL0     C12863   1.647   1.492  11.648 -0.6498 -0.8777 -0.6906
   98MOL0     C12864   1.694   1.350  11.684 -0.4397 -0.0442  0.8358
   98MOL0     C12865   1.819   1.336  11.760 -0.6011  0.5235  0.8209
   98MOL0     C12866   1.825   1.407  11.893 -0.2123  0.0986  0.0345
   98MOL0     C12867   1.953   1.401  11.965  0.5505  0.1898 -0.8645
   98MOL0     C12868   2.060   1.376  12.021 -0.2048 -0.8659  0.0391
   98MOL0     C12869   1.558   1.725  11.514 -0.4114  0.9913  0.8911
   98MOL0     C12870   1.511   1.834  11.445  0.2512 -0.3866 -0.5864
   98MOL0     H12871   1.270   2.099  11.062  0.1244  1.0774 -2.2401
   98MOL0     H12872   1.258   2.295  10.944 -0.9478 -2.5776 -0.0933
   98MOL0     H12873   1.198   2.501  10.905 -0.4607  0.2371  0.3770
   98MOL0     H12874   1.366   2.528  10.842 -1.7350  1.4708 -3.4103
   98MOL0     H12875   1.356   2.763  10.918  0.3350 -0.0308  0.6574
   98MOL0     H12876   1.187   2.747  10.968  1.8974  0.7590  0.9620
   98MOL0     H12877   1.115   2.692  10.727  0.1840  0.3805 -1.6213
   98MOL0     H12878   1.293   2.727  10.703 -1.4497 -0.6671 -0.9326
   98MOL0     H12879   1.104   2.933  10.839 -1.8043 -0.7504 -0.9925
   98MOL0     H12880   1.256   2.951  10.735  0.1106 -0.0736  0.7437
   98MOL0     H12881   1.048   3.023  10.607  0.5032  0.3481  3.0645
   98MOL0     H12882   0.962   2.877  10.664  0.0464  1.3666  0.9079
   98MOL0     H12883   1.079   2.741  10.506 -1.9222  0.7998  1.1584
   98MOL0     H12884   1.223   2.844  10.503 -0.3533 -3.1637  0.0210
   98MOL0     H12885   1.030   2.827  10.295 -1.0664 -0.5674  1.6403
   98MOL0     H12886   0.939   2.927  10.392 -0.6881 -1.0406  1.2527
   98MOL0     H12887   1.204   3.020  10.269 -0.2397 -1.2033  1.4899
   98MOL0     H12888   1.110   3.116  10.379 -1.1798 -0.2383  0.8642
   98MOL0     H12889   0.856   3.190  10.321  0.5085 -0.4816  1.0607
   98MOL0     H12890   0.700   3.261   9.977 -0.9657 -0.9712  0.6789
   98MOL0     H12891   0.714   3.338  10.139  0.1055  1.1422 -1.3729
   98MOL0     H12892   0.493   3.220  10.105  0.2047  1.0998  2.5154
   98MOL0     H12893   0.589   3.149  10.233  1.1014 -0.4479 -0.7959
   98MOL0     H12894   0.594   3.039   9.964  1.9886 -0.9272 -0.0946
   98MOL0     H12895   0.666   2.971  10.104  0.7343  0.5592 -1.7866
   98MOL0     H12896   0.459   2.875  10.025 -0.3069  0.9012 -0.5613
   98MOL0     H12897   0.359   3.010  10.070  0.3069 -1.5042 -1.6956
   98MOL0     H12898   0.290   2.759  10.096  0.9321  3.0473 -0.1834
   98MOL0     H12899   0.092   2.615  10.181 -1.2642  0.1708  0.3293
   98MOL0     H12900  -0.025   2.535  10.822 -0.1470  0.3239  0.2794
   98MOL0     H12901  -0.217   2.428  10.932 -0.4108 -2.2650 -0.7167
   98MOL0     H12902  -0.611   2.359  10.735 -0.8058 -0.0645  1.3802
   98MOL0     H12903  -0.587   2.527  10.788  2.5326 -0.2497  0.0051
   98MOL0     H12904  -0.659   2.283  10.948  4.0369  0.2131 -0.5060
   98MOL0     H12905  -0.762   2.399  10.874  0.9820 -0.5134 -2.4425
   98MOL0     H12906  -0.556   2.529  11.055 -0.7098 -1.2365  0.6302
   98MOL0     H12907  -0.674   2.426  11.131 -1.5252 -0.4011  0.9126
   98MOL0     H12908  -0.689   2.664  10.956 -0.7158 -1.5508 -1.2883
   98MOL0     H12909  -0.843   2.575  11.009  0.2823 -2.0140  3.4376
   98MOL0     H12910  -0.811   2.775  11.157  1.2007  1.7185  1.3018
   98MOL0     H12911  -0.636   2.738  11.170  0.5723 -0.9671  1.9106
   98MOL0     H12912  -0.748   2.686  11.375  1.7548 -2.5250  2.0895
   98MOL0     H12913  -0.692   2.544  11.297 -2.5812 -2.3326  1.9621
   98MOL0     H12914  -0.983   2.649  11.328  0.4920  0.5271 -0.7001
   98MOL0     H12915  -0.951   2.510  11.230  2.0769  0.7584 -0.2524
   98MOL0     H12916  -1.030   2.498  11.477  0.6961  2.7478  1.1779
   98MOL0     H12917  -0.850   2.503  11.507  1.3076  0.9535 -1.9104
   98MOL0     H12918  -0.441   2.440  10.579  1.6217 -1.2620 -3.6563
   98MOL0     H12919  -0.242   2.539  10.448  0.4837  1.2135  0.4821
   98MOL0     H12920   0.211   2.712  10.577 -2.8793 -2.1042 -0.9049
   98MOL0     H12921   0.376   2.876  10.498  1.5785  0.1425 -0.8233
   98MOL0     H12922   1.460   2.505  11.261  1.3534 -1.8136  2.2164
   98MOL0     H12923   1.490   2.300  11.381 -1.4689 -2.4249  0.4598
   98MOL0     H12924   1.241   1.696  11.300 -0.1596  0.8951  0.2109
   98MOL0     H12925   1.328   1.498  11.426 -0.7889 -0.0543 -0.2913
   98MOL0     H12926   1.622   1.551  11.736 -1.2148  0.7242 -1.8711
   98MOL0     H12927   1.726   1.551  11.601 -1.2389  0.8325  0.3634
   98MOL0     H12928   1.615   1.302  11.743 -2.5239  1.3073 -0.6926
   98MOL0     H12929   1.690   1.296  11.589 -1.8760  2.5540 -0.7068
   98MOL0     H12930   1.893   1.374  11.689 -2.5052 -2.0354 -2.9044
   98MOL0     H12931   1.835   1.228  11.772 -2.6298 -0.1906 -1.8315
   98MOL0     H12932   1.813   1.516  11.890  2.0405  0.3958 -2.3152
   98MOL0     H12933   1.743   1.362  11.949 -1.4808 -1.3310 -2.7864
   98MOL0     H12934   2.137   1.336  12.084  0.0300 -2.0722 -0.9880
   98MOL0     H12935   1.643   1.731  11.581  0.2896 -2.6761  0.5407
   98MOL0     H12936   1.556   1.932  11.461  1.5657 -1.3956  2.8439
   99MOL0     O12937   8.914   5.269   9.714  0.3800 -0.3005 -0.3829
   99MOL0     C12938   8.971   5.219   9.619  0.1074  0.0335 -0.3414
   99MOL0     O12939   8.912   5.189   9.493  0.4587  0.2024 -0.0430
   99MOL0     C12940   8.776   5.184   9.473  0.0200 -0.2612 -0.6279
   99MOL0     C12941   8.669   5.134   9.558 -0.0101  0.1695 -0.1466
   99MOL0     C12942   8.542   5.129   9.509  0.3373 -0.3384 -0.0421
   99MOL0     C12943   8.508   5.176   9.385  0.1711  0.3932 -0.0495
   99MOL0     O12944   8.374   5.186   9.338  0.1092 -0.9565 -0.3171
   99MOL0     C12945   8.297   5.295   9.414  0.4776  0.5681 -0.4013
   99MOL0     C12946   8.148   5.267   9.423  0.7875  0.2315 -0.1138
   99MOL0     C12947   8.090   5.149   9.496  0.3033  0.1296  0.0796
   99MOL0     C12948   7.945   5.124   9.465 -0.3619  0.4916 -0.2300
   99MOL0     C12949   7.900   4.998   9.541 -0.5287  0.2408 -0.7668
   99MOL0     C12950   7.749   4.964   9.529  0.3330 -0.6106  0.3668
   99MOL0     C12951   7.651   5.062   9.614 -0.8635 -0.2148  0.2550
   99MOL0     C12952   7.517   5.002   9.631  0.2187 -0.2775  0.4864
   99MOL0     N12953   7.442   5.012   9.503  0.1498  0.5810  0.3859
   99MOL0     C12954   7.392   5.130   9.451  0.0394  0.1852 -0.1772
   99MOL0     C12955   7.294   5.096   9.370 -0.1239 -1.0935 -0.1197
   99MOL0     C12956   7.214   5.190   9.283 -0.7243 -0.2344  0.0246
   99MOL0     C12957   7.084   5.236   9.347  0.7865 -0.6287  0.3812
   99MOL0     C12958   6.974   5.129   9.386 -0.1188  0.0006  0.0960
   99MOL0     C12959   6.935   5.041   9.269  0.3080  0.1824  1.4784
   99MOL0     O12960   6.873   5.119   9.158  0.8902 -0.4867  0.8510
   99MOL0     C12961   6.817   5.060   9.046 -1.0471 -0.5171  0.5723
   99MOL0     C12962   6.708   5.118   8.982 -0.2700  0.5515  0.2957
   99MOL0     C12963   6.643   5.049   8.877 -0.8526  0.9498  0.2190
   99MOL0     C12964   6.689   4.916   8.836 -0.1738 -0.3432 -0.0441
   99MOL0     C12965   6.623   4.853   8.726  0.3922  0.1102  0.0686
   99MOL0     O12966   6.708   4.762   8.658 -0.4896  0.3181 -0.0813
   99MOL0     C12967   6.668   4.700   8.543  0.1234  0.5628 -0.2417
   99MOL0     C12968   6.716   4.724   8.422  0.3129 -0.0799  0.2568
   99MOL0     C12969   6.675   4.658   8.306 -0.6516  0.2012  0.1400
   99MOL0     C12970   6.585   4.548   8.318  0.4736 -0.1345 -0.5865
   99MOL0     O12971   6.535   4.500   8.199 -0.1236 -0.2698 -0.7806
   99MOL0     C12972   6.453   4.382   8.207  0.4758  0.0133 -0.8449
   99MOL0     C12973   6.434   4.324   8.059  0.4023  0.0941 -0.6240
   99MOL0     C12974   6.297   4.354   8.001  0.7655  0.4667 -0.7079
   99MOL0     C12975   6.270   4.267   7.883 -0.3882  0.2179 -0.4916
   99MOL0     C12976   6.127   4.308   7.836  0.2502  0.2355 -0.3689
   99MOL0     C12977   6.086   4.226   7.708  1.3813  0.5832 -0.1107
   99MOL0     C12978   6.192   4.237   7.589 -0.6814 -0.8346 -1.1256
   99MOL0     C12979   6.187   4.376   7.528  0.4965  0.1434  0.3401
   99MOL0    Cl12980   6.268   4.349   7.370  0.1021  0.4040  0.5298
   99MOL0     C12981   6.525   4.530   8.451  0.9764  0.2262  0.1148
   99MOL0     C12982   6.566   4.607   8.558  0.0900  0.4596  0.7944
   99MOL0     O12983   6.507   4.875   8.699 -0.9764  0.1020  0.0676
   99MOL0     C12984   6.801   4.867   8.901 -0.2353  0.8008 -0.0522
   99MOL0     C12985   6.876   4.951   8.984  0.8243  0.4170 -0.7765
   99MOL0     N12986   7.276   4.960   9.373 -0.5724  0.3096 -0.0255
   99MOL0     N12987   7.371   4.916   9.454  0.2320 -0.5948 -0.1764
   99MOL0     C12988   8.606   5.221   9.301 -0.3978 -1.4373 -0.3873
   99MOL0     C12989   8.738   5.219   9.341  0.1343  0.1587 -0.1019
   99MOL0     C12990   9.116   5.210   9.616 -0.3942 -0.1428 -0.4619
   99MOL0     C12991   9.183   5.127   9.524  0.2231  0.9482 -0.0652
   99MOL0     C12992   9.325   5.126   9.516 -0.3065 -0.4745 -0.5335
   99MOL0     C12993   9.395   5.204   9.608  0.4291 -1.0933  0.8606
   99MOL0     O12994   9.529   5.210   9.614  0.2735 -0.0230  0.4338
   99MOL0     C12995   9.604   5.137   9.507  1.1380 -0.2611  0.3990
   99MOL0     C12996   9.604   5.226   9.378  0.5655  0.4362  0.2777
   99MOL0     C12997   9.662   5.144   9.271  0.3342  0.6680  0.3230
   99MOL0     C12998   9.652   5.194   9.132  0.6554  0.1934 -0.2362
   99MOL0     C12999   9.754   5.141   9.050  0.5016  0.1851  0.7223
   99MOL0     C13000   9.832   5.102   8.960  0.5901  0.3792  0.2492
   99MOL0     C13001   9.332   5.293   9.689  1.1800 -0.9330 -0.3382
   99MOL0     C13002   9.193   5.295   9.695 -0.7897 -0.0868  0.2464
   99MOL0     H13003   8.704   5.090   9.651  0.5660  0.6449 -0.1307
   99MOL0     H13004   8.463   5.089   9.571  1.4149  0.3001  1.8263
   99MOL0     H13005   8.320   5.386   9.356 -1.2169  0.2580 -1.6237
   99MOL0     H13006   8.326   5.298   9.519 -0.2616  0.9763 -0.2059
   99MOL0     H13007   8.104   5.270   9.322  1.5315 -1.6695 -0.5500
   99MOL0     H13008   8.108   5.361   9.461 -0.2327 -0.1355 -0.2663
   99MOL0     H13009   8.103   5.150   9.605 -0.1670  0.4235  0.1344
   99MOL0     H13010   8.152   5.064   9.467  1.5538  0.8573  0.5479
   99MOL0     H13011   7.883   5.205   9.505  2.6131  1.4462  3.0362
   99MOL0     H13012   7.929   5.100   9.360  3.7938  0.4864 -1.0453
   99MOL0     H13013   7.931   5.010   9.645  1.5208 -2.2066 -1.0016
   99MOL0     H13014   7.943   4.909   9.494 -4.8715 -2.7002  0.1768
   99MOL0     H13015   7.745   4.860   9.562  4.3961 -1.7423 -1.9345
   99MOL0     H13016   7.723   4.968   9.422 -1.0616  0.6789  0.7263
   99MOL0     H13017   7.692   5.071   9.715 -1.1499  0.0717  0.3472
   99MOL0     H13018   7.650   5.164   9.575  2.0789  1.2532  3.4758
   99MOL0     H13019   7.472   5.063   9.710 -0.1182 -0.8025  0.7074
   99MOL0     H13020   7.531   4.903   9.674  1.2304  0.4724  1.9432
   99MOL0     H13021   7.432   5.225   9.486 -0.1998 -0.5113  2.1570
   99MOL0     H13022   7.194   5.152   9.182 -0.0994  3.7603 -1.8099
   99MOL0     H13023   7.266   5.286   9.269 -0.8099 -0.3320 -1.0977
   99MOL0     H13024   7.034   5.309   9.283 -0.6918 -2.1577 -0.2467
   99MOL0     H13025   7.109   5.289   9.440 -2.0397  1.6586 -0.0110
   99MOL0     H13026   6.996   5.059   9.467 -3.0211 -1.0331  0.1099
   99MOL0     H13027   6.889   5.190   9.415  1.1786  0.7080  2.7334
   99MOL0     H13028   6.860   4.968   9.301 -0.5697  1.1080  1.5772
   99MOL0     H13029   7.027   4.992   9.235 -0.5763  0.0357 -0.8303
   99MOL0     H13030   6.667   5.210   9.021  1.3265  2.5240 -2.3685
   99MOL0     H13031   6.558   5.100   8.834 -1.3499 -2.2858 -3.2010
   99MOL0     H13032   6.793   4.800   8.410  0.7267 -0.7552 -1.5409
   99MOL0     H13033   6.726   4.702   8.220 -1.1385 -0.9888 -0.7925
   99MOL0     H13034   6.354   4.413   8.241  1.7695  5.1904 -0.9377
   99MOL0     H13035   6.505   4.310   8.270  0.4783  1.6722  1.1543
   99MOL0     H13036   6.445   4.215   8.060 -0.9727 -0.0650 -0.3000
   99MOL0     H13037   6.512   4.357   7.989 -0.3399 -2.9997 -3.1372
   99MOL0     H13038   6.298   4.458   7.967  3.2326  0.5469 -0.5569
   99MOL0     H13039   6.223   4.344   8.081 -2.1753  1.1169 -3.1592
   99MOL0     H13040   6.335   4.310   7.806 -1.7442  1.8458 -0.7862
   99MOL0     H13041   6.288   4.160   7.896 -3.1362 -0.2068  0.3531
   99MOL0     H13042   6.120   4.417   7.832  3.5630  0.7547  2.7913
   99MOL0     H13043   6.051   4.278   7.908 -3.1397  0.2921 -3.6527
   99MOL0     H13044   5.990   4.260   7.667  0.9522 -1.1335 -0.6192
   99MOL0     H13045   6.051   4.128   7.742  1.2639  1.3029  2.0445
   99MOL0     H13046   6.295   4.214   7.615 -0.8988 -0.9920 -0.3710
   99MOL0     H13047   6.173   4.158   7.516  0.7629 -1.7674 -0.5504
   99MOL0     H13048   6.239   4.443   7.598 -0.0603  1.0225 -0.0656
   99MOL0     H13049   6.085   4.411   7.508 -0.4491  0.5176  4.8143
   99MOL0     H13050   6.441   4.461   8.460  1.9510 -1.0613 -0.5019
   99MOL0     H13051   6.526   4.570   8.652 -0.8137  2.8879  1.4215
   99MOL0     H13052   6.847   4.769   8.892 -1.8573  0.0479 -0.5474
   99MOL0     H13053   6.969   4.909   9.022 -1.3537 -4.2091  0.1708
   99MOL0     H13054   8.586   5.253   9.199 -0.5240 -0.0489  0.0494
   99MOL0     H13055   8.805   5.264   9.268 -1.6850  2.5163 -0.4272
   99MOL0     H13056   9.138   5.050   9.461  3.1857 -3.7369  2.9493
   99MOL0     H13057   9.374   5.051   9.455  1.1219 -0.5111  0.6060
   99MOL0     H13058   9.565   5.040   9.478  2.5107 -0.0345 -2.5870
   99MOL0     H13059   9.707   5.121   9.540  0.4539  1.1645  3.6424
   99MOL0     H13060   9.502   5.265   9.366  1.4082  2.6957  0.0304
   99MOL0     H13061   9.665   5.313   9.402  2.2070 -0.2310 -1.2820
   99MOL0     H13062   9.618   5.044   9.275  1.9729 -0.0696  1.3614
   99MOL0     H13063   9.768   5.121   9.289 -0.3389 -2.3347  1.0699
   99MOL0     H13064   9.559   5.159   9.085  1.3443  0.3505 -1.7730
   99MOL0     H13065   9.640   5.303   9.134  0.7117  0.2003 -0.2596
   99MOL0     H13066   9.908   5.067   8.893 -0.6950  2.5218 -2.5189
   99MOL0     H13067   9.396   5.367   9.736  0.1889  2.5637 -3.9572
   99MOL0     H13068   9.145   5.386   9.730  2.6205  1.8903  0.2033
  100MOL0     O13069   2.852   4.495   4.945 -0.2547 -0.4862 -0.5036
  100MOL0     C13070   2.890   4.602   4.899 -0.3755 -0.2205  0.2738
  100MOL0     O13071   2.844   4.723   4.929  0.3463 -0.2580 -0.6734
  100MOL0     C13072   2.767   4.748   5.038 -0.8188 -0.4589 -0.1960
  100MOL0     C13073   2.678   4.654   5.104  0.6862 -0.5263  0.6399
  100MOL0     C13074   2.591   4.704   5.208  0.4212 -0.0128 -0.4169
  100MOL0     C13075   2.601   4.844   5.247 -0.5328  0.1755  0.3140
  100MOL0     O13076   2.525   4.903   5.348 -0.3722 -0.5868  0.5875
  100MOL0     C13077   2.458   4.818   5.435  0.2274  0.0762 -0.5441
  100MOL0     C13078   2.427   4.906   5.559  0.5288  0.9957 -0.7199
  100MOL0     C13079   2.377   4.814   5.671 -0.2047  0.2483 -0.6737
  100MOL0     C13080   2.483   4.735   5.729 -0.9094 -0.1357 -0.8175
  100MOL0     C13081   2.466   4.675   5.866  0.7694  0.5473 -0.1184
  100MOL0     C13082   2.451   4.775   5.983 -0.3084  0.2031 -0.3296
  100MOL0     C13083   2.428   4.709   6.119 -0.5125 -0.5164 -0.8114
  100MOL0     C13084   2.471   4.810   6.216  0.2903 -0.2707 -0.1467
  100MOL0     N13085   2.477   4.756   6.356 -0.1248 -0.5767 -0.1374
  100MOL0     C13086   2.580   4.676   6.394 -0.2094 -0.3443  0.5023
  100MOL0     C13087   2.578   4.681   6.528 -0.5181 -0.5756  0.2204
  100MOL0     C13088   2.676   4.623   6.617  0.1479  0.2490 -0.1593
  100MOL0     C13089   2.616   4.503   6.690  1.1157  0.4964  1.0739
  100MOL0     C13090   2.718   4.416   6.760  0.3734  0.4470 -0.9538
  100MOL0     C13091   2.764   4.484   6.893  0.1990  0.7642  0.2723
  100MOL0     O13092   2.794   4.389   7.002  0.5084 -0.6896 -0.2992
  100MOL0     C13093   2.923   4.343   7.002 -0.0381  0.5273  0.5205
  100MOL0     C13094   3.011   4.356   6.887  1.4469 -0.1235  0.0724
  100MOL0     C13095   3.138   4.312   6.900 -0.6124 -0.1514  0.1891
  100MOL0     C13096   3.176   4.246   7.027 -0.0949 -0.1809 -0.1653
  100MOL0     C13097   3.308   4.181   7.040  0.5153 -0.6566  1.2940
  100MOL0     O13098   3.395   4.192   6.929 -0.1904 -0.6544 -0.5732
  100MOL0     C13099   3.515   4.132   6.956  1.2996  0.6351  0.3831
  100MOL0     C13100   3.622   4.205   6.984  0.2832 -1.2435 -0.9349
  100MOL0     C13101   3.750   4.151   7.019  0.2744 -0.0793 -0.9575
  100MOL0     C13102   3.766   4.014   7.032 -0.4127 -0.2601 -0.4078
  100MOL0     O13103   3.882   3.941   7.050  0.0052 -0.6809  0.4795
  100MOL0     C13104   3.995   4.013   7.104 -0.0441  0.0044 -0.1068
  100MOL0     C13105   4.104   3.915   7.142 -0.1975 -0.9853  1.2549
  100MOL0     C13106   4.068   3.832   7.265 -0.0163  0.3099 -0.9475
  100MOL0     C13107   4.177   3.721   7.282  0.6130  1.1675 -0.8915
  100MOL0     C13108   4.287   3.767   7.374 -0.9925  0.2806  1.2441
  100MOL0     C13109   4.253   3.760   7.525  0.4898  1.5194  0.1391
  100MOL0     C13110   4.355   3.821   7.621  0.3013 -0.5090  0.1077
  100MOL0     C13111   4.323   3.821   7.769  1.0924  0.6187  0.2762
  100MOL0    Cl13112   4.188   3.915   7.807 -0.5064  0.1560 -0.1876
  100MOL0     C13113   3.649   3.934   6.992 -0.5379 -0.6388 -0.5277
  100MOL0     C13114   3.528   3.993   6.946  0.7082  0.1246 -0.9921
  100MOL0     O13115   3.332   4.118   7.140  0.3312 -0.1209  0.0815
  100MOL0     C13116   3.092   4.234   7.136  1.0511 -0.0415  0.6208
  100MOL0     C13117   2.964   4.292   7.124  0.4755  0.8881  0.3466
  100MOL0     N13118   2.467   4.758   6.569  0.0101 -0.3685  0.4179
  100MOL0     N13119   2.415   4.808   6.461 -0.1871  0.1659 -0.0075
  100MOL0     C13120   2.694   4.925   5.182 -0.5078 -0.6424  0.3011
  100MOL0     C13121   2.760   4.889   5.070 -0.2485  0.4798  0.2181
  100MOL0     C13122   2.991   4.608   4.788  0.5928  0.4593 -0.1059
  100MOL0     C13123   3.059   4.485   4.761 -0.0292 -0.5070 -0.3726
  100MOL0     C13124   3.170   4.500   4.679  0.1280 -0.2428 -0.3565
  100MOL0     C13125   3.220   4.622   4.621 -0.2315  0.2955  0.1971
  100MOL0     O13126   3.331   4.620   4.546  0.3489 -0.4234  0.6506
  100MOL0     C13127   3.387   4.499   4.507 -0.1092  0.0249  0.6635
  100MOL0     C13128   3.486   4.512   4.388 -0.1123  0.2036 -0.0877
  100MOL0     C13129   3.561   4.374   4.360  0.5010  0.4035  0.0581
  100MOL0     C13130   3.487   4.281   4.262 -0.2042  0.8590 -0.0590
  100MOL0     C13131   3.498   4.329   4.127  0.5694  0.2147 -0.6679
  100MOL0     C13132   3.504   4.382   4.024 -0.2028 -0.2073  0.6785
  100MOL0     C13133   3.142   4.731   4.649  0.6592 -0.7917 -0.1110
  100MOL0     C13134   3.032   4.725   4.727  0.5697 -0.7407  0.5703
  100MOL0     H13135   2.663   4.552   5.071 -1.9285 -0.5371  1.5858
  100MOL0     H13136   2.522   4.627   5.241  0.2666 -0.2034 -1.1531
  100MOL0     H13137   2.531   4.739   5.459  2.7024  0.9581 -4.3018
  100MOL0     H13138   2.368   4.772   5.393 -1.3567  1.3218  1.3369
  100MOL0     H13139   2.346   4.976   5.536 -1.3886 -0.4206  1.2698
  100MOL0     H13140   2.510   4.963   5.601 -0.3607 -0.3485  3.2984
  100MOL0     H13141   2.310   4.741   5.625 -1.7503 -0.3278  2.2604
  100MOL0     H13142   2.327   4.878   5.743  0.5212  0.1638 -0.0881
  100MOL0     H13143   2.502   4.651   5.661 -3.4159 -1.2038 -0.3149
  100MOL0     H13144   2.574   4.795   5.724  0.6655 -2.4226 -1.3264
  100MOL0     H13145   2.554   4.618   5.897 -0.7929 -2.5237 -0.9060
  100MOL0     H13146   2.379   4.610   5.873  1.6273 -0.5953  0.2032
  100MOL0     H13147   2.361   4.829   5.952 -1.1623 -0.7735  0.4091
  100MOL0     H13148   2.542   4.835   5.977  1.8436 -2.8162 -0.1581
  100MOL0     H13149   2.321   4.684   6.123 -0.4037 -1.0192 -0.9460
  100MOL0     H13150   2.486   4.617   6.126  2.0188  1.1138  1.1496
  100MOL0     H13151   2.400   4.892   6.208  2.5082  1.6826 -1.2593
  100MOL0     H13152   2.569   4.847   6.185 -1.0668  1.6552 -2.4303
  100MOL0     H13153   2.653   4.638   6.323  1.0201  3.2442 -0.4088
  100MOL0     H13154   2.703   4.695   6.694  1.4167 -0.2791 -0.0971
  100MOL0     H13155   2.763   4.592   6.559 -2.2145  0.0277 -3.9688
  100MOL0     H13156   2.567   4.437   6.618  2.4726 -0.6373  1.1185
  100MOL0     H13157   2.542   4.543   6.760 -0.2838  1.9781 -1.1490
  100MOL0     H13158   2.659   4.331   6.796 -3.7995  3.8995  1.1714
  100MOL0     H13159   2.792   4.380   6.687 -0.3351 -0.8757 -1.0472
  100MOL0     H13160   2.678   4.536   6.936 -1.1782 -3.0940  2.8205
  100MOL0     H13161   2.854   4.542   6.873  1.1512 -0.7886 -0.0843
  100MOL0     H13162   2.981   4.396   6.791  0.3615  1.7901  1.1453
  100MOL0     H13163   3.209   4.325   6.819  1.9853  0.6803  2.4221
  100MOL0     H13164   3.620   4.314   6.984  0.3562 -1.1983  1.2516
  100MOL0     H13165   3.832   4.221   7.034 -0.2898  0.4496 -0.2753
  100MOL0     H13166   3.974   4.081   7.187  0.0924  1.5771 -1.3100
  100MOL0     H13167   4.042   4.078   7.029  1.5259  0.4956  1.2499
  100MOL0     H13168   4.199   3.968   7.151 -0.9948  1.3970 -2.2165
  100MOL0     H13169   4.117   3.856   7.051  2.4645  3.8725 -1.9584
  100MOL0     H13170   3.972   3.784   7.247 -0.8637  1.0952  1.1871
  100MOL0     H13171   4.054   3.896   7.353 -0.1897 -1.0387  0.0341
  100MOL0     H13172   4.129   3.637   7.333 -1.3124  2.8417  0.2379
  100MOL0     H13173   4.214   3.687   7.185 -1.0605  3.5906 -2.5193
  100MOL0     H13174   4.315   3.866   7.337 -2.0043 -0.3564 -1.4703
  100MOL0     H13175   4.377   3.705   7.364 -2.1699 -1.2001 -1.0130
  100MOL0     H13176   4.249   3.655   7.557  1.3030  0.6258 -2.4014
  100MOL0     H13177   4.151   3.796   7.543 -0.9795 -1.3397 -1.6826
  100MOL0     H13178   4.443   3.756   7.613 -0.8351 -1.9557 -1.2755
  100MOL0     H13179   4.372   3.927   7.599 -1.2334 -0.2789 -0.0461
  100MOL0     H13180   4.407   3.844   7.834  1.4226 -2.4150  1.0675
  100MOL0     H13181   4.309   3.720   7.807  0.1556  0.4949 -0.3653
  100MOL0     H13182   3.664   3.827   6.990  2.6258 -0.3171  0.4172
  100MOL0     H13183   3.430   3.948   6.931  0.7378 -0.2539 -0.1369
  100MOL0     H13184   3.129   4.188   7.227  0.6667  2.6928  2.2692
  100MOL0     H13185   2.895   4.283   7.207 -2.1251  0.5738 -1.7259
  100MOL0     H13186   2.717   5.028   5.206 -0.7395 -0.0457 -1.8468
  100MOL0     H13187   2.815   4.960   5.008 -0.8114  2.1042  1.5020
  100MOL0     H13188   3.039   4.385   4.799 -2.9466 -1.2491 -3.3740
  100MOL0     H13189   3.229   4.409   4.673  0.3156 -0.5650  3.7019
  100MOL0     H13190   3.311   4.430   4.467 -0.5436 -0.1387  1.7482
  100MOL0     H13191   3.449   4.443   4.576 -1.3152 -2.0943  0.1195
  100MOL0     H13192   3.444   4.546   4.293  1.9996  1.4409 -0.6539
  100MOL0     H13193   3.558   4.589   4.418 -0.4194 -0.2977  2.0337
  100MOL0     H13194   3.572   4.321   4.456 -2.9430  0.9787  0.9230
  100MOL0     H13195   3.662   4.396   4.325 -0.3395  0.5813 -2.3812
  100MOL0     H13196   3.544   4.189   4.250  0.3453  1.1626  0.1523
  100MOL0     H13197   3.388   4.254   4.299  1.2294 -2.2252  1.9442
  100MOL0     H13198   3.490   4.421   3.925 -1.8219 -0.9942  0.5648
  100MOL0     H13199   3.164   4.826   4.602 -1.9544  0.1356  0.3941
  100MOL0     H13200   2.971   4.811   4.753  0.2141 -0.3244 -1.5096
  101MOL0     O13201   0.652   1.254   7.615 -0.2347  0.5363 -0.0880
  101MOL0     C13202   0.599   1.201   7.711  0.3126  0.1408  0.6892
  101MOL0     O13203   0.459   1.186   7.733 -0.1710 -0.0805 -0.1051
  101MOL0     C13204   0.373   1.216   7.632  0.2303 -0.3443  0.3499
  101MOL0     C13205   0.403   1.207   7.494 -0.4261  0.5831 -1.2515
  101MOL0     C13206   0.315   1.201   7.387  1.0217  0.1174 -0.2354
  101MOL0     C13207   0.185   1.205   7.420  0.6937 -0.7457  1.0633
  101MOL0     O13208   0.096   1.186   7.321 -0.1807  0.1368  0.0894
  101MOL0     C13209  -0.043   1.226   7.347 -0.3174 -0.3366 -1.0592
  101MOL0     C13210  -0.111   1.207   7.217  0.3107 -0.3110  0.3468
  101MOL0     C13211  -0.083   1.064   7.159 -0.4852 -0.3311 -0.1342
  101MOL0     C13212  -0.149   1.047   7.020 -0.0791 -0.7422 -0.3887
  101MOL0     C13213  -0.132   0.905   6.972  0.3096 -0.0172 -0.9320
  101MOL0     C13214  -0.205   0.883   6.841 -0.7413  0.0617 -0.9904
  101MOL0     C13215  -0.167   0.750   6.779  0.4420  0.6842  0.1304
  101MOL0     C13216  -0.205   0.744   6.624 -0.7296 -0.2521 -0.3696
  101MOL0     N13217  -0.346   0.716   6.597 -0.1414 -0.6826  0.4732
  101MOL0     C13218  -0.391   0.615   6.516  1.0877 -0.0159  0.8125
  101MOL0     C13219  -0.527   0.605   6.542 -0.5891  1.0737 -0.5373
  101MOL0     C13220  -0.615   0.507   6.468 -1.1911 -0.0728 -0.5997
  101MOL0     C13221  -0.757   0.513   6.511 -0.4688 -0.2827 -0.3858
  101MOL0     C13222  -0.827   0.623   6.428  0.3869 -0.2783  0.2044
  101MOL0     C13223  -0.974   0.626   6.469 -1.3740  0.1623  0.0680
  101MOL0     O13224  -1.033   0.735   6.400 -0.2079 -0.1548 -0.4338
  101MOL0     C13225  -1.171   0.746   6.427  0.1090  0.0428  0.2502
  101MOL0     C13226  -1.230   0.756   6.554 -0.3049  0.3195 -0.4437
  101MOL0     C13227  -1.369   0.768   6.574  0.7830 -0.7446 -0.0948
  101MOL0     C13228  -1.457   0.769   6.465 -0.3383  0.0010 -0.5060
  101MOL0     C13229  -1.601   0.765   6.484 -0.1891 -0.3490  0.0665
  101MOL0     O13230  -1.690   0.740   6.378 -0.1917 -0.2049  0.1199
  101MOL0     C13231  -1.827   0.754   6.400  0.1354  0.5193 -0.3889
  101MOL0     C13232  -1.914   0.807   6.301 -0.1168  0.5792  0.3222
  101MOL0     C13233  -2.048   0.825   6.320  0.6922 -0.6451  0.1295
  101MOL0     C13234  -2.111   0.789   6.440  0.9167 -0.2631 -0.1864
  101MOL0     O13235  -2.251   0.807   6.464 -0.4558  0.6509  0.0499
  101MOL0     C13236  -2.316   0.917   6.410  0.8248  0.3942  0.2534
  101MOL0     C13237  -2.374   0.869   6.277 -0.2119 -0.4895 -0.0724
  101MOL0     C13238  -2.463   0.746   6.289 -0.4030  0.3119 -0.3683
  101MOL0     C13239  -2.582   0.741   6.386  0.5604  0.2560  0.3111
  101MOL0     C13240  -2.705   0.797   6.310 -0.3020 -1.0565 -0.3579
  101MOL0     C13241  -2.833   0.772   6.399 -0.0669 -0.4789 -0.2102
  101MOL0     C13242  -2.883   0.634   6.388 -0.1235  0.8508  0.7227
  101MOL0     C13243  -2.996   0.617   6.485 -0.0820  0.2615 -0.0815
  101MOL0    Cl13244  -3.053   0.444   6.462 -0.2723  0.1537  0.1822
  101MOL0     C13245  -2.040   0.731   6.541 -0.0965 -0.7992  0.1078
  101MOL0     C13246  -1.896   0.707   6.515  0.3198 -0.4638 -1.0444
  101MOL0     O13247  -1.633   0.800   6.604 -0.1608  0.2518  0.1360
  101MOL0     C13248  -1.397   0.758   6.334  1.0848 -0.0182  0.1175
  101MOL0     C13249  -1.259   0.728   6.316  0.3979  0.1969  0.7774
  101MOL0     N13250  -0.561   0.720   6.621 -0.6118  0.5078 -0.3551
  101MOL0     N13251  -0.447   0.779   6.650  0.2920  0.0996 -0.2650
  101MOL0     C13252   0.151   1.225   7.561  1.1807 -0.0261  0.0587
  101MOL0     C13253   0.243   1.231   7.660 -0.0328  1.0641 -0.4182
  101MOL0     C13254   0.680   1.175   7.833 -0.1017 -0.8383  0.7236
  101MOL0     C13255   0.823   1.182   7.822 -0.0179  0.2108 -0.6482
  101MOL0     C13256   0.906   1.158   7.928  1.1344  0.0993 -0.1336
  101MOL0     C13257   0.854   1.152   8.053  1.0452  0.2863 -0.2919
  101MOL0     O13258   0.930   1.148   8.173  0.9486 -0.7741  0.1296
  101MOL0     C13259   1.028   1.050   8.188 -0.5533  0.1271  0.3583
  101MOL0     C13260   1.079   1.068   8.330 -0.3886 -0.4364 -0.2007
  101MOL0     C13261   1.181   0.953   8.370 -0.2838  0.6777 -0.6322
  101MOL0     C13262   1.302   0.985   8.463  1.3887 -0.3660 -0.0521
  101MOL0     C13263   1.258   1.055   8.589 -0.0391  0.0792  0.2912
  101MOL0     C13264   1.230   1.118   8.687  0.3585  0.1528  0.1173
  101MOL0     C13265   0.714   1.147   8.076 -0.8422 -0.0017  1.2958
  101MOL0     C13266   0.628   1.156   7.965 -0.0635  0.0909  0.1992
  101MOL0     H13267   0.506   1.191   7.464  0.5604  2.9136  0.5815
  101MOL0     H13268   0.360   1.190   7.289  3.7039  1.8693  0.7077
  101MOL0     H13269  -0.050   1.331   7.376  0.1431  0.2725 -3.0044
  101MOL0     H13270  -0.094   1.173   7.428  1.6919  0.1252  0.5838
  101MOL0     H13271  -0.084   1.282   7.142  2.6185 -1.5286 -0.1444
  101MOL0     H13272  -0.218   1.219   7.234 -0.3765 -0.0241 -3.4155
  101MOL0     H13273  -0.137   0.998   7.227 -1.4498 -0.5356 -1.0629
  101MOL0     H13274   0.025   1.051   7.154 -0.0942  0.3312  3.8660
  101MOL0     H13275  -0.253   1.079   7.029  0.1656 -0.4954  3.9335
  101MOL0     H13276  -0.106   1.114   6.945 -0.5829  0.6319  0.5058
  101MOL0     H13277  -0.178   0.838   7.046  3.1009 -3.7600 -2.2703
  101MOL0     H13278  -0.025   0.892   6.956  0.3208  0.9233 -1.6802
  101MOL0     H13279  -0.180   0.964   6.771  1.1682  1.0635  0.7548
  101MOL0     H13280  -0.313   0.891   6.852 -0.8375 -0.8136 -1.2228
  101MOL0     H13281  -0.062   0.744   6.810  0.1842  3.7744  2.0246
  101MOL0     H13282  -0.227   0.678   6.835  0.2150  1.7107  1.2561
  101MOL0     H13283  -0.150   0.663   6.577 -1.3935  0.6268 -2.8410
  101MOL0     H13284  -0.176   0.835   6.569  0.6590 -1.1673 -1.2145
  101MOL0     H13285  -0.348   0.545   6.445 -0.4291  0.0427 -0.2228
  101MOL0     H13286  -0.554   0.417   6.482  0.8921  1.2952 -0.4297
  101MOL0     H13287  -0.607   0.527   6.361 -2.6211 -1.0464 -0.9118
  101MOL0     H13288  -0.768   0.549   6.613 -1.0831  2.2014 -1.2478
  101MOL0     H13289  -0.799   0.414   6.494  1.5296 -1.2615  0.1619
  101MOL0     H13290  -0.787   0.724   6.447 -0.6760  0.0122  0.9504
  101MOL0     H13291  -0.817   0.600   6.322 -0.8102  2.5521 -0.6188
  101MOL0     H13292  -0.995   0.628   6.577 -1.3992  0.7709  0.0571
  101MOL0     H13293  -1.026   0.545   6.419  0.6663 -1.5483  0.5767
  101MOL0     H13294  -1.167   0.752   6.642 -0.0061 -1.4455 -0.7103
  101MOL0     H13295  -1.406   0.760   6.676  0.7386  0.5606  0.0098
  101MOL0     H13296  -1.878   0.825   6.200  3.1758  0.6166  1.3889
  101MOL0     H13297  -2.105   0.878   6.244  1.7321  0.0942 -0.1635
  101MOL0     H13298  -2.250   1.001   6.387  1.5644 -0.4842 -0.9432
  101MOL0     H13299  -2.401   0.940   6.475 -0.7321  0.4626 -1.6964
  101MOL0     H13300  -2.300   0.848   6.199  0.3246 -1.8709  0.7781
  101MOL0     H13301  -2.432   0.952   6.236  0.1881  1.3546  2.8219
  101MOL0     H13302  -2.387   0.673   6.319  2.0736  3.4875  1.7458
  101MOL0     H13303  -2.491   0.709   6.190 -0.7100 -1.4944  0.3591
  101MOL0     H13304  -2.595   0.633   6.394  2.5189 -0.0310 -0.0079
  101MOL0     H13305  -2.570   0.795   6.481 -2.3084 -0.4945  1.2224
  101MOL0     H13306  -2.713   0.751   6.212  3.8594 -1.8130 -0.5061
  101MOL0     H13307  -2.691   0.906   6.311  3.0208 -1.2814  3.1590
  101MOL0     H13308  -2.920   0.831   6.367  0.6236  0.1018 -1.0923
  101MOL0     H13309  -2.806   0.793   6.503  1.5688 -1.9917 -0.2775
  101MOL0     H13310  -2.925   0.628   6.287 -0.2405  1.1103  0.7552
  101MOL0     H13311  -2.803   0.559   6.396 -0.7727  0.3629  3.1529
  101MOL0     H13312  -3.081   0.683   6.464 -0.3809  0.2731  1.0929
  101MOL0     H13313  -2.965   0.644   6.586 -2.7724  1.8368  0.4208
  101MOL0     H13314  -2.089   0.697   6.631  1.1560  0.8097  1.4601
  101MOL0     H13315  -1.835   0.655   6.588  1.6491  0.7006 -1.2651
  101MOL0     H13316  -1.459   0.757   6.244 -1.1461 -0.7192  1.5874
  101MOL0     H13317  -1.220   0.711   6.216 -0.2793  1.2451  0.3185
  101MOL0     H13318   0.047   1.230   7.591  1.5304  0.5206  1.2118
  101MOL0     H13319   0.217   1.238   7.765  1.5847  1.9420 -0.0475
  101MOL0     H13320   0.866   1.182   7.723  2.3478 -0.0264  0.3011
  101MOL0     H13321   1.011   1.160   7.901  0.5466  0.0306 -2.7278
  101MOL0     H13322   1.110   1.053   8.115 -0.5940  3.3163  0.3076
  101MOL0     H13323   0.992   0.946   8.188 -0.6516 -0.0013  4.5005
  101MOL0     H13324   1.123   1.167   8.345 -0.2770 -0.4295 -0.5580
  101MOL0     H13325   0.984   1.077   8.384 -0.1633  3.9407 -0.1977
  101MOL0     H13326   1.221   0.896   8.286  3.1610  1.0402  0.6211
  101MOL0     H13327   1.123   0.880   8.428 -0.3961 -0.3153 -1.9590
  101MOL0     H13328   1.343   0.889   8.495  1.9847 -0.0648  0.1225
  101MOL0     H13329   1.380   1.051   8.423  1.5743 -0.1736  0.6159
  101MOL0     H13330   1.238   1.181   8.773  0.2790 -2.1455  1.9147
  101MOL0     H13331   0.672   1.146   8.176 -1.3126 -2.3999  1.1569
  101MOL0     H13332   0.520   1.149   7.979 -0.1177 -3.6334 -1.1129
  102MOL0     O13333   6.191   6.768   2.327  0.7346  0.5678  0.0133
  102MOL0     C13334   6.203   6.686   2.417 -0.1279  0.7034 -0.0098
  102MOL0     O13335   6.109   6.654   2.504  0.6398 -0.3336  0.5995
  102MOL0     C13336   5.980   6.696   2.487  0.6242 -0.2575 -0.0487
  102MOL0     C13337   5.910   6.722   2.605  0.0976  0.0246  0.0162
  102MOL0     C13338   5.780   6.770   2.607  0.1201  0.2690  0.3250
  102MOL0     C13339   5.725   6.779   2.482  0.2540  0.2715 -0.6318
  102MOL0     O13340   5.595   6.810   2.470 -0.2046  0.9095 -0.3519
  102MOL0     C13341   5.575   6.948   2.443 -0.4109  0.2952 -0.6292
  102MOL0     C13342   5.499   7.007   2.565 -0.6264 -0.4576  0.5783
  102MOL0     C13343   5.507   7.158   2.564  1.2267 -0.0088  0.2926
  102MOL0     C13344   5.437   7.220   2.447 -0.9842 -0.7660 -0.7648
  102MOL0     C13345   5.450   7.376   2.445 -0.0990 -0.0919 -0.3519
  102MOL0     C13346   5.382   7.437   2.322 -0.4336  1.4660  0.6698
  102MOL0     C13347   5.251   7.373   2.271 -0.0995  0.5752  0.3137
  102MOL0     C13348   5.139   7.408   2.371 -0.4476 -0.0912 -0.6459
  102MOL0     N13349   5.073   7.531   2.329  1.1625  0.5995  0.0972
  102MOL0     C13350   4.956   7.530   2.249 -0.5642 -0.5192 -0.2003
  102MOL0     C13351   4.916   7.660   2.233 -0.4783  0.0198 -1.0008
  102MOL0     C13352   4.794   7.723   2.188  0.3800  0.8904  1.4300
  102MOL0     C13353   4.672   7.724   2.290 -0.5682 -0.2869 -0.1129
  102MOL0     C13354   4.706   7.815   2.419  0.2867 -0.6344 -0.1410
  102MOL0     C13355   4.749   7.963   2.401 -0.0273  0.4381 -0.1458
  102MOL0     O13356   4.677   8.038   2.302  0.1676  0.2152 -0.1406
  102MOL0     C13357   4.592   8.136   2.344 -0.1093 -0.1770  0.6937
  102MOL0     C13358   4.642   8.266   2.375 -0.5654  0.2513  0.5236
  102MOL0     C13359   4.565   8.365   2.439  0.0199 -0.1251 -0.2250
  102MOL0     C13360   4.428   8.344   2.462 -0.0571  0.3134 -0.1645
  102MOL0     C13361   4.343   8.454   2.524 -1.0339  0.0944 -0.2322
  102MOL0     O13362   4.411   8.563   2.570  0.3635  0.0408 -0.0207
  102MOL0     C13363   4.364   8.646   2.661  0.9561  0.5696  0.3209
  102MOL0     C13364   4.460   8.711   2.747 -0.3371 -0.0545  0.9343
  102MOL0     C13365   4.423   8.787   2.851  1.6604 -0.4097  0.2530
  102MOL0     C13366   4.284   8.814   2.883 -0.3262 -0.0036  0.7284
  102MOL0     O13367   4.233   8.889   2.989  0.2009  0.6343 -0.1903
  102MOL0     C13368   4.324   8.902   3.103  0.0069 -0.0019  0.2983
  102MOL0     C13369   4.252   8.942   3.229 -0.3750 -0.2043 -0.0374
  102MOL0     C13370   4.202   9.089   3.214 -0.1356  0.0871 -0.7398
  102MOL0     C13371   4.087   9.134   3.311  0.1589  0.0414  0.2112
  102MOL0     C13372   4.009   9.250   3.250  0.8607 -0.1778  1.0319
  102MOL0     C13373   3.868   9.239   3.307  0.0939  0.1140 -0.0034
  102MOL0     C13374   3.790   9.366   3.282  0.2103  0.1751 -0.5529
  102MOL0     C13375   3.652   9.381   3.356 -0.1198  1.0124 -0.0916
  102MOL0    Cl13376   3.580   9.546   3.353  0.0759 -0.4098 -0.0103
  102MOL0     C13377   4.182   8.762   2.795 -0.7340 -0.3657 -0.0901
  102MOL0     C13378   4.226   8.684   2.689  0.2728 -0.0791 -0.9688
  102MOL0     O13379   4.228   8.442   2.530 -0.7448  0.3784  0.0230
  102MOL0     C13380   4.373   8.220   2.420  0.0473 -0.8262  0.5335
  102MOL0     C13381   4.446   8.118   2.363  0.3393  0.2898  0.9919
  102MOL0     N13382   5.029   7.729   2.295  0.0098 -0.2818  0.6619
  102MOL0     N13383   5.121   7.652   2.349 -0.4216 -0.7551 -0.4124
  102MOL0     C13384   5.783   6.738   2.368  0.1372 -0.1704  0.3166
  102MOL0     C13385   5.913   6.702   2.368 -0.4444  0.7848 -0.9307
  102MOL0     C13386   6.325   6.606   2.400 -0.2483 -0.3744  1.0128
  102MOL0     C13387   6.403   6.618   2.282 -0.8474  0.7562 -0.3595
  102MOL0     C13388   6.522   6.548   2.282 -0.4316 -0.1397 -0.0379
  102MOL0     C13389   6.568   6.473   2.384 -0.4057 -0.3464  0.3223
  102MOL0     O13390   6.689   6.407   2.364  0.4340  0.1238 -0.5520
  102MOL0     C13391   6.763   6.337   2.469  0.7554 -1.1664 -0.9369
  102MOL0     C13392   6.848   6.228   2.400 -0.1056  0.3046  0.2537
  102MOL0     C13393   6.774   6.092   2.369  0.5977 -0.2195  0.8359
  102MOL0     C13394   6.706   6.089   2.226 -0.0619 -0.1940  1.5331
  102MOL0     C13395   6.641   5.960   2.198  0.2481  0.9746 -0.4036
  102MOL0     C13396   6.588   5.850   2.160 -0.2300 -0.7727 -0.2065
  102MOL0     C13397   6.487   6.462   2.503 -0.4121  0.5983  0.4275
  102MOL0     C13398   6.367   6.529   2.511 -0.2850 -0.4022  0.6079
  102MOL0     H13399   5.970   6.725   2.695  0.0853 -2.2364  0.1562
  102MOL0     H13400   5.731   6.812   2.694  0.5520  0.1808  0.6156
  102MOL0     H13401   5.519   6.963   2.350 -0.8873 -0.4474 -0.4685
  102MOL0     H13402   5.672   6.999   2.432  0.0867 -0.5639 -0.3356
  102MOL0     H13403   5.529   6.978   2.666 -2.1636  2.3161  1.9618
  102MOL0     H13404   5.393   6.980   2.557  0.0206 -2.7381 -1.6326
  102MOL0     H13405   5.613   7.184   2.572  2.2934 -2.5688 -3.0784
  102MOL0     H13406   5.461   7.191   2.658  4.0246  0.6497  1.5389
  102MOL0     H13407   5.469   7.177   2.351 -0.4360  1.7005 -1.7477
  102MOL0     H13408   5.332   7.191   2.458 -1.1343  0.3006  0.7906
  102MOL0     H13409   5.551   7.416   2.457  0.5395 -1.7292 -0.0207
  102MOL0     H13410   5.400   7.414   2.534  1.3515 -0.8585  0.8411
  102MOL0     H13411   5.450   7.414   2.240 -2.2030 -0.4166 -0.3846
  102MOL0     H13412   5.380   7.545   2.334 -0.3620  1.4693  0.6482
  102MOL0     H13413   5.223   7.397   2.168 -1.6805  0.8842  0.7888
  102MOL0     H13414   5.250   7.264   2.284 -2.5403  0.6704  1.4748
  102MOL0     H13415   5.176   7.416   2.474 -0.1278 -2.7385 -0.4716
  102MOL0     H13416   5.060   7.332   2.374 -2.2673  1.7069  3.0329
  102MOL0     H13417   4.909   7.434   2.228  2.0422 -2.3603  1.6250
  102MOL0     H13418   4.771   7.684   2.088  6.1145  2.7607 -1.0072
  102MOL0     H13419   4.821   7.825   2.160 -1.0202  0.2224 -3.1869
  102MOL0     H13420   4.653   7.623   2.328 -1.1775  0.0981  0.6398
  102MOL0     H13421   4.585   7.761   2.234 -1.0982 -1.1873  0.0805
  102MOL0     H13422   4.615   7.828   2.478  0.6892 -2.2648  0.8799
  102MOL0     H13423   4.776   7.758   2.481 -0.5974 -0.6375  0.8867
  102MOL0     H13424   4.853   7.948   2.370  1.0550  4.4959  0.9439
  102MOL0     H13425   4.744   8.001   2.503 -1.0359  0.6798 -0.2718
  102MOL0     H13426   4.743   8.298   2.350 -0.3528 -0.3462  0.6042
  102MOL0     H13427   4.610   8.462   2.458  3.6712 -1.4262 -1.4807
  102MOL0     H13428   4.567   8.697   2.741 -0.4507 -0.3909 -0.9416
  102MOL0     H13429   4.499   8.840   2.907  1.7175 -1.0577  0.7912
  102MOL0     H13430   4.411   8.963   3.077 -1.1834  0.4801 -3.0027
  102MOL0     H13431   4.371   8.806   3.128 -0.2345 -0.2882 -0.3340
  102MOL0     H13432   4.305   8.936   3.324 -0.1597 -0.0527 -0.1483
  102MOL0     H13433   4.163   8.877   3.229  0.3509 -1.2942  1.9137
  102MOL0     H13434   4.160   9.080   3.114 -1.6094 -1.3775 -0.0261
  102MOL0     H13435   4.279   9.166   3.232 -1.5767  1.2750  0.6446
  102MOL0     H13436   4.027   9.046   3.335 -0.6433 -0.1280 -2.1437
  102MOL0     H13437   4.135   9.166   3.403  0.6374  0.8242 -0.2971
  102MOL0     H13438   4.009   9.232   3.142  3.6759  2.5869  0.4076
  102MOL0     H13439   4.058   9.346   3.267 -1.4399  0.7813  2.8742
  102MOL0     H13440   3.873   9.220   3.415  0.7772  6.1741  1.4495
  102MOL0     H13441   3.810   9.158   3.262  2.7118 -1.6193 -0.4894
  102MOL0     H13442   3.840   9.458   3.312  0.2468  0.1822 -0.6366
  102MOL0     H13443   3.762   9.388   3.179  1.8083  2.4183 -0.5790
  102MOL0     H13444   3.658   9.357   3.463  1.3274  2.1896  0.1205
  102MOL0     H13445   3.566   9.327   3.316  0.0519 -0.6427  1.6044
  102MOL0     H13446   4.080   8.793   2.816 -0.7115  0.4547 -1.1452
  102MOL0     H13447   4.149   8.646   2.624 -0.5475 -2.8604  1.4109
  102MOL0     H13448   4.267   8.208   2.437 -0.2511  0.4857 -0.2886
  102MOL0     H13449   4.398   8.026   2.330  2.4059 -0.7631  0.7309
  102MOL0     H13450   5.724   6.744   2.277 -0.1472 -2.7923  0.2527
  102MOL0     H13451   5.950   6.671   2.272 -1.2203 -0.2590 -0.9041
  102MOL0     H13452   6.387   6.674   2.191  0.6419 -0.0483 -1.1531
  102MOL0     H13453   6.580   6.551   2.190 -2.2996 -2.4957 -1.4353
  102MOL0     H13454   6.706   6.296   2.553 -4.1098  1.1995 -2.7180
  102MOL0     H13455   6.836   6.403   2.517 -0.7607 -1.2772  1.6823
  102MOL0     H13456   6.909   6.271   2.319 -1.9019  0.2486 -1.1952
  102MOL0     H13457   6.924   6.196   2.471  0.9377 -0.0687 -0.9879
  102MOL0     H13458   6.700   6.065   2.445 -0.5542  0.3904 -0.0518
  102MOL0     H13459   6.854   6.016   2.370  0.8310 -0.0692 -1.4687
  102MOL0     H13460   6.631   6.166   2.204 -1.5694 -2.4051 -1.8876
  102MOL0     H13461   6.774   6.119   2.146 -0.5887  0.7644  1.4262
  102MOL0     H13462   6.537   5.760   2.132  0.6493 -2.0951  2.1848
  102MOL0     H13463   6.519   6.399   2.585 -1.3652 -2.7056 -1.5220
  102MOL0     H13464   6.314   6.533   2.606  1.3677  4.1979  1.6201
  103MOL0     O13465   1.856  10.398   3.702 -0.0051 -0.1233 -0.5228
  103MOL0     C13466   1.857  10.507   3.643 -0.8165 -0.7169  0.6211
  103MOL0     O13467   1.789  10.546   3.529 -0.3385  0.2349  0.4479
  103MOL0     C13468   1.743  10.430   3.469 -0.7847  0.2383 -0.0279
  103MOL0     C13469   1.604  10.414   3.451 -0.2128  0.5712 -0.1820
  103MOL0     C13470   1.555  10.300   3.389  0.6548 -0.4685 -0.5492
  103MOL0     C13471   1.632  10.194   3.345 -0.0314  1.0970 -0.0891
  103MOL0     O13472   1.587  10.070   3.305  0.0269 -0.2042  0.5975
  103MOL0     C13473   1.476  10.059   3.224 -1.0755 -0.0600 -0.6059
  103MOL0     C13474   1.346  10.042   3.302 -0.0581 -0.4887  0.3245
  103MOL0     C13475   1.222  10.028   3.213 -0.1052  0.3777 -0.3488
  103MOL0     C13476   1.097  10.038   3.286 -0.3601  0.2847  0.2895
  103MOL0     C13477   0.976  10.016   3.203 -0.2374  0.7623  0.2982
  103MOL0     C13478   0.979   9.877   3.121 -1.0156 -0.0961 -0.2559
  103MOL0     C13479   0.847   9.838   3.058 -0.8049  0.8989 -0.9671
  103MOL0     C13480   0.853   9.856   2.915 -0.5433 -0.4850  1.0132
  103MOL0     N13481   0.728   9.837   2.842  1.0427 -1.1810 -0.4288
  103MOL0     C13482   0.608   9.771   2.881  0.5555  1.4878  0.1533
  103MOL0     C13483   0.525   9.781   2.781 -0.7864 -0.3508  0.3466
  103MOL0     C13484   0.397   9.700   2.762  1.1812 -0.3456 -0.2322
  103MOL0     C13485   0.433   9.571   2.685 -0.1802  0.7244 -0.6594
  103MOL0     C13486   0.323   9.467   2.706 -0.6093  0.7819 -0.0697
  103MOL0     C13487   0.362   9.346   2.619  0.4126  0.4806  0.1342
  103MOL0     O13488   0.252   9.263   2.589  0.0492 -0.1412  0.2124
  103MOL0     C13489   0.158   9.312   2.493 -0.7787  0.4713  0.2454
  103MOL0     C13490   0.060   9.224   2.487  0.1052 -0.1480  0.8646
  103MOL0     C13491  -0.048   9.247   2.393 -0.4350  0.9795  0.4354
  103MOL0     C13492  -0.040   9.362   2.309 -0.4035  0.5692 -0.1378
  103MOL0     C13493  -0.141   9.380   2.208 -0.1934 -0.5020  0.1068
  103MOL0     O13494  -0.138   9.499   2.140 -0.0947 -0.3008  0.7623
  103MOL0     C13495  -0.227   9.513   2.032 -0.1987  0.5549 -0.6636
  103MOL0     C13496  -0.184   9.462   1.902  0.7355 -0.0991 -0.0813
  103MOL0     C13497  -0.278   9.469   1.792  0.4884 -0.4641  0.3013
  103MOL0     C13498  -0.411   9.529   1.811 -0.3506  0.1220 -0.3542
  103MOL0     O13499  -0.497   9.545   1.705 -0.0826 -0.0162 -0.1995
  103MOL0     C13500  -0.638   9.525   1.729  0.1534  0.2341  0.6129
  103MOL0     C13501  -0.723   9.655   1.736 -0.2363  0.2554  0.7901
  103MOL0     C13502  -0.849   9.643   1.812  1.2146 -0.9044 -0.9449
  103MOL0     C13503  -0.950   9.749   1.760 -0.7040  0.4853 -0.4760
  103MOL0     C13504  -1.090   9.732   1.836 -0.0492 -0.6471  0.9374
  103MOL0     C13505  -1.158   9.596   1.821  0.4470 -0.1292  0.1665
  103MOL0     C13506  -1.186   9.531   1.680  0.7169 -1.2073 -0.2366
  103MOL0     C13507  -1.252   9.631   1.587  0.6586  0.1955  0.1796
  103MOL0    Cl13508  -1.388   9.738   1.669 -0.5723  0.0361  0.0040
  103MOL0     C13509  -0.447   9.561   1.945  0.7854 -0.1491  0.6200
  103MOL0     C13510  -0.359   9.555   2.055 -0.0619 -0.7738  0.6683
  103MOL0     O13511  -0.230   9.297   2.197 -0.8361 -0.3354 -0.3451
  103MOL0     C13512   0.072   9.455   2.314  1.1771  0.1638 -0.8719
  103MOL0     C13513   0.161   9.426   2.411 -0.0010 -0.0533  0.4803
  103MOL0     N13514   0.580   9.864   2.682  0.9915  0.6367 -1.3709
  103MOL0     N13515   0.698   9.904   2.728 -0.1138 -0.4528 -0.6898
  103MOL0     C13516   1.771  10.214   3.353  0.2197 -0.4274 -0.5775
  103MOL0     C13517   1.828  10.320   3.419  0.1802 -0.0945  0.9215
  103MOL0     C13518   1.938  10.621   3.701 -0.2526  0.2040 -0.4817
  103MOL0     C13519   1.979  10.739   3.624 -0.2254 -0.3048  0.6669
  103MOL0     C13520   2.043  10.846   3.682 -0.1932  0.5188  0.2500
  103MOL0     C13521   2.096  10.833   3.809  0.0068  0.0701 -0.2157
  103MOL0     O13522   2.171  10.929   3.870 -0.3346  0.5531  0.4592
  103MOL0     C13523   2.277  10.996   3.795  0.9081  0.3950 -0.4684
  103MOL0     C13524   2.380  10.901   3.724  0.3191  0.2360 -0.9133
  103MOL0     C13525   2.483  10.849   3.830  0.1715  0.8187 -0.0002
  103MOL0     C13526   2.610  10.799   3.763  1.2642 -0.5674 -0.3162
  103MOL0     C13527   2.590  10.689   3.666 -0.0880 -1.4165  0.5803
  103MOL0     C13528   2.578  10.592   3.585  0.1731 -0.5653 -0.3271
  103MOL0     C13529   2.075  10.713   3.882  0.8744 -0.6699 -0.0983
  103MOL0     C13530   1.993  10.615   3.831 -0.7832 -0.2410 -0.0411
  103MOL0     H13531   1.531  10.484   3.490 -0.7878 -0.8770  1.4919
  103MOL0     H13532   1.447  10.291   3.397  0.5870  1.2543  1.2352
  103MOL0     H13533   1.494   9.968   3.167 -2.6060  0.0285 -1.2923
  103MOL0     H13534   1.471  10.137   3.147 -0.1515  0.9531  0.3382
  103MOL0     H13535   1.330  10.130   3.366 -0.6983  0.9489 -1.6998
  103MOL0     H13536   1.355   9.952   3.362 -1.1410 -0.4365  0.5850
  103MOL0     H13537   1.226   9.947   3.139  1.5802 -0.4184  0.5684
  103MOL0     H13538   1.221  10.121   3.155  2.0139  1.6479  1.5136
  103MOL0     H13539   1.085   9.972   3.372 -4.2674 -0.8045 -0.8940
  103MOL0     H13540   1.096  10.143   3.316  2.4037 -0.1571  2.3241
  103MOL0     H13541   0.984  10.098   3.131  1.1001  1.5003  1.2330
  103MOL0     H13542   0.880  10.031   3.253 -0.5265  5.3120 -1.1985
  103MOL0     H13543   1.018   9.794   3.181  3.0989  0.0989 -2.3195
  103MOL0     H13544   1.057   9.869   3.045 -0.4491 -1.3836  0.4236
  103MOL0     H13545   0.840   9.736   3.095  1.5611 -0.9261 -4.8766
  103MOL0     H13546   0.760   9.898   3.087 -0.8466  0.6006 -0.4614
  103MOL0     H13547   0.927   9.785   2.875  3.6642  2.6339  2.5821
  103MOL0     H13548   0.885   9.957   2.888  1.0952 -0.3780  3.1152
  103MOL0     H13549   0.591   9.695   2.956 -0.3532  0.3916 -1.1085
  103MOL0     H13550   0.317   9.740   2.699  0.8527  0.8237  0.8878
  103MOL0     H13551   0.364   9.680   2.865  0.3956  1.3068 -0.1321
  103MOL0     H13552   0.525   9.524   2.722 -1.0823 -1.9299 -1.5579
  103MOL0     H13553   0.438   9.609   2.583  3.5544 -1.5865 -1.5224
  103MOL0     H13554   0.305   9.434   2.808 -3.0822 -0.2068 -0.7422
  103MOL0     H13555   0.222   9.497   2.675 -1.7913 -1.1084  1.6857
  103MOL0     H13556   0.430   9.288   2.681 -1.0021  0.0523  1.3408
  103MOL0     H13557   0.411   9.381   2.528 -0.1292  2.6537  0.6234
  103MOL0     H13558   0.050   9.140   2.556 -2.1828  1.2955  2.4424
  103MOL0     H13559  -0.122   9.168   2.384  0.1141  0.4411  0.5947
  103MOL0     H13560  -0.085   9.420   1.889  0.3827 -2.6506  3.7295
  103MOL0     H13561  -0.250   9.434   1.693  0.7648 -0.1725  0.2743
  103MOL0     H13562  -0.654   9.464   1.818 -0.4405  1.4550  1.3763
  103MOL0     H13563  -0.668   9.457   1.648  0.8744 -0.0145  0.5473
  103MOL0     H13564  -0.749   9.697   1.638 -0.6975  2.3268  1.7296
  103MOL0     H13565  -0.667   9.735   1.786 -0.3795  2.6606 -2.5217
  103MOL0     H13566  -0.824   9.661   1.917 -1.2391  0.2271 -0.4871
  103MOL0     H13567  -0.885   9.541   1.800  2.0421 -1.1216 -1.7849
  103MOL0     H13568  -0.912   9.849   1.784 -0.2967 -0.2925  2.5611
  103MOL0     H13569  -0.967   9.743   1.652 -4.0857  3.5023 -0.3120
  103MOL0     H13570  -1.155   9.806   1.788 -0.3535  0.6405  3.1761
  103MOL0     H13571  -1.074   9.758   1.941 -0.6372 -1.7898  1.3232
  103MOL0     H13572  -1.257   9.607   1.866 -0.0181  1.7249 -1.1443
  103MOL0     H13573  -1.109   9.516   1.875  1.3091 -0.0130 -0.4196
  103MOL0     H13574  -1.095   9.487   1.637  1.5414 -1.1779  1.4032
  103MOL0     H13575  -1.257   9.451   1.705 -1.5280  0.5136 -0.8036
  103MOL0     H13576  -1.299   9.568   1.511 -1.6118  0.1162  1.5639
  103MOL0     H13577  -1.164   9.681   1.545  0.2733  1.4259  0.7957
  103MOL0     H13578  -0.542   9.611   1.958  0.5607 -0.2134 -0.6988
  103MOL0     H13579  -0.381   9.607   2.148  1.0092  0.6617  0.1530
  103MOL0     H13580   0.077   9.530   2.236  0.9389 -0.4913 -1.5313
  103MOL0     H13581   0.252   9.483   2.428 -0.5352  0.8743  0.2467
  103MOL0     H13582   1.841  10.152   3.296  0.7593  0.5310 -0.9977
  103MOL0     H13583   1.936  10.320   3.434  0.6286 -0.0760 -1.8818
  103MOL0     H13584   1.963  10.751   3.518 -1.2780 -1.4245  0.6811
  103MOL0     H13585   2.063  10.943   3.636  1.3828  0.2290  0.2747
  103MOL0     H13586   2.327  11.065   3.863  4.0754 -1.1014 -1.0863
  103MOL0     H13587   2.251  11.062   3.711  0.5730  2.3171  1.0810
  103MOL0     H13588   2.321  10.821   3.677 -0.8968 -1.2402  2.7737
  103MOL0     H13589   2.416  10.961   3.640  0.8481 -0.0748 -0.9136
  103MOL0     H13590   2.454  10.753   3.873  1.6098  1.5339  2.7713
  103MOL0     H13591   2.504  10.921   3.910  4.8022  0.4597 -0.6697
  103MOL0     H13592   2.657  10.888   3.719 -1.0239  0.2034 -1.3747
  103MOL0     H13593   2.677  10.769   3.844  0.7505 -1.9790 -0.4000
  103MOL0     H13594   2.566  10.519   3.507  0.2149 -1.1964  0.2485
  103MOL0     H13595   2.104  10.700   3.986  1.3346 -1.4828 -0.3148
  103MOL0     H13596   1.973  10.525   3.888 -1.9646  1.3731  2.2410
  104MOL0     O13597   1.386   4.512   5.242 -1.0532 -0.2692 -0.1421
  104MOL0     C13598   1.498   4.568   5.222 -0.5935  0.0754 -0.4538
  104MOL0     O13599   1.561   4.652   5.318  0.1702 -0.4632 -0.5087
  104MOL0     C13600   1.507   4.674   5.446  0.3057  0.3974  0.9777
  104MOL0     C13601   1.496   4.578   5.543 -0.0048 -0.1226  0.2689
  104MOL0     C13602   1.459   4.604   5.672  0.5897 -0.2091  0.4629
  104MOL0     C13603   1.414   4.729   5.710  0.0104  0.9700  0.4025
  104MOL0     O13604   1.352   4.757   5.833 -0.4060  0.1452  0.4276
  104MOL0     C13605   1.220   4.708   5.830  0.5975 -0.2420  0.1869
  104MOL0     C13606   1.153   4.736   5.966  0.4483  0.4279 -0.7784
  104MOL0     C13607   1.001   4.694   5.975  0.0499 -0.3250 -0.9548
  104MOL0     C13608   0.982   4.547   6.012 -0.4776  0.6473 -0.0355
  104MOL0     C13609   0.839   4.492   6.016  0.2175  0.1601 -1.2401
  104MOL0     C13610   0.752   4.551   6.131 -1.2689 -0.1634 -0.6127
  104MOL0     C13611   0.623   4.486   6.149 -0.8364  0.1660 -0.1053
  104MOL0     C13612   0.525   4.573   6.224 -0.3691  0.5166  0.0307
  104MOL0     N13613   0.399   4.504   6.246  0.9460 -0.3514  0.1611
  104MOL0     C13614   0.319   4.445   6.150  0.3287 -0.5629 -0.3787
  104MOL0     C13615   0.231   4.377   6.217 -0.8694 -0.0471  0.4764
  104MOL0     C13616   0.108   4.295   6.161  1.0057  0.2629  0.0052
  104MOL0     C13617   0.148   4.180   6.070 -0.1201 -0.1001  0.8453
  104MOL0     C13618   0.186   4.231   5.927 -0.4893 -0.4167 -0.4389
  104MOL0     C13619   0.220   4.113   5.836  0.4693 -0.2240  0.7922
  104MOL0     O13620   0.346   4.070   5.883 -0.6116  0.4187  0.1807
  104MOL0     C13621   0.367   3.934   5.893  0.1129 -0.6859 -0.7043
  104MOL0     C13622   0.465   3.892   5.985  1.0588  0.1175  0.0073
  104MOL0     C13623   0.486   3.757   6.015 -0.2964  0.9562 -0.2422
  104MOL0     C13624   0.403   3.667   5.951 -0.7903  0.5499 -0.7833
  104MOL0     C13625   0.413   3.521   5.981 -0.3057  0.0085  0.3466
  104MOL0     O13626   0.344   3.438   5.896 -0.3139  1.0345  0.3842
  104MOL0     C13627   0.372   3.299   5.915 -0.7778  0.5481 -0.6885
  104MOL0     C13628   0.299   3.214   6.006  0.5222  0.2676 -0.7236
  104MOL0     C13629   0.336   3.082   6.023 -0.6598 -0.4336 -0.0223
  104MOL0     C13630   0.436   3.022   5.937 -0.2045 -0.7853 -0.1438
  104MOL0     O13631   0.462   2.886   5.945  0.7982 -0.5723  0.3250
  104MOL0     C13632   0.573   2.841   6.022 -0.5564  0.0552 -0.8587
  104MOL0     C13633   0.629   2.724   5.930  0.1150 -0.2699 -0.2987
  104MOL0     C13634   0.757   2.664   5.998  1.3583  0.2081  0.6169
  104MOL0     C13635   0.745   2.600   6.148 -0.3498  0.3064 -1.0027
  104MOL0     C13636   0.870   2.539   6.196 -0.6096  0.4931  0.6167
  104MOL0     C13637   0.856   2.463   6.333 -0.4941  0.0472  0.3789
  104MOL0     C13638   0.983   2.444   6.408 -0.6513 -0.0511  1.2013
  104MOL0     C13639   0.952   2.370   6.530 -0.6989 -0.0183 -0.2700
  104MOL0    Cl13640   1.104   2.363   6.615  0.0183 -0.4678 -0.1804
  104MOL0     C13641   0.500   3.101   5.836  0.2191 -0.6713 -1.0458
  104MOL0     C13642   0.463   3.239   5.824  0.4917  0.5891 -0.5196
  104MOL0     O13643   0.479   3.487   6.075  0.0678 -0.3945 -0.4266
  104MOL0     C13644   0.322   3.704   5.847  0.3125 -1.0039 -0.1289
  104MOL0     C13645   0.302   3.836   5.814  0.4678 -0.2720  0.5873
  104MOL0     N13646   0.267   4.378   6.353  0.5924  0.6849  0.2773
  104MOL0     N13647   0.372   4.447   6.366  0.1203 -0.5933  0.0207
  104MOL0     C13648   1.430   4.826   5.611  0.2442 -0.1485 -0.6763
  104MOL0     C13649   1.480   4.800   5.481  0.2600  0.5977 -0.4302
  104MOL0     C13650   1.562   4.532   5.106 -0.0445  0.0539  0.6489
  104MOL0     C13651   1.501   4.436   5.010 -0.2379 -0.2662 -0.0894
  104MOL0     C13652   1.556   4.427   4.885  0.5106 -0.1954  0.6866
  104MOL0     C13653   1.666   4.502   4.846 -0.2187 -0.0342 -0.7093
  104MOL0     O13654   1.716   4.489   4.714 -0.2722  0.7811  0.9100
  104MOL0     C13655   1.858   4.457   4.701  0.7463 -0.6297 -0.1370
  104MOL0     C13656   1.894   4.390   4.565 -0.3727  0.3491  0.6554
  104MOL0     C13657   1.813   4.457   4.444  0.1346 -0.6852  0.6735
  104MOL0     C13658   1.871   4.413   4.304 -0.7512  0.4181 -0.0257
  104MOL0     C13659   1.989   4.504   4.276 -0.1601 -0.2584  0.3071
  104MOL0     C13660   2.081   4.578   4.249 -0.6924 -0.4912 -0.2678
  104MOL0     C13661   1.731   4.582   4.934  0.3547  0.5998 -0.3316
  104MOL0     C13662   1.681   4.593   5.065  0.4701  0.0388 -0.5094
  104MOL0     H13663   1.521   4.481   5.501 -2.3470  0.6480 -3.4262
  104MOL0     H13664   1.457   4.524   5.745 -0.3123  1.3075  2.1908
  104MOL0     H13665   1.211   4.600   5.820  0.2785 -0.4296  2.1427
  104MOL0     H13666   1.174   4.771   5.753  0.1157  0.7934  1.2825
  104MOL0     H13667   1.162   4.842   5.993 -3.5081  0.7621 -0.1562
  104MOL0     H13668   1.212   4.682   6.041 -2.6115 -3.1516 -0.7111
  104MOL0     H13669   0.947   4.724   5.885  0.1348 -1.1029 -1.2675
  104MOL0     H13670   0.958   4.752   6.058  2.1378 -1.1759  0.8200
  104MOL0     H13671   1.032   4.492   5.932 -2.3276  0.4611 -1.1034
  104MOL0     H13672   1.021   4.524   6.112 -1.8156  1.1606  0.6308
  104MOL0     H13673   0.849   4.384   6.028 -1.5884 -0.7782 -6.0228
  104MOL0     H13674   0.794   4.525   5.922  0.9251  1.7603 -1.0635
  104MOL0     H13675   0.725   4.651   6.098  0.7001  0.4266 -0.5588
  104MOL0     H13676   0.809   4.565   6.224  0.1418 -2.0389 -1.1220
  104MOL0     H13677   0.583   4.459   6.050 -0.5501 -0.1850 -0.1255
  104MOL0     H13678   0.645   4.395   6.206  0.5843  0.8361  0.4687
  104MOL0     H13679   0.510   4.666   6.168 -3.5772 -1.1224 -2.1340
  104MOL0     H13680   0.562   4.594   6.325 -1.0676  1.0892  0.1783
  104MOL0     H13681   0.330   4.464   6.044  0.8219 -2.5375 -0.7338
  104MOL0     H13682   0.030   4.347   6.106 -1.5750 -3.0255  0.2836
  104MOL0     H13683   0.054   4.253   6.247 -0.8501 -2.7670 -2.4407
  104MOL0     H13684   0.067   4.107   6.063 -1.1440  0.6792  3.3893
  104MOL0     H13685   0.230   4.125   6.118  0.7021  0.2865 -0.0823
  104MOL0     H13686   0.114   4.302   5.884  1.3537  0.5469 -2.1181
  104MOL0     H13687   0.275   4.295   5.927 -0.5935 -0.2738 -0.1904
  104MOL0     H13688   0.228   4.138   5.730 -1.4483 -1.5990  0.2819
  104MOL0     H13689   0.140   4.040   5.849  0.6217 -0.3923  0.7887
  104MOL0     H13690   0.527   3.971   6.027  2.8843 -1.8169  1.1657
  104MOL0     H13691   0.547   3.726   6.099 -0.8689  0.5951  0.0420
  104MOL0     H13692   0.209   3.242   6.061  0.6305 -0.2570 -0.2707
  104MOL0     H13693   0.283   3.020   6.094 -1.1296 -0.4471 -0.3820
  104MOL0     H13694   0.534   2.798   6.115 -4.1093  1.6184 -1.4473
  104MOL0     H13695   0.646   2.921   6.039 -0.0508 -0.3727 -1.0013
  104MOL0     H13696   0.648   2.778   5.837 -4.1463  1.8492 -0.2240
  104MOL0     H13697   0.556   2.644   5.913 -1.6226 -0.0939  4.6519
  104MOL0     H13698   0.842   2.733   5.997  1.5124  0.0549 -1.8131
  104MOL0     H13699   0.781   2.575   5.939  1.0932  0.2989  0.3743
  104MOL0     H13700   0.711   2.677   6.218 -1.3550  0.0910 -1.2344
  104MOL0     H13701   0.679   2.513   6.140  0.7770 -0.6990  0.2485
  104MOL0     H13702   0.922   2.631   6.221 -1.8909  1.0320  1.4065
  104MOL0     H13703   0.918   2.478   6.118 -0.6016  1.9973 -0.5911
  104MOL0     H13704   0.813   2.364   6.319 -0.9781  0.6261 -3.4877
  104MOL0     H13705   0.799   2.524   6.403  0.4884 -0.3867  1.5967
  104MOL0     H13706   1.042   2.375   6.346 -1.1703 -0.5108  1.2150
  104MOL0     H13707   1.033   2.540   6.415 -0.5603  0.1504 -1.1789
  104MOL0     H13708   0.923   2.266   6.511  1.9201 -0.9469  0.4578
  104MOL0     H13709   0.873   2.413   6.593 -0.8836 -1.5622  0.6260
  104MOL0     H13710   0.560   3.046   5.765 -3.1020 -1.9187 -3.0887
  104MOL0     H13711   0.491   3.306   5.743 -2.9385  1.9593 -0.7451
  104MOL0     H13712   0.255   3.631   5.803 -0.6609 -0.3936  0.3039
  104MOL0     H13713   0.235   3.861   5.731  0.0810  0.1082  1.0089
  104MOL0     H13714   1.413   4.933   5.625  3.5956  0.6156 -1.6954
  104MOL0     H13715   1.486   4.883   5.412  0.2695 -0.5586 -1.8522
  104MOL0     H13716   1.414   4.376   5.037  0.0475 -0.2390  0.9575
  104MOL0     H13717   1.504   4.379   4.803  2.7061  0.8206 -1.4471
  104MOL0     H13718   1.893   4.401   4.788  1.4906  0.2056  0.1194
  104MOL0     H13719   1.903   4.556   4.708 -1.7777  0.6401 -0.7060
  104MOL0     H13720   2.002   4.401   4.551 -0.7088  0.8801 -2.3072
  104MOL0     H13721   1.871   4.284   4.578 -0.6969  0.4167  0.6314
  104MOL0     H13722   1.822   4.566   4.450  1.7529 -0.8055  1.0113
  104MOL0     H13723   1.708   4.429   4.435 -0.2543 -0.4281  3.5617
  104MOL0     H13724   1.913   4.313   4.318 -0.2108  0.7126  0.4647
  104MOL0     H13725   1.807   4.404   4.215 -0.9830 -3.0772  0.3390
  104MOL0     H13726   2.167   4.633   4.218 -0.6550  0.2417  1.0702
  104MOL0     H13727   1.813   4.648   4.907 -1.0267  1.8689 -1.6286
  104MOL0     H13728   1.735   4.662   5.130  0.0154 -1.9172  2.1107
  105MOL0     O13729   3.690   4.590   2.465 -0.3535  0.5243 -0.5890
  105MOL0     C13730   3.759   4.658   2.390  0.5549  1.0428  0.7588
  105MOL0     O13731   3.806   4.782   2.427  0.8221 -0.0887 -0.3084
  105MOL0     C13732   3.774   4.853   2.534  0.1716  0.0458  0.3050
  105MOL0     C13733   3.876   4.930   2.590 -0.6879  0.5951  0.4638
  105MOL0     C13734   3.857   5.019   2.696 -0.6211  0.1072 -0.5187
  105MOL0     C13735   3.724   5.020   2.762 -1.1959  0.0061 -0.2863
  105MOL0     O13736   3.697   5.081   2.873 -0.4073  0.2526 -0.3387
  105MOL0     C13737   3.723   4.998   2.985 -0.8157 -0.2196 -0.1998
  105MOL0     C13738   3.620   5.026   3.105  0.3081  0.3921  0.5191
  105MOL0     C13739   3.539   4.899   3.129 -0.6297 -0.3750  0.3015
  105MOL0     C13740   3.437   4.930   3.238  0.7040  1.1244  0.1186
  105MOL0     C13741   3.356   4.799   3.274 -0.8160 -1.3489  0.3044
  105MOL0     C13742   3.237   4.838   3.352 -0.2638  0.4905 -0.4555
  105MOL0     C13743   3.152   4.707   3.376 -0.2535 -0.5601  0.1904
  105MOL0     C13744   3.075   4.713   3.507 -0.2043  0.6594 -0.0305
  105MOL0     N13745   3.164   4.719   3.623 -0.3334 -0.0332 -0.1349
  105MOL0     C13746   3.174   4.825   3.706 -0.7923 -0.5605 -0.6861
  105MOL0     C13747   3.257   4.781   3.800 -0.5043 -0.1364 -1.6984
  105MOL0     C13748   3.275   4.855   3.937 -0.0023  0.2173  0.1257
  105MOL0     C13749   3.351   4.761   4.037 -0.7808 -1.0121  0.3738
  105MOL0     C13750   3.350   4.822   4.176  0.5141  0.4148  0.0294
  105MOL0     C13751   3.212   4.802   4.248  0.7768 -0.6473  0.3297
  105MOL0     O13752   3.172   4.665   4.260  0.0405  0.6310 -0.3243
  105MOL0     C13753   3.049   4.639   4.327 -0.2645 -0.4826  0.3924
  105MOL0     C13754   2.959   4.736   4.379  1.1226  0.1293 -1.1518
  105MOL0     C13755   2.841   4.693   4.433 -0.1794 -0.0448  0.1974
  105MOL0     C13756   2.808   4.567   4.474  0.1587 -0.3472 -1.1059
  105MOL0     C13757   2.699   4.539   4.560 -0.0668 -0.7922  0.4784
  105MOL0     O13758   2.590   4.627   4.559  0.4165  0.4422  0.3542
  105MOL0     C13759   2.485   4.609   4.646  0.1345  0.0627  0.5233
  105MOL0     C13760   2.520   4.596   4.776 -0.5622  0.6308  0.2975
  105MOL0     C13761   2.413   4.590   4.873  0.1265  0.0081  0.5249
  105MOL0     C13762   2.281   4.585   4.835 -0.0022  0.5093  0.5678
  105MOL0     O13763   2.176   4.568   4.929  0.6767 -0.4365  0.7478
  105MOL0     C13764   2.207   4.596   5.069 -1.0526  1.0561 -0.7167
  105MOL0     C13765   2.079   4.632   5.137 -0.2218 -0.0659 -0.0216
  105MOL0     C13766   2.090   4.655   5.291 -0.0734 -0.0350 -0.2282
  105MOL0     C13767   1.953   4.644   5.359  0.8491 -0.3873  0.0632
  105MOL0     C13768   1.974   4.692   5.496  0.6125 -0.7340  0.4373
  105MOL0     C13769   2.002   4.574   5.597 -0.2884  0.3652 -0.6119
  105MOL0     C13770   1.976   4.631   5.744 -0.1521  0.0691 -0.5850
  105MOL0     C13771   2.005   4.529   5.856 -0.1701 -0.1162  0.6561
  105MOL0    Cl13772   2.178   4.470   5.842  0.0535 -0.0796 -0.3455
  105MOL0     C13773   2.252   4.575   4.698 -0.3220 -0.1311  0.4184
  105MOL0     C13774   2.357   4.589   4.608  1.1420 -0.1584 -0.2840
  105MOL0     O13775   2.707   4.434   4.622  0.2967 -0.4569 -0.7151
  105MOL0     C13776   2.907   4.472   4.436 -0.6883 -0.1282 -0.7454
  105MOL0     C13777   3.023   4.512   4.355  0.2214  0.7538 -0.1482
  105MOL0     N13778   3.313   4.663   3.762 -0.0582 -0.0351  0.4441
  105MOL0     N13779   3.264   4.635   3.648  0.2793  1.3054  0.0700
  105MOL0     C13780   3.627   4.932   2.713  0.1873  0.8012 -0.5940
  105MOL0     C13781   3.647   4.848   2.600  0.8114 -0.2545  0.4438
  105MOL0     C13782   3.778   4.619   2.253 -0.5753 -0.6847 -0.3971
  105MOL0     C13783   3.750   4.488   2.214 -0.2809 -0.7659 -0.1826
  105MOL0     C13784   3.769   4.438   2.077  0.1554 -0.7649 -0.8656
  105MOL0     C13785   3.811   4.528   1.978  0.7578  0.2221  0.2131
  105MOL0     O13786   3.822   4.495   1.848  0.2343  0.4808  0.4498
  105MOL0     C13787   3.949   4.509   1.787 -0.2830 -0.6858 -0.0042
  105MOL0     C13788   4.068   4.466   1.873 -0.5243 -0.2413  0.0797
  105MOL0     C13789   4.187   4.461   1.777 -0.1945 -0.8600 -0.2905
  105MOL0     C13790   4.318   4.427   1.838 -0.1571  0.5432  0.6156
  105MOL0     C13791   4.317   4.331   1.943 -0.3232  0.3129  0.5134
  105MOL0     C13792   4.298   4.271   2.050 -0.2977  0.3687  0.4557
  105MOL0     C13793   3.853   4.651   2.024 -0.5804 -0.2751 -0.2096
  105MOL0     C13794   3.844   4.700   2.158 -0.0249  0.2028 -0.9751
  105MOL0     H13795   3.973   4.924   2.543 -1.4294  2.0917 -1.3987
  105MOL0     H13796   3.934   5.086   2.732  0.3321  0.1845 -2.5291
  105MOL0     H13797   3.820   5.028   3.023  1.3850 -3.6616 -2.4982
  105MOL0     H13798   3.725   4.893   2.955 -1.7891  0.4140 -2.7821
  105MOL0     H13799   3.551   5.103   3.072 -0.1328 -0.5009 -0.6884
  105MOL0     H13800   3.678   5.067   3.189 -0.6189 -1.9046  2.4007
  105MOL0     H13801   3.599   4.813   3.160  1.2673  0.4866 -0.7923
  105MOL0     H13802   3.491   4.861   3.038 -0.5122  1.3234 -0.4954
  105MOL0     H13803   3.497   4.963   3.322 -1.4853  1.1324  1.7651
  105MOL0     H13804   3.371   5.010   3.203  1.3315  1.2008 -0.9679
  105MOL0     H13805   3.414   4.733   3.339 -1.6460 -1.3591  1.0511
  105MOL0     H13806   3.297   4.759   3.191 -3.2698 -1.7194  2.1156
  105MOL0     H13807   3.167   4.913   3.313  0.4060  1.3563 -0.0450
  105MOL0     H13808   3.285   4.874   3.444 -1.1847 -0.5892  0.4717
  105MOL0     H13809   3.084   4.709   3.290  1.6483  0.9941 -1.3968
  105MOL0     H13810   3.216   4.618   3.372  1.7850  0.8490 -0.1703
  105MOL0     H13811   3.018   4.620   3.512  2.4071 -0.9782  1.3252
  105MOL0     H13812   3.009   4.801   3.504  1.3067  1.8573  0.5600
  105MOL0     H13813   3.118   4.918   3.697 -0.5427 -0.2446  0.8079
  105MOL0     H13814   3.175   4.882   3.971 -0.3719 -0.4204 -0.4267
  105MOL0     H13815   3.330   4.950   3.925 -1.0334  0.6518 -1.5743
  105MOL0     H13816   3.454   4.740   4.008 -1.0275 -1.4888 -0.1601
  105MOL0     H13817   3.293   4.669   4.041 -6.1095  1.7714 -2.4706
  105MOL0     H13818   3.423   4.772   4.241 -2.4149 -1.5382  2.1105
  105MOL0     H13819   3.377   4.928   4.181 -2.3740  1.5164 -3.3399
  105MOL0     H13820   3.142   4.866   4.193 -0.2762  0.8820  3.2640
  105MOL0     H13821   3.223   4.838   4.350 -0.6736 -1.0008  0.6379
  105MOL0     H13822   2.968   4.843   4.364  0.1151  0.3451 -0.2765
  105MOL0     H13823   2.764   4.766   4.459  0.9963  1.1416  0.4558
  105MOL0     H13824   2.619   4.616   4.818  0.0624 -1.2456 -0.2029
  105MOL0     H13825   2.432   4.588   4.980 -0.7689  0.0455  0.6937
  105MOL0     H13826   2.277   4.680   5.075  1.9486 -1.3788  1.2022
  105MOL0     H13827   2.253   4.503   5.102  1.0327  2.1058 -0.4916
  105MOL0     H13828   1.999   4.560   5.117  0.3958 -0.6487 -0.4439
  105MOL0     H13829   2.033   4.720   5.093  2.1263  2.0660  1.5351
  105MOL0     H13830   2.143   4.747   5.317 -1.8020  0.3738  2.2615
  105MOL0     H13831   2.153   4.573   5.327  0.8898  0.9197  0.3063
  105MOL0     H13832   1.893   4.715   5.302  2.4725  0.5782 -0.5014
  105MOL0     H13833   1.915   4.543   5.347  0.6582 -0.0567 -2.5117
  105MOL0     H13834   1.882   4.743   5.528  0.7294 -0.0110 -0.3482
  105MOL0     H13835   2.057   4.763   5.507  0.8471 -0.9715  0.2060
  105MOL0     H13836   2.103   4.538   5.576 -0.7176 -1.6550  0.5451
  105MOL0     H13837   1.927   4.495   5.590  1.9077 -1.7801 -1.2031
  105MOL0     H13838   2.036   4.721   5.763  0.5382 -0.3577 -0.6959
  105MOL0     H13839   1.872   4.664   5.755 -0.5502 -1.9269  3.2155
  105MOL0     H13840   1.938   4.443   5.845  0.4512 -0.5873  0.4998
  105MOL0     H13841   2.001   4.582   5.951  0.8137  0.4586  0.3868
  105MOL0     H13842   2.154   4.557   4.655  0.1417 -0.0203 -0.7390
  105MOL0     H13843   2.341   4.577   4.501  0.1307 -1.4440 -0.0173
  105MOL0     H13844   2.896   4.366   4.455 -0.5053 -0.2968 -1.5200
  105MOL0     H13845   3.093   4.433   4.331  0.2058  0.7950 -0.3287
  105MOL0     H13846   3.535   4.913   2.767  1.2965  0.5684  1.2904
  105MOL0     H13847   3.567   4.783   2.565 -0.0744  0.8971  0.2509
  105MOL0     H13848   3.682   4.430   2.276 -0.8943  0.0811 -0.0419
  105MOL0     H13849   3.738   4.339   2.047 -0.3308 -1.5833  2.1069
  105MOL0     H13850   3.961   4.616   1.765  1.5450 -0.7198  0.6234
  105MOL0     H13851   3.956   4.463   1.688  0.1000 -0.2689 -0.1739
  105MOL0     H13852   4.090   4.525   1.962 -0.3845 -4.2687  3.0011
  105MOL0     H13853   4.047   4.367   1.916  1.7762 -0.9932 -0.3891
  105MOL0     H13854   4.206   4.558   1.730  1.9771 -2.2234 -2.4597
  105MOL0     H13855   4.164   4.388   1.698  0.6105 -0.3081 -1.0559
  105MOL0     H13856   4.378   4.386   1.757  0.1538 -3.1442  2.5050
  105MOL0     H13857   4.365   4.520   1.873 -1.5327  0.7118  2.1910
  105MOL0     H13858   4.274   4.232   2.147 -1.1862  0.2466  0.1963
  105MOL0     H13859   3.895   4.720   1.952 -1.5266 -1.1510 -1.6411
  105MOL0     H13860   3.888   4.791   2.198  1.2394 -0.0961 -1.6272
  106MOL0     O13861   1.727   0.563   8.298 -0.1664  0.8919 -0.0309
  106MOL0     C13862   1.754   0.476   8.382  0.8121 -0.2931  0.0444
  106MOL0     O13863   1.670   0.380   8.425 -0.1939  0.8168  0.1336
  106MOL0     C13864   1.547   0.351   8.371  0.0971 -0.1570  0.7286
  106MOL0     C13865   1.440   0.432   8.399 -0.1664 -0.3746 -0.5161
  106MOL0     C13866   1.309   0.391   8.358  0.5725  0.1319  0.1783
  106MOL0     C13867   1.284   0.272   8.295  0.6503  0.8621 -0.1947
  106MOL0     O13868   1.153   0.248   8.268  0.2924  0.3395 -0.1716
  106MOL0     C13869   1.123   0.123   8.209 -0.3440 -0.0420 -0.1931
  106MOL0     C13870   0.990   0.130   8.132 -0.1146  0.5157  0.2440
  106MOL0     C13871   0.867   0.199   8.196 -0.3013  0.1960 -0.5074
  106MOL0     C13872   0.753   0.173   8.095  0.2023 -0.5345  0.3272
  106MOL0     C13873   0.650   0.291   8.092  0.3956  0.1285  0.0613
  106MOL0     C13874   0.542   0.254   8.001  0.3667  0.3493  0.3737
  106MOL0     C13875   0.424   0.360   8.000 -0.0020 -0.2236 -1.0312
  106MOL0     C13876   0.291   0.281   7.996  0.9626 -0.5280 -0.5895
  106MOL0     N13877   0.183   0.375   7.952  0.3365 -0.0149  0.5365
  106MOL0     C13878   0.139   0.476   8.032 -0.2684 -0.1155  0.9978
  106MOL0     C13879   0.047   0.547   7.959 -0.0335 -0.6202  0.6794
  106MOL0     C13880  -0.006   0.675   8.000 -0.5192  0.7388  0.0797
  106MOL0     C13881  -0.127   0.665   8.098 -0.1169 -0.7894 -0.5139
  106MOL0     C13882  -0.254   0.614   8.023 -0.4807 -0.4809 -0.0331
  106MOL0     C13883  -0.371   0.662   8.113 -0.3138 -0.3486 -0.3866
  106MOL0     O13884  -0.391   0.569   8.222 -0.1196  0.0192  0.2965
  106MOL0     C13885  -0.437   0.619   8.341  0.2618  0.1973 -0.0731
  106MOL0     C13886  -0.526   0.726   8.362  0.2331  0.0363  0.7990
  106MOL0     C13887  -0.583   0.753   8.484 -0.6124  0.1095 -0.9910
  106MOL0     C13888  -0.547   0.680   8.593 -0.3978 -0.2609 -0.4759
  106MOL0     C13889  -0.613   0.697   8.720 -0.1405 -0.0558 -0.6614
  106MOL0     O13890  -0.579   0.606   8.820  0.1957 -0.1854 -0.4905
  106MOL0     C13891  -0.662   0.595   8.932 -0.2734 -0.4869 -0.7596
  106MOL0     C13892  -0.694   0.463   8.974  0.0532  0.1274  0.2477
  106MOL0     C13893  -0.788   0.446   9.073 -0.0912  0.2097  0.3244
  106MOL0     C13894  -0.844   0.546   9.147  1.1584  0.5951 -0.1986
  106MOL0     O13895  -0.928   0.519   9.257  0.0164  0.3541 -0.5885
  106MOL0     C13896  -0.876   0.429   9.351  0.4415 -0.3545 -0.0764
  106MOL0     C13897  -0.969   0.425   9.469 -0.2983  0.7994 -0.5037
  106MOL0     C13898  -0.906   0.345   9.581 -0.3333 -1.3787  0.6101
  106MOL0     C13899  -0.958   0.383   9.722 -0.0574 -0.5338  0.5622
  106MOL0     C13900  -0.841   0.429   9.816 -0.4175 -0.1175 -0.6871
  106MOL0     C13901  -0.882   0.515   9.932 -0.7053 -0.2951 -0.1309
  106MOL0     C13902  -0.764   0.525  10.027  0.2468  0.5427  1.0717
  106MOL0     C13903  -0.779   0.430  10.147 -0.8634  0.3745  0.3262
  106MOL0    Cl13904  -0.731   0.257  10.106  0.5707 -0.0153  0.1131
  106MOL0     C13905  -0.813   0.678   9.114  0.4588 -0.0346 -0.0227
  106MOL0     C13906  -0.726   0.705   9.001 -0.3359  0.7924 -0.4970
  106MOL0     O13907  -0.696   0.780   8.731 -0.2886  0.0449  0.7527
  106MOL0     C13908  -0.441   0.579   8.578  0.3633 -0.9648  0.0758
  106MOL0     C13909  -0.397   0.544   8.448 -0.6688 -0.2126  0.3174
  106MOL0     N13910   0.048   0.499   7.828 -0.7308  0.3801 -0.3535
  106MOL0     N13911   0.140   0.402   7.827  0.3799 -0.2915 -0.1333
  106MOL0     C13912   1.392   0.199   8.255  1.1132  0.2228 -0.4179
  106MOL0     C13913   1.520   0.234   8.292 -0.7590  0.1638  0.1063
  106MOL0     C13914   1.880   0.496   8.453  0.1213 -0.0859 -0.1189
  106MOL0     C13915   1.958   0.609   8.434 -0.3909 -0.6766 -0.0761
  106MOL0     C13916   2.075   0.622   8.512 -0.1993  0.3797  0.3440
  106MOL0     C13917   2.116   0.517   8.606 -0.6188 -0.6956 -1.4174
  106MOL0     O13918   2.237   0.500   8.665  0.6212  0.4227  0.5013
  106MOL0     C13919   2.304   0.624   8.695  0.5755  0.4748 -1.1595
  106MOL0     C13920   2.272   0.708   8.822  0.4283 -0.5702 -0.4052
  106MOL0     C13921   2.296   0.617   8.946  0.0541  0.3509  0.4798
  106MOL0     C13922   2.256   0.683   9.084 -0.2689 -0.0444  0.3852
  106MOL0     C13923   2.348   0.792   9.103  0.9461 -0.1408  0.0024
  106MOL0     C13924   2.429   0.884   9.106 -0.1801  0.1912  0.2631
  106MOL0     C13925   2.023   0.417   8.630  0.9778  0.1616  0.4238
  106MOL0     C13926   1.906   0.414   8.564 -0.6495  0.4931 -0.7972
  106MOL0     H13927   1.454   0.515   8.469  1.1216 -0.0822 -1.0781
  106MOL0     H13928   1.221   0.448   8.389 -0.9913 -0.9819 -1.9031
  106MOL0     H13929   1.114   0.056   8.295  0.0005  0.8468  0.5612
  106MOL0     H13930   1.194   0.076   8.140  2.0879  0.0663  2.0629
  106MOL0     H13931   0.962   0.026   8.112 -1.6431  1.2891 -2.1495
  106MOL0     H13932   1.005   0.156   8.026  0.0980 -0.2571  0.0819
  106MOL0     H13933   0.884   0.307   8.199 -0.4965  0.2527  3.0217
  106MOL0     H13934   0.847   0.163   8.298  1.0035  2.4803  0.6232
  106MOL0     H13935   0.794   0.174   7.994 -0.1414 -2.4586  0.1324
  106MOL0     H13936   0.725   0.069   8.116 -3.2839  0.4372  1.1442
  106MOL0     H13937   0.710   0.380   8.073  2.0166 -1.1453 -1.0097
  106MOL0     H13938   0.591   0.293   8.184 -1.4732  0.7844 -1.0891
  106MOL0     H13939   0.517   0.149   8.017 -1.9887  0.7238 -0.4511
  106MOL0     H13940   0.581   0.265   7.899  1.8610 -0.2339  0.8511
  106MOL0     H13941   0.432   0.419   8.091 -2.7072 -0.2940 -0.6766
  106MOL0     H13942   0.432   0.430   7.916  0.3210  1.1888  0.1378
  106MOL0     H13943   0.271   0.248   8.098  1.4790 -1.5907 -0.8230
  106MOL0     H13944   0.278   0.189   7.939 -0.4179 -1.0327  0.4875
  106MOL0     H13945   0.192   0.497   8.125  3.9583  1.3103 -1.4492
  106MOL0     H13946  -0.030   0.733   7.910  0.1021  0.1804 -0.4571
  106MOL0     H13947   0.068   0.737   8.051 -1.2630  2.3800 -0.7672
  106MOL0     H13948  -0.150   0.764   8.139 -3.4202 -1.2287 -1.0572
  106MOL0     H13949  -0.106   0.597   8.181  2.1847 -1.1825 -1.3464
  106MOL0     H13950  -0.258   0.654   7.922  5.0810  1.0967  0.0369
  106MOL0     H13951  -0.256   0.505   8.016 -3.1881 -0.7162  2.3827
  106MOL0     H13952  -0.465   0.671   8.059 -0.0933 -1.6790 -1.0473
  106MOL0     H13953  -0.356   0.767   8.141  0.8074 -0.9176  1.3102
  106MOL0     H13954  -0.562   0.790   8.282  0.9107  2.2928  2.2348
  106MOL0     H13955  -0.655   0.834   8.491  0.6139  1.1255  0.1631
  106MOL0     H13956  -0.657   0.377   8.921  0.2352 -0.0375  0.6399
  106MOL0     H13957  -0.818   0.343   9.091 -1.6718  0.5551 -0.1647
  106MOL0     H13958  -0.784   0.480   9.378 -0.7528 -0.1516  4.2473
  106MOL0     H13959  -0.849   0.330   9.312  2.3114  0.1131 -0.0702
  106MOL0     H13960  -1.066   0.382   9.446  0.4791 -2.2174  1.3146
  106MOL0     H13961  -0.972   0.525   9.514 -0.2033  0.3234  0.5961
  106MOL0     H13962  -0.800   0.356   9.557 -1.3084  2.0157 -3.1926
  106MOL0     H13963  -0.926   0.241   9.552  2.4801 -1.6711 -0.6467
  106MOL0     H13964  -1.021   0.472   9.721 -0.7777 -0.9283 -3.0590
  106MOL0     H13965  -1.007   0.300   9.774 -0.3387  1.9334  4.6918
  106MOL0     H13966  -0.760   0.481   9.764  2.0013 -2.7158  0.2170
  106MOL0     H13967  -0.798   0.335   9.854 -0.3762  0.7129  1.4503
  106MOL0     H13968  -0.969   0.478   9.987 -0.7601  0.7252  0.5050
  106MOL0     H13969  -0.905   0.615   9.893  2.3586  0.2476 -0.8690
  106MOL0     H13970  -0.674   0.493   9.974  0.7988  1.6766  1.3009
  106MOL0     H13971  -0.757   0.624  10.073 -0.5581  1.1902 -0.1421
  106MOL0     H13972  -0.877   0.436  10.194 -0.7433  1.8725  0.4267
  106MOL0     H13973  -0.711   0.468  10.224  0.4646 -0.0708 -0.5817
  106MOL0     H13974  -0.858   0.751   9.181 -1.8406 -2.9784  1.9476
  106MOL0     H13975  -0.702   0.809   8.978 -3.5052  2.1007  1.3303
  106MOL0     H13976  -0.415   0.514   8.661  3.8810 -0.3465 -0.3951
  106MOL0     H13977  -0.333   0.457   8.435 -0.2986 -0.1139  1.3812
  106MOL0     H13978   1.384   0.116   8.186 -3.5225 -2.1532  2.4649
  106MOL0     H13979   1.600   0.164   8.275  1.6987  3.2597 -2.2012
  106MOL0     H13980   1.945   0.685   8.358  2.5256 -1.6498 -1.6905
  106MOL0     H13981   2.143   0.702   8.486  2.0457 -1.7004 -0.5721
  106MOL0     H13982   2.301   0.692   8.609 -0.4572 -0.0084 -1.5341
  106MOL0     H13983   2.409   0.594   8.701  0.7960  0.3031 -4.2767
  106MOL0     H13984   2.330   0.800   8.837 -1.5627  0.6604  0.1567
  106MOL0     H13985   2.166   0.733   8.830  0.1620 -1.2924 -1.5251
  106MOL0     H13986   2.401   0.590   8.940  0.0136  0.4878 -2.8861
  106MOL0     H13987   2.235   0.527   8.940  1.5548 -0.7203  0.7991
  106MOL0     H13988   2.153   0.719   9.086 -0.5572 -0.6323 -1.9147
  106MOL0     H13989   2.270   0.600   9.154  1.3638 -0.3559 -0.2725
  106MOL0     H13990   2.492   0.971   9.099 -0.1050  0.0649 -0.8381
  106MOL0     H13991   2.040   0.346   8.711 -0.4414 -0.5679  0.1179
  106MOL0     H13992   1.850   0.325   8.589  1.0804  0.4094  3.7511
  107MOL0     O13993   8.593   4.391   0.108  0.0518 -0.0058  0.3452
  107MOL0     C13994   8.557   4.510   0.114 -1.7694 -0.4248  0.1004
  107MOL0     O13995   8.624   4.603   0.189  0.2274  0.2356  0.5542
  107MOL0     C13996   8.721   4.546   0.266 -0.9327  0.1061 -0.7148
  107MOL0     C13997   8.826   4.453   0.230 -0.1758 -0.4038 -0.5242
  107MOL0     C13998   8.929   4.423   0.324  0.1098 -0.9756 -0.0359
  107MOL0     C13999   8.935   4.487   0.447  0.1374 -0.4783  0.8477
  107MOL0     O14000   9.023   4.462   0.544 -0.2314 -0.1840  0.3092
  107MOL0     C14001   9.143   4.385   0.522  0.5139 -0.2667  0.3341
  107MOL0     C14002   9.141   4.239   0.550  0.2460 -1.6679 -0.3598
  107MOL0     C14003   9.084   4.205   0.692  0.1455 -0.2828  0.1169
  107MOL0     C14004   9.188   4.115   0.763  0.3945 -0.1337 -0.9430
  107MOL0     C14005   9.296   4.183   0.839  0.8500 -0.1173 -0.0433
  107MOL0     C14006   9.416   4.217   0.749 -0.8381 -0.2805  0.3617
  107MOL0     C14007   9.548   4.276   0.816 -0.0628 -0.4210  0.7262
  107MOL0     C14008   9.673   4.290   0.729 -0.5059 -0.5373 -0.9719
  107MOL0     N14009   9.714   4.171   0.654 -0.2080  1.3272 -0.4871
  107MOL0     C14010   9.734   4.038   0.691  0.5642 -0.1774  0.3284
  107MOL0     C14011   9.761   3.973   0.576 -0.6627 -0.4944 -0.9926
  107MOL0     C14012   9.788   3.824   0.587 -0.6779  0.1261  0.5773
  107MOL0     C14013   9.943   3.785   0.617 -0.7902  0.1974  0.0063
  107MOL0     C14014  10.049   3.835   0.504  0.3735 -0.1558  0.9198
  107MOL0     C14015  10.189   3.777   0.539  0.0109 -0.3827  0.3305
  107MOL0     O14016  10.201   3.635   0.531 -0.4103 -0.3162  0.2486
  107MOL0     C14017  10.329   3.575   0.522 -0.4041  0.0703 -0.4679
  107MOL0     C14018  10.342   3.445   0.466 -0.2851 -0.1540  0.4439
  107MOL0     C14019  10.467   3.379   0.457 -0.2460 -1.0788 -0.3791
  107MOL0     C14020  10.585   3.438   0.516  0.1797 -0.5582 -0.0568
  107MOL0     C14021  10.714   3.363   0.509 -1.6541 -0.3462 -0.7509
  107MOL0     O14022  10.821   3.418   0.568 -0.1476 -0.1307 -0.1922
  107MOL0     C14023  10.948   3.376   0.546 -0.7976 -0.2355 -0.9791
  107MOL0     C14024  10.989   3.258   0.607  0.2514 -0.4723  0.5026
  107MOL0     C14025  11.108   3.202   0.585 -0.2619 -0.3266 -0.2298
  107MOL0     C14026  11.211   3.277   0.518 -0.1063  0.4391  0.7616
  107MOL0     O14027  11.338   3.216   0.499  0.3063  0.0786 -0.6540
  107MOL0     C14028  11.442   3.261   0.413  0.2299  0.3941 -0.7670
  107MOL0     C14029  11.419   3.185   0.279 -0.3162  0.5031  0.4746
  107MOL0     C14030  11.528   3.204   0.186 -0.6572  0.0461  1.5429
  107MOL0     C14031  11.646   3.130   0.225 -0.2211  0.1375  0.6798
  107MOL0     C14032  11.779   3.201   0.211  0.0315 -0.2613  0.1302
  107MOL0     C14033  11.891   3.096   0.212 -0.3972  0.1247  0.8281
  107MOL0     C14034  12.029   3.156   0.261  0.3092  1.2088  0.0679
  107MOL0     C14035  12.121   3.036   0.255 -0.0618 -0.3561 -0.6137
  107MOL0    Cl14036  12.093   2.944   0.406  0.1993 -0.0788 -0.7225
  107MOL0     C14037  11.175   3.394   0.451  0.3300  0.0455 -0.6144
  107MOL0     C14038  11.038   3.443   0.458  0.2261 -0.6029 -0.2754
  107MOL0     O14039  10.712   3.250   0.454  1.1117 -0.0319 -0.2305
  107MOL0     C14040  10.573   3.563   0.569 -0.8285 -0.0731  0.4885
  107MOL0     C14041  10.449   3.633   0.565  0.0738  0.1746 -0.7490
  107MOL0     N14042   9.786   4.056   0.473 -0.5231 -0.1715 -0.5361
  107MOL0     N14043   9.752   4.173   0.521 -0.6667  0.1040 -0.3027
  107MOL0     C14044   8.838   4.573   0.479 -1.0996 -0.3032  0.8855
  107MOL0     C14045   8.735   4.600   0.391  0.0914 -0.1359  0.1304
  107MOL0     C14046   8.438   4.550   0.043 -0.1145 -0.1470 -0.8173
  107MOL0     C14047   8.382   4.482  -0.065 -0.2868 -0.3072  0.3734
  107MOL0     C14048   8.260   4.521  -0.123  0.3205 -0.5950 -0.1980
  107MOL0     C14049   8.193   4.631  -0.065  0.0381  0.5134  0.6108
  107MOL0     O14050   8.072   4.663  -0.125 -0.2201  0.5152 -0.1356
  107MOL0     C14051   7.965   4.705  -0.031 -0.2630 -0.1507  0.7740
  107MOL0     C14052   7.829   4.657  -0.094  0.5060  0.3847 -0.1132
  107MOL0     C14053   7.767   4.561   0.004 -0.2966  0.5046  0.5000
  107MOL0     C14054   7.626   4.507  -0.046  0.1732  1.0605 -0.8961
  107MOL0     C14055   7.534   4.618  -0.064 -0.7202 -0.0439 -0.2461
  107MOL0     C14056   7.455   4.709  -0.079  0.0621  0.2041 -0.1034
  107MOL0     C14057   8.248   4.704   0.041  0.0429  0.2372  0.2336
  107MOL0     C14058   8.373   4.669   0.091  0.9477  0.2963  1.0136
  107MOL0     H14059   8.824   4.404   0.134  0.3209 -1.6834  0.0906
  107MOL0     H14060   9.004   4.350   0.298  0.2966 -1.8209  2.5910
  107MOL0     H14061   9.222   4.441   0.573 -1.6169  1.7399  1.6313
  107MOL0     H14062   9.171   4.399   0.417  0.5924  2.3776  0.6407
  107MOL0     H14063   9.241   4.197   0.533  1.6803  1.6286 -0.9304
  107MOL0     H14064   9.074   4.199   0.473 -0.7375 -0.7540 -0.0070
  107MOL0     H14065   8.996   4.140   0.688  0.3952 -0.6229 -3.4753
  107MOL0     H14066   9.065   4.295   0.751  4.3063 -0.5181  2.1223
  107MOL0     H14067   9.139   4.044   0.829 -2.6733  1.8683 -0.8629
  107MOL0     H14068   9.231   4.047   0.690 -0.8195  0.3154 -2.1053
  107MOL0     H14069   9.337   4.133   0.927 -0.5246  2.7696  2.4233
  107MOL0     H14070   9.260   4.274   0.888 -1.2845  0.6634 -2.8091
  107MOL0     H14071   9.372   4.294   0.684 -0.6349  0.8579  1.5250
  107MOL0     H14072   9.440   4.130   0.688 -0.3712  1.3954 -1.9960
  107MOL0     H14073   9.524   4.373   0.861 -1.3188 -0.4833  0.2356
  107MOL0     H14074   9.569   4.211   0.902 -1.0724  0.6561  1.8326
  107MOL0     H14075   9.762   4.318   0.786 -0.0891 -1.5385 -1.1132
  107MOL0     H14076   9.656   4.372   0.657  1.9870  0.8781 -0.0797
  107MOL0     H14077   9.738   3.993   0.789 -0.8196 -3.5239 -0.9787
  107MOL0     H14078   9.768   3.792   0.484 -2.4339  2.6281  0.0487
  107MOL0     H14079   9.714   3.787   0.658 -1.7429  0.3637 -0.3833
  107MOL0     H14080   9.951   3.676   0.615 -0.0079  0.1932  1.7138
  107MOL0     H14081   9.972   3.836   0.709  0.6604  0.0287 -0.3240
  107MOL0     H14082  10.034   3.793   0.404  0.4534 -1.7029  1.5197
  107MOL0     H14083  10.054   3.944   0.495  0.2593 -0.2570 -0.5470
  107MOL0     H14084  10.223   3.804   0.640 -0.7515 -1.2805  0.8411
  107MOL0     H14085  10.259   3.827   0.472  1.6494 -0.3006  2.0336
  107MOL0     H14086  10.250   3.398   0.433 -0.4172 -1.0334  1.9713
  107MOL0     H14087  10.463   3.282   0.409 -0.8525 -1.0360 -0.4179
  107MOL0     H14088  10.926   3.186   0.658  0.1297 -1.9285 -1.5989
  107MOL0     H14089  11.143   3.105   0.617  1.3663  0.3537  0.1613
  107MOL0     H14090  11.532   3.238   0.469 -0.5541 -2.0304 -0.3971
  107MOL0     H14091  11.450   3.368   0.393 -0.4803  0.6248  0.1342
  107MOL0     H14092  11.324   3.209   0.229 -1.0680 -0.6024  1.3188
  107MOL0     H14093  11.403   3.078   0.295 -3.3325 -0.0592 -4.2225
  107MOL0     H14094  11.550   3.311   0.180  0.1266 -0.1978 -0.3318
  107MOL0     H14095  11.491   3.182   0.086 -4.3153  0.7708  2.5653
  107MOL0     H14096  11.640   3.093   0.328  4.9297 -0.9220  0.8574
  107MOL0     H14097  11.655   3.050   0.151  0.4080  1.3047 -0.5519
  107MOL0     H14098  11.795   3.282   0.284  0.6986  0.8573 -1.2075
  107MOL0     H14099  11.781   3.238   0.108 -2.2055 -1.1502 -0.2780
  107MOL0     H14100  11.906   3.078   0.105  1.8070  2.7437  0.5811
  107MOL0     H14101  11.863   3.020   0.285  1.2132 -0.8307  0.4955
  107MOL0     H14102  12.067   3.221   0.181  3.3235  0.0030  0.3915
  107MOL0     H14103  12.032   3.209   0.356 -1.1784  1.6627 -0.0951
  107MOL0     H14104  12.227   3.060   0.246 -0.2255  1.2320  0.9961
  107MOL0     H14105  12.102   2.984   0.160  1.7868  0.5331 -1.5304
  107MOL0     H14106  11.235   3.465   0.394 -0.5403  0.8490 -0.5535
  107MOL0     H14107  11.008   3.535   0.410 -2.2773 -1.6254 -0.8228
  107MOL0     H14108  10.660   3.604   0.620 -1.1493 -1.8985  2.6528
  107MOL0     H14109  10.440   3.733   0.607 -1.8040  0.5717 -1.9485
  107MOL0     H14110   8.840   4.626   0.574 -2.6282  0.0701  0.7467
  107MOL0     H14111   8.672   4.681   0.427 -1.2277 -0.3919 -1.4503
  107MOL0     H14112   8.426   4.391  -0.103  3.3361  0.1751  2.9148
  107MOL0     H14113   8.221   4.458  -0.202 -1.7969  0.8619 -0.4143
  107MOL0     H14114   7.967   4.813  -0.011  2.2444  0.3562 -1.6173
  107MOL0     H14115   7.981   4.653   0.064  0.4818  1.5697  1.6476
  107MOL0     H14116   7.762   4.744  -0.103 -1.1867 -1.0323 -2.0520
  107MOL0     H14117   7.846   4.615  -0.193 -1.1653 -0.3628 -0.1089
  107MOL0     H14118   7.754   4.612   0.100 -1.3985  0.3337  0.4552
  107MOL0     H14119   7.834   4.475   0.017 -0.2623  0.5147  0.3954
  107MOL0     H14120   7.644   4.446  -0.135  2.0610  0.1116  0.0712
  107MOL0     H14121   7.582   4.445   0.032  1.4180 -1.9100 -2.4251
  107MOL0     H14122   7.388   4.789  -0.100 -1.4152 -0.6508  1.1354
  107MOL0     H14123   8.196   4.787   0.089  0.6520 -1.4404  4.1406
  107MOL0     H14124   8.413   4.720   0.177  0.3709  1.6047  0.5347
  108MOL0     O14125  10.680   0.816   3.735  0.5663  0.1714 -0.0559
  108MOL0     C14126  10.681   0.936   3.697  0.3292  0.3975  0.2363
  108MOL0     O14127  10.788   1.020   3.678 -0.1403  0.4365  0.5544
  108MOL0     C14128  10.919   0.978   3.689  0.1275 -0.3101 -0.5010
  108MOL0     C14129  10.993   1.047   3.787  0.1748  0.6614 -0.4909
  108MOL0     C14130  11.136   1.017   3.795  0.5122  0.0802  0.0374
  108MOL0     C14131  11.205   0.931   3.703 -0.1274  0.3488 -0.0962
  108MOL0     O14132  11.342   0.910   3.701  0.4531  0.1036 -0.7950
  108MOL0     C14133  11.423   0.981   3.798  0.3209  0.6872 -0.2066
  108MOL0     C14134  11.563   0.932   3.809 -1.0123 -0.2974  0.1303
  108MOL0     C14135  11.654   0.967   3.691  0.3325  0.7876  0.6735
  108MOL0     C14136  11.699   1.105   3.694  0.0960 -0.2365  0.3729
  108MOL0     C14137  11.833   1.123   3.770  0.2326 -0.4726  0.3574
  108MOL0     C14138  11.963   1.115   3.693 -0.5554  0.0905 -0.5988
  108MOL0     C14139  12.090   1.140   3.779  0.6825 -0.1133 -0.1742
  108MOL0     C14140  12.213   1.165   3.693 -1.0212  0.2189  1.0693
  108MOL0     N14141  12.261   1.041   3.612  0.1120  0.5081  0.8476
  108MOL0     C14142  12.298   0.916   3.658 -0.3333  0.9387 -0.4371
  108MOL0     C14143  12.314   0.838   3.553  0.1452  0.3007 -0.1046
  108MOL0     C14144  12.361   0.700   3.569  0.0534 -0.0937 -0.6151
  108MOL0     C14145  12.261   0.603   3.652  0.4767  0.1944  0.2569
  108MOL0     C14146  12.295   0.457   3.647  1.0264  0.1619 -0.4343
  108MOL0     C14147  12.426   0.421   3.718  0.3625  1.0069 -0.3301
  108MOL0     O14148  12.423   0.280   3.735 -0.9895  0.3161 -0.6521
  108MOL0     C14149  12.521   0.208   3.800  0.4435 -0.1714  0.1227
  108MOL0     C14150  12.515   0.078   3.819  0.0603  1.4849  0.0685
  108MOL0     C14151  12.613  -0.007   3.883 -0.3113 -0.2245  0.9148
  108MOL0     C14152  12.718   0.057   3.942 -0.8651 -0.1393  0.3497
  108MOL0     C14153  12.833  -0.014   4.004  0.4067 -0.0407 -0.3100
  108MOL0     O14154  12.801  -0.126   4.077 -0.3838  0.2266 -0.0736
  108MOL0     C14155  12.883  -0.173   4.179 -0.0579 -0.3488 -0.4391
  108MOL0     C14156  12.841  -0.168   4.311 -0.6661 -0.0133 -0.6847
  108MOL0     C14157  12.919  -0.235   4.410  0.3196 -0.0437 -0.0306
  108MOL0     C14158  13.040  -0.294   4.382 -0.0548 -0.2882  0.6566
  108MOL0     O14159  13.096  -0.356   4.482 -0.4936  0.0962  0.0729
  108MOL0     C14160  13.204  -0.443   4.469 -0.1405 -0.7622  0.0434
  108MOL0     C14161  13.178  -0.524   4.591 -0.2734 -0.7354 -0.4675
  108MOL0     C14162  13.060  -0.619   4.573  0.1355 -0.0886 -0.1662
  108MOL0     C14163  13.044  -0.718   4.688 -0.4491 -0.8351  0.1837
  108MOL0     C14164  12.936  -0.681   4.793  0.2749 -0.1394 -0.1572
  108MOL0     C14165  12.864  -0.806   4.858 -0.0958 -0.6710  0.8600
  108MOL0     C14166  12.744  -0.760   4.950  0.3436  0.1755 -0.4175
  108MOL0     C14167  12.784  -0.739   5.093  0.1088 -0.1997 -0.5021
  108MOL0    Cl14168  12.631  -0.737   5.179  0.2708  0.2511  0.2407
  108MOL0     C14169  13.085  -0.285   4.246  0.7420 -0.3352 -0.4691
  108MOL0     C14170  13.007  -0.224   4.148  0.6171 -0.2473  0.6544
  108MOL0     O14171  12.943   0.038   3.996  1.3357  0.6400  0.7580
  108MOL0     C14172  12.721   0.197   3.940  1.7120  0.4363 -0.7344
  108MOL0     C14173  12.628   0.277   3.864  0.7178 -0.2261 -0.8351
  108MOL0     N14174  12.294   0.904   3.433 -1.0055 -0.3952 -0.1734
  108MOL0     N14175  12.281   1.035   3.472 -0.3677  0.1553  0.2748
  108MOL0     C14176  11.127   0.868   3.604 -0.6843 -0.3028  0.3928
  108MOL0     C14177  10.988   0.888   3.601 -0.4299  0.1404  0.0600
  108MOL0     C14178  10.549   1.002   3.678  0.9836 -0.8174 -0.2930
  108MOL0     C14179  10.436   0.931   3.703  0.0214  0.1660  0.2730
  108MOL0     C14180  10.303   0.989   3.724  0.0264 -0.3096 -0.2385
  108MOL0     C14181  10.293   1.132   3.719 -0.7671 -0.3105  0.2528
  108MOL0     O14182  10.172   1.190   3.740  0.1472 -0.5552 -0.1281
  108MOL0     C14183  10.164   1.334   3.746 -0.6440  0.2033  0.1414
  108MOL0     C14184  10.019   1.373   3.727  0.0497 -0.3161  0.4272
  108MOL0     C14185  10.011   1.524   3.738 -0.1450 -0.6510  0.1575
  108MOL0     C14186  10.019   1.576   3.878 -0.5233  0.5184 -0.1324
  108MOL0     C14187   9.977   1.711   3.882  0.9266  0.1872  0.0717
  108MOL0     C14188   9.934   1.826   3.909  0.1133  0.3797  0.3603
  108MOL0     C14189  10.408   1.202   3.679 -0.4240  0.6970 -0.2263
  108MOL0     C14190  10.529   1.142   3.662 -0.1475  0.5144  0.3805
  108MOL0     H14191  10.938   1.099   3.865  0.4679  0.5791 -0.2280
  108MOL0     H14192  11.195   1.075   3.864 -2.5340  2.6520  0.6666
  108MOL0     H14193  11.380   0.962   3.896 -1.3043 -2.4515 -1.3780
  108MOL0     H14194  11.439   1.088   3.783  1.4872  0.5220 -0.2707
  108MOL0     H14195  11.569   0.822   3.811  0.8302 -0.2347  0.0706
  108MOL0     H14196  11.610   0.960   3.904  0.8751 -1.7453 -0.2976
  108MOL0     H14197  11.602   0.944   3.598  0.5993  0.1165  0.6877
  108MOL0     H14198  11.741   0.901   3.701 -1.0168 -1.2054 -0.2180
  108MOL0     H14199  11.717   1.136   3.590  2.7059 -2.8448 -0.0739
  108MOL0     H14200  11.628   1.178   3.733 -0.3687 -0.0948 -0.7091
  108MOL0     H14201  11.840   1.064   3.862 -1.1008 -2.8934 -0.9930
  108MOL0     H14202  11.829   1.229   3.798 -0.5198 -0.2036 -0.7273
  108MOL0     H14203  11.963   1.189   3.611 -0.1914  0.8654  0.0840
  108MOL0     H14204  11.982   1.017   3.650  0.6560  0.8021 -1.7626
  108MOL0     H14205  12.074   1.229   3.841 -1.5537 -1.0224  0.6595
  108MOL0     H14206  12.099   1.049   3.838  1.9341  1.8630  2.9026
  108MOL0     H14207  12.291   1.198   3.762 -0.5230  0.2036  0.5244
  108MOL0     H14208  12.181   1.246   3.628  0.9452 -1.0621 -1.6895
  108MOL0     H14209  12.298   0.880   3.760 -0.2557 -0.7893 -1.0137
  108MOL0     H14210  12.452   0.695   3.629  0.4728  2.2119 -0.9820
  108MOL0     H14211  12.385   0.663   3.469  2.2181  1.0011 -0.5522
  108MOL0     H14212  12.155   0.617   3.630 -0.2199 -2.6403  1.4008
  108MOL0     H14213  12.275   0.636   3.755 -2.2847 -0.0556  0.7906
  108MOL0     H14214  12.209   0.401   3.683 -0.9143  0.7997 -3.6496
  108MOL0     H14215  12.308   0.430   3.541 -1.4204  1.8506 -1.2602
  108MOL0     H14216  12.437   0.473   3.814 -0.0802  0.6891 -0.1005
  108MOL0     H14217  12.512   0.447   3.655  0.4839  1.9047  0.1845
  108MOL0     H14218  12.435   0.022   3.772 -0.8146  1.9473  0.9617
  108MOL0     H14219  12.624  -0.114   3.868  1.7295 -0.0362  0.7163
  108MOL0     H14220  12.741  -0.126   4.317 -0.0012  1.8014 -1.6039
  108MOL0     H14221  12.870  -0.250   4.505 -2.1294 -1.6445 -1.4283
  108MOL0     H14222  13.296  -0.389   4.495 -0.4543 -1.0125  1.7710
  108MOL0     H14223  13.224  -0.495   4.375  2.9655  0.6311 -0.1935
  108MOL0     H14224  13.163  -0.452   4.672 -1.4073 -0.2025 -1.1363
  108MOL0     H14225  13.268  -0.582   4.613  0.1811 -0.3422 -1.2481
  108MOL0     H14226  13.086  -0.673   4.482  0.6558 -0.3006  0.1044
  108MOL0     H14227  12.968  -0.569   4.541 -0.1828 -1.4800 -1.5132
  108MOL0     H14228  13.023  -0.811   4.635 -1.1947 -0.3716 -0.3569
  108MOL0     H14229  13.138  -0.728   4.744 -1.4380  2.0310  2.6557
  108MOL0     H14230  12.863  -0.614   4.747 -0.8820  0.1751  1.9987
  108MOL0     H14231  12.983  -0.623   4.873 -1.1614  0.8161  0.0235
  108MOL0     H14232  12.935  -0.863   4.919 -2.0203 -2.5534  1.4762
  108MOL0     H14233  12.830  -0.867   4.774 -2.9475  1.4908  0.2813
  108MOL0     H14234  12.695  -0.675   4.904 -1.1928 -1.3163 -1.6626
  108MOL0     H14235  12.671  -0.840   4.940 -0.9566  0.8173  2.6654
  108MOL0     H14236  12.842  -0.649   5.115 -3.2000  1.9961 -0.0922
  108MOL0     H14237  12.836  -0.831   5.123 -0.3744 -0.4076 -0.2972
  108MOL0     H14238  13.174  -0.344   4.225 -0.2918 -2.7388  1.3678
  108MOL0     H14239  13.037  -0.225   4.044  2.4765 -2.3092  1.1467
  108MOL0     H14240  12.792   0.252   4.001 -0.4009  2.2911  0.1911
  108MOL0     H14241  12.643   0.384   3.873 -2.2658  0.3364 -1.4249
  108MOL0     H14242  11.177   0.818   3.522 -0.7612  0.1231  0.0840
  108MOL0     H14243  10.928   0.848   3.520  2.7297 -0.9252 -1.9135
  108MOL0     H14244  10.451   0.823   3.698  2.2036  0.3218  1.8234
  108MOL0     H14245  10.217   0.928   3.747 -0.1428  0.4758  1.3462
  108MOL0     H14246  10.224   1.383   3.668 -0.0447 -0.9640 -0.1512
  108MOL0     H14247  10.209   1.371   3.838 -1.0827 -2.5877  1.5996
  108MOL0     H14248   9.982   1.344   3.628 -0.6865 -1.0209  0.8986
  108MOL0     H14249   9.957   1.322   3.801 -0.3078 -0.9530 -0.2962
  108MOL0     H14250   9.913   1.552   3.699 -0.5272 -1.0582  0.8084
  108MOL0     H14251  10.091   1.561   3.673 -0.7970 -3.6222 -2.5530
  108MOL0     H14252   9.958   1.515   3.947  0.0671  1.4903  1.2815
  108MOL0     H14253  10.121   1.566   3.914 -2.0152 -3.3319  3.9819
  108MOL0     H14254   9.893   1.923   3.923  0.8527  0.8263 -0.4882
  108MOL0     H14255  10.407   1.311   3.669 -0.0102  0.8681  1.4371
  108MOL0     H14256  10.622   1.193   3.636  0.6350 -0.5084  1.0643
  109MOL0     O14257   0.867   8.865   5.660  0.2500  0.1182 -0.0082
  109MOL0     C14258   0.932   8.846   5.763 -0.3999 -0.4499 -0.1559
  109MOL0     O14259   0.912   8.901   5.888 -0.0620  0.2461 -0.7598
  109MOL0     C14260   0.812   8.984   5.909 -0.5164  0.3598 -0.5147
  109MOL0     C14261   0.792   9.110   5.840  0.7666 -0.9064 -0.4981
  109MOL0     C14262   0.683   9.199   5.884 -0.5869 -0.4097 -0.6675
  109MOL0     C14263   0.605   9.158   5.994 -0.4200 -0.5657 -0.3350
  109MOL0     O14264   0.509   9.250   6.029 -0.7958 -0.7226  1.5935
  109MOL0     C14265   0.383   9.201   6.077  0.5447 -0.3133 -0.7173
  109MOL0     C14266   0.290   9.324   6.056  0.6207 -0.2716 -0.4859
  109MOL0     C14267   0.139   9.295   6.079 -0.0757  1.0068  0.3384
  109MOL0     C14268   0.056   9.420   6.073  0.2805 -0.6457  0.4014
  109MOL0     C14269  -0.092   9.400   6.074  0.1499  0.2824  0.1921
  109MOL0     C14270  -0.152   9.336   6.201  0.4871 -0.1015 -0.1687
  109MOL0     C14271  -0.298   9.288   6.194  0.2035 -0.0776 -0.2532
  109MOL0     C14272  -0.305   9.157   6.119  1.1683  0.2237 -0.1090
  109MOL0     N14273  -0.229   9.055   6.186 -0.1653 -0.7362  0.9623
  109MOL0     C14274  -0.119   9.004   6.125  0.2359 -0.2451  0.3661
  109MOL0     C14275  -0.088   8.901   6.204 -0.6764  0.2792  0.3490
  109MOL0     C14276   0.030   8.806   6.178  0.3855  0.0645  0.0894
  109MOL0     C14277   0.023   8.672   6.257  0.2605 -0.6139 -0.7628
  109MOL0     C14278  -0.102   8.591   6.217 -0.0170 -0.4989  0.9465
  109MOL0     C14279  -0.087   8.452   6.266 -0.0076 -0.4166  0.9551
  109MOL0     O14280   0.026   8.380   6.222 -0.0821 -0.4003 -0.2356
  109MOL0     C14281   0.043   8.326   6.094 -0.8570 -0.4313  0.1111
  109MOL0     C14282  -0.048   8.308   5.986 -0.4546  0.5545  0.0417
  109MOL0     C14283  -0.018   8.255   5.872  0.1205 -0.0704  0.2601
  109MOL0     C14284   0.117   8.230   5.838 -0.8265  0.5105  0.1689
  109MOL0     C14285   0.163   8.188   5.705 -0.6078  0.0072  0.9624
  109MOL0     O14286   0.284   8.134   5.700 -0.4781 -0.1038  0.3431
  109MOL0     C14287   0.351   8.119   5.583  0.4660 -0.0827  0.3922
  109MOL0     C14288   0.361   8.228   5.490  0.3430  0.4342  0.2478
  109MOL0     C14289   0.442   8.197   5.377 -0.1917  0.4169 -0.0998
  109MOL0     C14290   0.503   8.066   5.350 -0.7610 -0.4609  0.3462
  109MOL0     O14291   0.557   8.028   5.232 -0.5706  0.3043 -0.1020
  109MOL0     C14292   0.467   8.030   5.121 -0.6123 -0.3858 -0.6435
  109MOL0     C14293   0.545   8.006   4.988 -0.0580  0.6333  0.3528
  109MOL0     C14294   0.434   8.032   4.877  0.4030  0.3037  0.6099
  109MOL0     C14295   0.498   7.990   4.744 -0.9410  0.3670  0.0039
  109MOL0     C14296   0.575   8.103   4.672  0.0706 -0.1894 -0.2512
  109MOL0     C14297   0.638   8.065   4.538  0.7067 -0.3271  0.2464
  109MOL0     C14298   0.736   8.163   4.476  0.7196 -1.2103  0.2071
  109MOL0     C14299   0.748   8.165   4.325  0.6264  0.5136  0.2569
  109MOL0    Cl14300   0.837   8.019   4.264  0.1648 -0.0224 -0.0978
  109MOL0     C14301   0.501   7.977   5.450  0.4275 -0.1063 -0.8531
  109MOL0     C14302   0.425   8.000   5.565 -0.2166  1.3141  0.2597
  109MOL0     O14303   0.090   8.189   5.606  0.5565 -0.0472 -0.3740
  109MOL0     C14304   0.214   8.242   5.938  0.0170  0.1696  0.3299
  109MOL0     C14305   0.179   8.285   6.066 -0.8306 -0.4233 -0.3783
  109MOL0     N14306  -0.178   8.901   6.316  0.3391 -0.3238  0.1089
  109MOL0     N14307  -0.272   8.995   6.301 -0.6368 -0.1251 -0.1479
  109MOL0     C14308   0.627   9.046   6.059 -0.0837  0.5247 -0.2437
  109MOL0     C14309   0.730   8.957   6.015  0.5259 -0.2597 -0.2811
  109MOL0     C14310   1.049   8.759   5.759  0.3159 -0.5183  0.2531
  109MOL0     C14311   1.103   8.700   5.877  0.0041  0.0485  0.3965
  109MOL0     C14312   1.218   8.621   5.879 -0.2845 -0.6243  1.3694
  109MOL0     C14313   1.277   8.587   5.758 -0.9986  0.8071 -0.2440
  109MOL0     O14314   1.380   8.499   5.781 -0.1052 -0.5477  1.2716
  109MOL0     C14315   1.456   8.444   5.674 -0.3393 -0.7361 -0.8205
  109MOL0     C14316   1.368   8.344   5.604 -0.7310 -0.1045  0.1203
  109MOL0     C14317   1.451   8.221   5.570 -0.0191  0.4822  0.9397
  109MOL0     C14318   1.371   8.095   5.502  0.0294 -0.9296 -0.3779
  109MOL0     C14319   1.432   8.050   5.375  0.1858  0.9136  0.1242
  109MOL0     C14320   1.488   8.000   5.274 -0.0841 -0.9882  0.4795
  109MOL0     C14321   1.223   8.634   5.633  0.8643  0.6722  0.3034
  109MOL0     C14322   1.111   8.730   5.637 -0.0360 -0.4897  0.2331
  109MOL0     H14323   0.854   9.131   5.754  1.0142  2.2425  0.3462
  109MOL0     H14324   0.674   9.292   5.828  0.0408  0.3145  0.3732
  109MOL0     H14325   0.390   9.177   6.183 -0.7202 -2.1016 -0.9819
  109MOL0     H14326   0.346   9.110   6.028 -3.3654  0.3392  0.6524
  109MOL0     H14327   0.292   9.354   5.951 -0.6991  1.3258 -0.0899
  109MOL0     H14328   0.326   9.410   6.112 -0.7263  0.3084 -0.4578
  109MOL0     H14329   0.125   9.245   6.176  0.1178  1.7505  0.7577
  109MOL0     H14330   0.107   9.219   6.007 -1.1015  3.0720 -1.4677
  109MOL0     H14331   0.090   9.490   6.150  1.8615  0.0637 -0.8778
  109MOL0     H14332   0.079   9.459   5.974 -0.3470  0.2463  0.6006
  109MOL0     H14333  -0.119   9.342   5.985  0.9499 -0.9192  0.6998
  109MOL0     H14334  -0.131   9.502   6.071 -0.1203  0.1553 -1.3538
  109MOL0     H14335  -0.149   9.403   6.287 -0.0964  1.2554 -1.1656
  109MOL0     H14336  -0.093   9.254   6.242  2.4306  1.7334  0.9165
  109MOL0     H14337  -0.339   9.286   6.295  0.5500  2.4762  0.0060
  109MOL0     H14338  -0.357   9.362   6.139  0.5495  0.5310  0.1801
  109MOL0     H14339  -0.273   9.180   6.017 -1.2416 -1.3002 -1.2871
  109MOL0     H14340  -0.405   9.115   6.117  2.1214 -2.2624 -2.7021
  109MOL0     H14341  -0.074   9.037   6.032 -0.1020 -2.9205 -0.8289
  109MOL0     H14342   0.125   8.852   6.208 -0.6093  1.0317  1.9272
  109MOL0     H14343   0.042   8.786   6.071  2.3841 -2.7648  0.7062
  109MOL0     H14344   0.029   8.677   6.366 -1.8160  0.8212 -0.6406
  109MOL0     H14345   0.115   8.624   6.225  0.5258  1.0947 -2.8180
  109MOL0     H14346  -0.185   8.652   6.256 -0.4315  1.1188 -2.1231
  109MOL0     H14347  -0.117   8.591   6.108  1.0580  0.3820  0.7841
  109MOL0     H14348  -0.185   8.404   6.258 -1.4670  1.9978  2.9360
  109MOL0     H14349  -0.078   8.470   6.373 -2.4999  1.1997  0.9817
  109MOL0     H14350  -0.148   8.344   6.006 -0.4017  2.9152 -3.1832
  109MOL0     H14351  -0.095   8.238   5.797 -1.8432  1.3071  1.8624
  109MOL0     H14352   0.314   8.324   5.504  0.3992  0.2224  2.2377
  109MOL0     H14353   0.471   8.264   5.297  2.6287  0.5976  0.9620
  109MOL0     H14354   0.428   8.132   5.118 -0.4770 -0.3200 -0.2699
  109MOL0     H14355   0.381   7.967   5.148  1.9497 -3.4657  1.0690
  109MOL0     H14356   0.595   7.908   4.989 -0.3150  0.4380 -1.8041
  109MOL0     H14357   0.623   8.079   4.966 -1.2356  2.2228  1.2780
  109MOL0     H14358   0.391   8.132   4.865  1.0936  0.4914 -0.4173
  109MOL0     H14359   0.356   7.955   4.887  2.3525 -1.9519 -0.4407
  109MOL0     H14360   0.570   7.909   4.759 -2.0995 -0.4174  1.6549
  109MOL0     H14361   0.416   7.971   4.674  1.4093  1.2668 -3.2184
  109MOL0     H14362   0.656   8.146   4.732  0.3331 -0.4887 -0.3853
  109MOL0     H14363   0.512   8.192   4.666  0.2884  0.1840  2.2042
  109MOL0     H14364   0.564   8.043   4.461  2.0854  0.2831 -1.2894
  109MOL0     H14365   0.689   7.972   4.568  2.4059  1.0984  2.0278
  109MOL0     H14366   0.707   8.261   4.516  1.4631 -0.3535 -1.3022
  109MOL0     H14367   0.829   8.146   4.530  0.4624  0.1461  1.1287
  109MOL0     H14368   0.809   8.254   4.304 -0.7375  1.6335  0.8671
  109MOL0     H14369   0.656   8.163   4.267  0.6529  2.0094  0.1220
  109MOL0     H14370   0.551   7.881   5.459 -0.9375 -0.8052 -0.4618
  109MOL0     H14371   0.426   7.930   5.648  0.3590  3.0536  1.7967
  109MOL0     H14372   0.321   8.226   5.926  0.5097  0.6400  3.3595
  109MOL0     H14373   0.255   8.277   6.143 -2.8867  1.2979  1.9883
  109MOL0     H14374   0.592   9.018   6.158  6.1713 -1.8075  1.7957
  109MOL0     H14375   0.736   8.864   6.070  0.8199  0.2536  0.5661
  109MOL0     H14376   1.057   8.714   5.975 -2.7283 -1.8963 -0.4690
  109MOL0     H14377   1.250   8.584   5.975  3.4616 -1.7640 -0.1263
  109MOL0     H14378   1.541   8.384   5.708  0.6350 -1.3463 -3.9491
  109MOL0     H14379   1.488   8.521   5.603  3.0178 -2.2211 -1.1161
  109MOL0     H14380   1.286   8.318   5.672  0.5554  0.9522  2.2045
  109MOL0     H14381   1.332   8.394   5.514  2.1670 -1.4255 -1.9041
  109MOL0     H14382   1.512   8.186   5.654  0.5325 -0.2684  0.2483
  109MOL0     H14383   1.526   8.252   5.496 -1.3320  1.5476  0.0083
  109MOL0     H14384   1.360   8.011   5.571  0.6865 -0.8676 -0.1918
  109MOL0     H14385   1.273   8.136   5.477  1.1690 -0.2452 -4.4121
  109MOL0     H14386   1.542   7.965   5.188 -1.3535 -0.9697 -0.3609
  109MOL0     H14387   1.272   8.596   5.544  1.1067 -1.7411  1.3865
  109MOL0     H14388   1.069   8.758   5.541  3.2711  1.3549 -0.8721
  110MOL0     O14389   3.384   5.717   6.634  0.0910  0.2691  0.3835
  110MOL0     C14390   3.480   5.670   6.577  0.1551  0.1103 -0.7607
  110MOL0     O14391   3.496   5.660   6.438  0.7066  0.8788 -0.1029
  110MOL0     C14392   3.394   5.705   6.363  0.0593  0.1641  0.3624
  110MOL0     C14393   3.428   5.804   6.269 -0.3709 -0.0344 -0.8532
  110MOL0     C14394   3.320   5.855   6.189 -0.3914  0.2410  0.5522
  110MOL0     C14395   3.188   5.812   6.204  0.4117  0.4970 -0.4374
  110MOL0     O14396   3.089   5.859   6.124 -1.2263  0.1854  0.4953
  110MOL0     C14397   2.961   5.864   6.192  0.1251  0.3337  0.5862
  110MOL0     C14398   2.899   6.001   6.167  0.3182  0.4369 -0.6611
  110MOL0     C14399   2.744   5.988   6.157 -0.2402  0.8197  0.5431
  110MOL0     C14400   2.685   6.131   6.154 -0.0331  0.9261  0.2571
  110MOL0     C14401   2.533   6.136   6.157  0.1629 -0.5275  1.1195
  110MOL0     C14402   2.475   6.081   6.022  0.1196 -0.0968  0.6715
  110MOL0     C14403   2.320   6.086   6.028  0.3627 -0.5305  0.3723
  110MOL0     C14404   2.273   5.953   6.081 -0.0507  0.2599 -0.3942
  110MOL0     N14405   2.132   5.948   6.124 -0.7954 -0.0775  0.0889
  110MOL0     C14406   2.071   6.000   6.233 -0.0735  0.7612 -0.0988
  110MOL0     C14407   1.941   5.952   6.232 -0.1402 -0.5342 -0.5564
  110MOL0     C14408   1.830   5.987   6.329  0.0082  0.2699 -0.4995
  110MOL0     C14409   1.705   5.901   6.310 -0.6281 -0.2485  0.2509
  110MOL0     C14410   1.581   5.961   6.388 -0.1651  0.6102 -0.7091
  110MOL0     C14411   1.458   5.884   6.344 -0.9946 -0.3132  0.7581
  110MOL0     O14412   1.467   5.741   6.359  0.3680 -1.2404  0.0715
  110MOL0     C14413   1.360   5.660   6.323 -0.6513 -0.0891 -0.0855
  110MOL0     C14414   1.231   5.691   6.278 -0.1351 -0.3226 -0.3790
  110MOL0     C14415   1.132   5.598   6.244  0.2525  0.4567 -0.1954
  110MOL0     C14416   1.159   5.461   6.262 -0.2503 -0.8616 -0.1870
  110MOL0     C14417   1.048   5.362   6.233 -1.3680 -0.2649 -0.6798
  110MOL0     O14418   1.091   5.234   6.253  0.0405 -0.2123 -0.2995
  110MOL0     C14419   0.993   5.143   6.301 -0.7997 -0.0402  0.0319
  110MOL0     C14420   0.935   5.156   6.425 -0.4216 -0.0680 -0.6420
  110MOL0     C14421   0.845   5.059   6.466 -0.7688  0.4616  0.5389
  110MOL0     C14422   0.803   4.951   6.386 -0.0223  0.4417  0.5926
  110MOL0     O14423   0.712   4.853   6.415  0.3533 -0.1333  0.4019
  110MOL0     C14424   0.681   4.842   6.553 -0.9448  0.6948 -0.5881
  110MOL0     C14425   0.643   4.696   6.582  0.0959 -0.2840  0.9130
  110MOL0     C14426   0.653   4.672   6.738  0.0022 -0.2298  0.9802
  110MOL0     C14427   0.556   4.773   6.815  0.3160  0.3712  1.0632
  110MOL0     C14428   0.526   4.724   6.949  0.3799 -0.0558 -0.2696
  110MOL0     C14429   0.649   4.719   7.037  0.2180  0.5848 -0.2237
  110MOL0     C14430   0.709   4.859   7.075  0.0262 -0.2589 -0.0893
  110MOL0     C14431   0.864   4.871   7.087  0.5005  0.3844  0.1004
  110MOL0    Cl14432   0.920   4.881   6.911  0.1015 -0.1998  0.3464
  110MOL0     C14433   0.865   4.943   6.263 -0.0075  0.3153  0.9196
  110MOL0     C14434   0.958   5.035   6.218  0.1353 -0.4664  0.1157
  110MOL0     O14435   0.942   5.408   6.193  0.0068 -0.5937 -0.3558
  110MOL0     C14436   1.293   5.422   6.290  0.2009  0.4047  0.2405
  110MOL0     C14437   1.386   5.520   6.322  0.4913  0.4704  1.0590
  110MOL0     N14438   1.924   5.880   6.117 -0.1979  1.2680  0.3279
  110MOL0     N14439   2.036   5.884   6.049  0.5131 -0.1910  0.7094
  110MOL0     C14440   3.165   5.702   6.295 -0.6795  0.7205  0.1763
  110MOL0     C14441   3.278   5.646   6.367  0.5363 -0.1835 -0.3404
  110MOL0     C14442   3.594   5.614   6.648  0.4191  0.8040 -0.7014
  110MOL0     C14443   3.591   5.599   6.790 -0.0107  0.8471  0.2712
  110MOL0     C14444   3.704   5.555   6.858 -0.1523 -0.1274 -0.2784
  110MOL0     C14445   3.819   5.517   6.793  0.2498  0.1795 -0.2062
  110MOL0     O14446   3.914   5.441   6.859 -0.1746  0.5837  0.7821
  110MOL0     C14447   4.010   5.369   6.774  0.3243 -0.0174 -0.1989
  110MOL0     C14448   4.061   5.253   6.844 -0.1637  0.4044  0.5918
  110MOL0     C14449   4.177   5.294   6.947  0.3686  0.6218 -0.0068
  110MOL0     C14450   4.216   5.182   7.035 -0.9855 -0.3124 -0.2037
  110MOL0     C14451   4.335   5.224   7.118 -0.2243  0.2086 -0.2634
  110MOL0     C14452   4.405   5.268   7.204  0.4112  1.0966 -0.4416
  110MOL0     C14453   3.820   5.545   6.655  0.1505  0.4517  0.8523
  110MOL0     C14454   3.712   5.588   6.580  0.6891  0.0785  0.3589
  110MOL0     H14455   3.527   5.845   6.251  0.7278 -1.9877  0.2851
  110MOL0     H14456   3.336   5.931   6.114  0.5126  0.1457  0.6463
  110MOL0     H14457   2.965   5.846   6.300  0.2358 -2.5131  0.1661
  110MOL0     H14458   2.914   5.780   6.141  0.2839  0.0681  0.8721
  110MOL0     H14459   2.935   6.037   6.070  0.2419 -0.0734 -0.8823
  110MOL0     H14460   2.936   6.076   6.237 -0.4349 -0.2005  0.4412
  110MOL0     H14461   2.695   5.932   6.237 -1.5547 -1.0097 -1.4263
  110MOL0     H14462   2.712   5.935   6.067 -0.2414  2.0072 -0.1767
  110MOL0     H14463   2.726   6.189   6.238  0.6305  0.4533  0.2723
  110MOL0     H14464   2.715   6.177   6.060  1.3375 -0.9495 -0.3008
  110MOL0     H14465   2.509   6.243   6.153  0.3508 -0.5101 -1.6633
  110MOL0     H14466   2.489   6.094   6.247  0.7606  0.8930  2.1121
  110MOL0     H14467   2.502   5.978   5.998  2.2290  0.6358 -0.2689
  110MOL0     H14468   2.513   6.148   5.945 -2.1565  1.2520  0.6235
  110MOL0     H14469   2.289   6.159   6.103  0.7923  1.2404 -1.1161
  110MOL0     H14470   2.264   6.124   5.942 -0.0068  0.1150  0.8874
  110MOL0     H14471   2.348   5.945   6.160 -0.9712  3.4601  0.9406
  110MOL0     H14472   2.290   5.867   6.015 -0.6039 -1.6220  1.8024
  110MOL0     H14473   2.101   6.077   6.304  1.0255  0.8009 -0.5872
  110MOL0     H14474   1.803   6.091   6.312  1.5509  1.5894  3.8116
  110MOL0     H14475   1.884   5.988   6.424 -0.1594 -1.8337 -0.3246
  110MOL0     H14476   1.732   5.801   6.345  1.0775  0.2310  0.3773
  110MOL0     H14477   1.678   5.905   6.204  1.6824  0.1266 -0.3786
  110MOL0     H14478   1.585   5.935   6.494  0.1744  0.4655 -0.7557
  110MOL0     H14479   1.571   6.067   6.363 -0.7985  0.9412  0.8173
  110MOL0     H14480   1.445   5.909   6.238  1.8160  1.8286  0.8120
  110MOL0     H14481   1.368   5.917   6.396 -2.5215  0.9220 -2.3439
  110MOL0     H14482   1.214   5.799   6.276 -1.2431 -0.4939 -0.7981
  110MOL0     H14483   1.034   5.630   6.210  0.0235  0.2961  0.2991
  110MOL0     H14484   0.965   5.241   6.486 -0.4453  1.4008 -2.5881
  110MOL0     H14485   0.792   5.079   6.559 -0.0848 -1.1513  1.3097
  110MOL0     H14486   0.610   4.918   6.586 -1.0461 -0.0450  1.0174
  110MOL0     H14487   0.766   4.859   6.618 -0.7396 -0.8360 -0.4149
  110MOL0     H14488   0.713   4.634   6.526 -0.1996  1.5960 -1.7000
  110MOL0     H14489   0.540   4.682   6.546  0.6409 -1.1412 -0.3503
  110MOL0     H14490   0.757   4.691   6.766  0.5808  1.8056 -2.0644
  110MOL0     H14491   0.622   4.569   6.754 -1.4811 -0.0711 -0.5962
  110MOL0     H14492   0.595   4.874   6.799  2.2901 -0.5735 -0.5371
  110MOL0     H14493   0.460   4.773   6.763  0.8832 -1.2942 -0.0591
  110MOL0     H14494   0.484   4.624   6.936 -1.7790  1.0775 -2.8677
  110MOL0     H14495   0.451   4.788   6.996 -1.2822 -0.3021 -2.4419
  110MOL0     H14496   0.723   4.652   6.993 -1.3868 -2.9509  2.0441
  110MOL0     H14497   0.629   4.671   7.133 -1.8151  1.8535  0.0599
  110MOL0     H14498   0.686   4.932   6.997  0.1096  3.1491  2.8350
  110MOL0     H14499   0.655   4.898   7.162  0.9614 -1.4701  1.0815
  110MOL0     H14500   0.890   4.773   7.127 -4.1054 -2.6315 -3.2214
  110MOL0     H14501   0.902   4.946   7.157 -2.9739  0.9915  1.5460
  110MOL0     H14502   0.850   4.856   6.199 -1.1875  1.5689 -0.5824
  110MOL0     H14503   0.992   5.020   6.116  0.1110  0.4955 -0.0411
  110MOL0     H14504   1.317   5.317   6.305 -1.9263  0.2685  3.6948
  110MOL0     H14505   1.487   5.504   6.359  1.1417  2.6412  0.3908
  110MOL0     H14506   3.070   5.653   6.312  0.4081 -1.7366 -0.4045
  110MOL0     H14507   3.267   5.564   6.438 -3.2591 -0.0129 -0.5629
  110MOL0     H14508   3.507   5.627   6.853 -0.7649  0.1309 -0.3886
  110MOL0     H14509   3.709   5.542   6.965  1.9006 -0.5760 -0.3747
  110MOL0     H14510   4.093   5.439   6.763 -1.9203  3.1397  1.5328
  110MOL0     H14511   3.973   5.337   6.676 -2.4647 -3.3911  1.7014
  110MOL0     H14512   3.990   5.194   6.902  0.5084 -0.7667  0.2429
  110MOL0     H14513   4.104   5.187   6.769  1.0326  0.5911  1.0860
  110MOL0     H14514   4.157   5.389   6.997  4.1447  4.1825 -4.2823
  110MOL0     H14515   4.266   5.316   6.887 -0.1475  0.0898 -0.9896
  110MOL0     H14516   4.125   5.180   7.096 -0.9774  4.2495  0.3027
  110MOL0     H14517   4.245   5.091   6.982  0.0601 -0.9137  1.3376
  110MOL0     H14518   4.466   5.308   7.283  1.2554 -0.1208 -0.4611
  110MOL0     H14519   3.894   5.509   6.585 -2.8317 -0.6461 -1.9957
  110MOL0     H14520   3.737   5.590   6.474  2.5057  1.2417  0.7516
  111MOL0     O14521   8.647   2.371   3.457 -0.9002  0.0521  0.3655
  111MOL0     C14522   8.570   2.464   3.431  0.1918  0.0216 -0.0755
  111MOL0     O14523   8.436   2.455   3.413 -0.5005  0.0841 -0.4382
  111MOL0     C14524   8.360   2.350   3.462  0.7194  0.8369  0.2481
  111MOL0     C14525   8.335   2.243   3.370 -1.5415  0.0017 -0.4791
  111MOL0     C14526   8.241   2.144   3.407  0.3907  0.4264  0.2872
  111MOL0     C14527   8.182   2.155   3.531 -0.2440  0.8088 -0.0811
  111MOL0     O14528   8.077   2.066   3.538  0.4121 -0.8719 -0.9760
  111MOL0     C14529   7.945   2.118   3.529 -0.7459 -0.1553 -0.2737
  111MOL0     C14530   7.846   1.998   3.502 -0.4280  0.3281  0.6186
  111MOL0     C14531   7.711   2.056   3.523  0.3944 -0.0973 -0.0556
  111MOL0     C14532   7.608   1.933   3.521  0.3184  0.6919 -0.0536
  111MOL0     C14533   7.460   1.984   3.541 -0.5141  0.0950 -0.7380
  111MOL0     C14534   7.430   2.039   3.683 -0.4025  0.2770 -0.6304
  111MOL0     C14535   7.285   2.037   3.742  0.2293  0.7116  0.1102
  111MOL0     C14536   7.208   2.168   3.741  0.1341 -0.7556  0.4397
  111MOL0     N14537   7.062   2.146   3.742  0.4074  0.5085 -0.1634
  111MOL0     C14538   6.969   2.222   3.672  0.1088 -0.4709 -0.5215
  111MOL0     C14539   6.847   2.173   3.708  0.0644 -0.3414  1.5363
  111MOL0     C14540   6.710   2.217   3.657  0.0943  0.1052  0.5138
  111MOL0     C14541   6.598   2.215   3.761 -0.7134  0.5318  0.2994
  111MOL0     C14542   6.627   2.326   3.862 -0.4466  0.4488 -0.3987
  111MOL0     C14543   6.534   2.341   3.990 -0.1127  0.2148  1.0629
  111MOL0     O14544   6.406   2.375   3.927 -0.4865 -0.2093 -0.3308
  111MOL0     C14545   6.305   2.409   4.004  0.0506  0.2783 -0.7420
  111MOL0     C14546   6.179   2.449   3.948 -0.0690  0.0384 -0.5383
  111MOL0     C14547   6.082   2.494   4.039 -0.2757  0.4306  1.2816
  111MOL0     C14548   6.110   2.509   4.173 -0.2154 -0.4571 -0.2714
  111MOL0     C14549   6.004   2.579   4.256  0.1163 -0.1472 -0.1944
  111MOL0     O14550   6.049   2.663   4.354 -0.0915  0.3677 -0.1100
  111MOL0     C14551   5.963   2.739   4.425  0.0605  0.1187 -0.7008
  111MOL0     C14552   5.989   2.757   4.559  0.0547  0.1947 -0.1871
  111MOL0     C14553   5.907   2.841   4.639 -0.5660  1.2923  0.4749
  111MOL0     C14554   5.790   2.893   4.587  0.3376  0.5679  0.9129
  111MOL0     O14555   5.715   2.969   4.672  1.0635 -0.2698 -0.5081
  111MOL0     C14556   5.585   3.008   4.619 -0.4886  0.0288  0.9416
  111MOL0     C14557   5.504   3.092   4.720  0.0389 -0.8607  0.0163
  111MOL0     C14558   5.354   3.115   4.686  0.2747  0.7105 -0.0423
  111MOL0     C14559   5.283   3.185   4.798 -1.1066 -1.3951 -0.3322
  111MOL0     C14560   5.139   3.205   4.775  0.4089  0.0760 -0.0645
  111MOL0     C14561   5.080   3.281   4.894  0.1649 -0.5160  0.0100
  111MOL0     C14562   4.931   3.261   4.912  0.2258  0.7921  0.4139
  111MOL0     C14563   4.880   3.321   5.031 -0.3129 -0.7384  0.3325
  111MOL0    Cl14564   4.946   3.245   5.173  0.1390  0.2309 -0.7344
  111MOL0     C14565   5.770   2.867   4.449 -0.0305  0.0179  0.0636
  111MOL0     C14566   5.852   2.795   4.360 -0.3765  0.1294  0.4604
  111MOL0     O14567   5.888   2.560   4.227 -0.3323  0.8550 -0.2299
  111MOL0     C14568   6.228   2.462   4.228  0.5409 -0.1470 -0.4954
  111MOL0     C14569   6.323   2.408   4.146 -0.8825  0.1125 -0.0696
  111MOL0     N14570   6.864   2.061   3.784 -0.5526 -0.3391 -0.3746
  111MOL0     N14571   6.996   2.052   3.805  0.8072  0.4422 -0.5544
  111MOL0     C14572   8.209   2.251   3.621 -0.7513 -1.1378  0.2541
  111MOL0     C14573   8.304   2.353   3.591  0.2421  0.1250 -0.5951
  111MOL0     C14574   8.641   2.602   3.421 -0.1333 -0.2821 -0.2782
  111MOL0     C14575   8.579   2.711   3.343 -0.3715  0.5155  0.1027
  111MOL0     C14576   8.638   2.837   3.333  0.3828  0.7893 -0.7631
  111MOL0     C14577   8.764   2.856   3.377 -0.9234 -0.6948 -0.1970
  111MOL0     O14578   8.822   2.977   3.340  0.1358 -0.5641  0.8271
  111MOL0     C14579   8.970   2.997   3.357  0.2315  0.2348 -0.2685
  111MOL0     C14580   8.980   3.143   3.326 -0.5210 -0.0765  0.0448
  111MOL0     C14581   9.125   3.185   3.300 -0.0136  0.2113  0.0581
  111MOL0     C14582   9.132   3.344   3.296  0.8727  0.8281 -0.2210
  111MOL0     C14583   9.124   3.395   3.155  0.4355  0.7641 -0.2864
  111MOL0     C14584   9.134   3.410   3.035  0.2249 -0.8373  0.2446
  111MOL0     C14585   8.829   2.750   3.446 -0.9757  0.1205  0.0193
  111MOL0     C14586   8.765   2.628   3.468 -0.4899 -1.3403 -0.2185
  111MOL0     H14587   8.374   2.251   3.269  0.0393  0.4966  0.1442
  111MOL0     H14588   8.226   2.055   3.347  2.5926  0.1135  0.1097
  111MOL0     H14589   7.936   2.187   3.445 -0.5727 -0.0571 -0.2110
  111MOL0     H14590   7.914   2.174   3.618 -3.4873 -2.1704  0.1899
  111MOL0     H14591   7.875   1.921   3.574  1.3960  1.5031  1.2071
  111MOL0     H14592   7.880   1.966   3.403  1.5387  3.0757  0.3051
  111MOL0     H14593   7.683   2.130   3.447 -0.4867 -1.8008 -1.4671
  111MOL0     H14594   7.697   2.098   3.623  1.2284 -0.3406  0.1711
  111MOL0     H14595   7.607   1.888   3.422 -4.0498 -1.8882  0.9073
  111MOL0     H14596   7.643   1.862   3.597  1.0136  0.1347 -0.8701
  111MOL0     H14597   7.393   1.897   3.540 -1.4744  0.4465  4.3855
  111MOL0     H14598   7.430   2.053   3.461  0.1728 -0.4423 -1.4779
  111MOL0     H14599   7.466   2.143   3.687 -1.5683  0.6550  2.4499
  111MOL0     H14600   7.493   1.987   3.756  0.7350  2.5890  0.1656
  111MOL0     H14601   7.226   1.958   3.696  0.0135  0.3777  0.9354
  111MOL0     H14602   7.300   2.010   3.847  0.1769  4.4688  1.2436
  111MOL0     H14603   7.231   2.223   3.648  0.0883 -2.8068 -0.8473
  111MOL0     H14604   7.237   2.230   3.826 -0.8853  1.5589 -0.8069
  111MOL0     H14605   6.995   2.302   3.603  0.4084 -1.9669 -2.2188
  111MOL0     H14606   6.690   2.131   3.591 -0.7803 -1.2048  2.3894
  111MOL0     H14607   6.712   2.314   3.608  1.1187  1.6268  3.3369
  111MOL0     H14608   6.602   2.116   3.808  0.6183 -0.2693 -1.3744
  111MOL0     H14609   6.507   2.231   3.703 -1.7322  1.2300  2.0176
  111MOL0     H14610   6.728   2.301   3.896  0.1773 -0.2187 -2.5552
  111MOL0     H14611   6.645   2.419   3.807  0.0485 -0.8297 -2.5164
  111MOL0     H14612   6.582   2.424   4.042  0.4213 -0.1311  1.1316
  111MOL0     H14613   6.533   2.254   4.056  2.9853  0.7370  1.9540
  111MOL0     H14614   6.165   2.443   3.840  0.8328  1.2193 -0.7426
  111MOL0     H14615   5.985   2.528   4.005 -0.8183 -1.2503  1.0223
  111MOL0     H14616   6.076   2.707   4.599  0.5537 -0.1746 -1.6585
  111MOL0     H14617   5.931   2.875   4.739 -0.2585  1.8541  0.2138
  111MOL0     H14618   5.527   2.916   4.603  0.4738 -0.0985 -2.5004
  111MOL0     H14619   5.595   3.060   4.524 -0.3191 -1.0860  0.3340
  111MOL0     H14620   5.561   3.185   4.732  0.6197 -1.4343  2.0777
  111MOL0     H14621   5.518   3.049   4.820  2.4781  0.8585  0.4880
  111MOL0     H14622   5.311   3.018   4.660  1.6998 -0.4991  1.8166
  111MOL0     H14623   5.353   3.176   4.595  1.5283  1.9368  0.7336
  111MOL0     H14624   5.287   3.112   4.880 -0.2111 -0.9517  0.0328
  111MOL0     H14625   5.333   3.278   4.825 -1.1656 -1.1270 -1.1072
  111MOL0     H14626   5.090   3.107   4.769 -2.6552  1.5595 -2.4865
  111MOL0     H14627   5.103   3.253   4.683 -1.0443 -2.6576 -1.0462
  111MOL0     H14628   5.119   3.382   4.892 -1.2391  0.1064  1.4504
  111MOL0     H14629   5.113   3.238   4.989 -1.9974 -2.6594 -0.0867
  111MOL0     H14630   4.880   3.303   4.824  1.6941 -3.2128 -2.6493
  111MOL0     H14631   4.913   3.154   4.922 -1.9293  0.8418 -1.8314
  111MOL0     H14632   4.771   3.323   5.042 -0.1719  0.2062  1.9791
  111MOL0     H14633   4.926   3.420   5.025  2.0505 -1.6143  2.2696
  111MOL0     H14634   5.686   2.909   4.396 -0.0276 -0.2054 -0.1221
  111MOL0     H14635   5.840   2.795   4.252  1.2498 -1.7992  0.2081
  111MOL0     H14636   6.245   2.469   4.335  3.2923  2.1974 -0.9787
  111MOL0     H14637   6.410   2.377   4.204 -2.2782  0.4236  2.3451
  111MOL0     H14638   8.151   2.254   3.713  2.2072 -2.5256  2.3347
  111MOL0     H14639   8.328   2.432   3.661  3.8404 -3.2422  2.4938
  111MOL0     H14640   8.478   2.691   3.307  0.7923 -0.9374 -2.7498
  111MOL0     H14641   8.576   2.917   3.294 -2.7290 -0.8935  0.3008
  111MOL0     H14642   9.030   2.938   3.288 -1.9851 -3.6978  0.8844
  111MOL0     H14643   9.003   2.978   3.459 -2.7082 -2.0729  0.4000
  111MOL0     H14644   8.924   3.166   3.235 -4.2067 -0.3731  2.0193
  111MOL0     H14645   8.929   3.204   3.401 -0.2879 -2.7749  2.5950
  111MOL0     H14646   9.156   3.140   3.206  4.9543  3.0203 -0.0220
  111MOL0     H14647   9.203   3.149   3.367  3.3222 -0.5071 -3.8525
  111MOL0     H14648   9.042   3.381   3.346  1.0708 -1.4180  1.9942
  111MOL0     H14649   9.227   3.381   3.335  1.5069  0.5623 -1.4352
  111MOL0     H14650   9.129   3.436   2.931  1.0196  2.0912  0.8418
  111MOL0     H14651   8.933   2.756   3.475 -0.4859  2.5938 -1.8639
  111MOL0     H14652   8.807   2.543   3.521 -1.7385 -2.2050 -0.5778
  112MOL0     O14653   9.954   5.676  10.926 -0.2762  0.5678 -0.5610
  112MOL0     C14654   9.997   5.578  10.865  0.6169 -0.6410  0.1918
  112MOL0     O14655   9.922   5.462  10.828 -0.3031 -0.8298 -0.5211
  112MOL0     C14656   9.799   5.432  10.879 -0.2747 -1.0700  0.4783
  112MOL0     C14657   9.688   5.521  10.862 -0.4542 -0.0017  0.0064
  112MOL0     C14658   9.570   5.495  10.936  0.0928  0.9246 -0.2937
  112MOL0     C14659   9.562   5.382  11.018 -0.3196 -0.4461 -0.2782
  112MOL0     O14660   9.451   5.343  11.089  0.3285 -0.0235  0.1594
  112MOL0     C14661   9.335   5.423  11.090  0.2454 -1.1116 -0.6363
  112MOL0     C14662   9.229   5.386  11.179 -0.1375  0.5163  0.0472
  112MOL0     C14663   9.122   5.294  11.120  0.7248 -0.2288  0.4291
  112MOL0     C14664   9.020   5.246  11.223 -0.4790  0.3901  0.6315
  112MOL0     C14665   8.948   5.121  11.178 -0.6033  0.2217 -0.5177
  112MOL0     C14666   8.836   5.082  11.281 -0.4814  0.8259 -1.3815
  112MOL0     C14667   8.736   4.973  11.227  0.4188  0.1730  0.0053
  112MOL0     C14668   8.668   4.883  11.331  0.4308  0.0121 -0.9251
  112MOL0     N14669   8.653   4.952  11.454  0.1536 -0.5298 -0.1742
  112MOL0     C14670   8.705   4.908  11.577  0.5584 -0.6920 -0.3832
  112MOL0     C14671   8.666   5.005  11.663 -0.4740  0.7440 -0.0232
  112MOL0     C14672   8.694   5.009  11.811 -1.0885  0.2764 -1.2403
  112MOL0     C14673   8.839   5.063  11.853 -0.8720  0.0213 -0.0921
  112MOL0     C14674   8.939   4.958  11.813 -0.2697  1.1557 -0.3579
  112MOL0     C14675   9.077   4.993  11.864 -0.8998  0.5276 -0.7631
  112MOL0     O14676   9.086   5.035  11.999  0.5445 -0.0608  0.0778
  112MOL0     C14677   9.217   5.041  12.050 -0.0796  0.3004 -0.3771
  112MOL0     C14678   9.332   5.042  11.972 -0.8731  0.9207 -0.9421
  112MOL0     C14679   9.454   5.084  12.030  0.0793 -0.2691  0.3091
  112MOL0     C14680   9.464   5.115  12.169 -0.2754  0.7865  0.7235
  112MOL0     C14681   9.597   5.137  12.245 -0.1450  0.2203  0.7884
  112MOL0     O14682   9.588   5.190  12.375 -0.5668 -0.4017  0.0820
  112MOL0     C14683   9.709   5.229  12.432  0.2971  0.1875 -1.7541
  112MOL0     C14684   9.775   5.338  12.386 -0.0019  0.1915  0.7806
  112MOL0     C14685   9.878   5.386  12.460  0.0870 -0.0549 -0.0513
  112MOL0     C14686   9.930   5.325  12.577 -0.8093 -0.2743  0.3723
  112MOL0     O14687  10.027   5.390  12.643 -0.1374  0.7260  0.4648
  112MOL0     C14688  10.039   5.372  12.785  0.3859 -0.4977 -0.6625
  112MOL0     C14689  10.060   5.505  12.875  0.0477 -0.1896  0.2183
  112MOL0     C14690  10.211   5.545  12.865  0.9029  0.2153  0.4585
  112MOL0     C14691  10.319   5.470  12.943  0.5848 -0.2406 -0.1781
  112MOL0     C14692  10.467   5.518  12.928  0.8656  0.4385  0.8912
  112MOL0     C14693  10.484   5.665  12.931  0.6322  0.4975 -0.5100
  112MOL0     C14694  10.431   5.735  13.060  0.3779  0.8951 -0.2189
  112MOL0     C14695  10.411   5.894  13.048  0.0749  1.2488 -0.4226
  112MOL0    Cl14696  10.572   5.976  13.022  0.6825  0.0185 -0.2826
  112MOL0     C14697   9.866   5.202  12.607 -1.1362  1.1551  0.6615
  112MOL0     C14698   9.756   5.158  12.537  0.0566 -0.2605  0.0123
  112MOL0     O14699   9.704   5.113  12.187  0.4876  0.2075  0.0836
  112MOL0     C14700   9.345   5.104  12.239  0.6422  0.2391 -1.0163
  112MOL0     C14701   9.222   5.071  12.184 -0.2719 -0.4202  0.1750
  112MOL0     N14702   8.571   5.079  11.599  0.3779 -0.1015  1.0728
  112MOL0     N14703   8.565   5.050  11.478 -0.9895  0.2206  0.2351
  112MOL0     C14704   9.666   5.285  11.029 -0.3212 -0.9928 -0.3972
  112MOL0     C14705   9.784   5.312  10.956  0.4876  0.2441 -0.1556
  112MOL0     C14706  10.137   5.569  10.821  0.5219  0.4351  0.1450
  112MOL0     C14707  10.182   5.469  10.728  0.5228 -0.6437  1.4457
  112MOL0     C14708  10.319   5.466  10.695  0.0566 -1.1845  0.0278
  112MOL0     C14709  10.406   5.571  10.732 -0.1934  0.4362  0.8509
  112MOL0     O14710  10.533   5.576  10.691 -0.3275 -0.6692 -0.1689
  112MOL0     C14711  10.547   5.628  10.553  0.5330  0.1461 -0.0747
  112MOL0     C14712  10.684   5.571  10.510  0.2093 -0.3008 -0.3536
  112MOL0     C14713  10.802   5.621  10.581 -0.1019 -1.1426  0.4940
  112MOL0     C14714  10.915   5.520  10.585 -0.8405 -0.8772 -0.3775
  112MOL0     C14715  11.030   5.592  10.649  0.0734  0.3280  0.7686
  112MOL0     C14716  11.119   5.645  10.700  0.5005 -0.3495 -0.5035
  112MOL0     C14717  10.354   5.672  10.813 -0.6297  0.4819  0.0039
  112MOL0     C14718  10.227   5.670  10.864  0.3959  0.8666 -0.1293
  112MOL0     H14719   9.697   5.616  10.811  4.3457  1.0655  2.2323
  112MOL0     H14720   9.503   5.580  10.935  1.1897  1.8370 -2.7587
  112MOL0     H14721   9.289   5.424  10.991 -1.7448 -0.2695  0.2418
  112MOL0     H14722   9.354   5.528  11.115 -3.1717 -0.8561  1.6444
  112MOL0     H14723   9.171   5.472  11.213 -1.4083 -0.9252  1.7083
  112MOL0     H14724   9.289   5.346  11.261  1.9303 -0.7387 -1.9726
  112MOL0     H14725   9.176   5.210  11.075  0.4751  0.7360 -1.8022
  112MOL0     H14726   9.065   5.346  11.042  0.4396  1.8317  1.9223
  112MOL0     H14727   9.091   5.208  11.297  0.8357 -2.0102 -1.6953
  112MOL0     H14728   8.947   5.325  11.243  0.7335  1.7284 -0.0346
  112MOL0     H14729   9.014   5.036  11.161  0.2913  0.8175 -0.1299
  112MOL0     H14730   8.901   5.150  11.084  1.1943  1.6994 -1.0281
  112MOL0     H14731   8.781   5.174  11.304 -0.4138  2.1755 -5.7999
  112MOL0     H14732   8.892   5.045  11.368  0.6098  1.5261 -1.7576
  112MOL0     H14733   8.659   5.021  11.167 -1.3639 -0.8827  1.3194
  112MOL0     H14734   8.787   4.913  11.151 -1.7916  0.7351 -2.0332
  112MOL0     H14735   8.727   4.792  11.340  2.0793  1.1720  0.8792
  112MOL0     H14736   8.568   4.855  11.298  0.0584 -0.5404  0.5970
  112MOL0     H14737   8.766   4.819  11.588 -1.9521 -2.4439  0.3549
  112MOL0     H14738   8.670   4.917  11.866  1.4433  0.0822 -0.3326
  112MOL0     H14739   8.627   5.089  11.845  2.2931  2.9512 -0.3116
  112MOL0     H14740   8.841   5.073  11.962 -0.4083 -0.3907 -0.0615
  112MOL0     H14741   8.851   5.163  11.810 -3.2766 -0.2328 -1.5416
  112MOL0     H14742   8.920   4.870  11.876  1.6556 -0.8047 -2.3500
  112MOL0     H14743   8.931   4.938  11.706  0.0947  1.8927 -0.5309
  112MOL0     H14744   9.112   5.079  11.806 -0.6526 -0.7880 -2.6529
  112MOL0     H14745   9.153   4.914  11.862  1.7982  2.9540 -1.0694
  112MOL0     H14746   9.325   5.037  11.864 -0.5326 -0.0167 -0.9244
  112MOL0     H14747   9.545   5.085  11.971 -0.9928 -0.2105 -1.3962
  112MOL0     H14748   9.740   5.392  12.298 -0.8910 -1.1591  0.2705
  112MOL0     H14749   9.924   5.485  12.455 -3.0066  1.6802  2.0896
  112MOL0     H14750  10.123   5.303  12.799 -1.2012 -2.3907  0.1125
  112MOL0     H14751   9.958   5.314  12.832  1.3286 -1.4596 -0.1770
  112MOL0     H14752  10.040   5.486  12.980 -0.0588 -1.8016 -0.0742
  112MOL0     H14753   9.999   5.589  12.841  1.1146  1.2368  1.6748
  112MOL0     H14754  10.208   5.654  12.872 -1.1270  0.2357 -0.3787
  112MOL0     H14755  10.230   5.538  12.758  1.0901  0.6978  0.4578
  112MOL0     H14756  10.293   5.463  13.049 -0.4359 -0.9326 -0.4663
  112MOL0     H14757  10.317   5.368  12.906 -1.2039 -0.4837  0.5025
  112MOL0     H14758  10.518   5.478  12.840 -0.8861 -1.0357  0.4875
  112MOL0     H14759  10.521   5.465  13.007 -1.0825 -0.9246  1.3708
  112MOL0     H14760  10.431   5.718  12.852 -0.8933 -1.2548 -0.7149
  112MOL0     H14761  10.592   5.680  12.920  0.4765  1.7778 -0.4230
  112MOL0     H14762  10.341   5.685  13.099  1.7220  0.2621  2.3116
  112MOL0     H14763  10.503   5.709  13.138 -1.8494 -2.9160  0.8436
  112MOL0     H14764  10.364   5.932  13.139  1.4324  0.7804  0.5033
  112MOL0     H14765  10.344   5.901  12.962  2.2809  0.3607 -2.3257
  112MOL0     H14766   9.897   5.139  12.689 -0.3161  0.1491 -0.3942
  112MOL0     H14767   9.709   5.069  12.577  1.3876 -0.3961  1.3841
  112MOL0     H14768   9.345   5.120  12.347 -1.1971  0.4881 -1.0200
  112MOL0     H14769   9.138   5.067  12.252  2.6161 -2.1271  4.0926
  112MOL0     H14770   9.640   5.202  11.094 -1.5475 -0.9801 -0.8420
  112MOL0     H14771   9.867   5.242  10.949  2.1473  2.2218 -1.1601
  112MOL0     H14772  10.114   5.388  10.702 -1.6001  1.7033 -1.0801
  112MOL0     H14773  10.369   5.402  10.623  3.8884  3.2854 -1.8070
  112MOL0     H14774  10.548   5.737  10.537 -1.8458  0.2002 -0.1759
  112MOL0     H14775  10.456   5.598  10.500 -0.4082  1.0348  0.9579
  112MOL0     H14776  10.680   5.462  10.519  0.5064 -0.1310  4.0734
  112MOL0     H14777  10.696   5.591  10.403  2.1382  1.8308  0.1786
  112MOL0     H14778  10.774   5.640  10.685 -0.1980 -0.6965  0.3867
  112MOL0     H14779  10.830   5.724  10.558  3.9707 -2.1846  0.0571
  112MOL0     H14780  10.897   5.431  10.646 -4.6908  0.7077  1.1227
  112MOL0     H14781  10.919   5.496  10.478 -2.6526  0.6443 -0.8607
  112MOL0     H14782  11.204   5.690  10.748 -0.1954  1.3981 -0.8586
  112MOL0     H14783  10.410   5.758  10.849 -1.4810  1.0981 -0.1016
  112MOL0     H14784  10.204   5.753  10.931  1.1003 -0.1709  1.4373
  113MOL0     O14785   5.344   0.808   6.334  0.3109 -0.8209  0.2135
  113MOL0     C14786   5.253   0.819   6.416 -1.1027  0.7551  0.0115
  113MOL0     O14787   5.157   0.730   6.421  0.3959 -0.6565 -0.2100
  113MOL0     C14788   5.111   0.657   6.312 -0.6487 -0.8387  0.5197
  113MOL0     C14789   5.123   0.700   6.177 -0.6466  0.6667  0.0667
  113MOL0     C14790   5.060   0.620   6.076 -0.2685 -0.0537  0.2327
  113MOL0     C14791   4.978   0.512   6.106 -1.0869  0.1136 -0.5712
  113MOL0     O14792   4.920   0.452   6.002 -0.6777 -0.0153 -0.5610
  113MOL0     C14793   4.793   0.388   6.016 -0.4439 -0.2984  0.1112
  113MOL0     C14794   4.744   0.356   5.879  0.5736  0.2028  0.3565
  113MOL0     C14795   4.615   0.274   5.894  0.7956  0.3870 -0.0339
  113MOL0     C14796   4.580   0.221   5.754 -0.6459 -0.8550  1.1597
  113MOL0     C14797   4.458   0.127   5.768  0.0128  0.7986  0.0633
  113MOL0     C14798   4.335   0.173   5.851 -0.4165 -0.4477 -1.5266
  113MOL0     C14799   4.275   0.295   5.792 -0.3417 -0.1061 -0.3143
  113MOL0     C14800   4.210   0.290   5.651 -0.2853 -0.0020  0.4597
  113MOL0     N14801   4.118   0.170   5.632  0.3702  0.5841 -0.1726
  113MOL0     C14802   4.149   0.041   5.638 -0.1099 -0.0229  0.2871
  113MOL0     C14803   4.031  -0.020   5.639  0.1449  0.5128  0.7484
  113MOL0     C14804   4.007  -0.163   5.645 -0.9010 -0.0753  0.4398
  113MOL0     C14805   4.027  -0.216   5.785 -0.3309 -0.2158  0.7347
  113MOL0     C14806   3.905  -0.183   5.877 -0.1144 -0.1611  0.2378
  113MOL0     C14807   3.791  -0.287   5.853  0.4818 -0.1669  0.4108
  113MOL0     O14808   3.677  -0.262   5.941  0.0061  0.1885  0.0531
  113MOL0     C14809   3.550  -0.309   5.894 -0.0710 -0.0696  0.3226
  113MOL0     C14810   3.531  -0.439   5.829  0.6304 -0.0732 -0.3943
  113MOL0     C14811   3.403  -0.489   5.824 -0.5447 -0.5395 -0.9661
  113MOL0     C14812   3.290  -0.414   5.866  0.2142  1.6413  0.5114
  113MOL0     C14813   3.156  -0.459   5.843  0.5662 -0.1828 -0.3896
  113MOL0     O14814   3.057  -0.425   5.925  0.2788 -0.7198 -0.4330
  113MOL0     C14815   2.927  -0.445   5.894  0.7283  0.6967 -0.4481
  113MOL0     C14816   2.872  -0.385   5.778  0.6871  0.0182  0.1116
  113MOL0     C14817   2.731  -0.382   5.764 -0.3672  0.5535  0.6509
  113MOL0     C14818   2.651  -0.421   5.868 -0.2089 -0.0999 -0.2403
  113MOL0     O14819   2.518  -0.398   5.856 -0.2550  0.0335 -0.3781
  113MOL0     C14820   2.438  -0.511   5.869  0.1280 -0.4851 -1.0820
  113MOL0     C14821   2.293  -0.483   5.922 -0.8730 -0.4179  0.3785
  113MOL0     C14822   2.222  -0.376   5.840 -0.3197 -0.6733  1.0694
  113MOL0     C14823   2.076  -0.334   5.868  0.5485 -0.3056 -0.4408
  113MOL0     C14824   2.032  -0.226   5.764  0.1610  0.7479  0.0049
  113MOL0     C14825   2.125  -0.094   5.766  0.1853  0.1005  0.0632
  113MOL0     C14826   2.041   0.032   5.734 -0.7933  0.4907 -0.6156
  113MOL0     C14827   1.996   0.027   5.590  0.1263  0.2596  0.9648
  113MOL0    Cl14828   2.131   0.034   5.476  0.0763 -0.2385  0.0541
  113MOL0     C14829   2.701  -0.469   5.987  0.0672 -0.6487 -0.4503
  113MOL0     C14830   2.842  -0.476   6.001 -0.3339  1.0462 -0.3197
  113MOL0     O14831   3.140  -0.541   5.756 -0.1109 -0.8678  0.3292
  113MOL0     C14832   3.309  -0.291   5.922 -0.1297 -0.7494 -0.1801
  113MOL0     C14833   3.443  -0.234   5.924  0.1785 -0.2083 -0.4694
  113MOL0     N14834   3.934   0.071   5.629  0.5293 -0.6793 -0.2827
  113MOL0     N14835   3.984   0.188   5.623 -0.6983 -0.1817  0.0503
  113MOL0     C14836   4.951   0.487   6.234  0.6162 -0.0328  0.0581
  113MOL0     C14837   5.019   0.559   6.339 -0.0762 -1.0582  0.6479
  113MOL0     C14838   5.260   0.911   6.539  0.3776  0.7248  0.2724
  113MOL0     C14839   5.358   1.015   6.559 -0.8030  0.1116  0.3846
  113MOL0     C14840   5.371   1.088   6.680  0.0189 -0.5743 -0.5255
  113MOL0     C14841   5.278   1.059   6.785  0.4928 -0.1884 -0.6325
  113MOL0     O14842   5.293   1.107   6.908  0.3852  0.3068  0.5863
  113MOL0     C14843   5.281   1.250   6.928 -0.2675  0.4417 -0.6030
  113MOL0     C14844   5.231   1.282   7.075  0.4011  0.1112  0.1621
  113MOL0     C14845   5.341   1.247   7.175  0.4447  0.3285  0.4375
  113MOL0     C14846   5.281   1.242   7.317  0.4381 -0.4318 -0.2781
  113MOL0     C14847   5.353   1.154   7.405 -0.4987  0.5256 -0.1784
  113MOL0     C14848   5.423   1.075   7.470  0.3548  0.3055 -0.4516
  113MOL0     C14849   5.191   0.948   6.773  0.7102  0.4032  1.6168
  113MOL0     C14850   5.174   0.886   6.646  0.3688 -0.9627  0.8194
  113MOL0     H14851   5.169   0.794   6.151 -1.8501  1.2962  0.1196
  113MOL0     H14852   5.082   0.650   5.974  2.1789  0.4671  0.8560
  113MOL0     H14853   4.726   0.468   6.050  0.7667  0.4982  0.7000
  113MOL0     H14854   4.797   0.296   6.074 -2.6007 -1.9969 -2.2161
  113MOL0     H14855   4.828   0.300   5.838 -3.0593 -3.6266 -2.8099
  113MOL0     H14856   4.714   0.442   5.817  0.1195 -0.3734 -0.2365
  113MOL0     H14857   4.529   0.333   5.928 -1.2743 -0.7174 -2.9202
  113MOL0     H14858   4.627   0.187   5.960 -0.3068  0.4243  0.2392
  113MOL0     H14859   4.558   0.300   5.681  2.2764  1.5658  2.6924
  113MOL0     H14860   4.663   0.161   5.716 -0.6375  0.2392 -0.6716
  113MOL0     H14861   4.496   0.032   5.808  0.1368  0.4047 -0.9815
  113MOL0     H14862   4.424   0.111   5.666 -1.3812  0.4171  0.5650
  113MOL0     H14863   4.358   0.201   5.953  0.4913 -1.5395 -1.4114
  113MOL0     H14864   4.254   0.101   5.868 -0.9079  0.7933  2.1967
  113MOL0     H14865   4.194   0.322   5.860 -0.2975 -0.5136 -0.1010
  113MOL0     H14866   4.362   0.361   5.784  0.7803 -1.7028 -2.5371
  113MOL0     H14867   4.279   0.302   5.567  1.7071  1.2830  2.1644
  113MOL0     H14868   4.149   0.381   5.646  1.0763  0.9810 -5.1907
  113MOL0     H14869   4.248  -0.003   5.645  1.6206  3.5909  1.0957
  113MOL0     H14870   4.079  -0.212   5.579 -1.3983  0.0700 -0.2111
  113MOL0     H14871   3.908  -0.192   5.610 -1.9363 -0.5065  3.4274
  113MOL0     H14872   4.119  -0.172   5.825  0.5673 -3.3332  2.3998
  113MOL0     H14873   4.053  -0.322   5.789  0.4428 -0.1411 -1.0193
  113MOL0     H14874   3.939  -0.185   5.981  1.4691 -1.2015 -0.2725
  113MOL0     H14875   3.882  -0.077   5.863  1.7155  0.2312  0.0024
  113MOL0     H14876   3.832  -0.385   5.879  2.3978  0.0960 -1.3208
  113MOL0     H14877   3.754  -0.307   5.752 -0.9825 -3.1421  1.4194
  113MOL0     H14878   3.601  -0.511   5.789 -1.2510 -1.9712 -0.4362
  113MOL0     H14879   3.391  -0.585   5.774 -2.0791 -1.3192  0.7741
  113MOL0     H14880   2.932  -0.352   5.694  1.3901 -1.5171 -0.0278
  113MOL0     H14881   2.680  -0.348   5.674  0.6010 -2.1255 -1.0228
  113MOL0     H14882   2.483  -0.586   5.935  1.0715  1.9449  1.1990
  113MOL0     H14883   2.421  -0.560   5.772 -0.8408  1.1410 -1.7676
  113MOL0     H14884   2.296  -0.441   6.023 -1.8940  1.6771 -0.4044
  113MOL0     H14885   2.238  -0.577   5.933 -1.7803 -0.1464 -1.4223
  113MOL0     H14886   2.233  -0.402   5.734  0.9199  2.8294  0.2312
  113MOL0     H14887   2.285  -0.287   5.837 -2.0555  0.6496 -2.6411
  113MOL0     H14888   2.012  -0.421   5.852  0.3523 -0.0104 -1.3537
  113MOL0     H14889   2.066  -0.297   5.970  1.3779  2.3063 -1.2114
  113MOL0     H14890   1.931  -0.199   5.797  0.0033  1.7757 -1.2090
  113MOL0     H14891   2.024  -0.260   5.660  0.6971 -1.9333  0.7609
  113MOL0     H14892   2.208  -0.097   5.696 -0.8636 -1.0245 -1.1951
  113MOL0     H14893   2.158  -0.081   5.870 -1.7960  0.7572  0.6678
  113MOL0     H14894   1.964   0.041   5.811 -0.3959  2.0679 -0.3758
  113MOL0     H14895   2.102   0.122   5.743 -0.6023  0.3340 -0.3387
  113MOL0     H14896   1.940   0.121   5.583  2.1212  1.5653  1.6918
  113MOL0     H14897   1.921  -0.049   5.567  1.9317 -1.3920  0.2856
  113MOL0     H14898   2.640  -0.502   6.071 -0.9498 -1.3190 -1.4291
  113MOL0     H14899   2.888  -0.486   6.099  0.6577  2.0673 -0.6543
  113MOL0     H14900   3.224  -0.231   5.953 -0.0131 -0.8265  0.2869
  113MOL0     H14901   3.448  -0.134   5.964  0.1755 -0.9406  1.4969
  113MOL0     H14902   4.898   0.403   6.278 -2.1863  2.8565  2.7661
  113MOL0     H14903   5.008   0.533   6.444  0.0861 -1.6092  0.5344
  113MOL0     H14904   5.438   1.027   6.486  0.1896  2.9308  1.7850
  113MOL0     H14905   5.443   1.168   6.694 -1.5526  0.7309  0.5499
  113MOL0     H14906   5.209   1.289   6.856  0.0605  2.9911  0.3388
  113MOL0     H14907   5.383   1.286   6.911  0.4593 -1.8268 -1.4053
  113MOL0     H14908   5.201   1.387   7.087  1.4300  0.1606  2.8578
  113MOL0     H14909   5.141   1.219   7.079 -0.0706  0.5901 -1.6416
  113MOL0     H14910   5.420   1.322   7.165  2.0027 -1.5509 -2.4716
  113MOL0     H14911   5.386   1.153   7.144  2.5528  1.5464 -0.4086
  113MOL0     H14912   5.262   1.346   7.345  1.9137  0.7349 -3.1668
  113MOL0     H14913   5.183   1.192   7.313 -0.3265  0.5733  2.8688
  113MOL0     H14914   5.492   1.002   7.507 -2.1560 -2.7020 -1.2558
  113MOL0     H14915   5.135   0.900   6.852  0.2733 -0.0286  1.0595
  113MOL0     H14916   5.089   0.818   6.647 -0.2144 -0.3157 -0.7683
  114MOL0     O14917   5.562   8.291   8.968  0.4633 -0.6529 -0.7582
  114MOL0     C14918   5.443   8.299   9.011  0.1148  1.0739  1.7639
  114MOL0     O14919   5.377   8.406   9.066 -0.4074 -0.2946 -0.1310
  114MOL0     C14920   5.439   8.520   9.093 -0.0910  0.3877 -0.7249
  114MOL0     C14921   5.390   8.591   9.203 -0.0924 -0.2279  0.1206
  114MOL0     C14922   5.444   8.720   9.233  0.5824 -0.5180  0.0613
  114MOL0     C14923   5.550   8.770   9.159  1.4393 -0.1401  0.0594
  114MOL0     O14924   5.592   8.899   9.179  0.7400 -0.0736  1.3458
  114MOL0     C14925   5.606   8.986   9.069  0.1685 -0.0113  0.7265
  114MOL0     C14926   5.644   9.116   9.132  0.0336 -0.4128  0.2104
  114MOL0     C14927   5.524   9.174   9.220 -0.3301 -0.4126 -0.3656
  114MOL0     C14928   5.576   9.255   9.353  0.2668 -0.5297  0.9556
  114MOL0     C14929   5.666   9.380   9.327 -0.3142 -0.0367  0.2837
  114MOL0     C14930   5.594   9.497   9.254  0.2560 -0.5494 -0.0061
  114MOL0     C14931   5.673   9.616   9.237 -0.6577 -0.6149 -0.1458
  114MOL0     C14932   5.628   9.711   9.118  0.4124 -0.0477  0.8906
  114MOL0     N14933   5.493   9.767   9.133  0.3259 -0.4890  0.6440
  114MOL0     C14934   5.404   9.796   9.033 -0.2973  0.2269  0.5549
  114MOL0     C14935   5.300   9.847   9.095 -0.3726 -0.1324 -0.0138
  114MOL0     C14936   5.178   9.906   9.034 -0.7912  0.1317  0.1572
  114MOL0     C14937   5.084   9.789   8.995 -0.8489  1.1748 -0.1195
  114MOL0     C14938   5.021   9.725   9.127 -0.0683  0.6137  0.0179
  114MOL0     C14939   4.904   9.637   9.093 -0.3948  0.6531  0.6761
  114MOL0     O14940   4.859   9.558   9.203 -0.1108 -1.3075  0.6341
  114MOL0     C14941   4.730   9.532   9.213  0.2512  0.6610  0.1165
  114MOL0     C14942   4.663   9.543   9.334 -0.0381 -0.9087 -0.2128
  114MOL0     C14943   4.519   9.526   9.345  0.2041 -0.5897 -0.2831
  114MOL0     C14944   4.438   9.499   9.232 -1.6051  0.5307 -1.0741
  114MOL0     C14945   4.294   9.479   9.248  0.1637  0.0902  0.3234
  114MOL0     O14946   4.226   9.432   9.132 -0.4482 -0.5342  0.1605
  114MOL0     C14947   4.094   9.404   9.138  0.3413 -0.4070 -0.6420
  114MOL0     C14948   4.005   9.501   9.185 -1.1206  0.3758 -0.3159
  114MOL0     C14949   3.864   9.470   9.197 -0.7461  0.2901  0.4825
  114MOL0     C14950   3.812   9.349   9.166 -0.2152 -0.2141 -0.8293
  114MOL0     O14951   3.682   9.316   9.184 -0.2754  0.0580 -0.1981
  114MOL0     C14952   3.621   9.223   9.088  0.1550  0.2612  0.6001
  114MOL0     C14953   3.507   9.141   9.141 -0.0109 -0.6324 -0.0290
  114MOL0     C14954   3.477   9.032   9.033  0.2976 -0.9805 -0.0525
  114MOL0     C14955   3.365   9.058   8.933  0.4178  0.6101  0.1681
  114MOL0     C14956   3.339   8.948   8.824 -0.2062 -1.5201 -0.9142
  114MOL0     C14957   3.196   8.930   8.790  0.0608  0.4172 -0.1566
  114MOL0     C14958   3.183   8.858   8.647  0.9120 -0.5831 -0.5047
  114MOL0     C14959   3.217   8.950   8.531  0.2198 -0.0416  0.9157
  114MOL0    Cl14960   3.145   8.878   8.377  0.4455 -0.1307 -0.3774
  114MOL0     C14961   3.905   9.256   9.116  0.2563 -0.0063 -1.1584
  114MOL0     C14962   4.042   9.276   9.116  0.0957  0.7802 -0.3710
  114MOL0     O14963   4.241   9.497   9.362 -0.4484  0.2272  0.4981
  114MOL0     C14964   4.508   9.472   9.112 -0.3684 -0.1183  0.6189
  114MOL0     C14965   4.648   9.492   9.104  0.1845 -0.2735  0.6031
  114MOL0     N14966   5.325   9.862   9.230  0.1814 -0.2059  0.7478
  114MOL0     N14967   5.441   9.812   9.249  0.8685 -0.6984 -0.0934
  114MOL0     C14968   5.601   8.694   9.054  1.0559 -0.3744  1.0543
  114MOL0     C14969   5.536   8.575   9.012 -0.5048  0.5721  0.0518
  114MOL0     C14970   5.365   8.176   8.987 -1.2525  0.2430  0.9798
  114MOL0     C14971   5.238   8.158   9.049  0.0834  0.4388  1.6492
  114MOL0     C14972   5.149   8.045   9.015 -0.2531 -0.0583  0.1743
  114MOL0     C14973   5.208   7.944   8.933 -0.8142 -0.0865  0.1515
  114MOL0     O14974   5.138   7.833   8.890  0.6354  0.1815 -0.7604
  114MOL0     C14975   4.993   7.823   8.903  0.1571 -0.3221 -0.9003
  114MOL0     C14976   4.919   7.847   8.769  0.4640 -0.2988  0.2339
  114MOL0     C14977   4.760   7.834   8.786 -0.6144  0.1063  0.9617
  114MOL0     C14978   4.702   7.847   8.654 -0.2791  0.5467 -0.1381
  114MOL0     C14979   4.565   7.808   8.670  0.5326 -0.0901 -0.1848
  114MOL0     C14980   4.446   7.780   8.669  0.5333  0.3993  0.9792
  114MOL0     C14981   5.340   7.958   8.888  0.2823 -0.3656  0.1442
  114MOL0     C14982   5.411   8.078   8.905  0.0343  0.1028 -0.4573
  114MOL0     H14983   5.320   8.553   9.277  0.3396 -0.6393  0.3239
  114MOL0     H14984   5.397   8.788   9.304  1.0608  1.2182 -1.2159
  114MOL0     H14985   5.512   8.993   9.014  1.9676  2.2171 -2.3828
  114MOL0     H14986   5.683   8.949   9.000 -0.9320 -2.5267  0.7473
  114MOL0     H14987   5.677   9.190   9.060  0.1297 -1.9461 -1.3912
  114MOL0     H14988   5.730   9.098   9.197  0.5528 -0.2512 -0.4226
  114MOL0     H14989   5.457   9.095   9.255 -0.0547 -1.1851 -1.5313
  114MOL0     H14990   5.471   9.228   9.141  0.3521 -2.5946 -2.4042
  114MOL0     H14991   5.494   9.289   9.418  2.2291  0.9066  2.8365
  114MOL0     H14992   5.636   9.179   9.403 -0.3208 -1.6265  0.0302
  114MOL0     H14993   5.746   9.348   9.259 -1.4774 -1.8115 -0.3075
  114MOL0     H14994   5.701   9.412   9.425  3.2147 -0.9972 -0.5338
  114MOL0     H14995   5.506   9.525   9.312  1.4572  1.5185  0.9189
  114MOL0     H14996   5.563   9.464   9.154 -0.1312 -0.3149  0.0367
  114MOL0     H14997   5.673   9.667   9.334 -1.9912 -0.4755 -0.1943
  114MOL0     H14998   5.775   9.584   9.215  0.0837  0.2753  1.7692
  114MOL0     H14999   5.644   9.659   9.023  0.7585  3.3453 -1.0612
  114MOL0     H15000   5.706   9.787   9.111  0.0087  0.1718 -2.6855
  114MOL0     H15001   5.414   9.774   8.928  3.5627 -0.6788  0.9582
  114MOL0     H15002   5.214   9.966   8.949  0.5463  0.4931  0.9457
  114MOL0     H15003   5.128   9.976   9.102  0.5182  2.5023 -1.1901
  114MOL0     H15004   5.140   9.714   8.940 -2.3304  0.0631 -0.1694
  114MOL0     H15005   5.012   9.814   8.916  0.5269 -1.6862 -2.4413
  114MOL0     H15006   5.101   9.671   9.179 -1.5262 -0.2864  1.4375
  114MOL0     H15007   4.999   9.805   9.198 -0.0525  0.8855 -0.2820
  114MOL0     H15008   4.941   9.569   9.016 -0.0259 -0.4745  1.8232
  114MOL0     H15009   4.827   9.701   9.048 -2.0023 -1.7115 -0.1001
  114MOL0     H15010   4.724   9.559   9.422  3.0143  0.9986 -2.4493
  114MOL0     H15011   4.472   9.546   9.441 -1.1708  2.0388 -1.4010
  114MOL0     H15012   4.045   9.597   9.218 -0.3572  0.3422 -1.1226
  114MOL0     H15013   3.802   9.552   9.233 -0.9836  1.3049 -2.0577
  114MOL0     H15014   3.695   9.156   9.043 -0.3936  0.5662 -0.8231
  114MOL0     H15015   3.581   9.278   9.002  0.4132 -1.4593 -0.6873
  114MOL0     H15016   3.422   9.207   9.158 -1.5109 -2.8655  1.5901
  114MOL0     H15017   3.533   9.091   9.234  2.2217 -0.2717 -0.3912
  114MOL0     H15018   3.457   8.943   9.094 -1.3011 -0.1210  0.7460
  114MOL0     H15019   3.562   9.017   8.966  0.4617  4.4139 -1.5511
  114MOL0     H15020   3.277   9.075   8.996  1.7872  1.1188  2.0613
  114MOL0     H15021   3.371   9.156   8.884 -0.1626 -0.5549 -2.4010
  114MOL0     H15022   3.393   8.853   8.836  3.1830  0.1211 -2.0158
  114MOL0     H15023   3.393   8.996   8.742  0.2211  1.0431  0.7479
  114MOL0     H15024   3.145   9.026   8.804  2.1380  1.1859  3.5863
  114MOL0     H15025   3.155   8.867   8.869 -0.1739 -0.4106 -0.9171
  114MOL0     H15026   3.239   8.764   8.652 -0.9550 -1.9007 -2.5007
  114MOL0     H15027   3.078   8.832   8.633 -0.9178  4.3930  1.6495
  114MOL0     H15028   3.326   8.955   8.526  0.2990  1.6860  2.7749
  114MOL0     H15029   3.175   9.051   8.538  0.3478  0.0087  0.9460
  114MOL0     H15030   3.875   9.153   9.098  2.7051 -0.1789 -5.8986
  114MOL0     H15031   4.109   9.196   9.086  0.1701  0.6280  0.1918
  114MOL0     H15032   4.454   9.428   9.029 -0.3548  0.1954  0.4429
  114MOL0     H15033   4.691   9.471   9.006 -0.1461  0.5827  0.2655
  114MOL0     H15034   5.680   8.736   8.992 -0.3986 -0.0203 -0.6750
  114MOL0     H15035   5.554   8.523   8.918 -0.2701 -0.9128  0.8844
  114MOL0     H15036   5.206   8.229   9.124  2.4631  0.4923  2.7120
  114MOL0     H15037   5.049   8.049   9.055 -0.4654  0.0008 -0.3530
  114MOL0     H15038   4.964   7.902   8.973 -1.5455 -1.3058 -0.4607
  114MOL0     H15039   4.970   7.721   8.934 -0.3158  0.7522  2.7271
  114MOL0     H15040   4.934   7.952   8.742 -0.3415  0.5488  2.7850
  114MOL0     H15041   4.951   7.786   8.684 -1.9579  2.5471 -3.0186
  114MOL0     H15042   4.721   7.916   8.848 -3.3963  0.8143 -1.4808
  114MOL0     H15043   4.740   7.736   8.830  3.2441 -0.7326  1.1739
  114MOL0     H15044   4.715   7.946   8.609  3.7592 -0.3740 -1.4032
  114MOL0     H15045   4.743   7.777   8.581 -1.0590  2.1074 -2.1851
  114MOL0     H15046   4.340   7.768   8.671  0.7299 -1.6427  1.4005
  114MOL0     H15047   5.373   7.889   8.810 -2.5688 -0.8799 -0.7193
  114MOL0     H15048   5.505   8.070   8.850  0.0744 -6.1409 -0.2326
  115MOL0     O15049  11.251   1.142   8.358  0.2959 -0.3793 -0.4139
  115MOL0     C15050  11.170   1.077   8.421  0.1385  0.7677  0.2182
  115MOL0     O15051  11.192   0.963   8.486 -0.5328 -0.9257  0.8595
  115MOL0     C15052  11.313   0.896   8.481  0.3253 -0.4904  0.1770
  115MOL0     C15053  11.439   0.972   8.494  1.0443 -0.5181 -0.8734
  115MOL0     C15054  11.559   0.901   8.508 -0.4196  0.3526  0.6480
  115MOL0     C15055  11.566   0.759   8.498  0.5205 -0.3900  0.2025
  115MOL0     O15056  11.696   0.714   8.508 -0.2083  0.6931  0.3036
  115MOL0     C15057  11.715   0.592   8.432  0.4225 -0.6885  0.8226
  115MOL0     C15058  11.859   0.599   8.392 -0.3439  0.0024 -0.0265
  115MOL0     C15059  11.950   0.591   8.513 -0.0083  0.5009  0.4871
  115MOL0     C15060  12.093   0.589   8.453 -0.6046  0.4054 -0.3952
  115MOL0     C15061  12.200   0.557   8.560  0.7796 -1.3444 -0.0128
  115MOL0     C15062  12.342   0.581   8.516 -0.2829 -0.0410 -0.3075
  115MOL0     C15063  12.432   0.573   8.641  0.4458  0.1726 -0.2126
  115MOL0     C15064  12.533   0.681   8.668  0.3741  0.7421 -0.4647
  115MOL0     N15065  12.641   0.631   8.761  0.4229 -0.5839 -0.3967
  115MOL0     C15066  12.704   0.701   8.869 -0.6044 -0.3011  0.8346
  115MOL0     C15067  12.805   0.621   8.908  0.4660 -0.0987  0.1157
  115MOL0     C15068  12.896   0.626   9.031  1.0787  0.6427 -0.3702
  115MOL0     C15069  12.851   0.509   9.125  0.0178 -0.5918 -0.6197
  115MOL0     C15070  12.700   0.508   9.178 -0.0098 -0.0250 -0.1381
  115MOL0     C15071  12.614   0.411   9.096 -0.7212  0.1797 -0.1956
  115MOL0     O15072  12.468   0.434   9.100 -0.0273 -0.2227 -0.1839
  115MOL0     C15073  12.395   0.372   9.004  0.7879  0.4941  0.6927
  115MOL0     C15074  12.262   0.411   8.982 -0.6129 -0.4632  0.0168
  115MOL0     C15075  12.178   0.349   8.877  0.4532  0.3128  0.1472
  115MOL0     C15076  12.233   0.255   8.797  0.0091  0.4756  0.6711
  115MOL0     C15077  12.142   0.189   8.692  0.2898 -0.3279  0.8815
  115MOL0     O15078  12.010   0.224   8.678  0.1552 -0.5324 -1.2092
  115MOL0     C15079  11.934   0.152   8.591  1.1047 -0.3815  0.1703
  115MOL0     C15080  11.911   0.013   8.589 -1.2238  0.0815  0.4408
  115MOL0     C15081  11.837  -0.048   8.478  0.8397  0.2477 -0.1754
  115MOL0     C15082  11.776   0.036   8.388 -0.5783  0.2685 -0.2349
  115MOL0     O15083  11.684   0.004   8.290  0.0026 -0.2227 -0.4270
  115MOL0     C15084  11.667  -0.132   8.247 -0.1150 -0.4081 -0.6561
  115MOL0     C15085  11.630  -0.120   8.105 -0.9344 -0.1178 -0.5280
  115MOL0     C15086  11.552  -0.240   8.062  0.1687  0.0166 -0.4086
  115MOL0     C15087  11.519  -0.239   7.916 -0.0098 -0.3456  0.7334
  115MOL0     C15088  11.418  -0.351   7.894 -0.2952 -2.1851  0.8820
  115MOL0     C15089  11.329  -0.297   7.774 -0.8390  0.0457 -0.3758
  115MOL0     C15090  11.174  -0.331   7.788 -0.4411  0.3615  0.3498
  115MOL0     C15091  11.084  -0.282   7.668  0.0233  0.5165 -0.4060
  115MOL0    Cl15092  10.923  -0.381   7.686 -0.2263  0.7588  0.0114
  115MOL0     C15093  11.811   0.173   8.383 -0.3072 -0.6778  0.3230
  115MOL0     C15094  11.893   0.225   8.480 -1.0873 -0.0013  0.8344
  115MOL0     O15095  12.205   0.123   8.605  0.5312 -0.2823 -0.6487
  115MOL0     C15096  12.368   0.225   8.802 -0.4524  0.2477 -0.0327
  115MOL0     C15097  12.439   0.265   8.914  0.2887 -0.1034 -0.5263
  115MOL0     N15098  12.815   0.518   8.816  0.0717 -0.4046 -0.4920
  115MOL0     N15099  12.721   0.525   8.731  0.5028  0.6312  0.0330
  115MOL0     C15100  11.445   0.690   8.482  0.1721  0.3052 -0.3138
  115MOL0     C15101  11.324   0.758   8.479  0.3297  0.0077 -0.3437
  115MOL0     C15102  11.032   1.131   8.423 -0.6798  0.2096  0.4862
  115MOL0     C15103  10.948   1.100   8.525 -1.0223 -0.0000  0.6432
  115MOL0     C15104  10.816   1.156   8.542 -0.7257 -0.6496  0.2915
  115MOL0     C15105  10.787   1.258   8.452 -0.2593 -0.8974 -1.3442
  115MOL0     O15106  10.667   1.313   8.483  0.1694 -0.9323 -0.0062
  115MOL0     C15107  10.610   1.400   8.387  0.6140  0.2265 -0.2771
  115MOL0     C15108  10.459   1.429   8.430 -1.3016  0.7522  0.7866
  115MOL0     C15109  10.373   1.302   8.478  0.2682  0.7989  0.9689
  115MOL0     C15110  10.261   1.355   8.565 -0.6442 -0.1574 -0.2188
  115MOL0     C15111  10.164   1.246   8.599 -0.3611  0.3260 -0.4375
  115MOL0     C15112  10.103   1.164   8.659  0.3866 -0.3110 -0.0398
  115MOL0     C15113  10.881   1.296   8.349  0.4164  0.1841  0.7260
  115MOL0     C15114  10.999   1.227   8.326  0.0475  0.2123  0.1296
  115MOL0     H15115  11.426   1.079   8.499 -1.2559 -0.8004  0.2945
  115MOL0     H15116  11.655   0.952   8.517  1.0685 -2.3830  1.6554
  115MOL0     H15117  11.648   0.587   8.346  0.3988  1.9872  0.6003
  115MOL0     H15118  11.701   0.503   8.496  0.6853 -1.4267 -0.1270
  115MOL0     H15119  11.863   0.691   8.333 -3.1403  1.3242  1.6279
  115MOL0     H15120  11.881   0.519   8.320 -1.7598 -0.5954  0.1632
  115MOL0     H15121  11.938   0.495   8.564  3.0445  0.2013  0.7968
  115MOL0     H15122  11.941   0.671   8.587 -1.0145 -2.7303  4.1911
  115MOL0     H15123  12.093   0.516   8.371 -2.8036  1.1528 -1.1193
  115MOL0     H15124  12.106   0.694   8.422 -2.5286  0.7481 -0.1297
  115MOL0     H15125  12.189   0.459   8.608 -0.1369 -1.0672  0.3601
  115MOL0     H15126  12.176   0.634   8.633  1.4296  1.3749 -2.4626
  115MOL0     H15127  12.353   0.670   8.453 -1.1098 -0.3083 -0.8462
  115MOL0     H15128  12.368   0.507   8.439 -0.4120  2.1757 -2.6332
  115MOL0     H15129  12.370   0.579   8.731  2.4382  1.9183  1.1429
  115MOL0     H15130  12.490   0.480   8.630  0.0561  0.1271 -2.1240
  115MOL0     H15131  12.491   0.770   8.717 -2.2038  0.5737 -2.1652
  115MOL0     H15132  12.584   0.707   8.575 -1.3393  0.9521 -1.3974
  115MOL0     H15133  12.672   0.796   8.911 -1.1759  0.1940 -0.6611
  115MOL0     H15134  12.877   0.723   9.077 -2.9853 -0.7877  1.4451
  115MOL0     H15135  13.002   0.611   9.006  0.8092 -2.1892 -0.1310
  115MOL0     H15136  12.917   0.522   9.211 -1.1196 -0.2654  0.2335
  115MOL0     H15137  12.879   0.415   9.078  1.3084 -0.5671  0.0725
  115MOL0     H15138  12.713   0.466   9.278  4.4366  0.5028 -0.2616
  115MOL0     H15139  12.666   0.612   9.179  0.3413  0.1049  1.7859
  115MOL0     H15140  12.631   0.310   9.132  0.3835  0.2498 -0.4761
  115MOL0     H15141  12.647   0.423   8.992  1.4440  3.1698  0.6807
  115MOL0     H15142  12.226   0.494   9.042 -0.5444  0.6242 -1.3636
  115MOL0     H15143  12.076   0.386   8.885  0.3161 -0.2054  0.8864
  115MOL0     H15144  11.951  -0.047   8.670 -0.8492  0.9434  0.9049
  115MOL0     H15145  11.816  -0.154   8.476  1.6879  0.0694 -0.1634
  115MOL0     H15146  11.587  -0.178   8.306  0.5907 -2.0135 -0.8821
  115MOL0     H15147  11.758  -0.189   8.267 -0.9847 -1.6927 -0.2028
  115MOL0     H15148  11.719  -0.123   8.041 -0.4378 -1.0910  0.1835
  115MOL0     H15149  11.582  -0.024   8.082 -0.7619  0.1282  0.1341
  115MOL0     H15150  11.463  -0.239   8.126  1.5388 -2.4107  1.6945
  115MOL0     H15151  11.602  -0.334   8.086 -1.0639 -0.5496  0.0386
  115MOL0     H15152  11.484  -0.141   7.884 -0.6418 -1.0178 -0.7434
  115MOL0     H15153  11.610  -0.263   7.860 -0.4821 -0.3805 -0.0389
  115MOL0     H15154  11.365  -0.359   7.989  0.6386  2.1581  1.9927
  115MOL0     H15155  11.454  -0.453   7.878 -1.0409 -2.6781  2.1499
  115MOL0     H15156  11.380  -0.351   7.694 -0.3604  0.6871 -0.5088
  115MOL0     H15157  11.334  -0.191   7.750 -0.3758 -0.1064 -0.9656
  115MOL0     H15158  11.177  -0.439   7.803  0.3133  0.5575  1.7971
  115MOL0     H15159  11.145  -0.287   7.884  1.8100  3.3071 -0.1847
  115MOL0     H15160  11.125  -0.306   7.569 -0.9729 -0.8364 -0.5321
  115MOL0     H15161  11.063  -0.175   7.659 -0.3670  0.5033  0.2865
  115MOL0     H15162  11.780   0.248   8.312 -0.3636 -0.8554  0.1605
  115MOL0     H15163  11.907   0.331   8.464 -4.5187  0.2436 -1.6000
  115MOL0     H15164  12.399   0.149   8.731 -1.1327 -0.6191  0.5833
  115MOL0     H15165  12.542   0.229   8.915  1.3229  2.6080  0.6580
  115MOL0     H15166  11.445   0.582   8.479 -1.7379  0.1434  2.0318
  115MOL0     H15167  11.233   0.708   8.510  0.6519 -0.5746 -0.3179
  115MOL0     H15168  10.975   1.021   8.594 -1.2744  2.8391  4.2695
  115MOL0     H15169  10.747   1.125   8.620  0.6160 -0.3261  1.6561
  115MOL0     H15170  10.594   1.365   8.285 -2.0642 -1.9221  0.7470
  115MOL0     H15171  10.664   1.495   8.389 -3.6791  2.9624  3.1287
  115MOL0     H15172  10.468   1.502   8.512 -4.0089  2.5902 -0.4131
  115MOL0     H15173  10.419   1.479   8.342 -1.4762 -1.7987 -0.6676
  115MOL0     H15174  10.438   1.234   8.535  2.1458  1.4327 -0.3107
  115MOL0     H15175  10.345   1.246   8.388  1.5846  0.2259  0.8822
  115MOL0     H15176  10.308   1.391   8.657 -1.8574 -0.9235  0.7349
  115MOL0     H15177  10.202   1.429   8.511 -0.1760 -0.7995 -1.6554
  115MOL0     H15178  10.031   1.097   8.701  1.1874 -0.3554  1.3515
  115MOL0     H15179  10.846   1.367   8.274 -1.1781 -1.4905 -0.1982
  115MOL0     H15180  11.058   1.254   8.239  0.6578  1.2473  0.8354
  116MOL0     O15181  10.030   7.560   9.429 -0.0698 -0.8099  0.5268
  116MOL0     C15182  10.014   7.513   9.539  0.4553  0.5187  0.8630
  116MOL0     O15183   9.902   7.457   9.588  0.0287  0.3596 -0.6824
  116MOL0     C15184   9.794   7.445   9.503  0.3829  0.3566  0.8348
  116MOL0     C15185   9.748   7.538   9.412 -0.0828 -0.5816  0.2062
  116MOL0     C15186   9.649   7.507   9.325 -1.0636 -0.0426  0.6895
  116MOL0     C15187   9.589   7.383   9.320  0.1619 -0.6676 -0.1322
  116MOL0     O15188   9.489   7.349   9.237 -0.0102 -0.1184 -0.4990
  116MOL0     C15189   9.356   7.313   9.292 -0.1931  0.8072 -0.2712
  116MOL0     C15190   9.264   7.302   9.170 -0.1715  0.3305  0.3538
  116MOL0     C15191   9.243   7.448   9.113 -0.5516 -0.2213 -0.1034
  116MOL0     C15192   9.153   7.459   8.983  0.5849 -0.1883  0.4473
  116MOL0     C15193   9.136   7.599   8.929 -0.4977 -0.6499 -0.1412
  116MOL0     C15194   9.222   7.621   8.806  0.9282  0.1080 -0.0493
  116MOL0     C15195   9.208   7.761   8.757  0.6073  0.2045 -0.0125
  116MOL0     C15196   9.301   7.867   8.824 -0.1701  0.9631  1.2220
  116MOL0     N15197   9.436   7.861   8.776  0.5626 -0.2868 -0.1430
  116MOL0     C15198   9.541   7.805   8.845 -0.0215 -0.5328 -0.7202
  116MOL0     C15199   9.647   7.829   8.764 -0.5097  0.3346 -0.0383
  116MOL0     C15200   9.785   7.766   8.787 -0.3346 -1.0707 -0.3191
  116MOL0     C15201   9.828   7.783   8.934 -0.2044 -0.0392 -0.0761
  116MOL0     C15202   9.953   7.688   8.961  0.1362 -0.8428 -0.4205
  116MOL0     C15203   9.977   7.684   9.108  0.0323 -0.1850 -0.3173
  116MOL0     O15204   9.967   7.813   9.183 -0.1132  0.6675 -0.0935
  116MOL0     C15205  10.067   7.840   9.274  0.3991 -0.5452 -0.4106
  116MOL0     C15206  10.025   7.912   9.382  0.2084  0.1535  0.1858
  116MOL0     C15207  10.109   7.956   9.479 -0.8748  0.0803  0.5429
  116MOL0     C15208  10.247   7.918   9.477  0.1858  0.3663  0.1292
  116MOL0     C15209  10.347   7.962   9.573  0.1435  0.7048  0.0832
  116MOL0     O15210  10.474   7.973   9.522 -0.0824 -0.4996 -0.0374
  116MOL0     C15211  10.580   8.001   9.600 -0.0419  0.6610 -0.7295
  116MOL0     C15212  10.671   8.109   9.578 -0.2379  0.7231  0.0582
  116MOL0     C15213  10.772   8.131   9.674  0.0899 -1.5633 -0.3746
  116MOL0     C15214  10.779   8.049   9.784  0.6104 -0.6321  0.5093
  116MOL0     O15215  10.858   8.082   9.891 -1.0426  0.4061 -1.0963
  116MOL0     C15216  10.971   8.175   9.883  0.3208 -0.2740 -0.2437
  116MOL0     C15217  11.079   8.118   9.790  0.4423 -0.7629  0.0797
  116MOL0     C15218  11.195   8.223   9.771  0.2578  0.6556 -0.7762
  116MOL0     C15219  11.300   8.154   9.680  0.1316 -0.7525  0.8757
  116MOL0     C15220  11.432   8.226   9.674  0.0808 -0.0140  0.5422
  116MOL0     C15221  11.517   8.177   9.559  0.2420  0.1237 -0.7393
  116MOL0     C15222  11.658   8.236   9.557  0.2206  0.6786 -0.7852
  116MOL0     C15223  11.671   8.389   9.523  1.0935  0.3554 -0.2125
  116MOL0    Cl15224  11.599   8.420   9.364  0.2575  0.1204  0.2950
  116MOL0     C15225  10.696   7.932   9.802 -0.8617  0.3201  0.4502
  116MOL0     C15226  10.592   7.911   9.710  0.4665  0.2072 -1.0388
  116MOL0     O15227  10.309   7.980   9.684 -0.0616  0.1870  0.1621
  116MOL0     C15228  10.292   7.851   9.358 -0.1728  0.0006 -0.0051
  116MOL0     C15229  10.208   7.820   9.263  1.0590 -0.3148  1.6379
  116MOL0     N15230   9.614   7.897   8.652 -0.6659  0.3732  0.4439
  116MOL0     N15231   9.485   7.916   8.662 -0.3941  0.3418 -0.5602
  116MOL0     C15232   9.619   7.293   9.425  0.2956 -0.0353 -0.7040
  116MOL0     C15233   9.724   7.325   9.512  1.1854 -0.7336 -0.0062
  116MOL0     C15234  10.124   7.537   9.638 -0.2209 -1.5057  1.0254
  116MOL0     C15235  10.256   7.574   9.587 -0.7184 -0.0118 -0.0976
  116MOL0     C15236  10.359   7.604   9.674 -0.8412  0.4208 -0.5805
  116MOL0     C15237  10.343   7.595   9.811 -0.6361  0.7633 -0.8658
  116MOL0     O15238  10.454   7.621   9.892 -0.4346  0.1447 -0.1792
  116MOL0     C15239  10.470   7.564  10.017 -0.2054 -0.0525 -0.8127
  116MOL0     C15240  10.523   7.418  10.003  0.7310 -0.0950 -0.5531
  116MOL0     C15241  10.671   7.411   9.950 -0.6037  0.9742  1.1046
  116MOL0     C15242  10.720   7.273   9.923 -0.0666  0.0088  0.3015
  116MOL0     C15243  10.855   7.282   9.853  0.2868  0.1769 -0.5205
  116MOL0     C15244  10.963   7.293   9.803 -0.2241 -0.0658  0.3438
  116MOL0     C15245  10.212   7.568   9.870 -0.1285  0.0821 -0.2075
  116MOL0     C15246  10.110   7.526   9.771 -1.0763 -0.3821 -0.3348
  116MOL0     H15247   9.798   7.634   9.399 -4.1102  1.7876  0.5955
  116MOL0     H15248   9.618   7.574   9.245  2.0092 -2.9047 -3.2993
  116MOL0     H15249   9.321   7.396   9.353 -1.0885  0.5905 -0.4694
  116MOL0     H15250   9.361   7.216   9.341 -0.0098  1.0517  0.2034
  116MOL0     H15251   9.171   7.261   9.209  0.9023 -1.1191  1.4870
  116MOL0     H15252   9.305   7.238   9.092 -1.1262  0.9356 -0.6722
  116MOL0     H15253   9.343   7.484   9.087  0.3969 -4.0801 -2.6744
  116MOL0     H15254   9.200   7.500   9.199 -2.5154  0.1881 -1.2430
  116MOL0     H15255   9.196   7.398   8.903  1.1656 -0.6427  1.0965
  116MOL0     H15256   9.054   7.424   9.016  0.8740 -1.1085  0.3700
  116MOL0     H15257   9.146   7.671   9.011  0.3299 -1.7952  0.8142
  116MOL0     H15258   9.031   7.605   8.901 -0.3378  0.4936 -0.5298
  116MOL0     H15259   9.184   7.550   8.732 -3.1629  0.8328  1.1272
  116MOL0     H15260   9.330   7.606   8.814  0.7036 -0.8638  1.4439
  116MOL0     H15261   9.220   7.755   8.649  2.7179  0.4243  0.1756
  116MOL0     H15262   9.101   7.782   8.765 -0.3106 -3.9118  1.6097
  116MOL0     H15263   9.299   7.847   8.932  2.1524  0.0494  1.1647
  116MOL0     H15264   9.276   7.973   8.817  0.5292  1.0077 -1.8057
  116MOL0     H15265   9.539   7.758   8.943 -0.0444 -0.9247 -0.9059
  116MOL0     H15266   9.857   7.812   8.720 -0.5357  0.2607  0.3501
  116MOL0     H15267   9.779   7.660   8.759  2.3773 -1.3784  0.0413
  116MOL0     H15268   9.751   7.744   9.002  1.1588  0.6838  1.9956
  116MOL0     H15269   9.843   7.889   8.957  0.2153 -0.5025  1.9993
  116MOL0     H15270   9.936   7.592   8.912 -1.9749 -0.5518 -0.3759
  116MOL0     H15271  10.040   7.729   8.909 -0.7226  0.1458 -1.1408
  116MOL0     H15272  10.071   7.630   9.123 -0.7729 -1.1687  1.6287
  116MOL0     H15273   9.894   7.623   9.146 -0.1367 -1.2002 -2.2256
  116MOL0     H15274   9.919   7.935   9.392 -0.2216 -0.5086 -2.1520
  116MOL0     H15275  10.056   8.013   9.555 -2.5026 -0.8614  0.1612
  116MOL0     H15276  10.662   8.175   9.492 -0.5417 -0.2107 -0.6524
  116MOL0     H15277  10.833   8.218   9.652 -0.8981 -0.5744  0.6672
  116MOL0     H15278  11.005   8.199   9.984  0.3940  1.6431 -0.6884
  116MOL0     H15279  10.943   8.267   9.830 -0.0541 -2.0156 -3.3304
  116MOL0     H15280  11.037   8.085   9.695 -1.4855 -4.3357  1.9531
  116MOL0     H15281  11.109   8.025   9.839 -5.5138 -2.2384  1.8662
  116MOL0     H15282  11.234   8.258   9.867 -1.1476 -0.7635  0.3636
  116MOL0     H15283  11.169   8.310   9.710  3.7628  1.4387 -1.3586
  116MOL0     H15284  11.312   8.052   9.717 -1.6748 -1.8381 -1.2575
  116MOL0     H15285  11.259   8.138   9.580  3.3391  4.6779 -1.7594
  116MOL0     H15286  11.475   8.225   9.775 -0.9320  0.7491  0.9862
  116MOL0     H15287  11.402   8.327   9.648 -0.4723 -0.6271 -1.4218
  116MOL0     H15288  11.462   8.204   9.468 -0.3111 -1.4665 -0.8993
  116MOL0     H15289  11.529   8.069   9.563 -2.9018 -0.3643 -1.9885
  116MOL0     H15290  11.703   8.218   9.655 -0.0162  3.1015 -0.1649
  116MOL0     H15291  11.718   8.178   9.486  2.2716 -1.2705  2.3264
  116MOL0     H15292  11.775   8.424   9.512  1.1409 -0.0211 -1.0039
  116MOL0     H15293  11.622   8.451   9.599  0.1021 -0.1661 -0.4230
  116MOL0     H15294  10.714   7.878   9.895  3.6087  1.3645  0.4072
  116MOL0     H15295  10.526   7.829   9.739  0.2022  1.4406  2.3785
  116MOL0     H15296  10.395   7.820   9.348 -0.6241 -2.3187  1.7393
  116MOL0     H15297  10.247   7.772   9.174  0.3511  0.5179  0.8543
  116MOL0     H15298   9.578   7.193   9.424  1.3016 -0.4680 -0.4419
  116MOL0     H15299   9.768   7.268   9.594  0.0330  0.6361  1.6118
  116MOL0     H15300  10.273   7.581   9.480 -0.0395  0.2392  0.0242
  116MOL0     H15301  10.454   7.623   9.625 -1.9052  4.5261 -1.4129
  116MOL0     H15302  10.375   7.557  10.070 -1.4316  1.6851 -2.6283
  116MOL0     H15303  10.532   7.626  10.083  0.5595  2.9444 -4.0054
  116MOL0     H15304  10.518   7.361  10.096  2.4569 -3.1862 -2.1829
  116MOL0     H15305  10.458   7.379   9.924 -1.0224  1.0214  0.2646
  116MOL0     H15306  10.736   7.450  10.028 -2.9062  2.8843  2.1829
  116MOL0     H15307  10.667   7.449   9.847 -1.3173 -3.0488 -0.5537
  116MOL0     H15308  10.733   7.204  10.006  1.0162 -1.5872 -1.1053
  116MOL0     H15309  10.638   7.231   9.863 -0.2617  1.6203 -0.6011
  116MOL0     H15310  11.058   7.284   9.755  0.9405 -2.6285  2.8472
  116MOL0     H15311  10.186   7.580   9.975 -0.6243  0.5218 -0.3714
  116MOL0     H15312  10.017   7.490   9.814 -1.2479 -0.2204 -0.5706
  117MOL0     O15313  10.218   7.822   3.638  0.1124  0.1119  0.7497
  117MOL0     C15314  10.198   7.771   3.527 -0.7436  0.1202 -0.3357
  117MOL0     O15315  10.228   7.824   3.409 -0.1422 -0.4215  0.1753
  117MOL0     C15316  10.303   7.942   3.405 -1.3911  0.1884 -0.7395
  117MOL0     C15317  10.418   7.974   3.482 -0.9888  0.0025 -0.4562
  117MOL0     C15318  10.484   8.096   3.462 -0.5952 -0.1108  0.2239
  117MOL0     C15319  10.439   8.189   3.364  0.4437 -0.1488 -0.5066
  117MOL0     O15320  10.516   8.299   3.334  0.1643  0.0978 -1.0208
  117MOL0     C15321  10.485   8.395   3.229  0.1686 -1.4266 -0.3028
  117MOL0     C15322  10.591   8.494   3.242  1.0237 -0.0545 -0.1698
  117MOL0     C15323  10.602   8.584   3.114  0.1620 -0.8669 -0.5584
  117MOL0     C15324  10.504   8.696   3.132 -0.1250 -0.3707  0.0332
  117MOL0     C15325  10.509   8.785   2.999  0.2486  0.6469  0.3464
  117MOL0     C15326  10.643   8.855   2.979 -0.5515 -0.6267  0.1217
  117MOL0     C15327  10.636   8.954   2.864  0.1156  1.2935 -0.9378
  117MOL0     C15328  10.545   9.066   2.881 -0.6000 -0.7468 -0.3602
  117MOL0     N15329  10.607   9.179   2.949 -0.0546 -0.3491  0.1306
  117MOL0     C15330  10.544   9.291   2.997 -0.0031 -0.2655 -0.2682
  117MOL0     C15331  10.628   9.362   3.072  0.5860 -0.8832 -0.7457
  117MOL0     C15332  10.606   9.489   3.153 -0.1830  0.5961  0.8764
  117MOL0     C15333  10.457   9.510   3.192 -0.0268  0.7311 -0.2635
  117MOL0     C15334  10.434   9.570   3.332 -0.7170  0.1781  0.7355
  117MOL0     C15335  10.306   9.658   3.335  0.9753 -0.3443  0.1780
  117MOL0     O15336  10.194   9.576   3.294 -0.1498 -0.3498  0.1475
  117MOL0     C15337  10.138   9.489   3.396  0.2683 -0.1427  0.4937
  117MOL0     C15338  10.049   9.538   3.484  0.6906  0.4908 -0.0532
  117MOL0     C15339  10.009   9.465   3.592 -0.1072 -0.5783  0.7920
  117MOL0     C15340  10.046   9.330   3.606 -0.0233  0.0277 -0.0696
  117MOL0     C15341  10.004   9.253   3.725 -0.0657 -0.2890  0.3407
  117MOL0     O15342   9.954   9.331   3.820 -0.0700  0.1223  0.7144
  117MOL0     C15343   9.908   9.260   3.935  0.1609  0.6198  0.4491
  117MOL0     C15344   9.995   9.194   4.026  0.2998  0.2958  0.4361
  117MOL0     C15345   9.948   9.123   4.136 -0.0371 -0.8250 -0.9863
  117MOL0     C15346   9.805   9.122   4.168  0.0434  0.8907 -0.0208
  117MOL0     O15347   9.755   9.049   4.270  0.0678 -0.6462 -0.9926
  117MOL0     C15348   9.680   9.126   4.365  0.4232 -0.4890 -0.8264
  117MOL0     C15349   9.684   9.067   4.507 -0.4083  0.2721 -0.8162
  117MOL0     C15350   9.595   9.148   4.601 -0.4059 -0.2153  0.0495
  117MOL0     C15351   9.578   9.078   4.737  0.4317 -0.1912  0.0875
  117MOL0     C15352   9.626   9.162   4.859 -0.1866  0.5632 -0.2811
  117MOL0     C15353   9.567   9.111   4.986 -0.5990 -0.5398 -0.4274
  117MOL0     C15354   9.609   9.204   5.105 -0.5894  0.0811  0.5212
  117MOL0     C15355   9.497   9.198   5.213 -0.1226 -0.3119 -1.0511
  117MOL0    Cl15356   9.542   9.308   5.352 -0.3933 -0.4179  0.0006
  117MOL0     C15357   9.717   9.183   4.073 -0.0095 -0.7086  0.2347
  117MOL0     C15358   9.772   9.260   3.964  0.1046 -0.1162 -0.3999
  117MOL0     O15359   9.999   9.128   3.719  0.0407 -0.0574  0.5865
  117MOL0     C15360  10.135   9.273   3.509  0.1941  0.4663  0.3141
  117MOL0     C15361  10.176   9.355   3.403 -0.0586 -0.1762  0.4548
  117MOL0     N15362  10.750   9.290   3.066  0.2297 -0.0620 -0.1311
  117MOL0     N15363  10.738   9.179   3.001  0.8425 -0.4987 -0.0004
  117MOL0     C15364  10.327   8.157   3.286 -0.1560 -0.7113  0.1965
  117MOL0     C15365  10.266   8.037   3.304  0.0203  0.1690 -0.7749
  117MOL0     C15366  10.128   7.642   3.531  0.1961 -0.0044 -0.6295
  117MOL0     C15367  10.052   7.609   3.649 -0.1135  0.4714  0.6051
  117MOL0     C15368   9.971   7.490   3.641 -0.4178 -0.8328 -0.3034
  117MOL0     C15369   9.995   7.397   3.540 -0.2201 -0.1833 -1.0938
  117MOL0     O15370   9.937   7.278   3.530 -0.0242  0.1808  0.6003
  117MOL0     C15371   9.851   7.238   3.641  0.0298  0.4029 -0.2519
  117MOL0     C15372   9.717   7.313   3.650 -0.7369 -0.3618  0.3590
  117MOL0     C15373   9.676   7.309   3.795  0.3396  0.4901  0.1907
  117MOL0     C15374   9.623   7.174   3.821  0.4273  0.3232 -0.3406
  117MOL0     C15375   9.538   7.163   3.939 -0.3782  0.4899 -0.6887
  117MOL0     C15376   9.455   7.137   4.026  0.8785  0.4679  0.0686
  117MOL0     C15377  10.081   7.422   3.436  0.4482 -0.5015  0.4529
  117MOL0     C15378  10.154   7.543   3.435 -0.2237  0.0746  0.5676
  117MOL0     H15379  10.457   7.897   3.548  1.7688 -1.0296 -3.0343
  117MOL0     H15380  10.567   8.117   3.529 -0.9027  1.8854  0.0641
  117MOL0     H15381  10.389   8.443   3.253  0.5902 -1.2978  1.2807
  117MOL0     H15382  10.480   8.356   3.127 -1.3940  1.0600 -1.2703
  117MOL0     H15383  10.679   8.430   3.245 -0.2568 -1.8827  0.8615
  117MOL0     H15384  10.590   8.546   3.339  2.4886 -0.4616  0.0876
  117MOL0     H15385  10.583   8.524   3.025 -0.3896 -1.7667  0.1457
  117MOL0     H15386  10.702   8.628   3.118 -0.5582  0.7743  0.0956
  117MOL0     H15387  10.405   8.649   3.134 -0.1977 -0.4992 -2.7574
  117MOL0     H15388  10.520   8.753   3.224  0.9898 -2.8238  1.4530
  117MOL0     H15389  10.426   8.856   3.003  0.2282  0.6020  0.7311
  117MOL0     H15390  10.488   8.732   2.905 -1.3120  3.0945 -0.7964
  117MOL0     H15391  10.712   8.774   2.956  0.2856 -0.6747  2.5533
  117MOL0     H15392  10.672   8.908   3.070 -1.5041  0.9843 -0.4669
  117MOL0     H15393  10.741   8.984   2.855  0.0164  2.1056  0.3860
  117MOL0     H15394  10.611   8.899   2.773 -0.9481  3.1382 -1.8180
  117MOL0     H15395  10.449   9.044   2.929 -0.3346 -2.3633 -0.5136
  117MOL0     H15396  10.527   9.085   2.775 -0.9066 -2.6253 -0.6754
  117MOL0     H15397  10.441   9.320   2.979 -0.5198 -0.9329  1.3440
  117MOL0     H15398  10.652   9.567   3.093 -1.7524  1.7362  1.1135
  117MOL0     H15399  10.676   9.484   3.237  1.2004  1.9044 -0.1553
  117MOL0     H15400  10.411   9.410   3.199 -1.2410  1.3548  1.0852
  117MOL0     H15401  10.413   9.580   3.121  0.6253 -1.3613 -2.8973
  117MOL0     H15402  10.425   9.495   3.411  1.9675  2.4164  3.4543
  117MOL0     H15403  10.512   9.632   3.378 -0.8033  0.0230  1.0933
  117MOL0     H15404  10.323   9.739   3.263  0.3038 -0.4459 -0.1101
  117MOL0     H15405  10.296   9.702   3.435  1.8010 -0.7275  0.4296
  117MOL0     H15406  10.010   9.639   3.478  1.5451  0.8762  0.6279
  117MOL0     H15407   9.945   9.512   3.666  1.1184 -0.5093  1.8627
  117MOL0     H15408  10.100   9.216   4.008  0.1814 -0.1697 -0.9441
  117MOL0     H15409  10.013   9.081   4.213  1.0393  3.0211  0.4105
  117MOL0     H15410   9.575   9.125   4.335  0.1351  0.8204  0.0636
  117MOL0     H15411   9.710   9.231   4.364 -0.8881 -0.0940 -0.3323
  117MOL0     H15412   9.788   9.075   4.540 -0.8761 -0.5696  1.0553
  117MOL0     H15413   9.657   8.962   4.490  2.4989 -0.1839 -3.4806
  117MOL0     H15414   9.500   9.152   4.548  0.4397  0.3100 -1.5099
  117MOL0     H15415   9.636   9.250   4.599  3.0214 -1.4799 -0.0406
  117MOL0     H15416   9.470   9.064   4.741  0.5160 -0.6169  3.5843
  117MOL0     H15417   9.632   8.982   4.737 -0.7285 -0.8612 -0.6566
  117MOL0     H15418   9.597   9.268   4.851 -1.2756  0.1250 -4.1203
  117MOL0     H15419   9.734   9.150   4.862 -0.2460  0.0791 -0.0301
  117MOL0     H15420   9.608   9.011   5.003  2.6309  0.5726 -0.9850
  117MOL0     H15421   9.458   9.110   5.000 -0.3188  0.4624  2.8526
  117MOL0     H15422   9.715   9.177   5.118 -0.9347 -1.4579  0.3167
  117MOL0     H15423   9.610   9.310   5.081 -0.1573  0.5385  2.4030
  117MOL0     H15424   9.475   9.100   5.257  2.8806 -0.0302  1.3896
  117MOL0     H15425   9.402   9.230   5.169 -0.7087 -2.8960 -1.8581
  117MOL0     H15426   9.614   9.186   4.106  0.6727  0.7811  2.5441
  117MOL0     H15427   9.699   9.298   3.894  0.8383 -2.8033 -2.8003
  117MOL0     H15428  10.163   9.168   3.515 -0.0631  0.4753  2.9639
  117MOL0     H15429  10.238   9.310   3.325 -2.2508 -2.5789 -0.0324
  117MOL0     H15430  10.288   8.226   3.212 -3.1904 -2.0186  0.4199
  117MOL0     H15431  10.177   8.019   3.244  1.5183  3.9512 -4.6008
  117MOL0     H15432  10.034   7.675   3.733  1.0620  0.3444  0.9810
  117MOL0     H15433   9.911   7.466   3.728 -0.7569  0.2071 -0.2311
  117MOL0     H15434   9.902   7.246   3.737 -2.7280 -0.5012  1.4163
  117MOL0     H15435   9.832   7.130   3.635  0.6756  0.2522  0.2975
  117MOL0     H15436   9.727   7.417   3.619  0.3406 -0.3765  0.6375
  117MOL0     H15437   9.641   7.275   3.580 -1.7958 -0.0852  1.3430
  117MOL0     H15438   9.603   7.389   3.815 -1.9991 -2.1642  3.3873
  117MOL0     H15439   9.753   7.328   3.870 -0.3549  0.0597  1.0393
  117MOL0     H15440   9.563   7.151   3.733 -2.0077 -0.1096  1.3352
  117MOL0     H15441   9.696   7.094   3.836 -0.0974 -0.2257 -0.6582
  117MOL0     H15442   9.389   7.129   4.111  1.7392  0.0391  0.7126
  117MOL0     H15443  10.069   7.362   3.346 -1.4988 -2.4019  1.8561
  117MOL0     H15444  10.220   7.572   3.353  1.1023 -0.3109  1.4607
  118MOL0     O15445   3.766   5.771   8.972  0.4570 -0.1001  0.0336
  118MOL0     C15446   3.737   5.875   9.019  0.6098 -1.3136 -0.6655
  118MOL0     O15447   3.610   5.936   9.035 -0.0848 -0.2923 -0.0183
  118MOL0     C15448   3.506   5.861   8.996  0.2238 -0.3495 -0.1243
  118MOL0     C15449   3.421   5.810   9.098  0.4197 -0.6057  0.1341
  118MOL0     C15450   3.314   5.730   9.050 -0.0371  0.5498 -0.5842
  118MOL0     C15451   3.288   5.706   8.907 -1.0490 -0.1292 -0.6978
  118MOL0     O15452   3.188   5.628   8.878  0.7703  0.5762  0.3787
  118MOL0     C15453   3.064   5.664   8.942 -0.2971 -0.6257 -0.5143
  118MOL0     C15454   2.959   5.650   8.825 -0.4646 -0.5695 -0.0792
  118MOL0     C15455   2.950   5.782   8.750  0.5025  0.3549 -0.2030
  118MOL0     C15456   2.868   5.767   8.617  0.2393 -0.7229 -0.8143
  118MOL0     C15457   2.717   5.735   8.645 -0.6823 -0.7571  0.7774
  118MOL0     C15458   2.631   5.810   8.538 -0.1097 -0.5819 -0.7955
  118MOL0     C15459   2.488   5.764   8.547  0.7889  0.2326  0.1048
  118MOL0     C15460   2.392   5.831   8.446 -0.0718  0.3668 -0.3192
  118MOL0     N15461   2.407   5.972   8.431 -0.8198 -1.0951  0.3148
  118MOL0     C15462   2.339   6.074   8.497  0.3436  0.4482 -0.2480
  118MOL0     C15463   2.388   6.197   8.454 -0.8260  0.5918 -0.2352
  118MOL0     C15464   2.338   6.335   8.494 -0.1209 -0.1809  0.1119
  118MOL0     C15465   2.208   6.351   8.416  0.4288  0.5746  0.1041
  118MOL0     C15466   2.217   6.324   8.265 -0.3650  0.7980  0.0301
  118MOL0     C15467   2.163   6.188   8.213  0.2481  0.0675  0.0660
  118MOL0     O15468   2.194   6.177   8.077 -0.5271 -0.3897  0.0211
  118MOL0     C15469   2.310   6.120   8.042 -0.6860 -0.3242  0.8551
  118MOL0     C15470   2.328   5.989   8.077  0.2500  0.2088 -1.0101
  118MOL0     C15471   2.449   5.924   8.062 -0.9484  0.5126 -0.2591
  118MOL0     C15472   2.561   5.997   8.008 -0.7355 -0.0447  0.0430
  118MOL0     C15473   2.700   5.936   8.009  0.1576 -0.1067 -0.9022
  118MOL0     O15474   2.708   5.825   8.085  0.9009  0.5055 -0.2708
  118MOL0     C15475   2.832   5.788   8.121  0.2815  0.1017  0.6817
  118MOL0     C15476   2.898   5.866   8.222  1.0387  0.3539 -0.3160
  118MOL0     C15477   3.011   5.822   8.288  0.8783  0.4074  0.1993
  118MOL0     C15478   3.069   5.701   8.256  0.9161  0.6453  0.1253
  118MOL0     O15479   3.181   5.649   8.304  0.2947 -0.3285  0.0737
  118MOL0     C15480   3.270   5.738   8.382  0.1384 -0.0664  0.9215
  118MOL0     C15481   3.423   5.691   8.373  0.1712 -0.3867 -1.1460
  118MOL0     C15482   3.474   5.721   8.235 -0.3683  0.1018 -0.0557
  118MOL0     C15483   3.625   5.682   8.217 -0.5457  0.8928 -0.2679
  118MOL0     C15484   3.670   5.685   8.066 -0.2618  0.1084  0.2471
  118MOL0     C15485   3.799   5.614   8.032 -0.1113  1.3182 -0.2602
  118MOL0     C15486   3.789   5.466   8.062 -1.2267  0.5599 -0.3238
  118MOL0     C15487   3.900   5.381   7.988 -0.1879  0.0078 -0.2214
  118MOL0    Cl15488   4.047   5.433   8.072  0.5015  0.5297  0.4996
  118MOL0     C15489   3.000   5.624   8.154  0.0359 -0.0690 -0.7183
  118MOL0     C15490   2.887   5.666   8.090  0.9580  0.3436 -0.1814
  118MOL0     O15491   2.785   5.994   7.949  0.0571 -0.8425 -0.3239
  118MOL0     C15492   2.532   6.125   7.966 -0.0533  0.3337  1.3376
  118MOL0     C15493   2.409   6.190   7.981  0.4205 -0.4501 -0.0409
  118MOL0     N15494   2.495   6.164   8.365  0.1086 -0.4126 -0.5463
  118MOL0     N15495   2.501   6.032   8.354 -1.2675  0.1188  0.5371
  118MOL0     C15496   3.391   5.739   8.815  0.3770  0.7714  0.0627
  118MOL0     C15497   3.482   5.836   8.859  0.1121  0.5285  0.1537
  118MOL0     C15498   3.839   5.962   9.069 -0.3210  0.2072  1.2574
  118MOL0     C15499   3.970   5.936   9.037 -0.3350  1.1438  0.1758
  118MOL0     C15500   4.071   5.997   9.101 -0.1213 -0.4714 -0.0631
  118MOL0     C15501   4.042   6.097   9.197 -0.0115  0.0232  0.1632
  118MOL0     O15502   4.153   6.140   9.255  0.5539 -0.3106 -0.1626
  118MOL0     C15503   4.140   6.199   9.387 -0.0542 -0.0684  0.0426
  118MOL0     C15504   4.256   6.180   9.482  0.1471 -0.1316  0.3961
  118MOL0     C15505   4.377   6.258   9.441 -0.3665  0.3119 -1.0183
  118MOL0     C15506   4.498   6.214   9.526 -0.4784  0.6213  1.3890
  118MOL0     C15507   4.620   6.278   9.478  0.0914 -1.0657 -0.6319
  118MOL0     C15508   4.711   6.354   9.450 -0.1159 -0.1155  0.2264
  118MOL0     C15509   3.910   6.140   9.227  0.4260  0.7869  0.9242
  118MOL0     C15510   3.806   6.061   9.163  0.0239 -0.0664  0.4657
  118MOL0     H15511   3.427   5.840   9.202 -0.6468 -0.2545  0.1060
  118MOL0     H15512   3.247   5.704   9.132  2.3548  2.0047  1.9849
  118MOL0     H15513   3.057   5.766   8.982 -0.5894  0.9618 -4.1649
  118MOL0     H15514   3.052   5.597   9.027  0.0653 -1.3330 -1.0095
  118MOL0     H15515   2.862   5.615   8.861 -0.1614  0.6624  2.1667
  118MOL0     H15516   2.999   5.577   8.755  4.3086  0.6937  0.9596
  118MOL0     H15517   3.054   5.807   8.726  1.3287 -2.8338 -0.3839
  118MOL0     H15518   2.902   5.858   8.813 -2.6151  1.4218 -3.4605
  118MOL0     H15519   2.859   5.866   8.571 -2.6989 -0.2703  0.4871
  118MOL0     H15520   2.919   5.700   8.548  0.9308  0.5371 -1.5654
  118MOL0     H15521   2.689   5.778   8.742 -0.3929  1.8813 -0.2123
  118MOL0     H15522   2.694   5.628   8.654 -0.6685 -0.7098  1.4121
  118MOL0     H15523   2.673   5.808   8.437 -0.6716  2.4352 -1.1830
  118MOL0     H15524   2.637   5.914   8.571  1.6853 -1.1131  0.7464
  118MOL0     H15525   2.489   5.656   8.530  0.9851 -0.6288  4.5554
  118MOL0     H15526   2.448   5.781   8.647  0.8225  2.3904 -0.2070
  118MOL0     H15527   2.290   5.807   8.477 -0.3880  2.3780  0.3657
  118MOL0     H15528   2.403   5.792   8.345  0.2099 -2.0162  0.5531
  118MOL0     H15529   2.251   6.074   8.560  1.8379  0.9908  1.9772
  118MOL0     H15530   2.411   6.412   8.469 -2.2455  3.5786  3.9982
  118MOL0     H15531   2.314   6.352   8.600 -3.0330  1.7714 -0.7007
  118MOL0     H15532   2.174   6.453   8.438 -1.4348  0.5512 -2.2657
  118MOL0     H15533   2.132   6.280   8.446  0.9528 -0.7675 -1.5731
  118MOL0     H15534   2.159   6.402   8.215 -4.3312 -1.5684  0.5029
  118MOL0     H15535   2.324   6.337   8.246 -0.0171  1.7528  2.3368
  118MOL0     H15536   2.055   6.202   8.209  0.2220  0.0302  0.5044
  118MOL0     H15537   2.205   6.105   8.272  1.4408  0.5550 -0.0704
  118MOL0     H15538   2.242   5.935   8.116 -0.8169  1.4789 -1.5374
  118MOL0     H15539   2.454   5.821   8.095  3.0185  0.8178  0.5950
  118MOL0     H15540   2.854   5.959   8.255 -2.7603 -0.2831 -3.0183
  118MOL0     H15541   3.059   5.890   8.357  2.7990 -0.7270  0.0520
  118MOL0     H15542   3.240   5.733   8.487  3.1218 -2.3442  1.8008
  118MOL0     H15543   3.268   5.840   8.343  0.1966 -0.4168 -0.0504
  118MOL0     H15544   3.432   5.585   8.399 -2.0227 -0.2164  0.6353
  118MOL0     H15545   3.478   5.754   8.444  2.0875 -0.4280 -2.5120
  118MOL0     H15546   3.456   5.823   8.199  0.6958  0.6367  0.8617
  118MOL0     H15547   3.418   5.654   8.170 -1.5713  0.4660  0.5751
  118MOL0     H15548   3.698   5.742   8.272  1.1468  0.9752 -2.4558
  118MOL0     H15549   3.638   5.585   8.267  0.9186  1.8790  1.3882
  118MOL0     H15550   3.680   5.790   8.036  0.3784  0.0359  0.1893
  118MOL0     H15551   3.589   5.645   8.004  1.1125  0.6018 -1.9798
  118MOL0     H15552   3.878   5.663   8.089 -1.8318  1.1908  2.3974
  118MOL0     H15553   3.816   5.630   7.925  0.2505  0.2841 -0.3638
  118MOL0     H15554   3.775   5.434   8.166 -1.0123 -0.2881 -0.5444
  118MOL0     H15555   3.694   5.432   8.021 -0.8598  0.5874 -1.2234
  118MOL0     H15556   3.900   5.419   7.885  1.2571 -0.7185 -0.4976
  118MOL0     H15557   3.891   5.273   7.993  0.9225 -0.1648 -1.5000
  118MOL0     H15558   3.053   5.537   8.117 -0.4424 -0.4231 -0.5779
  118MOL0     H15559   2.833   5.616   8.010 -0.1213  2.3002 -0.7367
  118MOL0     H15560   2.612   6.174   7.913  3.3465 -0.4680  5.2383
  118MOL0     H15561   2.374   6.287   7.949  0.8607 -0.2446  0.0936
  118MOL0     H15562   3.392   5.705   8.712  0.9795  1.1927 -0.0776
  118MOL0     H15563   3.551   5.876   8.785 -0.8106  3.1542  0.6062
  118MOL0     H15564   3.988   5.867   8.955 -0.8349  2.1990 -0.8561
  118MOL0     H15565   4.168   5.951   9.088 -1.4598 -3.5097 -0.2198
  118MOL0     H15566   4.051   6.163   9.439  0.6761 -1.8948  0.0956
  118MOL0     H15567   4.128   6.307   9.382  1.8543  0.2718  1.6884
  118MOL0     H15568   4.228   6.214   9.582  1.8806 -0.3969  0.9933
  118MOL0     H15569   4.286   6.076   9.499 -1.1067 -0.0108  4.1949
  118MOL0     H15570   4.369   6.367   9.439 -1.3630  0.2602 -0.4672
  118MOL0     H15571   4.409   6.235   9.339  2.0159 -1.0622 -0.0405
  118MOL0     H15572   4.483   6.248   9.629  3.8955  4.0573  1.2206
  118MOL0     H15573   4.502   6.105   9.534  0.5926  0.6601  1.6505
  118MOL0     H15574   4.789   6.424   9.426 -0.7715  0.4682 -0.2664
  118MOL0     H15575   3.878   6.220   9.293 -4.9008  0.4137 -0.6617
  118MOL0     H15576   3.704   6.094   9.174  0.2163  0.7545 -0.1257
  119MOL0     O15577   4.894   4.966  11.185  0.8982 -0.9414  0.8505
  119MOL0     C15578   4.915   5.025  11.294  0.4773  0.0487  0.1555
  119MOL0     O15579   5.034   5.085  11.327  0.1326  0.0485  0.3704
  119MOL0     C15580   5.146   5.093  11.241 -0.1916  0.3225 -0.6238
  119MOL0     C15581   5.230   4.988  11.228 -0.0105  0.0677  0.3485
  119MOL0     C15582   5.327   4.976  11.133 -0.7081  0.3315 -0.2442
  119MOL0     C15583   5.349   5.069  11.037 -0.2357 -0.0124 -0.4142
  119MOL0     O15584   5.455   5.057  10.947 -0.3306  0.0400 -0.4851
  119MOL0     C15585   5.440   5.085  10.810 -0.2811  0.4329  0.2719
  119MOL0     C15586   5.555   5.157  10.745  0.4114 -0.6543  0.7264
  119MOL0     C15587   5.583   5.298  10.810 -0.0468  0.6580  0.2239
  119MOL0     C15588   5.477   5.402  10.765 -1.0020  0.6378  0.1578
  119MOL0     C15589   5.515   5.548  10.793 -0.0329 -0.9254  0.0302
  119MOL0     C15590   5.386   5.629  10.801 -0.0734  0.0438 -0.4133
  119MOL0     C15591   5.297   5.636  10.674  1.0002  1.0850 -0.0998
  119MOL0     C15592   5.159   5.697  10.683 -0.8121  1.5159  0.2200
  119MOL0     N15593   5.079   5.681  10.560  0.4207 -0.3284  0.1408
  119MOL0     C15594   5.067   5.777  10.469 -0.2702  0.0642  0.1062
  119MOL0     C15595   4.989   5.730  10.376  0.2183 -0.3252  0.7934
  119MOL0     C15596   4.931   5.810  10.255 -0.1988  0.2837  0.1486
  119MOL0     C15597   4.883   5.730  10.130  0.3479  1.1037  0.3932
  119MOL0     C15598   4.996   5.682  10.041 -0.6169 -0.0391  0.4471
  119MOL0     C15599   4.937   5.674   9.892 -0.1149 -1.0057  1.0849
  119MOL0     O15600   4.823   5.594   9.899 -0.5349 -0.1387  0.7896
  119MOL0     C15601   4.756   5.561   9.782 -1.3250 -0.2722  0.3482
  119MOL0     C15602   4.632   5.500   9.799 -0.9589 -0.3904 -0.1838
  119MOL0     C15603   4.568   5.438   9.692  0.6931  0.2018 -0.2508
  119MOL0     C15604   4.626   5.440   9.563 -0.2614 -0.3807  0.4001
  119MOL0     C15605   4.559   5.380   9.449 -0.1493 -0.9926 -0.2482
  119MOL0     O15606   4.452   5.295   9.477 -0.3460 -0.2983 -0.4144
  119MOL0     C15607   4.370   5.241   9.376  0.4407  0.3330 -1.8107
  119MOL0     C15608   4.422   5.140   9.299 -0.3275  0.8880 -0.0682
  119MOL0     C15609   4.347   5.081   9.196 -1.2395 -0.4381 -0.1495
  119MOL0     C15610   4.218   5.116   9.177 -0.0238 -0.0931 -0.6510
  119MOL0     O15611   4.131   5.066   9.085  0.4576  0.2583  0.8717
  119MOL0     C15612   4.193   4.976   8.993  0.2270  0.0758 -0.2125
  119MOL0     C15613   4.103   4.935   8.876 -0.1853  0.5013 -0.6255
  119MOL0     C15614   3.988   4.848   8.941  0.1794  1.0118 -0.1295
  119MOL0     C15615   3.869   4.848   8.840  0.2879 -0.1913  0.0359
  119MOL0     C15616   3.772   4.728   8.830  0.4928 -0.1436 -0.0265
  119MOL0     C15617   3.696   4.706   8.970 -0.3241 -0.5445  0.2265
  119MOL0     C15618   3.628   4.833   9.018  0.3510  0.2551 -0.1804
  119MOL0     C15619   3.502   4.802   9.109 -0.2096 -0.2445 -0.5801
  119MOL0    Cl15620   3.556   4.701   9.245 -0.2002 -0.3085  0.2482
  119MOL0     C15621   4.165   5.208   9.266  0.2225  0.4969 -0.8977
  119MOL0     C15622   4.241   5.281   9.355 -0.7470  0.8718 -0.2933
  119MOL0     O15623   4.605   5.407   9.337  0.0906  0.1141 -0.8649
  119MOL0     C15624   4.743   5.517   9.542  0.4632  0.1402  0.4268
  119MOL0     C15625   4.811   5.562   9.654 -1.1255 -0.7755  0.1751
  119MOL0     N15626   4.958   5.596  10.397 -0.4070 -0.2854 -1.5078
  119MOL0     N15627   5.008   5.569  10.520  0.2854  0.1054 -0.0437
  119MOL0     C15628   5.262   5.172  11.044  0.4992 -0.3643  0.7816
  119MOL0     C15629   5.166   5.197  11.146  0.3268 -0.1746 -0.7335
  119MOL0     C15630   4.808   5.021  11.396 -0.3356 -1.5586 -0.6186
  119MOL0     C15631   4.694   4.957  11.366  0.9248  0.4902 -0.1665
  119MOL0     C15632   4.598   4.934  11.463 -0.0150  0.2644  0.1307
  119MOL0     C15633   4.624   4.961  11.592 -0.7786 -0.4805  0.3494
  119MOL0     O15634   4.533   4.918  11.683  0.3009  0.6200  0.0011
  119MOL0     C15635   4.535   4.952  11.816 -0.2396 -0.3303 -0.1521
  119MOL0     C15636   4.416   4.925  11.897  1.5185 -0.4089  0.3718
  119MOL0     C15637   4.293   4.996  11.829 -1.0170  0.4010  0.6699
  119MOL0     C15638   4.171   4.915  11.845  0.6303 -0.1603  0.3083
  119MOL0     C15639   4.053   5.006  11.844  0.2143 -0.1000  0.4161
  119MOL0     C15640   3.957   5.081  11.836  0.6999  0.1597 -0.7921
  119MOL0     C15641   4.742   5.027  11.614 -0.0417 -0.5346 -0.3528
  119MOL0     C15642   4.831   5.055  11.525  0.5318  0.0348 -0.7176
  119MOL0     H15643   5.221   4.923  11.315 -1.4812  2.5169  2.1557
  119MOL0     H15644   5.405   4.901  11.136  2.0702  2.7723 -3.3523
  119MOL0     H15645   5.344   5.136  10.799 -0.5046  0.4931  2.2222
  119MOL0     H15646   5.450   4.987  10.761 -0.6021 -0.5824  2.1694
  119MOL0     H15647   5.540   5.177  10.638 -2.6914  2.8611  1.6136
  119MOL0     H15648   5.645   5.098  10.766  1.1612  0.9186  2.1768
  119MOL0     H15649   5.679   5.329  10.770  0.3920 -0.9481 -0.0608
  119MOL0     H15650   5.581   5.290  10.920  0.9528  1.3242  0.3025
  119MOL0     H15651   5.466   5.391  10.657  1.4555 -0.4565 -0.0589
  119MOL0     H15652   5.382   5.369  10.808 -1.8814  3.1187  0.2606
  119MOL0     H15653   5.574   5.584  10.709  1.2854  1.7904  1.9792
  119MOL0     H15654   5.565   5.566  10.888 -0.4499  2.4274 -0.2611
  119MOL0     H15655   5.417   5.731  10.823 -2.1978  0.5060  0.7634
  119MOL0     H15656   5.317   5.585  10.875  0.2235  0.4684  0.1248
  119MOL0     H15657   5.349   5.670  10.584  0.6999 -3.3956 -2.2646
  119MOL0     H15658   5.282   5.534  10.635  0.6225  1.1103 -0.0300
  119MOL0     H15659   5.178   5.804  10.692  0.6706  1.2140  1.0106
  119MOL0     H15660   5.104   5.664  10.772 -0.6091 -3.7882 -1.2632
  119MOL0     H15661   5.111   5.875  10.488  1.9038 -0.6293 -0.9462
  119MOL0     H15662   5.016   5.875  10.228  3.2844 -3.5629  0.7904
  119MOL0     H15663   4.844   5.865  10.291 -0.4228  2.5998 -3.3945
  119MOL0     H15664   4.823   5.797  10.069 -0.3518 -0.4123 -0.6605
  119MOL0     H15665   4.826   5.644  10.166  2.1539 -0.7794 -0.9171
  119MOL0     H15666   5.073   5.758  10.054  0.0580 -0.8383  1.2692
  119MOL0     H15667   5.042   5.587  10.072  0.5667  0.4206  0.1671
  119MOL0     H15668   5.013   5.626   9.829  0.9614  1.0350  0.7486
  119MOL0     H15669   4.920   5.778   9.865  1.5232 -0.7982  0.7491
  119MOL0     H15670   4.592   5.494   9.900  0.3112 -2.0201  0.2465
  119MOL0     H15671   4.472   5.390   9.711  1.0405 -1.5043 -2.3879
  119MOL0     H15672   4.520   5.100   9.324 -0.8820 -0.3589  0.1450
  119MOL0     H15673   4.392   5.002   9.137  3.1628  1.3357  0.4417
  119MOL0     H15674   4.219   4.880   9.040 -4.1839 -0.8263  0.8232
  119MOL0     H15675   4.282   5.018   8.946  0.7487 -1.7075 -0.9121
  119MOL0     H15676   4.164   4.895   8.794  1.5875  1.1635  0.3194
  119MOL0     H15677   4.062   5.032   8.846  1.0035  1.3868  0.4756
  119MOL0     H15678   3.958   4.898   9.033  3.5298 -0.1157  1.7349
  119MOL0     H15679   4.025   4.746   8.957 -2.5530  0.1656  1.4400
  119MOL0     H15680   3.821   4.945   8.854  0.6165  0.1800 -1.3139
  119MOL0     H15681   3.912   4.848   8.740 -2.5709  2.2594 -1.3446
  119MOL0     H15682   3.828   4.635   8.817 -0.9121 -1.4265  2.3512
  119MOL0     H15683   3.695   4.743   8.754 -0.7246 -1.8372  0.8185
  119MOL0     H15684   3.775   4.685   9.043  0.3058 -1.3579 -0.6619
  119MOL0     H15685   3.640   4.613   8.956 -1.3215 -0.1839  1.6346
  119MOL0     H15686   3.690   4.882   9.093 -2.6150  1.0237  1.9866
  119MOL0     H15687   3.604   4.906   8.940 -2.1377  0.5859  0.7824
  119MOL0     H15688   3.418   4.749   9.062 -2.1436  1.7420  0.4106
  119MOL0     H15689   3.461   4.898   9.143 -0.5621 -0.7771  0.5266
  119MOL0     H15690   4.058   5.224   9.260  0.2922  1.4293  0.0473
  119MOL0     H15691   4.193   5.355   9.418 -0.1473  3.2462 -2.4299
  119MOL0     H15692   4.782   5.527   9.441 -1.5643 -2.2822 -0.7077
  119MOL0     H15693   4.911   5.604   9.646 -1.3384 -0.3901 -0.6234
  119MOL0     H15694   5.295   5.243  10.969  2.8103 -4.1838 -2.2447
  119MOL0     H15695   5.100   5.284  11.147  1.1148  0.4398  0.6047
  119MOL0     H15696   4.671   4.922  11.266 -0.6869 -2.1473  1.0295
  119MOL0     H15697   4.518   4.863  11.445  0.0266 -0.4808  2.4806
  119MOL0     H15698   4.561   5.058  11.817 -0.8689 -0.1715 -0.3811
  119MOL0     H15699   4.615   4.904  11.873  0.9156  1.7513  0.1025
  119MOL0     H15700   4.401   4.817  11.898 -2.7105 -0.0776  3.9012
  119MOL0     H15701   4.427   4.965  11.998  0.3167 -1.2268  0.8541
  119MOL0     H15702   4.300   5.013  11.721  2.7305 -1.5205  0.4427
  119MOL0     H15703   4.277   5.092  11.879 -3.4177  0.3422  0.1319
  119MOL0     H15704   4.165   4.842  11.764 -0.6301  0.5409 -0.2558
  119MOL0     H15705   4.164   4.860  11.940  0.6663 -2.6125 -1.0250
  119MOL0     H15706   3.875   5.149  11.847 -0.2906 -1.3569  1.9821
  119MOL0     H15707   4.761   5.062  11.715  0.4721 -0.9309 -0.3052
  119MOL0     H15708   4.923   5.109  11.543  0.8076 -0.4406 -0.6885
  120MOL0     O15709   8.490   2.224   7.017 -0.5521 -0.1891  0.3839
  120MOL0     C15710   8.368   2.195   7.005  0.4875  1.1804 -0.4293
  120MOL0     O15711   8.305   2.088   7.065  0.0207  0.7024  0.2951
  120MOL0     C15712   8.375   1.979   7.126 -0.6486  0.0492 -0.5645
  120MOL0     C15713   8.514   1.950   7.109  0.1968  0.7736  0.3679
  120MOL0     C15714   8.568   1.841   7.182 -0.6383  0.1528  0.0302
  120MOL0     C15715   8.494   1.758   7.261  0.8782 -0.0178 -0.3079
  120MOL0     O15716   8.559   1.655   7.326 -0.3399  0.2411  0.2530
  120MOL0     C15717   8.492   1.559   7.420  0.6909 -0.5435  0.4244
  120MOL0     C15718   8.447   1.426   7.355  0.0912 -0.1165 -0.2299
  120MOL0     C15719   8.354   1.345   7.443 -0.4991 -1.0312 -0.3277
  120MOL0     C15720   8.225   1.420   7.464  0.1706  0.1658  0.1397
  120MOL0     C15721   8.096   1.349   7.511  0.0186  0.0024  0.2696
  120MOL0     C15722   8.103   1.302   7.658 -0.3769  1.1206 -0.8086
  120MOL0     C15723   7.999   1.191   7.701 -0.1348 -0.6198  0.2232
  120MOL0     C15724   7.865   1.254   7.735  0.2597  0.4882 -0.5223
  120MOL0     N15725   7.788   1.315   7.622 -0.0085  0.1418  0.1270
  120MOL0     C15726   7.720   1.432   7.624  0.4204  0.2149  0.4236
  120MOL0     C15727   7.663   1.440   7.501  0.2234  0.2311  0.8706
  120MOL0     C15728   7.572   1.559   7.468 -0.9343 -0.1490  0.1877
  120MOL0     C15729   7.435   1.570   7.534  0.1053 -0.7425 -0.2977
  120MOL0     C15730   7.341   1.452   7.494 -0.4330 -0.5653  0.0963
  120MOL0     C15731   7.207   1.466   7.564  0.0762  0.6319 -1.7055
  120MOL0     O15732   7.123   1.556   7.492  0.6881 -0.0741  0.0036
  120MOL0     C15733   6.987   1.578   7.534 -1.4515 -0.0705 -1.0321
  120MOL0     C15734   6.930   1.702   7.547 -0.3089 -0.4075 -1.1362
  120MOL0     C15735   6.799   1.710   7.607  0.2173 -0.5459  0.3690
  120MOL0     C15736   6.717   1.600   7.631  0.1695 -0.2514  0.4322
  120MOL0     C15737   6.585   1.613   7.683  0.3305 -0.0269  0.2268
  120MOL0     O15738   6.516   1.503   7.726  0.0288  0.3095  0.0400
  120MOL0     C15739   6.388   1.500   7.768  0.3535  0.3931  0.4935
  120MOL0     C15740   6.277   1.587   7.745  0.8413 -0.4010 -0.1943
  120MOL0     C15741   6.148   1.561   7.784  0.7225  0.0717 -1.4986
  120MOL0     C15742   6.108   1.440   7.845  0.5046 -0.4411 -0.0509
  120MOL0     O15743   5.988   1.413   7.898  0.6410 -0.3181  0.0031
  120MOL0     C15744   5.869   1.489   7.867  0.2848 -0.7894 -1.0716
  120MOL0     C15745   5.737   1.449   7.941  0.6896  0.0993 -0.1561
  120MOL0     C15746   5.712   1.297   7.922 -0.1569 -0.4084  0.1606
  120MOL0     C15747   5.595   1.251   8.016  0.5344 -1.4311 -0.5588
  120MOL0     C15748   5.588   1.095   8.018  0.3411 -0.1989 -0.4714
  120MOL0     C15749   5.458   1.054   8.082  0.0166  0.2418 -0.2268
  120MOL0     C15750   5.390   0.920   8.029  0.8332 -0.8295 -0.4894
  120MOL0     C15751   5.468   0.800   8.084  0.4704  0.3087  0.8384
  120MOL0    Cl15752   5.603   0.768   7.973 -0.2146  0.3026 -0.5586
  120MOL0     C15753   6.210   1.352   7.862  0.5794 -0.3702 -0.2315
  120MOL0     C15754   6.341   1.381   7.827 -0.2438  0.0809 -0.4929
  120MOL0     O15755   6.545   1.728   7.698 -0.0970 -0.6835 -0.1684
  120MOL0     C15756   6.768   1.475   7.599  0.5349  0.0924 -0.6023
  120MOL0     C15757   6.906   1.466   7.564  0.2428 -0.3061 -1.4025
  120MOL0     N15758   7.693   1.332   7.422 -0.7592 -0.9182 -0.9656
  120MOL0     N15759   7.777   1.260   7.497 -0.2282  0.4213  0.1132
  120MOL0     C15760   8.368   1.798   7.285  0.6395 -0.1816 -0.1128
  120MOL0     C15761   8.308   1.900   7.222 -0.2511 -0.5720  0.0552
  120MOL0     C15762   8.278   2.287   6.933 -0.0470 -0.1203  1.0991
  120MOL0     C15763   8.139   2.273   6.957  0.2784  0.2733  0.3068
  120MOL0     C15764   8.060   2.379   6.902 -1.3883  0.7658  0.1241
  120MOL0     C15765   8.114   2.480   6.823 -0.5747 -0.1444  0.1776
  120MOL0     O15766   8.030   2.582   6.780 -0.4397  0.5267  0.2748
  120MOL0     C15767   8.080   2.709   6.754 -0.9869 -0.1034  0.2715
  120MOL0     C15768   7.967   2.813   6.763 -0.0186 -0.4120 -0.0567
  120MOL0     C15769   7.840   2.748   6.708 -0.0536 -0.4950 -0.4871
  120MOL0     C15770   7.733   2.866   6.662  0.3097  0.8630 -0.5327
  120MOL0     C15771   7.631   2.797   6.576  0.8683  0.0047  1.5631
  120MOL0     C15772   7.574   2.710   6.510  0.2682 -0.1670 -0.7701
  120MOL0     C15773   8.254   2.483   6.804  1.3168  0.1639  0.8777
  120MOL0     C15774   8.334   2.391   6.852  0.2968  0.6456  0.4745
  120MOL0     H15775   8.579   2.004   7.041 -1.4675  0.9141 -1.1901
  120MOL0     H15776   8.673   1.815   7.184 -0.7442 -0.3809 -0.7137
  120MOL0     H15777   8.418   1.618   7.475  1.8543  1.3034  0.1037
  120MOL0     H15778   8.558   1.530   7.502 -0.0930 -0.3217  1.1528
  120MOL0     H15779   8.532   1.369   7.316 -0.2970 -2.3081  1.8924
  120MOL0     H15780   8.388   1.442   7.264 -0.2889  0.6257  0.1402
  120MOL0     H15781   8.404   1.327   7.539 -0.7021  1.0656  0.2028
  120MOL0     H15782   8.331   1.253   7.387 -3.6863 -0.4076 -0.2024
  120MOL0     H15783   8.238   1.502   7.535  1.4451  0.2129 -0.1209
  120MOL0     H15784   8.195   1.468   7.371  0.8000  2.8499  1.2396
  120MOL0     H15785   8.072   1.265   7.445  0.7935  0.5819 -0.7869
  120MOL0     H15786   8.017   1.425   7.510 -0.7136 -0.7292  0.7636
  120MOL0     H15787   8.073   1.393   7.712 -2.0960  1.4499 -2.2029
  120MOL0     H15788   8.204   1.277   7.690 -1.1094  2.0325  2.6671
  120MOL0     H15789   7.987   1.122   7.618  0.1090  0.7117 -0.9467
  120MOL0     H15790   8.037   1.128   7.782 -0.6535 -2.7492 -1.1107
  120MOL0     H15791   7.867   1.326   7.817 -0.6685  2.3000 -2.0116
  120MOL0     H15792   7.809   1.168   7.773 -1.1075  0.1227 -3.0793
  120MOL0     H15793   7.703   1.501   7.706 -1.7524  0.1984  0.0541
  120MOL0     H15794   7.571   1.557   7.359 -2.6033 -0.3098  0.1698
  120MOL0     H15795   7.633   1.648   7.487 -0.8134 -0.4143  1.1146
  120MOL0     H15796   7.395   1.661   7.489  0.8183 -0.5175 -0.4807
  120MOL0     H15797   7.452   1.579   7.642  2.7834 -0.6368 -0.6607
  120MOL0     H15798   7.319   1.459   7.387  0.1958  0.2398  0.0066
  120MOL0     H15799   7.395   1.361   7.524 -2.3454 -2.4634 -1.9055
  120MOL0     H15800   7.238   1.495   7.666 -0.1445 -1.5889 -0.9642
  120MOL0     H15801   7.167   1.365   7.569  4.2484 -1.1884 -0.2448
  120MOL0     H15802   6.983   1.794   7.525 -3.5598  1.8321 -0.3474
  120MOL0     H15803   6.772   1.814   7.623  2.4370  0.2617 -0.6624
  120MOL0     H15804   6.308   1.681   7.703  2.4097 -0.4689  0.7282
  120MOL0     H15805   6.087   1.650   7.775  0.3893  0.5614  3.2404
  120MOL0     H15806   5.845   1.502   7.761 -6.6194  1.5200  0.2486
  120MOL0     H15807   5.893   1.588   7.908 -0.2069 -2.1525  2.9145
  120MOL0     H15808   5.657   1.509   7.896  0.8557  1.0377  0.7673
  120MOL0     H15809   5.737   1.464   8.049 -1.5345  0.3018 -0.1278
  120MOL0     H15810   5.804   1.237   7.929 -0.6897 -1.4244 -1.1285
  120MOL0     H15811   5.674   1.284   7.820 -2.0400 -0.1411  0.8060
  120MOL0     H15812   5.608   1.279   8.121  1.3972  2.0700 -1.4752
  120MOL0     H15813   5.505   1.302   7.980  0.5785 -0.6224  0.4585
  120MOL0     H15814   5.677   1.055   8.068  1.6156  0.5045 -2.0867
  120MOL0     H15815   5.582   1.061   7.915 -0.5781 -1.0031 -0.1706
  120MOL0     H15816   5.384   1.130   8.054  0.8496  3.4257  5.0293
  120MOL0     H15817   5.451   1.057   8.191 -1.5403 -0.4347 -0.2821
  120MOL0     H15818   5.291   0.911   8.074  1.3008  0.8009  1.0024
  120MOL0     H15819   5.374   0.927   7.921  4.0608  3.0901 -0.9966
  120MOL0     H15820   5.419   0.703   8.085 -1.4169  1.1132  4.3467
  120MOL0     H15821   5.496   0.820   8.188  2.4133 -2.1728  0.8811
  120MOL0     H15822   6.178   1.266   7.920 -2.0404  0.0017 -0.9958
  120MOL0     H15823   6.414   1.303   7.846 -0.5209 -0.3042 -0.9904
  120MOL0     H15824   6.711   1.389   7.632  0.8131 -0.5657 -1.7722
  120MOL0     H15825   6.954   1.369   7.563  2.5170  0.5922  1.7806
  120MOL0     H15826   8.305   1.752   7.360  0.0256  0.5702 -0.1457
  120MOL0     H15827   8.204   1.932   7.221  0.0925  0.6220 -1.3305
  120MOL0     H15828   8.095   2.207   7.031  1.6008 -1.0200 -0.0135
  120MOL0     H15829   7.957   2.400   6.930 -1.8199  0.1525 -0.9776
  120MOL0     H15830   8.117   2.699   6.651  1.7802 -0.7065  1.2377
  120MOL0     H15831   8.171   2.731   6.812  0.2310 -0.2623 -1.4764
  120MOL0     H15832   7.930   2.832   6.864 -0.7837 -1.4512 -0.1248
  120MOL0     H15833   7.992   2.898   6.699 -4.9464 -1.0997 -3.5606
  120MOL0     H15834   7.790   2.682   6.780  2.0418 -0.5548  0.9930
  120MOL0     H15835   7.871   2.682   6.626 -2.7022 -2.6663  0.0892
  120MOL0     H15836   7.682   2.912   6.747  1.0489  0.7036  0.0072
  120MOL0     H15837   7.777   2.955   6.616 -2.4192  1.4617 -2.1635
  120MOL0     H15838   7.535   2.622   6.464  1.2461 -1.7442  1.2805
  120MOL0     H15839   8.306   2.561   6.749  1.3095  0.4406  1.2567
  120MOL0     H15840   8.442   2.403   6.845  0.6237 -0.4679  2.7546
  121MOL0     O15841   9.485  10.274  11.267  0.5423 -0.0686  0.3796
  121MOL0     C15842   9.523  10.281  11.382 -0.8085  0.0921 -0.3376
  121MOL0     O15843   9.488  10.202  11.481  0.4646 -0.3384 -0.2970
  121MOL0     C15844   9.390  10.101  11.451  0.0522  0.9275  0.0821
  121MOL0     C15845   9.386   9.999  11.540  0.3997  0.0117  0.1025
  121MOL0     C15846   9.281   9.896  11.536 -0.4331 -0.0127  0.3511
  121MOL0     C15847   9.161   9.918  11.463 -1.2463 -0.9877  0.1080
  121MOL0     O15848   9.058   9.837  11.443  0.7226  0.5251 -0.0904
  121MOL0     C15849   9.045   9.706  11.505 -0.1004  0.9592  0.4243
  121MOL0     C15850   8.939   9.616  11.438 -1.1711 -0.6283 -0.6212
  121MOL0     C15851   8.952   9.472  11.496 -0.2334 -0.3093 -0.2084
  121MOL0     C15852   8.857   9.381  11.411  0.6877  0.4456 -0.8460
  121MOL0     C15853   8.811   9.263  11.488  0.4888 -0.8044 -0.3559
  121MOL0     C15854   8.799   9.140  11.411  0.1497 -0.9905  1.1321
  121MOL0     C15855   8.686   9.061  11.487 -0.3558 -0.7180 -0.2287
  121MOL0     C15856   8.651   8.929  11.422  0.1855 -0.8298 -0.0608
  121MOL0     N15857   8.553   8.847  11.497  0.7254 -0.0488  0.1572
  121MOL0     C15858   8.491   8.734  11.449 -0.1691 -0.0148  0.4989
  121MOL0     C15859   8.443   8.676  11.557  0.7904  1.0349 -0.4943
  121MOL0     C15860   8.364   8.544  11.563 -0.3061  1.5685 -0.1039
  121MOL0     C15861   8.222   8.572  11.533 -0.2063  0.7309 -0.0729
  121MOL0     C15862   8.143   8.441  11.547  0.4558  0.9872  0.1857
  121MOL0     C15863   8.002   8.435  11.474 -0.0172  0.6031  0.4183
  121MOL0     O15864   7.925   8.322  11.533  0.3194  0.1332 -0.6465
  121MOL0     C15865   7.808   8.291  11.455  0.1380  0.4154 -0.8808
  121MOL0     C15866   7.692   8.279  11.528  0.1769  1.2733 -0.7934
  121MOL0     C15867   7.573   8.245  11.467 -0.4330 -0.5547  0.6128
  121MOL0     C15868   7.567   8.222  11.330 -0.6366 -0.6688  0.1073
  121MOL0     C15869   7.434   8.201  11.251  0.0947 -0.5285 -0.1875
  121MOL0     O15870   7.436   8.153  11.121 -0.1173 -0.5247  0.2276
  121MOL0     C15871   7.336   8.079  11.070 -0.1633  0.3418  0.0134
  121MOL0     C15872   7.197   8.116  11.079 -1.1315  0.1009  0.0177
  121MOL0     C15873   7.110   8.022  11.036  0.1906  0.2364 -0.3987
  121MOL0     C15874   7.140   7.902  10.976  0.4624 -0.9833 -0.2451
  121MOL0     O15875   7.045   7.810  10.925  0.6627 -0.4614 -0.4970
  121MOL0     C15876   6.944   7.777  11.020  0.6836  0.5186 -0.6175
  121MOL0     C15877   6.822   7.706  10.975  0.1076  0.0682  0.6130
  121MOL0     C15878   6.715   7.677  11.081  0.1786 -0.2301 -0.2159
  121MOL0     C15879   6.604   7.599  11.030 -0.4988  0.3944 -0.9406
  121MOL0     C15880   6.482   7.584  11.128  0.2677  0.0894  0.3265
  121MOL0     C15881   6.517   7.533  11.271 -0.0044 -0.7239  0.4020
  121MOL0     C15882   6.389   7.490  11.354 -0.2646 -0.1890 -0.7480
  121MOL0     C15883   6.434   7.433  11.484  0.0282  0.1426 -0.1350
  121MOL0    Cl15884   6.300   7.358  11.581  0.1093 -0.0474 -0.0173
  121MOL0     C15885   7.270   7.867  10.961 -0.6105  0.4138 -0.3255
  121MOL0     C15886   7.368   7.956  11.017 -0.5915  0.1066 -0.2031
  121MOL0     O15887   7.329   8.208  11.315  0.4270 -0.4913  0.8384
  121MOL0     C15888   7.693   8.231  11.256  1.1850  0.4231 -0.3323
  121MOL0     C15889   7.805   8.271  11.324 -0.0863  0.0953 -0.0082
  121MOL0     N15890   8.458   8.755  11.666  0.2532 -0.2483  0.8305
  121MOL0     N15891   8.536   8.850  11.630  0.0586 -0.3744 -0.3642
  121MOL0     C15892   9.160  10.040  11.392 -0.6617 -0.4968  0.6123
  121MOL0     C15893   9.271  10.129  11.385 -0.5776 -0.4211  0.3789
  121MOL0     C15894   9.614  10.389  11.396 -0.1156  0.0301 -0.3433
  121MOL0     C15895   9.625  10.495  11.306 -0.6994  0.1530 -0.0987
  121MOL0     C15896   9.718  10.596  11.327  0.6332 -0.0204  0.0017
  121MOL0     C15897   9.812  10.578  11.432 -0.1211 -1.2148  0.9921
  121MOL0     O15898   9.914  10.663  11.472  0.3001  0.8630 -0.1781
  121MOL0     C15899   9.928  10.763  11.369 -0.0887 -0.1962 -0.1136
  121MOL0     C15900  10.053  10.843  11.403  1.0722  0.2886 -0.1339
  121MOL0     C15901  10.028  10.898  11.547  0.5359 -0.4262 -0.1170
  121MOL0     C15902  10.126  11.012  11.581 -0.4387 -0.3524 -0.3734
  121MOL0     C15903  10.102  11.046  11.722 -0.8867  0.0676 -0.7150
  121MOL0     C15904  10.077  11.071  11.835 -0.1338 -0.3029 -0.0265
  121MOL0     C15905   9.809  10.465  11.516  0.3158 -0.5070  0.6238
  121MOL0     C15906   9.708  10.375  11.502 -0.5489 -0.4069 -0.2066
  121MOL0     H15907   9.478   9.985  11.597 -1.7623  0.5312  4.0658
  121MOL0     H15908   9.292   9.795  11.575 -0.1690 -0.3761 -0.6448
  121MOL0     H15909   9.020   9.714  11.611 -0.6846 -1.5927  0.5339
  121MOL0     H15910   9.137   9.649  11.488  0.5902  2.4535 -1.2815
  121MOL0     H15911   8.967   9.618  11.333  0.3085 -1.2837 -0.2587
  121MOL0     H15912   8.843   9.664  11.458  0.5280  2.8838 -0.2003
  121MOL0     H15913   8.917   9.468  11.600 -0.6042  0.4591 -0.2954
  121MOL0     H15914   9.051   9.427  11.500 -0.4776 -0.8073  0.5057
  121MOL0     H15915   8.766   9.438  11.390 -0.0004 -0.3529 -0.1122
  121MOL0     H15916   8.907   9.355  11.317  1.8260  2.9422 -1.0117
  121MOL0     H15917   8.714   9.292  11.530  0.1399 -0.4067 -1.4099
  121MOL0     H15918   8.886   9.256  11.568 -2.0298  1.7679  2.5495
  121MOL0     H15919   8.898   9.094  11.419 -0.4537 -2.1116  2.5010
  121MOL0     H15920   8.768   9.159  11.308 -0.7549  2.9563  1.9536
  121MOL0     H15921   8.724   9.037  11.587  0.3528  1.8103  0.1800
  121MOL0     H15922   8.593   9.117  11.500  0.7020  0.6276  2.1669
  121MOL0     H15923   8.744   8.872  11.410 -0.0841 -0.8885 -2.1867
  121MOL0     H15924   8.598   8.955  11.330 -2.7052  2.3307  2.2539
  121MOL0     H15925   8.495   8.701  11.346 -0.2679  0.5957  0.2973
  121MOL0     H15926   8.380   8.495  11.660  5.4659 -0.6742 -1.7793
  121MOL0     H15927   8.405   8.460  11.507  0.9428 -0.0960  3.0354
  121MOL0     H15928   8.220   8.612  11.431  2.5311  3.4590  0.7459
  121MOL0     H15929   8.190   8.652  11.601  0.5993  1.9163 -1.0356
  121MOL0     H15930   8.200   8.352  11.517 -1.0064  0.3493 -0.8100
  121MOL0     H15931   8.107   8.428  11.649 -0.9739 -0.7929 -0.4837
  121MOL0     H15932   8.021   8.424  11.366 -0.3695  0.5842  0.3587
  121MOL0     H15933   7.956   8.530  11.500 -0.3891  0.4271  0.4048
  121MOL0     H15934   7.697   8.300  11.634  0.7971 -1.3571 -0.2274
  121MOL0     H15935   7.485   8.236  11.531 -0.1929 -4.7306  0.6457
  121MOL0     H15936   7.170   8.214  11.118  0.6576  0.1107  1.3333
  121MOL0     H15937   7.004   8.035  11.018  0.0265  0.2801  0.5297
  121MOL0     H15938   6.889   7.858  11.069 -0.6862 -1.4055  1.2462
  121MOL0     H15939   6.983   7.711  11.099  0.2590  0.6452 -0.2981
  121MOL0     H15940   6.855   7.604  10.950  3.0367  0.4622  2.3872
  121MOL0     H15941   6.767   7.755  10.894 -1.8487 -3.2290 -0.2465
  121MOL0     H15942   6.682   7.773  11.120  0.7034  0.4259 -1.3420
  121MOL0     H15943   6.748   7.615  11.165  0.5358 -0.4347 -0.5054
  121MOL0     H15944   6.569   7.652  10.942 -0.7364  1.5654 -0.1682
  121MOL0     H15945   6.631   7.496  11.004  0.9523  0.7858 -1.0909
  121MOL0     H15946   6.417   7.508  11.083 -1.6729  1.6726  0.3200
  121MOL0     H15947   6.430   7.680  11.122  0.6892  0.7531  4.6132
  121MOL0     H15948   6.568   7.617  11.319  1.4775  0.0768 -2.3522
  121MOL0     H15949   6.587   7.450  11.261  0.1072 -0.4280 -1.6287
  121MOL0     H15950   6.330   7.580  11.370 -3.2739 -2.3382  1.1724
  121MOL0     H15951   6.330   7.422  11.292  3.0879  0.4556 -5.2270
  121MOL0     H15952   6.478   7.511  11.547  5.3907 -3.9305  2.0010
  121MOL0     H15953   6.520   7.366  11.473 -0.0243 -0.1499  1.0786
  121MOL0     H15954   7.304   7.779  10.906  2.0838  0.7995  0.5955
  121MOL0     H15955   7.475   7.946  11.001 -0.5417  2.4940 -1.8248
  121MOL0     H15956   7.705   8.195  11.154 -0.0938  0.3895 -0.4943
  121MOL0     H15957   7.893   8.273  11.261 -1.6396 -1.5105 -2.4046
  121MOL0     H15958   9.071  10.072  11.340 -1.3885  2.7114  3.4335
  121MOL0     H15959   9.246  10.225  11.341 -3.3373 -1.4834 -0.6160
  121MOL0     H15960   9.552  10.503  11.226 -1.6743  0.1570  0.7740
  121MOL0     H15961   9.714  10.678  11.255 -0.5049 -0.3291 -0.2973
  121MOL0     H15962   9.838  10.824  11.381 -1.9655 -2.9262  0.3414
  121MOL0     H15963   9.935  10.727  11.266 -2.3151 -0.2095 -0.3006
  121MOL0     H15964  10.143  10.785  11.381 -1.3197 -1.9160 -5.8723
  121MOL0     H15965  10.059  10.928  11.335 -0.5188 -0.3630 -1.1332
  121MOL0     H15966  10.045  10.819  11.621  1.9529 -2.1457 -2.1705
  121MOL0     H15967   9.927  10.941  11.552  1.5215  2.1212 -0.2419
  121MOL0     H15968  10.228  10.973  11.572  0.3278  1.8709 -2.3451
  121MOL0     H15969  10.116  11.098  11.514  2.6717  1.2759  1.0656
  121MOL0     H15970  10.039  11.104  11.930 -2.2204  0.3212 -1.0162
  121MOL0     H15971   9.883  10.461  11.595  0.2972 -1.5478  0.6003
  121MOL0     H15972   9.710  10.290  11.569  0.6927 -0.6627 -0.5287
  122MOL0     O15973   9.570   1.436   7.782 -0.1458 -0.0359  0.0287
  122MOL0     C15974   9.580   1.312   7.806  0.4727 -1.3218  0.7630
  122MOL0     O15975   9.618   1.222   7.715  0.8160 -0.0352  0.1463
  122MOL0     C15976   9.667   1.266   7.588 -0.8875 -0.1651  0.3972
  122MOL0     C15977   9.786   1.332   7.580  1.0787  0.3575  0.7679
  122MOL0     C15978   9.830   1.385   7.450 -0.6248  0.1770  0.3875
  122MOL0     C15979   9.769   1.339   7.331  0.7589  0.1271 -1.1121
  122MOL0     O15980   9.812   1.372   7.204  0.0583  0.9010  0.3916
  122MOL0     C15981   9.811   1.510   7.177 -0.1143 -0.6086 -0.4842
  122MOL0     C15982   9.717   1.536   7.066 -0.1250 -0.2228 -0.5953
  122MOL0     C15983   9.748   1.663   6.979  0.8200  0.4378  0.3001
  122MOL0     C15984   9.647   1.685   6.866  0.4402 -1.0962 -0.1319
  122MOL0     C15985   9.714   1.697   6.733  0.1836  0.4488  1.1836
  122MOL0     C15986   9.788   1.818   6.713 -0.1284 -0.1263 -0.6140
  122MOL0     C15987   9.858   1.803   6.576 -0.7291 -0.1512  0.3144
  122MOL0     C15988   9.886   1.922   6.484 -0.0924 -1.1308  0.1050
  122MOL0     N15989   9.980   2.021   6.541  0.5125 -0.1690  0.0357
  122MOL0     C15990  10.109   2.018   6.518 -1.0574  0.0008  0.1362
  122MOL0     C15991  10.154   2.108   6.610 -0.2630 -0.5844 -0.0645
  122MOL0     C15992  10.298   2.138   6.610  0.8830 -0.6963  0.5281
  122MOL0     C15993  10.372   2.094   6.738 -0.5724 -0.6766 -0.3974
  122MOL0     C15994  10.413   1.944   6.741  0.2554  0.4575 -0.1684
  122MOL0     C15995  10.523   1.905   6.837 -0.8768  0.2173 -0.4209
  122MOL0     O15996  10.586   1.774   6.812  0.1341 -1.1235  0.4413
  122MOL0     C15997  10.699   1.790   6.745 -1.1974 -0.4144 -0.4470
  122MOL0     C15998  10.823   1.810   6.813  0.1538  0.0082  0.2506
  122MOL0     C15999  10.936   1.844   6.732 -0.8239 -0.1043 -0.1386
  122MOL0     C16000  10.940   1.835   6.594  0.5770 -0.4155  0.4171
  122MOL0     C16001  11.064   1.846   6.517 -0.9044  0.6392 -0.0680
  122MOL0     O16002  11.180   1.853   6.590 -0.1598 -0.3121  0.8078
  122MOL0     C16003  11.301   1.795   6.541  0.4141 -0.0571 -0.5003
  122MOL0     C16004  11.422   1.863   6.546  0.2617 -0.8444  0.2876
  122MOL0     C16005  11.537   1.814   6.482 -0.6437 -1.2191  0.7180
  122MOL0     C16006  11.545   1.693   6.418 -0.7194 -0.2225 -0.6547
  122MOL0     O16007  11.655   1.645   6.355 -0.3235 -0.1267 -0.1951
  122MOL0     C16008  11.770   1.730   6.359  0.1865  0.9529  0.1259
  122MOL0     C16009  11.900   1.642   6.328  0.0904  1.1617  0.0182
  122MOL0     C16010  12.029   1.731   6.327  0.1137  0.0626  0.5684
  122MOL0     C16011  12.160   1.640   6.296 -0.2022  0.3715  0.2469
  122MOL0     C16012  12.286   1.705   6.367  0.2432  0.4584  0.1641
  122MOL0     C16013  12.322   1.846   6.315  0.5156 -0.0964 -0.3758
  122MOL0     C16014  12.407   1.838   6.188 -0.0639  0.2535 -0.4852
  122MOL0     C16015  12.479   1.974   6.148 -0.3542  0.4192  0.1147
  122MOL0    Cl16016  12.338   2.081   6.083  0.0684  0.3575 -0.1844
  122MOL0     C16017  11.428   1.620   6.431  0.3115 -0.0265 -0.0665
  122MOL0     C16018  11.305   1.668   6.486  0.0024 -0.0464 -0.4657
  122MOL0     O16019  11.055   1.860   6.399 -0.0563  0.3163  0.3580
  122MOL0     C16020  10.815   1.798   6.529 -0.8360 -0.8032 -0.2244
  122MOL0     C16021  10.698   1.788   6.606 -0.5217 -0.8777 -0.2800
  122MOL0     N16022  10.051   2.165   6.686 -1.1618 -0.0066 -0.7118
  122MOL0     N16023   9.942   2.106   6.645  0.5251  0.1262  0.2278
  122MOL0     C16024   9.660   1.246   7.343  0.2551  0.2735  0.5045
  122MOL0     C16025   9.607   1.212   7.466  0.1177  0.4598 -0.0163
  122MOL0     C16026   9.533   1.270   7.938  0.2209 -0.3862  0.2919
  122MOL0     C16027   9.529   1.138   7.974 -0.0556  0.2270 -0.4563
  122MOL0     C16028   9.471   1.097   8.104  0.2893 -0.0068 -0.2666
  122MOL0     C16029   9.427   1.191   8.193  0.7878  0.2367 -0.4870
  122MOL0     O16030   9.356   1.169   8.308 -0.0660 -0.0419  0.2681
  122MOL0     C16031   9.294   1.043   8.318 -0.4721  0.3705  0.7387
  122MOL0     C16032   9.180   1.032   8.216  0.4390 -0.2331 -0.6692
  122MOL0     C16033   9.070   1.127   8.255 -0.1452  0.1496 -0.2094
  122MOL0     C16034   8.943   1.103   8.174 -1.5894 -0.4242 -0.2996
  122MOL0     C16035   8.870   0.987   8.219 -0.5964 -0.8052 -0.4273
  122MOL0     C16036   8.824   0.878   8.240 -0.9954  0.2391  0.7320
  122MOL0     C16037   9.419   1.321   8.147 -0.5774 -0.7861  0.6619
  122MOL0     C16038   9.478   1.361   8.025  0.6545  0.5879 -0.9360
  122MOL0     H16039   9.851   1.357   7.664  3.4830  1.1861 -1.1984
  122MOL0     H16040   9.927   1.432   7.441 -1.9163  2.8221 -0.5315
  122MOL0     H16041   9.906   1.542   7.134  0.5923 -2.6083 -0.4894
  122MOL0     H16042   9.775   1.572   7.260 -1.9989 -0.2590 -1.4860
  122MOL0     H16043   9.622   1.549   7.120  0.0978  4.3813 -0.9150
  122MOL0     H16044   9.714   1.457   6.991 -2.3315 -0.1572 -0.6359
  122MOL0     H16045   9.848   1.649   6.936 -0.4469 -2.2070 -2.0627
  122MOL0     H16046   9.739   1.746   7.050  0.4352  2.2004 -1.7159
  122MOL0     H16047   9.564   1.616   6.881 -1.4065  1.6917  4.0026
  122MOL0     H16048   9.602   1.783   6.880  3.8071  0.6740 -0.6406
  122MOL0     H16049   9.633   1.693   6.660 -1.5075  0.0348  3.0122
  122MOL0     H16050   9.776   1.609   6.715 -1.5908 -0.8759  1.2969
  122MOL0     H16051   9.857   1.822   6.797  0.6975  2.7676 -1.3496
  122MOL0     H16052   9.721   1.903   6.699 -1.5667 -1.1256 -0.0672
  122MOL0     H16053   9.953   1.749   6.587 -0.4251 -0.6947 -3.3745
  122MOL0     H16054   9.803   1.728   6.518 -0.0189  0.4277 -1.1735
  122MOL0     H16055   9.794   1.980   6.472  1.0838  0.9218  0.5094
  122MOL0     H16056   9.911   1.891   6.382 -1.9049  1.5939 -1.3024
  122MOL0     H16057  10.172   1.962   6.450 -0.9337  0.7544 -0.3895
  122MOL0     H16058  10.309   2.247   6.611  2.2119 -0.8163  1.0648
  122MOL0     H16059  10.348   2.101   6.521  2.4784 -0.1154  1.1455
  122MOL0     H16060  10.318   2.118   6.831  2.0403  1.2882  0.7245
  122MOL0     H16061  10.469   2.145   6.738 -0.4540 -0.9029 -0.5704
  122MOL0     H16062  10.329   1.875   6.756 -1.2606  2.4971  1.1850
  122MOL0     H16063  10.445   1.917   6.640 -2.5434  1.9256 -1.5594
  122MOL0     H16064  10.475   1.917   6.935 -4.2960 -0.0796 -1.9202
  122MOL0     H16065  10.604   1.978   6.838  0.6461 -1.1347  4.1789
  122MOL0     H16066  10.834   1.817   6.921 -1.9380  2.4418  0.3894
  122MOL0     H16067  11.018   1.861   6.801 -0.0160  1.0106 -1.3160
  122MOL0     H16068  11.406   1.963   6.587  1.4139 -0.4818 -0.1042
  122MOL0     H16069  11.618   1.886   6.489 -0.7855 -0.5551 -2.6620
  122MOL0     H16070  11.790   1.767   6.460 -0.1958 -0.0274  0.5721
  122MOL0     H16071  11.766   1.812   6.288  0.3102  2.4168  1.7278
  122MOL0     H16072  11.892   1.584   6.236 -0.0668  1.8563 -0.4075
  122MOL0     H16073  11.916   1.572   6.411  0.9875  0.7913 -0.4509
  122MOL0     H16074  12.052   1.781   6.421  3.1387  2.4126 -1.2519
  122MOL0     H16075  12.022   1.818   6.261  0.3986  1.4968  2.3443
  122MOL0     H16076  12.153   1.536   6.329  0.5907 -0.2500 -1.4394
  122MOL0     H16077  12.185   1.633   6.190 -1.3508 -0.2230 -0.0025
  122MOL0     H16078  12.375   1.645   6.343  1.1210  2.9070 -3.7123
  122MOL0     H16079  12.263   1.713   6.473 -0.4809  0.0581  0.0446
  122MOL0     H16080  12.376   1.901   6.392 -1.2367  2.2955 -0.7237
  122MOL0     H16081  12.229   1.892   6.281 -0.0412 -1.7633 -1.2188
  122MOL0     H16082  12.474   1.752   6.197  0.0278  0.4273  0.5928
  122MOL0     H16083  12.335   1.805   6.111 -2.0920 -0.5321  1.6188
  122MOL0     H16084  12.558   1.963   6.073 -0.0617  3.6007 -0.1640
  122MOL0     H16085  12.526   2.018   6.236  4.0673 -0.0363 -1.7414
  122MOL0     H16086  11.417   1.518   6.395  1.2675 -0.0890 -0.1958
  122MOL0     H16087  11.217   1.606   6.472  0.0142 -0.0922 -0.3391
  122MOL0     H16088  10.816   1.779   6.422 -1.3863  0.2802 -0.4340
  122MOL0     H16089  10.601   1.765   6.562  0.5735 -0.3720 -3.2150
  122MOL0     H16090   9.621   1.199   7.254 -0.0165 -0.3827  0.9603
  122MOL0     H16091   9.519   1.148   7.468 -0.0090  0.6630  1.4019
  122MOL0     H16092   9.553   1.055   7.908 -0.8299 -1.9498  1.8317
  122MOL0     H16093   9.473   0.989   8.109 -0.2820 -0.0931 -1.6088
  122MOL0     H16094   9.257   1.035   8.421 -1.6329 -0.5328  0.2821
  122MOL0     H16095   9.367   0.962   8.311  1.2415  1.9590 -1.0103
  122MOL0     H16096   9.218   1.060   8.117  4.2575  1.1548  1.0151
  122MOL0     H16097   9.137   0.933   8.232 -2.1482  1.1037  1.3799
  122MOL0     H16098   9.106   1.230   8.245 -0.4204  0.7082  3.4044
  122MOL0     H16099   9.038   1.112   8.358  2.4362 -0.3763  0.5799
  122MOL0     H16100   8.887   1.195   8.194  1.9653  2.1334 -0.9496
  122MOL0     H16101   8.962   1.100   8.067  0.4028  0.6130 -0.0319
  122MOL0     H16102   8.772   0.788   8.266 -0.3364 -0.7932 -1.2692
  122MOL0     H16103   9.377   1.400   8.208  0.2494  1.0837 -1.0369
  122MOL0     H16104   9.473   1.466   7.997  1.7708  0.9447  0.1094
  123MOL0     O16105   2.372  11.241   8.542 -0.1300 -0.4487  0.1418
  123MOL0     C16106   2.367  11.196   8.653 -0.1870 -0.1335 -0.8557
  123MOL0     O16107   2.261  11.221   8.740  0.0595  0.7016  0.5026
  123MOL0     C16108   2.142  11.282   8.700 -1.2546  0.6725 -0.1230
  123MOL0     C16109   2.035  11.268   8.788 -0.1469 -0.6770 -0.0166
  123MOL0     C16110   1.918  11.334   8.768  0.0354 -0.6931  0.1724
  123MOL0     C16111   1.894  11.399   8.648 -0.3641 -0.8181 -0.2117
  123MOL0     O16112   1.783  11.462   8.647  1.1227 -0.0373  0.3523
  123MOL0     C16113   1.722  11.488   8.525 -0.2288 -0.3631  0.3901
  123MOL0     C16114   1.617  11.384   8.502  0.1713  0.4784  0.7861
  123MOL0     C16115   1.651  11.248   8.452 -0.1028  0.3851 -0.0674
  123MOL0     C16116   1.525  11.172   8.425  0.3780 -0.9562 -0.3391
  123MOL0     C16117   1.513  11.111   8.286 -0.2329 -0.1956  0.3473
  123MOL0     C16118   1.595  10.991   8.272 -0.2503  0.2833  0.2927
  123MOL0     C16119   1.533  10.902   8.158  0.1016  0.7527  0.2812
  123MOL0     C16120   1.564  10.943   8.012  0.9599 -0.9957 -0.4608
  123MOL0     N16121   1.441  10.987   7.946 -0.5491 -0.1056  0.8012
  123MOL0     C16122   1.366  11.101   7.960  0.2019 -0.6379  0.5114
  123MOL0     C16123   1.247  11.084   7.891 -1.0889 -0.1837 -0.1218
  123MOL0     C16124   1.141  11.177   7.867  0.2974 -0.0629 -0.1746
  123MOL0     C16125   1.176  11.269   7.760  1.0886 -0.2347  0.2921
  123MOL0     C16126   1.088  11.396   7.749  0.1446 -0.7747  0.4869
  123MOL0     C16127   0.943  11.382   7.779  0.5869 -0.5967 -0.4773
  123MOL0     O16128   0.894  11.279   7.692 -0.8244  0.3704 -0.3393
  123MOL0     C16129   0.764  11.273   7.649  0.0991  0.1420 -0.5036
  123MOL0     C16130   0.660  11.317   7.730  0.3563 -0.4783  0.4540
  123MOL0     C16131   0.526  11.306   7.685  0.7201 -0.1183  0.6377
  123MOL0     C16132   0.489  11.229   7.573 -1.3337 -0.8996 -0.3566
  123MOL0     C16133   0.359  11.177   7.565  0.8099  0.3490  0.1814
  123MOL0     O16134   0.356  11.064   7.491  0.4017  0.7882 -0.2042
  123MOL0     C16135   0.223  11.014   7.479 -0.0876 -0.3516 -0.9766
  123MOL0     C16136   0.121  11.083   7.410 -0.5857  0.7011  0.8167
  123MOL0     C16137  -0.017  11.035   7.403 -0.4466 -0.9781  1.1632
  123MOL0     C16138  -0.053  10.917   7.473 -0.8058 -0.4802 -0.0817
  123MOL0     O16139  -0.176  10.870   7.496  0.4667  0.6692 -0.2433
  123MOL0     C16140  -0.254  10.867   7.380 -0.6479 -0.1693 -0.3507
  123MOL0     C16141  -0.396  10.802   7.409 -0.8154 -1.4886  0.1892
  123MOL0     C16142  -0.381  10.650   7.388 -0.6855  0.2217 -0.0423
  123MOL0     C16143  -0.525  10.589   7.397 -0.4195 -0.6366  0.1023
  123MOL0     C16144  -0.615  10.622   7.278  0.0976 -0.3329 -0.0276
  123MOL0     C16145  -0.577  10.569   7.138 -1.4812  0.0910 -0.1917
  123MOL0     C16146  -0.676  10.612   7.024  0.1781  0.8047  0.0815
  123MOL0     C16147  -0.693  10.764   7.012  0.0238  0.6773  0.3296
  123MOL0    Cl16148  -0.542  10.855   6.979  0.3615 -0.2071 -0.2304
  123MOL0     C16149   0.049  10.862   7.554 -0.6255  0.3821  0.0448
  123MOL0     C16150   0.183  10.911   7.564  0.5161  0.6538  0.1323
  123MOL0     O16151   0.269  11.233   7.619  0.4614  0.3630  0.0189
  123MOL0     C16152   0.595  11.188   7.494  0.2506  0.4002  1.0008
  123MOL0     C16153   0.733  11.207   7.533 -0.6861 -0.8332 -0.4243
  123MOL0     N16154   1.255  10.950   7.841  0.1422 -0.1801 -0.0661
  123MOL0     N16155   1.370  10.901   7.873  0.0071  0.1108  0.5575
  123MOL0     C16156   2.008  11.423   8.560  0.8564  0.4787 -0.1189
  123MOL0     C16157   2.129  11.360   8.583 -0.6419  0.0714  0.1403
  123MOL0     C16158   2.466  11.103   8.704 -0.3776  0.2942 -0.3080
  123MOL0     C16159   2.590  11.076   8.642 -0.3598  0.3550  0.1803
  123MOL0     C16160   2.687  10.996   8.694 -0.5744 -0.4536  0.7454
  123MOL0     C16161   2.661  10.947   8.817 -0.0495  0.7394 -0.6048
  123MOL0     O16162   2.757  10.865   8.868  0.1288 -0.5732  0.5148
  123MOL0     C16163   2.771  10.872   9.011  0.3579 -0.9843  0.8434
  123MOL0     C16164   2.892  10.795   9.052 -0.3547 -1.3072 -0.7187
  123MOL0     C16165   3.029  10.862   9.033 -0.0440 -0.0842  0.4828
  123MOL0     C16166   3.068  10.858   8.882  0.4287  0.5579  0.7204
  123MOL0     C16167   3.203  10.906   8.859 -0.4000 -0.2013  0.4091
  123MOL0     C16168   3.323  10.929   8.839 -0.2269 -0.2383  0.3503
  123MOL0     C16169   2.544  10.962   8.885 -0.1018 -0.2423 -0.3853
  123MOL0     C16170   2.439  11.034   8.831  0.7557  0.7377 -0.0992
  123MOL0     H16171   2.032  11.199   8.872 -2.2685 -0.6903 -0.0567
  123MOL0     H16172   1.831  11.328   8.832  0.5754  0.8986  1.1112
  123MOL0     H16173   1.793  11.510   8.444  2.3092  0.2413  2.6228
  123MOL0     H16174   1.669  11.582   8.543  2.2459  1.2775 -0.2689
  123MOL0     H16175   1.545  11.422   8.428 -0.9354 -1.3571  0.8506
  123MOL0     H16176   1.551  11.372   8.588 -3.8442  0.3577 -2.0050
  123MOL0     H16177   1.702  11.192   8.530 -2.4278 -0.0867  1.2157
  123MOL0     H16178   1.710  11.248   8.359  0.6758 -0.1731  0.4171
  123MOL0     H16179   1.514  11.098   8.505 -1.0926  1.4434  1.8056
  123MOL0     H16180   1.432  11.228   8.435  0.6246 -0.3924 -1.1124
  123MOL0     H16181   1.531  11.194   8.217  2.1031 -0.4578  0.5555
  123MOL0     H16182   1.405  11.095   8.282 -0.1294 -0.7891 -0.2670
  123MOL0     H16183   1.592  10.942   8.370  0.6032 -1.9730 -0.7286
  123MOL0     H16184   1.704  11.005   8.266  0.1565 -2.1124  0.8097
  123MOL0     H16185   1.580  10.804   8.166  0.6969  1.0716  0.8021
  123MOL0     H16186   1.427  10.896   8.183 -0.0479 -0.8048 -0.5980
  123MOL0     H16187   1.594  10.848   7.967 -1.3781 -1.8520 -0.3792
  123MOL0     H16188   1.642  11.019   8.003 -0.1014 -0.0078 -1.5077
  123MOL0     H16189   1.388  11.196   8.007 -4.4389 -0.2719  2.4980
  123MOL0     H16190   1.127  11.234   7.959 -1.5093 -0.5947 -0.0911
  123MOL0     H16191   1.046  11.128   7.844 -1.3887  1.9948  1.9022
  123MOL0     H16192   1.173  11.213   7.665 -0.4906 -0.6904  0.5835
  123MOL0     H16193   1.272  11.320   7.772  1.8285 -1.4275 -0.3055
  123MOL0     H16194   1.124  11.479   7.811 -0.1895  0.7866 -1.3007
  123MOL0     H16195   1.096  11.419   7.642  0.6931 -2.9531  0.0117
  123MOL0     H16196   0.896  11.479   7.760  0.5295 -0.8968 -2.0233
  123MOL0     H16197   0.926  11.352   7.882  0.8521  3.5697  0.9850
  123MOL0     H16198   0.674  11.375   7.821 -0.7972  2.7892 -1.2862
  123MOL0     H16199   0.451  11.348   7.751 -0.8246 -0.7125 -0.6711
  123MOL0     H16200   0.139  11.172   7.350 -2.1230 -1.3983 -3.1122
  123MOL0     H16201  -0.088  11.087   7.340 -0.5632  0.5696  2.5189
  123MOL0     H16202  -0.206  10.822   7.292 -0.5116  2.3693 -1.6523
  123MOL0     H16203  -0.286  10.968   7.352  2.3057  0.7823 -0.6560
  123MOL0     H16204  -0.464  10.848   7.337 -0.1893 -0.4170  0.2712
  123MOL0     H16205  -0.427  10.823   7.512  3.2636  0.5186  1.2058
  123MOL0     H16206  -0.311  10.609   7.461  3.6465 -0.4994 -4.1387
  123MOL0     H16207  -0.334  10.628   7.292 -2.1687 -2.1961 -0.2699
  123MOL0     H16208  -0.527  10.481   7.413 -1.8021 -0.7835 -0.8379
  123MOL0     H16209  -0.569  10.627   7.490  0.5220  1.2005 -0.1647
  123MOL0     H16210  -0.629  10.729   7.262 -0.1884 -0.4440 -0.5557
  123MOL0     H16211  -0.714  10.582   7.299  0.1074 -0.3400  0.0050
  123MOL0     H16212  -0.552  10.464   7.150  1.8553  0.8792  0.9249
  123MOL0     H16213  -0.484  10.617   7.105 -1.3157 -0.3692 -0.4030
  123MOL0     H16214  -0.641  10.576   6.927  1.0821  0.9046  0.3575
  123MOL0     H16215  -0.774  10.565   7.031 -1.0305  2.8708 -1.8199
  123MOL0     H16216  -0.738  10.795   7.107 -0.3989 -0.5839  0.5597
  123MOL0     H16217  -0.779  10.779   6.946 -1.1671 -1.1034  1.3824
  123MOL0     H16218   0.025  10.784   7.625  0.7700  1.0668  1.3326
  123MOL0     H16219   0.245  10.847   7.625  0.8712 -0.1336 -1.0160
  123MOL0     H16220   0.582  11.130   7.403 -0.1999  2.2006 -0.1291
  123MOL0     H16221   0.801  11.151   7.469 -1.3840 -2.6371  0.3356
  123MOL0     H16222   1.992  11.487   8.473 -0.5204  0.4450  0.0845
  123MOL0     H16223   2.213  11.388   8.520  1.6428 -1.9674  2.0872
  123MOL0     H16224   2.599  11.114   8.541 -0.6472  2.9088  1.0444
  123MOL0     H16225   2.776  10.991   8.632 -2.8527  1.6773 -3.1583
  123MOL0     H16226   2.691  10.832   9.073 -0.6776 -0.3261 -0.0328
  123MOL0     H16227   2.767  10.976   9.046 -0.4553 -1.1882  1.3792
  123MOL0     H16228   2.885  10.782   9.160 -0.5692  0.2887 -0.5219
  123MOL0     H16229   2.897  10.691   9.016  1.7296 -1.3645 -0.4181
  123MOL0     H16230   3.105  10.809   9.092  1.2813 -0.1646 -1.2187
  123MOL0     H16231   3.030  10.964   9.074  3.4324 -0.8660  2.8500
  123MOL0     H16232   3.061  10.763   8.828  1.1313  0.5490  0.6384
  123MOL0     H16233   2.990  10.905   8.822  0.2682 -2.1111 -1.3627
  123MOL0     H16234   3.426  10.960   8.841 -0.0738 -0.6447 -0.7177
  123MOL0     H16235   2.524  10.934   8.988 -1.3890  1.4467 -0.1344
  123MOL0     H16236   2.346  11.050   8.885  0.4853 -0.1078 -0.2961
  124MOL0     O16237   4.412  11.212   0.832 -0.5640 -0.1198 -0.0063
  124MOL0     C16238   4.460  11.297   0.908 -1.0764  0.6277 -0.2792
  124MOL0     O16239   4.491  11.422   0.873  0.0320  0.0203 -0.4237
  124MOL0     C16240   4.473  11.467   0.748 -0.2014 -1.3304  1.0634
  124MOL0     C16241   4.404  11.587   0.730  0.1608  0.4094 -0.3456
  124MOL0     C16242   4.382  11.647   0.605 -1.1909  0.2389  0.4493
  124MOL0     C16243   4.441  11.599   0.486  0.1870  0.1472  0.0593
  124MOL0     O16244   4.408  11.673   0.378  0.7063 -0.3212  1.1949
  124MOL0     C16245   4.441  11.610   0.257 -0.3153 -0.4194 -0.2409
  124MOL0     C16246   4.371  11.677   0.132 -0.9959  0.2395 -0.2241
  124MOL0     C16247   4.429  11.821   0.107  0.2868  0.5304 -0.8326
  124MOL0     C16248   4.368  11.889  -0.026 -0.2356 -0.1445  0.2880
  124MOL0     C16249   4.252  11.982   0.012 -0.2915 -0.2161  0.4657
  124MOL0     C16250   4.203  12.052  -0.111  0.6708 -0.3970 -0.2894
  124MOL0     C16251   4.263  12.182  -0.135 -0.5842 -0.8892  1.1279
  124MOL0     C16252   4.216  12.253  -0.266  0.7535  1.5570 -0.1298
  124MOL0     N16253   4.259  12.392  -0.267 -0.2120 -0.5433 -0.1773
  124MOL0     C16254   4.186  12.496  -0.207  0.6477 -0.9113  0.3828
  124MOL0     C16255   4.242  12.608  -0.248 -0.1056 -0.0406  0.0460
  124MOL0     C16256   4.213  12.753  -0.218 -0.3128  0.1751  0.1249
  124MOL0     C16257   4.061  12.777  -0.213 -0.2100 -0.2114  0.0265
  124MOL0     C16258   4.001  12.780  -0.353 -0.0118  0.2473  0.5459
  124MOL0     C16259   3.858  12.784  -0.374  0.3694  0.7422 -1.0883
  124MOL0     O16260   3.836  12.792  -0.508 -0.6361  0.3652  1.2867
  124MOL0     C16261   3.722  12.844  -0.539  0.6805  0.5986 -0.5412
  124MOL0     C16262   3.731  12.913  -0.661  0.3939  0.0778 -0.1495
  124MOL0     C16263   3.619  12.984  -0.711 -0.4364 -0.2791 -0.0445
  124MOL0     C16264   3.491  12.974  -0.636  0.5367 -0.5789  1.4484
  124MOL0     C16265   3.372  13.036  -0.702  0.0770  0.6428  0.8868
  124MOL0     O16266   3.245  12.984  -0.673 -0.2002 -0.1455 -0.2045
  124MOL0     C16267   3.147  13.047  -0.747  0.1752  0.2376  0.7964
  124MOL0     C16268   3.088  13.000  -0.864  0.3620 -0.1464 -0.7632
  124MOL0     C16269   2.992  13.075  -0.934 -0.6039  0.6676  0.2093
  124MOL0     C16270   2.940  13.199  -0.884 -0.6358  0.0581 -0.0248
  124MOL0     O16271   2.840  13.276  -0.933  0.9156 -1.0791  0.4673
  124MOL0     C16272   2.767  13.223  -1.046 -0.0543  0.1614  0.6546
  124MOL0     C16273   2.675  13.325  -1.106 -0.3845 -0.6624 -0.0031
  124MOL0     C16274   2.563  13.378  -1.012 -0.6408 -0.9834  0.0387
  124MOL0     C16275   2.452  13.265  -0.988 -0.5848 -0.1649  0.2830
  124MOL0     C16276   2.339  13.320  -0.908 -0.3203 -0.8420 -0.6595
  124MOL0     C16277   2.249  13.417  -0.983  0.2164  0.1475 -0.4985
  124MOL0     C16278   2.117  13.449  -0.906 -0.6694  0.5167 -0.7653
  124MOL0     C16279   1.997  13.371  -0.942  0.7802  0.1081 -0.6602
  124MOL0    Cl16280   1.953  13.407  -1.104 -0.0412  0.0424 -0.1616
  124MOL0     C16281   2.991  13.236  -0.760 -0.4362 -0.1354  1.6034
  124MOL0     C16282   3.105  13.171  -0.709  0.2420 -0.6503  0.3801
  124MOL0     O16283   3.398  13.130  -0.780 -0.0941  0.0202  0.8742
  124MOL0     C16284   3.483  12.899  -0.518 -0.1700  0.0084 -1.4941
  124MOL0     C16285   3.599  12.831  -0.471 -1.3024  0.0147 -0.6776
  124MOL0     N16286   4.342  12.570  -0.340 -0.0652 -0.6075  0.3729
  124MOL0     N16287   4.347  12.444  -0.352  0.6708 -0.5693  0.4485
  124MOL0     C16288   4.507  11.474   0.509 -0.0157  0.1989  0.0907
  124MOL0     C16289   4.527  11.408   0.636  0.1877 -0.7065 -0.0080
  124MOL0     C16290   4.465  11.260   1.051 -0.8003 -0.8642 -0.0107
  124MOL0     C16291   4.399  11.146   1.090  0.0678 -0.3217  0.2467
  124MOL0     C16292   4.407  11.106   1.225 -0.3849  0.4066 -0.6508
  124MOL0     C16293   4.473  11.184   1.321  0.3277 -0.2348 -0.1015
  124MOL0     O16294   4.492  11.163   1.449 -0.0440  0.4971 -0.3465
  124MOL0     C16295   4.385  11.098   1.509 -0.5130  0.2118  0.0695
  124MOL0     C16296   4.420  11.081   1.652 -0.1644  0.3771  0.0354
  124MOL0     C16297   4.404  11.219   1.720 -0.5415  0.3945  0.4749
  124MOL0     C16298   4.451  11.215   1.867  0.8264 -0.2973  0.0339
  124MOL0     C16299   4.399  11.093   1.936 -0.1370  0.0368 -1.3517
  124MOL0     C16300   4.353  10.999   2.002 -0.0689  0.7711 -1.0425
  124MOL0     C16301   4.537  11.301   1.276 -0.2250  0.6154  0.0898
  124MOL0     C16302   4.541  11.342   1.144 -0.2075 -0.1320  0.2747
  124MOL0     H16303   4.364  11.625   0.823  1.4804 -2.3945  1.5462
  124MOL0     H16304   4.324  11.738   0.598  1.7490  2.1241 -2.1698
  124MOL0     H16305   4.408  11.507   0.272 -0.5232  0.1317  4.4443
  124MOL0     H16306   4.550  11.600   0.252 -0.2018  0.6565 -0.1750
  124MOL0     H16307   4.263  11.682   0.150 -0.8236 -1.8401  1.9793
  124MOL0     H16308   4.382  11.601   0.055 -0.9885 -2.3710  2.1717
  124MOL0     H16309   4.537  11.811   0.091 -0.0383 -0.6220 -2.7295
  124MOL0     H16310   4.418  11.882   0.197 -1.9421  0.5010 -1.0204
  124MOL0     H16311   4.446  11.938  -0.085  0.0005 -1.8357 -0.8982
  124MOL0     H16312   4.335  11.805  -0.088  2.2982  0.9233 -2.7975
  124MOL0     H16313   4.290  12.054   0.085 -1.7620 -0.5695  1.6176
  124MOL0     H16314   4.176  11.913   0.048  0.0138 -1.0589 -0.4438
  124MOL0     H16315   4.095  12.063  -0.099  0.1290  2.6363 -5.2833
  124MOL0     H16316   4.217  11.993  -0.203 -1.4185  1.2770 -1.7877
  124MOL0     H16317   4.263  12.254  -0.053  1.4851 -0.0607  0.4622
  124MOL0     H16318   4.369  12.178  -0.158 -0.8497  3.3178 -2.2478
  124MOL0     H16319   4.107  12.249  -0.268  0.7687  0.2711  0.4279
  124MOL0     H16320   4.250  12.190  -0.349 -1.0051 -1.0367  0.9754
  124MOL0     H16321   4.113  12.487  -0.127  1.9969 -2.0892  1.5346
  124MOL0     H16322   4.257  12.809  -0.302 -0.8654 -0.0067 -0.2961
  124MOL0     H16323   4.265  12.785  -0.128  0.0791  0.4530 -0.1927
  124MOL0     H16324   4.046  12.864  -0.149  1.4486 -1.5857  2.4868
  124MOL0     H16325   4.021  12.685  -0.168  2.7839 -2.2829 -1.1535
  124MOL0     H16326   4.038  12.867  -0.408 -0.8630 -0.0601 -0.5476
  124MOL0     H16327   4.038  12.694  -0.410  2.7156  2.2672 -1.0143
  124MOL0     H16328   3.808  12.868  -0.324 -3.9731 -1.6681 -0.8835
  124MOL0     H16329   3.807  12.699  -0.328  0.6384  2.1882  2.1290
  124MOL0     H16330   3.822  12.903  -0.720 -1.3671  0.3562 -3.1738
  124MOL0     H16331   3.631  13.044  -0.801 -0.7865 -1.8875 -1.2072
  124MOL0     H16332   3.120  12.902  -0.896 -1.6307 -0.7772 -0.9866
  124MOL0     H16333   2.957  13.035  -1.029  0.6632  0.9658 -0.4093
  124MOL0     H16334   2.716  13.128  -1.026  4.5470 -3.2309 -1.6433
  124MOL0     H16335   2.845  13.210  -1.121 -0.4495  1.5045 -0.0196
  124MOL0     H16336   2.635  13.272  -1.193  0.3502  0.2359 -0.9152
  124MOL0     H16337   2.732  13.411  -1.141  1.8938 -2.9244 -2.2475
  124MOL0     H16338   2.523  13.468  -1.060 -0.4897 -0.9860 -0.0923
  124MOL0     H16339   2.611  13.407  -0.918  0.5273  1.6438 -1.2775
  124MOL0     H16340   2.422  13.207  -1.076 -2.2523 -0.9310  1.3068
  124MOL0     H16341   2.498  13.192  -0.920  0.9309  3.9390  4.1648
  124MOL0     H16342   2.375  13.357  -0.811 -0.8878 -0.5200 -0.5671
  124MOL0     H16343   2.273  13.235  -0.892 -1.1402 -0.4124 -1.6623
  124MOL0     H16344   2.225  13.361  -1.074  0.8027 -0.9492  0.0067
  124MOL0     H16345   2.315  13.504  -0.982  1.2499 -0.6206 -0.8747
  124MOL0     H16346   2.141  13.436  -0.800 -0.5865 -0.3136 -0.8788
  124MOL0     H16347   2.087  13.552  -0.923 -2.2578  0.0004 -1.2269
  124MOL0     H16348   1.920  13.406  -0.873  2.8388  2.1995  0.7728
  124MOL0     H16349   2.005  13.263  -0.927  0.7607  0.3700  1.7579
  124MOL0     H16350   2.959  13.334  -0.724 -4.0627 -0.2321 -0.7851
  124MOL0     H16351   3.147  13.203  -0.614 -0.9152 -0.3423  0.8088
  124MOL0     H16352   3.391  12.888  -0.462  0.9027 -1.5493  0.0490
  124MOL0     H16353   3.600  12.777  -0.377  0.5829  0.2608 -0.5242
  124MOL0     H16354   4.549  11.416   0.427 -2.5899 -1.5028 -0.1309
  124MOL0     H16355   4.584  11.317   0.646 -2.1784 -2.2828 -0.1737
  124MOL0     H16356   4.340  11.078   1.029 -0.9575  0.5023  0.3045
  124MOL0     H16357   4.353  11.019   1.260 -1.6022  1.4166  0.0822
  124MOL0     H16358   4.356  11.004   1.461  0.7826  0.7887 -1.9464
  124MOL0     H16359   4.297  11.161   1.492 -0.6582 -0.4554 -1.8862
  124MOL0     H16360   4.354  11.004   1.692  0.3146  0.0061  0.1255
  124MOL0     H16361   4.525  11.057   1.673  0.3684  2.6535  0.2482
  124MOL0     H16362   4.301  11.255   1.724 -0.6056  0.2223  0.4064
  124MOL0     H16363   4.466  11.289   1.664  0.7044 -1.7455 -0.9879
  124MOL0     H16364   4.560  11.206   1.862  0.8375  0.1921 -0.8445
  124MOL0     H16365   4.428  11.307   1.921 -0.7078 -0.0326 -1.0081
  124MOL0     H16366   4.304  10.918   2.054 -1.5743  1.5937 -1.1129
  124MOL0     H16367   4.585  11.363   1.351 -2.1511  2.6898 -0.2919
  124MOL0     H16368   4.577  11.444   1.132  1.3647 -0.3554  2.4325
  125MOL0     O16369   4.264   1.201   5.938  0.7829 -0.0127  0.1239
  125MOL0     C16370   4.307   1.209   5.823 -0.0384 -0.1087 -0.3484
  125MOL0     O16371   4.432   1.230   5.785  0.7184 -0.4278  0.3332
  125MOL0     C16372   4.494   1.324   5.865 -0.8506  0.8259 -0.0282
  125MOL0     C16373   4.490   1.462   5.849 -0.1885 -0.4510  0.4077
  125MOL0     C16374   4.546   1.560   5.925 -0.1519  0.1662 -0.0070
  125MOL0     C16375   4.623   1.510   6.034  0.0352 -0.7734 -0.6316
  125MOL0     O16376   4.699   1.580   6.121 -0.0241 -0.0150  0.8576
  125MOL0     C16377   4.776   1.689   6.073  0.6590  0.1876  0.2944
  125MOL0     C16378   4.903   1.645   5.998  0.6222  0.3506 -0.2745
  125MOL0     C16379   4.994   1.584   6.100  0.4303  0.6965  0.4669
  125MOL0     C16380   5.140   1.582   6.052 -0.5712  0.2207 -0.1715
  125MOL0     C16381   5.222   1.506   6.153 -0.6431  0.7891 -0.5952
  125MOL0     C16382   5.375   1.524   6.126  0.2721 -0.3300 -0.7615
  125MOL0     C16383   5.454   1.443   6.235  0.5961  0.1145 -0.1661
  125MOL0     C16384   5.603   1.455   6.225  0.3491 -0.8687 -0.3817
  125MOL0     N16385   5.655   1.421   6.360  0.4405  0.8465  0.6295
  125MOL0     C16386   5.637   1.300   6.418 -0.1720  0.3621 -0.1373
  125MOL0     C16387   5.726   1.293   6.519 -0.3339  0.4027  0.3393
  125MOL0     C16388   5.751   1.173   6.602 -0.2252 -0.1654  0.4135
  125MOL0     C16389   5.825   1.205   6.737 -0.2145 -0.2307 -0.4388
  125MOL0     C16390   5.721   1.276   6.831 -0.0045  0.5217 -0.1160
  125MOL0     C16391   5.793   1.366   6.927  0.1080  0.3607 -0.5477
  125MOL0     O16392   5.881   1.297   7.022  0.4787  0.6884  0.2894
  125MOL0     C16393   6.013   1.284   7.017 -0.3852  0.2791  0.1826
  125MOL0     C16394   6.090   1.348   6.927 -0.6835 -0.5145  0.6162
  125MOL0     C16395   6.229   1.347   6.925 -1.2796 -1.1673  0.4598
  125MOL0     C16396   6.298   1.262   7.016 -0.0425 -0.1740  0.6917
  125MOL0     C16397   6.448   1.242   7.009  0.2591 -0.3329  0.3238
  125MOL0     O16398   6.512   1.323   6.922 -0.4703 -0.0411 -0.0751
  125MOL0     C16399   6.650   1.321   6.899  0.0931  0.0230 -0.1588
  125MOL0     C16400   6.715   1.203   6.864 -0.2504 -0.4604  0.4639
  125MOL0     C16401   6.846   1.209   6.822  0.1034 -0.3385  0.1121
  125MOL0     C16402   6.918   1.326   6.839 -0.2763  0.3700 -0.6518
  125MOL0     O16403   7.052   1.300   6.805 -0.1094 -0.3317 -0.7510
  125MOL0     C16404   7.133   1.412   6.778  0.9626  0.5137  0.2210
  125MOL0     C16405   7.086   1.494   6.659  1.0322  0.4828 -0.2435
  125MOL0     C16406   7.207   1.550   6.576  0.5725  0.0249 -0.0407
  125MOL0     C16407   7.296   1.449   6.503  0.4733  0.2592 -0.0306
  125MOL0     C16408   7.395   1.533   6.414  0.6694 -0.3586 -0.5998
  125MOL0     C16409   7.500   1.437   6.366 -0.1833 -0.3697  0.4043
  125MOL0     C16410   7.632   1.506   6.333 -0.6163 -0.7553  1.2178
  125MOL0     C16411   7.737   1.403   6.302 -0.2717  0.4135 -0.9608
  125MOL0    Cl16412   7.893   1.481   6.246  0.4160 -0.1388 -0.5610
  125MOL0     C16413   6.856   1.441   6.895 -0.1755 -0.0219 -0.8675
  125MOL0     C16414   6.716   1.437   6.924 -0.3128 -0.2758  0.6867
  125MOL0     O16415   6.499   1.165   7.088  0.6347 -0.3612  0.3134
  125MOL0     C16416   6.222   1.192   7.111 -0.6455  1.6182 -1.0679
  125MOL0     C16417   6.082   1.206   7.108 -0.9684 -0.1991 -0.0543
  125MOL0     N16418   5.787   1.419   6.533  0.8359  0.7105 -0.4324
  125MOL0     N16419   5.748   1.491   6.431 -0.0378 -0.2288  1.0178
  125MOL0     C16420   4.632   1.371   6.060 -0.4316 -0.4245 -0.3988
  125MOL0     C16421   4.563   1.281   5.977 -0.2706 -0.1431  0.1732
  125MOL0     C16422   4.222   1.171   5.716  0.2342  0.0667 -0.3833
  125MOL0     C16423   4.082   1.174   5.726  0.5542 -0.0725 -0.4959
  125MOL0     C16424   4.002   1.124   5.627 -0.6138  0.8004  0.1948
  125MOL0     C16425   4.053   1.082   5.499  0.5425  0.7908  0.0897
  125MOL0     O16426   3.976   1.038   5.394 -1.3309 -0.6466 -0.4898
  125MOL0     C16427   3.845   0.996   5.424 -0.4694  0.0988 -0.3040
  125MOL0     C16428   3.782   0.957   5.292  0.1970  0.5502 -0.3868
  125MOL0     C16429   3.844   0.828   5.228  0.7624 -0.8742  0.7089
  125MOL0     C16430   3.798   0.797   5.090  0.6294 -0.1574 -0.5861
  125MOL0     C16431   3.894   0.698   5.039 -0.8797  0.4897 -0.3812
  125MOL0     C16432   3.964   0.608   4.999 -0.0213  0.3478  0.6331
  125MOL0     C16433   4.197   1.070   5.490 -0.5770 -0.4896 -0.9672
  125MOL0     C16434   4.282   1.116   5.596  0.3696 -0.2085 -0.3716
  125MOL0     H16435   4.429   1.504   5.770  3.3278  0.0199 -2.3053
  125MOL0     H16436   4.528   1.665   5.905  3.5099  0.6471 -1.7163
  125MOL0     H16437   4.805   1.760   6.151  3.4175  0.0779 -0.5225
  125MOL0     H16438   4.721   1.762   6.013  2.2981  2.2198  1.1227
  125MOL0     H16439   4.946   1.730   5.946 -2.1366  0.5230 -2.5354
  125MOL0     H16440   4.860   1.583   5.919 -1.0164 -1.2244  1.7184
  125MOL0     H16441   4.953   1.483   6.115  0.0194  0.6963 -0.5885
  125MOL0     H16442   4.982   1.625   6.201 -2.1221 -3.3992  2.1049
  125MOL0     H16443   5.148   1.525   5.959 -2.3355 -0.8881  0.3174
  125MOL0     H16444   5.175   1.686   6.047  1.6741 -0.4731 -0.1689
  125MOL0     H16445   5.197   1.399   6.152 -1.2955  0.8850  1.5234
  125MOL0     H16446   5.185   1.533   6.252  1.3895  0.8021  0.1987
  125MOL0     H16447   5.402   1.627   6.151 -2.6421 -0.1679  2.4984
  125MOL0     H16448   5.407   1.504   6.023  0.3851  5.0153 -2.0871
  125MOL0     H16449   5.429   1.478   6.335  0.0404 -0.5925 -0.0536
  125MOL0     H16450   5.434   1.336   6.236 -1.3682  0.4381  1.3119
  125MOL0     H16451   5.634   1.554   6.190  1.2713 -2.1357 -3.5340
  125MOL0     H16452   5.642   1.395   6.143 -0.3531 -0.6288 -0.9044
  125MOL0     H16453   5.589   1.213   6.374  3.7077 -1.8892 -0.3841
  125MOL0     H16454   5.817   1.112   6.540  1.0892  1.4650  0.1142
  125MOL0     H16455   5.660   1.115   6.616  1.6619 -3.6545 -0.6287
  125MOL0     H16456   5.918   1.259   6.718 -1.5120  2.2261 -0.2145
  125MOL0     H16457   5.847   1.112   6.789  0.0908 -0.6156 -1.2380
  125MOL0     H16458   5.648   1.325   6.766 -2.7096 -2.4907  0.3837
  125MOL0     H16459   5.655   1.204   6.879 -1.5910  0.5312 -2.1689
  125MOL0     H16460   5.717   1.416   6.989 -1.3131 -0.3561 -1.6523
  125MOL0     H16461   5.842   1.445   6.869 -1.6652  2.2873  0.4176
  125MOL0     H16462   6.034   1.418   6.866 -1.5891 -1.5775  0.1898
  125MOL0     H16463   6.281   1.412   6.856 -0.5618 -0.3180  1.7663
  125MOL0     H16464   6.662   1.109   6.846  1.2362 -0.7173 -3.7464
  125MOL0     H16465   6.906   1.126   6.784  1.2692  0.1496  0.8331
  125MOL0     H16466   7.235   1.377   6.758  0.2562 -1.3945 -0.2168
  125MOL0     H16467   7.126   1.477   6.866 -0.0334  0.5094  0.1595
  125MOL0     H16468   7.015   1.565   6.702 -0.2560 -1.8502  1.7082
  125MOL0     H16469   7.034   1.428   6.589  2.4795 -1.8230  0.7211
  125MOL0     H16470   7.267   1.618   6.636  0.2844 -2.0382  2.7653
  125MOL0     H16471   7.158   1.610   6.499  0.1687 -1.3308 -0.8804
  125MOL0     H16472   7.352   1.396   6.580 -1.2869  0.8127  1.7081
  125MOL0     H16473   7.245   1.368   6.450  0.0082  1.7868 -2.0424
  125MOL0     H16474   7.446   1.604   6.479  0.5587 -1.5111  0.7697
  125MOL0     H16475   7.343   1.589   6.335 -1.1850  1.7023  1.8791
  125MOL0     H16476   7.465   1.378   6.281  0.2992  0.4761 -0.3968
  125MOL0     H16477   7.521   1.364   6.444 -0.7737 -2.1497 -1.0502
  125MOL0     H16478   7.622   1.573   6.247  0.9849  2.3341  3.2384
  125MOL0     H16479   7.667   1.563   6.420 -1.6155  0.9013  0.5828
  125MOL0     H16480   7.700   1.347   6.216  1.5027  1.5170 -2.5331
  125MOL0     H16481   7.749   1.336   6.387  3.8676  2.5990  0.4616
  125MOL0     H16482   6.904   1.537   6.913 -1.0763  0.0357  1.4979
  125MOL0     H16483   6.673   1.525   6.969 -0.5891  0.7492 -1.4858
  125MOL0     H16484   6.272   1.126   7.180 -1.2962  0.0660 -2.0181
  125MOL0     H16485   6.025   1.152   7.183  0.1846 -2.0072 -0.4257
  125MOL0     H16486   4.680   1.356   6.156 -0.4383  1.6178 -0.0207
  125MOL0     H16487   4.564   1.177   6.005 -2.2524  0.6021  3.5102
  125MOL0     H16488   4.041   1.204   5.822  0.1735  0.5560 -0.8490
  125MOL0     H16489   3.896   1.139   5.644 -0.2671  1.3396  2.1624
  125MOL0     H16490   3.787   1.079   5.467 -0.0326 -0.0411  0.5612
  125MOL0     H16491   3.844   0.919   5.502  0.4556 -0.9861 -1.3269
  125MOL0     H16492   3.674   0.945   5.307  0.2535  0.9164  0.4325
  125MOL0     H16493   3.793   1.041   5.223 -0.7721  2.5117  1.6899
  125MOL0     H16494   3.816   0.742   5.289 -2.0132  0.3909  1.4001
  125MOL0     H16495   3.949   0.856   5.237  0.3356  1.0514  0.2493
  125MOL0     H16496   3.698   0.753   5.103 -0.2593  1.9981  0.2894
  125MOL0     H16497   3.796   0.888   5.030  0.0590  0.6364  0.5903
  125MOL0     H16498   4.035   0.536   4.963  1.5672  2.3281 -0.4254
  125MOL0     H16499   4.232   1.031   5.395 -0.1607  1.0811 -1.4869
  125MOL0     H16500   4.389   1.100   5.585  0.3440 -0.8354  0.2634
  126MOL0     O16501  10.085   6.831   1.373  0.1665 -0.2195  0.8986
  126MOL0     C16502  10.134   6.728   1.330  1.2618 -0.4343  1.1997
  126MOL0     O16503  10.264   6.698   1.305 -0.1382  0.7553  0.2110
  126MOL0     C16504  10.365   6.792   1.337 -0.2030  1.1126  0.5799
  126MOL0     C16505  10.430   6.793   1.461  0.7881  0.4879  0.7242
  126MOL0     C16506  10.531   6.878   1.495 -0.0100 -0.2473 -1.0309
  126MOL0     C16507  10.573   6.968   1.399  0.6405 -0.7983 -0.5829
  126MOL0     O16508  10.700   7.032   1.420  0.1059 -0.3167  0.3345
  126MOL0     C16509  10.744   7.139   1.333 -0.5661 -0.3367 -0.2576
  126MOL0     C16510  10.793   7.254   1.418  0.4772 -0.5400 -0.2937
  126MOL0     C16511  10.863   7.358   1.340 -0.2926 -0.2311  0.2688
  126MOL0     C16512  10.941   7.454   1.427  0.0970 -0.7490  0.0195
  126MOL0     C16513  11.004   7.572   1.348  0.1912  0.4696  0.3527
  126MOL0     C16514  11.145   7.547   1.320 -0.8092 -0.6071 -0.3482
  126MOL0     C16515  11.178   7.439   1.216 -1.2355  0.4231  0.0433
  126MOL0     C16516  11.326   7.450   1.174  0.0556 -0.1807  1.1058
  126MOL0     N16517  11.361   7.351   1.073  0.1582  0.7826 -0.5232
  126MOL0     C16518  11.347   7.214   1.093  0.2262 -0.0708  0.4551
  126MOL0     C16519  11.403   7.166   0.979 -0.8583  0.4442  0.3236
  126MOL0     C16520  11.428   7.014   0.964 -0.1287 -0.1362  0.7148
  126MOL0     C16521  11.355   6.967   0.832 -0.2030 -0.8112 -0.4363
  126MOL0     C16522  11.348   6.814   0.855  0.0206  0.7587  0.0214
  126MOL0     C16523  11.239   6.766   0.954  0.5617 -0.1184 -0.3811
  126MOL0     O16524  11.115   6.818   0.902 -0.3663 -0.5340 -0.1073
  126MOL0     C16525  11.018   6.730   0.872  0.1690 -0.2968  0.6905
  126MOL0     C16526  11.041   6.606   0.811  0.9488 -0.0218  0.1545
  126MOL0     C16527  10.934   6.510   0.797 -0.2181 -0.4543  0.4557
  126MOL0     C16528  10.803   6.560   0.829  0.5249  0.3634  0.2037
  126MOL0     C16529  10.680   6.467   0.808  0.0629  0.3506 -0.6131
  126MOL0     O16530  10.553   6.510   0.848 -0.1416  0.6589  0.5210
  126MOL0     C16531  10.454   6.412   0.887  0.2801 -0.3756 -0.4411
  126MOL0     C16532  10.324   6.453   0.877 -0.0011 -0.2016  0.1324
  126MOL0     C16533  10.215   6.367   0.900 -0.4894  0.3676  0.6780
  126MOL0     C16534  10.245   6.235   0.945 -0.6278 -0.2522 -0.8267
  126MOL0     O16535  10.148   6.148   0.962  0.7243 -0.2215  0.8203
  126MOL0     C16536  10.119   6.074   0.837 -0.6035  0.8053 -0.5033
  126MOL0     C16537   9.969   6.057   0.817 -0.0817 -0.6990  0.6321
  126MOL0     C16538   9.915   6.179   0.736 -0.6600  0.1700  0.0323
  126MOL0     C16539   9.760   6.176   0.734 -0.7888  0.1465 -0.1585
  126MOL0     C16540   9.701   6.061   0.656  0.0105 -0.6711 -0.4664
  126MOL0     C16541   9.544   6.048   0.654 -0.4684  0.2969  0.8129
  126MOL0     C16542   9.498   5.927   0.557 -0.6483  0.5783 -0.2483
  126MOL0     C16543   9.343   5.933   0.536 -0.2696  0.2441 -0.0773
  126MOL0    Cl16544   9.253   5.827   0.652 -0.2137  0.2287  0.1203
  126MOL0     C16545  10.378   6.197   0.965  0.0784 -0.3707 -0.2536
  126MOL0     C16546  10.481   6.284   0.935 -0.0678 -0.1675  0.2076
  126MOL0     O16547  10.698   6.364   0.746 -0.5578 -0.2899  0.4893
  126MOL0     C16548  10.782   6.680   0.898  0.7502  0.0705  1.2345
  126MOL0     C16549  10.891   6.767   0.922  1.2053 -0.2951 -0.1722
  126MOL0     N16550  11.439   7.266   0.898 -0.0350 -0.7339  0.0363
  126MOL0     N16551  11.419   7.382   0.957 -0.2744  0.4856  0.0742
  126MOL0     C16552  10.504   6.971   1.278 -0.2829 -0.3935  0.3542
  126MOL0     C16553  10.393   6.894   1.245  0.8547  0.0585  0.6914
  126MOL0     C16554  10.027   6.627   1.295  0.2333  0.8035 -0.6222
  126MOL0     C16555   9.888   6.646   1.322 -0.2461  0.5612 -0.8488
  126MOL0     C16556   9.795   6.551   1.275  0.6014 -0.2017  0.0386
  126MOL0     C16557   9.828   6.445   1.196 -0.2727  0.5820 -0.0332
  126MOL0     O16558   9.746   6.348   1.164 -0.1201 -0.7240  0.3840
  126MOL0     C16559   9.615   6.380   1.132  0.7877  0.3283 -0.2367
  126MOL0     C16560   9.599   6.471   1.012  1.2109 -0.7448 -0.2939
  126MOL0     C16561   9.452   6.498   0.974  1.3031  0.0262  0.3860
  126MOL0     C16562   9.424   6.649   0.978  0.8210 -1.1795 -0.0907
  126MOL0     C16563   9.415   6.704   1.115 -0.5961 -0.4131  0.5916
  126MOL0     C16564   9.398   6.735   1.233  0.6857  0.7184 -0.7955
  126MOL0     C16565   9.962   6.436   1.161  0.1216 -0.0471 -1.6487
  126MOL0     C16566  10.063   6.525   1.209  0.5284  0.0522 -0.7102
  126MOL0     H16567  10.407   6.704   1.518 -0.0838 -2.8253 -4.1908
  126MOL0     H16568  10.578   6.856   1.590  0.2363 -0.5509 -1.2185
  126MOL0     H16569  10.673   7.187   1.265 -0.7915  1.0698  0.9409
  126MOL0     H16570  10.823   7.104   1.265 -0.3620  1.9586 -1.3049
  126MOL0     H16571  10.872   7.213   1.481  0.2452  0.2668  0.5510
  126MOL0     H16572  10.719   7.305   1.481  1.0970 -0.3690  0.3101
  126MOL0     H16573  10.804   7.426   1.277  2.0329  2.0498  0.3732
  126MOL0     H16574  10.926   7.308   1.266  0.9373 -0.0169  1.1432
  126MOL0     H16575  10.875   7.504   1.498 -1.0576 -0.1904 -1.3860
  126MOL0     H16576  11.017   7.402   1.485  0.5904 -2.0683 -1.7221
  126MOL0     H16577  10.986   7.665   1.403 -0.7196  0.4419  0.1292
  126MOL0     H16578  10.955   7.584   1.251  2.7002  1.6044 -0.8561
  126MOL0     H16579  11.199   7.532   1.413 -2.9245  2.4987  1.5629
  126MOL0     H16580  11.190   7.638   1.278 -2.7796  0.1550 -0.9121
  126MOL0     H16581  11.154   7.340   1.255 -0.5877  0.3360  0.2302
  126MOL0     H16582  11.116   7.438   1.125  1.7866 -2.6582 -2.2500
  126MOL0     H16583  11.392   7.431   1.259  3.2434 -0.9043 -1.3269
  126MOL0     H16584  11.349   7.549   1.134  1.5900 -1.0490 -0.3112
  126MOL0     H16585  11.298   7.159   1.174  0.2542  0.8094  1.0778
  126MOL0     H16586  11.392   6.958   1.051 -1.8786 -0.5814 -0.2421
  126MOL0     H16587  11.535   6.992   0.960 -0.3327 -1.3140  1.2712
  126MOL0     H16588  11.404   7.002   0.741  2.7040  1.8098  1.8947
  126MOL0     H16589  11.254   7.009   0.841  1.1120  2.2404  2.3278
  126MOL0     H16590  11.317   6.766   0.762 -2.0522  1.3816  0.3331
  126MOL0     H16591  11.448   6.774   0.871  0.8724  2.3215 -1.0359
  126MOL0     H16592  11.258   6.803   1.055 -2.1831  0.8140 -0.1257
  126MOL0     H16593  11.237   6.657   0.966  2.0036 -0.1903 -0.6145
  126MOL0     H16594  11.141   6.581   0.777  0.4012 -1.5873 -0.3957
  126MOL0     H16595  10.938   6.413   0.749 -0.6903 -1.1509  1.7561
  126MOL0     H16596  10.304   6.549   0.832  0.9831 -0.8436 -1.7800
  126MOL0     H16597  10.115   6.407   0.887  0.4236  2.0827 -1.7549
  126MOL0     H16598  10.162   5.975   0.858 -0.1794  1.3590  1.3960
  126MOL0     H16599  10.169   6.109   0.745 -0.3450 -0.3549 -0.8270
  126MOL0     H16600   9.941   6.054   0.923  2.8378  2.0115  1.6825
  126MOL0     H16601   9.939   5.964   0.768 -0.1581 -1.3029  1.7742
  126MOL0     H16602   9.961   6.184   0.637 -1.1167  4.6960 -0.1520
  126MOL0     H16603   9.956   6.267   0.786  1.2663 -0.3628 -0.5185
  126MOL0     H16604   9.718   6.179   0.835  0.1424  1.6068  0.2222
  126MOL0     H16605   9.735   6.273   0.688 -0.7651  1.1542  1.8472
  126MOL0     H16606   9.731   5.966   0.700 -0.4130 -0.8156 -0.4894
  126MOL0     H16607   9.726   6.055   0.549 -0.2216  0.8925 -0.6350
  126MOL0     H16608   9.500   6.141   0.616 -1.2308 -0.3322  0.1029
  126MOL0     H16609   9.523   6.036   0.760  1.0889  4.1753  1.7154
  126MOL0     H16610   9.540   5.947   0.457 -2.9179  0.0134 -1.3764
  126MOL0     H16611   9.531   5.827   0.583  2.9371  1.0609 -2.2557
  126MOL0     H16612   9.317   5.886   0.441  0.1165 -2.5568  1.0931
  126MOL0     H16613   9.295   6.031   0.527 -0.9019 -0.1445 -1.1660
  126MOL0     H16614  10.409   6.103   1.009  0.2903  0.7611  2.1712
  126MOL0     H16615  10.584   6.258   0.957  0.7780  2.6315 -0.0811
  126MOL0     H16616  10.681   6.710   0.925  0.1826  3.3518 -3.3387
  126MOL0     H16617  10.877   6.860   0.977 -3.0747 -1.2276  0.6839
  126MOL0     H16618  10.541   7.038   1.202 -3.8640  1.4808  0.0678
  126MOL0     H16619  10.348   6.896   1.146 -0.4145 -1.4250  1.2021
  126MOL0     H16620   9.854   6.725   1.389 -0.7493 -0.7281  0.4662
  126MOL0     H16621   9.690   6.551   1.305 -0.2904 -2.0722 -2.6569
  126MOL0     H16622   9.552   6.400   1.219  0.5489  2.5742 -0.8680
  126MOL0     H16623   9.566   6.289   1.097  0.7431  0.2974 -0.0957
  126MOL0     H16624   9.648   6.568   1.030  1.1618 -0.9279  0.9022
  126MOL0     H16625   9.653   6.417   0.934  1.1943 -0.6604 -0.3632
  126MOL0     H16626   9.386   6.444   1.043  0.5265  2.5784  1.7601
  126MOL0     H16627   9.437   6.465   0.871  2.8476  1.8150 -0.4553
  126MOL0     H16628   9.492   6.698   0.907  0.3370  1.7886  1.3627
  126MOL0     H16629   9.325   6.681   0.944  0.2208  0.2709  2.7382
  126MOL0     H16630   9.395   6.764   1.336  1.5709  1.1576 -0.8870
  126MOL0     H16631   9.995   6.354   1.098  2.0678 -0.8978  0.3513
  126MOL0     H16632  10.165   6.511   1.173  0.7017  0.3175 -0.3354
  127MOL0     O16633   7.137   9.107   3.154 -0.0840  1.0260  0.8298
  127MOL0     C16634   7.041   9.145   3.082 -0.5250 -0.2295 -0.4508
  127MOL0     O16635   7.035   9.260   3.002 -0.2353 -0.2906 -0.5476
  127MOL0     C16636   7.143   9.342   2.990 -0.1936  0.2471 -0.3955
  127MOL0     C16637   7.161   9.405   2.875  0.6316 -0.4676 -0.3616
  127MOL0     C16638   7.268   9.501   2.852  0.4594  0.0913 -0.6018
  127MOL0     C16639   7.346   9.539   2.955 -0.7371 -0.0244 -0.0456
  127MOL0     O16640   7.435   9.639   2.949  0.0618  0.0124 -0.9642
  127MOL0     C16641   7.412   9.757   2.871  0.3510 -0.4471  0.1993
  127MOL0     C16642   7.323   9.854   2.962 -0.3740 -0.6812  0.4415
  127MOL0     C16643   7.381   9.905   3.092  0.2982 -0.1166 -0.3540
  127MOL0     C16644   7.277   9.944   3.185 -0.1884 -0.2131 -0.3820
  127MOL0     C16645   7.273  10.093   3.202 -0.2458  0.0389 -0.1610
  127MOL0     C16646   7.159  10.143   3.275  0.5876 -0.8727 -0.2971
  127MOL0     C16647   7.169  10.288   3.327 -0.6383 -0.1243  0.1232
  127MOL0     C16648   7.046  10.316   3.398  0.0100  0.3376  0.0178
  127MOL0     N16649   7.048  10.454   3.446  0.4758 -0.9285  0.0852
  127MOL0     C16650   7.019  10.573   3.382 -0.2707 -0.3417  0.8849
  127MOL0     C16651   7.000  10.664   3.470 -0.7451  0.2846  0.0391
  127MOL0     C16652   6.971  10.808   3.434  0.8871  0.1833 -0.0508
  127MOL0     C16653   7.091  10.877   3.359 -0.3373 -0.7174 -0.5132
  127MOL0     C16654   7.050  10.973   3.242  0.4799 -0.1077  0.5103
  127MOL0     C16655   7.175  11.038   3.180 -0.1896 -0.5104 -0.4275
  127MOL0     O16656   7.139  11.114   3.055 -0.8079 -0.7452 -0.0999
  127MOL0     C16657   7.242  11.196   2.998  0.5004  0.5062 -0.7059
  127MOL0     C16658   7.202  11.284   2.894 -0.1287  0.1209  0.4693
  127MOL0     C16659   7.294  11.364   2.826  0.2228 -0.2378 -0.2809
  127MOL0     C16660   7.427  11.359   2.858 -0.8261  0.3797  0.4385
  127MOL0     C16661   7.528  11.451   2.798 -0.0163  0.7248  0.2813
  127MOL0     O16662   7.655  11.458   2.853  0.5709  0.1576 -0.4104
  127MOL0     C16663   7.744  11.535   2.784  0.3269 -0.9039 -0.2291
  127MOL0     C16664   7.832  11.479   2.692  0.0026  0.0428 -0.0153
  127MOL0     C16665   7.925  11.547   2.608 -0.9066 -1.0744 -0.5040
  127MOL0     C16666   7.937  11.687   2.624  0.0246 -0.3453 -1.1087
  127MOL0     O16667   8.030  11.770   2.572 -0.0529 -0.4855  0.3938
  127MOL0     C16668   8.149  11.718   2.513  0.3463  0.4348 -0.4236
  127MOL0     C16669   8.255  11.677   2.623  0.4105  1.1223 -0.0469
  127MOL0     C16670   8.280  11.779   2.738 -0.1229  0.3133  0.5228
  127MOL0     C16671   8.399  11.753   2.827  0.0405 -0.2376 -0.4817
  127MOL0     C16672   8.381  11.849   2.950 -0.7270  1.4013  0.1236
  127MOL0     C16673   8.492  11.824   3.061 -0.2907 -0.2819 -0.2183
  127MOL0     C16674   8.481  11.941   3.162  0.5329 -0.2923  0.3860
  127MOL0     C16675   8.598  11.964   3.257 -0.0407  0.6343 -0.5203
  127MOL0    Cl16676   8.747  11.991   3.154 -0.2184  0.2273 -0.1314
  127MOL0     C16677   7.838  11.741   2.708  0.0205  1.0303 -1.1468
  127MOL0     C16678   7.743  11.672   2.782 -0.1545 -0.2441  0.1223
  127MOL0     O16679   7.491  11.512   2.697  0.5878  0.6019 -0.8854
  127MOL0     C16680   7.470  11.265   2.956  0.8111 -1.2134 -0.6134
  127MOL0     C16681   7.377  11.190   3.034 -0.4482 -0.0246  0.4489
  127MOL0     N16682   7.014  10.611   3.593  0.0637  0.0050  0.5384
  127MOL0     N16683   7.044  10.481   3.581  0.2438  0.1002  0.9716
  127MOL0     C16684   7.337   9.466   3.079 -0.5366  0.0059  0.0984
  127MOL0     C16685   7.232   9.383   3.097  0.3986  0.3360  0.9740
  127MOL0     C16686   6.912   9.064   3.076 -1.1567 -0.2505 -0.1862
  127MOL0     C16687   6.795   9.138   3.070  0.0349 -0.3394 -0.7134
  127MOL0     C16688   6.673   9.079   3.090 -0.4328  0.3816 -0.5128
  127MOL0     C16689   6.673   8.938   3.125  0.0316  0.4870 -0.6459
  127MOL0     O16690   6.566   8.865   3.154 -0.2256  0.2741 -0.2531
  127MOL0     C16691   6.430   8.925   3.147 -0.3931  0.1332 -0.0534
  127MOL0     C16692   6.394   8.925   2.992  0.5492  0.2633  0.7790
  127MOL0     C16693   6.341   8.785   2.945  0.0791  0.8003  0.4359
  127MOL0     C16694   6.463   8.688   2.918 -0.1671 -0.9027 -1.1047
  127MOL0     C16695   6.425   8.554   2.873  0.2395 -0.2292 -0.5579
  127MOL0     C16696   6.420   8.435   2.838 -0.1230 -0.9630 -1.1214
  127MOL0     C16697   6.787   8.862   3.127 -0.4629 -0.1698  0.5127
  127MOL0     C16698   6.906   8.931   3.109 -0.2878 -0.2219  0.3170
  127MOL0     H16699   7.084   9.391   2.800  3.1067 -2.6743 -2.7537
  127MOL0     H16700   7.257   9.546   2.754 -1.5086  1.1190  0.0328
  127MOL0     H16701   7.369   9.735   2.773  1.5033  0.0751 -0.4388
  127MOL0     H16702   7.507   9.802   2.842 -0.1775  0.0822 -0.7614
  127MOL0     H16703   7.230   9.798   2.979 -0.3358 -0.2095  2.5225
  127MOL0     H16704   7.316   9.948   2.906  3.3266  0.2711  1.3297
  127MOL0     H16705   7.445   9.988   3.061 -0.8869  0.0144 -2.7358
  127MOL0     H16706   7.438   9.824   3.138  1.7048  1.0922  0.0861
  127MOL0     H16707   7.180   9.922   3.139 -1.4435  1.2621  1.4319
  127MOL0     H16708   7.282   9.887   3.278  0.3421  3.7439  2.2832
  127MOL0     H16709   7.277  10.149   3.108  1.9876  2.8785  1.4446
  127MOL0     H16710   7.358  10.120   3.265 -0.0722  0.0847 -0.4149
  127MOL0     H16711   7.137  10.085   3.364  2.9707  0.4203  1.2434
  127MOL0     H16712   7.071  10.141   3.210 -1.2301  1.6795  1.8390
  127MOL0     H16713   7.247  10.310   3.401  0.4291 -2.2990 -0.2707
  127MOL0     H16714   7.192  10.361   3.249  0.1982  0.4416  0.8801
  127MOL0     H16715   7.037  10.251   3.486  0.9183  2.2228  1.5917
  127MOL0     H16716   6.961  10.314   3.330  1.4439 -0.1399 -1.8518
  127MOL0     H16717   7.013  10.588   3.275  1.4863  0.8615  0.9059
  127MOL0     H16718   6.937  10.867   3.520  0.2232 -0.4702  0.1505
  127MOL0     H16719   6.885  10.804   3.367  1.2877  0.6200 -0.6099
  127MOL0     H16720   7.152  10.799   3.313 -2.3313 -1.8319 -1.3854
  127MOL0     H16721   7.157  10.927   3.431  2.0149 -1.5740 -1.9655
  127MOL0     H16722   6.983  10.935   3.164  1.1333  1.0836 -0.6756
  127MOL0     H16723   6.987  11.048   3.291  1.0273 -0.8004  2.3564
  127MOL0     H16724   7.258  10.968   3.168  0.1459 -0.9832  3.4656
  127MOL0     H16725   7.219  11.104   3.255 -0.2608 -1.7136  0.7102
  127MOL0     H16726   7.100  11.285   2.857  0.2978  0.6269 -0.7142
  127MOL0     H16727   7.263  11.429   2.744 -0.5768 -2.6007 -1.9427
  127MOL0     H16728   7.841  11.371   2.685  0.6752  0.2114 -2.5380
  127MOL0     H16729   7.995  11.510   2.533 -1.0955 -0.2645 -1.0947
  127MOL0     H16730   8.195  11.802   2.459  0.5251  0.5694 -0.0694
  127MOL0     H16731   8.135  11.633   2.446 -0.8262  0.8126 -0.6693
  127MOL0     H16732   8.352  11.648   2.583  1.1273  1.3149  1.4791
  127MOL0     H16733   8.216  11.586   2.670  2.6309  1.0860  1.9022
  127MOL0     H16734   8.188  11.783   2.798  1.1240  0.0576  2.5246
  127MOL0     H16735   8.295  11.885   2.713 -2.0778  0.9456  1.7650
  127MOL0     H16736   8.413  11.651   2.864  0.6308  0.7755  2.3306
  127MOL0     H16737   8.490  11.767   2.768  1.6894 -0.5778  1.8404
  127MOL0     H16738   8.295  11.806   3.003  1.2039 -2.5632  0.3655
  127MOL0     H16739   8.380  11.948   2.902 -1.7911 -0.2084 -3.5493
  127MOL0     H16740   8.592  11.827   3.017  0.0611 -0.1244  0.5651
  127MOL0     H16741   8.474  11.725   3.105  0.5967 -0.4356 -0.1854
  127MOL0     H16742   8.475  12.033   3.102 -0.1777 -0.5277  0.0913
  127MOL0     H16743   8.392  11.915   3.220  1.0887 -0.3001  1.2476
  127MOL0     H16744   8.602  11.877   3.324  3.3540  1.7949  1.0061
  127MOL0     H16745   8.576  12.050   3.320  0.2085  0.5619 -0.3321
  127MOL0     H16746   7.829  11.849   2.711  1.8405  1.1985 -0.8857
  127MOL0     H16747   7.670  11.722   2.844  0.5369 -1.0623  1.6457
  127MOL0     H16748   7.573  11.274   2.989  1.3902 -0.0058 -2.5856
  127MOL0     H16749   7.426  11.145   3.120  2.3402  3.4370  0.9231
  127MOL0     H16750   7.396   9.495   3.165 -2.1864 -0.8277  1.5853
  127MOL0     H16751   7.208   9.345   3.196  3.0968  0.7266  1.8522
  127MOL0     H16752   6.791   9.240   3.034  1.1017  0.6539  1.6951
  127MOL0     H16753   6.586   9.143   3.077 -0.3053  1.1177  1.8730
  127MOL0     H16754   6.411   9.020   3.198 -0.6062  0.1873 -0.2297
  127MOL0     H16755   6.368   8.854   3.203 -2.1971  2.8156  1.5970
  127MOL0     H16756   6.312   8.998   2.986 -0.5615 -0.7104  2.8211
  127MOL0     H16757   6.467   8.968   2.924  0.9535  0.4807  1.3392
  127MOL0     H16758   6.281   8.777   2.853 -2.6521 -2.6991  2.2681
  127MOL0     H16759   6.264   8.755   3.016 -2.2029 -0.0224 -2.1936
  127MOL0     H16760   6.534   8.724   2.843  1.3852 -2.9668 -0.7137
  127MOL0     H16761   6.519   8.665   3.009 -1.0249 -4.2700 -1.2827
  127MOL0     H16762   6.425   8.334   2.805 -1.8923 -0.8515 -1.8741
  127MOL0     H16763   6.771   8.756   3.144 -5.3229  0.0914 -0.8866
  127MOL0     H16764   6.988   8.862   3.121 -1.7348 -3.0651 -3.8160
  128MOL0     O16765   1.217   7.971  10.183 -0.5564 -0.6392  0.3064
  128MOL0     C16766   1.199   8.093  10.203 -0.4019  0.0610 -0.8470
  128MOL0     O16767   1.082   8.158  10.197 -0.0080 -0.1634  0.3352
  128MOL0     C16768   1.012   8.141  10.080 -0.1028  1.0746  0.4705
  128MOL0     C16769   0.959   8.019  10.044  0.6057  0.4409 -0.6894
  128MOL0     C16770   0.866   8.009   9.936 -0.2219  0.9763 -0.4383
  128MOL0     C16771   0.833   8.116   9.861 -0.8027  0.2764 -0.3421
  128MOL0     O16772   0.749   8.093   9.756 -0.2585 -0.0399 -0.7762
  128MOL0     C16773   0.762   8.169   9.634  1.0734 -0.2900  0.4339
  128MOL0     C16774   0.820   8.091   9.517  0.3199  0.2375 -0.6450
  128MOL0     C16775   0.961   8.025   9.533  0.3428  0.8144 -0.5569
  128MOL0     C16776   0.977   7.910   9.439 -1.0798  0.4316 -0.7902
  128MOL0     C16777   1.120   7.851   9.449  0.8419 -0.1980  0.4663
  128MOL0     C16778   1.241   7.936   9.430 -0.0446 -0.4069  0.5084
  128MOL0     C16779   1.237   8.017   9.296 -1.3929  0.2002  0.0871
  128MOL0     C16780   1.265   7.934   9.171 -0.2310  0.1642 -0.9721
  128MOL0     N16781   1.289   8.018   9.059  0.0343 -0.3524 -0.4676
  128MOL0     C16782   1.224   8.133   9.018 -0.2039  0.4905  0.6317
  128MOL0     C16783   1.269   8.158   8.896 -0.0918 -0.6826 -0.4511
  128MOL0     C16784   1.223   8.260   8.803 -0.5506 -0.8443  0.4600
  128MOL0     C16785   1.087   8.225   8.756 -0.9411  0.4856  0.8112
  128MOL0     C16786   1.059   8.312   8.630 -0.1909 -0.2015 -0.1597
  128MOL0     C16787   0.953   8.248   8.551 -0.2681  1.1088 -0.0910
  128MOL0     O16788   0.934   8.309   8.417 -0.3149  0.2343  0.1182
  128MOL0     C16789   0.916   8.235   8.304  0.2624 -0.2303  0.2137
  128MOL0     C16790   0.895   8.301   8.184  0.3833  0.8866  0.1670
  128MOL0     C16791   0.852   8.243   8.060  1.1864 -0.0781  0.5886
  128MOL0     C16792   0.853   8.108   8.047  0.2252  0.0730  0.9084
  128MOL0     C16793   0.807   8.046   7.922  0.2374  1.0873 -0.3092
  128MOL0     O16794   0.741   8.124   7.832  0.2126 -1.3123  0.6043
  128MOL0     C16795   0.712   8.085   7.704 -0.0689  0.8070 -0.0264
  128MOL0     C16796   0.736   7.965   7.629 -0.4439 -0.0930 -0.6843
  128MOL0     C16797   0.695   7.950   7.496  0.3400 -0.0861 -0.0710
  128MOL0     C16798   0.634   8.062   7.432 -0.1372 -0.3528 -0.4169
  128MOL0     O16799   0.583   8.054   7.308 -0.4417 -0.8887  1.0521
  128MOL0     C16800   0.476   7.956   7.288  0.4614  0.3613  0.3766
  128MOL0     C16801   0.343   7.998   7.215 -0.1269  0.6790  0.5137
  128MOL0     C16802   0.383   8.039   7.073 -0.0320 -0.1818 -0.0890
  128MOL0     C16803   0.272   8.049   6.963  0.2626 -0.4049 -0.1147
  128MOL0     C16804   0.316   8.099   6.825 -0.8179  0.3959  0.0110
  128MOL0     C16805   0.428   8.010   6.772  0.2903  0.3122 -0.7631
  128MOL0     C16806   0.496   8.042   6.645  0.0945 -0.1884  0.1764
  128MOL0     C16807   0.609   7.940   6.615  0.5274 -0.4340 -0.3815
  128MOL0    Cl16808   0.540   7.785   6.557 -0.2066  0.0603  0.4205
  128MOL0     C16809   0.609   8.177   7.500 -0.4544  0.0698 -0.9269
  128MOL0     C16810   0.652   8.192   7.633  0.2625  0.2986  0.0619
  128MOL0     O16811   0.852   7.936   7.908  0.2594 -0.0767 -0.4176
  128MOL0     C16812   0.892   8.032   8.160 -0.3896 -0.6261 -0.1458
  128MOL0     C16813   0.919   8.092   8.288 -0.8653  0.1509 -0.2668
  128MOL0     N16814   1.376   8.080   8.873 -0.0906  0.6546  0.0989
  128MOL0     N16815   1.385   7.987   8.967  0.7120 -0.4273  0.0455
  128MOL0     C16816   0.882   8.241   9.899 -0.3804 -0.4719 -0.6845
  128MOL0     C16817   0.970   8.256  10.005  0.0853  0.3998 -0.1538
  128MOL0     C16818   1.325   8.167  10.236 -0.6957 -0.1016 -0.3323
  128MOL0     C16819   1.324   8.308  10.234  0.0655  0.0303  0.2742
  128MOL0     C16820   1.443   8.373  10.270 -0.4328  0.0177  0.8949
  128MOL0     C16821   1.556   8.313  10.307  0.4204 -0.2368  0.7400
  128MOL0     O16822   1.661   8.401  10.343 -0.1742 -0.0740 -0.8369
  128MOL0     C16823   1.796   8.355  10.367  0.1094 -0.3086 -0.3254
  128MOL0     C16824   1.894   8.475  10.363 -0.9847  0.4617  0.6323
  128MOL0     C16825   2.024   8.427  10.402 -0.1811  0.3201 -0.2738
  128MOL0     C16826   2.130   8.533  10.376  0.4530 -0.6704 -0.6463
  128MOL0     C16827   2.265   8.483  10.397  0.2196 -0.4166 -0.3141
  128MOL0     C16828   2.375   8.441  10.429 -0.2599  0.3259  0.2018
  128MOL0     C16829   1.563   8.174  10.317  0.8838  0.1768  0.1868
  128MOL0     C16830   1.440   8.105  10.282 -0.3318  0.8578 -0.0693
  128MOL0     H16831   0.977   7.933  10.107 -0.4653  1.2799  0.8411
  128MOL0     H16832   0.825   7.913   9.906 -1.8668  2.6244 -4.1172
  128MOL0     H16833   0.823   8.259   9.625  0.3192  0.0515 -6.1865
  128MOL0     H16834   0.664   8.206   9.603  1.0927  1.2378  2.0375
  128MOL0     H16835   0.818   8.161   9.433  0.0768  0.8595 -0.1324
  128MOL0     H16836   0.746   8.019   9.481 -2.0101  2.1857 -0.0467
  128MOL0     H16837   0.970   7.986   9.635 -2.3475 -3.2357 -1.5974
  128MOL0     H16838   1.028   8.110   9.530 -4.3909  5.0726  0.5064
  128MOL0     H16839   0.907   7.831   9.466 -1.2046  1.5606  2.6839
  128MOL0     H16840   0.956   7.932   9.334  2.7681 -0.9456 -2.0512
  128MOL0     H16841   1.118   7.767   9.379 -0.8374  0.8765 -0.8663
  128MOL0     H16842   1.133   7.807   9.548  1.7883 -2.9739 -0.7770
  128MOL0     H16843   1.333   7.878   9.432  0.6616  0.6745  0.5505
  128MOL0     H16844   1.245   8.009   9.511 -2.5205  0.2522  0.1143
  128MOL0     H16845   1.137   8.062   9.294 -1.4394  0.3103  2.0840
  128MOL0     H16846   1.319   8.088   9.283  0.4441 -2.3501 -4.2724
  128MOL0     H16847   1.171   7.878   9.156 -0.7079  0.4813  0.6823
  128MOL0     H16848   1.334   7.850   9.184 -1.2027 -0.1585  3.8851
  128MOL0     H16849   1.143   8.188   9.065 -0.3530  0.6720  0.1638
  128MOL0     H16850   1.296   8.282   8.725  1.4641  0.9188  2.6825
  128MOL0     H16851   1.209   8.353   8.860  0.1480 -1.3437  1.4750
  128MOL0     H16852   1.007   8.229   8.830 -2.0904 -1.5641 -0.2335
  128MOL0     H16853   1.087   8.122   8.717  0.4485  1.0604 -0.8548
  128MOL0     H16854   1.020   8.409   8.663 -0.9795 -1.1779  1.9093
  128MOL0     H16855   1.145   8.326   8.563  0.5791  0.2325  0.9020
  128MOL0     H16856   0.859   8.248   8.608 -0.6172  0.7293 -0.6610
  128MOL0     H16857   0.972   8.141   8.535  1.8672  1.2905  0.7879
  128MOL0     H16858   0.904   8.409   8.192  1.9083  0.7903 -0.1417
  128MOL0     H16859   0.822   8.305   7.976 -1.2439 -0.2630  1.2376
  128MOL0     H16860   0.791   7.880   7.668 -1.4378 -0.4974 -0.1551
  128MOL0     H16861   0.712   7.853   7.449 -0.9777 -0.1496 -0.4812
  128MOL0     H16862   0.448   7.925   7.389  0.6312  0.5915  0.4955
  128MOL0     H16863   0.517   7.865   7.244 -0.0645  1.1551 -1.9456
  128MOL0     H16864   0.300   8.080   7.274  3.6997  2.2777  1.4103
  128MOL0     H16865   0.271   7.919   7.195  1.4053 -0.1941 -2.0227
  128MOL0     H16866   0.451   7.962   7.035  2.3759  0.0503  3.2562
  128MOL0     H16867   0.454   8.121   7.084  2.1698 -1.4120 -3.5803
  128MOL0     H16868   0.229   7.949   6.958 -3.1827  0.7975  1.7893
  128MOL0     H16869   0.196   8.112   7.009 -3.4187 -4.6239  0.2359
  128MOL0     H16870   0.345   8.204   6.832 -3.7082  1.2609  0.6681
  128MOL0     H16871   0.226   8.089   6.763  1.3803  0.5272 -3.4719
  128MOL0     H16872   0.387   7.908   6.769  3.0478 -0.9522  0.6161
  128MOL0     H16873   0.504   8.025   6.850 -2.3556 -0.5242  2.2005
  128MOL0     H16874   0.426   8.036   6.561  0.9783 -0.0978 -0.5742
  128MOL0     H16875   0.553   8.135   6.651  0.0186 -0.2241  2.2889
  128MOL0     H16876   0.661   7.910   6.707 -0.5084 -0.5098  0.1952
  128MOL0     H16877   0.666   7.990   6.536 -3.1846  3.0031 -1.2304
  128MOL0     H16878   0.572   8.269   7.457 -1.8620  0.7414  1.5072
  128MOL0     H16879   0.631   8.292   7.671  1.9617  0.7788 -0.1689
  128MOL0     H16880   0.915   7.926   8.153  1.9688 -0.0781 -1.8682
  128MOL0     H16881   0.953   8.018   8.360 -1.1229 -2.3678 -2.5983
  128MOL0     H16882   0.847   8.333   9.852  0.5888  0.5667  0.5508
  128MOL0     H16883   0.985   8.357  10.042 -0.2097  0.4390 -0.1435
  128MOL0     H16884   1.242   8.356  10.181 -1.5186 -1.6971  1.0256
  128MOL0     H16885   1.460   8.480  10.255 -0.8388  0.0495  0.6528
  128MOL0     H16886   1.817   8.277  10.293  0.3018 -0.9987  0.4414
  128MOL0     H16887   1.799   8.304  10.464 -1.3484  0.0999 -0.0290
  128MOL0     H16888   1.900   8.526  10.266  1.8414  0.7344  0.8697
  128MOL0     H16889   1.864   8.543  10.442 -1.8915 -1.8899  2.4235
  128MOL0     H16890   2.050   8.335  10.348 -0.9902  1.4238 -2.7231
  128MOL0     H16891   2.022   8.396  10.506  4.7547  2.4440  0.7207
  128MOL0     H16892   2.119   8.575  10.276 -2.4324 -3.2639 -1.5676
  128MOL0     H16893   2.115   8.612  10.451  2.1108 -0.3661 -0.6076
  128MOL0     H16894   2.470   8.399  10.457 -0.4068 -1.6306 -1.9554
  128MOL0     H16895   1.654   8.121  10.342  0.9389 -0.1674 -0.6779
  128MOL0     H16896   1.428   7.998  10.276 -1.0228  0.9937 -1.7900
  129MOL0     O16897   3.459   0.224   3.058  0.0881  0.3533  0.5313
  129MOL0     C16898   3.477   0.188   3.171  0.8072 -0.7844  0.2865
  129MOL0     O16899   3.410   0.082   3.227 -0.2348  0.8378 -0.2816
  129MOL0     C16900   3.382  -0.029   3.160  0.4346  0.3284 -1.5812
  129MOL0     C16901   3.373  -0.139   3.246 -0.3486 -0.4855  0.1364
  129MOL0     C16902   3.339  -0.262   3.201 -0.7510  0.2341 -0.7297
  129MOL0     C16903   3.304  -0.288   3.073  0.0259  0.0811  0.8640
  129MOL0     O16904   3.267  -0.418   3.045  0.0697  0.3201  0.7412
  129MOL0     C16905   3.272  -0.465   2.909  0.2172 -0.5544  0.8781
  129MOL0     C16906   3.140  -0.475   2.847 -0.2448 -0.8404  1.0022
  129MOL0     C16907   3.060  -0.582   2.923  0.1608  0.4971  0.2614
  129MOL0     C16908   2.919  -0.591   2.849  0.5552  0.7112  0.1849
  129MOL0     C16909   2.844  -0.715   2.880 -0.6304 -0.1819 -0.0660
  129MOL0     C16910   2.721  -0.733   2.789 -0.3279  0.2409  0.0005
  129MOL0     C16911   2.593  -0.674   2.849 -0.3751 -0.4013 -0.1560
  129MOL0     C16912   2.477  -0.675   2.750  0.6844  0.6263  0.5538
  129MOL0     N16913   2.438  -0.818   2.722 -0.1887  0.5069  0.0062
  129MOL0     C16914   2.479  -0.892   2.612  1.1129  0.4066  0.8843
  129MOL0     C16915   2.443  -1.019   2.646  0.3228 -0.2857 -0.0764
  129MOL0     C16916   2.495  -1.150   2.581  0.3927  0.1895 -1.9478
  129MOL0     C16917   2.646  -1.174   2.563 -0.2752 -0.5983 -0.0529
  129MOL0     C16918   2.695  -1.178   2.703 -0.0890 -0.0019 -0.3653
  129MOL0     C16919   2.842  -1.149   2.716  0.4485  0.1120 -0.4903
  129MOL0     O16920   2.873  -1.018   2.659 -0.1603  0.1743 -0.8638
  129MOL0     C16921   3.007  -0.982   2.652 -0.4978 -0.0319 -0.0105
  129MOL0     C16922   3.114  -1.067   2.649 -0.1870  0.2104  0.1457
  129MOL0     C16923   3.243  -1.028   2.633 -0.3064  0.3567 -0.1894
  129MOL0     C16924   3.274  -0.898   2.619 -0.4320 -0.3966 -0.3937
  129MOL0     C16925   3.418  -0.855   2.625 -0.7657  1.7317  0.0477
  129MOL0     O16926   3.518  -0.943   2.627  0.5620 -0.1535  0.5916
  129MOL0     C16927   3.634  -0.895   2.573  0.2374 -1.0993  0.1737
  129MOL0     C16928   3.711  -0.780   2.605 -0.7344  0.0464  0.0985
  129MOL0     C16929   3.822  -0.752   2.533 -1.1487  0.6147  0.3462
  129MOL0     C16930   3.858  -0.836   2.428 -0.7081  0.7322 -0.1503
  129MOL0     O16931   3.984  -0.828   2.367 -0.1963 -0.3872 -0.1110
  129MOL0     C16932   4.050  -0.940   2.294  0.4898 -0.7512 -0.8895
  129MOL0     C16933   4.199  -0.912   2.302  0.9257 -0.7962 -0.0873
  129MOL0     C16934   4.272  -1.040   2.263 -1.2394  0.9598  0.6955
  129MOL0     C16935   4.410  -1.041   2.345  0.4152  0.3837  1.6215
  129MOL0     C16936   4.499  -1.170   2.306  0.8370 -0.2947 -0.2364
  129MOL0     C16937   4.530  -1.191   2.161 -0.2837  0.2349 -0.3268
  129MOL0     C16938   4.587  -1.062   2.089  0.1213 -0.5731 -0.1238
  129MOL0     C16939   4.630  -1.078   1.944 -0.1536  0.5983  0.4656
  129MOL0    Cl16940   4.787  -1.152   1.920 -0.2430 -0.2190  0.1406
  129MOL0     C16941   3.774  -0.945   2.395  1.5083 -0.3199 -0.9793
  129MOL0     C16942   3.659  -0.969   2.466  0.0225 -0.4368  0.3592
  129MOL0     O16943   3.435  -0.733   2.633 -0.2516  0.2447 -0.8296
  129MOL0     C16944   3.170  -0.808   2.615  0.0010 -0.3497  0.2288
  129MOL0     C16945   3.031  -0.848   2.624  0.5117 -0.6036 -0.4986
  129MOL0     N16946   2.374  -1.017   2.769  0.9884 -0.0907 -0.1536
  129MOL0     N16947   2.372  -0.896   2.814  0.4850 -0.0994  0.6415
  129MOL0     C16948   3.304  -0.175   2.989  0.3925  0.4349  0.6143
  129MOL0     C16949   3.349  -0.050   3.023  0.6408  0.0761 -0.4851
  129MOL0     C16950   3.552   0.268   3.265 -0.1630 -0.4675 -0.0037
  129MOL0     C16951   3.613   0.391   3.221 -0.9603 -0.3281 -0.8899
  129MOL0     C16952   3.685   0.468   3.318  0.1808  0.3962  0.9636
  129MOL0     C16953   3.710   0.427   3.452 -0.4870  0.4942 -0.1717
  129MOL0     O16954   3.800   0.495   3.531 -0.1407  0.3907  0.7364
  129MOL0     C16955   3.805   0.454   3.669 -0.0100  0.0237 -0.6799
  129MOL0     C16956   3.914   0.536   3.745  1.0389 -0.2157  0.7333
  129MOL0     C16957   3.864   0.625   3.859  0.6887 -0.4646  0.2572
  129MOL0     C16958   3.965   0.644   3.974 -0.4584  0.7127  0.1435
  129MOL0     C16959   4.081   0.718   3.927 -0.1945 -0.0194  0.2587
  129MOL0     C16960   4.169   0.776   3.872  0.6787 -0.4804 -0.2359
  129MOL0     C16961   3.634   0.309   3.488 -0.7616  0.1158 -0.8198
  129MOL0     C16962   3.562   0.231   3.397 -0.2961  0.6549  0.0925
  129MOL0     H16963   3.399  -0.123   3.350 -1.0773  0.1416  0.2325
  129MOL0     H16964   3.351  -0.342   3.273 -0.8103  1.0576  0.2102
  129MOL0     H16965   3.320  -0.563   2.918  1.0127 -0.1840  0.7689
  129MOL0     H16966   3.346  -0.415   2.847  2.4135 -3.2425  1.1465
  129MOL0     H16967   3.149  -0.505   2.742  1.8245  1.3244  0.4690
  129MOL0     H16968   3.093  -0.377   2.855  1.2326  0.0649 -0.6720
  129MOL0     H16969   3.039  -0.557   3.028 -5.6089 -0.5011 -0.3391
  129MOL0     H16970   3.113  -0.677   2.922 -1.6457 -0.7458  3.8549
  129MOL0     H16971   2.855  -0.508   2.880  0.4740  0.9161 -0.5253
  129MOL0     H16972   2.937  -0.572   2.743  1.0561 -1.7114 -0.2305
  129MOL0     H16973   2.820  -0.715   2.987  0.4573  2.2221  0.2259
  129MOL0     H16974   2.914  -0.799   2.870  0.3773  0.1853  2.9632
  129MOL0     H16975   2.712  -0.842   2.785  1.7421 -0.0332  1.3865
  129MOL0     H16976   2.749  -0.711   2.686  0.9171  0.0402  0.2826
  129MOL0     H16977   2.572  -0.728   2.942 -1.1001 -1.1562 -0.7421
  129MOL0     H16978   2.603  -0.569   2.879 -1.1860 -0.7410  1.4496
  129MOL0     H16979   2.521  -0.631   2.659 -2.3470  0.0489 -1.3114
  129MOL0     H16980   2.393  -0.613   2.782 -0.2105  0.5662 -1.5090
  129MOL0     H16981   2.540  -0.862   2.528 -0.4040  1.0934 -0.0105
  129MOL0     H16982   2.454  -1.143   2.480 -1.2292 -1.9736 -1.5069
  129MOL0     H16983   2.457  -1.237   2.634  0.1312  1.2245 -0.3487
  129MOL0     H16984   2.690  -1.095   2.502  1.4669  0.1414  2.0204
  129MOL0     H16985   2.663  -1.271   2.515 -0.5892 -1.0872  0.8026
  129MOL0     H16986   2.644  -1.111   2.774  0.0210 -1.9583  1.6737
  129MOL0     H16987   2.682  -1.283   2.731  3.1431 -0.6204 -0.8783
  129MOL0     H16988   2.908  -1.221   2.666  2.5612  0.8346  1.0911
  129MOL0     H16989   2.862  -1.155   2.824 -0.5452  1.3914 -0.2057
  129MOL0     H16990   3.099  -1.174   2.657  0.3600  0.0414 -0.8923
  129MOL0     H16991   3.321  -1.103   2.643  2.0029  2.7330  0.7745
  129MOL0     H16992   3.695  -0.723   2.695  3.9735  0.5997  0.8540
  129MOL0     H16993   3.887  -0.666   2.545 -0.5847  0.6141 -2.2227
  129MOL0     H16994   4.022  -0.974   2.194 -0.6969 -5.0151  0.6999
  129MOL0     H16995   4.048  -1.025   2.362 -0.8198  0.0397  0.0769
  129MOL0     H16996   4.207  -0.885   2.407 -2.1965 -1.0889  0.3291
  129MOL0     H16997   4.224  -0.826   2.238  0.1983  1.5264  2.5559
  129MOL0     H16998   4.283  -1.039   2.154  2.8550 -2.2578  0.8184
  129MOL0     H16999   4.221  -1.133   2.291 -1.3897  0.6912 -0.4084
  129MOL0     H17000   4.470  -0.953   2.320  1.1272 -0.9358 -1.8219
  129MOL0     H17001   4.387  -1.031   2.451 -0.5232  3.0567  1.2349
  129MOL0     H17002   4.458  -1.259   2.355  2.4463 -0.8600  0.1572
  129MOL0     H17003   4.591  -1.156   2.364  3.3087 -0.4596 -3.7686
  129MOL0     H17004   4.443  -1.228   2.106  1.5098 -2.8324 -1.3125
  129MOL0     H17005   4.607  -1.267   2.155  1.7978  1.8741  2.9086
  129MOL0     H17006   4.500  -0.996   2.083  1.2181  0.8314 -1.4220
  129MOL0     H17007   4.673  -1.020   2.142  1.3117 -0.3946 -2.0870
  129MOL0     H17008   4.647  -0.980   1.897  0.8328  0.2192  0.0012
  129MOL0     H17009   4.556  -1.130   1.882 -0.2890  2.7940 -1.3851
  129MOL0     H17010   3.791  -1.009   2.308 -1.4351 -1.9659 -0.4840
  129MOL0     H17011   3.594  -1.053   2.443  1.4443 -1.0013 -1.9684
  129MOL0     H17012   3.198  -0.703   2.604  1.1796 -0.6036  0.6654
  129MOL0     H17013   2.940  -0.795   2.597  0.2672 -1.0131 -0.4974
  129MOL0     H17014   3.276  -0.181   2.884 -1.6179 -2.0430  1.2065
  129MOL0     H17015   3.344   0.038   2.959 -3.7566  2.8273  2.9465
  129MOL0     H17016   3.624   0.407   3.114  1.0803 -0.7526 -0.7905
  129MOL0     H17017   3.729   0.557   3.274 -0.3980  0.5170  0.6330
  129MOL0     H17018   3.823   0.346   3.676  0.4535  0.2007  2.3626
  129MOL0     H17019   3.705   0.470   3.710 -1.1381 -0.0451 -3.2552
  129MOL0     H17020   3.988   0.467   3.786  1.3624 -0.0955  0.3532
  129MOL0     H17021   3.957   0.609   3.676 -2.4047 -0.1896 -1.6410
  129MOL0     H17022   3.772   0.576   3.890  2.6378 -4.0552  0.8539
  129MOL0     H17023   3.849   0.726   3.818  1.9582 -0.0833  0.6770
  129MOL0     H17024   3.917   0.698   4.057 -0.1480  4.0440 -1.6730
  129MOL0     H17025   3.998   0.553   4.026  0.9058  1.8869  1.4653
  129MOL0     H17026   4.259   0.824   3.839  0.8446 -1.2136 -0.8953
  129MOL0     H17027   3.630   0.273   3.591 -1.5152  1.3151 -0.4078
  129MOL0     H17028   3.511   0.143   3.436  0.6813 -0.9015 -1.9001
  130MOL0     O17029   0.941   4.648   8.415 -0.3491  0.0184 -0.2629
  130MOL0     C17030   0.893   4.716   8.506  1.3484  0.4186 -0.1495
  130MOL0     O17031   0.889   4.844   8.506  0.2585  0.2956  0.4555
  130MOL0     C17032   0.942   4.919   8.402  0.2891  0.3988  0.2513
  130MOL0     C17033   1.038   5.011   8.429  0.7514 -1.2197 -0.0400
  130MOL0     C17034   1.106   5.082   8.331  0.7482 -0.9163 -0.4406
  130MOL0     C17035   1.067   5.072   8.198  0.9327  0.5016  0.7491
  130MOL0     O17036   1.122   5.164   8.104  0.9130 -0.3243  0.1870
  130MOL0     C17037   1.062   5.183   7.973 -1.3209  0.2764  0.6429
  130MOL0     C17038   1.125   5.311   7.911  0.8509  0.3919 -0.1843
  130MOL0     C17039   1.260   5.296   7.853 -0.7026 -0.0027 -0.4978
  130MOL0     C17040   1.336   5.435   7.843  1.0276 -0.2123 -0.5218
  130MOL0     C17041   1.489   5.424   7.807 -0.4763 -0.6141  0.6755
  130MOL0     C17042   1.513   5.378   7.662  0.0381 -0.6835 -0.0258
  130MOL0     C17043   1.464   5.487   7.564  0.3061  0.0174  0.4536
  130MOL0     C17044   1.554   5.606   7.551 -0.6225 -0.3945  0.2718
  130MOL0     N17045   1.692   5.571   7.517 -0.2168  0.3184  0.3601
  130MOL0     C17046   1.813   5.603   7.586 -0.4464  0.4834  0.1329
  130MOL0     C17047   1.907   5.551   7.514  0.1618  0.2620  0.0621
  130MOL0     C17048   2.058   5.558   7.548 -0.3362  0.4349 -0.5733
  130MOL0     C17049   2.114   5.422   7.507 -0.5014  1.0883  0.1879
  130MOL0     C17050   2.067   5.303   7.586 -0.4808  0.1996  0.0688
  130MOL0     C17051   2.148   5.183   7.567 -0.3557  0.0961  0.3324
  130MOL0     O17052   2.082   5.063   7.606 -0.0059  0.1533  0.1313
  130MOL0     C17053   2.057   4.974   7.498 -0.6232 -0.8608  1.0585
  130MOL0     C17054   2.125   4.854   7.502 -0.4945  0.0336  0.9711
  130MOL0     C17055   2.109   4.764   7.399 -0.0622  0.3105  0.0726
  130MOL0     C17056   2.021   4.790   7.295  0.6083  0.4261 -0.4077
  130MOL0     C17057   2.032   4.710   7.173  0.0738 -0.4706  0.7819
  130MOL0     O17058   1.917   4.697   7.096  0.0161  0.2116  0.5398
  130MOL0     C17059   1.925   4.609   6.989  0.2393 -0.2260 -0.4649
  130MOL0     C17060   1.822   4.518   6.975  1.1287  0.1048 -0.0037
  130MOL0     C17061   1.812   4.430   6.862 -0.0882 -0.4177 -0.6697
  130MOL0     C17062   1.918   4.417   6.775  0.1283 -0.4811  0.6686
  130MOL0     O17063   1.911   4.321   6.673  0.8908  0.6018 -0.2272
  130MOL0     C17064   1.953   4.193   6.711 -0.6010  0.2571 -0.9346
  130MOL0     C17065   1.918   4.088   6.604 -0.1748  0.0977 -0.8110
  130MOL0     C17066   1.792   4.003   6.644  0.2381  0.3247  0.6510
  130MOL0     C17067   1.713   3.949   6.530  0.2942 -0.9146  0.9702
  130MOL0     C17068   1.630   4.060   6.451  1.0037 -0.3448 -0.2203
  130MOL0     C17069   1.490   4.006   6.398 -0.4440 -0.3233 -0.2981
  130MOL0     C17070   1.420   4.110   6.306  0.3019 -0.1183  0.9184
  130MOL0     C17071   1.362   4.232   6.377 -0.3787  0.3553  0.1626
  130MOL0    Cl17072   1.265   4.323   6.249 -0.3289 -0.3331 -0.2981
  130MOL0     C17073   2.020   4.511   6.786  0.0009  0.0271  0.4564
  130MOL0     C17074   2.023   4.606   6.886  0.4188 -0.2783  0.5719
  130MOL0     O17075   2.139   4.657   7.146 -0.4293 -0.5596  0.1341
  130MOL0     C17076   1.931   4.901   7.311 -0.5121  0.8587 -0.5050
  130MOL0     C17077   1.957   4.996   7.408 -0.5292 -0.1364 -0.3476
  130MOL0     N17078   1.852   5.512   7.400  0.4649  0.0701 -0.2102
  130MOL0     N17079   1.719   5.492   7.411 -0.8235  0.0393  0.5181
  130MOL0     C17080   0.973   4.973   8.163  0.0444 -0.0252 -0.6971
  130MOL0     C17081   0.912   4.900   8.264  0.0213  0.2322 -0.2667
  130MOL0     C17082   0.796   4.653   8.596 -0.5158 -0.8263  0.0580
  130MOL0     C17083   0.721   4.734   8.688 -0.8258 -0.2594  1.2126
  130MOL0     C17084   0.620   4.674   8.768 -0.1283  0.2464 -1.3125
  130MOL0     C17085   0.596   4.534   8.759  0.8429  0.1722  0.6677
  130MOL0     O17086   0.484   4.496   8.840  0.2287 -0.0407  0.3483
  130MOL0     C17087   0.450   4.362   8.836  0.2539  1.1607 -0.9383
  130MOL0     C17088   0.345   4.340   8.728 -0.4340 -0.7344  0.4811
  130MOL0     C17089   0.196   4.330   8.779  0.1365 -0.4490  0.7715
  130MOL0     C17090   0.101   4.295   8.669 -0.9208  0.2046 -0.0081
  130MOL0     C17091  -0.032   4.306   8.721 -0.1284  0.2226  0.1445
  130MOL0     C17092  -0.124   4.308   8.796  0.6449 -1.1371 -0.5764
  130MOL0     C17093   0.670   4.457   8.654  0.3862 -0.0807  0.3464
  130MOL0     C17094   0.768   4.518   8.579 -1.1116 -0.2986 -0.6176
  130MOL0     H17095   1.080   5.018   8.529  0.8548  1.1303 -0.2099
  130MOL0     H17096   1.174   5.165   8.346 -0.9372  0.5741 -0.7267
  130MOL0     H17097   0.953   5.181   7.970 -1.2874 -0.5910 -1.2704
  130MOL0     H17098   1.095   5.100   7.909 -2.2478  1.8346 -2.0077
  130MOL0     H17099   1.108   5.387   7.989  1.1020 -1.1957  1.4716
  130MOL0     H17100   1.066   5.344   7.825  1.2451  0.7342 -0.3238
  130MOL0     H17101   1.251   5.261   7.749 -1.3013  0.2464 -0.5346
  130MOL0     H17102   1.321   5.232   7.917 -0.9800  0.7314  0.5214
  130MOL0     H17103   1.280   5.497   7.773 -1.9997  3.4056  4.4389
  130MOL0     H17104   1.339   5.480   7.943 -0.4793 -2.8344  0.7942
  130MOL0     H17105   1.528   5.355   7.882 -0.7352  1.3726  2.7776
  130MOL0     H17106   1.550   5.514   7.820 -0.0791 -0.7620 -0.1004
  130MOL0     H17107   1.449   5.290   7.652 -3.9108  0.9507  5.5020
  130MOL0     H17108   1.620   5.365   7.646 -0.0837 -1.2180 -0.4085
  130MOL0     H17109   1.456   5.434   7.469  0.7536  0.1507  0.3361
  130MOL0     H17110   1.366   5.526   7.591 -0.1169 -0.3820 -0.4532
  130MOL0     H17111   1.561   5.663   7.644  2.7711 -0.2060  0.0074
  130MOL0     H17112   1.511   5.680   7.482 -0.6000 -2.2138 -1.7778
  130MOL0     H17113   1.818   5.661   7.678 -0.1784  2.2373 -0.9325
  130MOL0     H17114   2.078   5.585   7.652  3.8834  0.4161 -1.2112
  130MOL0     H17115   2.093   5.632   7.476 -1.0865  0.7431 -0.6306
  130MOL0     H17116   2.223   5.414   7.503 -0.5281  0.2432  0.8149
  130MOL0     H17117   2.076   5.409   7.405 -1.9648 -2.7835  1.0332
  130MOL0     H17118   2.078   5.315   7.695  0.4383 -0.5957  0.0727
  130MOL0     H17119   1.965   5.277   7.555 -0.0389 -2.6731  0.7649
  130MOL0     H17120   2.236   5.206   7.628 -2.9911  0.3564  4.3642
  130MOL0     H17121   2.170   5.172   7.460 -0.0457 -5.4810  0.7118
  130MOL0     H17122   2.189   4.833   7.587  2.1370  1.1528 -0.6006
  130MOL0     H17123   2.187   4.690   7.381  0.2587  0.9036 -1.1159
  130MOL0     H17124   1.753   4.516   7.059 -0.8323 -2.5216 -1.5166
  130MOL0     H17125   1.734   4.355   6.852 -0.4593  0.0605 -1.4142
  130MOL0     H17126   1.903   4.166   6.805  1.5859  0.7475  0.4536
  130MOL0     H17127   2.062   4.204   6.720 -0.1285 -3.5641 -0.0505
  130MOL0     H17128   1.998   4.016   6.583  1.4130  1.8055 -0.8725
  130MOL0     H17129   1.911   4.143   6.510 -2.1003  1.5286  0.1158
  130MOL0     H17130   1.733   4.060   6.717  0.9515  2.7289 -0.5609
  130MOL0     H17131   1.834   3.913   6.691  0.2578  0.0401  0.0901
  130MOL0     H17132   1.768   3.889   6.456  0.9761 -2.3801  2.6027
  130MOL0     H17133   1.633   3.888   6.574  0.0826  1.2546  3.7989
  130MOL0     H17134   1.686   4.098   6.366 -1.5300  3.0697 -0.5902
  130MOL0     H17135   1.615   4.150   6.511 -0.5027 -0.4734 -0.3465
  130MOL0     H17136   1.435   3.999   6.492  0.4891  1.1968  0.3830
  130MOL0     H17137   1.504   3.908   6.350 -2.7078 -2.8644  3.6289
  130MOL0     H17138   1.487   4.149   6.229  0.5195  2.0886  2.1357
  130MOL0     H17139   1.332   4.054   6.275  0.8142 -1.9148  2.5364
  130MOL0     H17140   1.442   4.289   6.425  0.5410 -1.3629  0.7773
  130MOL0     H17141   1.306   4.180   6.455  2.8511 -2.9511  0.5985
  130MOL0     H17142   2.110   4.508   6.726 -0.4235 -0.0650 -0.1866
  130MOL0     H17143   2.114   4.664   6.875  0.3088 -0.4832 -1.9287
  130MOL0     H17144   1.859   4.929   7.235 -2.3512  3.6807  2.0128
  130MOL0     H17145   1.903   5.090   7.406  1.8466  1.3343 -0.6552
  130MOL0     H17146   0.940   4.955   8.061 -0.5979  0.1702 -0.5268
  130MOL0     H17147   0.850   4.820   8.226 -0.9913 -0.3652  2.3893
  130MOL0     H17148   0.750   4.838   8.700  2.1570 -0.4379 -2.5249
  130MOL0     H17149   0.580   4.720   8.858  1.2237 -0.9911 -0.0259
  130MOL0     H17150   0.398   4.339   8.930 -1.9506  0.2372 -2.3069
  130MOL0     H17151   0.528   4.288   8.814  1.4111  1.4604  1.7873
  130MOL0     H17152   0.363   4.405   8.642  0.5650 -0.7225  0.6822
  130MOL0     H17153   0.364   4.251   8.667  2.4911  0.0534  0.0746
  130MOL0     H17154   0.163   4.427   8.817 -0.9581  0.6392 -2.6194
  130MOL0     H17155   0.203   4.238   8.839 -0.4534 -1.5597 -0.7859
  130MOL0     H17156   0.111   4.371   8.592  0.0333  0.8763  0.7547
  130MOL0     H17157   0.125   4.196   8.629 -4.0506 -0.5734 -0.2427
  130MOL0     H17158  -0.207   4.292   8.862 -0.2211  0.6710 -1.1809
  130MOL0     H17159   0.633   4.357   8.633  1.1693 -0.0930 -1.1683
  130MOL0     H17160   0.840   4.466   8.516 -0.8417  1.2500 -1.6403
  131MOL0     O17161   7.928   6.893   3.686  0.1352 -0.0927 -0.3008
  131MOL0     C17162   7.986   6.805   3.750  0.3926  0.7292  0.7964
  131MOL0     O17163   7.919   6.701   3.816  0.3267  0.5105 -0.6287
  131MOL0     C17164   7.787   6.677   3.811 -0.0314 -1.0539  0.4611
  131MOL0     C17165   7.714   6.729   3.916  0.1760  0.0812 -0.0215
  131MOL0     C17166   7.577   6.714   3.912 -0.3636  0.1683 -0.7183
  131MOL0     C17167   7.504   6.654   3.814  0.0564 -0.3318 -0.9911
  131MOL0     O17168   7.370   6.653   3.819 -0.3151 -0.0757 -0.3736
  131MOL0     C17169   7.295   6.540   3.762 -0.8555  0.1065  0.6002
  131MOL0     C17170   7.159   6.521   3.843 -0.1793 -0.6005  0.3746
  131MOL0     C17171   7.076   6.648   3.858 -0.5274 -0.5125 -0.6858
  131MOL0     C17172   7.057   6.726   3.730  0.2449  1.3418  0.4126
  131MOL0     C17173   6.975   6.847   3.766 -0.1715  0.1699 -0.4857
  131MOL0     C17174   6.935   6.934   3.638  0.1767 -0.1200 -0.0656
  131MOL0     C17175   6.945   7.081   3.675  1.0875  0.2818  0.3480
  131MOL0     C17176   6.871   7.129   3.802  0.4536  0.7846  1.1845
  131MOL0     N17177   6.890   7.276   3.823  0.0920 -0.6112 -0.3950
  131MOL0     C17178   6.991   7.331   3.894  0.0148 -0.1165  0.7168
  131MOL0     C17179   6.975   7.459   3.889 -0.2849 -0.2073  0.2186
  131MOL0     C17180   7.069   7.562   3.947 -0.3297 -0.2867  0.0069
  131MOL0     C17181   7.211   7.508   3.971  1.3203 -0.5447 -0.3999
  131MOL0     C17182   7.307   7.622   4.002 -0.4806  0.4522  0.0297
  131MOL0     C17183   7.410   7.591   4.114 -0.5422  0.0754 -0.0514
  131MOL0     O17184   7.394   7.691   4.217 -0.1112  0.4303  0.1255
  131MOL0     C17185   7.467   7.806   4.199  0.1016  0.2066  0.1360
  131MOL0     C17186   7.397   7.929   4.202 -0.1882  0.0125  0.1064
  131MOL0     C17187   7.464   8.051   4.188  0.1041  0.2419  0.3918
  131MOL0     C17188   7.606   8.056   4.183 -0.5871 -0.0024  0.8892
  131MOL0     C17189   7.687   8.177   4.178 -0.2790  0.3629  0.2172
  131MOL0     O17190   7.799   8.164   4.252 -0.5702 -0.3605  0.3030
  131MOL0     C17191   7.870   8.279   4.264  0.4320  0.8458 -0.4663
  131MOL0     C17192   7.975   8.305   4.178  0.5273 -0.3580  0.0095
  131MOL0     C17193   8.055   8.414   4.200 -0.7600 -0.2894  0.5513
  131MOL0     C17194   8.025   8.514   4.295 -0.1405  0.1085  0.3723
  131MOL0     O17195   8.103   8.627   4.304 -0.4520 -0.0627 -0.0092
  131MOL0     C17196   8.103   8.699   4.429  0.2712  0.2945  0.2818
  131MOL0     C17197   8.190   8.829   4.422  0.0591  0.4849  0.2592
  131MOL0     C17198   8.254   8.877   4.556 -0.7609 -0.6579  0.5773
  131MOL0     C17199   8.149   8.934   4.653 -0.0100 -0.0822 -0.7804
  131MOL0     C17200   8.179   9.079   4.701 -0.2043 -0.5185  0.2760
  131MOL0     C17201   8.200   9.176   4.579 -0.7025  1.0470 -1.0488
  131MOL0     C17202   8.278   9.297   4.628 -0.5352  0.4626 -0.1590
  131MOL0     C17203   8.274   9.409   4.528 -0.3748  0.6868 -0.2256
  131MOL0    Cl17204   8.386   9.543   4.579 -0.2924 -0.0449  0.1347
  131MOL0     C17205   7.902   8.497   4.363 -0.0664 -0.3391 -0.4809
  131MOL0     C17206   7.839   8.372   4.360 -0.3991  0.7904  0.0276
  131MOL0     O17207   7.649   8.272   4.117  0.0498 -0.0520  0.0435
  131MOL0     C17208   7.678   7.929   4.182  0.6170  0.4077  0.0403
  131MOL0     C17209   7.605   7.807   4.200  0.5285  0.1049  0.3027
  131MOL0     N17210   6.855   7.490   3.830  0.8576 -0.1364 -0.1154
  131MOL0     N17211   6.806   7.380   3.797  0.2057  1.1997 -0.0862
  131MOL0     C17212   7.582   6.589   3.712 -0.6303  0.1074 -0.7018
  131MOL0     C17213   7.723   6.602   3.705 -0.0262 -0.6025 -1.2014
  131MOL0     C17214   8.132   6.810   3.760  0.8945  0.0458 -0.3580
  131MOL0     C17215   8.201   6.913   3.701  0.4879 -0.0423 -1.4066
  131MOL0     C17216   8.336   6.942   3.727  0.0754  0.4499 -0.2855
  131MOL0     C17217   8.407   6.853   3.809 -0.6703  0.4438  0.5209
  131MOL0     O17218   8.543   6.860   3.842 -0.4890  0.2782  0.7144
  131MOL0     C17219   8.614   6.935   3.743 -0.6101 -0.0704 -0.8532
  131MOL0     C17220   8.748   6.925   3.801 -0.4503 -0.5717  0.3376
  131MOL0     C17221   8.862   6.997   3.719  0.6931 -0.4620  0.8897
  131MOL0     C17222   8.933   7.105   3.802 -1.1562  0.7054  0.1264
  131MOL0     C17223   9.034   7.175   3.718 -1.2268  0.2415 -0.2535
  131MOL0     C17224   9.108   7.237   3.646 -0.1578  0.5247  0.0829
  131MOL0     C17225   8.342   6.747   3.865 -0.4413 -0.2299  0.7614
  131MOL0     C17226   8.204   6.721   3.843 -0.0309 -0.0792 -1.2847
  131MOL0     H17227   7.760   6.775   4.003 -0.3180 -3.5056  2.3529
  131MOL0     H17228   7.520   6.748   3.998 -0.5229 -1.7349 -0.0258
  131MOL0     H17229   7.360   6.455   3.784 -3.7572 -1.8712  2.3265
  131MOL0     H17230   7.273   6.548   3.655 -2.7282 -3.2318  0.5884
  131MOL0     H17231   7.178   6.479   3.942  2.4513 -0.2841  0.0729
  131MOL0     H17232   7.099   6.443   3.794  1.7115 -2.5659  1.0105
  131MOL0     H17233   7.131   6.714   3.926 -1.8876 -0.8404  0.7880
  131MOL0     H17234   6.976   6.620   3.893 -2.1220  1.4928 -3.2511
  131MOL0     H17235   7.153   6.746   3.682  0.2216  1.0118  0.2241
  131MOL0     H17236   7.005   6.668   3.653  0.8234  1.0183  0.2638
  131MOL0     H17237   7.034   6.907   3.836 -1.2370  0.6879 -0.0115
  131MOL0     H17238   6.881   6.818   3.813 -0.0585 -0.2577 -0.5217
  131MOL0     H17239   6.840   6.901   3.593 -0.2869  3.3820 -1.9668
  131MOL0     H17240   7.003   6.910   3.556 -0.8098  1.0365 -1.2597
  131MOL0     H17241   7.051   7.092   3.697  1.3495 -1.2470 -0.0511
  131MOL0     H17242   6.906   7.141   3.593 -0.6738  0.2399  1.1073
  131MOL0     H17243   6.896   7.073   3.892 -1.9555 -1.4387  0.5928
  131MOL0     H17244   6.770   7.093   3.783  0.6608 -0.3208  2.0968
  131MOL0     H17245   7.079   7.274   3.919  0.1346 -1.2248 -1.9433
  131MOL0     H17246   7.038   7.599   4.045 -0.4951 -0.5012  0.0350
  131MOL0     H17247   7.071   7.655   3.888  1.1937 -0.6197 -0.5156
  131MOL0     H17248   7.241   7.453   3.882  0.9869 -1.2383 -0.0918
  131MOL0     H17249   7.214   7.437   4.055 -0.7693  0.2025  0.3793
  131MOL0     H17250   7.366   7.644   3.913  1.5032  2.5621  1.7493
  131MOL0     H17251   7.247   7.710   4.026  0.5326  0.9681  0.7214
  131MOL0     H17252   7.505   7.579   4.062 -1.1259 -1.7381 -0.7762
  131MOL0     H17253   7.384   7.503   4.173 -0.6873 -0.4511 -0.8841
  131MOL0     H17254   7.293   7.923   4.233 -0.4438 -2.0715 -0.9844
  131MOL0     H17255   7.415   8.144   4.213  0.3710  0.3818  0.4009
  131MOL0     H17256   8.004   8.224   4.112 -3.0932 -0.9990 -1.0314
  131MOL0     H17257   8.150   8.418   4.148  0.8041 -1.5611  3.0882
  131MOL0     H17258   8.134   8.639   4.515 -2.7179  0.5293  1.6611
  131MOL0     H17259   8.001   8.730   4.452 -0.3264 -2.7019  2.2130
  131MOL0     H17260   8.125   8.906   4.378  0.7975  1.8843  1.4898
  131MOL0     H17261   8.270   8.819   4.349 -1.4487  1.1603 -1.5895
  131MOL0     H17262   8.342   8.941   4.544 -0.1126 -1.3029  1.7311
  131MOL0     H17263   8.292   8.784   4.599  1.1938  0.4406  1.3482
  131MOL0     H17264   8.051   8.932   4.605 -0.9764  0.9490  1.0637
  131MOL0     H17265   8.156   8.870   4.742  3.3975  2.1100  0.7317
  131MOL0     H17266   8.260   9.091   4.773 -0.3705  0.4542  0.3104
  131MOL0     H17267   8.083   9.095   4.750 -0.4349 -2.4560  0.5133
  131MOL0     H17268   8.107   9.207   4.531 -0.1264  1.0638 -2.1980
  131MOL0     H17269   8.263   9.143   4.496 -0.6116  2.1565 -1.4408
  131MOL0     H17270   8.234   9.342   4.718 -0.7423  2.7716 -1.3432
  131MOL0     H17271   8.384   9.284   4.651 -0.5374  2.3777  1.1279
  131MOL0     H17272   8.168   9.429   4.509 -0.9087 -0.5182  1.2454
  131MOL0     H17273   8.310   9.367   4.434  1.6579 -2.6735  1.8379
  131MOL0     H17274   7.883   8.573   4.437 -0.6906 -2.6260  1.8703
  131MOL0     H17275   7.750   8.362   4.422  0.8518 -1.6214  1.5901
  131MOL0     H17276   7.786   7.931   4.169  0.7273 -1.8109  0.3572
  131MOL0     H17277   7.659   7.714   4.215  2.0233  1.3724  3.8344
  131MOL0     H17278   7.536   6.533   3.631 -1.8324 -1.4759  0.9897
  131MOL0     H17279   7.778   6.543   3.633 -0.3344 -1.7499 -0.5290
  131MOL0     H17280   8.146   6.980   3.636  0.9527  1.2531 -0.5173
  131MOL0     H17281   8.388   7.012   3.662 -0.9451 -0.4702 -2.1775
  131MOL0     H17282   8.592   7.041   3.732  0.1422  0.0825 -0.8925
  131MOL0     H17283   8.623   6.884   3.647 -0.3425  1.0894 -1.4617
  131MOL0     H17284   8.748   6.975   3.898  1.5147  0.0651  0.0617
  131MOL0     H17285   8.774   6.822   3.828 -1.0343 -1.1814 -1.2906
  131MOL0     H17286   8.806   7.038   3.635  0.1412 -1.5216  0.7229
  131MOL0     H17287   8.932   6.922   3.682  1.2790  1.2644 -1.7878
  131MOL0     H17288   8.865   7.182   3.840 -2.6779  2.4428 -5.1161
  131MOL0     H17289   8.988   7.058   3.883 -2.8843 -1.8642 -0.0853
  131MOL0     H17290   9.170   7.295   3.580 -0.6736  1.5986  0.5131
  131MOL0     H17291   8.403   6.680   3.925 -1.0499 -1.7320 -0.2525
  131MOL0     H17292   8.162   6.639   3.899  2.8794  0.0126  1.3040
  132MOL0     O17293   8.962   1.915   0.341  0.4245  1.3329  0.7606
  132MOL0     C17294   9.026   2.017   0.320  0.1480  0.7313  0.1716
  132MOL0     O17295   8.981   2.139   0.284  0.5309  0.3441 -0.1176
  132MOL0     C17296   8.842   2.161   0.278 -0.4415  0.7848 -0.9376
  132MOL0     C17297   8.744   2.119   0.369 -0.4703  0.0980  0.4470
  132MOL0     C17298   8.608   2.141   0.346 -0.2221  0.4134  0.0085
  132MOL0     C17299   8.574   2.202   0.230  0.3771 -0.1294  0.2264
  132MOL0     O17300   8.438   2.222   0.204 -0.3271 -0.5631  0.2171
  132MOL0     C17301   8.395   2.342   0.133 -0.9550 -0.9652  0.6166
  132MOL0     C17302   8.280   2.405   0.201 -0.2632  0.4422  0.1817
  132MOL0     C17303   8.203   2.519   0.131 -0.5104  0.2396 -0.2308
  132MOL0     C17304   8.295   2.636   0.134 -0.0994  0.1536  0.9595
  132MOL0     C17305   8.224   2.756   0.067  0.3538 -0.3004  0.5672
  132MOL0     C17306   8.115   2.813   0.161  0.3281  0.6584  0.0157
  132MOL0     C17307   8.092   2.956   0.116 -0.3942  0.3017  0.0788
  132MOL0     C17308   7.968   3.029   0.180 -0.0112 -0.2310 -0.6188
  132MOL0     N17309   7.996   3.061   0.316 -0.2058  0.2297  0.0030
  132MOL0     C17310   8.066   3.176   0.334  0.0517 -0.1377 -0.5392
  132MOL0     C17311   8.107   3.172   0.465  0.3779 -0.0213  0.0021
  132MOL0     C17312   8.190   3.263   0.547  1.0297 -0.3157  0.6886
  132MOL0     C17313   8.339   3.235   0.547 -0.6271  0.5403 -0.0562
  132MOL0     C17314   8.361   3.093   0.605 -0.7252  0.3111  0.5245
  132MOL0     C17315   8.468   3.092   0.709 -0.0618  0.0291  0.5520
  132MOL0     O17316   8.485   2.955   0.749  0.8888  0.1805 -0.0046
  132MOL0     C17317   8.608   2.911   0.795  0.5521  0.0494  0.1371
  132MOL0     C17318   8.638   2.775   0.787  0.4964  0.3700 -0.0908
  132MOL0     C17319   8.768   2.732   0.802 -0.0759 -0.6736 -0.3947
  132MOL0     C17320   8.880   2.815   0.815  0.2615 -0.1520 -0.1670
  132MOL0     C17321   9.022   2.758   0.825 -0.5955 -0.9885 -0.1493
  132MOL0     O17322   9.123   2.846   0.828  0.0450 -0.3510 -0.1623
  132MOL0     C17323   9.240   2.799   0.890 -0.2327 -0.1704 -0.2176
  132MOL0     C17324   9.363   2.793   0.825 -0.5842 -0.6502 -0.0869
  132MOL0     C17325   9.474   2.722   0.875  0.8096  0.4336 -0.4679
  132MOL0     C17326   9.464   2.666   1.006  0.6939  0.0356 -0.4739
  132MOL0     O17327   9.574   2.605   1.056  0.3385 -0.4000  0.3678
  132MOL0     C17328   9.600   2.620   1.202  0.4047  0.9996 -1.3092
  132MOL0     C17329   9.740   2.577   1.226 -0.2136 -0.2372 -0.7927
  132MOL0     C17330   9.846   2.662   1.159 -0.5799 -0.4262  0.0418
  132MOL0     C17331   9.992   2.639   1.209  0.3372 -0.3684 -0.1278
  132MOL0     C17332  10.076   2.624   1.079  0.0380 -0.3485  0.1267
  132MOL0     C17333  10.226   2.605   1.097  0.5841  0.0493 -0.4090
  132MOL0     C17334  10.296   2.584   0.958  0.5903  0.3733  0.9702
  132MOL0     C17335  10.323   2.441   0.916 -0.0425 -1.5186  0.1572
  132MOL0    Cl17336  10.405   2.347   1.040  0.1481  0.1535  0.5713
  132MOL0     C17337   9.340   2.669   1.080  0.6919 -0.6515  0.1357
  132MOL0     C17338   9.230   2.745   1.021  0.6028  0.4705 -0.0488
  132MOL0     O17339   9.036   2.636   0.831  0.1607  0.3992 -0.7968
  132MOL0     C17340   8.850   2.954   0.827 -0.3340 -0.2970  0.5860
  132MOL0     C17341   8.713   2.990   0.817 -0.4405  0.5343  0.4468
  132MOL0     N17342   8.047   3.050   0.519 -0.1361  0.2285  0.3364
  132MOL0     N17343   7.980   2.989   0.429 -0.2549  0.1207  0.8199
  132MOL0     C17344   8.671   2.236   0.132  0.6398 -0.1534 -1.5697
  132MOL0     C17345   8.806   2.211   0.165  0.3867 -0.6410  0.1343
  132MOL0     C17346   9.169   2.003   0.324  0.9403  0.4019  0.3199
  132MOL0     C17347   9.242   2.121   0.306  0.8439  0.5786 -0.1718
  132MOL0     C17348   9.380   2.121   0.301 -0.2182 -0.4374  0.5918
  132MOL0     C17349   9.457   2.003   0.303 -0.1489  0.7853  1.0675
  132MOL0     O17350   9.589   2.020   0.281 -0.7319 -0.7591 -0.0977
  132MOL0     C17351   9.678   1.900   0.262 -0.8666 -0.9136 -0.7260
  132MOL0     C17352   9.824   1.962   0.250  1.3578 -0.0891 -0.2693
  132MOL0     C17353   9.922   1.869   0.185  0.1078 -0.5741  0.1488
  132MOL0     C17354  10.058   1.928   0.202  1.0420 -0.0386 -0.7015
  132MOL0     C17355  10.068   2.049   0.119 -0.1007 -0.5634 -0.6135
  132MOL0     C17356  10.086   2.155   0.057 -0.7541 -0.5656 -0.3640
  132MOL0     C17357   9.382   1.888   0.336 -0.1241 -0.0545  0.1760
  132MOL0     C17358   9.241   1.891   0.347  0.0220  0.2530 -0.3144
  132MOL0     H17359   8.770   2.070   0.462 -1.1328 -0.0105  0.5804
  132MOL0     H17360   8.537   2.112   0.423 -1.1423 -1.4552 -1.4461
  132MOL0     H17361   8.369   2.315   0.031 -0.6928  0.5643  0.1199
  132MOL0     H17362   8.472   2.421   0.131 -0.1731 -1.7302 -0.4148
  132MOL0     H17363   8.320   2.440   0.297 -0.3191 -1.2909  0.8651
  132MOL0     H17364   8.200   2.331   0.214 -1.6005  1.7434 -0.4025
  132MOL0     H17365   8.109   2.540   0.183 -1.3667  1.3803 -2.1021
  132MOL0     H17366   8.177   2.495   0.028 -3.1157  0.2548  0.3678
  132MOL0     H17367   8.325   2.669   0.234  1.2566 -0.4095  0.7468
  132MOL0     H17368   8.385   2.614   0.077 -1.5058 -0.9465 -0.9672
  132MOL0     H17369   8.174   2.723  -0.024  0.3069  0.3784  0.3414
  132MOL0     H17370   8.299   2.832   0.043 -1.0889  0.6835 -0.9956
  132MOL0     H17371   8.132   2.803   0.268 -2.5951 -3.5624  0.3267
  132MOL0     H17372   8.024   2.753   0.150  1.3448 -0.5773 -2.3458
  132MOL0     H17373   8.182   3.015   0.135 -0.4954 -0.1334  2.0893
  132MOL0     H17374   8.077   2.966   0.008 -0.2526  0.4122  0.0686
  132MOL0     H17375   7.887   2.955   0.182 -0.8204  0.5996 -1.5822
  132MOL0     H17376   7.938   3.119   0.125 -1.4660 -0.5384 -0.3629
  132MOL0     H17377   8.089   3.255   0.263 -0.0552  1.5330  1.2009
  132MOL0     H17378   8.150   3.269   0.649  1.0413  0.3050  0.6600
  132MOL0     H17379   8.181   3.361   0.500  0.6357 -0.3491  0.6879
  132MOL0     H17380   8.397   3.303   0.610 -0.5652  0.0023  0.4756
  132MOL0     H17381   8.378   3.240   0.445  1.3799  2.2386  0.7260
  132MOL0     H17382   8.271   3.035   0.631 -2.6933  2.2612 -1.5199
  132MOL0     H17383   8.413   3.029   0.533  0.2074  0.6332  0.8964
  132MOL0     H17384   8.433   3.160   0.787 -1.7963  0.8645 -0.8781
  132MOL0     H17385   8.560   3.130   0.664 -0.0768 -0.5724 -0.0043
  132MOL0     H17386   8.560   2.700   0.776  0.4876 -0.0841  2.3997
  132MOL0     H17387   8.780   2.625   0.816 -2.1265 -0.6959  1.8982
  132MOL0     H17388   9.360   2.834   0.725  1.9028 -2.1156 -0.8495
  132MOL0     H17389   9.567   2.715   0.820  2.7763  2.8338  2.2686
  132MOL0     H17390   9.522   2.558   1.246 -0.6668  2.8861 -0.4104
  132MOL0     H17391   9.582   2.721   1.241 -1.4672 -0.1303  0.9773
  132MOL0     H17392   9.754   2.476   1.187 -0.4194  0.1636 -1.9324
  132MOL0     H17393   9.755   2.566   1.334 -1.6869 -1.3060 -0.6642
  132MOL0     H17394   9.826   2.765   1.190  0.0863  0.0184 -0.9602
  132MOL0     H17395   9.833   2.649   1.051 -2.7815 -2.9009  0.5042
  132MOL0     H17396  10.031   2.716   1.276  2.7032 -1.6233  0.0568
  132MOL0     H17397  10.003   2.543   1.259 -1.4856 -1.1687 -1.1680
  132MOL0     H17398  10.062   2.714   1.018 -4.5173 -0.8087  0.1534
  132MOL0     H17399  10.034   2.532   1.036  1.2915 -1.2048  0.6692
  132MOL0     H17400  10.236   2.516   1.160 -1.9756 -0.6109 -0.8448
  132MOL0     H17401  10.262   2.687   1.160 -1.2888  0.4367  0.2119
  132MOL0     H17402  10.234   2.634   0.883  1.3665 -0.7957 -0.4902
  132MOL0     H17403  10.389   2.639   0.974  1.3989 -0.9166  0.7578
  132MOL0     H17404  10.350   2.427   0.811 -1.6278  2.6615 -0.9991
  132MOL0     H17405  10.226   2.390   0.916  1.0939 -3.8612 -0.7590
  132MOL0     H17406   9.333   2.640   1.185 -0.7978 -3.4542 -0.6142
  132MOL0     H17407   9.143   2.740   1.085  1.9149 -1.7028  1.6891
  132MOL0     H17408   8.925   3.024   0.861  0.8642 -1.6676  0.8659
  132MOL0     H17409   8.699   3.096   0.837 -0.6480  0.1203  2.8277
  132MOL0     H17410   8.648   2.282   0.036  1.2678 -0.4738 -1.8854
  132MOL0     H17411   8.878   2.252   0.095  0.1773 -4.3817 -2.5675
  132MOL0     H17412   9.204   2.221   0.290 -2.5526 -0.5444  0.0943
  132MOL0     H17413   9.429   2.215   0.273  0.9205 -1.4097 -0.8768
  132MOL0     H17414   9.642   1.859   0.167 -2.4444 -0.8128 -0.1933
  132MOL0     H17415   9.670   1.827   0.342  1.6889  1.0708  1.5573
  132MOL0     H17416   9.827   2.058   0.198 -1.3983 -0.0538 -0.5132
  132MOL0     H17417   9.863   1.981   0.351  3.5081  1.9757 -1.4045
  132MOL0     H17418   9.897   1.874   0.078  1.2203  0.7513 -0.0788
  132MOL0     H17419   9.917   1.769   0.229 -0.1121 -0.4240  0.4616
  132MOL0     H17420  10.081   1.942   0.308  0.2484 -1.4814 -0.3077
  132MOL0     H17421  10.141   1.861   0.177  0.3220 -0.1030 -3.1808
  132MOL0     H17422  10.114   2.240  -0.001  2.7743 -2.5710 -1.9870
  132MOL0     H17423   9.426   1.789   0.332 -0.0304 -0.0320 -3.9514
  132MOL0     H17424   9.177   1.805   0.362 -0.0942 -0.2295 -3.1462
  133MOL0     O17425   9.923   8.608   7.543 -0.3053  0.5345 -0.7080
  133MOL0     C17426  10.036   8.636   7.515 -0.8792 -0.3088  0.1403
  133MOL0     O17427  10.091   8.631   7.390  0.2825  0.8614  0.4364
  133MOL0     C17428  10.011   8.634   7.276 -0.0665 -0.6260  1.4860
  133MOL0     C17429   9.878   8.685   7.266 -0.8251  0.4710 -1.3843
  133MOL0     C17430   9.803   8.655   7.155 -0.3420 -0.0948  1.0362
  133MOL0     C17431   9.857   8.591   7.042 -0.3461 -0.8294 -0.4721
  133MOL0     O17432   9.793   8.567   6.926 -0.3644  0.6393 -0.1374
  133MOL0     C17433   9.651   8.554   6.928  0.4305 -0.1701  0.3731
  133MOL0     C17434   9.615   8.525   6.780 -0.5651  0.6324  0.9328
  133MOL0     C17435   9.478   8.583   6.739  0.2360  0.0947  0.6494
  133MOL0     C17436   9.434   8.535   6.599  0.1679  0.3346  0.2873
  133MOL0     C17437   9.288   8.558   6.578 -0.5148 -0.8618  0.1295
  133MOL0     C17438   9.251   8.705   6.574  0.4556  0.5406  0.6933
  133MOL0     C17439   9.101   8.722   6.541 -0.4066  0.2510  0.3292
  133MOL0     C17440   9.081   8.824   6.422  1.1242 -0.1232  0.6325
  133MOL0     N17441   8.932   8.825   6.397 -0.0871  0.4192 -0.5193
  133MOL0     C17442   8.833   8.870   6.479  0.2241 -0.3913  0.3057
  133MOL0     C17443   8.718   8.828   6.419 -1.2147 -0.7092 -0.4817
  133MOL0     C17444   8.578   8.855   6.459 -0.1613 -0.1621 -0.5943
  133MOL0     C17445   8.495   8.886   6.336 -0.5085 -0.1829 -0.3063
  133MOL0     C17446   8.354   8.922   6.384 -0.4598  0.4371 -0.7797
  133MOL0     C17447   8.243   8.941   6.279 -0.8343  0.5308  0.1920
  133MOL0     O17448   8.272   9.046   6.179  0.0509  0.5532 -0.3825
  133MOL0     C17449   8.188   9.060   6.067  0.0147 -0.1305 -0.2364
  133MOL0     C17450   8.064   9.013   6.066  1.2502  0.2294 -0.9204
  133MOL0     C17451   7.975   9.011   5.954 -0.7837 -0.4928 -0.2817
  133MOL0     C17452   8.021   9.078   5.834 -0.6769 -0.3475 -0.2494
  133MOL0     C17453   7.939   9.081   5.709 -0.6007 -0.4829  0.7392
  133MOL0     O17454   7.798   9.062   5.725 -0.5130 -0.3886  0.6856
  133MOL0     C17455   7.702   9.074   5.625 -0.6315  0.2759  0.0986
  133MOL0     C17456   7.577   9.111   5.669  0.0995  0.4393 -0.4092
  133MOL0     C17457   7.468   9.116   5.585  0.0744  0.1851 -0.3952
  133MOL0     C17458   7.490   9.086   5.451  0.1576 -0.5588 -0.3429
  133MOL0     O17459   7.377   9.100   5.371  0.0307 -0.0887 -0.4157
  133MOL0     C17460   7.336   8.987   5.309 -0.2226 -0.6059  0.6030
  133MOL0     C17461   7.184   8.965   5.345 -0.6137  0.2144 -0.6416
  133MOL0     C17462   7.147   8.810   5.334  0.9744 -0.0711 -0.1059
  133MOL0     C17463   6.995   8.794   5.354  0.3520 -0.6873  0.4135
  133MOL0     C17464   6.945   8.646   5.364 -0.7807 -0.0601  0.2036
  133MOL0     C17465   6.812   8.643   5.443  0.1143  1.0405 -1.0768
  133MOL0     C17466   6.772   8.498   5.471 -0.0141  0.9345 -0.6065
  133MOL0     C17467   6.774   8.418   5.353  0.8761  0.7777 -0.8345
  133MOL0    Cl17468   6.670   8.493   5.222  0.2956  0.0269 -0.0062
  133MOL0     C17469   7.614   9.057   5.395 -0.2173  0.2008  0.1033
  133MOL0     C17470   7.728   9.050   5.485 -0.7855 -0.0518  0.2342
  133MOL0     O17471   7.995   9.101   5.596  0.2012 -0.4740 -0.2925
  133MOL0     C17472   8.159   9.114   5.829  0.3496 -0.0761 -0.5388
  133MOL0     C17473   8.235   9.111   5.945 -0.3145 -0.4888  0.0878
  133MOL0     N17474   8.754   8.744   6.311  0.2004 -0.7844 -1.2660
  133MOL0     N17475   8.880   8.746   6.303  0.5772 -0.2616 -0.5713
  133MOL0     C17476   9.992   8.565   7.048  0.4232  0.1536 -1.2386
  133MOL0     C17477  10.074   8.588   7.161  0.4093  0.3246 -0.4509
  133MOL0     C17478  10.122   8.683   7.627 -0.5608 -0.0927 -0.3336
  133MOL0     C17479  10.113   8.653   7.766  0.0841  0.1469  0.3721
  133MOL0     C17480  10.198   8.709   7.856  0.2965 -0.0404 -0.7383
  133MOL0     C17481  10.309   8.791   7.822 -0.3844  0.2185 -0.2082
  133MOL0     O17482  10.386   8.851   7.919  0.3328  0.0410 -0.5346
  133MOL0     C17483  10.375   8.803   8.064 -1.0082 -0.5290  0.4607
  133MOL0     C17484  10.466   8.904   8.141 -0.2741  0.2943  0.4886
  133MOL0     C17485  10.448   8.887   8.288  0.7652 -0.7151  1.3657
  133MOL0     C17486  10.312   8.945   8.329  0.0150  0.2393 -1.1920
  133MOL0     C17487  10.307   8.927   8.476 -0.6222  0.1414 -0.7351
  133MOL0     C17488  10.323   8.925   8.601  0.4778 -0.8111  0.4534
  133MOL0     C17489  10.328   8.814   7.681  0.3611 -0.6554 -0.0638
  133MOL0     C17490  10.234   8.767   7.586 -0.0694  0.8036 -0.6685
  133MOL0     H17491   9.831   8.723   7.356  0.7336  0.7828 -0.6680
  133MOL0     H17492   9.698   8.670   7.175 -0.3591 -1.2373  1.9586
  133MOL0     H17493   9.604   8.651   6.949  1.1922  0.5877 -1.2574
  133MOL0     H17494   9.614   8.468   6.984  0.8339 -0.1775  0.6314
  133MOL0     H17495   9.628   8.419   6.756  0.8462  1.3390 -1.8969
  133MOL0     H17496   9.697   8.553   6.713 -0.3591 -3.7811 -1.0335
  133MOL0     H17497   9.497   8.690   6.727  3.4192 -0.6275 -2.5874
  133MOL0     H17498   9.407   8.538   6.809  0.6776 -0.4429  0.7535
  133MOL0     H17499   9.485   8.592   6.521  1.9983 -0.1676  1.0553
  133MOL0     H17500   9.464   8.433   6.576 -1.9126 -0.0802 -0.7738
  133MOL0     H17501   9.233   8.498   6.651 -1.1805 -4.2729 -2.8663
  133MOL0     H17502   9.260   8.508   6.485  1.5471 -1.2691 -0.3419
  133MOL0     H17503   9.306   8.770   6.505  0.0376  1.0573  0.8398
  133MOL0     H17504   9.261   8.741   6.676 -0.4583 -2.2192  1.8388
  133MOL0     H17505   9.049   8.631   6.508 -0.2365  0.7239 -1.3622
  133MOL0     H17506   9.051   8.760   6.630  1.4921  2.7553  0.4372
  133MOL0     H17507   9.126   8.769   6.339  3.5199  1.4109  0.7945
  133MOL0     H17508   9.130   8.921   6.436  1.9914 -0.0653 -2.2146
  133MOL0     H17509   8.831   8.919   6.576 -5.0540  1.0136 -0.1789
  133MOL0     H17510   8.558   8.944   6.520 -3.8158  0.9670 -3.1360
  133MOL0     H17511   8.540   8.767   6.513 -0.4351 -0.2377 -0.9071
  133MOL0     H17512   8.488   8.807   6.261 -1.6259 -0.8408  0.4675
  133MOL0     H17513   8.541   8.970   6.282 -2.1456  1.0463  0.1442
  133MOL0     H17514   8.314   8.857   6.462 -1.2244  0.6158 -1.0044
  133MOL0     H17515   8.363   9.020   6.434  1.9607 -0.1791  0.1406
  133MOL0     H17516   8.153   8.974   6.332  1.1687  2.9305  2.4187
  133MOL0     H17517   8.219   8.846   6.232 -0.8407 -0.7473  2.6369
  133MOL0     H17518   8.012   8.980   6.155 -0.2142  1.5536 -1.2301
  133MOL0     H17519   7.874   8.971   5.963 -0.5875 -1.3869 -1.7313
  133MOL0     H17520   7.578   9.129   5.776  2.3482 -3.4406  0.4138
  133MOL0     H17521   7.371   9.142   5.626  1.3476  2.2357  1.5031
  133MOL0     H17522   7.393   8.901   5.345  0.1175 -0.3883  0.5913
  133MOL0     H17523   7.349   8.995   5.200  1.3319  2.2311  0.8969
  133MOL0     H17524   7.114   9.019   5.281  0.4965  1.1215 -1.1002
  133MOL0     H17525   7.167   8.998   5.448 -1.2326  2.0681 -1.2967
  133MOL0     H17526   7.208   8.763   5.411  2.0395  2.1680  0.4868
  133MOL0     H17527   7.184   8.771   5.238  0.4628  0.2479 -0.4424
  133MOL0     H17528   6.953   8.854   5.435  0.4493  1.5208 -1.0694
  133MOL0     H17529   6.941   8.827   5.264  0.3951  0.6483  0.8579
  133MOL0     H17530   7.015   8.581   5.418 -2.8808 -1.7498  1.0422
  133MOL0     H17531   6.943   8.605   5.262  3.5502 -1.3303  0.4483
  133MOL0     H17532   6.726   8.698   5.404 -2.7563 -0.1191  3.0217
  133MOL0     H17533   6.830   8.694   5.538  2.0577  0.5148 -1.1243
  133MOL0     H17534   6.845   8.461   5.545  0.6265  0.2971 -1.5348
  133MOL0     H17535   6.672   8.501   5.513  1.0851  5.2642  2.3732
  133MOL0     H17536   6.737   8.317   5.372 -0.6751  1.5154  0.3747
  133MOL0     H17537   6.876   8.404   5.317  0.5423 -0.8669 -1.2519
  133MOL0     H17538   7.635   9.045   5.289 -2.2440  2.1160 -0.6002
  133MOL0     H17539   7.826   9.023   5.447 -2.6327 -2.0301 -3.8675
  133MOL0     H17540   8.200   9.151   5.735 -1.2032 -0.0310 -1.2334
  133MOL0     H17541   8.337   9.147   5.941 -1.7251  3.9981 -0.4399
  133MOL0     H17542  10.033   8.521   6.958 -0.2651 -2.5347 -0.3174
  133MOL0     H17543  10.172   8.543   7.165 -0.1760 -0.9152  1.4061
  133MOL0     H17544  10.030   8.591   7.800 -0.5595  0.0853 -1.2128
  133MOL0     H17545  10.170   8.704   7.961 -0.8335  1.1495 -0.9516
  133MOL0     H17546  10.423   8.705   8.066  1.7921  0.7143 -0.9360
  133MOL0     H17547  10.270   8.803   8.095 -2.3221  3.0940 -3.1792
  133MOL0     H17548  10.569   8.892   8.106 -0.2349  0.0275  0.6981
  133MOL0     H17549  10.437   9.009   8.124 -0.9123  0.1705  0.7856
  133MOL0     H17550  10.528   8.927   8.350 -0.1505  3.0516  0.4094
  133MOL0     H17551  10.452   8.779   8.303 -1.0390 -1.1478 -0.7108
  133MOL0     H17552  10.300   9.050   8.300  0.9911  0.6634 -0.1263
  133MOL0     H17553  10.235   8.877   8.291  2.6352 -5.2154  2.0834
  133MOL0     H17554  10.332   8.932   8.708  0.7243  1.6900  0.3205
  133MOL0     H17555  10.413   8.870   7.644  1.4826 -0.8144  2.0705
  133MOL0     H17556  10.252   8.797   7.483  0.8301  1.4770 -0.3255
  134MOL0     O17557   0.994   1.468   6.999 -0.0304  0.4591  0.0390
  134MOL0     C17558   1.051   1.393   7.068 -0.3336 -0.5161 -0.7461
  134MOL0     O17559   1.003   1.343   7.186  0.1615  0.2698 -0.2668
  134MOL0     C17560   0.866   1.360   7.216  0.0265 -0.1743  0.1018
  134MOL0     C17561   0.831   1.397   7.350 -0.5493  0.1512  0.3224
  134MOL0     C17562   0.700   1.428   7.392  0.5097 -0.0912 -0.4602
  134MOL0     C17563   0.597   1.417   7.300  0.7977 -0.1334  0.5980
  134MOL0     O17564   0.470   1.474   7.316  0.2452  0.3681 -0.0061
  134MOL0     C17565   0.447   1.582   7.405 -0.5206  0.1519 -0.2613
  134MOL0     C17566   0.299   1.613   7.396 -0.1928  1.1843  0.8332
  134MOL0     C17567   0.266   1.638   7.249  0.3384  0.6963 -0.0178
  134MOL0     C17568   0.136   1.721   7.235  0.2639  1.1217 -0.1178
  134MOL0     C17569   0.119   1.791   7.109 -0.5424 -0.0315  0.4352
  134MOL0     C17570   0.133   1.708   6.975  0.4069  0.3196 -0.8966
  134MOL0     C17571   0.130   1.804   6.856 -0.0208  0.6938 -0.4322
  134MOL0     C17572   0.254   1.890   6.837  0.0404  0.5855  0.0749
  134MOL0     N17573   0.231   2.032   6.810  0.2470  0.8155 -0.0787
  134MOL0     C17574   0.124   2.095   6.862 -0.0159 -0.2647 -0.3115
  134MOL0     C17575   0.126   2.218   6.804  0.1613 -0.2824  0.0352
  134MOL0     C17576   0.039   2.330   6.840 -0.4968  0.2020 -0.0579
  134MOL0     C17577  -0.071   2.360   6.736  0.8477 -0.4756  0.6563
  134MOL0     C17578  -0.007   2.416   6.607  0.7881 -0.3007 -0.7920
  134MOL0     C17579  -0.094   2.445   6.480  0.8733  0.3049 -0.0364
  134MOL0     O17580  -0.215   2.511   6.512  0.4205  0.0697 -0.6218
  134MOL0     C17581  -0.302   2.544   6.415  0.7805 -0.9116 -0.0705
  134MOL0     C17582  -0.407   2.626   6.452 -1.0276  0.2693 -0.1429
  134MOL0     C17583  -0.511   2.656   6.353 -1.1979 -1.1065 -0.9404
  134MOL0     C17584  -0.508   2.596   6.225  0.1848 -0.3067 -0.3392
  134MOL0     C17585  -0.624   2.605   6.128  0.3366 -0.3290  0.1832
  134MOL0     O17586  -0.719   2.685   6.176  0.2199 -0.1056 -0.7860
  134MOL0     C17587  -0.839   2.699   6.105 -0.1021 -0.8742 -0.3162
  134MOL0     C17588  -0.876   2.654   5.974 -0.0159 -0.3877 -0.0270
  134MOL0     C17589  -1.008   2.689   5.932  1.1372 -0.3616 -0.1861
  134MOL0     C17590  -1.099   2.754   6.010  0.1139  0.3254  0.0057
  134MOL0     O17591  -1.227   2.756   5.951  0.2642  0.5631 -0.2605
  134MOL0     C17592  -1.289   2.883   5.920 -0.0427  0.2091 -1.2721
  134MOL0     C17593  -1.216   2.940   5.800 -0.0502 -0.0881 -0.7579
  134MOL0     C17594  -1.264   3.088   5.770 -0.7594  1.0328  0.0986
  134MOL0     C17595  -1.180   3.150   5.669 -0.2668  0.3386  0.1614
  134MOL0     C17596  -1.203   3.296   5.639  0.1839 -0.1222 -0.1248
  134MOL0     C17597  -1.349   3.338   5.590 -0.2489  0.7395  0.3647
  134MOL0     C17598  -1.458   3.354   5.692  0.0456 -0.0804  0.4703
  134MOL0     C17599  -1.576   3.431   5.634  1.1525  0.4179  0.7528
  134MOL0    Cl17600  -1.513   3.595   5.619  0.2737 -0.2373  0.2276
  134MOL0     C17601  -1.058   2.814   6.135  0.3452  0.1890  1.3715
  134MOL0     C17602  -0.936   2.785   6.173 -0.1493 -0.5953  0.2206
  134MOL0     O17603  -0.616   2.550   6.021  0.0750 -1.0703  0.2615
  134MOL0     C17604  -0.405   2.508   6.200  0.0550 -1.3634  0.1422
  134MOL0     C17605  -0.305   2.490   6.292 -0.0769  0.8859 -1.0526
  134MOL0     N17606   0.215   2.209   6.696 -0.0557 -0.0321  0.1144
  134MOL0     N17607   0.281   2.097   6.705 -0.2258 -0.1893 -0.7701
  134MOL0     C17608   0.622   1.365   7.173 -0.4543  0.2511  0.6580
  134MOL0     C17609   0.754   1.335   7.127 -1.2836 -0.3991 -0.2191
  134MOL0     C17610   1.194   1.348   7.043  0.0498 -0.0479  0.1570
  134MOL0     C17611   1.252   1.237   7.108 -0.5747 -0.0698 -0.4903
  134MOL0     C17612   1.385   1.202   7.107  0.5417  0.3813  0.8969
  134MOL0     C17613   1.472   1.270   7.034 -0.2627 -0.5011 -0.6468
  134MOL0     O17614   1.601   1.226   7.030  0.4953  0.3486 -0.2216
  134MOL0     C17615   1.696   1.280   7.128  0.6675  0.6658  0.2843
  134MOL0     C17616   1.830   1.198   7.108 -0.0397 -0.3153 -0.2264
  134MOL0     C17617   1.820   1.043   7.139  0.4517  0.3970  0.3744
  134MOL0     C17618   1.966   0.978   7.122  0.0887  0.2209 -0.3014
  134MOL0     C17619   2.035   1.027   7.245 -0.1782  0.4541  1.0380
  134MOL0     C17620   2.102   1.070   7.335 -0.2013  0.0795 -0.3311
  134MOL0     C17621   1.422   1.382   6.963  0.5032  0.1690  0.5559
  134MOL0     C17622   1.283   1.425   6.968  0.6046  0.8155 -0.7255
  134MOL0     H17623   0.912   1.429   7.414 -1.7300  1.1802  1.3657
  134MOL0     H17624   0.696   1.460   7.496 -0.2781  0.9395 -0.8062
  134MOL0     H17625   0.521   1.659   7.380 -0.8614 -0.4826 -3.6206
  134MOL0     H17626   0.475   1.547   7.505  0.6140  1.1132 -0.2196
  134MOL0     H17627   0.279   1.708   7.447  3.7773  1.4900  2.1569
  134MOL0     H17628   0.233   1.532   7.430 -0.0560 -0.8470 -3.0827
  134MOL0     H17629   0.262   1.538   7.204  1.3361  1.0596 -0.9687
  134MOL0     H17630   0.351   1.688   7.201  0.1568  0.1747 -0.9080
  134MOL0     H17631   0.053   1.655   7.259  1.7540 -2.1816 -3.1229
  134MOL0     H17632   0.148   1.806   7.304 -0.2288 -0.4109  1.9584
  134MOL0     H17633   0.192   1.872   7.105  0.0419 -0.5551  0.4812
  134MOL0     H17634   0.018   1.834   7.107  0.1949  1.7926 -0.1980
  134MOL0     H17635   0.050   1.637   6.970 -1.7181  2.5338  0.6927
  134MOL0     H17636   0.232   1.662   6.968  1.6014  2.7347 -0.8418
  134MOL0     H17637   0.118   1.748   6.762  1.4912  1.1953 -0.9574
  134MOL0     H17638   0.042   1.868   6.867  0.1006  0.5690  1.7062
  134MOL0     H17639   0.312   1.854   6.751  0.0912 -1.1007  0.7706
  134MOL0     H17640   0.323   1.887   6.921  3.7053 -0.3468 -2.6712
  134MOL0     H17641   0.059   2.072   6.946  2.7102 -0.9226  1.7601
  134MOL0     H17642   0.095   2.419   6.871  0.8681 -0.3919 -0.7715
  134MOL0     H17643  -0.018   2.291   6.925 -1.6478 -1.8959 -1.7073
  134MOL0     H17644  -0.148   2.430   6.769  0.9756  0.1075 -0.2358
  134MOL0     H17645  -0.112   2.261   6.717 -1.7021  0.6956 -0.3165
  134MOL0     H17646   0.041   2.511   6.633  3.3395 -1.1733 -1.9809
  134MOL0     H17647   0.067   2.342   6.574 -1.3899 -2.6494 -0.6832
  134MOL0     H17648  -0.129   2.351   6.436 -2.1709  1.7311 -0.9180
  134MOL0     H17649  -0.029   2.492   6.406  0.6553 -1.3107 -1.3040
  134MOL0     H17650  -0.410   2.669   6.551 -0.3213  0.1540 -0.0645
  134MOL0     H17651  -0.578   2.741   6.364  3.2227  2.7878 -1.0374
  134MOL0     H17652  -0.822   2.590   5.905 -3.8433 -2.1366 -1.7102
  134MOL0     H17653  -1.039   2.667   5.830  0.3543  3.4094 -0.9282
  134MOL0     H17654  -1.267   2.945   6.007  3.8628  0.8901 -2.5573
  134MOL0     H17655  -1.397   2.876   5.904 -0.3927 -1.1452  1.2195
  134MOL0     H17656  -1.227   2.870   5.717 -1.1265  1.3096 -1.8407
  134MOL0     H17657  -1.111   2.959   5.826 -1.0501  0.5503  3.7424
  134MOL0     H17658  -1.259   3.151   5.859  3.2220  0.8432  0.1840
  134MOL0     H17659  -1.368   3.088   5.735 -0.5302 -0.3167 -0.6593
  134MOL0     H17660  -1.080   3.146   5.714 -0.1258  3.7333  0.3975
  134MOL0     H17661  -1.194   3.099   5.573 -0.5497  1.4401 -0.3954
  134MOL0     H17662  -1.135   3.320   5.557  0.0990  2.4635  0.5066
  134MOL0     H17663  -1.179   3.355   5.727  2.4053  2.9945 -2.5792
  134MOL0     H17664  -1.374   3.269   5.509  0.9663  1.4934 -0.6917
  134MOL0     H17665  -1.340   3.433   5.537  0.3120  1.3632  1.5383
  134MOL0     H17666  -1.492   3.254   5.721 -1.5116  0.3836  0.3420
  134MOL0     H17667  -1.422   3.408   5.780  1.1607  1.5709 -0.9221
  134MOL0     H17668  -1.662   3.417   5.701  1.2638 -0.7427  0.6881
  134MOL0     H17669  -1.617   3.383   5.544  0.7560 -0.1989  1.2465
  134MOL0     H17670  -1.138   2.853   6.196 -1.5382 -0.9385 -0.2395
  134MOL0     H17671  -0.914   2.815   6.275 -1.6577 -0.7229  0.5958
  134MOL0     H17672  -0.399   2.448   6.109  3.1705 -0.8322 -0.1016
  134MOL0     H17673  -0.220   2.425   6.271  1.5318  2.8455 -0.9522
  134MOL0     H17674   0.547   1.344   7.098  1.0029 -1.9482 -0.3014
  134MOL0     H17675   0.771   1.304   7.024 -2.3646 -0.8932 -0.2718
  134MOL0     H17676   1.191   1.172   7.170 -2.3116 -0.2739 -2.3255
  134MOL0     H17677   1.416   1.117   7.167 -1.7205 -2.3180 -1.4551
  134MOL0     H17678   1.662   1.262   7.230 -1.6563  0.9227 -0.3850
  134MOL0     H17679   1.719   1.385   7.108 -2.4388  1.2317 -0.8295
  134MOL0     H17680   1.852   1.217   7.002 -1.6631 -0.2419 -0.5794
  134MOL0     H17681   1.904   1.241   7.175 -1.5216  0.1251  1.1712
  134MOL0     H17682   1.744   0.997   7.075 -1.8804  1.8080  1.9844
  134MOL0     H17683   1.781   1.039   7.241  1.0846 -2.3584  0.5839
  134MOL0     H17684   1.955   0.869   7.132 -5.7311  0.6954  2.9074
  134MOL0     H17685   2.005   1.010   7.025  0.5513  3.0288  0.7286
  134MOL0     H17686   2.143   1.108   7.427 -4.1665  2.7089  0.6215
  134MOL0     H17687   1.496   1.441   6.910  0.9242  1.1427  2.1749
  134MOL0     H17688   1.251   1.511   6.910 -1.6396  1.2950  1.0437
  135MOL0     O17689   9.157   5.702  11.034  0.6308 -0.1282 -0.0693
  135MOL0     C17690   9.245   5.755  10.970  1.0237  0.2850 -0.2968
  135MOL0     O17691   9.271   5.733  10.839 -0.0486 -0.3482  0.6891
  135MOL0     C17692   9.179   5.658  10.767 -0.2383 -0.9297 -0.5689
  135MOL0     C17693   9.221   5.528  10.736 -0.1261  0.3151 -0.5277
  135MOL0     C17694   9.150   5.459  10.645  1.1536  0.1200 -0.2402
  135MOL0     C17695   9.023   5.505  10.596 -0.8598 -0.0172 -0.2232
  135MOL0     O17696   8.931   5.434  10.531 -0.0416  0.5885  0.1507
  135MOL0     C17697   8.907   5.300  10.569 -0.0858  0.7676 -0.5444
  135MOL0     C17698   8.774   5.250  10.626  0.0575 -1.1912  0.1182
  135MOL0     C17699   8.738   5.329  10.744 -0.4246 -0.0704 -0.2556
  135MOL0     C17700   8.594   5.289  10.779  0.3057 -0.3827 -0.1544
  135MOL0     C17701   8.562   5.353  10.923  0.1780  0.1904  0.5496
  135MOL0     C17702   8.415   5.314  10.971 -0.0790 -0.1532  0.3868
  135MOL0     C17703   8.423   5.198  11.068  0.1878 -0.9481 -0.1662
  135MOL0     C17704   8.394   5.052  11.024 -0.0270  0.6537  0.7498
  135MOL0     N17705   8.255   5.044  10.961  0.6567  0.1730 -0.5660
  135MOL0     C17706   8.131   5.034  11.024 -0.5045 -0.2266 -1.2738
  135MOL0     C17707   8.040   5.022  10.925  0.6421 -0.1626  0.1801
  135MOL0     C17708   7.899   4.971  10.943  0.1972 -0.3957  0.2986
  135MOL0     C17709   7.831   5.024  11.068 -0.2037 -0.0470 -0.7254
  135MOL0     C17710   7.690   4.968  11.074  0.2977 -0.6069 -0.3213
  135MOL0     C17711   7.617   5.040  11.189  0.5590 -0.3587 -0.3931
  135MOL0     O17712   7.657   4.992  11.308  0.5237 -1.2002 -0.2830
  135MOL0     C17713   7.594   5.014  11.423  0.0219 -0.5338 -0.4241
  135MOL0     C17714   7.482   5.103  11.424  0.2004 -0.1500 -0.3204
  135MOL0     C17715   7.433   5.146  11.549  0.2164 -0.1564  0.4625
  135MOL0     C17716   7.488   5.092  11.670  0.2204  0.6121 -0.6099
  135MOL0     C17717   7.436   5.137  11.806  0.5068  0.1487 -0.3406
  135MOL0     O17718   7.343   5.227  11.786  0.2668 -0.8030 -0.2415
  135MOL0     C17719   7.255   5.258  11.882 -0.4459 -0.3910 -0.9871
  135MOL0     C17720   7.114   5.225  11.878 -0.1863 -1.0277 -0.9189
  135MOL0     C17721   7.020   5.281  11.971  0.3990 -1.1817 -0.0704
  135MOL0     C17722   7.067   5.367  12.071  0.6608 -0.3597  0.0766
  135MOL0     O17723   6.971   5.399  12.165 -0.6506 -0.2510  0.4195
  135MOL0     C17724   7.011   5.463  12.282  0.1684 -0.9595 -0.1696
  135MOL0     C17725   6.917   5.581  12.302  0.5824  0.3371  0.3608
  135MOL0     C17726   6.779   5.556  12.356  0.9253 -0.3457  0.8497
  135MOL0     C17727   6.691   5.682  12.384 -0.5311 -0.8804  0.6840
  135MOL0     C17728   6.659   5.775  12.266 -0.1826  0.0899  1.5370
  135MOL0     C17729   6.582   5.699  12.157  0.0415 -0.4000  0.4518
  135MOL0     C17730   6.492   5.795  12.081  0.0696  1.3642  0.2752
  135MOL0     C17731   6.556   5.926  12.036  0.2327  0.2299 -0.1761
  135MOL0    Cl17732   6.456   6.036  11.938  0.2741  0.2938  0.2071
  135MOL0     C17733   7.206   5.405  12.070  0.1080 -0.3945 -0.0739
  135MOL0     C17734   7.290   5.351  11.977 -0.0287 -1.0056 -0.1716
  135MOL0     O17735   7.468   5.091  11.909  0.7267 -0.0664 -0.2214
  135MOL0     C17736   7.591   5.003  11.663  1.1841  0.0558  0.0577
  135MOL0     C17737   7.643   4.966  11.541  0.1175  0.4318  0.1761
  135MOL0     N17738   8.110   5.032  10.810 -0.0522 -0.0886  0.5143
  135MOL0     N17739   8.232   5.042  10.826 -0.3502  0.0830  0.7212
  135MOL0     C17740   8.979   5.632  10.636 -0.7671  0.5430 -0.0449
  135MOL0     C17741   9.057   5.707  10.725  0.5723 -0.9015 -0.0351
  135MOL0     C17742   9.336   5.859  11.042  0.8673  0.4493  0.9772
  135MOL0     C17743   9.299   5.931  11.146 -0.6459 -0.1545 -0.0152
  135MOL0     C17744   9.380   6.012  11.219  0.3134 -0.2020 -0.4397
  135MOL0     C17745   9.513   6.033  11.179 -0.1108  0.3208  0.6067
  135MOL0     O17746   9.578   6.131  11.243 -0.1866 -0.5758  0.3077
  135MOL0     C17747   9.717   6.153  11.215  1.2018  0.6971 -0.1837
  135MOL0     C17748   9.802   6.047  11.302  0.7321  0.4549 -0.2078
  135MOL0     C17749   9.956   6.044  11.295  0.0832  0.3107 -0.4123
  135MOL0     C17750  10.024   5.973  11.169 -0.8366 -0.0617  0.0355
  135MOL0     C17751  10.152   6.047  11.154  0.6485 -0.1690  0.3638
  135MOL0     C17752  10.254   6.116  11.128 -0.0826  0.2414 -0.5145
  135MOL0     C17753   9.553   5.970  11.063 -1.0426 -1.1085 -0.6612
  135MOL0     C17754   9.471   5.886  10.997 -0.0145  0.1381  0.1639
  135MOL0     H17755   9.312   5.480  10.770 -0.3181 -1.3639 -2.2240
  135MOL0     H17756   9.182   5.362  10.610 -0.6280 -2.3583  4.2032
  135MOL0     H17757   8.971   5.260  10.648 -1.9077 -3.1060 -0.8047
  135MOL0     H17758   8.923   5.237  10.481  1.5015 -2.7067  1.9742
  135MOL0     H17759   8.784   5.149  10.665  1.0372  0.5427  5.1244
  135MOL0     H17760   8.697   5.256  10.548 -2.5196 -3.1320  2.3409
  135MOL0     H17761   8.756   5.436  10.730  2.1195 -0.6020 -1.7054
  135MOL0     H17762   8.800   5.296  10.829 -3.7041 -3.1644  1.2190
  135MOL0     H17763   8.531   5.320  10.695  0.8004  0.3552 -0.2683
  135MOL0     H17764   8.592   5.180  10.788  0.2584 -0.2853  1.1767
  135MOL0     H17765   8.561   5.459  10.896  0.8845  1.1726  3.9545
  135MOL0     H17766   8.642   5.351  10.997  1.0610  0.4319 -0.3736
  135MOL0     H17767   8.349   5.281  10.891 -2.9076  0.0237  2.4935
  135MOL0     H17768   8.365   5.394  11.026 -2.2258  0.4729 -2.2569
  135MOL0     H17769   8.516   5.203  11.125 -1.2071  3.2648  2.1753
  135MOL0     H17770   8.348   5.224  11.144 -0.3068 -0.2959 -0.8631
  135MOL0     H17771   8.409   4.974  11.100 -4.1795 -1.3224 -0.1599
  135MOL0     H17772   8.461   5.040  10.939 -0.2713  0.4959  0.5796
  135MOL0     H17773   8.125   5.040  11.132 -0.7056  2.3552 -1.3636
  135MOL0     H17774   7.917   4.864  10.950  0.6536 -0.2464  1.8287
  135MOL0     H17775   7.838   4.995  10.855  2.1546 -0.6034 -1.1803
  135MOL0     H17776   7.823   5.133  11.059  1.1305  0.0165 -1.3615
  135MOL0     H17777   7.883   5.005  11.162  0.1756  0.1658 -0.8880
  135MOL0     H17778   7.638   4.985  10.979 -0.8777  0.3206  0.4608
  135MOL0     H17779   7.693   4.861  11.096 -0.5734 -0.3114  1.4017
  135MOL0     H17780   7.512   5.015  11.170 -0.3104  0.1047  3.1848
  135MOL0     H17781   7.627   5.149  11.185 -1.1824 -0.1747 -0.3616
  135MOL0     H17782   7.443   5.151  11.335  0.0198 -0.7880 -0.5978
  135MOL0     H17783   7.364   5.228  11.535  0.6626  0.2324  0.5257
  135MOL0     H17784   7.083   5.154  11.801  2.8195 -2.6636 -0.7395
  135MOL0     H17785   6.916   5.253  11.974  0.1051 -0.1838 -0.3491
  135MOL0     H17786   7.115   5.495  12.282  0.8906 -2.5643  4.6561
  135MOL0     H17787   6.999   5.390  12.362  3.5049 -0.6334  0.7868
  135MOL0     H17788   6.914   5.612  12.197  3.8459  2.3658  0.7245
  135MOL0     H17789   6.970   5.669  12.338  2.8329 -1.1653  0.9315
  135MOL0     H17790   6.786   5.511  12.456 -3.0565  0.8845  1.8373
  135MOL0     H17791   6.722   5.495  12.285  0.6573  1.6868 -0.7763
  135MOL0     H17792   6.587   5.651  12.400 -2.4797  1.4048 -5.0584
  135MOL0     H17793   6.727   5.736  12.472 -2.2788 -0.5601  1.2368
  135MOL0     H17794   6.755   5.816  12.231 -0.4846 -1.1867 -0.9785
  135MOL0     H17795   6.599   5.856  12.310 -0.1603  0.0821  1.5816
  135MOL0     H17796   6.525   5.612  12.191  1.6331 -2.2703 -1.3499
  135MOL0     H17797   6.648   5.659  12.079 -3.9027 -0.5112 -3.2235
  135MOL0     H17798   6.444   5.734  12.003 -0.0773 -0.8410  1.9971
  135MOL0     H17799   6.402   5.810  12.142 -1.5850 -0.6246 -1.5223
  135MOL0     H17800   6.635   5.892  11.969 -1.5906 -1.4356 -1.6352
  135MOL0     H17801   6.598   5.984  12.118 -0.2701 -0.3198  0.4853
  135MOL0     H17802   7.251   5.471  12.143 -1.4381  0.4168  0.1947
  135MOL0     H17803   7.392   5.384  11.964 -0.3557  0.9217  1.5716
  135MOL0     H17804   7.626   4.961  11.757  2.0921 -0.5341 -0.5242
  135MOL0     H17805   7.724   4.894  11.542  1.3407  1.4659  5.3952
  135MOL0     H17806   8.888   5.680  10.603  0.9057  1.8682 -3.1688
  135MOL0     H17807   9.042   5.808  10.762  2.1540 -0.0229 -1.6347
  135MOL0     H17808   9.196   5.923  11.179 -1.5354  1.7413 -2.0734
  135MOL0     H17809   9.353   6.068  11.308  0.0014  2.3621 -2.0410
  135MOL0     H17810   9.752   6.249  11.255  1.0500  1.1566 -1.1416
  135MOL0     H17811   9.753   6.133  11.114 -0.4624  3.2412 -1.3876
  135MOL0     H17812   9.779   6.072  11.406 -1.2509 -2.5258  0.1714
  135MOL0     H17813   9.754   5.952  11.276 -0.1074  1.3395 -2.1918
  135MOL0     H17814   9.978   6.002  11.393 -0.5210  0.6622 -0.1205
  135MOL0     H17815   9.984   6.149  11.289  1.9121 -0.2130 -3.3688
  135MOL0     H17816  10.031   5.864  11.176  0.1281 -0.0649 -0.7719
  135MOL0     H17817   9.966   5.987  11.078 -0.4422  0.8809 -0.0786
  135MOL0     H17818  10.346   6.167  11.109  0.2047  1.3468  3.1963
  135MOL0     H17819   9.648   5.988  11.015  0.3803 -0.2992  2.2593
  135MOL0     H17820   9.513   5.837  10.909  5.4436 -2.6161  3.7342
  136MOL0     O17821   1.530   7.508   3.337 -0.4042  0.9694  0.2209
  136MOL0     C17822   1.545   7.437   3.436  0.3322 -1.7197  0.3193
  136MOL0     O17823   1.647   7.448   3.526 -0.6871  0.6042  0.1378
  136MOL0     C17824   1.742   7.545   3.514  1.3772  0.3057 -0.2377
  136MOL0     C17825   1.869   7.502   3.533 -1.0906 -0.2526  0.9185
  136MOL0     C17826   1.979   7.591   3.522  0.4624  0.2820 -0.2310
  136MOL0     C17827   1.966   7.735   3.501  0.1158  0.3658  0.8703
  136MOL0     O17828   2.070   7.819   3.493 -0.2296 -0.3972  0.2106
  136MOL0     C17829   2.089   7.889   3.615 -0.1941  0.1666  1.1827
  136MOL0     C17830   2.187   8.004   3.595  0.0807 -0.1370  0.2539
  136MOL0     C17831   2.310   7.963   3.503 -0.0741 -0.5059 -0.0447
  136MOL0     C17832   2.426   8.067   3.530  0.0963 -0.4191  0.6805
  136MOL0     C17833   2.557   8.026   3.450  0.4217 -0.8625 -0.9218
  136MOL0     C17834   2.660   8.138   3.451 -1.0833  0.0092  0.8281
  136MOL0     C17835   2.775   8.108   3.359  0.2528 -0.1356  0.1358
  136MOL0     C17836   2.870   8.222   3.344 -0.3606  0.4138 -0.6822
  136MOL0     N17837   2.983   8.187   3.261  0.3930 -0.0617 -0.5193
  136MOL0     C17838   3.097   8.127   3.303  0.8825  0.3459 -0.1110
  136MOL0     C17839   3.151   8.069   3.201 -1.5112  0.0657 -0.6336
  136MOL0     C17840   3.285   7.988   3.182  0.6313  0.3980  0.1151
  136MOL0     C17841   3.313   7.915   3.308 -0.4593  1.0533 -0.3294
  136MOL0     C17842   3.383   7.779   3.268  0.2655 -0.0885 -0.4147
  136MOL0     C17843   3.517   7.777   3.210 -0.0781  0.2256  0.4625
  136MOL0     O17844   3.491   7.760   3.074  0.0946 -0.6781  0.0595
  136MOL0     C17845   3.590   7.761   2.972  0.8104  1.6961 -0.6715
  136MOL0     C17846   3.727   7.734   2.998 -0.0503 -0.3159 -1.0217
  136MOL0     C17847   3.822   7.714   2.905  0.2796  0.1343  0.1915
  136MOL0     C17848   3.781   7.732   2.768 -0.2044 -0.2328 -0.1219
  136MOL0     C17849   3.875   7.722   2.660  0.9126  0.1415  0.0471
  136MOL0     O17850   3.825   7.701   2.538 -0.5292 -0.6390  0.7476
  136MOL0     C17851   3.912   7.684   2.432  0.7676 -0.3631 -0.4575
  136MOL0     C17852   4.006   7.780   2.392 -0.1540  0.8746  0.2881
  136MOL0     C17853   4.094   7.744   2.282  0.9030 -0.0479 -0.3553
  136MOL0     C17854   4.070   7.627   2.202  0.0504  0.1489  1.0776
  136MOL0     O17855   4.122   7.601   2.076  0.7944 -0.0960  0.3053
  136MOL0     C17856   4.157   7.719   2.000 -0.3509  0.1146  0.5224
  136MOL0     C17857   4.159   7.672   1.855 -0.6692 -1.0769 -0.6194
  136MOL0     C17858   4.014   7.661   1.802 -0.4923 -0.0446  0.1868
  136MOL0     C17859   4.015   7.652   1.645 -0.0839 -0.5187 -0.1330
  136MOL0     C17860   3.879   7.618   1.597  0.1020 -0.4632 -0.1563
  136MOL0     C17861   3.886   7.573   1.441 -0.2862  0.3299 -0.5348
  136MOL0     C17862   3.763   7.490   1.399  0.3942  0.4365 -0.3909
  136MOL0     C17863   3.630   7.553   1.439 -0.8138 -0.4674  0.7022
  136MOL0    Cl17864   3.609   7.721   1.368 -0.2314 -0.5937  0.2487
  136MOL0     C17865   3.970   7.539   2.244 -1.0601  0.6895 -0.2678
  136MOL0     C17866   3.889   7.565   2.356 -0.6608 -0.8728 -0.0424
  136MOL0     O17867   3.996   7.718   2.687 -0.2463 -0.2482  0.3846
  136MOL0     C17868   3.641   7.774   2.748  0.2129  0.1295 -0.3968
  136MOL0     C17869   3.548   7.787   2.845 -0.2943  0.6130 -0.0100
  136MOL0     N17870   3.073   8.097   3.091  0.3425 -0.5481 -0.3596
  136MOL0     N17871   2.969   8.157   3.128 -0.2604 -0.6764 -0.0970
  136MOL0     C17872   1.826   7.771   3.478  0.3857 -0.5206 -0.3596
  136MOL0     C17873   1.722   7.671   3.479  0.2707 -0.6798 -0.8914
  136MOL0     C17874   1.444   7.336   3.457 -0.6293 -0.4497 -0.0192
  136MOL0     C17875   1.325   7.332   3.377 -0.0518  1.2007  0.0466
  136MOL0     C17876   1.226   7.245   3.427  0.9538  0.3654 -0.0431
  136MOL0     C17877   1.247   7.158   3.533 -0.1606  0.4031  1.2665
  136MOL0     O17878   1.155   7.058   3.565 -0.5653  0.4782 -0.2150
  136MOL0     C17879   1.059   7.030   3.464 -0.1305  0.6280 -1.0634
  136MOL0     C17880   0.987   6.903   3.491 -1.2114  1.2324 -0.1467
  136MOL0     C17881   0.864   6.893   3.404 -0.3610  0.1267 -0.1502
  136MOL0     C17882   0.812   6.745   3.402  0.0606  0.5096 -1.2225
  136MOL0     C17883   0.714   6.710   3.309 -0.9367  0.0556  0.3651
  136MOL0     C17884   0.625   6.683   3.227  0.4518 -0.3239  0.1985
  136MOL0     C17885   1.364   7.173   3.601 -0.9360  0.6572 -0.6274
  136MOL0     C17886   1.455   7.264   3.572  0.3570 -1.1232 -0.7799
  136MOL0     H17887   1.874   7.408   3.587 -0.8164 -0.0053  1.3319
  136MOL0     H17888   2.073   7.541   3.541 -0.1427 -0.5323  0.7093
  136MOL0     H17889   2.140   7.817   3.679 -2.4685 -1.5146  1.2222
  136MOL0     H17890   1.993   7.905   3.666 -1.0990 -0.1111 -0.3439
  136MOL0     H17891   2.234   8.033   3.690  0.9855 -0.7558  0.0044
  136MOL0     H17892   2.136   8.085   3.542 -2.0119 -0.3471  1.7934
  136MOL0     H17893   2.285   7.962   3.397  2.0208  1.3801 -0.6252
  136MOL0     H17894   2.344   7.863   3.533 -2.2470 -1.6726 -1.2529
  136MOL0     H17895   2.391   8.164   3.492 -2.5711 -0.7489  2.0054
  136MOL0     H17896   2.438   8.077   3.638  0.3380 -1.6876  0.7813
  136MOL0     H17897   2.516   7.996   3.354  0.0104  1.5855 -1.5706
  136MOL0     H17898   2.601   7.942   3.505 -0.7002 -0.7482  0.2019
  136MOL0     H17899   2.697   8.148   3.554 -0.4516  0.2467  0.5815
  136MOL0     H17900   2.621   8.239   3.438  0.2928  0.5848  0.9857
  136MOL0     H17901   2.825   8.017   3.392  1.6574  0.3361 -0.5726
  136MOL0     H17902   2.739   8.085   3.258  0.4925  2.0949 -0.5255
  136MOL0     H17903   2.906   8.234   3.447  4.3069 -2.9535 -1.5730
  136MOL0     H17904   2.823   8.312   3.305 -0.8673  1.0847  1.3664
  136MOL0     H17905   3.128   8.139   3.406  2.1493  2.2891 -0.6513
  136MOL0     H17906   3.372   8.054   3.170  1.6014 -0.5314  1.6063
  136MOL0     H17907   3.263   7.918   3.102 -0.4630  2.8465 -1.8746
  136MOL0     H17908   3.220   7.897   3.362  0.9643  1.6322  2.5125
  136MOL0     H17909   3.386   7.972   3.366  1.2350  0.2610 -1.5869
  136MOL0     H17910   3.388   7.719   3.359 -0.5599 -1.9011 -1.4860
  136MOL0     H17911   3.316   7.728   3.198  2.1101 -3.7386  0.2165
  136MOL0     H17912   3.585   7.697   3.240 -1.1048 -0.3075  1.4258
  136MOL0     H17913   3.560   7.877   3.221 -3.0058  1.4746  1.6800
  136MOL0     H17914   3.775   7.719   3.094 -0.1557 -3.1257 -1.3260
  136MOL0     H17915   3.928   7.701   2.923  0.4396  0.4139 -0.5054
  136MOL0     H17916   4.022   7.870   2.449 -5.6007  1.9462  0.6279
  136MOL0     H17917   4.171   7.816   2.256  3.6036 -2.8176 -0.4791
  136MOL0     H17918   4.254   7.761   2.028 -1.2933  2.8496 -0.0042
  136MOL0     H17919   4.088   7.802   2.018  1.0613  1.0396  2.0062
  136MOL0     H17920   4.214   7.581   1.829  1.3753 -0.8011  2.2323
  136MOL0     H17921   4.211   7.752   1.802 -1.5181 -0.7933 -1.0438
  136MOL0     H17922   3.966   7.757   1.821  1.3227  0.9534 -0.0443
  136MOL0     H17923   3.962   7.583   1.858 -0.2616 -0.2052  0.1819
  136MOL0     H17924   4.046   7.742   1.592 -0.3528  1.1739  2.4082
  136MOL0     H17925   4.095   7.584   1.614  3.0404  0.3495  4.7956
  136MOL0     H17926   3.804   7.697   1.602 -1.0795 -1.6025  1.0456
  136MOL0     H17927   3.843   7.530   1.652 -3.0905 -0.3083 -1.7819
  136MOL0     H17928   3.982   7.525   1.415 -0.4313  0.1597 -0.7596
  136MOL0     H17929   3.894   7.655   1.369  0.7161 -0.9340 -1.9428
  136MOL0     H17930   3.762   7.471   1.291 -0.6227 -2.8062  0.0586
  136MOL0     H17931   3.775   7.392   1.448 -1.5199 -0.5410 -1.7493
  136MOL0     H17932   3.621   7.553   1.548  0.5035 -0.6643  0.8358
  136MOL0     H17933   3.553   7.485   1.402 -0.4935 -1.6813  2.1810
  136MOL0     H17934   3.951   7.450   2.185 -3.0581  1.9896 -1.7418
  136MOL0     H17935   3.803   7.503   2.380 -2.2539  2.1316  2.7367
  136MOL0     H17936   3.616   7.800   2.645  1.2636 -3.0978 -1.6023
  136MOL0     H17937   3.448   7.821   2.820  0.7515  2.4565 -1.9600
  136MOL0     H17938   1.803   7.876   3.460 -0.0612 -0.9758 -2.7822
  136MOL0     H17939   1.621   7.702   3.451  0.6724  1.1439 -0.4226
  136MOL0     H17940   1.309   7.399   3.293  1.8312  0.8740 -0.6249
  136MOL0     H17941   1.139   7.246   3.362  1.0367  1.0798 -0.1509
  136MOL0     H17942   1.107   7.018   3.366 -1.7689 -1.1017 -1.7359
  136MOL0     H17943   0.976   7.101   3.475 -2.2459 -1.9645  1.6513
  136MOL0     H17944   1.052   6.817   3.471 -1.3608  0.1918  3.2124
  136MOL0     H17945   0.944   6.898   3.592 -1.7550 -1.4917 -0.4266
  136MOL0     H17946   0.875   6.945   3.309 -0.8236 -1.8605 -1.3470
  136MOL0     H17947   0.784   6.952   3.449  1.5250  3.2162 -0.5622
  136MOL0     H17948   0.894   6.683   3.364 -0.4970  0.4164 -2.2999
  136MOL0     H17949   0.783   6.719   3.504  0.2384  1.3293 -0.9575
  136MOL0     H17950   0.554   6.644   3.157 -0.7231  1.2072  0.5101
  136MOL0     H17951   1.380   7.108   3.686 -2.4498  0.3792 -0.5243
  136MOL0     H17952   1.546   7.274   3.631  2.6360 -0.0806 -4.1749
  137MOL0     O17953   8.006   5.673   7.562 -0.6465  1.0332 -0.7935
  137MOL0     C17954   7.965   5.785   7.586  0.8533  0.6029 -0.3505
  137MOL0     O17955   8.005   5.899   7.524  0.6016  0.3576 -0.3003
  137MOL0     C17956   8.104   5.903   7.430  0.7476 -0.2956 -0.6427
  137MOL0     C17957   8.099   6.015   7.342 -0.1149 -0.1481 -0.4780
  137MOL0     C17958   8.197   6.036   7.248 -0.3196  0.7542  0.2098
  137MOL0     C17959   8.303   5.940   7.224 -0.2924  0.9903  0.3058
  137MOL0     O17960   8.395   5.949   7.117 -0.1376  0.3427  0.6477
  137MOL0     C17961   8.476   6.071   7.108  0.1300 -0.0574  0.3414
  137MOL0     C17962   8.443   6.150   6.985 -0.9528  0.1017 -0.4858
  137MOL0     C17963   8.575   6.212   6.936  1.0697 -0.8574 -0.3525
  137MOL0     C17964   8.547   6.320   6.826 -0.5284  0.2962 -0.8516
  137MOL0     C17965   8.666   6.323   6.730 -1.1926 -0.3302 -0.5013
  137MOL0     C17966   8.799   6.373   6.796 -0.1720  1.1029 -0.0226
  137MOL0     C17967   8.913   6.391   6.691 -0.0888  0.4089 -1.1873
  137MOL0     C17968   9.046   6.421   6.764  0.4994 -0.6970 -0.3464
  137MOL0     N17969   9.158   6.420   6.666 -0.5913  0.8536 -0.1971
  137MOL0     C17970   9.206   6.529   6.593  0.5098  0.3751 -0.1109
  137MOL0     C17971   9.324   6.489   6.548 -1.5607 -0.5191  0.1122
  137MOL0     C17972   9.424   6.561   6.451  0.2177 -0.0504  0.2575
  137MOL0     C17973   9.359   6.620   6.328  0.0879 -0.0356  0.5281
  137MOL0     C17974   9.284   6.512   6.255  0.8662  0.3690 -0.0996
  137MOL0     C17975   9.190   6.569   6.141 -0.2201  0.6392 -0.1479
  137MOL0     O17976   9.111   6.468   6.072  0.7649  0.3160 -0.5240
  137MOL0     C17977   8.983   6.422   6.112 -0.6012 -0.0454 -0.4639
  137MOL0     C17978   8.934   6.313   6.041  0.0131 -0.1499  0.4447
  137MOL0     C17979   8.818   6.251   6.061  0.0148 -1.0691  0.5299
  137MOL0     C17980   8.741   6.280   6.179 -0.1206 -0.9521  0.4091
  137MOL0     C17981   8.618   6.212   6.206  0.8937 -0.9200 -0.1500
  137MOL0     O17982   8.562   6.148   6.098  0.3711  0.2919 -0.4402
  137MOL0     C17983   8.444   6.085   6.109 -0.1779  0.0660 -0.2446
  137MOL0     C17984   8.336   6.125   6.044  0.9323 -0.1296 -0.0988
  137MOL0     C17985   8.205   6.066   6.064 -0.3725 -0.2427 -0.3712
  137MOL0     C17986   8.202   5.957   6.147  0.2205 -1.2163  0.9067
  137MOL0     O17987   8.076   5.889   6.162 -0.3614 -0.6213  0.1408
  137MOL0     C17988   7.948   5.957   6.135 -0.5890  0.5512 -0.5573
  137MOL0     C17989   7.828   5.865   6.156 -0.2954  0.0590  0.3231
  137MOL0     C17990   7.836   5.728   6.073  0.3166  0.2783 -0.5287
  137MOL0     C17991   7.894   5.722   5.933  0.3733 -0.4731 -0.7213
  137MOL0     C17992   7.887   5.589   5.848  0.4765 -0.5247 -0.6696
  137MOL0     C17993   7.968   5.607   5.720  0.0080  0.5663 -0.4466
  137MOL0     C17994   7.949   5.497   5.616 -0.2530  0.2219 -0.9130
  137MOL0     C17995   7.918   5.543   5.472  0.7824 -0.2202 -0.6001
  137MOL0    Cl17996   7.947   5.414   5.350  0.2573 -0.0791  0.1301
  137MOL0     C17997   8.316   5.911   6.217  0.3410 -0.0219  1.0704
  137MOL0     C17998   8.431   5.984   6.194 -0.0276 -0.5566 -1.4169
  137MOL0     O17999   8.569   6.218   6.321  0.6865 -0.8715  0.5873
  137MOL0     C18000   8.792   6.392   6.254  0.9250 -0.8059 -0.0587
  137MOL0     C18001   8.913   6.457   6.232  0.2930 -0.3491 -1.0750
  137MOL0     N18002   9.342   6.356   6.574 -0.4399  0.2298 -0.1634
  137MOL0     N18003   9.246   6.314   6.645  1.1731  0.6008  0.4912
  137MOL0     C18004   8.313   5.832   7.317 -0.8062 -0.3438 -0.4845
  137MOL0     C18005   8.220   5.828   7.426 -0.1973 -0.0090  0.3065
  137MOL0     C18006   7.860   5.801   7.688  0.1840 -0.4405  0.5819
  137MOL0     C18007   7.839   5.708   7.791  1.0913 -0.4018 -0.8812
  137MOL0     C18008   7.739   5.725   7.882 -0.6188 -0.2504  0.4369
  137MOL0     C18009   7.655   5.834   7.880  0.2141 -0.0071  0.6129
  137MOL0     O18010   7.549   5.865   7.962  0.0700  0.2970 -0.1574
  137MOL0     C18011   7.506   5.760   8.044 -0.0458  0.1507 -0.6732
  137MOL0     C18012   7.370   5.789   8.106  0.2497  0.3548  0.7741
  137MOL0     C18013   7.370   5.931   8.164  1.5164 -0.4752 -1.0627
  137MOL0     C18014   7.231   5.944   8.221  0.7047  0.7299 -0.7085
  137MOL0     C18015   7.192   6.090   8.234  0.0703 -0.6021 -0.5874
  137MOL0     C18016   7.177   6.206   8.258 -1.7680 -0.1283  0.0529
  137MOL0     C18017   7.661   5.933   7.778 -0.6148  0.3602 -0.2560
  137MOL0     C18018   7.761   5.909   7.681 -0.7257  0.1910 -0.1817
  137MOL0     H18019   8.014   6.082   7.342  1.0358  1.3697 -1.2855
  137MOL0     H18020   8.180   6.116   7.176 -1.5121 -0.5205 -0.9856
  137MOL0     H18021   8.582   6.045   7.109  1.5433  4.7713  0.7843
  137MOL0     H18022   8.477   6.145   7.189 -1.0704 -0.8639  1.1350
  137MOL0     H18023   8.376   6.231   7.013  1.3514  0.9880  3.2377
  137MOL0     H18024   8.394   6.094   6.905 -1.6380  1.2387 -0.8822
  137MOL0     H18025   8.647   6.135   6.904  1.2312  0.2791 -3.0084
  137MOL0     H18026   8.621   6.259   7.023 -0.9137  0.0647  0.2598
  137MOL0     H18027   8.460   6.289   6.768  0.6526 -0.3100 -2.3876
  137MOL0     H18028   8.543   6.421   6.868 -0.3585  1.0937 -2.6557
  137MOL0     H18029   8.646   6.389   6.645 -1.5801 -1.7823 -1.5545
  137MOL0     H18030   8.679   6.225   6.684 -0.7973 -1.4219  1.7622
  137MOL0     H18031   8.831   6.308   6.878  1.9451  0.3805 -1.3325
  137MOL0     H18032   8.768   6.472   6.829  1.2746  2.5460 -2.6682
  137MOL0     H18033   8.918   6.306   6.624  0.4915  1.3050 -2.3131
  137MOL0     H18034   8.887   6.468   6.619  1.6758  0.4040 -1.8829
  137MOL0     H18035   9.065   6.346   6.841  3.7686  1.0342  0.6845
  137MOL0     H18036   9.037   6.518   6.812 -0.2488 -0.4148 -1.0300
  137MOL0     H18037   9.166   6.628   6.573  0.2060  0.6107  1.5515
  137MOL0     H18038   9.500   6.486   6.428  0.3858 -0.3694  1.7669
  137MOL0     H18039   9.467   6.646   6.505  3.0880 -0.3468 -1.3551
  137MOL0     H18040   9.440   6.661   6.266  0.9857  0.2814  1.8684
  137MOL0     H18041   9.291   6.702   6.350 -0.7434 -0.0154 -1.8341
  137MOL0     H18042   9.352   6.436   6.214 -0.6583 -0.5969 -0.9450
  137MOL0     H18043   9.216   6.453   6.318  0.2598 -0.1483 -1.2003
  137MOL0     H18044   9.256   6.609   6.063  0.9088  0.7020  0.8100
  137MOL0     H18045   9.131   6.650   6.186  1.3117  1.5233  0.3575
  137MOL0     H18046   8.988   6.284   5.951  0.1945  2.3679 -0.3349
  137MOL0     H18047   8.777   6.179   5.991  2.6755  0.0534 -2.3954
  137MOL0     H18048   8.329   6.195   5.961 -3.5675 -3.9562 -3.5057
  137MOL0     H18049   8.115   6.108   6.021 -1.3422 -1.4330  0.4398
  137MOL0     H18050   7.943   6.005   6.036  1.8011  3.6429  0.6607
  137MOL0     H18051   7.927   6.036   6.208  2.1025 -0.4994  1.5005
  137MOL0     H18052   7.736   5.918   6.129 -1.0535 -0.7126  1.2975
  137MOL0     H18053   7.824   5.844   6.264 -1.1840  0.7896  0.4407
  137MOL0     H18054   7.737   5.680   6.078  0.0508  0.8791  0.0403
  137MOL0     H18055   7.888   5.653   6.133 -2.2057 -1.1242  0.0576
  137MOL0     H18056   7.848   5.797   5.868  0.2730 -0.1553 -0.2902
  137MOL0     H18057   8.001   5.738   5.948  0.6297 -2.6495 -0.0136
  137MOL0     H18058   7.785   5.573   5.812 -0.1288 -0.6100  0.9932
  137MOL0     H18059   7.912   5.507   5.915  0.7680  1.3172  1.5889
  137MOL0     H18060   8.075   5.626   5.733  0.1294 -0.2029 -0.2592
  137MOL0     H18061   7.929   5.697   5.672  2.4755  1.7435 -0.3941
  137MOL0     H18062   8.039   5.436   5.626 -1.2323 -1.0824  7.0425
  137MOL0     H18063   7.869   5.433   5.656  0.8700  0.1104  1.3418
  137MOL0     H18064   7.972   5.636   5.449 -2.1594  1.9295  0.5778
  137MOL0     H18065   7.812   5.567   5.465  0.4677 -1.5878 -0.7504
  137MOL0     H18066   8.296   5.831   6.288 -2.0099 -2.7691 -2.3649
  137MOL0     H18067   8.523   5.973   6.251  1.3708  4.7902 -2.0671
  137MOL0     H18068   8.727   6.437   6.328 -0.0929  1.4936 -2.1949
  137MOL0     H18069   8.954   6.539   6.290 -1.4468 -1.5573  2.1586
  137MOL0     H18070   8.383   5.752   7.297  1.6893  1.7462 -0.6644
  137MOL0     H18071   8.229   5.746   7.497  1.2580 -1.0099 -0.9515
  137MOL0     H18072   7.912   5.629   7.796 -1.1121 -2.5433  3.5744
  137MOL0     H18073   7.730   5.649   7.959 -0.0329  0.2493  1.0067
  137MOL0     H18074   7.584   5.741   8.117  0.7349  2.9394 -0.6431
  137MOL0     H18075   7.501   5.677   7.973  0.5507  0.7438 -1.4238
  137MOL0     H18076   7.298   5.792   8.024  2.5464  1.9567 -1.3831
  137MOL0     H18077   7.348   5.714   8.182  1.9275 -0.3114  0.6499
  137MOL0     H18078   7.370   6.000   8.079  1.7724  0.2120 -0.5199
  137MOL0     H18079   7.453   5.958   8.231 -1.3932  2.6217  1.6761
  137MOL0     H18080   7.153   5.885   8.171  1.3428 -1.0250  0.3150
  137MOL0     H18081   7.231   5.906   8.323 -0.0389 -0.8824 -1.2776
  137MOL0     H18082   7.168   6.309   8.282 -1.6677 -0.6025  2.3181
  137MOL0     H18083   7.585   6.010   7.772 -0.4741  0.4493 -0.9685
  137MOL0     H18084   7.779   5.977   7.598  0.3321 -0.7588 -0.7569
  138MOL0     O18085   3.169   6.781   0.063  0.6788  0.6453  0.1306
  138MOL0     C18086   3.282   6.784   0.112  0.8970  0.4652 -0.6264
  138MOL0     O18087   3.388   6.724   0.062 -0.4675  0.5039  0.5722
  138MOL0     C18088   3.361   6.602  -0.007 -0.3257 -1.4306 -0.2987
  138MOL0     C18089   3.396   6.473   0.048  0.7417 -0.5503 -0.6354
  138MOL0     C18090   3.387   6.356  -0.031  0.4194  0.1052 -0.7836
  138MOL0     C18091   3.316   6.365  -0.153  0.2134 -0.1104  0.7056
  138MOL0     O18092   3.319   6.248  -0.230 -0.1507 -1.0336 -0.1398
  138MOL0     C18093   3.229   6.141  -0.197  0.3394 -0.4501 -0.3113
  138MOL0     C18094   3.226   6.036  -0.307  0.0736  0.1119 -0.0896
  138MOL0     C18095   3.357   5.957  -0.297  0.4674  0.5614  0.3118
  138MOL0     C18096   3.348   5.844  -0.197  0.7164  0.5559 -0.5369
  138MOL0     C18097   3.490   5.792  -0.196  0.5190  1.0764  0.0564
  138MOL0     C18098   3.513   5.682  -0.096 -0.0676  0.4764 -0.4644
  138MOL0     C18099   3.658   5.632  -0.096  0.1224 -0.0073  0.1051
  138MOL0     C18100   3.677   5.486  -0.055  0.7363  0.9974 -0.2245
  138MOL0     N18101   3.639   5.400  -0.162  0.1856 -0.0402  0.0055
  138MOL0     C18102   3.737   5.344  -0.243  0.1795 -0.4324 -0.2645
  138MOL0     C18103   3.669   5.277  -0.335  0.1789 -0.8599  0.8663
  138MOL0     C18104   3.715   5.181  -0.441  0.7268 -0.5475 -0.2077
  138MOL0     C18105   3.722   5.241  -0.591  0.2811  0.4487 -0.2395
  138MOL0     C18106   3.831   5.343  -0.620  0.1812 -0.5301  0.6479
  138MOL0     C18107   3.790   5.479  -0.589 -0.6175 -0.6016  0.0541
  138MOL0     O18108   3.894   5.579  -0.594  0.0642 -0.2277  0.7261
  138MOL0     C18109   3.964   5.618  -0.487  0.3539  0.0494 -0.4176
  138MOL0     C18110   4.048   5.533  -0.400 -0.0494 -0.0694  0.7057
  138MOL0     C18111   4.139   5.584  -0.307  0.4199  0.9423  0.4892
  138MOL0     C18112   4.141   5.719  -0.280 -0.3471 -0.7073  0.6848
  138MOL0     C18113   4.237   5.775  -0.180 -1.1848 -0.6501 -0.1170
  138MOL0     O18114   4.347   5.696  -0.152  0.2333 -0.8213  0.9982
  138MOL0     C18115   4.451   5.747  -0.080  0.1922  0.4672 -0.0480
  138MOL0     C18116   4.564   5.799  -0.147 -0.3780  0.1042  0.3035
  138MOL0     C18117   4.677   5.847  -0.076 -0.0757  0.4407  0.0673
  138MOL0     C18118   4.686   5.844   0.065  0.1570 -0.8104  0.8118
  138MOL0     O18119   4.792   5.884   0.139 -0.6096  0.0225  0.2031
  138MOL0     C18120   4.919   5.897   0.065  0.0179 -0.7518  0.1816
  138MOL0     C18121   5.028   5.966   0.157 -0.6486  0.5257 -0.2139
  138MOL0     C18122   5.097   5.877   0.255 -0.2451 -0.4551  0.9445
  138MOL0     C18123   5.196   5.775   0.208  0.0843  0.0244 -0.8319
  138MOL0     C18124   5.269   5.698   0.319 -0.7689  0.1849 -0.0422
  138MOL0     C18125   5.385   5.776   0.390  0.7048 -0.7160  0.2386
  138MOL0     C18126   5.455   5.706   0.501 -0.4517 -0.7081 -0.5034
  138MOL0     C18127   5.478   5.556   0.466  0.4514 -0.0417  0.6544
  138MOL0    Cl18128   5.558   5.525   0.310  0.1948 -0.3468  0.5981
  138MOL0     C18129   4.568   5.800   0.127  0.7743 -0.5671 -0.3754
  138MOL0     C18130   4.455   5.740   0.053 -0.4726  0.2599  0.1880
  138MOL0     O18131   4.214   5.877  -0.127 -0.2464  0.3787 -0.7653
  138MOL0     C18132   4.061   5.800  -0.355 -0.4349 -0.2853 -1.5986
  138MOL0     C18133   3.977   5.752  -0.458 -0.1699 -0.2656  0.0085
  138MOL0     N18134   3.533   5.292  -0.313 -0.1456  0.5205  0.5350
  138MOL0     N18135   3.511   5.366  -0.201 -0.2628  0.4530 -0.1083
  138MOL0     C18136   3.261   6.493  -0.198 -0.6259  0.1815 -0.3406
  138MOL0     C18137   3.296   6.611  -0.132  0.2418  0.2053  0.5127
  138MOL0     C18138   3.272   6.819   0.255  0.1710  0.5548  0.1063
  138MOL0     C18139   3.391   6.815   0.331  0.3168 -0.3620 -0.3061
  138MOL0     C18140   3.384   6.851   0.464 -0.6050 -0.9868  0.0313
  138MOL0     C18141   3.267   6.894   0.522  0.5015 -0.8889  0.1546
  138MOL0     O18142   3.254   6.946   0.646 -0.5170  0.4992 -0.9101
  138MOL0     C18143   3.374   6.975   0.728 -0.0887 -0.1117  0.1117
  138MOL0     C18144   3.415   6.861   0.813  0.3159  0.3241  0.5920
  138MOL0     C18145   3.319   6.825   0.925 -0.0967  0.3816  0.5567
  138MOL0     C18146   3.389   6.737   1.026 -0.3604 -0.0161  0.7450
  138MOL0     C18147   3.436   6.604   0.965  0.0963  0.0056 -0.3190
  138MOL0     C18148   3.470   6.498   0.915 -0.0334  0.0248  0.0896
  138MOL0     C18149   3.147   6.893   0.445 -0.9890 -0.6864 -0.1424
  138MOL0     C18150   3.148   6.853   0.313  0.0630  0.0439 -0.0094
  138MOL0     H18151   3.473   6.469   0.125  1.7759 -0.7026 -1.6394
  138MOL0     H18152   3.421   6.256  -0.004 -0.4973 -0.1519 -0.5292
  138MOL0     H18153   3.127   6.180  -0.183  1.0260  1.6105 -0.7705
  138MOL0     H18154   3.272   6.095  -0.107  2.9264  0.9856 -0.7450
  138MOL0     H18155   3.220   6.087  -0.403 -1.6171  0.8375  0.3617
  138MOL0     H18156   3.134   5.979  -0.286  0.5915  0.1752  2.8242
  138MOL0     H18157   3.439   6.023  -0.270  2.9675 -1.2317 -2.2169
  138MOL0     H18158   3.390   5.913  -0.392  2.7544 -3.2819  2.5925
  138MOL0     H18159   3.309   5.884  -0.103  0.0315  1.5827 -1.2413
  138MOL0     H18160   3.274   5.774  -0.237  1.4448 -0.2000 -0.5851
  138MOL0     H18161   3.559   5.868  -0.159 -0.0436  2.3162 -1.3383
  138MOL0     H18162   3.532   5.755  -0.290  0.3159  0.2221  0.2943
  138MOL0     H18163   3.442   5.605  -0.126  1.1337 -0.5434 -0.7576
  138MOL0     H18164   3.494   5.704   0.010 -0.5363 -2.8992  0.2592
  138MOL0     H18165   3.701   5.631  -0.197  0.3724 -1.9630  0.1867
  138MOL0     H18166   3.713   5.693  -0.024 -0.4053  0.1550  0.3712
  138MOL0     H18167   3.628   5.478   0.043 -2.4783 -2.1323 -1.8673
  138MOL0     H18168   3.783   5.465  -0.041  0.3107 -0.2394  1.5184
  138MOL0     H18169   3.843   5.352  -0.224 -0.0380 -2.4550  2.3900
  138MOL0     H18170   3.661   5.086  -0.435 -3.5449  1.6593  0.1822
  138MOL0     H18171   3.813   5.140  -0.417  1.5966  1.4931 -0.0079
  138MOL0     H18172   3.630   5.290  -0.621  1.4779  2.3307 -0.9744
  138MOL0     H18173   3.747   5.159  -0.659  1.3205 -0.5133  1.2441
  138MOL0     H18174   3.928   5.332  -0.572  1.8357  1.6528 -1.9636
  138MOL0     H18175   3.837   5.348  -0.729 -0.3800  2.8361  0.6638
  138MOL0     H18176   3.753   5.481  -0.486  0.2675  0.2821  0.3670
  138MOL0     H18177   3.714   5.508  -0.663  0.5279  0.3628 -0.7897
  138MOL0     H18178   4.060   5.431  -0.434 -1.5551 -0.9835  2.6920
  138MOL0     H18179   4.184   5.499  -0.257 -1.6545 -2.2052 -2.5011
  138MOL0     H18180   4.570   5.783  -0.254  2.0006  1.4192  0.1815
  138MOL0     H18181   4.760   5.885  -0.136  0.7426  1.9717  2.0450
  138MOL0     H18182   4.915   5.969  -0.018  1.7833 -0.4726  0.3106
  138MOL0     H18183   4.956   5.800   0.032 -3.0582 -3.9387  4.8392
  138MOL0     H18184   4.990   6.055   0.208 -2.2085 -0.9203  1.2607
  138MOL0     H18185   5.106   5.999   0.088  2.0508  1.1057  2.9199
  138MOL0     H18186   5.030   5.821   0.320  0.9102 -1.6578  1.1393
  138MOL0     H18187   5.158   5.938   0.321  3.1034 -1.6505 -0.8081
  138MOL0     H18188   5.143   5.697   0.153  0.1790 -0.5108 -0.1709
  138MOL0     H18189   5.256   5.830   0.135 -2.6509  0.7719 -2.6590
  138MOL0     H18190   5.318   5.620   0.260  1.9069  2.5470 -1.1869
  138MOL0     H18191   5.210   5.650   0.398  0.8341 -1.3002  0.3243
  138MOL0     H18192   5.340   5.855   0.451  4.5009  0.7497  1.4161
  138MOL0     H18193   5.462   5.810   0.320 -0.9784 -1.8545 -2.3271
  138MOL0     H18194   5.548   5.750   0.538 -2.5147  2.5179  1.2762
  138MOL0     H18195   5.374   5.708   0.575 -0.3218  0.1658 -0.3829
  138MOL0     H18196   5.379   5.509   0.467 -0.2894  1.4234  1.8635
  138MOL0     H18197   5.523   5.500   0.549 -1.0286 -1.2495  0.6919
  138MOL0     H18198   4.565   5.795   0.235 -1.7475  0.0276 -0.3696
  138MOL0     H18199   4.381   5.697   0.119 -1.0304 -1.5108 -1.4927
  138MOL0     H18200   4.056   5.908  -0.339 -3.6691 -0.5920  0.4748
  138MOL0     H18201   3.916   5.821  -0.515 -1.2958 -0.2168  1.2283
  138MOL0     H18202   3.201   6.500  -0.288  0.3472  1.5207 -0.9141
  138MOL0     H18203   3.263   6.709  -0.167 -1.1095 -0.8345 -1.3232
  138MOL0     H18204   3.488   6.793   0.289 -1.0163 -1.0381 -3.3075
  138MOL0     H18205   3.478   6.855   0.517  0.2432  0.5672 -1.4862
  138MOL0     H18206   3.336   7.055   0.793 -0.4333 -1.2336  1.3292
  138MOL0     H18207   3.451   7.019   0.664  0.6009  2.1980  2.3293
  138MOL0     H18208   3.444   6.776   0.751  1.5935 -0.9176  2.7569
  138MOL0     H18209   3.513   6.889   0.855  0.7739 -2.1853  1.3697
  138MOL0     H18210   3.232   6.770   0.889  0.1158 -1.8617  3.1151
  138MOL0     H18211   3.285   6.915   0.978  0.8712  0.8357  0.4385
  138MOL0     H18212   3.473   6.788   1.074  0.8262 -0.4924 -0.7242
  138MOL0     H18213   3.313   6.722   1.103 -0.2725 -1.1076  0.6395
  138MOL0     H18214   3.485   6.401   0.872 -1.2112 -1.4160  2.7186
  138MOL0     H18215   3.067   6.931   0.508 -0.9443 -2.7859  1.3007
  138MOL0     H18216   3.048   6.856   0.270 -0.7555  3.2899  1.7362
  139MOL0     O18217   6.070  11.164   9.757  0.3932  0.5514 -0.2209
  139MOL0     C18218   6.066  11.183   9.638 -1.0312 -0.8299 -0.1991
  139MOL0     O18219   6.178  11.180   9.562 -0.1318  0.5414  0.6591
  139MOL0     C18220   6.308  11.167   9.601 -0.2011 -0.8227  0.8673
  139MOL0     C18221   6.400  11.152   9.494 -1.1292 -0.2916 -0.0481
  139MOL0     C18222   6.537  11.117   9.520 -0.5197  0.1182  0.1283
  139MOL0     C18223   6.588  11.130   9.647  0.4231  0.5398 -0.3388
  139MOL0     O18224   6.722  11.131   9.653 -0.1555  0.8885 -0.1066
  139MOL0     C18225   6.790  11.144   9.780 -0.3870 -0.7315 -0.2557
  139MOL0     C18226   6.942  11.118   9.768 -0.2074  1.2211 -0.0686
  139MOL0     C18227   6.996  11.201   9.671 -1.0053 -0.2482 -0.3592
  139MOL0     C18228   7.150  11.175   9.655 -0.5198 -0.0116  0.0268
  139MOL0     C18229   7.221  11.241   9.534  1.0912  0.1668  0.2721
  139MOL0     C18230   7.200  11.389   9.540  0.5014  0.6700 -0.2063
  139MOL0     C18231   7.283  11.464   9.445 -0.3038 -0.4213 -0.0530
  139MOL0     C18232   7.326  11.620   9.464  0.1603  0.1258 -0.3786
  139MOL0     N18233   7.218  11.714   9.477  0.0091 -0.5852 -0.3014
  139MOL0     C18234   7.108  11.725   9.563 -0.2867  0.2963  0.1963
  139MOL0     C18235   7.036  11.828   9.513 -0.9815  0.4537 -0.7859
  139MOL0     C18236   6.910  11.874   9.580  0.0394 -0.0425 -0.4322
  139MOL0     C18237   6.789  11.831   9.505  1.1351 -0.1956  1.4263
  139MOL0     C18238   6.781  11.917   9.374  0.4790  0.3747  0.5638
  139MOL0     C18239   6.731  12.059   9.396  0.1487 -0.1524  0.6280
  139MOL0     O18240   6.612  12.067   9.472 -0.5288 -0.5245 -0.3531
  139MOL0     C18241   6.499  12.035   9.406  0.6185 -0.2331  0.2437
  139MOL0     C18242   6.475  11.954   9.288 -0.0618  0.0810 -0.1285
  139MOL0     C18243   6.347  11.904   9.248 -0.5738  0.1937 -0.9176
  139MOL0     C18244   6.238  11.954   9.309  0.2153  1.1685 -1.0189
  139MOL0     C18245   6.098  11.922   9.267  1.6507 -0.5144 -0.0560
  139MOL0     O18246   6.070  11.810   9.201  0.2321 -0.4927 -0.4498
  139MOL0     C18247   5.933  11.779   9.180 -0.1820  0.4736 -0.3810
  139MOL0     C18248   5.851  11.839   9.085  0.7975  0.1913  0.2286
  139MOL0     C18249   5.715  11.811   9.079 -0.1879 -0.4462 -0.0243
  139MOL0     C18250   5.659  11.721   9.170  0.9136  0.6278  0.5043
  139MOL0     O18251   5.524  11.699   9.166 -0.7893  0.9387  0.9480
  139MOL0     C18252   5.493  11.575   9.100 -0.1868 -0.3873  0.4345
  139MOL0     C18253   5.342  11.553   9.086 -0.9635  0.3635  0.1215
  139MOL0     C18254   5.265  11.667   9.035  0.7642  0.1115  0.6594
  139MOL0     C18255   5.273  11.690   8.886  0.2190  0.2534  0.0894
  139MOL0     C18256   5.186  11.819   8.857 -0.1234 -0.0879  0.7442
  139MOL0     C18257   5.032  11.804   8.877  0.8248  0.0381  0.3204
  139MOL0     C18258   4.959  11.944   8.876  0.2660  0.1458 -0.2341
  139MOL0     C18259   4.807  11.919   8.910 -0.4915  0.9215 -0.1973
  139MOL0    Cl18260   4.733  12.071   8.953 -0.0734 -0.2981 -0.3834
  139MOL0     C18261   5.739  11.668   9.271  0.0610 -0.2998  0.5290
  139MOL0     C18262   5.875  11.693   9.272 -0.5880 -0.0164 -0.1856
  139MOL0     O18263   6.006  11.999   9.306 -0.5862 -0.4258  0.5235
  139MOL0     C18264   6.248  12.033   9.425  0.0503 -0.6101 -0.9701
  139MOL0     C18265   6.373  12.074   9.459 -0.3491  0.3983  0.4419
  139MOL0     N18266   7.100  11.880   9.402 -0.2127  0.1128 -0.0307
  139MOL0     N18267   7.212  11.809   9.385  0.7943  0.2580  0.8630
  139MOL0     C18268   6.498  11.155   9.747 -0.1321  0.0497 -1.4395
  139MOL0     C18269   6.361  11.174   9.737 -0.8058  0.0825 -0.0451
  139MOL0     C18270   5.940  11.221   9.562 -0.5578 -0.1273 -0.8825
  139MOL0     C18271   5.824  11.235   9.641 -0.3426 -0.0858  0.3881
  139MOL0     C18272   5.703  11.275   9.584 -0.1564  0.4368 -0.3064
  139MOL0     C18273   5.705  11.314   9.451 -0.0649 -0.2249 -0.4901
  139MOL0     O18274   5.599  11.380   9.391  0.0555 -0.1752  0.0504
  139MOL0     C18275   5.468  11.371   9.449 -0.1688  0.4382  0.5853
  139MOL0     C18276   5.405  11.233   9.426 -0.5955 -0.5061 -0.8093
  139MOL0     C18277   5.350  11.216   9.285  0.2469 -0.4772  0.0483
  139MOL0     C18278   5.315  11.077   9.246 -0.6610 -0.3306  1.0111
  139MOL0     C18279   5.247  11.090   9.118  1.0026 -1.0601  0.4575
  139MOL0     C18280   5.172  11.094   9.026 -0.2351 -0.2231 -0.1189
  139MOL0     C18281   5.819  11.301   9.370 -1.2793 -0.1374  0.1635
  139MOL0     C18282   5.946  11.247   9.425 -0.1772  0.1449 -1.0525
  139MOL0     H18283   6.360  11.134   9.395 -2.2737 -2.7072  0.7844
  139MOL0     H18284   6.595  11.077   9.437  0.5853 -0.1562  1.0118
  139MOL0     H18285   6.754  11.080   9.862  1.2159  1.0447  1.9552
  139MOL0     H18286   6.772  11.245   9.816 -4.4838 -1.5438  0.5508
  139MOL0     H18287   6.954  11.017   9.727  1.4756  0.9924  0.8860
  139MOL0     H18288   6.985  11.132   9.867  0.5757  2.0648 -0.5198
  139MOL0     H18289   6.973  11.303   9.702 -2.2224 -0.9917  1.2764
  139MOL0     H18290   6.962  11.175   9.570  1.0738 -2.6091 -0.5588
  139MOL0     H18291   7.207  11.198   9.745  1.0271  1.2650 -1.1954
  139MOL0     H18292   7.156  11.066   9.648  4.3211 -0.1276  1.8205
  139MOL0     H18293   7.175  11.192   9.447  0.3290  0.6792  0.3726
  139MOL0     H18294   7.325  11.214   9.515  1.8461  0.2459  3.6963
  139MOL0     H18295   7.215  11.425   9.642 -2.7312 -1.4798  1.1850
  139MOL0     H18296   7.092  11.396   9.523 -0.7623 -1.7972  4.8012
  139MOL0     H18297   7.379  11.411   9.451 -0.4047 -0.3864  3.4255
  139MOL0     H18298   7.240  11.454   9.344 -1.4643  0.3630  0.3459
  139MOL0     H18299   7.392  11.661   9.387  0.8984 -2.0281 -0.9860
  139MOL0     H18300   7.378  11.621   9.561 -0.8026 -1.5638  0.1915
  139MOL0     H18301   7.086  11.651   9.639 -3.0189 -0.5952 -1.3133
  139MOL0     H18302   6.915  11.982   9.596  1.1517 -0.2283  0.6498
  139MOL0     H18303   6.904  11.825   9.677 -1.7670  0.4589 -0.2574
  139MOL0     H18304   6.705  11.842   9.575 -0.2155  2.7478 -0.4642
  139MOL0     H18305   6.797  11.726   9.476 -1.1268 -0.2993  0.9943
  139MOL0     H18306   6.880  11.935   9.331  0.0034  3.5840  0.5145
  139MOL0     H18307   6.725  11.853   9.306  2.3974 -0.5900 -0.1722
  139MOL0     H18308   6.713  12.111   9.302  1.7125  0.6055  0.7162
  139MOL0     H18309   6.816  12.109   9.443  0.8600 -3.2632  2.9717
  139MOL0     H18310   6.560  11.938   9.222  0.2004  0.9293 -0.0145
  139MOL0     H18311   6.338  11.841   9.159  1.3572  0.0650 -1.0694
  139MOL0     H18312   5.895  11.906   9.012  0.7659 -0.0032  0.0332
  139MOL0     H18313   5.660  11.876   9.013  1.1439  1.6519  0.8227
  139MOL0     H18314   5.545  11.485   9.132 -0.3568 -0.6235  0.0487
  139MOL0     H18315   5.525  11.587   8.996 -1.5287  0.7885  0.1145
  139MOL0     H18316   5.313  11.536   9.190  3.5824 -2.2596  1.2671
  139MOL0     H18317   5.321  11.460   9.033  1.5415 -0.7059  0.8470
  139MOL0     H18318   5.293  11.760   9.083 -0.4343  0.5266  0.5864
  139MOL0     H18319   5.165  11.634   9.066  1.9743 -2.3223  2.3968
  139MOL0     H18320   5.374  11.714   8.852 -0.5975  2.9104 -0.7034
  139MOL0     H18321   5.225  11.606   8.835 -1.6310 -1.2864  3.9756
  139MOL0     H18322   5.200  11.843   8.751 -5.1584 -1.5250 -0.5433
  139MOL0     H18323   5.224  11.900   8.920 -1.3890 -0.1462  1.6221
  139MOL0     H18324   5.014  11.755   8.973 -2.2590  1.3199  0.5349
  139MOL0     H18325   4.994  11.726   8.811  0.6208 -1.3658  2.0211
  139MOL0     H18326   5.011  12.001   8.953 -1.3813 -1.4614  2.2017
  139MOL0     H18327   4.961  11.999   8.781 -0.0440  2.1557  0.8747
  139MOL0     H18328   4.789  11.854   8.996 -0.4873 -0.6944 -1.3744
  139MOL0     H18329   4.750  11.863   8.836  0.3009  0.3276 -0.3718
  139MOL0     H18330   5.691  11.593   9.333  2.9704 -1.1322  1.9327
  139MOL0     H18331   5.949  11.647   9.338 -0.5292 -0.3870 -0.5049
  139MOL0     H18332   6.161  12.052   9.487  1.7826 -0.2271  1.5122
  139MOL0     H18333   6.397  12.131   9.548  0.1346  0.6269  0.1695
  139MOL0     H18334   6.537  11.181   9.845 -3.8774 -0.3737  0.3395
  139MOL0     H18335   6.302  11.192   9.826 -0.0245  2.0709  0.1266
  139MOL0     H18336   5.817  11.217   9.748 -1.7893 -1.0317  0.1547
  139MOL0     H18337   5.623  11.282   9.657  1.6588  2.3031  1.6385
  139MOL0     H18338   5.407  11.448   9.401  0.8802  1.3133  0.6166
  139MOL0     H18339   5.466  11.400   9.555 -2.3981 -1.0624  1.0324
  139MOL0     H18340   5.482  11.156   9.436 -2.7028 -2.8078 -1.2704
  139MOL0     H18341   5.319  11.227   9.494 -2.0149  0.5175 -2.4246
  139MOL0     H18342   5.428  11.249   9.215  0.9380 -3.7925 -0.9504
  139MOL0     H18343   5.266  11.283   9.266  0.7520 -0.3905 -2.1496
  139MOL0     H18344   5.399  11.009   9.230 -1.0482 -0.4653 -0.6550
  139MOL0     H18345   5.248  11.030   9.319 -0.3497 -2.6724 -0.1218
  139MOL0     H18346   5.105  11.113   8.944  0.9215  2.1779 -0.5931
  139MOL0     H18347   5.837  11.341   9.271 -0.6173  1.8741  1.0550
  139MOL0     H18348   6.039  11.259   9.371  0.4416  0.6642  0.1010
  140MOL0     O18349   5.151   0.566  11.079 -0.6575  0.5926 -0.5466
  140MOL0     C18350   5.158   0.445  11.088 -0.0919  0.1845 -0.0823
  140MOL0     O18351   5.074   0.359  11.019 -0.1295  0.1219 -1.2409
  140MOL0     C18352   5.028   0.395  10.900 -0.2541 -0.7311  0.4535
  140MOL0     C18353   4.928   0.485  10.886 -0.3313 -0.2542 -0.1277
  140MOL0     C18354   4.880   0.524  10.751 -0.2199  0.5354  1.1158
  140MOL0     C18355   4.929   0.462  10.634 -0.8461  0.2773 -0.3459
  140MOL0     O18356   4.868   0.487  10.507 -0.0771 -1.2291 -0.5892
  140MOL0     C18357   4.906   0.398  10.401  0.2909  0.4540 -0.5278
  140MOL0     C18358   4.820   0.419  10.274  0.2097  0.5074  0.2061
  140MOL0     C18359   4.670   0.389  10.313  0.2073  0.3197 -0.0106
  140MOL0     C18360   4.577   0.441  10.204 -0.2295  0.1290 -0.3334
  140MOL0     C18361   4.437   0.396  10.234 -0.6050 -1.2183 -0.5004
  140MOL0     C18362   4.341   0.435  10.121 -0.0043 -0.5291 -0.2033
  140MOL0     C18363   4.194   0.454  10.170 -0.5888 -0.1661 -0.2628
  140MOL0     C18364   4.090   0.419  10.054 -0.2203 -0.3905  0.0100
  140MOL0     N18365   4.083   0.534   9.966  0.4136 -0.2091  0.3754
  140MOL0     C18366   4.169   0.560   9.868  0.2170  0.2687  0.2384
  140MOL0     C18367   4.131   0.673   9.811  0.6730 -0.8588  0.2680
  140MOL0     C18368   4.183   0.761   9.697 -0.3194 -0.7103 -0.3158
  140MOL0     C18369   4.134   0.912   9.700  0.5866 -0.0698  0.3748
  140MOL0     C18370   4.237   1.005   9.630 -0.3300  0.2243 -0.5404
  140MOL0     C18371   4.193   1.152   9.618  0.0907  0.2945 -0.1514
  140MOL0     O18372   4.049   1.167   9.596  0.1592  0.0805  0.5617
  140MOL0     C18373   3.995   1.151   9.469  0.6245  0.5740 -0.0131
  140MOL0     C18374   3.851   1.179   9.461 -0.2655 -0.0120 -0.0605
  140MOL0     C18375   3.790   1.153   9.341 -0.2535 -0.1728 -0.1438
  140MOL0     C18376   3.863   1.110   9.233  0.4555  0.7056  0.4634
  140MOL0     C18377   3.802   1.087   9.099  0.2922 -1.3856 -0.6047
  140MOL0     O18378   3.692   1.164   9.082 -1.0544 -0.4147 -0.6879
  140MOL0     C18379   3.658   1.191   8.953  0.7135  0.1028  1.4766
  140MOL0     C18380   3.712   1.291   8.880 -1.3380 -0.6681  0.5732
  140MOL0     C18381   3.674   1.320   8.748  1.1365  0.0261 -0.4346
  140MOL0     C18382   3.573   1.259   8.681  0.4953 -0.5246  0.3633
  140MOL0     O18383   3.540   1.274   8.549  0.0320 -0.1819 -0.4808
  140MOL0     C18384   3.548   1.412   8.502  0.5139  0.3389  0.1169
  140MOL0     C18385   3.641   1.409   8.377 -0.1342 -0.7806  0.2361
  140MOL0     C18386   3.784   1.342   8.400  0.5984  0.8734  1.0782
  140MOL0     C18387   3.867   1.382   8.275  0.6374  1.3787 -0.3459
  140MOL0     C18388   3.994   1.304   8.239  0.6956  0.2324  1.2203
  140MOL0     C18389   4.101   1.300   8.349  0.4506  0.0125  0.0284
  140MOL0     C18390   4.235   1.254   8.284  0.0825 -0.0259 -0.1925
  140MOL0     C18391   4.359   1.257   8.377 -0.4451  0.9238 -0.2068
  140MOL0    Cl18392   4.403   1.426   8.435  0.0874  0.0961  0.0789
  140MOL0     C18393   3.505   1.159   8.764 -0.3680  0.6347  0.2633
  140MOL0     C18394   3.545   1.136   8.900  0.6485  0.6400  0.3564
  140MOL0     O18395   3.861   1.031   9.010 -0.1728 -0.1157  0.7671
  140MOL0     C18396   3.998   1.072   9.244  0.4943 -0.2758 -0.0899
  140MOL0     C18397   4.060   1.102   9.366 -0.0748 -0.5519  0.2108
  140MOL0     N18398   4.017   0.712   9.882 -0.7065  0.0890 -0.0469
  140MOL0     N18399   3.985   0.635   9.972 -0.5688  0.0986 -1.1631
  140MOL0     C18400   5.037   0.367  10.655 -0.3152  0.0629 -0.1396
  140MOL0     C18401   5.082   0.329  10.783  0.0468  0.3153 -0.0316
  140MOL0     C18402   5.249   0.387  11.181 -1.0437 -1.2540  0.3180
  140MOL0     C18403   5.320   0.470  11.264  0.3372  0.4601 -0.0077
  140MOL0     C18404   5.405   0.418  11.365  0.4724  0.6201  0.2409
  140MOL0     C18405   5.435   0.276  11.364  0.2384 -0.1199  0.8986
  140MOL0     O18406   5.518   0.238  11.466  0.8755  0.5115  0.5302
  140MOL0     C18407   5.628   0.322  11.500  1.0284 -0.0006  0.4547
  140MOL0     C18408   5.724   0.344  11.379  0.1561 -0.3255  1.3921
  140MOL0     C18409   5.865   0.318  11.397 -0.8669 -0.1441 -0.0763
  140MOL0     C18410   5.899   0.170  11.365  0.4528  0.4228  0.7998
  140MOL0     C18411   6.034   0.143  11.405  0.6371  0.2460 -0.2741
  140MOL0     C18412   6.144   0.099  11.425 -0.0154 -0.3690 -0.5383
  140MOL0     C18413   5.376   0.199  11.264  0.6134  0.2422  0.3624
  140MOL0     C18414   5.279   0.249  11.176 -0.2239 -0.6182 -0.0467
  140MOL0     H18415   4.887   0.529  10.977 -1.3187 -1.4924  0.0615
  140MOL0     H18416   4.798   0.595  10.748 -1.0031 -0.3029 -2.4092
  140MOL0     H18417   4.886   0.300  10.445  2.0867  0.7667  1.1077
  140MOL0     H18418   5.011   0.415  10.373 -0.5504  1.1246 -3.5963
  140MOL0     H18419   4.861   0.346  10.204  3.5059  3.7638 -1.5805
  140MOL0     H18420   4.826   0.521  10.234 -1.0108 -0.3390 -2.3467
  140MOL0     H18421   4.641   0.432  10.409 -4.9754 -2.3608 -0.0199
  140MOL0     H18422   4.658   0.282  10.333 -1.8593  0.2804 -1.1772
  140MOL0     H18423   4.573   0.550  10.196  1.8449  0.5913  3.0327
  140MOL0     H18424   4.611   0.394  10.111 -0.0172 -2.7196  1.0929
  140MOL0     H18425   4.411   0.445  10.328 -0.8016  4.1615 -2.9870
  140MOL0     H18426   4.434   0.287  10.222 -0.7177 -1.1545 -1.0683
  140MOL0     H18427   4.341   0.360  10.041  1.2528 -1.5218  0.6873
  140MOL0     H18428   4.379   0.531  10.083  0.1314 -0.7668 -0.6823
  140MOL0     H18429   4.191   0.385  10.255  0.5290  0.9656  0.7539
  140MOL0     H18430   4.168   0.550  10.216 -3.4849 -0.7721 -0.4883
  140MOL0     H18431   3.989   0.405  10.094  0.2458 -1.7816  0.7393
  140MOL0     H18432   4.107   0.320  10.012 -0.8540  0.2536 -1.8978
  140MOL0     H18433   4.259   0.502   9.848  0.8868 -0.1864  3.9246
  140MOL0     H18434   4.152   0.714   9.603  1.3541  1.9003 -2.3099
  140MOL0     H18435   4.291   0.770   9.712 -0.7308  1.7132  1.8913
  140MOL0     H18436   4.119   0.942   9.804  1.0833  0.0322  0.4167
  140MOL0     H18437   4.033   0.911   9.657  1.2556 -1.7199 -1.3117
  140MOL0     H18438   4.335   0.992   9.677 -0.7294 -4.4644 -0.5635
  140MOL0     H18439   4.250   0.979   9.524 -1.1795  1.8186 -1.0717
  140MOL0     H18440   4.244   1.218   9.546 -0.1596 -0.5881 -1.1671
  140MOL0     H18441   4.219   1.195   9.715  0.3957 -0.2139 -0.0061
  140MOL0     H18442   3.802   1.223   9.547 -0.0479 -1.1645  0.6618
  140MOL0     H18443   3.683   1.172   9.340  0.0992  2.1604 -1.8019
  140MOL0     H18444   3.794   1.345   8.927 -0.6795 -0.0862 -1.1582
  140MOL0     H18445   3.739   1.389   8.695  1.5449 -0.1527 -0.1787
  140MOL0     H18446   3.578   1.485   8.578  0.3797 -0.1956  0.6948
  140MOL0     H18447   3.450   1.447   8.468  0.5432  0.1250 -0.1834
  140MOL0     H18448   3.641   1.511   8.335 -1.8599 -0.9142 -0.1453
  140MOL0     H18449   3.600   1.334   8.309  0.4019 -3.1654  2.3975
  140MOL0     H18450   3.769   1.235   8.414 -0.4044  1.0856  1.7540
  140MOL0     H18451   3.832   1.383   8.489 -0.8096  2.8718  0.9854
  140MOL0     H18452   3.799   1.392   8.190  0.4705  2.0623 -0.1342
  140MOL0     H18453   3.887   1.488   8.291  0.4836  1.2796  0.5781
  140MOL0     H18454   4.028   1.357   8.149  0.1697  0.1182  0.9504
  140MOL0     H18455   3.962   1.209   8.197 -2.4483  0.0599  3.6163
  140MOL0     H18456   4.068   1.244   8.438  1.4813 -1.1814 -0.3104
  140MOL0     H18457   4.116   1.395   8.401  1.2463 -1.8990  3.6770
  140MOL0     H18458   4.221   1.158   8.235  5.2044 -1.0337 -0.1850
  140MOL0     H18459   4.253   1.328   8.205  0.6288  0.8094  0.6916
  140MOL0     H18460   4.444   1.211   8.326 -1.0962  0.1341 -0.6043
  140MOL0     H18461   4.336   1.188   8.458 -1.7812  1.1076 -0.4092
  140MOL0     H18462   3.420   1.123   8.707  1.2248 -0.1940 -1.6820
  140MOL0     H18463   3.481   1.062   8.948  2.9981 -2.2674 -0.6946
  140MOL0     H18464   4.057   1.039   9.159  0.2844  1.2839 -0.8659
  140MOL0     H18465   4.167   1.087   9.360  0.3584  1.8964  0.6503
  140MOL0     H18466   5.079   0.315  10.569  0.8879 -1.0612  1.0764
  140MOL0     H18467   5.155   0.248  10.789 -0.0093  0.3468  3.3895
  140MOL0     H18468   5.295   0.576  11.262  0.9918  0.6079 -0.5865
  140MOL0     H18469   5.444   0.482  11.444 -3.2941  1.7662  1.3752
  140MOL0     H18470   5.677   0.261  11.576 -4.2105 -0.0171  4.3498
  140MOL0     H18471   5.603   0.419  11.544 -1.4082  1.2667 -3.2333
  140MOL0     H18472   5.696   0.279  11.295  2.3959  1.6501 -1.0490
  140MOL0     H18473   5.701   0.449  11.356 -2.4114 -1.1784 -0.4480
  140MOL0     H18474   5.897   0.343  11.499 -1.2982 -1.6414  0.4633
  140MOL0     H18475   5.904   0.388  11.324 -0.3716  3.1314  3.0390
  140MOL0     H18476   5.828   0.106  11.418 -1.5565 -0.0297 -2.1825
  140MOL0     H18477   5.879   0.141  11.261 -5.4489  1.7233  1.2153
  140MOL0     H18478   6.245   0.065  11.434  0.8206  2.0873  0.3076
  140MOL0     H18479   5.415   0.098  11.253  1.9170  0.9266 -1.7925
  140MOL0     H18480   5.249   0.189  11.091 -0.9438  2.0135 -1.7854
  141MOL0     O18481   7.306   6.847   5.984 -0.1904 -0.2806  0.5522
  141MOL0     C18482   7.238   6.844   6.090 -0.8801 -0.0873 -0.1162
  141MOL0     O18483   7.258   6.918   6.201  0.1692 -0.2967 -0.1040
  141MOL0     C18484   7.359   7.010   6.206 -0.2350  0.2417 -1.0178
  141MOL0     C18485   7.469   6.972   6.281 -0.2133 -0.1820  0.0301
  141MOL0     C18486   7.576   7.050   6.298 -0.3626  0.0395  0.9096
  141MOL0     C18487   7.577   7.185   6.257  0.0128  1.2948 -0.9960
  141MOL0     O18488   7.690   7.250   6.292  0.4998  0.1285  0.0974
  141MOL0     C18489   7.708   7.370   6.216  0.4275 -0.0459 -0.0374
  141MOL0     C18490   7.850   7.410   6.216 -0.2610 -0.4606 -0.8110
  141MOL0     C18491   7.908   7.431   6.359 -0.0808  0.0615  0.5968
  141MOL0     C18492   8.056   7.481   6.357 -0.0849 -0.8392  0.7518
  141MOL0     C18493   8.161   7.396   6.432 -0.0308 -0.9522 -0.1319
  141MOL0     C18494   8.142   7.415   6.585 -0.4663 -0.2180  0.4822
  141MOL0     C18495   8.181   7.291   6.672 -0.5199 -0.5388  0.4503
  141MOL0     C18496   8.194   7.315   6.818  0.0780  0.2892  0.0434
  141MOL0     N18497   8.311   7.254   6.875 -0.3002  0.8180 -0.3665
  141MOL0     C18498   8.440   7.298   6.852  0.2387  0.5042 -0.5127
  141MOL0     C18499   8.521   7.234   6.941  0.2371  0.1344 -0.5928
  141MOL0     C18500   8.677   7.243   6.944  0.4250  0.4018 -0.1328
  141MOL0     C18501   8.717   7.092   6.933  0.8927  0.2530  1.0791
  141MOL0     C18502   8.856   7.075   6.890 -0.1647 -0.1641  0.5802
  141MOL0     C18503   8.919   6.930   6.894  0.2549  0.5974  0.1472
  141MOL0     O18504   8.832   6.834   6.829  0.7371  0.3617  0.5933
  141MOL0     C18505   8.832   6.812   6.695 -0.5815  0.0301  0.5307
  141MOL0     C18506   8.941   6.848   6.616  0.2802  0.1753  0.0989
  141MOL0     C18507   8.928   6.820   6.477 -0.6496  0.6632 -0.8740
  141MOL0     C18508   8.814   6.765   6.422  0.1192  0.4250  0.2206
  141MOL0     C18509   8.799   6.750   6.273  0.2644 -0.4294  0.6500
  141MOL0     O18510   8.674   6.704   6.226 -0.6293  0.1848  0.2201
  141MOL0     C18511   8.664   6.646   6.106  0.9182  0.8768 -0.2453
  141MOL0     C18512   8.754   6.662   5.994  1.1707  0.4251  0.4639
  141MOL0     C18513   8.713   6.601   5.866 -1.5252  0.2354  0.4534
  141MOL0     C18514   8.600   6.518   5.865 -0.2917  0.2339  0.3853
  141MOL0     O18515   8.549   6.459   5.749 -0.3294  0.1317  0.0059
  141MOL0     C18516   8.603   6.505   5.620 -0.0163 -0.3783  0.5534
  141MOL0     C18517   8.528   6.428   5.499 -0.4322 -0.2363 -0.1246
  141MOL0     C18518   8.398   6.493   5.480 -0.1636 -0.4348 -1.5779
  141MOL0     C18519   8.300   6.410   5.388  0.7297  0.3716 -0.0935
  141MOL0     C18520   8.149   6.439   5.416  0.2775  0.0392 -0.7332
  141MOL0     C18521   8.054   6.338   5.359  0.2021  0.0726 -0.4999
  141MOL0     C18522   8.061   6.320   5.205  0.2037  0.0506  0.3285
  141MOL0     C18523   7.919   6.329   5.142  0.2906 -0.0501  0.7108
  141MOL0    Cl18524   7.862   6.485   5.145  0.2455  0.1326 -0.0896
  141MOL0     C18525   8.529   6.494   5.983  0.5926 -0.0617 -0.1655
  141MOL0     C18526   8.557   6.568   6.093 -0.1800  0.6410  0.4814
  141MOL0     O18527   8.891   6.798   6.205  0.8789  1.2219 -0.6089
  141MOL0     C18528   8.714   6.710   6.498 -0.2972 -0.1811  0.2230
  141MOL0     C18529   8.723   6.730   6.638 -0.5656  0.4872 -0.2906
  141MOL0     N18530   8.445   7.148   7.021  0.3150 -0.1078 -0.3229
  141MOL0     N18531   8.314   7.161   6.981 -1.0538 -0.0529 -0.5714
  141MOL0     C18532   7.460   7.228   6.187 -0.2964 -0.1169 -0.2704
  141MOL0     C18533   7.349   7.140   6.172 -0.3317  1.0699  0.6438
  141MOL0     C18534   7.119   6.759   6.092 -0.2746  0.3997 -1.0432
  141MOL0     C18535   7.050   6.725   5.971 -0.5890  0.5638  0.0396
  141MOL0     C18536   6.935   6.641   5.967  1.1520  0.6853 -0.3013
  141MOL0     C18537   6.869   6.603   6.090 -0.2955  1.1995  0.0720
  141MOL0     O18538   6.747   6.534   6.090  0.1838 -0.2079 -0.2971
  141MOL0     C18539   6.764   6.390   6.081 -0.3453 -0.5657  0.3568
  141MOL0     C18540   6.774   6.319   6.211  0.0241  1.0822 -0.3347
  141MOL0     C18541   6.782   6.168   6.194 -0.7102 -1.0498  0.5717
  141MOL0     C18542   6.755   6.075   6.313 -0.2627 -0.5180 -0.0034
  141MOL0     C18543   6.848   5.952   6.322  0.5821 -1.1586 -0.1781
  141MOL0     C18544   6.930   5.861   6.315  0.4601 -0.8235 -0.2855
  141MOL0     C18545   6.925   6.656   6.202 -0.1993  0.5144  0.4009
  141MOL0     C18546   7.051   6.721   6.204  0.7838 -0.0982  0.2032
  141MOL0     H18547   7.474   6.871   6.321 -4.1029 -0.5142  0.0531
  141MOL0     H18548   7.654   7.011   6.363 -1.6174  1.2737  3.2596
  141MOL0     H18549   7.644   7.449   6.257 -0.8128 -0.6658 -0.7509
  141MOL0     H18550   7.681   7.348   6.113  2.4817  3.3681 -1.4885
  141MOL0     H18551   7.841   7.501   6.156  0.1707 -1.1905 -2.0107
  141MOL0     H18552   7.917   7.340   6.166 -1.1534 -1.8198 -0.1675
  141MOL0     H18553   7.898   7.336   6.411 -0.8133  1.2131  2.6735
  141MOL0     H18554   7.842   7.502   6.410  1.3118  1.9671 -0.1222
  141MOL0     H18555   8.104   7.482   6.259  1.5629  1.0415  1.4936
  141MOL0     H18556   8.058   7.583   6.396 -1.5455 -1.4360  2.5557
  141MOL0     H18557   8.267   7.401   6.406 -0.0438  2.7376  0.0063
  141MOL0     H18558   8.132   7.293   6.412  3.3148 -2.0463  0.0794
  141MOL0     H18559   8.043   7.453   6.611 -0.1132  0.5224  0.7669
  141MOL0     H18560   8.208   7.497   6.614 -0.1954 -0.4643  0.5776
  141MOL0     H18561   8.101   7.219   6.652 -0.8117  0.5177 -2.7957
  141MOL0     H18562   8.273   7.255   6.626 -0.3352  0.1081  0.2983
  141MOL0     H18563   8.103   7.288   6.872  0.4369 -0.8510  0.1064
  141MOL0     H18564   8.202   7.418   6.853  0.8857 -0.5079  2.3967
  141MOL0     H18565   8.476   7.354   6.766  0.7013  1.0042 -0.0022
  141MOL0     H18566   8.704   7.278   7.044 -2.9152  1.7269  0.4324
  141MOL0     H18567   8.729   7.293   6.862 -1.4288  1.1747 -0.8928
  141MOL0     H18568   8.652   7.056   6.852  1.3345  1.7906 -0.0065
  141MOL0     H18569   8.696   7.042   7.028 -0.9645  2.3728  1.8823
  141MOL0     H18570   8.866   7.100   6.784 -1.3451 -1.6118  0.0932
  141MOL0     H18571   8.924   7.132   6.953  4.0657 -0.7183 -2.9882
  141MOL0     H18572   8.920   6.896   6.998 -0.9387 -1.2463 -0.3905
  141MOL0     H18573   9.025   6.921   6.867  0.2989  2.0029 -0.2568
  141MOL0     H18574   9.029   6.900   6.653  0.6959 -0.1632 -0.4047
  141MOL0     H18575   8.996   6.863   6.405 -0.2797 -1.3093 -1.7504
  141MOL0     H18576   8.844   6.723   5.993  3.9305 -3.2944 -1.5154
  141MOL0     H18577   8.791   6.612   5.791  0.2129  1.6470  2.3573
  141MOL0     H18578   8.712   6.493   5.613  0.4053  2.9004 -0.0717
  141MOL0     H18579   8.590   6.612   5.602  0.6218  0.0109  2.1798
  141MOL0     H18580   8.520   6.324   5.531  1.3888 -0.5346 -0.5406
  141MOL0     H18581   8.585   6.427   5.405  0.8971  0.4307  0.6411
  141MOL0     H18582   8.399   6.593   5.435  0.9975 -0.1932 -1.0556
  141MOL0     H18583   8.358   6.503   5.581 -1.0460  0.6850 -2.0101
  141MOL0     H18584   8.323   6.421   5.281 -2.0627 -3.7295 -1.3466
  141MOL0     H18585   8.305   6.302   5.399 -3.7420  0.0488  0.6393
  141MOL0     H18586   8.116   6.542   5.397 -2.3257  0.2173  3.3806
  141MOL0     H18587   8.140   6.431   5.525  0.9937  1.0400 -0.5882
  141MOL0     H18588   7.952   6.370   5.384  0.2118 -0.3198  0.0746
  141MOL0     H18589   8.076   6.240   5.404  0.2818  0.5907  0.6313
  141MOL0     H18590   8.129   6.396   5.165  1.1354 -0.2848  1.2119
  141MOL0     H18591   8.108   6.225   5.177  0.4046  0.1762  0.2360
  141MOL0     H18592   7.842   6.276   5.199  0.6600  2.6798  4.0831
  141MOL0     H18593   7.934   6.290   5.041 -0.8445 -0.1682  0.5761
  141MOL0     H18594   8.452   6.418   5.991  0.1823  0.4361  0.8437
  141MOL0     H18595   8.496   6.563   6.182 -1.4804 -3.0181 -0.4121
  141MOL0     H18596   8.625   6.679   6.444 -0.4172  2.9488 -1.6874
  141MOL0     H18597   8.644   6.685   6.697  0.3441 -2.4851 -1.1844
  141MOL0     H18598   7.440   7.329   6.155 -0.5694 -0.0935 -0.0289
  141MOL0     H18599   7.261   7.178   6.121 -0.6972  0.3444  0.7141
  141MOL0     H18600   7.112   6.750   5.885  3.3637 -1.4053  2.0147
  141MOL0     H18601   6.886   6.610   5.875 -2.8079 -2.2070  2.4012
  141MOL0     H18602   6.845   6.363   6.013 -0.3311 -2.1284  0.9550
  141MOL0     H18603   6.671   6.360   6.031 -1.4346  1.8232  0.8251
  141MOL0     H18604   6.860   6.351   6.270  1.2424 -1.8084 -0.3704
  141MOL0     H18605   6.688   6.340   6.275  0.8650  1.4071  0.7117
  141MOL0     H18606   6.880   6.137   6.159 -0.1774  0.3870  0.7288
  141MOL0     H18607   6.704   6.151   6.119  0.6333 -0.0153 -1.1432
  141MOL0     H18608   6.780   6.117   6.410 -2.3915 -3.5354  2.0300
  141MOL0     H18609   6.652   6.038   6.307 -1.2574  2.1563 -0.8267
  141MOL0     H18610   6.985   5.769   6.307  1.6985  0.0373 -2.4419
  141MOL0     H18611   6.877   6.629   6.296  0.6199 -2.3468  0.1196
  141MOL0     H18612   7.081   6.726   6.308 -1.6537 -0.7147  1.0223
  142MOL0     O18613   7.458   1.523  10.564 -0.6477  0.2835 -0.0765
  142MOL0     C18614   7.507   1.547  10.453  0.6917 -1.2632  0.5295
  142MOL0     O18615   7.438   1.556  10.330  0.4825 -0.0256  0.5635
  142MOL0     C18616   7.302   1.582  10.315 -0.2163 -0.8897 -0.6327
  142MOL0     C18617   7.282   1.631  10.191 -0.5019  0.3208 -0.1454
  142MOL0     C18618   7.159   1.681  10.155  0.8760 -0.0648  0.0358
  142MOL0     C18619   7.052   1.668  10.243  0.7936  0.3090  0.3843
  142MOL0     O18620   6.922   1.697  10.212 -0.2166 -0.3868 -0.6017
  142MOL0     C18621   6.887   1.758  10.080  0.4856  0.5476 -0.3246
  142MOL0     C18622   6.745   1.791  10.080  1.1632  0.3359  0.7038
  142MOL0     C18623   6.630   1.682  10.113 -0.3033  0.7029  1.4706
  142MOL0     C18624   6.603   1.603   9.989 -1.0562  0.1838  0.1331
  142MOL0     C18625   6.480   1.515   9.979 -0.6556 -1.4541  0.1800
  142MOL0     C18626   6.465   1.428   9.849 -0.5307 -1.0215  0.5432
  142MOL0     C18627   6.451   1.506   9.718 -0.2636  0.6024  0.0264
  142MOL0     C18628   6.350   1.435   9.623 -0.6903 -0.7460 -0.9774
  142MOL0     N18629   6.327   1.503   9.490 -0.6131  0.1706  0.8450
  142MOL0     C18630   6.216   1.565   9.446 -0.4054  0.4455 -0.5706
  142MOL0     C18631   6.234   1.592   9.313  0.2880 -0.5895  0.1477
  142MOL0     C18632   6.137   1.652   9.216 -0.1715 -0.7467 -0.8623
  142MOL0     C18633   6.209   1.725   9.094  1.5389 -0.5974  1.0197
  142MOL0     C18634   6.103   1.777   8.995 -1.3831  0.3930 -0.6736
  142MOL0     C18635   6.007   1.881   9.051  0.2410  0.8414  0.1807
  142MOL0     O18636   6.066   2.010   9.060  0.7664 -0.8616 -0.2313
  142MOL0     C18637   6.067   2.087   8.950  0.5603  0.0686 -0.0159
  142MOL0     C18638   6.183   2.150   8.907 -0.7741  0.6141 -0.0928
  142MOL0     C18639   6.180   2.243   8.802 -0.4570 -0.8471  0.8799
  142MOL0     C18640   6.061   2.279   8.732  0.4455  1.2135 -0.4084
  142MOL0     C18641   6.053   2.387   8.636  0.3169  0.3839  0.3004
  142MOL0     O18642   5.936   2.428   8.585  0.4999 -0.1095  0.1744
  142MOL0     C18643   5.924   2.548   8.513 -0.4363  0.0942  0.2853
  142MOL0     C18644   6.000   2.667   8.535  0.2769 -1.1237 -0.2666
  142MOL0     C18645   5.970   2.790   8.456 -0.7975  0.4958 -0.6466
  142MOL0     C18646   5.869   2.779   8.352 -0.6418 -0.5110  0.0890
  142MOL0     O18647   5.838   2.894   8.274  0.3893  0.4317 -0.1126
  142MOL0     C18648   5.845   3.018   8.337 -0.0654  0.9846 -0.4784
  142MOL0     C18649   5.753   3.126   8.274  0.4019 -0.0694 -0.4759
  142MOL0     C18650   5.801   3.269   8.294 -0.0011 -0.3331 -0.4750
  142MOL0     C18651   5.865   3.294   8.438  0.4743 -0.4950  0.7789
  142MOL0     C18652   5.924   3.433   8.454  0.2519 -0.9083  0.5612
  142MOL0     C18653   5.809   3.535   8.489 -0.6078 -0.1460  0.1319
  142MOL0     C18654   5.851   3.677   8.541  0.4238  0.3141  1.0442
  142MOL0     C18655   5.739   3.777   8.571  1.1445  0.0079  0.3267
  142MOL0    Cl18656   5.663   3.824   8.422  0.3252  0.2367 -0.1198
  142MOL0     C18657   5.803   2.658   8.339 -0.0386 -0.2304  0.1042
  142MOL0     C18658   5.834   2.545   8.410  0.1679  0.5895 -0.3849
  142MOL0     O18659   6.159   2.440   8.615  0.4968  0.1953  0.2169
  142MOL0     C18660   5.945   2.204   8.766 -0.6676  0.0583 -0.0184
  142MOL0     C18661   5.950   2.118   8.886  0.7509 -0.1047  0.8495
  142MOL0     N18662   6.352   1.539   9.281 -0.2719 -0.7423 -0.0615
  142MOL0     N18663   6.414   1.489   9.387  0.3809 -0.8117  0.2207
  142MOL0     C18664   7.073   1.591  10.355  0.5523 -0.2762 -0.4012
  142MOL0     C18665   7.199   1.564  10.402 -0.6119 -0.8221 -0.0317
  142MOL0     C18666   7.655   1.588  10.450  1.2576 -0.7307  0.9705
  142MOL0     C18667   7.737   1.567  10.563 -0.6510 -0.7337 -0.6077
  142MOL0     C18668   7.876   1.603  10.559 -0.1443  1.0467  0.3601
  142MOL0     C18669   7.932   1.651  10.437  0.1932  0.9337  0.1032
  142MOL0     O18670   8.061   1.696  10.425  1.2073 -0.3312 -0.2101
  142MOL0     C18671   8.154   1.687  10.534 -0.3264  0.1753  0.1630
  142MOL0     C18672   8.154   1.809  10.630 -0.6066  0.1010 -0.1603
  142MOL0     C18673   8.200   1.945  10.580  0.6874 -0.6972 -1.1705
  142MOL0     C18674   8.343   1.949  10.568  0.5804 -0.0657  0.2903
  142MOL0     C18675   8.409   1.913  10.694 -0.3157 -0.1303  0.2824
  142MOL0     C18676   8.487   1.897  10.791 -0.0681 -0.5948  0.3520
  142MOL0     C18677   7.849   1.661  10.326  0.5017  0.1987  0.6950
  142MOL0     C18678   7.714   1.636  10.330 -0.5680  0.9791 -0.5830
  142MOL0     H18679   7.360   1.648  10.118 -3.8322  0.2463 -4.1395
  142MOL0     H18680   7.158   1.736  10.062  1.2750 -1.0835 -0.5841
  142MOL0     H18681   6.906   1.678  10.008 -0.8031 -1.5811  1.5672
  142MOL0     H18682   6.945   1.849  10.061 -1.4647  1.5473 -1.8339
  142MOL0     H18683   6.719   1.830   9.981 -2.6205  3.2810  2.5884
  142MOL0     H18684   6.728   1.873  10.151  1.8931  3.6055 -2.5533
  142MOL0     H18685   6.539   1.725  10.156 -2.2228  0.2481 -1.8587
  142MOL0     H18686   6.675   1.620  10.192  0.0359 -1.1131 -0.0747
  142MOL0     H18687   6.606   1.673   9.905  1.6160  2.5071  1.9531
  142MOL0     H18688   6.685   1.531   9.986 -0.4163  0.8793  0.4017
  142MOL0     H18689   6.393   1.581   9.987 -0.4531 -1.2612  0.8279
  142MOL0     H18690   6.469   1.446  10.062 -2.1351 -1.8888 -0.3455
  142MOL0     H18691   6.370   1.378   9.872 -2.2865  1.7486 -0.1610
  142MOL0     H18692   6.542   1.351   9.844  1.6023  0.9380  1.1220
  142MOL0     H18693   6.432   1.612   9.735 -1.3343 -0.0664  4.2367
  142MOL0     H18694   6.547   1.502   9.667  0.5740 -0.0793  1.5642
  142MOL0     H18695   6.262   1.426   9.688 -1.0236  0.8358 -1.1558
  142MOL0     H18696   6.382   1.331   9.609 -0.6886 -0.5773 -2.4649
  142MOL0     H18697   6.137   1.605   9.509 -0.9172 -2.2860  0.6373
  142MOL0     H18698   6.070   1.721   9.267  2.5806  1.5555 -0.1271
  142MOL0     H18699   6.081   1.571   9.167 -1.5781  0.2226 -0.9027
  142MOL0     H18700   6.269   1.653   9.038 -2.1998 -0.7681 -3.4276
  142MOL0     H18701   6.264   1.816   9.118  0.1214  0.0423  1.9941
  142MOL0     H18702   6.165   1.813   8.913  1.6425 -1.6881  0.5496
  142MOL0     H18703   6.041   1.694   8.960  0.6828 -0.9971 -1.1556
  142MOL0     H18704   5.950   1.850   9.139 -1.3246  4.1665  0.4878
  142MOL0     H18705   5.921   1.882   8.984  1.2499  0.0742 -1.1713
  142MOL0     H18706   6.276   2.135   8.962 -1.6840  2.8095  2.2873
  142MOL0     H18707   6.277   2.283   8.774 -1.6117  0.6748 -1.2554
  142MOL0     H18708   6.076   2.679   8.612 -2.9920  2.2507  2.8441
  142MOL0     H18709   6.031   2.878   8.472 -0.2583  0.2381 -1.2384
  142MOL0     H18710   5.950   3.046   8.331 -0.0789  0.9998 -0.6568
  142MOL0     H18711   5.808   3.023   8.440 -2.2433 -0.7268 -1.0814
  142MOL0     H18712   5.654   3.119   8.321  0.3908  2.0328 -0.1067
  142MOL0     H18713   5.739   3.117   8.166 -1.3430  4.0269 -0.7735
  142MOL0     H18714   5.715   3.334   8.275  0.1565  0.0668  0.1651
  142MOL0     H18715   5.873   3.295   8.215  1.7276 -1.5858  0.6185
  142MOL0     H18716   5.793   3.266   8.516  1.3565 -1.0279  1.4171
  142MOL0     H18717   5.953   3.230   8.442  0.3687 -0.6146  1.2291
  142MOL0     H18718   5.971   3.472   8.363  2.5131 -0.1416  1.9519
  142MOL0     H18719   6.006   3.438   8.527 -0.3840 -0.2537  1.2480
  142MOL0     H18720   5.740   3.484   8.556 -0.7095  2.8358  2.5128
  142MOL0     H18721   5.755   3.555   8.396  0.3097  0.6241 -0.2575
  142MOL0     H18722   5.902   3.656   8.636 -1.5946  1.2844  2.4068
  142MOL0     H18723   5.935   3.709   8.479  1.0109 -0.2130  1.5465
  142MOL0     H18724   5.772   3.874   8.611 -0.4014  0.6278  0.1410
  142MOL0     H18725   5.673   3.732   8.645 -0.2436  2.3647  0.6402
  142MOL0     H18726   5.728   2.653   8.261  1.8787  0.1164 -1.8762
  142MOL0     H18727   5.774   2.455   8.396 -0.1119  0.9884 -1.8599
  142MOL0     H18728   5.855   2.212   8.706 -0.4376 -1.3546 -0.5855
  142MOL0     H18729   5.852   2.077   8.911 -0.5647  0.5859 -2.5837
  142MOL0     H18730   6.994   1.551  10.418  2.8037  0.9499  3.4724
  142MOL0     H18731   7.213   1.519  10.501  0.5566 -2.2292 -0.7871
  142MOL0     H18732   7.700   1.515  10.651  0.4443 -0.0666  0.2719
  142MOL0     H18733   7.922   1.596  10.657  0.2498  3.4738  0.3986
  142MOL0     H18734   8.250   1.676  10.483  0.5269  1.9197  1.3252
  142MOL0     H18735   8.130   1.595  10.589 -1.9497  0.6304  0.2475
  142MOL0     H18736   8.051   1.829  10.663 -0.2978  2.0822 -0.2477
  142MOL0     H18737   8.203   1.773  10.720 -0.3454  1.4446  0.2486
  142MOL0     H18738   8.162   2.024  10.645 -1.0429 -0.7917 -1.9964
  142MOL0     H18739   8.163   1.966  10.479 -1.9814 -2.5155 -0.6671
  142MOL0     H18740   8.367   1.877  10.490 -0.2771  1.8108 -1.7913
  142MOL0     H18741   8.387   2.043  10.535  1.1563 -1.4187 -3.1802
  142MOL0     H18742   8.552   1.899  10.876  1.0297  0.6904 -0.4690
  142MOL0     H18743   7.878   1.708  10.233  1.7314 -1.2704  0.3027
  142MOL0     H18744   7.655   1.656  10.242 -2.1062  2.2124  0.6689
  143MOL0     O18745   0.068   8.203   8.294  0.7960  0.8666  0.0955
  143MOL0     C18746   0.060   8.308   8.360  0.0237  1.1425  0.4443
  143MOL0     O18747  -0.056   8.369   8.409  0.5771  0.7320  0.6064
  143MOL0     C18748  -0.176   8.303   8.389 -0.1596 -0.3226  0.2900
  143MOL0     C18749  -0.258   8.324   8.276 -0.6047 -0.7673 -0.3316
  143MOL0     C18750  -0.387   8.271   8.271  0.4563  1.0477  0.2294
  143MOL0     C18751  -0.417   8.159   8.353  0.1298  0.6097 -0.3204
  143MOL0     O18752  -0.541   8.110   8.327 -0.0229  0.4264 -0.4842
  143MOL0     C18753  -0.576   7.977   8.356  0.1235  0.8669 -0.1083
  143MOL0     C18754  -0.595   7.882   8.241  0.0208 -0.6304  0.6561
  143MOL0     C18755  -0.726   7.904   8.152  0.3878 -0.0895 -0.3118
  143MOL0     C18756  -0.722   7.799   8.039  0.5291 -0.8886 -0.3290
  143MOL0     C18757  -0.856   7.779   7.955  0.1982 -0.6129 -0.1340
  143MOL0     C18758  -0.843   7.706   7.823 -0.3006 -0.3958  0.2468
  143MOL0     C18759  -0.970   7.704   7.755  1.0181 -0.7326  0.0272
  143MOL0     C18760  -0.971   7.587   7.651 -0.6039 -0.6731  0.2411
  143MOL0     N18761  -1.084   7.583   7.550  0.0483  0.3515 -0.1786
  143MOL0     C18762  -1.219   7.595   7.564  0.6293 -0.3289  0.4753
  143MOL0     C18763  -1.269   7.560   7.439 -0.1558  0.3035 -0.5539
  143MOL0     C18764  -1.414   7.551   7.421  1.0224 -0.4703 -0.4429
  143MOL0     C18765  -1.459   7.632   7.294 -0.6845 -0.2238 -1.5358
  143MOL0     C18766  -1.597   7.600   7.241 -0.0483  0.3750 -0.0361
  143MOL0     C18767  -1.633   7.665   7.105  0.1076 -0.1357  0.1834
  143MOL0     O18768  -1.633   7.815   7.112 -0.1741  0.0946 -0.9565
  143MOL0     C18769  -1.688   7.888   7.014  0.5621  0.6800  0.0169
  143MOL0     C18770  -1.710   7.841   6.884 -0.7213  0.4575 -1.3379
  143MOL0     C18771  -1.788   7.925   6.791  1.4796  0.6073 -0.7931
  143MOL0     C18772  -1.837   8.052   6.838  0.1889  1.0098 -0.4699
  143MOL0     C18773  -1.942   8.123   6.762  0.3546  0.3810  0.2359
  143MOL0     O18774  -1.994   8.077   6.640  0.1146  0.0169  0.7348
  143MOL0     C18775  -2.110   8.133   6.583 -0.8057 -0.4278  0.4111
  143MOL0     C18776  -2.108   8.169   6.455 -1.1054  0.3104  0.3863
  143MOL0     C18777  -2.223   8.190   6.377  0.2339 -0.1984  0.2159
  143MOL0     C18778  -2.348   8.187   6.446  0.6230  0.0479 -0.0121
  143MOL0     O18779  -2.470   8.198   6.387 -0.4279 -0.0650 -0.9930
  143MOL0     C18780  -2.503   8.329   6.358  0.2059 -0.4080  1.2312
  143MOL0     C18781  -2.656   8.339   6.312  0.0782 -0.7059 -1.0094
  143MOL0     C18782  -2.753   8.372   6.421 -0.9412 -0.9259  0.5585
  143MOL0     C18783  -2.896   8.371   6.367  0.3581  0.4205  0.5502
  143MOL0     C18784  -2.933   8.507   6.308  0.3358 -0.6207 -0.1008
  143MOL0     C18785  -3.077   8.497   6.256 -0.0223 -0.3400 -0.4145
  143MOL0     C18786  -3.183   8.449   6.364 -0.4007 -0.0114  0.2252
  143MOL0     C18787  -3.317   8.441   6.288  1.2878 -0.5253  0.3641
  143MOL0    Cl18788  -3.377   8.616   6.253  0.1314 -0.2710  0.1084
  143MOL0     C18789  -2.352   8.173   6.585  0.0945  0.6934 -0.7867
  143MOL0     C18790  -2.228   8.139   6.649 -0.0696  0.4379 -0.0178
  143MOL0     O18791  -1.985   8.227   6.813 -0.1009  0.1792 -0.1592
  143MOL0     C18792  -1.803   8.089   6.971 -0.8985  0.0465 -0.4690
  143MOL0     C18793  -1.730   8.009   7.057 -0.9869 -0.4567 -0.5635
  143MOL0     N18794  -1.157   7.543   7.356 -0.7974 -0.0485  0.1240
  143MOL0     N18795  -1.046   7.546   7.424  0.0835  0.7177 -0.2584
  143MOL0     C18796  -0.330   8.128   8.467  0.3681  0.6825  0.0627
  143MOL0     C18797  -0.220   8.203   8.480  0.5204  0.5579  0.1068
  143MOL0     C18798   0.185   8.379   8.374 -0.3765  0.5686 -0.2118
  143MOL0     C18799   0.207   8.468   8.477  0.3967 -0.1688 -0.8874
  143MOL0     C18800   0.332   8.535   8.490 -0.3048 -0.2316  0.1224
  143MOL0     C18801   0.441   8.513   8.412 -0.5084 -0.4644  1.3141
  143MOL0     O18802   0.557   8.591   8.429 -0.4406  0.4749 -0.1141
  143MOL0     C18803   0.678   8.546   8.383  0.0635 -0.5419 -0.7619
  143MOL0     C18804   0.748   8.641   8.286  1.1008 -0.4839  0.5429
  143MOL0     C18805   0.766   8.774   8.346  0.3225 -0.9032  0.7937
  143MOL0     C18806   0.787   8.880   8.242 -0.8683 -0.1478  0.9768
  143MOL0     C18807   0.905   8.844   8.155  0.2763  0.6651 -0.0371
  143MOL0     C18808   1.004   8.824   8.082  0.2708 -0.6038 -0.0082
  143MOL0     C18809   0.415   8.423   8.304 -0.0753 -0.0372 -0.4661
  143MOL0     C18810   0.297   8.349   8.296  0.3812 -0.2804 -0.3582
  143MOL0     H18811  -0.236   8.400   8.201 -2.1082 -0.5522 -0.5864
  143MOL0     H18812  -0.448   8.300   8.186  2.8026 -0.6086 -2.1453
  143MOL0     H18813  -0.673   7.982   8.405 -0.8767  2.2852 -2.1001
  143MOL0     H18814  -0.508   7.924   8.424 -0.0838  1.0036  0.2054
  143MOL0     H18815  -0.566   7.783   8.276  2.5438 -0.4250 -0.6026
  143MOL0     H18816  -0.506   7.899   8.179 -0.5836 -0.6809 -0.2393
  143MOL0     H18817  -0.730   8.007   8.115 -2.8444  0.3418  0.8822
  143MOL0     H18818  -0.812   7.904   8.220  1.0976  2.6769  0.7518
  143MOL0     H18819  -0.640   7.832   7.974 -0.9582 -0.5726 -2.1444
  143MOL0     H18820  -0.700   7.699   8.078 -1.5700 -1.6673 -0.9926
  143MOL0     H18821  -0.907   7.874   7.936  1.3900  0.1061  0.1960
  143MOL0     H18822  -0.933   7.720   8.007 -1.0764  1.0509 -0.0635
  143MOL0     H18823  -0.789   7.612   7.842  0.0019 -0.1422  0.6776
  143MOL0     H18824  -0.766   7.758   7.766 -1.0065  0.9213  0.4594
  143MOL0     H18825  -1.051   7.691   7.827 -0.0371 -2.2205 -1.3524
  143MOL0     H18826  -0.982   7.798   7.701  1.8873  1.0686  2.7404
  143MOL0     H18827  -0.994   7.495   7.706 -2.5251  1.6195  3.6758
  143MOL0     H18828  -0.876   7.594   7.598 -0.9962  2.8206 -0.2173
  143MOL0     H18829  -1.268   7.629   7.654  0.2059  0.4045 -0.0290
  143MOL0     H18830  -1.458   7.598   7.509  0.8147  0.6155 -1.0941
  143MOL0     H18831  -1.437   7.445   7.418  2.5900 -0.8296 -1.1520
  143MOL0     H18832  -1.385   7.620   7.214  1.9892 -0.6149  0.8427
  143MOL0     H18833  -1.464   7.736   7.328 -0.7079 -0.6196 -0.2790
  143MOL0     H18834  -1.620   7.494   7.230  0.8716  0.3805 -3.0772
  143MOL0     H18835  -1.673   7.638   7.309 -1.0806  1.8088 -1.8729
  143MOL0     H18836  -1.731   7.630   7.072  1.4054 -2.5426 -1.4247
  143MOL0     H18837  -1.568   7.633   7.023 -1.6467  0.1743 -1.3949
  143MOL0     H18838  -1.675   7.742   6.860 -0.7672 -0.1581  0.9223
  143MOL0     H18839  -1.800   7.900   6.686 -2.0224 -2.5059  0.1362
  143MOL0     H18840  -2.012   8.179   6.404 -2.0103 -3.2843 -2.5149
  143MOL0     H18841  -2.212   8.211   6.271  0.9849  0.7652  0.4686
  143MOL0     H18842  -2.446   8.365   6.271  1.2801 -3.3355  0.6216
  143MOL0     H18843  -2.473   8.407   6.429  2.7952 -0.0237 -0.1396
  143MOL0     H18844  -2.679   8.235   6.291 -3.1667 -0.7430  1.9552
  143MOL0     H18845  -2.669   8.409   6.229  2.8675  2.0033  0.6102
  143MOL0     H18846  -2.733   8.472   6.459  0.4147 -0.8581 -0.2591
  143MOL0     H18847  -2.727   8.303   6.501 -1.2070 -2.8548 -0.9253
  143MOL0     H18848  -2.906   8.293   6.291  0.9794  2.9811 -2.3146
  143MOL0     H18849  -2.956   8.346   6.455  0.8406 -1.1367  0.4791
  143MOL0     H18850  -2.857   8.529   6.232  2.2207 -1.2623  1.5172
  143MOL0     H18851  -2.930   8.572   6.396  0.7121 -3.4304  2.0791
  143MOL0     H18852  -3.081   8.429   6.170  1.1719  1.3077 -1.8372
  143MOL0     H18853  -3.106   8.592   6.210  0.6780  0.6773  1.1715
  143MOL0     H18854  -3.147   8.354   6.404  0.6890  0.8618  1.3716
  143MOL0     H18855  -3.188   8.533   6.434 -0.7707 -0.4107  0.6765
  143MOL0     H18856  -3.393   8.398   6.354 -0.8087  0.9294 -0.9631
  143MOL0     H18857  -3.321   8.382   6.197 -0.9706 -2.1569  1.4381
  143MOL0     H18858  -2.449   8.173   6.634  0.9103  3.9143  1.1414
  143MOL0     H18859  -2.220   8.132   6.757 -0.0611  1.7116  0.0798
  143MOL0     H18860  -1.846   8.180   7.012  1.5281  0.6792  0.8182
  143MOL0     H18861  -1.708   8.045   7.157  0.8471 -2.8155 -0.0479
  143MOL0     H18862  -0.359   8.048   8.534 -0.0026 -1.8954 -2.9187
  143MOL0     H18863  -0.167   8.177   8.571  1.6053 -3.1654 -1.3739
  143MOL0     H18864   0.119   8.495   8.534 -2.0021 -4.1364 -2.2742
  143MOL0     H18865   0.340   8.613   8.565 -0.2624  0.9367 -1.0503
  143MOL0     H18866   0.667   8.452   8.328 -1.0253 -2.0513  1.8604
  143MOL0     H18867   0.753   8.535   8.462  0.8434 -4.2526 -1.8151
  143MOL0     H18868   0.850   8.607   8.264  1.0926  0.3057 -0.8261
  143MOL0     H18869   0.687   8.659   8.197  1.7558  2.3094  0.5570
  143MOL0     H18870   0.857   8.773   8.406  2.1407 -2.0790 -1.7821
  143MOL0     H18871   0.689   8.803   8.417  1.0748  2.5388  0.3813
  143MOL0     H18872   0.691   8.899   8.193  0.2049  0.8706 -0.8328
  143MOL0     H18873   0.818   8.972   8.293  0.2295  0.0168  0.0595
  143MOL0     H18874   1.087   8.814   8.015  0.1023  2.1787 -0.7504
  143MOL0     H18875   0.498   8.395   8.240  1.7433 -2.5624  2.6448
  143MOL0     H18876   0.293   8.261   8.232 -1.5496 -0.5196  0.0335
  144MOL0     O18877   0.715   9.315   2.501 -0.1545  0.0526 -0.4902
  144MOL0     C18878   0.821   9.281   2.542 -1.2973 -0.3657 -0.0937
  144MOL0     O18879   0.876   9.154   2.548  0.0251  0.7183 -0.0271
  144MOL0     C18880   0.812   9.043   2.490  0.0431 -0.0276 -0.1138
  144MOL0     C18881   0.858   8.912   2.520 -1.2148  0.0878  0.6916
  144MOL0     C18882   0.811   8.798   2.452  0.2999  0.1206 -0.1614
  144MOL0     C18883   0.698   8.812   2.366  0.0385 -0.6643  0.4882
  144MOL0     O18884   0.635   8.703   2.319 -0.4491 -0.5225 -0.7400
  144MOL0     C18885   0.608   8.599   2.411  0.5189  0.4025  0.3959
  144MOL0     C18886   0.455   8.582   2.433  0.1563  0.5803 -0.4360
  144MOL0     C18887   0.390   8.533   2.307  0.3927 -0.3807  0.3575
  144MOL0     C18888   0.235   8.534   2.304  0.3842  0.3110 -0.1277
  144MOL0     C18889   0.184   8.559   2.164  0.1171 -0.4453 -0.0462
  144MOL0     C18890   0.071   8.460   2.140 -1.3717 -0.3155  0.6411
  144MOL0     C18891  -0.010   8.482   2.016  0.4918 -0.2703 -0.2191
  144MOL0     C18892  -0.084   8.365   1.952  0.4069 -0.1375 -0.4906
  144MOL0     N18893  -0.118   8.398   1.812 -0.3656  0.8009 -0.0048
  144MOL0     C18894  -0.188   8.511   1.782  0.1206 -1.0044  0.2986
  144MOL0     C18895  -0.185   8.511   1.649 -0.7124 -0.6077 -0.0280
  144MOL0     C18896  -0.222   8.636   1.562  0.0015  0.8260  0.0160
  144MOL0     C18897  -0.102   8.687   1.484  0.9115  0.3020  0.2931
  144MOL0     C18898  -0.025   8.782   1.575 -0.4015 -0.5725 -0.2611
  144MOL0     C18899   0.112   8.817   1.525  0.1425 -0.9935 -0.3127
  144MOL0     O18900   0.160   8.926   1.605  0.7398  0.0755 -0.6754
  144MOL0     C18901   0.290   8.958   1.581 -0.0000 -0.1947  1.1486
  144MOL0     C18902   0.372   8.884   1.490 -0.0791 -0.5052  0.0293
  144MOL0     C18903   0.505   8.930   1.466  0.1769 -1.0055  0.5990
  144MOL0     C18904   0.544   9.060   1.502  0.2501 -0.2605  0.6780
  144MOL0     C18905   0.687   9.098   1.471 -0.3714 -0.7601 -0.4060
  144MOL0     O18906   0.722   9.233   1.497 -0.0647 -0.3441 -0.1894
  144MOL0     C18907   0.853   9.257   1.482 -0.0661 -0.5185 -0.4471
  144MOL0     C18908   0.931   9.264   1.602 -0.0433  0.8277 -0.6394
  144MOL0     C18909   1.076   9.285   1.594  1.1099  0.1616 -0.2168
  144MOL0     C18910   1.128   9.308   1.458  1.0073  0.3564 -0.1661
  144MOL0     O18911   1.266   9.340   1.461  0.2341  0.2395  0.0648
  144MOL0     C18912   1.333   9.357   1.335  0.0744 -1.2865 -1.0363
  144MOL0     C18913   1.478   9.396   1.338 -0.5388  0.8777 -0.0441
  144MOL0     C18914   1.538   9.480   1.457  0.5497  1.0360 -0.0292
  144MOL0     C18915   1.503   9.632   1.451  1.1761  0.0974  0.2203
  144MOL0     C18916   1.498   9.701   1.591 -1.0300  0.2400 -0.3394
  144MOL0     C18917   1.638   9.705   1.662  0.5403  0.7113  0.3782
  144MOL0     C18918   1.747   9.804   1.609  0.0854  1.4791  0.3990
  144MOL0     C18919   1.887   9.779   1.677 -0.5313  0.4434  0.3542
  144MOL0    Cl18920   1.950   9.610   1.635 -0.1861 -0.6507 -0.1540
  144MOL0     C18921   1.044   9.307   1.343 -0.4920  0.0448 -1.2092
  144MOL0     C18922   0.908   9.281   1.359 -1.1273 -0.4887 -0.6086
  144MOL0     O18923   0.762   9.017   1.419 -0.9753  0.1245 -0.3826
  144MOL0     C18924   0.452   9.133   1.580  0.5591  0.2010 -0.6395
  144MOL0     C18925   0.332   9.083   1.630  0.3610  0.0469  0.6042
  144MOL0     N18926  -0.110   8.407   1.598 -0.3269 -0.4730 -0.3607
  144MOL0     N18927  -0.071   8.339   1.697  0.1422  0.1908 -0.7838
  144MOL0     C18928   0.650   8.938   2.338  0.7281  0.0787 -0.0447
  144MOL0     C18929   0.696   9.047   2.404  0.0369 -0.2135  0.1608
  144MOL0     C18930   0.903   9.401   2.587  0.4062  0.6216  0.0165
  144MOL0     C18931   1.036   9.379   2.600 -0.1891 -0.2791  0.2630
  144MOL0     C18932   1.122   9.472   2.646  1.2027  0.1242  0.4765
  144MOL0     C18933   1.076   9.602   2.665  0.2656  1.0302  0.3897
  144MOL0     O18934   1.166   9.697   2.706  0.2739  0.0272 -0.0842
  144MOL0     C18935   1.223   9.779   2.607 -0.8569  0.4657 -0.4151
  144MOL0     C18936   1.260   9.912   2.681 -0.1778  0.0843  0.1154
  144MOL0     C18937   1.220  10.037   2.602  0.6742 -0.0601  0.7076
  144MOL0     C18938   1.258  10.172   2.657 -0.2513 -0.5228  0.3527
  144MOL0     C18939   1.402  10.174   2.705 -0.4248  0.6948 -0.3877
  144MOL0     C18940   1.512  10.189   2.738 -0.2141  0.1050 -0.2859
  144MOL0     C18941   0.942   9.628   2.639 -0.4297  0.0881 -0.0177
  144MOL0     C18942   0.855   9.534   2.592  0.0583  0.2373  0.0752
  144MOL0     H18943   0.948   8.907   2.579  0.1694 -0.7191 -1.3696
  144MOL0     H18944   0.856   8.704   2.481 -1.7173 -1.0447 -0.6591
  144MOL0     H18945   0.652   8.623   2.509  0.4709 -0.3873  0.6177
  144MOL0     H18946   0.655   8.505   2.382 -2.4363 -1.3632  0.8417
  144MOL0     H18947   0.413   8.680   2.454  2.1433  1.0561  1.6916
  144MOL0     H18948   0.436   8.519   2.520  2.1234 -2.5245 -2.0188
  144MOL0     H18949   0.430   8.434   2.280  1.8242  0.7947 -2.1862
  144MOL0     H18950   0.436   8.598   2.232 -0.8039  0.8092  0.6392
  144MOL0     H18951   0.199   8.435   2.333 -0.8851  0.2170 -1.8518
  144MOL0     H18952   0.186   8.609   2.366 -0.3031  0.2260 -0.5555
  144MOL0     H18953   0.263   8.526   2.096  0.7005 -2.3381  1.4629
  144MOL0     H18954   0.151   8.663   2.150 -1.1350 -0.5377  1.8419
  144MOL0     H18955   0.003   8.477   2.224 -1.6578  1.7701  0.0499
  144MOL0     H18956   0.110   8.358   2.145  1.6857  0.7151  0.0664
  144MOL0     H18957  -0.089   8.553   2.043 -1.4615 -1.3356 -2.6453
  144MOL0     H18958   0.049   8.531   1.937  0.5885  0.7992  0.4939
  144MOL0     H18959  -0.169   8.324   2.007 -3.0335  2.0524 -3.6430
  144MOL0     H18960  -0.010   8.286   1.940 -2.2038 -2.6091 -1.6085
  144MOL0     H18961  -0.249   8.580   1.839  0.3846 -0.9048  0.4607
  144MOL0     H18962  -0.265   8.713   1.627  2.9629  0.2234  2.9844
  144MOL0     H18963  -0.299   8.607   1.490 -0.9712 -0.2825  1.4613
  144MOL0     H18964  -0.135   8.742   1.396  1.5329 -1.1202 -0.8756
  144MOL0     H18965  -0.045   8.603   1.442 -2.6824 -3.1305  1.5936
  144MOL0     H18966  -0.086   8.872   1.582  0.6074  0.0477  1.1512
  144MOL0     H18967  -0.008   8.752   1.679  3.3682 -1.4866 -1.0063
  144MOL0     H18968   0.094   8.844   1.421  0.0349  2.5388  0.4782
  144MOL0     H18969   0.168   8.723   1.528  0.8818 -0.5328  1.5060
  144MOL0     H18970   0.337   8.792   1.443 -1.8482  0.0159  0.2940
  144MOL0     H18971   0.570   8.876   1.398  0.8047  2.5687 -1.9042
  144MOL0     H18972   0.901   9.238   1.703  0.3651 -0.3971 -0.8181
  144MOL0     H18973   1.150   9.265   1.671  4.1021 -0.7075 -3.1037
  144MOL0     H18974   1.289   9.446   1.288 -2.4105 -1.7457  0.2420
  144MOL0     H18975   1.305   9.266   1.282 -0.2856 -5.3951  5.1156
  144MOL0     H18976   1.502   9.449   1.246 -1.4457 -0.4211 -1.0613
  144MOL0     H18977   1.533   9.301   1.343  0.7599  1.3003 -3.6018
  144MOL0     H18978   1.644   9.454   1.469 -0.1621 -1.5506  1.5745
  144MOL0     H18979   1.486   9.437   1.544  2.3163  0.8745  0.9955
  144MOL0     H18980   1.588   9.673   1.395  0.5554 -3.4659 -3.8068
  144MOL0     H18981   1.410   9.643   1.395  0.2923  1.6284  1.8780
  144MOL0     H18982   1.427   9.651   1.657 -0.8488  1.0509  0.4911
  144MOL0     H18983   1.464   9.804   1.576  1.7935  1.6170  1.6838
  144MOL0     H18984   1.675   9.602   1.662  1.6971  1.1077  1.0591
  144MOL0     H18985   1.626   9.732   1.767  1.3455  0.1251  0.6337
  144MOL0     H18986   1.759   9.805   1.501 -0.6017 -0.3483  0.2857
  144MOL0     H18987   1.722   9.906   1.642  0.4073  0.6767  3.3971
  144MOL0     H18988   1.865   9.788   1.784  1.2647 -1.5982  0.9690
  144MOL0     H18989   1.952   9.866   1.657  0.8508 -0.6373 -0.0134
  144MOL0     H18990   1.088   9.338   1.248  3.8963 -0.7184  0.3364
  144MOL0     H18991   0.841   9.285   1.273 -1.5407 -2.1239 -0.3961
  144MOL0     H18992   0.475   9.236   1.604  0.9587 -0.3777  1.7238
  144MOL0     H18993   0.271   9.147   1.693  0.7806  0.7256  0.3255
  144MOL0     H18994   0.575   8.946   2.260 -1.0364 -0.5535  1.5126
  144MOL0     H18995   0.644   9.140   2.382  1.8026  0.7466 -0.2098
  144MOL0     H18996   1.081   9.282   2.582  0.8015 -0.0399  1.3324
  144MOL0     H18997   1.226   9.442   2.658  2.2480  4.0624  3.6846
  144MOL0     H18998   1.148   9.792   2.528 -1.3042  3.4560  0.3953
  144MOL0     H18999   1.319   9.734   2.581  2.0231  3.2928  3.9377
  144MOL0     H19000   1.222   9.926   2.783  2.4783  1.7072  1.0011
  144MOL0     H19001   1.368   9.903   2.699 -0.1683  1.0432  0.6244
  144MOL0     H19002   1.110  10.035   2.605  0.5385 -2.3209 -1.8709
  144MOL0     H19003   1.249  10.030   2.497  1.6031  2.0098  0.7823
  144MOL0     H19004   1.257  10.254   2.586 -2.2278 -0.5049  0.3397
  144MOL0     H19005   1.191  10.196   2.740  2.0619 -1.0180  2.4982
  144MOL0     H19006   1.611  10.211   2.773  0.6513 -3.0913 -0.4773
  144MOL0     H19007   0.900   9.726   2.660  0.6459 -0.1997  4.3986
  144MOL0     H19008   0.751   9.556   2.570  0.4014  0.2054 -1.7820
  145MOL0     O19009  11.247   3.870   1.728 -0.9452 -0.5952  0.2480
  145MOL0     C19010  11.235   3.921   1.615  0.2802  0.7341  0.1746
  145MOL0     O19011  11.149   3.874   1.523 -0.8791 -0.4261 -0.2707
  145MOL0     C19012  11.058   3.775   1.551 -0.0771  0.3719  0.0400
  145MOL0     C19013  10.920   3.794   1.530  0.8639 -1.2819 -0.3090
  145MOL0     C19014  10.829   3.691   1.544 -0.7747 -0.0545 -0.2409
  145MOL0     C19015  10.870   3.560   1.583 -0.9398  0.7706 -0.7577
  145MOL0     O19016  10.787   3.450   1.590  0.1791 -0.3836 -0.4417
  145MOL0     C19017  10.690   3.451   1.698 -0.0797  0.3749  0.5392
  145MOL0     C19018  10.540   3.473   1.662  0.4399 -0.7904 -0.1996
  145MOL0     C19019  10.485   3.365   1.570  0.0205  0.2524 -0.5384
  145MOL0     C19020  10.552   3.334   1.434  0.3695  0.2023 -0.8823
  145MOL0     C19021  10.457   3.296   1.315  0.4088  0.1119 -0.3334
  145MOL0     C19022  10.362   3.180   1.349 -0.2546  0.5064  1.1378
  145MOL0     C19023  10.317   3.106   1.217  0.2280  0.0919 -0.4486
  145MOL0     C19024  10.232   2.973   1.240 -0.4650  0.1698 -0.3799
  145MOL0     N19025  10.097   3.005   1.296  0.0460 -0.0948  0.1700
  145MOL0     C19026  10.007   3.051   1.203  0.4650  1.2981 -1.2585
  145MOL0     C19027   9.913   3.095   1.292  0.5101 -0.7814  0.7348
  145MOL0     C19028   9.810   3.195   1.238  0.1242 -0.0612 -0.3863
  145MOL0     C19029   9.669   3.122   1.210  0.8890 -0.4025  0.0716
  145MOL0     C19030   9.682   3.048   1.069  0.0100  0.0086 -1.2000
  145MOL0     C19031   9.572   3.063   0.961 -0.2872  0.7980 -0.2953
  145MOL0     O19032   9.528   3.199   0.956  0.0248  0.1349 -0.0931
  145MOL0     C19033   9.394   3.235   0.919  0.0211  0.2733 -0.0014
  145MOL0     C19034   9.320   3.150   0.837 -0.5230  1.0662  0.2010
  145MOL0     C19035   9.193   3.184   0.789 -0.0606 -0.2789 -0.1155
  145MOL0     C19036   9.127   3.301   0.838 -0.2131  0.4118  0.3403
  145MOL0     C19037   8.990   3.344   0.794 -0.3403  0.8752  0.3377
  145MOL0     O19038   8.939   3.461   0.829 -0.0083  0.5979 -0.5454
  145MOL0     C19039   8.809   3.484   0.786 -0.7181 -1.0549 -0.8208
  145MOL0     C19040   8.701   3.422   0.850 -0.1729  0.5699 -0.2011
  145MOL0     C19041   8.566   3.455   0.821 -0.7642 -0.0847 -0.4783
  145MOL0     C19042   8.544   3.548   0.718  0.3059  0.0263 -0.8308
  145MOL0     O19043   8.413   3.568   0.680 -1.0826 -0.3839 -0.1989
  145MOL0     C19044   8.335   3.647   0.768 -0.1605 -0.7505  0.2843
  145MOL0     C19045   8.192   3.677   0.716  0.3350 -0.1539 -0.5910
  145MOL0     C19046   8.188   3.761   0.593 -0.5837 -0.0444 -0.7371
  145MOL0     C19047   8.051   3.807   0.541  0.7775 -0.8757 -0.2058
  145MOL0     C19048   8.073   3.887   0.412  0.2166  0.7273 -0.5558
  145MOL0     C19049   7.942   3.902   0.328  0.7258 -0.2646 -0.5198
  145MOL0     C19050   7.843   3.988   0.403  1.0350  0.5886 -0.4173
  145MOL0     C19051   7.696   3.994   0.354 -0.5646 -0.4313 -0.2928
  145MOL0    Cl19052   7.678   4.100   0.203 -0.5295 -0.2730 -0.1500
  145MOL0     C19053   8.648   3.612   0.655 -0.3842  0.3605 -0.7460
  145MOL0     C19054   8.782   3.585   0.693 -0.2523  0.5395 -0.1037
  145MOL0     O19055   8.921   3.258   0.731 -0.2080 -0.8033 -0.3064
  145MOL0     C19056   9.202   3.376   0.928  0.6975 -0.2658 -0.3975
  145MOL0     C19057   9.333   3.355   0.964 -0.4337  0.2179  0.0296
  145MOL0     N19058   9.945   3.078   1.420  0.0838  0.7054 -0.3630
  145MOL0     N19059  10.053   3.015   1.426 -0.0668  0.3328 -0.4944
  145MOL0     C19060  11.005   3.536   1.604  0.2380  0.0142 -0.6348
  145MOL0     C19061  11.098   3.642   1.583  0.1612 -0.1791  0.5864
  145MOL0     C19062  11.309   4.044   1.588 -0.3463 -0.4374  1.1917
  145MOL0     C19063  11.384   4.118   1.680 -0.4627  0.8630 -0.1057
  145MOL0     C19064  11.464   4.229   1.644 -0.6736  0.1010 -0.2738
  145MOL0     C19065  11.463   4.273   1.518 -0.1479 -0.6464 -0.4206
  145MOL0     O19066  11.534   4.383   1.491  0.7836  0.0772 -1.1018
  145MOL0     C19067  11.628   4.382   1.386  1.7283  0.0999  0.1331
  145MOL0     C19068  11.771   4.366   1.447  0.1171  0.2613 -0.1372
  145MOL0     C19069  11.811   4.219   1.451  1.1000 -0.6883 -1.0690
  145MOL0     C19070  11.867   4.171   1.316  0.1412 -0.9274 -0.8328
  145MOL0     C19071  12.007   4.181   1.322  0.2822  0.4580  0.0698
  145MOL0     C19072  12.122   4.188   1.314 -0.3778  0.2649  0.0979
  145MOL0     C19073  11.380   4.207   1.427 -0.2834 -0.2552  0.2738
  145MOL0     C19074  11.319   4.082   1.456  0.7748  0.0418 -0.0796
  145MOL0     H19075  10.877   3.890   1.504  0.4664 -0.9575  1.4149
  145MOL0     H19076  10.724   3.697   1.518 -1.0584 -1.8724  0.3160
  145MOL0     H19077  10.709   3.526   1.776 -2.2412 -1.2304  2.7705
  145MOL0     H19078  10.697   3.355   1.749 -1.1276  1.1066  2.1536
  145MOL0     H19079  10.517   3.569   1.615  0.5998  0.4256  2.0529
  145MOL0     H19080  10.494   3.486   1.761  2.2598 -1.9076  0.8507
  145MOL0     H19081  10.377   3.378   1.575 -0.2818 -1.7401  5.0633
  145MOL0     H19082  10.507   3.267   1.615  2.2898  0.2032 -1.5972
  145MOL0     H19083  10.600   3.430   1.410  0.3133  0.4101 -0.2012
  145MOL0     H19084  10.634   3.262   1.434 -0.5001 -0.9953  2.7161
  145MOL0     H19085  10.522   3.285   1.228  0.2722  0.1324 -0.4381
  145MOL0     H19086  10.394   3.383   1.292  2.8262  1.4179 -2.5403
  145MOL0     H19087  10.272   3.217   1.398 -1.9262 -1.6750 -0.0470
  145MOL0     H19088  10.412   3.109   1.415 -0.5957 -0.7600  0.0868
  145MOL0     H19089  10.264   3.174   1.149  2.9261  1.1471 -1.6506
  145MOL0     H19090  10.407   3.071   1.165  1.3061 -0.6423  1.7651
  145MOL0     H19091  10.286   2.922   1.321 -1.2707  1.6740  1.1777
  145MOL0     H19092  10.217   2.908   1.153 -0.9145 -2.4562  1.5378
  145MOL0     H19093  10.007   3.060   1.095 -0.2432  2.4473 -1.1837
  145MOL0     H19094   9.863   3.236   1.151  1.3227  0.1467  0.4325
  145MOL0     H19095   9.805   3.283   1.302  0.4212  0.4048 -0.9893
  145MOL0     H19096   9.594   3.201   1.218  1.6542  0.3898 -0.3252
  145MOL0     H19097   9.637   3.051   1.287  2.7623 -1.9146 -0.4550
  145MOL0     H19098   9.773   3.078   1.016  2.0685  1.6531  2.8059
  145MOL0     H19099   9.701   2.945   1.100  3.2737 -0.0719 -3.0084
  145MOL0     H19100   9.492   3.000   1.001  0.2995  0.9355  1.1630
  145MOL0     H19101   9.600   3.034   0.860 -3.4202  0.2444 -1.1133
  145MOL0     H19102   9.357   3.050   0.820  0.7463  1.6072 -0.3694
  145MOL0     H19103   9.137   3.120   0.721  0.4949 -2.1673  1.1327
  145MOL0     H19104   8.734   3.350   0.924  2.1664 -0.6654 -2.3086
  145MOL0     H19105   8.491   3.433   0.897 -1.2861  1.9782 -0.3392
  145MOL0     H19106   8.389   3.739   0.790  0.4583 -1.1107  0.2984
  145MOL0     H19107   8.325   3.579   0.854  1.7326 -0.9458  0.3853
  145MOL0     H19108   8.139   3.728   0.797  0.5659  0.0910 -0.5921
  145MOL0     H19109   8.140   3.586   0.685 -3.8179  2.5030 -2.2547
  145MOL0     H19110   8.249   3.723   0.510 -1.1534  1.2818 -1.8052
  145MOL0     H19111   8.250   3.847   0.618 -0.6692 -0.6137  1.6047
  145MOL0     H19112   7.983   3.724   0.524  1.4083 -1.4164 -0.1164
  145MOL0     H19113   7.997   3.859   0.621  2.3660  2.3130 -1.0389
  145MOL0     H19114   8.149   3.840   0.349  0.2757 -1.5878  1.1200
  145MOL0     H19115   8.116   3.985   0.432 -1.6184  1.0531  2.5930
  145MOL0     H19116   7.896   3.803   0.318  0.1388 -0.2618  1.6574
  145MOL0     H19117   7.964   3.948   0.231 -1.3052 -0.1164 -0.9557
  145MOL0     H19118   7.835   3.955   0.507 -2.5385  3.1443  0.3102
  145MOL0     H19119   7.880   4.091   0.414 -1.7383  1.6873 -0.5063
  145MOL0     H19120   7.631   4.039   0.429  0.8432 -0.2493  0.8507
  145MOL0     H19121   7.663   3.892   0.332  0.5634 -0.6727 -0.9443
  145MOL0     H19122   8.621   3.686   0.581  2.1506  1.2243 -0.9160
  145MOL0     H19123   8.864   3.642   0.650 -1.2821  0.9006 -1.7002
  145MOL0     H19124   9.160   3.472   0.953  1.1254  1.1161 -4.3022
  145MOL0     H19125   9.383   3.432   1.023 -1.6947  1.7297 -0.7878
  145MOL0     H19126  11.044   3.440   1.638  2.9570  0.6186 -1.8383
  145MOL0     H19127  11.203   3.622   1.603 -0.1801 -4.2607 -0.7825
  145MOL0     H19128  11.364   4.095   1.784 -1.0024  1.4825 -0.0627
  145MOL0     H19129  11.536   4.268   1.716 -1.7467  0.7636  0.4590
  145MOL0     H19130  11.617   4.475   1.330  2.0922 -0.6486 -1.2311
  145MOL0     H19131  11.605   4.303   1.314  0.6394 -0.7240  1.3601
  145MOL0     H19132  11.836   4.418   1.376 -0.9566 -0.3562 -1.6244
  145MOL0     H19133  11.777   4.394   1.552 -3.7934 -0.6527  0.4944
  145MOL0     H19134  11.727   4.150   1.459  0.3058  0.4664  1.7747
  145MOL0     H19135  11.877   4.184   1.530 -0.7178 -4.2646 -0.9717
  145MOL0     H19136  11.859   4.066   1.286 -1.1486 -1.3511  0.8778
  145MOL0     H19137  11.824   4.227   1.232  0.9347 -0.1420 -0.7331
  145MOL0     H19138  12.226   4.204   1.294 -0.4960  0.8005 -0.1089
  145MOL0     H19139  11.385   4.230   1.321 -0.2378 -1.8541 -0.1046
  145MOL0     H19140  11.267   4.035   1.373  1.2352  1.2292 -1.0714
  146MOL0     O19141   1.410   1.025   6.014 -0.2416  0.5224 -0.4752
  146MOL0     C19142   1.438   1.147   6.013 -0.4629 -0.9127 -0.8451
  146MOL0     O19143   1.354   1.248   5.966  0.9177 -0.0613 -0.1147
  146MOL0     C19144   1.238   1.200   5.912 -0.1180 -0.2090  0.5849
  146MOL0     C19145   1.242   1.199   5.772 -0.8733 -0.2936  0.2392
  146MOL0     C19146   1.125   1.178   5.695 -0.4738  0.2498 -0.5039
  146MOL0     C19147   1.001   1.168   5.756 -0.0487  0.8996 -0.5960
  146MOL0     O19148   0.900   1.149   5.669 -0.2664 -0.4369  0.4363
  146MOL0     C19149   0.767   1.147   5.707  0.5398  0.7915 -0.1596
  146MOL0     C19150   0.681   1.202   5.595 -0.7679  0.5195 -0.5767
  146MOL0     C19151   0.623   1.091   5.495 -0.2027  0.1014 -0.1061
  146MOL0     C19152   0.483   1.041   5.543 -0.4255 -0.0080 -0.0135
  146MOL0     C19153   0.404   0.930   5.463  0.4722 -0.2606  0.0938
  146MOL0     C19154   0.398   0.965   5.316  0.5641 -0.2242  0.3634
  146MOL0     C19155   0.304   0.880   5.229  0.3674  0.3115 -0.7961
  146MOL0     C19156   0.368   0.749   5.185 -0.6518  0.9028  0.0096
  146MOL0     N19157   0.267   0.657   5.120  0.5667  0.4302  1.3568
  146MOL0     C19158   0.226   0.538   5.178 -0.0250  0.1223 -0.2237
  146MOL0     C19159   0.101   0.513   5.125 -0.2748  0.0864  0.0765
  146MOL0     C19160   0.022   0.392   5.156 -0.6525 -0.4042 -0.4054
  146MOL0     C19161   0.055   0.330   5.292 -0.0071 -0.2084 -0.3161
  146MOL0     C19162   0.037   0.412   5.421  0.4719  0.5936 -0.3815
  146MOL0     C19163  -0.049   0.344   5.524 -0.0681  1.1537 -0.4026
  146MOL0     O19164  -0.194   0.369   5.507  0.1363  0.4380  0.0256
  146MOL0     C19165  -0.285   0.293   5.571 -0.3276  0.1198 -0.1418
  146MOL0     C19166  -0.419   0.298   5.538 -0.3445  0.4379  0.5123
  146MOL0     C19167  -0.514   0.207   5.592 -0.1196 -0.1015 -0.5463
  146MOL0     C19168  -0.471   0.131   5.698  0.9143  0.4610 -1.1679
  146MOL0     C19169  -0.564   0.045   5.779 -0.3906 -0.2358  0.9655
  146MOL0     O19170  -0.689   0.029   5.725  0.0229 -0.2458  0.9997
  146MOL0     C19171  -0.787  -0.047   5.781  0.5954  1.1898 -0.1052
  146MOL0     C19172  -0.922  -0.023   5.750 -0.6649  0.2712  0.0027
  146MOL0     C19173  -1.028  -0.103   5.795  0.4120  0.1493 -0.3995
  146MOL0     C19174  -1.005  -0.218   5.866 -0.3714 -0.2659  0.0596
  146MOL0     O19175  -1.115  -0.290   5.916 -0.7220  0.0197  0.3370
  146MOL0     C19176  -1.100  -0.419   5.968  0.0205 -0.0787  1.4002
  146MOL0     C19177  -1.240  -0.454   6.012 -1.0552  0.2709  0.0258
  146MOL0     C19178  -1.298  -0.362   6.117 -0.3014 -0.2309 -0.6128
  146MOL0     C19179  -1.441  -0.376   6.163 -0.1867 -0.2956 -0.9440
  146MOL0     C19180  -1.475  -0.524   6.209 -0.8648 -0.0997  0.3821
  146MOL0     C19181  -1.577  -0.549   6.316  0.3697  0.4919 -0.1486
  146MOL0     C19182  -1.552  -0.465   6.441  0.5110 -0.7013  0.8711
  146MOL0     C19183  -1.423  -0.509   6.523  0.3545  0.1239 -0.0816
  146MOL0    Cl19184  -1.447  -0.664   6.614 -0.5123 -0.0422 -0.4259
  146MOL0     C19185  -0.873  -0.258   5.889  0.7860  0.0447  0.4866
  146MOL0     C19186  -0.770  -0.169   5.854 -0.7309 -1.2402 -0.2864
  146MOL0     O19187  -0.527  -0.004   5.890 -0.1902 -0.2535 -0.1243
  146MOL0     C19188  -0.337   0.125   5.743  0.1154 -0.1457  0.6160
  146MOL0     C19189  -0.239   0.201   5.671  0.2912 -0.2423 -0.9274
  146MOL0     N19190   0.085   0.604   5.023 -0.1927  0.0367  0.1559
  146MOL0     N19191   0.173   0.692   5.023 -0.4320 -0.9712  0.4385
  146MOL0     C19192   0.997   1.167   5.896  0.2353 -0.5455 -0.1950
  146MOL0     C19193   1.115   1.190   5.974 -1.0718  0.0052 -0.9176
  146MOL0     C19194   1.555   1.200   6.086  0.0380 -0.8855 -0.3671
  146MOL0     C19195   1.642   1.119   6.166  0.6298  0.7469 -0.1709
  146MOL0     C19196   1.761   1.175   6.223 -0.7311 -0.1532  0.0226
  146MOL0     C19197   1.785   1.313   6.214  0.3553  0.5233 -0.3058
  146MOL0     O19198   1.898   1.380   6.272 -0.5650  0.0330 -0.0831
  146MOL0     C19199   1.990   1.311   6.355  0.4216  0.4777  0.2718
  146MOL0     C19200   2.099   1.403   6.404  0.7556  0.2493  0.7230
  146MOL0     C19201   2.037   1.515   6.489  0.3001 -0.0095  0.3271
  146MOL0     C19202   2.150   1.583   6.571  0.5173 -0.6789  0.8024
  146MOL0     C19203   2.220   1.688   6.500 -0.7873 -0.6965  0.6606
  146MOL0     C19204   2.266   1.788   6.448 -0.7263  0.1109 -0.4953
  146MOL0     C19205   1.704   1.392   6.133 -0.5652  0.7406  0.0377
  146MOL0     C19206   1.592   1.342   6.073  0.1943  0.3851 -0.7232
  146MOL0     H19207   1.333   1.212   5.715 -1.2871  1.1526 -0.1393
  146MOL0     H19208   1.128   1.173   5.586 -0.0953  0.1327 -0.4893
  146MOL0     H19209   0.745   1.202   5.799  0.7329  1.5112 -0.5366
  146MOL0     H19210   0.740   1.041   5.716  1.8795  0.2062 -2.2818
  146MOL0     H19211   0.751   1.267   5.542  0.5004 -1.4905 -1.4863
  146MOL0     H19212   0.599   1.258   5.640 -0.6155 -0.7222  1.3246
  146MOL0     H19213   0.696   1.011   5.478 -2.0117 -1.0235 -3.3148
  146MOL0     H19214   0.602   1.127   5.394 -3.9323  1.7586  1.0866
  146MOL0     H19215   0.502   1.014   5.647  3.5362 -0.6813 -0.7718
  146MOL0     H19216   0.405   1.117   5.551  0.0546  0.3614  1.5327
  146MOL0     H19217   0.303   0.919   5.503  0.3055  1.2636  0.1637
  146MOL0     H19218   0.469   0.842   5.451  1.0702  0.5388 -4.9033
  146MOL0     H19219   0.497   0.965   5.270  1.0406 -0.4203  1.3743
  146MOL0     H19220   0.360   1.068   5.315  0.2948 -0.2991  1.6231
  146MOL0     H19221   0.210   0.851   5.277  0.4281 -2.1074 -1.9850
  146MOL0     H19222   0.277   0.928   5.135 -1.2085 -0.7486 -0.9278
  146MOL0     H19223   0.415   0.697   5.270 -0.9360 -2.7832 -1.8866
  146MOL0     H19224   0.445   0.768   5.110 -0.3127 -3.3513 -0.9539
  146MOL0     H19225   0.274   0.460   5.238  1.6984 -1.8092 -3.7784
  146MOL0     H19226   0.031   0.319   5.075  1.9354 -0.7109  0.0840
  146MOL0     H19227  -0.083   0.419   5.172 -0.5587 -0.5773  0.5687
  146MOL0     H19228   0.160   0.300   5.284  0.3026  0.8102 -0.2634
  146MOL0     H19229   0.013   0.232   5.315  1.5292 -0.1018  3.7865
  146MOL0     H19230   0.130   0.427   5.476  1.4550  1.0054 -2.0983
  146MOL0     H19231  -0.008   0.509   5.402  2.2303  1.4740 -0.1855
  146MOL0     H19232   0.002   0.373   5.616  2.9180  0.8248 -1.8320
  146MOL0     H19233  -0.025   0.237   5.520  2.4896  1.5692  1.2436
  146MOL0     H19234  -0.453   0.354   5.452  1.8138  0.8878 -0.1126
  146MOL0     H19235  -0.614   0.211   5.551 -0.4167  0.0265  0.1947
  146MOL0     H19236  -0.953   0.049   5.675  1.0811 -1.9529 -3.0634
  146MOL0     H19237  -1.128  -0.076   5.763  0.3380  1.9424  1.1477
  146MOL0     H19238  -1.021  -0.426   6.043  2.5706 -0.4807 -1.1397
  146MOL0     H19239  -1.067  -0.488   5.889 -1.5712  2.8143 -2.0919
  146MOL0     H19240  -1.241  -0.558   6.048 -2.3026  0.1150 -0.3973
  146MOL0     H19241  -1.303  -0.449   5.922 -1.5036 -1.1096  0.2344
  146MOL0     H19242  -1.292  -0.262   6.073 -0.4927  0.1152  0.1376
  146MOL0     H19243  -1.230  -0.364   6.202  0.4741 -2.5593 -1.2350
  146MOL0     H19244  -1.477  -0.308   6.240 -3.7138 -2.2520 -0.6184
  146MOL0     H19245  -1.497  -0.350   6.073 -2.1015  0.6637  0.4606
  146MOL0     H19246  -1.380  -0.571   6.238  0.1593  2.6417  1.7419
  146MOL0     H19247  -1.507  -0.564   6.112 -0.5392  0.6429 -0.0444
  146MOL0     H19248  -1.571  -0.653   6.350  1.4361 -0.6546 -3.4376
  146MOL0     H19249  -1.668  -0.523   6.261  1.0422 -0.6849 -1.9269
  146MOL0     H19250  -1.560  -0.358   6.422 -0.6277 -0.7332  1.1026
  146MOL0     H19251  -1.639  -0.472   6.508 -2.9439  1.3169 -2.9937
  146MOL0     H19252  -1.399  -0.439   6.604 -0.3239 -0.1785  0.3846
  146MOL0     H19253  -1.340  -0.525   6.453  0.7369 -1.0697  0.6201
  146MOL0     H19254  -0.844  -0.350   5.939 -0.9216 -0.5493  0.4292
  146MOL0     H19255  -0.667  -0.196   5.875 -0.1253  2.3936  2.3833
  146MOL0     H19256  -0.314   0.073   5.835  1.2766  1.5659  1.3407
  146MOL0     H19257  -0.133   0.200   5.698 -0.0374  0.5650  0.5249
  146MOL0     H19258   0.898   1.156   5.938 -0.0490  0.1799 -0.6618
  146MOL0     H19259   1.116   1.198   6.083 -0.5108 -0.7488 -0.8588
  146MOL0     H19260   1.632   1.011   6.176  0.1133  0.8398  0.3298
  146MOL0     H19261   1.831   1.106   6.269 -0.7635 -0.8598 -0.9495
  146MOL0     H19262   2.031   1.229   6.295  1.1411 -0.2451  1.7094
  146MOL0     H19263   1.935   1.287   6.447 -2.8761 -0.3962 -1.7508
  146MOL0     H19264   2.171   1.346   6.463  0.6823 -1.3947 -0.6832
  146MOL0     H19265   2.153   1.440   6.316  3.9562 -2.6473  1.2505
  146MOL0     H19266   1.969   1.464   6.558 -0.6879 -1.7673 -1.8238
  146MOL0     H19267   1.996   1.587   6.418  5.2316  1.3131 -1.5491
  146MOL0     H19268   2.098   1.634   6.652  1.8836 -0.2994  1.4667
  146MOL0     H19269   2.215   1.509   6.617  1.0667  0.0869  1.2811
  146MOL0     H19270   2.302   1.877   6.399 -1.2136  0.1233 -0.8344
  146MOL0     H19271   1.744   1.491   6.113 -0.5364  0.7880  0.3194
  146MOL0     H19272   1.552   1.416   6.005  1.2001  1.2760 -0.3750
  147MOL0     O19273   3.989   5.785   6.124  0.0669 -0.4510  0.4020
  147MOL0     C19274   4.045   5.677   6.133  0.3057 -0.8023  0.3932
  147MOL0     O19275   3.995   5.560   6.093 -0.1231 -0.5849  0.4906
  147MOL0     C19276   3.878   5.550   6.019  1.6608  0.4936  0.0988
  147MOL0     C19277   3.876   5.428   5.950 -0.1566  0.9911  0.8832
  147MOL0     C19278   3.766   5.381   5.872  0.3041 -1.1869  0.3796
  147MOL0     C19279   3.653   5.463   5.857  0.5226  0.0249 -0.8448
  147MOL0     O19280   3.531   5.429   5.808 -0.3269  0.2570 -0.2776
  147MOL0     C19281   3.526   5.382   5.674  0.4055  0.7880 -0.0583
  147MOL0     C19282   3.388   5.331   5.640 -0.0186  0.6148 -0.3304
  147MOL0     C19283   3.387   5.202   5.570 -0.5665 -0.3085  0.4712
  147MOL0     C19284   3.390   5.230   5.415 -0.1446 -0.0323  0.4373
  147MOL0     C19285   3.292   5.125   5.346 -0.6083 -1.1087  0.5277
  147MOL0     C19286   3.300   5.123   5.186 -0.1797 -0.7660  0.1781
  147MOL0     C19287   3.206   5.018   5.138 -0.2136 -0.3273 -0.4114
  147MOL0     C19288   3.222   4.987   4.991 -0.3591  0.3523  0.2701
  147MOL0     N19289   3.183   5.113   4.916  0.6463 -0.9137  0.8868
  147MOL0     C19290   3.069   5.189   4.928 -0.8085  0.0019 -1.1850
  147MOL0     C19291   3.096   5.293   4.850  0.9127  0.0641 -0.1757
  147MOL0     C19292   2.994   5.404   4.818  0.0283  1.0021  0.2164
  147MOL0     C19293   2.955   5.501   4.932 -0.4092  0.5310 -0.1365
  147MOL0     C19294   2.839   5.582   4.897  0.0677 -0.4808 -0.8667
  147MOL0     C19295   2.725   5.560   5.010 -1.5109 -0.7802 -1.0085
  147MOL0     O19296   2.688   5.421   5.022 -0.0704 -0.3814  0.1147
  147MOL0     C19297   2.594   5.404   5.125 -0.5472  0.5204 -0.2063
  147MOL0     C19298   2.512   5.511   5.178 -0.0374  0.1770  1.2430
  147MOL0     C19299   2.433   5.497   5.292  0.5321 -0.2002  0.2806
  147MOL0     C19300   2.446   5.367   5.360 -0.9041  0.1836 -0.9573
  147MOL0     C19301   2.369   5.344   5.483 -1.0657  0.6387 -0.2120
  147MOL0     O19302   2.376   5.219   5.550 -0.5364  0.3467  0.0172
  147MOL0     C19303   2.313   5.200   5.664  0.0419 -0.9239 -0.4972
  147MOL0     C19304   2.171   5.210   5.678  0.0586 -0.5512  1.0260
  147MOL0     C19305   2.107   5.185   5.798 -0.7005 -0.4801  0.3660
  147MOL0     C19306   2.187   5.152   5.913  0.8745 -0.6320 -0.7591
  147MOL0     O19307   2.101   5.126   6.025 -0.1642 -0.1047 -0.1284
  147MOL0     C19308   2.154   5.098   6.161  0.4026 -0.3328 -0.8258
  147MOL0     C19309   2.057   5.025   6.249 -0.6954 -0.2833  0.7389
  147MOL0     C19310   2.072   4.873   6.232  0.1874  0.3451 -0.3004
  147MOL0     C19311   1.970   4.789   6.309  0.4715  0.0299 -0.3846
  147MOL0     C19312   1.990   4.634   6.328  0.4206 -0.2253 -0.5109
  147MOL0     C19313   2.107   4.590   6.410 -0.3261 -0.7713  0.2376
  147MOL0     C19314   2.136   4.442   6.432 -0.6376 -1.2364  0.0955
  147MOL0     C19315   2.274   4.404   6.481 -0.1792  0.0382 -0.4745
  147MOL0    Cl19316   2.362   4.317   6.348  0.1681  0.3859 -0.5790
  147MOL0     C19317   2.333   5.144   5.900  0.1776 -0.3238 -0.3712
  147MOL0     C19318   2.390   5.169   5.773  0.6077  0.9929  0.1148
  147MOL0     O19319   2.310   5.446   5.529  0.1435  0.1036 -0.2767
  147MOL0     C19320   2.525   5.269   5.315 -0.0405  0.0845 -0.2009
  147MOL0     C19321   2.593   5.294   5.197 -0.0564  0.2915 -0.6332
  147MOL0     N19322   3.208   5.278   4.777 -0.4370 -0.3460  0.2044
  147MOL0     N19323   3.263   5.175   4.816  1.2513  0.5990  0.2084
  147MOL0     C19324   3.664   5.598   5.907  0.0894 -0.7559  0.3433
  147MOL0     C19325   3.776   5.645   5.990  0.3032 -0.1459 -0.8212
  147MOL0     C19326   4.184   5.665   6.163 -0.6274 -0.3788 -0.1851
  147MOL0     C19327   4.282   5.774   6.178  0.5009 -0.0516 -0.8306
  147MOL0     C19328   4.417   5.753   6.205  0.1387  0.4128 -0.4942
  147MOL0     C19329   4.461   5.615   6.214  0.5262 -0.0285 -0.4478
  147MOL0     O19330   4.590   5.573   6.238  0.1906 -0.8466 -0.0842
  147MOL0     C19331   4.699   5.665   6.198  0.6278  0.0156 -0.3886
  147MOL0     C19332   4.828   5.602   6.238  0.4759  1.4629  0.1162
  147MOL0     C19333   4.841   5.581   6.393 -0.5025  0.1313  0.5401
  147MOL0     C19334   4.884   5.442   6.436  1.1537 -0.4913  0.5096
  147MOL0     C19335   4.965   5.437   6.561 -1.3790 -0.3284  0.7542
  147MOL0     C19336   5.008   5.440   6.669 -0.4716  0.0970  0.2568
  147MOL0     C19337   4.369   5.508   6.208 -0.6410  0.2666 -0.9227
  147MOL0     C19338   4.238   5.530   6.181 -1.1911  0.0166 -0.1533
  147MOL0     H19339   3.950   5.350   5.968 -3.6524 -2.5022  1.6120
  147MOL0     H19340   3.755   5.281   5.832 -2.1395 -1.0962  0.6692
  147MOL0     H19341   3.602   5.305   5.663 -0.4991 -0.2223  0.5316
  147MOL0     H19342   3.555   5.456   5.599  2.5060  0.5591  0.4848
  147MOL0     H19343   3.328   5.411   5.596 -1.1769 -0.2061 -0.2894
  147MOL0     H19344   3.325   5.323   5.728  1.6617 -1.4056  0.7827
  147MOL0     H19345   3.293   5.155   5.600 -0.5214  0.3146  1.6615
  147MOL0     H19346   3.463   5.132   5.606 -3.0601 -2.9507  0.9669
  147MOL0     H19347   3.338   5.325   5.400 -4.1299 -1.2202  4.5158
  147MOL0     H19348   3.492   5.240   5.377 -0.3064  1.3141  0.3363
  147MOL0     H19349   3.192   5.166   5.364 -0.4452 -0.5333  0.1386
  147MOL0     H19350   3.301   5.023   5.383  2.4612 -1.0628  0.1444
  147MOL0     H19351   3.399   5.095   5.149  0.6331 -0.7498  2.2028
  147MOL0     H19352   3.268   5.218   5.141 -1.8795 -1.9690 -1.2627
  147MOL0     H19353   3.223   4.929   5.199 -2.0040  0.3683  1.2259
  147MOL0     H19354   3.103   5.053   5.149  0.1765  0.8601 -0.3278
  147MOL0     H19355   3.154   4.907   4.960  0.6922  0.3082 -2.1736
  147MOL0     H19356   3.324   4.956   4.967 -1.0466 -0.4014 -1.8724
  147MOL0     H19357   2.981   5.172   4.990  0.3148  3.3606  1.7105
  147MOL0     H19358   2.908   5.353   4.774  0.5987  0.2228 -0.0178
  147MOL0     H19359   3.037   5.467   4.739 -0.1317 -0.0709 -0.7398
  147MOL0     H19360   3.036   5.573   4.949 -1.1574  1.4421 -0.3793
  147MOL0     H19361   2.948   5.443   5.024  2.1520  2.3347  1.3216
  147MOL0     H19362   2.852   5.689   4.915  0.0164 -0.3206 -1.6995
  147MOL0     H19363   2.806   5.578   4.792 -0.4605  2.0343 -0.8630
  147MOL0     H19364   2.643   5.625   4.978 -0.9290  2.6868  3.5169
  147MOL0     H19365   2.764   5.601   5.103 -1.1789  0.3539 -1.6271
  147MOL0     H19366   2.508   5.610   5.133  0.4848 -0.5489 -0.4696
  147MOL0     H19367   2.370   5.568   5.344  2.3702  0.0762  2.2822
  147MOL0     H19368   2.120   5.251   5.591  2.5998  4.3340  1.4585
  147MOL0     H19369   1.999   5.199   5.801 -0.8002 -1.3671  1.4109
  147MOL0     H19370   2.178   5.185   6.223  0.0272 -0.0530 -1.0659
  147MOL0     H19371   2.251   5.048   6.157  0.2742 -0.5382 -1.5598
  147MOL0     H19372   1.956   5.057   6.221  0.8165  1.0745 -4.1573
  147MOL0     H19373   2.071   5.062   6.351  0.2217 -1.0318  0.8959
  147MOL0     H19374   2.167   4.840   6.274 -1.0502 -3.7403 -0.1849
  147MOL0     H19375   2.068   4.847   6.125 -0.3989  1.5915 -0.6018
  147MOL0     H19376   1.957   4.835   6.407 -3.1517  4.3973 -2.4989
  147MOL0     H19377   1.872   4.805   6.261 -0.0456 -0.1167  0.6116
  147MOL0     H19378   1.988   4.575   6.235 -0.2692  1.1676 -1.4096
  147MOL0     H19379   1.907   4.587   6.381 -0.1230  0.1701 -1.0084
  147MOL0     H19380   2.099   4.634   6.510  3.2791 -1.6324  1.0529
  147MOL0     H19381   2.204   4.626   6.374  1.0167 -1.2566  3.0712
  147MOL0     H19382   2.054   4.408   6.496 -0.3595  1.1677  1.8823
  147MOL0     H19383   2.129   4.399   6.332 -1.9441 -2.8903  0.8544
  147MOL0     H19384   2.268   4.331   6.562  0.4665  1.3047  0.7422
  147MOL0     H19385   2.324   4.496   6.510  0.4113 -0.8708  1.5004
  147MOL0     H19386   2.394   5.113   5.984 -2.8017 -0.9625  1.7314
  147MOL0     H19387   2.493   5.149   5.747  0.0358 -2.5175  0.0476
  147MOL0     H19388   2.525   5.168   5.357  1.3297  0.5006  0.8815
  147MOL0     H19389   2.658   5.216   5.159  0.0579  1.5268 -3.1713
  147MOL0     H19390   3.571   5.654   5.897 -0.7916 -2.1429  0.4215
  147MOL0     H19391   3.762   5.750   6.015  1.1516  0.0141 -0.9983
  147MOL0     H19392   4.231   5.868   6.165 -5.3052 -2.4190  1.5768
  147MOL0     H19393   4.487   5.834   6.222  1.0188 -0.6721  1.4128
  147MOL0     H19394   4.687   5.764   6.242  1.0034  0.8977 -2.1723
  147MOL0     H19395   4.693   5.671   6.089  0.8169  0.7316 -0.3598
  147MOL0     H19396   4.827   5.506   6.186  2.4576  0.4314  1.8370
  147MOL0     H19397   4.920   5.645   6.196  1.6475 -1.5817 -0.7324
  147MOL0     H19398   4.748   5.604   6.445 -1.8637 -0.4592 -1.5228
  147MOL0     H19399   4.919   5.645   6.436  1.0206 -1.3167  0.0449
  147MOL0     H19400   4.798   5.375   6.448 -0.3972  1.2743 -0.0688
  147MOL0     H19401   4.954   5.413   6.357 -0.0108  0.0222 -0.7709
  147MOL0     H19402   5.038   5.448   6.772 -2.3289  0.4660  0.8201
  147MOL0     H19403   4.403   5.407   6.227  0.7146  0.6790 -1.0637
  147MOL0     H19404   4.171   5.446   6.196 -0.8652  0.1517  2.7249
  148MOL0     O19405  10.412   6.826  10.636  0.2399  0.6234 -0.6232
  148MOL0     C19406  10.494   6.726  10.622 -0.1334 -0.2873  0.7812
  148MOL0     O19407  10.462   6.595  10.585  0.2309  0.5644  0.6695
  148MOL0     C19408  10.340   6.557  10.540 -0.0938  0.4046 -0.2650
  148MOL0     C19409  10.260   6.480  10.622 -0.3544 -0.0888  0.0802
  148MOL0     C19410  10.133   6.437  10.582 -0.4330  0.3692  0.3908
  148MOL0     C19411  10.075   6.483  10.461  0.0660 -0.2560 -0.3467
  148MOL0     O19412   9.947   6.476  10.434 -1.3685  0.3984 -0.3650
  148MOL0     C19413   9.910   6.444  10.292  0.2428  0.6276 -0.2512
  148MOL0     C19414   9.916   6.294  10.284  0.2376 -1.5924 -0.4276
  148MOL0     C19415   9.878   6.251  10.148  0.6156 -0.2762  0.5181
  148MOL0     C19416   9.731   6.281  10.108 -0.8968 -1.0157  0.2691
  148MOL0     C19417   9.680   6.212   9.978 -0.5120 -0.5168 -0.6511
  148MOL0     C19418   9.628   6.074  10.023  0.3681 -0.3407  0.2446
  148MOL0     C19419   9.559   5.992   9.910  0.2349  1.2672  1.2169
  148MOL0     C19420   9.589   6.016   9.760 -1.0357  0.0545  0.1778
  148MOL0     N19421   9.728   5.976   9.729 -0.0368  0.0799  0.4916
  148MOL0     C19422   9.778   5.853   9.700 -0.7083  1.1862 -0.7502
  148MOL0     C19423   9.904   5.871   9.675  0.2266 -0.0711  0.3027
  148MOL0     C19424   9.994   5.772   9.634  0.4133 -0.2469  0.1818
  148MOL0     C19425  10.015   5.772   9.477 -0.1848 -0.9926  0.2224
  148MOL0     C19426  10.008   5.636   9.409 -1.1848  0.1476 -0.3018
  148MOL0     C19427   9.862   5.602   9.369 -0.9233 -0.1759 -0.1651
  148MOL0     O19428   9.792   5.554   9.487  0.0610  0.7896  0.1209
  148MOL0     C19429   9.669   5.601   9.522  0.4155  0.1188 -0.0901
  148MOL0     C19430   9.629   5.563   9.653  0.6597  0.1426  0.3027
  148MOL0     C19431   9.505   5.610   9.712 -0.6155 -0.3683  0.4654
  148MOL0     C19432   9.416   5.687   9.634 -0.1467 -0.1393  0.4642
  148MOL0     C19433   9.296   5.735   9.700 -0.5361 -0.9694 -0.9923
  148MOL0     O19434   9.275   5.699   9.830  0.0880 -0.0550  0.0152
  148MOL0     C19435   9.152   5.740   9.876  0.6769 -0.5798 -0.4088
  148MOL0     C19436   9.120   5.871   9.902  0.4654  0.5226 -0.5934
  148MOL0     C19437   8.996   5.901   9.957  0.7020  0.2506 -0.6288
  148MOL0     C19438   8.895   5.801   9.981 -0.4634 -0.3071  0.0169
  148MOL0     O19439   8.768   5.830  10.035 -1.0696 -0.3988 -0.4982
  148MOL0     C19440   8.692   5.729  10.092  0.8253  0.4652 -0.9518
  148MOL0     C19441   8.763   5.678  10.222 -0.2971 -0.0529  0.2983
  148MOL0     C19442   8.786   5.783  10.340 -0.1878  0.2918 -0.2244
  148MOL0     C19443   8.913   5.878  10.321 -0.9360  0.1085 -0.1782
  148MOL0     C19444   8.961   5.961  10.440  0.0041  0.2003 -0.5081
  148MOL0     C19445   9.107   5.994  10.423  0.5842 -0.8506 -0.9084
  148MOL0     C19446   9.175   6.041  10.556 -0.5964 -0.2124 -0.8879
  148MOL0     C19447   9.300   6.133  10.540  1.0140  0.0584 -0.6303
  148MOL0    Cl19448   9.381   6.138  10.703  0.4395 -0.0149 -0.1049
  148MOL0     C19449   8.928   5.665   9.945 -0.6816  0.5876 -0.7868
  148MOL0     C19450   9.055   5.635   9.894 -0.0595 -1.0323  0.1140
  148MOL0     O19451   9.225   5.806   9.629  0.3576  0.7392 -0.4579
  148MOL0     C19452   9.448   5.714   9.502  0.4985  1.1880 -0.3364
  148MOL0     C19453   9.573   5.675   9.448  0.9383  0.2902  0.4241
  148MOL0     N19454   9.934   6.003   9.687 -0.3939  0.3831 -0.2024
  148MOL0     N19455   9.826   6.070   9.706 -0.5880  0.3340  0.2351
  148MOL0     C19456  10.159   6.557  10.375  0.7789 -0.2421 -0.4529
  148MOL0     C19457  10.281   6.589  10.418 -0.0638 -0.0099  0.2103
  148MOL0     C19458  10.644   6.729  10.653  1.0757  0.1876  0.8846
  148MOL0     C19459  10.704   6.854  10.662  0.0190 -0.1551  0.5423
  148MOL0     C19460  10.831   6.864  10.711 -0.3071  0.2596 -0.0743
  148MOL0     C19461  10.918   6.754  10.720  0.5186  0.3998  0.6779
  148MOL0     O19462  11.051   6.765  10.752 -0.5867 -0.0849 -0.0834
  148MOL0     C19463  11.107   6.890  10.752 -0.8521  0.1606  0.6584
  148MOL0     C19464  11.253   6.888  10.816 -0.1474 -0.3934  0.4248
  148MOL0     C19465  11.356   6.787  10.750  0.0927 -0.3340 -0.5102
  148MOL0     C19466  11.504   6.795  10.790 -0.8691 -0.8205 -0.1845
  148MOL0     C19467  11.588   6.698  10.719 -0.0908  0.2792 -0.4539
  148MOL0     C19468  11.647   6.611  10.666 -0.5400  0.4978  0.4449
  148MOL0     C19469  10.860   6.626  10.711  0.0046 -0.0061 -0.0024
  148MOL0     C19470  10.719   6.615  10.677 -0.3913 -0.5581 -0.7070
  148MOL0     H19471  10.306   6.450  10.715 -1.8376 -0.1598  0.8232
  148MOL0     H19472  10.070   6.369  10.638  3.2228 -1.9298  2.0848
  148MOL0     H19473   9.973   6.473  10.207  0.2961 -2.8612 -1.5864
  148MOL0     H19474   9.812   6.481  10.264  0.2216 -0.6840 -2.1197
  148MOL0     H19475   9.840   6.252  10.351 -2.6191 -0.3782 -2.6756
  148MOL0     H19476  10.020   6.274  10.313  0.7671  2.0038  0.6270
  148MOL0     H19477   9.882   6.141  10.151  0.5997 -0.2498  2.7645
  148MOL0     H19478   9.954   6.291  10.080 -0.4294 -0.3282 -0.7375
  148MOL0     H19479   9.661   6.254  10.188 -0.6615  1.4832  1.3949
  148MOL0     H19480   9.728   6.388  10.091  0.7233 -0.5173  2.5802
  148MOL0     H19481   9.758   6.209   9.902  0.1120 -1.1732  0.0065
  148MOL0     H19482   9.598   6.271   9.936  0.8175  0.0647 -2.5531
  148MOL0     H19483   9.549   6.092  10.097  0.5488  1.2907  0.0647
  148MOL0     H19484   9.705   6.017  10.076 -0.0913  0.1399  1.4755
  148MOL0     H19485   9.589   5.888   9.925 -1.6628  0.2368 -1.3378
  148MOL0     H19486   9.451   5.993   9.927 -0.0979 -0.4026 -0.4669
  148MOL0     H19487   9.563   6.122   9.753 -1.2915  0.0265  0.6596
  148MOL0     H19488   9.528   5.955   9.692  2.3752 -1.4692 -1.7656
  148MOL0     H19489   9.720   5.762   9.713 -0.0187  0.5511 -1.9240
  148MOL0     H19490   9.949   5.677   9.662 -0.8065  0.5389  1.0162
  148MOL0     H19491  10.091   5.786   9.684  0.4803 -0.4762  0.1174
  148MOL0     H19492  10.118   5.797   9.450 -0.7911 -2.4774 -4.2728
  148MOL0     H19493   9.951   5.842   9.424  1.4056 -0.5300 -1.1750
  148MOL0     H19494  10.065   5.628   9.316 -2.1876  0.1914 -0.9340
  148MOL0     H19495  10.047   5.557   9.474 -0.7328  0.5154 -0.1254
  148MOL0     H19496   9.872   5.520   9.297  4.8448  0.6905 -0.8276
  148MOL0     H19497   9.799   5.679   9.324  1.5179  1.7925 -0.4108
  148MOL0     H19498   9.694   5.504   9.717 -1.7326 -3.2729 -0.1338
  148MOL0     H19499   9.502   5.591   9.819  1.9602 -3.9214  0.0911
  148MOL0     H19500   9.181   5.955   9.872  1.2439 -0.0966 -0.7609
  148MOL0     H19501   8.981   6.000   9.999  0.5950  1.4387 -3.2900
  148MOL0     H19502   8.657   5.652  10.023 -1.1824  0.5726 -0.1355
  148MOL0     H19503   8.594   5.763  10.128  2.7428  1.4888  4.2505
  148MOL0     H19504   8.862   5.647  10.188  0.6803  2.9317  0.1076
  148MOL0     H19505   8.710   5.596  10.271 -0.9508  0.2432  0.0978
  148MOL0     H19506   8.785   5.728  10.434  0.5336  2.4457  1.1138
  148MOL0     H19507   8.691   5.838  10.349 -1.0568 -1.0089 -1.0155
  148MOL0     H19508   8.995   5.813  10.287  0.7366  0.3354  3.0839
  148MOL0     H19509   8.898   5.952  10.242 -1.0737  0.4211  0.1396
  148MOL0     H19510   8.961   5.879  10.512 -3.8943 -1.0668 -1.6797
  148MOL0     H19511   8.889   6.039  10.467 -0.7166 -0.9458  1.0075
  148MOL0     H19512   9.121   6.070  10.346  0.6534  0.4931  0.3809
  148MOL0     H19513   9.157   5.909  10.376 -0.3868 -1.8236 -0.2324
  148MOL0     H19514   9.104   6.090  10.623 -0.1035 -3.0379  1.9977
  148MOL0     H19515   9.207   5.954  10.615 -2.0402  1.1093  2.0660
  148MOL0     H19516   9.266   6.229  10.502 -1.5551 -0.7594 -0.6029
  148MOL0     H19517   9.385   6.092  10.484  1.3414 -3.9020  2.2868
  148MOL0     H19518   8.857   5.584   9.932  1.6300 -1.3303 -2.2617
  148MOL0     H19519   9.076   5.532   9.866  0.3379 -0.7922 -0.5088
  148MOL0     H19520   9.374   5.763   9.440  1.6320  4.1566  0.4813
  148MOL0     H19521   9.587   5.703   9.344  0.4402  2.9499  0.9991
  148MOL0     H19522  10.133   6.588  10.274  1.6484  1.9131 -0.0505
  148MOL0     H19523  10.343   6.658  10.361 -0.3186  1.7367  1.9181
  148MOL0     H19524  10.642   6.943  10.656 -1.7917 -1.3862  0.3171
  148MOL0     H19525  10.876   6.962  10.721  3.7549 -1.1705 -1.9203
  148MOL0     H19526  11.046   6.963  10.806 -1.1129  1.5701 -1.4210
  148MOL0     H19527  11.128   6.917  10.648  0.4702 -3.9759 -0.3449
  148MOL0     H19528  11.286   6.991  10.800 -0.3636 -0.2946  0.6164
  148MOL0     H19529  11.242   6.858  10.920 -0.4473 -2.0614 -0.0693
  148MOL0     H19530  11.356   6.806  10.643  1.7359  2.8785 -0.0663
  148MOL0     H19531  11.333   6.680  10.754  2.2788 -0.9589 -2.3501
  148MOL0     H19532  11.552   6.889  10.760 -1.0431 -0.8707 -0.6250
  148MOL0     H19533  11.510   6.792  10.899  1.4431  0.6886 -0.2056
  148MOL0     H19534  11.680   6.535  10.599 -0.7288  1.9685 -1.3866
  148MOL0     H19535  10.933   6.546  10.718  1.2910  1.0173 -1.0895
  148MOL0     H19536  10.666   6.520  10.673 -0.8913 -0.2398 -1.9204
  149MOL0     O19537   7.563   3.875   9.126  0.1011 -0.6977  0.9110
  149MOL0     C19538   7.614   3.966   9.197 -0.1594  0.4577  1.3935
  149MOL0     O19539   7.563   4.012   9.313 -0.1321 -0.5970  0.3055
  149MOL0     C19540   7.446   3.948   9.353 -0.6482 -1.6202 -0.9924
  149MOL0     C19541   7.325   3.988   9.298  0.0080  0.3463 -0.2300
  149MOL0     C19542   7.214   3.921   9.322 -0.3928  0.4375  0.6177
  149MOL0     C19543   7.210   3.831   9.425 -0.1415  0.2508  0.7290
  149MOL0     O19544   7.096   3.763   9.456  0.3326  0.4010  0.0151
  149MOL0     C19545   7.049   3.788   9.589  0.2978  0.2932 -0.1530
  149MOL0     C19546   6.970   3.918   9.600  0.2490  0.7047  0.0363
  149MOL0     C19547   6.854   3.948   9.510  0.5128 -0.1126 -0.4009
  149MOL0     C19548   6.766   4.041   9.583  0.3443  0.3161 -0.1319
  149MOL0     C19549   6.656   3.968   9.657  0.5300  0.3314 -0.6866
  149MOL0     C19550   6.531   4.056   9.695  0.7328  0.0337  0.6837
  149MOL0     C19551   6.420   3.971   9.763  0.0468 -0.6755 -0.1241
  149MOL0     C19552   6.322   4.056   9.836  0.6141 -0.3707 -0.1896
  149MOL0     N19553   6.199   3.990   9.869 -0.0334  0.2463  0.2071
  149MOL0     C19554   6.071   4.050   9.889  0.6379  0.1728 -0.0712
  149MOL0     C19555   5.988   3.943   9.900  0.1964  1.0618 -0.3010
  149MOL0     C19556   5.838   3.966   9.921 -0.1920  0.1119 -0.3579
  149MOL0     C19557   5.770   3.876  10.033  0.0995  0.4915 -0.2952
  149MOL0     C19558   5.634   3.921  10.061 -0.6685 -0.0346 -0.0234
  149MOL0     C19559   5.539   3.890   9.938 -0.6555 -0.1545  0.2721
  149MOL0     O19560   5.407   3.922   9.977 -0.4793  0.4921 -0.2278
  149MOL0     C19561   5.313   3.842  10.036  0.2610 -0.1078 -0.8246
  149MOL0     C19562   5.195   3.906  10.042  0.8944 -0.7614  0.1937
  149MOL0     C19563   5.090   3.843  10.118  0.8194  0.0585  0.1681
  149MOL0     C19564   5.112   3.714  10.182  0.1814  0.4945  0.1464
  149MOL0     C19565   5.012   3.648  10.281  0.8251  0.2969  0.4572
  149MOL0     O19566   5.035   3.518  10.305  0.5493  0.0899 -0.5627
  149MOL0     C19567   4.948   3.448  10.378  0.5220  0.2416  0.2797
  149MOL0     C19568   4.882   3.336  10.319  0.1185 -0.1598  1.5183
  149MOL0     C19569   4.794   3.249  10.379  0.4678 -0.4372  0.6959
  149MOL0     C19570   4.762   3.272  10.513 -0.1532 -0.9993 -0.2156
  149MOL0     O19571   4.664   3.203  10.580  0.4011 -0.2749  0.1155
  149MOL0     C19572   4.660   3.067  10.553 -0.5485  1.1158  0.7841
  149MOL0     C19573   4.528   3.047  10.468  0.7484 -0.6696 -0.3027
  149MOL0     C19574   4.399   3.054  10.544  0.3841 -0.2016 -0.1454
  149MOL0     C19575   4.277   3.015  10.459  0.6401  1.6090  0.7992
  149MOL0     C19576   4.151   2.978  10.536 -0.2654 -0.1621  0.3980
  149MOL0     C19577   4.034   3.029  10.453 -0.1337  0.0095  0.0724
  149MOL0     C19578   4.015   2.951  10.317 -0.1240  0.5200  0.5509
  149MOL0     C19579   3.936   3.026  10.213 -0.6463 -0.3433  0.0805
  149MOL0    Cl19580   3.764   3.048  10.279 -0.2230  0.3326 -0.1657
  149MOL0     C19581   4.807   3.390  10.569 -0.2778 -0.2722  0.1585
  149MOL0     C19582   4.904   3.473  10.508  0.6261  0.0479 -0.1978
  149MOL0     O19583   4.912   3.712  10.316  0.6291 -0.5362  0.5976
  149MOL0     C19584   5.238   3.652  10.165  0.3593 -0.7416 -0.0785
  149MOL0     C19585   5.342   3.724  10.103 -0.1905  0.0206  0.2645
  149MOL0     N19586   6.055   3.825   9.891 -1.7299 -0.2640  0.5949
  149MOL0     N19587   6.185   3.853   9.870 -0.1714 -0.1891  1.1962
  149MOL0     C19588   7.329   3.804   9.487  0.5007  0.5397  0.1828
  149MOL0     C19589   7.454   3.861   9.457 -0.6830 -0.7053  0.3602
  149MOL0     C19590   7.732   4.033   9.137  0.1573  0.3200 -0.4823
  149MOL0     C19591   7.776   4.160   9.169 -0.7093 -0.1459  0.3437
  149MOL0     C19592   7.874   4.236   9.097  0.3209  0.1576 -0.8486
  149MOL0     C19593   7.941   4.176   8.999 -0.0974 -0.8936  0.6067
  149MOL0     O19594   8.024   4.267   8.934  0.1116 -0.6657 -0.1658
  149MOL0     C19595   8.115   4.207   8.846  0.0519 -1.1708 -0.5158
  149MOL0     C19596   8.238   4.289   8.806  0.9212 -0.3748  0.1582
  149MOL0     C19597   8.346   4.275   8.911  0.1101 -0.1894  0.6411
  149MOL0     C19598   8.321   4.366   9.029 -0.3318  0.1814 -0.3157
  149MOL0     C19599   8.455   4.411   9.067  0.4377 -0.3388 -1.0858
  149MOL0     C19600   8.562   4.450   9.101  0.9372 -0.0456 -0.0527
  149MOL0     C19601   7.915   4.037   8.973  0.0039  1.3278  0.2881
  149MOL0     C19602   7.801   3.974   9.030  0.4750 -0.5774  0.1252
  149MOL0     H19603   7.319   4.080   9.240 -0.2671  0.0804 -0.6212
  149MOL0     H19604   7.117   3.950   9.281 -1.2587 -0.1567  2.1389
  149MOL0     H19605   7.132   3.812   9.656  0.0112  1.2680 -0.1309
  149MOL0     H19606   6.987   3.712   9.636  1.1449 -0.0083  0.5029
  149MOL0     H19607   7.040   4.003   9.599 -0.0061  1.0754  3.4282
  149MOL0     H19608   6.936   3.906   9.703  2.8640  3.8036  1.4609
  149MOL0     H19609   6.796   3.864   9.473 -1.0196  0.4436  0.6253
  149MOL0     H19610   6.885   3.994   9.415 -1.2855 -1.4811 -1.7164
  149MOL0     H19611   6.827   4.097   9.655  1.0932  0.3962 -0.8077
  149MOL0     H19612   6.719   4.107   9.510 -0.8459  0.0849  0.4121
  149MOL0     H19613   6.700   3.922   9.746 -0.5913  0.3909 -0.0886
  149MOL0     H19614   6.616   3.897   9.583  0.5363 -1.6743  1.1226
  149MOL0     H19615   6.483   4.103   9.609 -0.4641  1.2809  1.9987
  149MOL0     H19616   6.571   4.137   9.758  1.2214 -0.1149  0.5729
  149MOL0     H19617   6.370   3.925   9.677 -0.0875 -1.5219  0.3930
  149MOL0     H19618   6.450   3.908   9.848 -0.1487  2.0689  2.1173
  149MOL0     H19619   6.306   4.146   9.776 -1.0134 -1.6195 -1.6941
  149MOL0     H19620   6.371   4.085   9.930 -1.3665  2.9978 -0.0141
  149MOL0     H19621   6.044   4.155   9.895 -0.5234 -0.2094  2.4534
  149MOL0     H19622   5.786   3.942   9.827  1.0024 -3.9717 -0.1788
  149MOL0     H19623   5.833   4.072   9.946  0.7049  0.4727 -1.6040
  149MOL0     H19624   5.824   3.863  10.127  0.2508 -1.0974 -0.5801
  149MOL0     H19625   5.764   3.771  10.004  1.3348 -0.3154  2.1203
  149MOL0     H19626   5.603   3.871  10.153 -3.4419  1.6945  0.0873
  149MOL0     H19627   5.627   4.028  10.084  0.8383  0.3413 -1.0940
  149MOL0     H19628   5.537   3.785   9.907 -2.9794  0.5385 -2.3500
  149MOL0     H19629   5.567   3.948   9.850 -0.2421 -0.3027  0.3025
  149MOL0     H19630   5.186   3.980   9.963  1.5354  0.5477  1.2977
  149MOL0     H19631   4.997   3.896  10.135  0.6621 -0.8669  2.5881
  149MOL0     H19632   4.907   3.320  10.214 -0.9862 -5.1318  1.7507
  149MOL0     H19633   4.763   3.163  10.321  1.5175 -2.4859  2.9942
  149MOL0     H19634   4.655   3.010  10.647 -0.0065  0.0628  0.1907
  149MOL0     H19635   4.751   3.039  10.500 -2.5120  1.0652 -2.8755
  149MOL0     H19636   4.537   2.949  10.419  3.1233 -0.0216 -1.3448
  149MOL0     H19637   4.521   3.120  10.387  0.9031 -1.9203 -1.4900
  149MOL0     H19638   4.374   3.151  10.586  1.5029  1.0806 -2.2796
  149MOL0     H19639   4.406   2.973  10.618  2.4310 -1.8205 -1.9552
  149MOL0     H19640   4.255   3.093  10.386 -1.0659  1.0438  0.6817
  149MOL0     H19641   4.307   2.930  10.397 -0.5713  2.2091 -0.6714
  149MOL0     H19642   4.150   3.026  10.634  1.8685  0.8734 -0.0232
  149MOL0     H19643   4.156   2.870  10.556  5.7205 -0.3607 -0.1928
  149MOL0     H19644   4.047   3.136  10.431 -2.1266  0.0713 -1.0254
  149MOL0     H19645   3.945   3.022  10.516 -0.4948  3.7000  0.2368
  149MOL0     H19646   4.109   2.910  10.279  2.6418  4.8322  2.0372
  149MOL0     H19647   3.957   2.860  10.332  3.0007 -1.5619  0.8339
  149MOL0     H19648   3.916   2.980  10.116 -0.5079  2.1710 -1.2256
  149MOL0     H19649   3.988   3.120  10.192 -1.1877  0.3504  1.7355
  149MOL0     H19650   4.763   3.426  10.662 -1.4332 -1.0925 -0.0424
  149MOL0     H19651   4.941   3.563  10.555  1.1755 -0.1488 -0.2379
  149MOL0     H19652   5.266   3.560  10.215  1.4870  1.1009  2.9402
  149MOL0     H19653   5.443   3.687  10.112  0.0773  0.9481  1.2684
  149MOL0     H19654   7.328   3.718   9.553 -1.4803  1.4196  1.4053
  149MOL0     H19655   7.550   3.830   9.497  0.4706 -2.2481 -3.1821
  149MOL0     H19656   7.731   4.219   9.249  0.9531 -1.2548  2.2080
  149MOL0     H19657   7.891   4.341   9.119 -3.0965  0.1726  3.1176
  149MOL0     H19658   8.058   4.196   8.753  0.3114  1.7463 -1.1130
  149MOL0     H19659   8.141   4.104   8.873 -2.2012 -1.2386  1.7618
  149MOL0     H19660   8.283   4.251   8.714  1.4978  1.1390 -0.2092
  149MOL0     H19661   8.219   4.395   8.790 -3.1614 -0.7057  1.7011
  149MOL0     H19662   8.445   4.296   8.870  0.3586 -4.0068 -1.1844
  149MOL0     H19663   8.359   4.173   8.951  4.3612 -0.5682 -1.2440
  149MOL0     H19664   8.262   4.454   9.002 -1.3886 -0.7136 -1.0023
  149MOL0     H19665   8.265   4.322   9.113 -0.8399  0.0978 -0.6911
  149MOL0     H19666   8.663   4.468   9.132  1.4451  3.0715 -2.9271
  149MOL0     H19667   7.977   3.973   8.911 -2.0177  0.9988 -1.5286
  149MOL0     H19668   7.777   3.878   8.987  2.2125 -0.3559 -1.4816
  150MOL0     O19669   0.769   1.276   9.115 -0.0853 -0.7462 -0.0564
  150MOL0     C19670   0.711   1.349   9.038 -0.0317  0.0661  0.9163
  150MOL0     O19671   0.657   1.480   9.057  0.2939  0.6588 -0.2525
  150MOL0     C19672   0.647   1.523   9.190  0.0726 -0.9007  0.2955
  150MOL0     C19673   0.750   1.608   9.236 -0.0421  0.6410 -1.2732
  150MOL0     C19674   0.737   1.663   9.358 -0.6386  0.0459 -1.0866
  150MOL0     C19675   0.615   1.650   9.437 -0.7992 -0.6645 -0.8371
  150MOL0     O19676   0.608   1.729   9.548  0.3624  0.5074  0.0861
  150MOL0     C19677   0.522   1.682   9.662  0.5703 -0.6389  0.7487
  150MOL0     C19678   0.557   1.746   9.796 -0.8136  0.6859  0.6099
  150MOL0     C19679   0.707   1.779   9.813  0.6474 -0.2805 -0.0325
  150MOL0     C19680   0.764   1.774   9.954 -0.5892 -0.3206 -0.6370
  150MOL0     C19681   0.736   1.642  10.018  0.1825 -0.4276  0.3538
  150MOL0     C19682   0.832   1.615  10.130 -0.4580 -0.1206 -0.1245
  150MOL0     C19683   0.878   1.737  10.229 -0.0642  0.1221  0.2234
  150MOL0     C19684   0.961   1.691  10.351  1.5928  0.7273  0.2099
  150MOL0     N19685   1.094   1.630  10.327  1.2341  0.1087  0.5486
  150MOL0     C19686   1.189   1.682  10.238 -0.7348 -0.1778 -0.4204
  150MOL0     C19687   1.307   1.617  10.275  0.1727 -0.7439  0.9952
  150MOL0     C19688   1.436   1.639  10.213  0.9287 -1.7560  0.0439
  150MOL0     C19689   1.492   1.780  10.253  0.2862  1.5408 -0.8061
  150MOL0     C19690   1.617   1.833  10.190 -0.2576  0.9876 -0.0217
  150MOL0     C19691   1.606   1.828  10.041 -0.8375  0.7932  0.5983
  150MOL0     O19692   1.508   1.932  10.004 -0.6460 -0.1492 -1.1635
  150MOL0     C19693   1.449   1.915   9.876 -0.2408  0.3209 -0.6661
  150MOL0     C19694   1.326   1.967   9.856  0.2343 -0.6771  0.2077
  150MOL0     C19695   1.254   1.940   9.737 -0.0567 -0.8875  0.1935
  150MOL0     C19696   1.298   1.854   9.640 -0.3101  0.3258  0.2594
  150MOL0     C19697   1.225   1.828   9.510 -0.6056  0.1086  0.4426
  150MOL0     O19698   1.299   1.769   9.406  0.5546  0.5199 -0.0115
  150MOL0     C19699   1.238   1.717   9.297 -0.4620  0.2229  0.9326
  150MOL0     C19700   1.188   1.803   9.200  0.0275  0.7680 -0.3224
  150MOL0     C19701   1.142   1.750   9.077 -0.4883  0.5725 -1.0540
  150MOL0     C19702   1.143   1.611   9.056 -0.0301  0.1524  0.0305
  150MOL0     O19703   1.100   1.560   8.936  0.3281 -0.3302  0.4794
  150MOL0     C19704   1.104   1.635   8.816  0.0889  0.0955  0.1208
  150MOL0     C19705   1.048   1.549   8.696 -0.8220 -0.0352 -0.3956
  150MOL0     C19706   1.039   1.639   8.573  0.2019 -0.2194  0.8803
  150MOL0     C19707   1.017   1.558   8.444 -0.8094 -0.1716 -0.4128
  150MOL0     C19708   1.047   1.646   8.313  0.2597  1.0517 -1.2720
  150MOL0     C19709   1.054   1.556   8.194 -0.6203  1.1502  0.3747
  150MOL0     C19710   1.059   1.629   8.069 -1.1129 -0.4456  0.5994
  150MOL0     C19711   1.070   1.546   7.943  0.1826  0.1717  0.0911
  150MOL0    Cl19712   0.907   1.460   7.927  0.1375  0.5614 -0.1396
  150MOL0     C19713   1.189   1.531   9.153 -0.5782  0.0951  0.4130
  150MOL0     C19714   1.235   1.582   9.273 -0.1067 -0.6310  0.0676
  150MOL0     O19715   1.106   1.856   9.511  0.1811 -0.0937  0.3582
  150MOL0     C19716   1.429   1.815   9.653 -0.9943 -0.3093  0.3665
  150MOL0     C19717   1.504   1.836   9.772  1.0643  0.0171 -1.1019
  150MOL0     N19718   1.274   1.531  10.378  0.4806 -0.3479 -0.5661
  150MOL0     N19719   1.151   1.545  10.411 -0.6742 -0.0163  0.3968
  150MOL0     C19720   0.511   1.570   9.394  0.1856 -0.1504  0.2515
  150MOL0     C19721   0.528   1.508   9.268 -0.3778 -0.3000  0.5623
  150MOL0     C19722   0.686   1.301   8.900 -0.1466 -0.9707 -0.2787
  150MOL0     C19723   0.731   1.183   8.846  0.4387 -0.1445 -0.0894
  150MOL0     C19724   0.701   1.131   8.718  0.4490  0.8506 -0.2786
  150MOL0     C19725   0.633   1.212   8.634 -0.0879  0.6208 -0.8810
  150MOL0     O19726   0.599   1.153   8.521  0.1020 -0.0492  1.0000
  150MOL0     C19727   0.513   1.203   8.421  0.4659 -0.2517  0.4858
  150MOL0     C19728   0.444   1.085   8.342  0.9588 -0.0230 -0.3308
  150MOL0     C19729   0.317   1.133   8.266 -0.6033 -0.2809 -0.0485
  150MOL0     C19730   0.269   1.018   8.189  1.1066  1.0933  0.2593
  150MOL0     C19731   0.160   1.064   8.102 -0.2262 -0.2519  1.2719
  150MOL0     C19732   0.076   1.110   8.033 -0.2834 -0.0440  0.2847
  150MOL0     C19733   0.591   1.341   8.680  0.8662 -0.6686  0.4162
  150MOL0     C19734   0.618   1.378   8.806 -0.0706  0.6426 -0.4520
  150MOL0     H19735   0.822   1.628   9.157  0.8701  1.2536 -0.3203
  150MOL0     H19736   0.818   1.729   9.388  2.0119 -3.4458  0.0931
  150MOL0     H19737   0.527   1.573   9.666 -2.4537 -0.8789 -0.0243
  150MOL0     H19738   0.421   1.718   9.644  1.6396  2.4890  0.3408
  150MOL0     H19739   0.536   1.667   9.868  3.7815 -2.3132 -0.8966
  150MOL0     H19740   0.506   1.840   9.818 -1.3544  1.6384 -3.7960
  150MOL0     H19741   0.734   1.872   9.763  1.1989 -1.4213 -1.9838
  150MOL0     H19742   0.751   1.694   9.759 -0.2548 -0.2756 -0.7919
  150MOL0     H19743   0.870   1.799   9.964 -0.8059  0.2683  0.2956
  150MOL0     H19744   0.705   1.845  10.012  0.2782  0.2142 -0.3814
  150MOL0     H19745   0.762   1.568   9.943  2.2574  2.0194 -1.4982
  150MOL0     H19746   0.630   1.628  10.041  0.3709 -0.4853  1.2233
  150MOL0     H19747   0.924   1.580  10.082  1.1123  3.7883 -0.3668
  150MOL0     H19748   0.788   1.531  10.185  1.5490 -0.1668  1.5346
  150MOL0     H19749   0.949   1.802  10.177  1.0179 -1.5281 -0.4387
  150MOL0     H19750   0.786   1.791  10.256  0.1200  1.2220 -1.2479
  150MOL0     H19751   0.897   1.633  10.417 -1.5964  1.3270 -2.1246
  150MOL0     H19752   0.987   1.774  10.418  2.6210 -1.6331  2.9047
  150MOL0     H19753   1.189   1.752  10.155  1.4238  0.3179 -0.0674
  150MOL0     H19754   1.421   1.629  10.105  1.1870  1.2667 -0.3464
  150MOL0     H19755   1.506   1.567  10.257 -0.2680 -3.3796 -0.5976
  150MOL0     H19756   1.511   1.779  10.361  3.6196 -1.3965 -1.2116
  150MOL0     H19757   1.419   1.856  10.225 -1.5398  1.0539  2.2588
  150MOL0     H19758   1.635   1.935  10.226  2.8631  0.1588  1.1359
  150MOL0     H19759   1.693   1.769  10.237 -0.0731 -0.9666 -2.7607
  150MOL0     H19760   1.581   1.731   9.997  1.0202  0.9872 -0.9770
  150MOL0     H19761   1.704   1.840   9.995 -1.8005 -4.2761 -3.6687
  150MOL0     H19762   1.276   2.041   9.917 -1.4530  0.8970 -2.8352
  150MOL0     H19763   1.160   1.994   9.724  0.1133  0.3214  3.1873
  150MOL0     H19764   1.170   1.909   9.211 -0.1661  0.4611  3.5034
  150MOL0     H19765   1.090   1.819   9.011 -0.8276  0.9307 -0.4224
  150MOL0     H19766   1.207   1.667   8.799  0.0706  0.5163  0.7488
  150MOL0     H19767   1.046   1.727   8.825 -0.7485 -0.0793 -2.6217
  150MOL0     H19768   0.951   1.506   8.721 -0.4525 -2.4263 -2.6278
  150MOL0     H19769   1.113   1.461   8.683  0.1211  0.4649  0.6974
  150MOL0     H19770   1.132   1.698   8.571 -0.6184  1.1128 -0.9006
  150MOL0     H19771   0.957   1.711   8.582 -0.8000 -0.8603 -2.0354
  150MOL0     H19772   1.075   1.465   8.449 -0.1337  0.2969  0.6014
  150MOL0     H19773   0.912   1.526   8.441 -1.4007  1.2497  2.3283
  150MOL0     H19774   1.143   1.698   8.326 -0.0296  2.4591 -3.9773
  150MOL0     H19775   0.966   1.719   8.304  0.2587  0.9815 -1.8509
  150MOL0     H19776   0.974   1.481   8.189  2.7158 -2.8201  1.5305
  150MOL0     H19777   1.144   1.496   8.207 -3.5387 -3.2197  2.6126
  150MOL0     H19778   0.979   1.704   8.060  2.5101  3.9282  1.0355
  150MOL0     H19779   1.151   1.689   8.068 -1.9487  0.9173 -1.2156
  150MOL0     H19780   1.156   1.479   7.939 -1.2023 -1.6919 -2.4231
  150MOL0     H19781   1.090   1.620   7.865 -1.8968 -1.3330 -2.0296
  150MOL0     H19782   1.193   1.422   9.143  1.8133  0.1369  0.2574
  150MOL0     H19783   1.245   1.517   9.360  0.9931  0.4851  0.8104
  150MOL0     H19784   1.481   1.758   9.577  2.3262  1.6879  0.9495
  150MOL0     H19785   1.602   1.789   9.777 -1.0195 -4.7312  0.5967
  150MOL0     H19786   0.416   1.558   9.446 -0.0728  0.0899 -0.1590
  150MOL0     H19787   0.454   1.436   9.235  0.8798 -1.6057  0.5013
  150MOL0     H19788   0.795   1.128   8.915  2.4880  0.9326 -1.0324
  150MOL0     H19789   0.749   1.036   8.700 -0.3162  0.5366 -0.7175
  150MOL0     H19790   0.575   1.253   8.345 -1.8687 -0.9739 -2.0334
  150MOL0     H19791   0.445   1.275   8.467  0.3712 -0.8362  1.2705
  150MOL0     H19792   0.528   1.044   8.285  0.7999  0.5582 -0.9958
  150MOL0     H19793   0.415   1.008   8.413 -0.7395 -0.5899 -1.5856
  150MOL0     H19794   0.345   1.211   8.195  3.9662 -1.3494  0.2761
  150MOL0     H19795   0.230   1.169   8.323 -2.5679 -1.2879 -2.2142
  150MOL0     H19796   0.348   0.973   8.128  0.1467  0.4365 -0.5317
  150MOL0     H19797   0.232   0.939   8.256  3.1291 -1.1389 -1.1053
  150MOL0     H19798   0.004   1.134   7.958  0.4253  0.6506 -0.1855
  150MOL0     H19799   0.541   1.408   8.612  0.4883  0.0225  1.3508
  150MOL0     H19800   0.576   1.472   8.839  0.5363  1.3891 -1.7230
  151MOL0     O19801   9.612   9.643  10.971 -0.0424  0.2084 -0.1521
  151MOL0     C19802   9.619   9.707  11.072 -0.5469 -0.6997 -1.0015
  151MOL0     O19803   9.563   9.685  11.186  0.6514 -0.3507  0.2132
  151MOL0     C19804   9.496   9.561  11.182  0.4337 -0.6229  0.3832
  151MOL0     C19805   9.363   9.565  11.212 -0.2024  0.0403 -0.6118
  151MOL0     C19806   9.296   9.439  11.231  0.0994 -0.2615  0.1433
  151MOL0     C19807   9.364   9.317  11.225  0.0603 -0.4633  0.2325
  151MOL0     O19808   9.312   9.191  11.246  0.0924 -0.4923 -0.1508
  151MOL0     C19809   9.177   9.170  11.195  0.2562 -0.8507  0.1791
  151MOL0     C19810   9.146   9.024  11.164 -0.1707  0.0921 -0.1539
  151MOL0     C19811   9.010   9.010  11.100  0.3496  0.5579  0.1268
  151MOL0     C19812   8.951   8.882  11.125  0.9649 -0.1962  0.4809
  151MOL0     C19813   8.809   8.879  11.058 -0.2056 -0.5313 -0.6508
  151MOL0     C19814   8.743   8.744  11.066  0.4649 -1.2111 -1.0246
  151MOL0     C19815   8.614   8.734  10.968 -0.5666 -0.0609  0.2412
  151MOL0     C19816   8.482   8.718  11.040  0.7917  0.4924  0.0875
  151MOL0     N19817   8.357   8.678  10.966  0.0829  0.2257  0.3262
  151MOL0     C19818   8.340   8.617  10.843  0.4135  0.9390 -0.1361
  151MOL0     C19819   8.206   8.607  10.820 -0.0585  0.1267 -1.1101
  151MOL0     C19820   8.141   8.553  10.709 -0.0555  0.2204  0.1967
  151MOL0     C19821   8.044   8.640  10.635  0.0953  0.3559 -0.4537
  151MOL0     C19822   7.964   8.577  10.519 -0.7765 -0.1219  0.0770
  151MOL0     C19823   7.872   8.698  10.463  0.2398  0.6407  0.4113
  151MOL0     O19824   7.829   8.646  10.338  0.6532  0.2130 -0.0220
  151MOL0     C19825   7.695   8.655  10.316  0.0583  1.1919  0.0982
  151MOL0     C19826   7.656   8.737  10.211  0.1532 -0.6097  0.4028
  151MOL0     C19827   7.519   8.762  10.192  0.2837  0.4522 -0.6593
  151MOL0     C19828   7.429   8.689  10.267 -0.3148 -0.5062  0.1393
  151MOL0     C19829   7.289   8.722  10.235 -0.3367  0.4746 -1.1354
  151MOL0     O19830   7.200   8.663  10.319 -0.5049  0.8096 -0.6585
  151MOL0     C19831   7.072   8.711  10.325 -0.4671 -0.1715  0.1803
  151MOL0     C19832   6.964   8.623  10.312 -0.6820 -0.3592 -1.1364
  151MOL0     C19833   6.830   8.671  10.309 -0.7086 -0.1777 -0.1319
  151MOL0     C19834   6.802   8.802  10.318 -0.7429 -0.0723  0.5974
  151MOL0     O19835   6.668   8.832  10.321 -0.6050  0.2841 -0.5447
  151MOL0     C19836   6.617   8.956  10.363 -0.3924  0.3342 -0.4158
  151MOL0     C19837   6.639   8.979  10.515  0.3360 -0.4532  0.2482
  151MOL0     C19838   6.503   8.959  10.591 -0.1941 -0.5268  0.7842
  151MOL0     C19839   6.527   9.007  10.736  1.0413  0.5560 -0.0211
  151MOL0     C19840   6.424   8.954  10.835  0.6545  0.7482 -0.8238
  151MOL0     C19841   6.412   9.050  10.949  0.3006 -0.4692  0.0434
  151MOL0     C19842   6.325   9.003  11.068 -0.5766  0.2979  0.3254
  151MOL0     C19843   6.303   9.124  11.156 -0.5917  0.1971 -0.5032
  151MOL0    Cl19844   6.223   9.255  11.059  0.0018  0.2515  0.4343
  151MOL0     C19845   6.911   8.890  10.339  0.6658 -0.1455 -1.1867
  151MOL0     C19846   7.041   8.845  10.340 -0.7488 -0.2434 -0.1288
  151MOL0     O19847   7.252   8.791  10.136 -0.2635 -0.3899  0.2171
  151MOL0     C19848   7.464   8.606  10.371 -0.0332  0.8151 -0.3307
  151MOL0     C19849   7.602   8.586  10.393  0.7656 -0.3855  0.6789
  151MOL0     N19850   8.144   8.665  10.931 -0.6669 -0.3515 -0.1182
  151MOL0     N19851   8.235   8.698  11.020  0.5957  0.1248  0.8674
  151MOL0     C19852   9.497   9.324  11.196  0.4039 -0.1124  0.2890
  151MOL0     C19853   9.561   9.443  11.183  0.3852  0.4726  0.7546
  151MOL0     C19854   9.701   9.828  11.083 -0.1597 -0.0315  0.4554
  151MOL0     C19855   9.683   9.918  11.186  0.5620 -0.1066 -0.4284
  151MOL0     C19856   9.759  10.035  11.188  0.0644  0.4072 -0.2951
  151MOL0     C19857   9.860  10.048  11.094  0.3154 -0.4405  0.0823
  151MOL0     O19858   9.943  10.159  11.088  0.2550 -0.4705  0.0514
  151MOL0     C19859   9.929  10.281  11.164 -0.7949  0.0287 -0.8515
  151MOL0     C19860  10.062  10.317  11.236  0.6618 -0.0550 -0.0297
  151MOL0     C19861  10.147  10.199  11.289  0.4762  0.6519 -0.1961
  151MOL0     C19862  10.230  10.249  11.405  1.0912 -0.0594 -0.3437
  151MOL0     C19863  10.287  10.124  11.462 -1.0344 -0.1694  0.2358
  151MOL0     C19864  10.342  10.018  11.498  0.1905  0.0565  0.5253
  151MOL0     C19865   9.883   9.960  11.001  0.4691 -0.1188  0.3574
  151MOL0     C19866   9.804   9.849  10.991 -0.0160 -0.4991 -0.6550
  151MOL0     H19867   9.302   9.655  11.219 -1.7051 -0.9065 -1.2364
  151MOL0     H19868   9.191   9.421  11.252  0.0548 -0.7110 -0.4406
  151MOL0     H19869   9.174   9.232  11.105  1.2053  0.1134  0.7910
  151MOL0     H19870   9.099   9.192  11.268 -1.9009 -1.2517 -1.8956
  151MOL0     H19871   9.169   8.954  11.245  2.5794 -1.4056 -2.0959
  151MOL0     H19872   9.214   8.992  11.085 -1.6032  1.6582 -2.1505
  151MOL0     H19873   9.010   9.034  10.993  3.3995 -3.5074 -1.0755
  151MOL0     H19874   8.939   9.076  11.150 -1.9264 -1.1980 -0.6136
  151MOL0     H19875   9.021   8.805  11.090 -1.1907 -2.1961  0.3205
  151MOL0     H19876   8.928   8.875  11.231 -0.4420  0.3623  0.2340
  151MOL0     H19877   8.802   8.907  10.953 -0.2748  0.7226 -0.3273
  151MOL0     H19878   8.753   8.961  11.105  1.8602  2.3276 -2.8702
  151MOL0     H19879   8.716   8.722  11.170  0.7149  4.2998  0.5577
  151MOL0     H19880   8.825   8.689  11.020  0.1135  0.4795 -3.9426
  151MOL0     H19881   8.599   8.824  10.908 -0.8790  0.8014  1.5613
  151MOL0     H19882   8.631   8.644  10.909 -2.5075  1.0379 -2.1766
  151MOL0     H19883   8.461   8.810  11.096 -3.0524  1.6769 -2.8608
  151MOL0     H19884   8.509   8.636  11.108  1.5491 -2.3759 -3.3817
  151MOL0     H19885   8.412   8.571  10.775 -0.1109  1.2057 -0.8852
  151MOL0     H19886   8.085   8.462  10.732  1.3250 -1.1807 -1.6274
  151MOL0     H19887   8.216   8.515  10.639 -1.0877  3.0069 -2.6497
  151MOL0     H19888   8.111   8.712  10.587  2.2495 -2.6372 -2.3252
  151MOL0     H19889   7.981   8.681  10.713 -0.7801 -0.1917 -0.8551
  151MOL0     H19890   8.019   8.523  10.441 -3.2506 -2.6762 -0.0641
  151MOL0     H19891   7.891   8.500  10.547 -0.7818 -0.0193  0.3406
  151MOL0     H19892   7.932   8.789  10.459  0.2556  0.6614  1.0395
  151MOL0     H19893   7.789   8.701  10.535 -0.8044  1.5250 -0.7751
  151MOL0     H19894   7.726   8.791  10.149  1.9941 -1.7113  1.4155
  151MOL0     H19895   7.499   8.849  10.131 -0.0283 -0.1205 -1.3882
  151MOL0     H19896   6.988   8.517  10.300 -1.1116 -0.2181 -3.8918
  151MOL0     H19897   6.752   8.596  10.301  0.4158 -1.4219  0.1612
  151MOL0     H19898   6.512   8.941  10.337 -1.3143 -0.3700  3.1232
  151MOL0     H19899   6.658   9.028  10.291 -0.4587 -1.5442 -2.4147
  151MOL0     H19900   6.680   9.077  10.540  1.4841 -1.6041  3.3808
  151MOL0     H19901   6.715   8.906  10.543  2.8718  0.4378 -3.6603
  151MOL0     H19902   6.492   8.850  10.593 -0.0601 -0.5627 -0.0640
  151MOL0     H19903   6.418   9.014  10.548  1.0084  1.2302  0.5743
  151MOL0     H19904   6.619   8.967  10.779  0.3631  1.0398  1.9655
  151MOL0     H19905   6.524   9.116  10.736 -0.4795  0.5602 -1.3849
  151MOL0     H19906   6.444   8.852  10.868 -2.6139 -0.2679 -1.6779
  151MOL0     H19907   6.330   8.937  10.783  0.6205 -3.1562  0.1895
  151MOL0     H19908   6.369   9.140  10.904 -0.6647 -0.4376  0.9882
  151MOL0     H19909   6.512   9.075  10.986  0.8047 -3.1560  0.7537
  151MOL0     H19910   6.231   8.960  11.030 -0.7922 -0.0386  1.2206
  151MOL0     H19911   6.380   8.939  11.138  2.9361  3.7798  1.1119
  151MOL0     H19912   6.396   9.168  11.194 -0.7248 -1.9276  2.6559
  151MOL0     H19913   6.241   9.102  11.244 -0.8256 -2.5852 -1.2760
  151MOL0     H19914   6.894   8.995  10.360 -1.0583 -0.6378  0.1270
  151MOL0     H19915   7.117   8.921  10.358 -2.2326  1.9714 -2.6443
  151MOL0     H19916   7.380   8.554  10.417  1.0040 -1.6228 -0.9980
  151MOL0     H19917   7.637   8.516  10.469 -1.5697 -1.2657  1.0406
  151MOL0     H19918   9.547   9.231  11.171 -0.7074 -0.0249 -2.6685
  151MOL0     H19919   9.668   9.442  11.163  0.5567  1.8293  1.4913
  151MOL0     H19920   9.602   9.906  11.257  0.7233 -2.6984 -0.5829
  151MOL0     H19921   9.746  10.110  11.265 -1.6379  0.7920 -0.9134
  151MOL0     H19922   9.855  10.273  11.244  1.2910  1.4951  1.3479
  151MOL0     H19923   9.894  10.360  11.097  4.1342  0.8985 -2.7997
  151MOL0     H19924  10.119  10.382  11.169 -1.7368  3.8227  1.3606
  151MOL0     H19925  10.039  10.384  11.320 -0.8470  1.2357 -1.4076
  151MOL0     H19926  10.213  10.158  11.213 -0.6736  0.1977 -0.9815
  151MOL0     H19927  10.071  10.129  11.325  0.8962 -0.5567 -1.5844
  151MOL0     H19928  10.306  10.315  11.362 -0.3179 -0.5486 -3.8885
  151MOL0     H19929  10.163  10.297  11.477 -0.0185 -0.6006 -0.9809
  151MOL0     H19930  10.399   9.930  11.523  3.0249  0.5746 -3.2481
  151MOL0     H19931   9.975   9.967  10.943  1.9431  2.5830  2.7677
  151MOL0     H19932   9.823   9.773  10.916  0.7741 -1.4876  0.4964
  152MOL0     O19933   3.664   0.316   0.226  0.8390  0.7805  0.2371
  152MOL0     C19934   3.786   0.297   0.202 -0.6003 -0.3285  0.3775
  152MOL0     O19935   3.864   0.387   0.122 -0.5907  1.3715  0.4867
  152MOL0     C19936   3.806   0.454   0.021 -0.2682  0.7385 -0.1233
  152MOL0     C19937   3.757   0.381  -0.084  0.4192 -0.2499 -0.0455
  152MOL0     C19938   3.696   0.445  -0.194 -0.1167 -0.1187  0.1382
  152MOL0     C19939   3.683   0.587  -0.187 -0.2777 -0.3803  0.1593
  152MOL0     O19940   3.602   0.645  -0.281  0.7473  0.2392 -0.0865
  152MOL0     C19941   3.604   0.795  -0.296 -0.3241  1.0295  0.3533
  152MOL0     C19942   3.495   0.830  -0.405 -1.3065  0.2212  0.9249
  152MOL0     C19943   3.428   0.965  -0.371  0.1537 -0.4146 -0.1716
  152MOL0     C19944   3.309   1.006  -0.461  0.9276 -0.1971 -0.1953
  152MOL0     C19945   3.288   1.158  -0.468 -0.2856 -0.3058 -1.0036
  152MOL0     C19946   3.139   1.181  -0.521 -0.5280  0.8863 -0.6770
  152MOL0     C19947   3.114   1.120  -0.665  0.8712  0.0262  0.1758
  152MOL0     C19948   2.967   1.079  -0.698 -0.5165  0.7483 -0.3332
  152MOL0     N19949   2.886   1.176  -0.756  1.1519 -0.2037  0.4460
  152MOL0     C19950   2.846   1.296  -0.703  0.4644 -0.3488 -0.9284
  152MOL0     C19951   2.764   1.351  -0.790 -0.2654  0.1480  0.5207
  152MOL0     C19952   2.705   1.489  -0.786  0.0156  0.8912 -0.4256
  152MOL0     C19953   2.630   1.509  -0.651 -0.2721  0.3952  0.7195
  152MOL0     C19954   2.544   1.640  -0.659  0.3058 -0.0944 -0.4825
  152MOL0     C19955   2.439   1.648  -0.548 -0.3373  0.3831 -0.3189
  152MOL0     O19956   2.503   1.688  -0.419 -0.3577 -0.1957  0.1083
  152MOL0     C19957   2.433   1.696  -0.303  0.9665 -0.6496  0.4815
  152MOL0     C19958   2.302   1.644  -0.291  0.3882  0.0359 -0.2431
  152MOL0     C19959   2.226   1.683  -0.178  0.3498 -0.0972 -1.3470
  152MOL0     C19960   2.292   1.745  -0.068  0.0720 -0.5564  0.2154
  152MOL0     C19961   2.212   1.773   0.049  0.3567 -0.9409 -0.0654
  152MOL0     O19962   2.091   1.705   0.066 -0.0608  0.8232  0.3706
  152MOL0     C19963   2.027   1.736   0.183  0.6443  0.3692 -0.4248
  152MOL0     C19964   2.082   1.687   0.305  0.6376 -0.6740  0.0913
  152MOL0     C19965   2.019   1.732   0.428 -0.3815  0.8260 -0.0512
  152MOL0     C19966   1.903   1.812   0.436  0.3640  0.1466  0.1822
  152MOL0     O19967   1.841   1.838   0.549  0.9163  0.5089 -0.2089
  152MOL0     C19968   1.884   1.955   0.612 -1.0665 -0.3744  0.4892
  152MOL0     C19969   1.796   1.951   0.732 -0.2750  0.1019  0.2508
  152MOL0     C19970   1.646   1.995   0.711  0.7583  0.0413 -0.1381
  152MOL0     C19971   1.560   1.973   0.832  0.7561  0.6615 -0.7179
  152MOL0     C19972   1.412   1.995   0.782  0.5508 -0.2129 -1.0030
  152MOL0     C19973   1.318   1.993   0.901 -0.4455  0.4383 -0.6061
  152MOL0     C19974   1.180   2.039   0.859  0.5456 -0.0585  0.0559
  152MOL0     C19975   1.077   1.998   0.968 -1.1019  0.1492  0.0704
  152MOL0    Cl19976   0.912   2.019   0.904 -0.3371 -0.2186  0.7724
  152MOL0     C19977   1.843   1.841   0.312 -0.1097  0.6911  0.1345
  152MOL0     C19978   1.906   1.808   0.185 -0.2208  1.0814 -0.4883
  152MOL0     O19979   2.252   1.870   0.118  0.1680  0.5255  0.4530
  152MOL0     C19980   2.425   1.800  -0.084 -0.2064  0.7157 -0.1816
  152MOL0     C19981   2.488   1.773  -0.196 -1.2962  0.0577 -0.7284
  152MOL0     N19982   2.736   1.262  -0.892  0.6389 -0.3878 -0.5686
  152MOL0     N19983   2.815   1.167  -0.874 -0.6306 -0.3778 -0.0180
  152MOL0     C19984   3.743   0.662  -0.078  0.5079 -0.7032 -0.2503
  152MOL0     C19985   3.803   0.586   0.020 -0.1997 -0.1444  0.6267
  152MOL0     C19986   3.867   0.228   0.301 -0.4003  0.6866 -0.1432
  152MOL0     C19987   4.003   0.227   0.307 -0.3633  0.1307  1.3686
  152MOL0     C19988   4.076   0.122   0.367 -0.1294  0.4583 -0.5380
  152MOL0     C19989   4.014   0.016   0.433 -0.1763 -0.1904 -0.2725
  152MOL0     O19990   4.073  -0.090   0.500  0.0772  0.1371  0.5515
  152MOL0     C19991   4.209  -0.124   0.468 -0.2005  0.1389  0.1747
  152MOL0     C19992   4.204  -0.250   0.386  0.1091  0.0201  0.1807
  152MOL0     C19993   4.270  -0.383   0.441  0.5237 -0.3313  0.1649
  152MOL0     C19994   4.221  -0.506   0.368 -0.0668 -0.7154  0.2621
  152MOL0     C19995   4.302  -0.620   0.419 -0.0485  0.5951  0.1799
  152MOL0     C19996   4.355  -0.721   0.464 -0.2214 -0.1740 -0.6297
  152MOL0     C19997   3.878   0.034   0.447 -0.4160  0.1887 -1.1848
  152MOL0     C19998   3.800   0.135   0.376 -0.5745  0.7149 -0.3039
  152MOL0     H19999   3.753   0.274  -0.067  2.1449 -0.4441 -0.5909
  152MOL0     H20000   3.653   0.384  -0.272  0.8071  0.3065 -0.7201
  152MOL0     H20001   3.701   0.813  -0.344  0.4764 -0.2394  1.4328
  152MOL0     H20002   3.596   0.866  -0.213 -0.2064  1.8544 -0.3238
  152MOL0     H20003   3.425   0.746  -0.411 -3.2478  1.5471  3.0507
  152MOL0     H20004   3.544   0.844  -0.501 -1.8975 -2.5082  0.1224
  152MOL0     H20005   3.506   1.039  -0.387  0.2603 -0.9021 -2.2357
  152MOL0     H20006   3.393   0.975  -0.268  0.1553  1.8403 -0.3590
  152MOL0     H20007   3.340   0.956  -0.553 -0.0744 -0.7294 -0.2545
  152MOL0     H20008   3.212   0.961  -0.437 -1.9734  4.4692 -1.9589
  152MOL0     H20009   3.370   1.203  -0.526  1.8156 -1.3292  1.0016
  152MOL0     H20010   3.291   1.203  -0.369  0.4293  1.0358 -1.6044
  152MOL0     H20011   3.101   1.283  -0.509 -0.1618  1.0056 -0.5126
  152MOL0     H20012   3.077   1.129  -0.448  3.7777 -1.6214  1.6077
  152MOL0     H20013   3.137   1.195  -0.741  3.2955 -1.4830 -0.7051
  152MOL0     H20014   3.178   1.035  -0.690  1.3924  0.7186 -0.9044
  152MOL0     H20015   2.921   1.064  -0.600  1.2839 -6.3040 -0.0052
  152MOL0     H20016   2.982   0.992  -0.762  2.0349 -0.5031  1.7642
  152MOL0     H20017   2.875   1.344  -0.610 -0.1729  1.6152 -1.6774
  152MOL0     H20018   2.631   1.490  -0.866 -0.7414 -3.2582  0.0155
  152MOL0     H20019   2.774   1.571  -0.808 -0.3522  1.8550  1.7116
  152MOL0     H20020   2.701   1.513  -0.568  1.2171 -0.5423 -0.4758
  152MOL0     H20021   2.566   1.421  -0.640  2.2692 -1.6964 -0.2096
  152MOL0     H20022   2.607   1.729  -0.667 -1.5122  1.1413 -1.8332
  152MOL0     H20023   2.483   1.627  -0.749 -4.2236 -1.1101  2.4308
  152MOL0     H20024   2.398   1.549  -0.531  0.1017  0.3986  0.9404
  152MOL0     H20025   2.350   1.706  -0.575 -1.9203 -1.5247  0.5668
  152MOL0     H20026   2.261   1.588  -0.374 -1.1505 -1.0577  1.1725
  152MOL0     H20027   2.123   1.651  -0.169  1.0408 -2.1130  0.2573
  152MOL0     H20028   2.166   1.621   0.325  1.4875  0.3390 -0.0040
  152MOL0     H20029   2.071   1.687   0.513  0.5822 -0.3419 -1.1965
  152MOL0     H20030   1.877   2.034   0.537  2.1015 -1.0217 -0.6644
  152MOL0     H20031   1.988   1.945   0.645 -1.1120  0.8118  1.0628
  152MOL0     H20032   1.835   2.016   0.811 -0.0112  1.0456 -0.6409
  152MOL0     H20033   1.801   1.852   0.779 -3.4830  0.7960  2.3972
  152MOL0     H20034   1.610   1.940   0.624  1.0132 -0.6665  0.2042
  152MOL0     H20035   1.643   2.100   0.680  0.0250 -0.4400 -1.8076
  152MOL0     H20036   1.564   1.868   0.860 -0.1116 -0.0643 -3.0835
  152MOL0     H20037   1.579   2.034   0.921 -1.9320 -0.7908  0.9881
  152MOL0     H20038   1.388   1.917   0.709  3.8571 -1.3575 -1.0347
  152MOL0     H20039   1.402   2.096   0.741  1.5433 -0.2747 -1.4243
  152MOL0     H20040   1.354   2.052   0.986 -1.1342  1.1165 -0.7775
  152MOL0     H20041   1.322   1.895   0.950 -0.2445 -0.0284 -1.5286
  152MOL0     H20042   1.174   2.149   0.856 -2.0635 -0.1594 -1.6093
  152MOL0     H20043   1.154   1.981   0.770  0.3881 -1.0839  0.7589
  152MOL0     H20044   1.084   2.075   1.045  1.2245 -0.4727  0.5488
  152MOL0     H20045   1.098   1.899   1.008 -0.8706 -0.4185 -1.3862
  152MOL0     H20046   1.750   1.897   0.312 -1.3247 -0.9272 -4.0866
  152MOL0     H20047   1.857   1.825   0.090 -2.3821 -1.6703  0.0282
  152MOL0     H20048   2.471   1.863  -0.008 -2.7873  2.4406  0.0646
  152MOL0     H20049   2.584   1.818  -0.221 -1.1544  0.2828  0.1869
  152MOL0     H20050   3.725   0.768  -0.069  0.6722 -0.6758 -0.2413
  152MOL0     H20051   3.852   0.642   0.099 -1.6982  1.0665  0.7669
  152MOL0     H20052   4.053   0.310   0.257 -1.7714 -0.2646 -0.8086
  152MOL0     H20053   4.183   0.136   0.358 -0.1277  1.5608  0.8062
  152MOL0     H20054   4.261  -0.150   0.561 -2.0395  0.3859  1.3298
  152MOL0     H20055   4.265  -0.046   0.415  0.6420 -0.8009 -0.3560
  152MOL0     H20056   4.098  -0.269   0.368 -0.1569  1.0500  0.5978
  152MOL0     H20057   4.248  -0.221   0.290  0.6581  4.5443  1.5993
  152MOL0     H20058   4.250  -0.401   0.547 -0.7841  0.3094  0.0453
  152MOL0     H20059   4.377  -0.371   0.426  0.3952  4.8315  1.4838
  152MOL0     H20060   4.112  -0.505   0.378 -0.0197  2.7548  1.9582
  152MOL0     H20061   4.237  -0.497   0.260 -0.9331 -3.1902 -0.1371
  152MOL0     H20062   4.395  -0.816   0.496 -0.6717 -0.2272 -0.2169
  152MOL0     H20063   3.827  -0.041   0.506  0.2772  0.1155 -0.6645
  152MOL0     H20064   3.692   0.134   0.372 -0.5825  0.1801 -0.0849
  153MOL0     O20065   3.280   9.269   2.583  0.0982  0.6927 -0.1469
  153MOL0     C20066   3.236   9.363   2.646  0.5314  1.9632 -0.4278
  153MOL0     O20067   3.110   9.404   2.646 -0.9260  0.3168  0.2828
  153MOL0     C20068   3.021   9.351   2.552 -0.3093  0.9535  0.3942
  153MOL0     C20069   3.056   9.343   2.419  0.7893 -0.5517  0.7263
  153MOL0     C20070   2.977   9.276   2.316  0.3138  1.0209 -1.0692
  153MOL0     C20071   2.854   9.227   2.355  0.8631  0.2594 -0.2561
  153MOL0     O20072   2.777   9.184   2.249  0.8987 -0.5765  0.6232
  153MOL0     C20073   2.655   9.247   2.208 -0.3480 -0.2789 -0.5387
  153MOL0     C20074   2.538   9.228   2.301  0.1553 -0.8162 -0.8942
  153MOL0     C20075   2.407   9.213   2.229  0.0619  0.9006  0.1113
  153MOL0     C20076   2.292   9.188   2.329  0.0497  0.0038 -0.7971
  153MOL0     C20077   2.178   9.168   2.232 -0.4454  0.8066  0.3848
  153MOL0     C20078   2.062   9.125   2.321  0.1378 -0.2733 -1.3122
  153MOL0     C20079   1.930   9.130   2.255  0.5838 -0.0463 -0.8586
  153MOL0     C20080   1.896   9.005   2.178  0.2147  0.4266  0.3010
  153MOL0     N20081   1.766   9.004   2.123 -0.2443 -0.2246  0.6540
  153MOL0     C20082   1.716   9.066   2.005  0.5870 -1.0962 -0.1407
  153MOL0     C20083   1.582   9.016   1.992 -0.1977 -1.4330 -0.7569
  153MOL0     C20084   1.505   9.036   1.875  0.2646  0.0221  0.6300
  153MOL0     C20085   1.444   8.903   1.819  0.5912  0.3163 -0.6036
  153MOL0     C20086   1.300   8.861   1.870  0.6084 -0.4248 -0.0962
  153MOL0     C20087   1.260   8.716   1.836 -0.4162 -0.2010 -1.1790
  153MOL0     O20088   1.216   8.661   1.952  0.0383 -0.1942 -0.8257
  153MOL0     C20089   1.101   8.579   1.939 -0.4113 -0.3313 -0.1137
  153MOL0     C20090   1.089   8.483   1.834 -0.6855 -0.0201  0.3274
  153MOL0     C20091   0.966   8.411   1.819 -0.2610  0.9022 -0.3223
  153MOL0     C20092   0.863   8.422   1.913  0.1493 -0.3889 -0.2945
  153MOL0     C20093   0.735   8.350   1.898  0.4406 -0.4227  0.5270
  153MOL0     O20094   0.653   8.312   1.999 -0.5640  1.3742 -0.4734
  153MOL0     C20095   0.538   8.252   1.974  0.1578 -0.8709  1.0480
  153MOL0     C20096   0.433   8.341   1.921  0.7134  0.3663  0.0145
  153MOL0     C20097   0.311   8.277   1.884 -0.2071 -0.1956 -0.0169
  153MOL0     C20098   0.290   8.140   1.912  0.4602  0.9029  0.5331
  153MOL0     O20099   0.165   8.097   1.881  0.6910  2.1541  0.4696
  153MOL0     C20100   0.158   7.954   1.846  0.1602 -1.0808  0.2425
  153MOL0     C20101   0.028   7.928   1.779 -0.2840 -0.1263 -0.7320
  153MOL0     C20102  -0.095   7.918   1.880 -0.1925  0.4015 -0.4128
  153MOL0     C20103  -0.231   7.917   1.800 -0.3626  0.0778 -0.1967
  153MOL0     C20104  -0.331   7.816   1.863  0.1466  0.8910  0.5651
  153MOL0     C20105  -0.470   7.826   1.796 -0.4769 -0.8409 -0.6896
  153MOL0     C20106  -0.575   7.737   1.854  0.7192 -0.6242 -0.1501
  153MOL0     C20107  -0.724   7.781   1.814  0.0701 -0.1565  1.3874
  153MOL0    Cl20108  -0.759   7.939   1.897  0.4861 -0.0612 -0.6149
  153MOL0     C20109   0.397   8.058   1.961  0.6615  1.0094 -0.3205
  153MOL0     C20110   0.520   8.120   1.996 -0.3330  0.9270  0.3234
  153MOL0     O20111   0.715   8.322   1.779 -1.0644 -0.4359  0.4650
  153MOL0     C20112   0.887   8.510   2.019  0.8764 -0.0357 -0.7067
  153MOL0     C20113   0.998   8.589   2.037  0.3362 -0.2402  0.1616
  153MOL0     N20114   1.568   8.931   2.101 -0.3888 -1.9450 -0.3931
  153MOL0     N20115   1.665   8.945   2.179 -0.1571  0.2177 -0.3063
  153MOL0     C20116   2.820   9.222   2.498 -0.3157  1.2475 -0.5551
  153MOL0     C20117   2.898   9.287   2.589 -0.1622 -0.1142  1.0865
  153MOL0     C20118   3.335   9.424   2.736  0.5265  0.5009  0.0586
  153MOL0     C20119   3.286   9.533   2.817 -0.8548  0.0407 -0.3372
  153MOL0     C20120   3.377   9.601   2.903  0.2493  0.5460  0.9854
  153MOL0     C20121   3.511   9.574   2.911 -1.1493 -0.0337  0.6013
  153MOL0     O20122   3.619   9.640   2.975  0.1174  0.3770 -0.4052
  153MOL0     C20123   3.587   9.758   3.050  0.5842  1.0970  0.0541
  153MOL0     C20124   3.712   9.796   3.131  0.8479  0.9028  0.4279
  153MOL0     C20125   3.691   9.919   3.213  0.2693 -0.1673 -0.4265
  153MOL0     C20126   3.828   9.947   3.289  0.5764  0.2019  0.4535
  153MOL0     C20127   3.912  10.028   3.199 -0.4376 -0.3691 -0.0430
  153MOL0     C20128   3.981  10.085   3.117 -0.5120  0.0770  0.1723
  153MOL0     C20129   3.551   9.459   2.839 -0.8073 -0.1638 -0.4034
  153MOL0     C20130   3.468   9.388   2.750  0.2451  0.7971  0.0566
  153MOL0     H20131   3.152   9.382   2.383 -0.3979  1.1592 -0.8014
  153MOL0     H20132   2.989   9.273   2.208 -2.4188 -0.4200 -1.4180
  153MOL0     H20133   2.631   9.192   2.117 -1.4069  1.6975 -1.5321
  153MOL0     H20134   2.681   9.346   2.169 -1.5081 -0.8120 -2.8230
  153MOL0     H20135   2.521   9.313   2.369 -1.5417 -0.5203 -1.6334
  153MOL0     H20136   2.556   9.144   2.368  0.3367 -0.8234 -0.9501
  153MOL0     H20137   2.418   9.120   2.173 -3.9856 -0.2641  0.9241
  153MOL0     H20138   2.378   9.298   2.167  1.6506  0.2630 -1.6138
  153MOL0     H20139   2.313   9.099   2.388 -4.2416 -0.6117  0.1340
  153MOL0     H20140   2.272   9.280   2.385 -1.2670 -0.0948 -1.0640
  153MOL0     H20141   2.201   9.080   2.171  0.7632  0.9633  0.5889
  153MOL0     H20142   2.171   9.264   2.180  2.2158  1.2459  0.6834
  153MOL0     H20143   2.071   9.188   2.410  1.8603 -1.4747 -0.5689
  153MOL0     H20144   2.085   9.025   2.359 -0.0211 -0.3624 -1.4499
  153MOL0     H20145   1.849   9.146   2.327 -2.6027 -4.0972 -3.1171
  153MOL0     H20146   1.929   9.214   2.185  0.5565 -0.5091 -1.4166
  153MOL0     H20147   1.891   8.919   2.246 -1.3482 -1.0608 -1.5651
  153MOL0     H20148   1.963   8.986   2.094  0.6378  1.2959  0.4318
  153MOL0     H20149   1.768   9.148   1.957  0.7454 -1.1717 -0.0951
  153MOL0     H20150   1.576   9.090   1.812  2.9753  0.4857  3.7660
  153MOL0     H20151   1.418   9.101   1.889  2.0512  2.3867  1.4175
  153MOL0     H20152   1.511   8.823   1.853  0.3342  0.9511  1.5666
  153MOL0     H20153   1.448   8.911   1.710 -0.3187  0.9277 -0.5927
  153MOL0     H20154   1.292   8.875   1.978  1.6901 -1.1819  0.0933
  153MOL0     H20155   1.220   8.923   1.828  2.6907  3.8296  1.6244
  153MOL0     H20156   1.352   8.661   1.818 -0.1967 -0.3315  0.2488
  153MOL0     H20157   1.196   8.712   1.747 -4.4069 -2.0683  1.4464
  153MOL0     H20158   1.163   8.461   1.757 -1.1831 -2.2253  0.4121
  153MOL0     H20159   0.966   8.341   1.735  0.1855  1.3301 -0.6832
  153MOL0     H20160   0.461   8.445   1.925  3.6749 -0.3810  2.7350
  153MOL0     H20161   0.229   8.337   1.847  0.3059 -0.9402 -2.5654
  153MOL0     H20162   0.147   7.887   1.932  1.2824  0.9139  1.9918
  153MOL0     H20163   0.249   7.931   1.790  0.4866  2.0762 -0.7073
  153MOL0     H20164   0.042   7.829   1.735 -2.4322 -2.5662  3.4362
  153MOL0     H20165   0.012   8.010   1.708  0.9416  1.7827  1.0726
  153MOL0     H20166  -0.084   7.996   1.956 -0.2536 -1.0915  1.1666
  153MOL0     H20167  -0.091   7.824   1.935  1.5561  2.1665  2.7704
  153MOL0     H20168  -0.267   8.018   1.779 -0.8818 -0.1961 -0.6869
  153MOL0     H20169  -0.209   7.878   1.700  1.0753  3.9245 -1.5555
  153MOL0     H20170  -0.349   7.836   1.969 -0.1579  0.8677  0.5190
  153MOL0     H20171  -0.296   7.713   1.856 -1.4743  0.2430  1.3728
  153MOL0     H20172  -0.462   7.802   1.689 -2.2754  2.1302 -1.6096
  153MOL0     H20173  -0.507   7.929   1.804 -1.1847 -1.1772  0.5291
  153MOL0     H20174  -0.569   7.637   1.810 -1.7333 -1.0708  0.4094
  153MOL0     H20175  -0.571   7.726   1.962 -2.1339  4.1647  0.7229
  153MOL0     H20176  -0.791   7.705   1.855 -0.7820  0.8213  1.8472
  153MOL0     H20177  -0.742   7.782   1.706  1.3594 -2.6352  1.0717
  153MOL0     H20178   0.379   7.951   1.973 -5.1110  1.9062  2.3960
  153MOL0     H20179   0.608   8.068   2.031 -1.4159 -1.0723  0.2725
  153MOL0     H20180   0.801   8.537   2.079  1.7030  0.1283  0.4327
  153MOL0     H20181   0.995   8.668   2.111 -5.2450  1.9071 -1.7694
  153MOL0     H20182   2.728   9.169   2.521 -0.7045  2.7717  1.6740
  153MOL0     H20183   2.889   9.282   2.697 -0.1134  1.2599  1.1742
  153MOL0     H20184   3.181   9.561   2.814 -0.2523  2.4827 -0.6121
  153MOL0     H20185   3.335   9.692   2.945  0.0128  2.0811 -2.2633
  153MOL0     H20186   3.498   9.735   3.109  1.1780 -0.8977  0.2543
  153MOL0     H20187   3.555   9.838   2.983  1.4866  1.1688 -0.3033
  153MOL0     H20188   3.741   9.706   3.185  1.0929 -1.5617 -3.4671
  153MOL0     H20189   3.793   9.817   3.061  1.3142 -0.6362  0.4666
  153MOL0     H20190   3.611   9.909   3.288 -2.7348 -0.5337 -3.4454
  153MOL0     H20191   3.661  10.001   3.148 -2.0629 -0.1358  0.5673
  153MOL0     H20192   3.815  10.001   3.383 -0.0034 -0.1280  0.5654
  153MOL0     H20193   3.884   9.857   3.316 -2.4071 -1.7100  0.7847
  153MOL0     H20194   4.043  10.131   3.043 -0.9072  2.6019  1.2803
  153MOL0     H20195   3.653   9.422   2.833 -1.4215 -1.7408 -2.4746
  153MOL0     H20196   3.513   9.309   2.690  2.7437  1.1437  1.3273
  154MOL0     O20197  10.517   4.154   4.021 -0.3537 -0.0427  0.3929
  154MOL0     C20198  10.482   4.136   3.903 -0.1265  0.5537 -0.6884
  154MOL0     O20199  10.364   4.086   3.855  0.1734  0.2739  0.5358
  154MOL0     C20200  10.249   4.118   3.922  0.8783  0.9098  0.0541
  154MOL0     C20201  10.223   4.198   4.030 -0.1791 -0.3259  0.5864
  154MOL0     C20202  10.091   4.219   4.083  0.2589 -0.0345 -0.4993
  154MOL0     C20203   9.988   4.151   4.032 -0.5606  0.5380 -0.4836
  154MOL0     O20204   9.860   4.175   4.088  0.0047 -0.3360 -0.5826
  154MOL0     C20205   9.743   4.132   4.015  0.3400 -0.2506  1.1158
  154MOL0     C20206   9.620   4.203   4.062 -0.9333  0.6223  0.3121
  154MOL0     C20207   9.576   4.178   4.205  0.1059 -0.1420  0.0344
  154MOL0     C20208   9.643   4.272   4.313 -0.2147 -0.2852  0.0680
  154MOL0     C20209   9.592   4.246   4.464  0.1156  0.3383  0.5021
  154MOL0     C20210   9.455   4.313   4.482  0.8251 -0.2062 -1.3115
  154MOL0     C20211   9.382   4.264   4.616 -0.7939  0.1747  0.6264
  154MOL0     C20212   9.241   4.310   4.623  1.0597 -0.3419 -0.1978
  154MOL0     N20213   9.182   4.249   4.748 -0.2279 -0.7540  0.2815
  154MOL0     C20214   9.224   4.271   4.878 -0.3838  1.1727  0.0803
  154MOL0     C20215   9.142   4.200   4.953  0.3458  0.3261  0.1214
  154MOL0     C20216   9.127   4.219   5.099  0.0838 -0.2148  0.4508
  154MOL0     C20217   9.079   4.364   5.143 -0.5438  0.0409  0.0616
  154MOL0     C20218   8.927   4.384   5.108 -0.4102 -0.2835 -0.6204
  154MOL0     C20219   8.879   4.528   5.151 -0.4383  0.4083 -0.2160
  154MOL0     O20220   8.942   4.640   5.090  0.8080 -0.6463 -0.0452
  154MOL0     C20221   8.897   4.678   4.969  0.0234  1.1609 -0.5894
  154MOL0     C20222   8.773   4.730   4.940  0.8417  0.3714 -0.5552
  154MOL0     C20223   8.743   4.781   4.816 -0.1990  0.6723 -0.5216
  154MOL0     C20224   8.827   4.769   4.707 -0.1197 -0.5884 -0.5909
  154MOL0     C20225   8.793   4.835   4.577 -1.0119 -0.0433  0.1403
  154MOL0     O20226   8.689   4.916   4.583  0.1315  0.6348 -1.3605
  154MOL0     C20227   8.648   4.990   4.472 -0.5640 -0.0949  0.6172
  154MOL0     C20228   8.657   5.135   4.491 -0.0457  0.9013 -0.0663
  154MOL0     C20229   8.653   5.220   4.379 -0.2088  0.1604  0.1637
  154MOL0     C20230   8.627   5.164   4.256 -0.3587  1.3318  0.6944
  154MOL0     O20231   8.586   5.251   4.157  0.2955 -0.2308  0.2409
  154MOL0     C20232   8.579   5.210   4.016  0.5340  0.0232  0.4357
  154MOL0     C20233   8.604   5.327   3.920  0.3041  0.8215  0.4888
  154MOL0     C20234   8.473   5.399   3.891 -0.0815 -0.3244 -0.4951
  154MOL0     C20235   8.392   5.354   3.769 -0.3840 -0.0903  0.0557
  154MOL0     C20236   8.281   5.466   3.756 -0.2317 -0.1564  0.3218
  154MOL0     C20237   8.177   5.428   3.659 -0.1122  0.3183 -0.0499
  154MOL0     C20238   8.063   5.533   3.673  0.3944  0.9706  0.0375
  154MOL0     C20239   7.947   5.501   3.774 -0.5946  1.0294  0.5738
  154MOL0    Cl20240   7.847   5.651   3.757  0.2258 -0.0004  0.0386
  154MOL0     C20241   8.612   5.024   4.234  0.0298 -0.4297  0.3340
  154MOL0     C20242   8.622   4.935   4.344 -0.6719  0.2843  0.4617
  154MOL0     O20243   8.850   4.797   4.471 -0.0350  0.2231 -0.5679
  154MOL0     C20244   8.958   4.699   4.732 -0.3333 -0.4412 -0.1721
  154MOL0     C20245   8.994   4.656   4.863  0.5037  0.0631  0.2601
  154MOL0     N20246   9.053   4.131   4.867  0.2964  0.5050  0.1614
  154MOL0     N20247   9.080   4.160   4.748 -1.2913  0.1110  0.3609
  154MOL0     C20248  10.006   4.066   3.923 -0.0266  1.1605 -0.0649
  154MOL0     C20249  10.133   4.053   3.861 -0.4118  0.2639  0.4121
  154MOL0     C20250  10.570   4.178   3.792  0.6202  0.4087 -0.1449
  154MOL0     C20251  10.710   4.207   3.812 -0.1452 -0.4600  0.8371
  154MOL0     C20252  10.790   4.262   3.709 -0.2581 -0.3929 -0.5318
  154MOL0     C20253  10.737   4.286   3.589 -0.2143 -1.1101 -0.4654
  154MOL0     O20254  10.819   4.341   3.493 -0.3738 -0.6192 -0.1410
  154MOL0     C20255  10.814   4.272   3.361  1.0956 -0.9823  0.2320
  154MOL0     C20256  10.908   4.337   3.268 -1.5850 -0.7977  0.0023
  154MOL0     C20257  11.056   4.340   3.326 -0.0101 -0.2325  0.0892
  154MOL0     C20258  11.163   4.271   3.238  0.0236  0.6031 -0.2127
  154MOL0     C20259  11.130   4.133   3.191  0.1375 -0.3103 -0.0687
  154MOL0     C20260  11.097   4.026   3.157  1.4195 -0.2061  0.0010
  154MOL0     C20261  10.609   4.241   3.568  0.3628 -0.5331  0.4213
  154MOL0     C20262  10.525   4.183   3.661 -0.1067  0.4304  0.3378
  154MOL0     H20263  10.290   4.276   4.065 -1.2953  1.2284 -0.5917
  154MOL0     H20264  10.072   4.293   4.161  1.1145 -0.0189 -0.2998
  154MOL0     H20265   9.722   4.026   4.033 -0.5364 -0.5458 -1.2366
  154MOL0     H20266   9.760   4.147   3.908 -0.9216  0.1377  0.9572
  154MOL0     H20267   9.537   4.168   3.999  0.7320 -1.1382 -0.9925
  154MOL0     H20268   9.629   4.308   4.030  1.3679 -0.0477 -1.4375
  154MOL0     H20269   9.580   4.068   4.212 -2.5332 -0.4798 -2.2728
  154MOL0     H20270   9.471   4.207   4.206  0.3751  1.0941 -2.2025
  154MOL0     H20271   9.752   4.277   4.315 -0.2171 -0.3464  1.2737
  154MOL0     H20272   9.611   4.371   4.279  0.8634 -0.4713 -1.5869
  154MOL0     H20273   9.662   4.287   4.537  0.5692 -1.2974  1.0254
  154MOL0     H20274   9.578   4.138   4.476  0.3792  0.3890  1.3088
  154MOL0     H20275   9.389   4.309   4.394  0.5798  3.0202 -1.3811
  154MOL0     H20276   9.487   4.417   4.491  1.7142 -0.6193  0.9728
  154MOL0     H20277   9.397   4.158   4.635  0.9858  0.0505 -1.1381
  154MOL0     H20278   9.436   4.312   4.698  1.8389  2.9158 -2.4017
  154MOL0     H20279   9.178   4.269   4.544 -0.3856  0.7617  0.3355
  154MOL0     H20280   9.230   4.418   4.638 -3.0428 -0.9211  2.7354
  154MOL0     H20281   9.308   4.334   4.906 -0.8344  1.8899 -0.1628
  154MOL0     H20282   9.225   4.206   5.148  0.1283 -0.1026  0.3920
  154MOL0     H20283   9.066   4.135   5.134  0.6432 -1.8247 -2.1353
  154MOL0     H20284   9.139   4.444   5.098  2.6903 -1.2361  1.7282
  154MOL0     H20285   9.094   4.383   5.250 -0.6724 -2.5384  0.6123
  154MOL0     H20286   8.900   4.386   5.002  1.8621  5.7434 -1.4806
  154MOL0     H20287   8.868   4.307   5.160 -0.7906  1.2087  1.2741
  154MOL0     H20288   8.901   4.530   5.258  2.5493 -0.7820 -0.7245
  154MOL0     H20289   8.772   4.537   5.129 -0.5184 -1.6072 -0.8444
  154MOL0     H20290   8.705   4.740   5.023 -0.5552  0.5168 -1.6799
  154MOL0     H20291   8.642   4.817   4.801  1.2300  3.8515 -4.6211
  154MOL0     H20292   8.673   5.171   4.592  1.5544  2.5475 -0.8493
  154MOL0     H20293   8.645   5.327   4.397  0.7364  0.8252 -2.8265
  154MOL0     H20294   8.482   5.164   3.997 -0.6028  1.4522  2.4478
  154MOL0     H20295   8.662   5.139   4.005  0.7791  0.0631  1.8627
  154MOL0     H20296   8.643   5.288   3.825 -0.5054  2.1636 -0.4320
  154MOL0     H20297   8.678   5.397   3.960  0.1135  0.0343  2.2854
  154MOL0     H20298   8.495   5.506   3.895 -1.4002  0.0072  4.3928
  154MOL0     H20299   8.410   5.384   3.979 -1.4959  0.3969 -1.3482
  154MOL0     H20300   8.459   5.353   3.682 -0.1652 -0.4800  0.2236
  154MOL0     H20301   8.345   5.257   3.790 -0.4103 -0.3013 -0.9333
  154MOL0     H20302   8.327   5.562   3.727  0.6370 -0.9769 -1.1133
  154MOL0     H20303   8.238   5.475   3.856 -0.5770  3.7325 -0.0198
  154MOL0     H20304   8.141   5.326   3.675 -0.7974  0.3508 -1.2899
  154MOL0     H20305   8.222   5.428   3.560 -0.9229 -1.5264 -0.4530
  154MOL0     H20306   8.110   5.626   3.706  3.3593  0.6764 -2.8790
  154MOL0     H20307   8.013   5.551   3.578 -4.4922 -3.6498  1.1808
  154MOL0     H20308   7.992   5.482   3.872 -2.7429 -0.4315  1.3531
  154MOL0     H20309   7.895   5.407   3.751  1.1382  0.2509 -0.3446
  154MOL0     H20310   8.599   4.987   4.133  0.3712 -0.3380  0.2552
  154MOL0     H20311   8.621   4.827   4.332  0.1306  0.4629 -1.7694
  154MOL0     H20312   9.037   4.702   4.657  0.6747 -0.8269  0.8584
  154MOL0     H20313   9.091   4.615   4.889  0.6251 -1.9579 -2.8231
  154MOL0     H20314   9.922   4.011   3.882  1.8843 -4.1316  2.1888
  154MOL0     H20315  10.155   3.999   3.770 -0.0999 -0.7044  1.0430
  154MOL0     H20316  10.749   4.193   3.912 -2.1584 -0.9565  1.6126
  154MOL0     H20317  10.895   4.276   3.733 -0.6464 -0.3163  1.2474
  154MOL0     H20318  10.721   4.283   3.304  1.4984  2.2617  0.0105
  154MOL0     H20319  10.826   4.164   3.363  2.7700 -0.8251 -0.0072
  154MOL0     H20320  10.912   4.299   3.165  3.9018 -1.8457  0.2680
  154MOL0     H20321  10.879   4.443   3.262 -2.8539 -1.0540  1.3553
  154MOL0     H20322  11.062   4.304   3.429 -1.6251  0.9440  0.6372
  154MOL0     H20323  11.093   4.443   3.326  1.9207 -0.8505 -1.7785
  154MOL0     H20324  11.183   4.319   3.142 -6.2211  0.8061 -1.8053
  154MOL0     H20325  11.262   4.272   3.284 -0.0726  2.4771 -0.0048
  154MOL0     H20326  11.068   3.933   3.113 -2.4193  0.6842  0.2848
  154MOL0     H20327  10.565   4.249   3.469 -3.0507 -1.1841  1.7598
  154MOL0     H20328  10.425   4.161   3.623  0.1229 -0.0775  0.0166
  155MOL0     O20329   0.964   1.476  11.247  0.5061  0.2423  0.4321
  155MOL0     C20330   0.955   1.556  11.340 -0.3440  0.7891 -0.5198
  155MOL0     O20331   0.915   1.681  11.347  0.6325  0.4203  0.3864
  155MOL0     C20332   0.872   1.735  11.221 -0.8682 -0.2804 -0.1973
  155MOL0     C20333   0.946   1.724  11.101 -0.3038  0.8364  0.9218
  155MOL0     C20334   0.906   1.781  10.981  0.2677  0.8981  0.1912
  155MOL0     C20335   0.793   1.853  10.972  0.6264  0.3686 -0.6551
  155MOL0     O20336   0.748   1.907  10.864 -0.7633 -0.0924  0.3006
  155MOL0     C20337   0.607   1.918  10.842  0.2893  0.1796 -0.8304
  155MOL0     C20338   0.584   1.964  10.701 -0.6546 -0.3874  0.8459
  155MOL0     C20339   0.453   1.921  10.646 -0.4159  0.4030  0.7253
  155MOL0     C20340   0.410   1.993  10.518  0.1948 -0.7361  0.5406
  155MOL0     C20341   0.289   1.918  10.448  0.2059  0.3399  0.0221
  155MOL0     C20342   0.340   1.804  10.356  0.3349  0.0552 -0.2318
  155MOL0     C20343   0.437   1.831  10.240  0.6709  0.0143  0.6525
  155MOL0     C20344   0.359   1.863  10.103  0.0194 -0.1283 -0.5068
  155MOL0     N20345   0.280   1.746  10.060 -0.0195 -0.8300 -0.3250
  155MOL0     C20346   0.148   1.754  10.015  0.3217  0.4284 -0.4793
  155MOL0     C20347   0.116   1.627   9.962 -1.1790 -0.7395  0.4576
  155MOL0     C20348  -0.008   1.577   9.901 -0.5000 -0.0933 -0.5133
  155MOL0     C20349  -0.024   1.618   9.754  0.2543 -0.7101 -0.8336
  155MOL0     C20350   0.072   1.525   9.680 -0.3572  0.6413 -0.6707
  155MOL0     C20351   0.084   1.550   9.532  0.2845  0.3374  0.3470
  155MOL0     O20352  -0.021   1.478   9.468 -0.1067 -0.0289 -0.1463
  155MOL0     C20353  -0.013   1.338   9.456  0.2573 -0.6228 -0.4283
  155MOL0     C20354   0.091   1.255   9.493  0.4490  0.3133 -0.3353
  155MOL0     C20355   0.071   1.115   9.499 -0.3413 -0.1152  0.5220
  155MOL0     C20356  -0.047   1.053   9.445 -0.5697 -0.2338  0.5344
  155MOL0     C20357  -0.073   0.914   9.447  0.0820  1.2522  0.0080
  155MOL0     O20358   0.021   0.832   9.513  0.0086 -0.1653  0.7929
  155MOL0     C20359   0.008   0.690   9.498  0.6223 -0.4919 -0.6421
  155MOL0     C20360   0.013   0.638   9.371  0.7116 -0.5626  1.0220
  155MOL0     C20361  -0.006   0.500   9.348 -1.0078 -0.3177 -0.1737
  155MOL0     C20362  -0.018   0.406   9.453 -1.2695 -0.3397 -1.2950
  155MOL0     O20363  -0.045   0.270   9.443  0.2488 -0.1608 -0.5699
  155MOL0     C20364  -0.076   0.216   9.316  0.1902  0.3750 -0.2340
  155MOL0     C20365  -0.060   0.066   9.318  0.3716  0.8242  0.7132
  155MOL0     C20366  -0.129  -0.004   9.194  0.5519  1.0498  0.3991
  155MOL0     C20367  -0.276  -0.011   9.215  0.6119 -0.1148 -0.2964
  155MOL0     C20368  -0.363  -0.069   9.104  0.0999 -1.1431 -0.6147
  155MOL0     C20369  -0.510  -0.014   9.122 -0.0803  0.0544 -0.3648
  155MOL0     C20370  -0.594  -0.078   9.240 -0.4829 -0.5310  0.1487
  155MOL0     C20371  -0.695   0.029   9.292 -0.2033  0.0337  0.6946
  155MOL0    Cl20372  -0.800   0.092   9.162 -0.0517  0.1643  0.5779
  155MOL0     C20373  -0.026   0.472   9.575 -0.0406  0.9505  0.6039
  155MOL0     C20374  -0.024   0.609   9.603  0.1311  0.9614 -0.9804
  155MOL0     O20375  -0.172   0.872   9.388 -0.1196  0.2621  0.0371
  155MOL0     C20376  -0.136   1.148   9.387  0.4947 -0.7860 -0.0902
  155MOL0     C20377  -0.118   1.285   9.391  0.1268 -1.4461 -0.2946
  155MOL0     N20378   0.238   1.549   9.985  0.2419 -0.2477  0.2390
  155MOL0     N20379   0.321   1.619  10.048  0.6781  0.1308  0.5561
  155MOL0     C20380   0.722   1.880  11.098  0.5304  0.4637  0.1799
  155MOL0     C20381   0.765   1.819  11.222  0.0674  1.3707 -0.5450
  155MOL0     C20382   1.011   1.500  11.470  0.3908 -0.3240 -0.2738
  155MOL0     C20383   0.977   1.566  11.591  1.1303 -0.9031 -0.7798
  155MOL0     C20384   1.033   1.538  11.712  0.3617  0.3372 -0.5722
  155MOL0     C20385   1.134   1.455  11.715  0.7120 -0.5983 -0.7274
  155MOL0     O20386   1.191   1.443  11.840  1.0162  0.5790  0.0826
  155MOL0     C20387   1.282   1.337  11.861 -0.4730 -0.7540  0.1850
  155MOL0     C20388   1.345   1.343  12.005 -0.6011 -0.0772  0.2997
  155MOL0     C20389   1.436   1.237  12.049 -0.6757 -0.3538 -0.7303
  155MOL0     C20390   1.375   1.097  12.047 -0.4812  0.4566  0.0291
  155MOL0     C20391   1.271   1.065  12.154 -0.7186 -0.3810  0.1253
  155MOL0     C20392   1.188   1.028  12.231  0.9715 -0.2434 -0.4555
  155MOL0     C20393   1.159   1.373  11.603 -0.1367  0.5667  0.0174
  155MOL0     C20394   1.098   1.389  11.477 -0.1321 -0.4639  0.2399
  155MOL0     H20395   1.036   1.666  11.082 -2.1647 -1.4369 -1.5706
  155MOL0     H20396   0.954   1.762  10.886 -2.6336 -2.4812 -0.8473
  155MOL0     H20397   0.560   1.982  10.917  1.1662 -1.8653  1.6311
  155MOL0     H20398   0.565   1.817  10.852  0.9882 -0.0034  0.5046
  155MOL0     H20399   0.668   1.929  10.640  0.4212  3.1085  0.0653
  155MOL0     H20400   0.594   2.073  10.702 -0.6540 -0.0151 -5.1247
  155MOL0     H20401   0.374   1.933  10.721  0.8184 -2.4588  2.6674
  155MOL0     H20402   0.463   1.814  10.623 -1.2682  0.8696 -2.2750
  155MOL0     H20403   0.365   2.088  10.551  1.4479  0.1962 -0.3381
  155MOL0     H20404   0.491   2.022  10.450 -1.4916 -1.5192 -1.9300
  155MOL0     H20405   0.237   1.986  10.380 -1.1383 -0.4960  0.1518
  155MOL0     H20406   0.217   1.879  10.520  0.2480  2.0386  1.0264
  155MOL0     H20407   0.256   1.745  10.316 -1.6190  3.1731 -1.1043
  155MOL0     H20408   0.383   1.727  10.420  0.1630 -0.9638 -1.2963
  155MOL0     H20409   0.500   1.917  10.263 -0.5727  1.1067  0.0735
  155MOL0     H20410   0.501   1.742  10.235 -0.2714 -0.6280 -0.6403
  155MOL0     H20411   0.432   1.888  10.025 -1.7717 -1.4484 -2.7165
  155MOL0     H20412   0.298   1.952  10.119  2.8940  1.6850  1.2250
  155MOL0     H20413   0.073   1.832  10.025  0.9088  0.9885 -0.3076
  155MOL0     H20414  -0.095   1.603   9.962 -1.5925  1.4785 -2.6328
  155MOL0     H20415   0.003   1.469   9.906  1.1254  0.0612 -0.2224
  155MOL0     H20416  -0.012   1.723   9.728  0.9309  0.1187  2.3269
  155MOL0     H20417  -0.128   1.596   9.728  0.1712  1.2051 -2.3261
  155MOL0     H20418   0.172   1.517   9.723 -0.1288 -2.2628 -1.5302
  155MOL0     H20419   0.042   1.421   9.700  1.1613  0.6159  1.8636
  155MOL0     H20420   0.183   1.520   9.497  0.4850  1.9228 -0.5338
  155MOL0     H20421   0.077   1.658   9.517  0.0225  0.3175  0.3201
  155MOL0     H20422   0.177   1.296   9.545 -1.5391  2.2322  1.6438
  155MOL0     H20423   0.137   1.060   9.565 -0.0419 -1.8368 -1.1482
  155MOL0     H20424   0.025   0.707   9.289  0.0718  0.7063  1.9587
  155MOL0     H20425   0.004   0.465   9.245  1.4008 -0.2433 -0.0059
  155MOL0     H20426  -0.012   0.258   9.239  2.6844 -2.4065  0.1295
  155MOL0     H20427  -0.178   0.242   9.285 -0.4602  3.1350  3.4931
  155MOL0     H20428  -0.102   0.030   9.412 -0.3804  1.9227  0.8258
  155MOL0     H20429   0.046   0.040   9.324 -0.3165 -2.5086  0.5752
  155MOL0     H20430  -0.094  -0.107   9.200 -2.7392 -0.1836  0.1231
  155MOL0     H20431  -0.108   0.038   9.094  1.3909 -1.0160 -0.3447
  155MOL0     H20432  -0.293  -0.066   9.309  2.4274 -0.8768 -0.3844
  155MOL0     H20433  -0.308   0.092   9.235  2.3463  0.7118 -1.5913
  155MOL0     H20434  -0.361  -0.178   9.115  1.5137 -0.9219  2.0475
  155MOL0     H20435  -0.321  -0.049   9.005  0.2172 -1.3587 -0.6111
  155MOL0     H20436  -0.563  -0.043   9.031  0.3568  1.0239 -0.9535
  155MOL0     H20437  -0.504   0.095   9.132  0.4523  0.0170 -0.2529
  155MOL0     H20438  -0.637  -0.173   9.208 -0.6959 -0.5541  0.4924
  155MOL0     H20439  -0.535  -0.116   9.324  2.5574  1.6003 -0.8390
  155MOL0     H20440  -0.634   0.103   9.344  1.1868 -3.1608  4.0626
  155MOL0     H20441  -0.765  -0.023   9.357 -3.7052  1.5960 -1.5171
  155MOL0     H20442  -0.054   0.407   9.657  0.4148 -0.6000 -0.4200
  155MOL0     H20443  -0.040   0.652   9.701  0.7056 -0.7988 -0.0698
  155MOL0     H20444  -0.217   1.112   9.326  0.2848 -2.2862  1.0244
  155MOL0     H20445  -0.200   1.345   9.352  0.0835 -0.1370  1.6691
  155MOL0     H20446   0.633   1.941  11.103  2.3044  3.1633  1.5625
  155MOL0     H20447   0.722   1.841  11.319 -0.6267 -2.3518  0.1353
  155MOL0     H20448   0.905   1.648  11.590 -1.0385 -2.7029 -0.8198
  155MOL0     H20449   1.001   1.598  11.797 -1.8627 -1.2662 -0.1694
  155MOL0     H20450   1.366   1.351  11.793  0.6564 -0.1180  1.6333
  155MOL0     H20451   1.233   1.240  11.850 -2.9960  0.1417  2.4810
  155MOL0     H20452   1.397   1.438  12.021 -1.2338 -0.0043  2.3062
  155MOL0     H20453   1.262   1.332  12.077 -1.2678 -3.2152 -0.7958
  155MOL0     H20454   1.477   1.265  12.146 -0.1501  0.1204 -1.0835
  155MOL0     H20455   1.519   1.238  11.978  2.7640 -0.8877  2.9388
  155MOL0     H20456   1.335   1.065  11.950  1.5561  0.2529 -0.8145
  155MOL0     H20457   1.449   1.018  12.063 -2.6483 -1.3951  1.2885
  155MOL0     H20458   1.111   1.000  12.300  3.7780 -2.3100  2.1311
  155MOL0     H20459   1.241   1.303  11.612  0.4031  0.6486 -3.0287
  155MOL0     H20460   1.120   1.337  11.385 -0.5335  1.4669 -1.0087
  156MOL0     O20461   0.630   7.451   5.922  0.0281 -0.0081  0.7270
  156MOL0     C20462   0.594   7.545   5.852  0.3456 -0.5915  0.2175
  156MOL0     O20463   0.571   7.543   5.711 -0.1602 -0.4866  0.1565
  156MOL0     C20464   0.606   7.437   5.628 -0.0075 -0.0193  0.0496
  156MOL0     C20465   0.699   7.341   5.655 -0.3948 -0.3054 -0.1597
  156MOL0     C20466   0.738   7.258   5.551 -0.3346 -0.4743 -1.0639
  156MOL0     C20467   0.696   7.272   5.420 -0.1271  0.3197 -0.2126
  156MOL0     O20468   0.766   7.209   5.315  0.9013  0.0784  0.1862
  156MOL0     C20469   0.691   7.176   5.204  1.3854 -0.1181  0.2641
  156MOL0     C20470   0.755   7.053   5.139 -0.3154  0.2935  0.2635
  156MOL0     C20471   0.657   6.975   5.049 -1.1180  0.7490 -0.1208
  156MOL0     C20472   0.566   6.891   5.139 -0.1711  0.2611  0.4568
  156MOL0     C20473   0.489   6.783   5.058 -0.9805  0.2860  0.3670
  156MOL0     C20474   0.415   6.701   5.163  0.2983  0.4387  0.5990
  156MOL0     C20475   0.300   6.621   5.091  0.2713 -0.1464 -0.4201
  156MOL0     C20476   0.246   6.512   5.186 -0.3580  0.4827 -0.5501
  156MOL0     N20477   0.120   6.446   5.134 -0.3885  0.1649 -0.5359
  156MOL0     C20478  -0.005   6.499   5.124  0.2003 -0.7863  0.1280
  156MOL0     C20479  -0.091   6.412   5.076 -0.7514 -0.2770  0.5518
  156MOL0     C20480  -0.238   6.416   5.075 -0.4921  0.6939  0.0776
  156MOL0     C20481  -0.305   6.422   4.937  0.1783 -0.0955  0.0944
  156MOL0     C20482  -0.273   6.301   4.841 -0.9289  0.4533  0.5471
  156MOL0     C20483  -0.322   6.171   4.898 -0.4728  0.1429 -0.1505
  156MOL0     O20484  -0.330   6.081   4.795  0.1435 -0.0329  0.1638
  156MOL0     C20485  -0.456   6.056   4.745 -0.1011 -0.4055 -0.0270
  156MOL0     C20486  -0.558   6.149   4.739 -0.2626  0.5409 -0.4823
  156MOL0     C20487  -0.685   6.130   4.687  0.0857  0.7203 -0.7836
  156MOL0     C20488  -0.712   6.002   4.641  0.4411 -0.0093  0.2538
  156MOL0     C20489  -0.835   5.972   4.566  0.7618  1.1687  0.5564
  156MOL0     O20490  -0.868   5.838   4.557  0.1371  0.5610  0.9731
  156MOL0     C20491  -0.991   5.801   4.496  0.5030 -0.2521 -0.1355
  156MOL0     C20492  -0.994   5.693   4.410  0.2578  1.6386  0.8600
  156MOL0     C20493  -1.108   5.639   4.354  0.5458 -0.0812  1.1657
  156MOL0     C20494  -1.233   5.705   4.380  0.2961  0.7510  0.2425
  156MOL0     O20495  -1.338   5.629   4.326 -1.0009  0.7798  0.2758
  156MOL0     C20496  -1.471   5.654   4.371 -0.6003 -0.5104 -0.4637
  156MOL0     C20497  -1.567   5.541   4.318 -0.1978 -0.4980 -0.0110
  156MOL0     C20498  -1.710   5.602   4.337 -0.5070 -0.2512  0.3105
  156MOL0     C20499  -1.810   5.501   4.282 -0.5853  0.8216 -0.0492
  156MOL0     C20500  -1.949   5.554   4.311  0.6596 -0.0948 -0.3428
  156MOL0     C20501  -1.976   5.677   4.211  0.1877  0.0947  0.3677
  156MOL0     C20502  -2.110   5.730   4.249 -0.8365 -1.0878 -0.0753
  156MOL0     C20503  -2.127   5.874   4.196 -0.4076  0.0875 -0.5420
  156MOL0    Cl20504  -1.995   5.978   4.237 -0.7391  0.1234 -0.0740
  156MOL0     C20505  -1.239   5.811   4.468 -0.8063  0.2528  0.1702
  156MOL0     C20506  -1.113   5.862   4.527 -0.2562 -0.5533 -0.8940
  156MOL0     O20507  -0.910   6.065   4.544 -0.3591 -0.2035 -0.3014
  156MOL0     C20508  -0.615   5.902   4.647 -0.5939  0.0856  0.6786
  156MOL0     C20509  -0.482   5.936   4.695  0.0211  0.7462  0.5603
  156MOL0     N20510  -0.014   6.299   5.052 -0.0283 -0.0032  0.0006
  156MOL0     N20511   0.109   6.315   5.096  0.7196 -0.9740 -0.4542
  156MOL0     C20512   0.604   7.371   5.389 -0.2567  0.2879 -0.8991
  156MOL0     C20513   0.559   7.455   5.499  0.1846 -0.2930  0.3567
  156MOL0     C20514   0.574   7.675   5.922 -0.2650 -0.3834 -0.4596
  156MOL0     C20515   0.564   7.688   6.060 -0.7203  0.4056 -0.5465
  156MOL0     C20516   0.525   7.814   6.119 -0.4920 -0.4287 -0.0888
  156MOL0     C20517   0.529   7.928   6.038  0.7811 -0.0229 -0.0629
  156MOL0     O20518   0.496   8.055   6.096 -0.1935  0.1814 -0.5110
  156MOL0     C20519   0.566   8.170   6.054  0.1970 -0.6849 -0.6967
  156MOL0     C20520   0.663   8.219   6.164  0.1605 -0.4015  0.8575
  156MOL0     C20521   0.770   8.115   6.188 -0.1373 -0.4489 -0.1025
  156MOL0     C20522   0.853   8.078   6.054 -0.1028 -0.3289 -0.2841
  156MOL0     C20523   0.978   8.018   6.083 -0.8919  1.0071  0.2389
  156MOL0     C20524   1.078   7.964   6.125  0.2641 -0.5785 -0.5705
  156MOL0     C20525   0.545   7.915   5.902 -0.7461 -0.1643  0.7706
  156MOL0     C20526   0.571   7.789   5.845  0.2098 -0.4940  0.3716
  156MOL0     H20527   0.733   7.325   5.757  0.0842 -2.4972 -0.5911
  156MOL0     H20528   0.803   7.173   5.570  0.5762 -0.6140 -4.1800
  156MOL0     H20529   0.698   7.263   5.138  0.5050  0.0304  0.3560
  156MOL0     H20530   0.587   7.157   5.233  1.3426  1.8827  1.5860
  156MOL0     H20531   0.802   6.989   5.214 -1.2425 -2.0332 -1.0394
  156MOL0     H20532   0.824   7.104   5.071 -1.1389  2.6021  1.0596
  156MOL0     H20533   0.716   6.907   4.987  0.3332 -0.2553  2.2324
  156MOL0     H20534   0.606   7.045   4.982 -1.2406 -0.3153 -1.1830
  156MOL0     H20535   0.618   6.847   5.224  1.2080 -1.5906 -1.2424
  156MOL0     H20536   0.495   6.969   5.168  1.4028  2.1234 -0.3862
  156MOL0     H20537   0.545   6.704   5.007 -0.4431  0.5334  0.5736
  156MOL0     H20538   0.424   6.833   4.986 -2.1110  1.2043  1.9467
  156MOL0     H20539   0.372   6.764   5.241 -2.3455 -1.0940  0.4751
  156MOL0     H20540   0.471   6.618   5.207 -1.1172 -2.7681 -3.0444
  156MOL0     H20541   0.230   6.700   5.064  2.6017  1.3913 -2.3242
  156MOL0     H20542   0.339   6.570   5.003  3.5410  0.0169  0.8022
  156MOL0     H20543   0.233   6.550   5.287  3.8795 -1.9507  1.1878
  156MOL0     H20544   0.322   6.433   5.188 -2.0128 -1.3132 -2.5948
  156MOL0     H20545  -0.027   6.594   5.170 -1.4081 -0.9765 -0.2116
  156MOL0     H20546  -0.253   6.516   5.118  0.8562  0.5331  0.9853
  156MOL0     H20547  -0.278   6.333   5.133  1.1188 -0.9928 -1.1200
  156MOL0     H20548  -0.262   6.513   4.894  1.8755 -1.1753 -0.6264
  156MOL0     H20549  -0.411   6.444   4.949  0.5576  0.8489  2.4400
  156MOL0     H20550  -0.325   6.326   4.748  0.9952  1.3282 -0.3500
  156MOL0     H20551  -0.168   6.293   4.810 -0.2635  3.5806  1.6203
  156MOL0     H20552  -0.419   6.173   4.950 -0.9842 -1.4445 -0.9711
  156MOL0     H20553  -0.250   6.115   4.959 -1.0513 -0.8007 -0.2994
  156MOL0     H20554  -0.548   6.247   4.784 -0.1937  1.2388 -1.9468
  156MOL0     H20555  -0.754   6.214   4.689  1.2492  1.7470  2.3037
  156MOL0     H20556  -0.897   5.648   4.395  1.9485  5.0526  0.6220
  156MOL0     H20557  -1.100   5.546   4.298 -0.0467  2.4609 -3.6573
  156MOL0     H20558  -1.493   5.758   4.347 -0.6742  0.2315  2.4618
  156MOL0     H20559  -1.480   5.651   4.480 -0.9293 -2.3439 -0.5053
  156MOL0     H20560  -1.548   5.457   4.386  3.2941 -1.7944 -2.2786
  156MOL0     H20561  -1.548   5.514   4.213  1.4951  2.5014 -0.5770
  156MOL0     H20562  -1.704   5.692   4.275  1.5146  0.2962  1.1884
  156MOL0     H20563  -1.718   5.630   4.443  1.4993  0.8231  0.2328
  156MOL0     H20564  -1.797   5.490   4.174  0.5590 -0.4932  0.1932
  156MOL0     H20565  -1.787   5.407   4.332  2.6693  1.2787 -0.4196
  156MOL0     H20566  -1.961   5.578   4.417 -1.9989 -1.7893 -0.1621
  156MOL0     H20567  -2.013   5.469   4.286  3.5291 -2.1110 -1.3154
  156MOL0     H20568  -1.964   5.640   4.109  0.3452 -0.8360  0.7104
  156MOL0     H20569  -1.898   5.752   4.227  0.4014  0.7498 -3.0438
  156MOL0     H20570  -2.187   5.671   4.197  1.2115 -2.0770 -2.1807
  156MOL0     H20571  -2.121   5.744   4.357 -3.2532  3.8665 -0.6628
  156MOL0     H20572  -2.222   5.923   4.222 -0.4436  0.3107 -1.0808
  156MOL0     H20573  -2.130   5.859   4.088 -2.7567 -2.9089 -0.2007
  156MOL0     H20574  -1.339   5.847   4.488 -1.5468 -2.4676  1.9646
  156MOL0     H20575  -1.119   5.948   4.594  2.0147 -0.5174 -0.6591
  156MOL0     H20576  -0.629   5.799   4.619  0.0969 -0.4304  2.1213
  156MOL0     H20577  -0.400   5.865   4.696  2.5096  3.3746 -0.6845
  156MOL0     H20578   0.582   7.401   5.287  0.3274  0.2565 -1.0376
  156MOL0     H20579   0.487   7.534   5.481 -1.2326 -1.1292  1.9720
  156MOL0     H20580   0.550   7.603   6.126 -0.8848 -0.1351 -1.2650
  156MOL0     H20581   0.499   7.823   6.225  0.2586  2.0136 -0.0558
  156MOL0     H20582   0.498   8.253   6.030  4.2918  3.2289 -0.2501
  156MOL0     H20583   0.628   8.161   5.964 -2.3922 -3.8665 -2.3966
  156MOL0     H20584   0.724   8.307   6.142 -0.6655  0.4693  1.9236
  156MOL0     H20585   0.617   8.239   6.261  2.5138 -0.1940  2.0097
  156MOL0     H20586   0.724   8.022   6.223  3.0443 -2.8307 -1.7216
  156MOL0     H20587   0.848   8.151   6.255  1.8163  3.1932 -3.8411
  156MOL0     H20588   0.793   7.998   6.010 -1.2920 -0.3745  1.3144
  156MOL0     H20589   0.865   8.158   5.980 -1.6350 -1.4212 -1.7937
  156MOL0     H20590   1.164   7.909   6.158 -0.2562 -1.2966 -0.3657
  156MOL0     H20591   0.558   7.992   5.827 -0.2805 -3.2089 -2.5882
  156MOL0     H20592   0.571   7.787   5.737 -2.0000 -3.0523  0.3159
  157MOL0     O20593   7.194   0.642   6.140 -0.0917 -0.1230 -0.4146
  157MOL0     C20594   7.295   0.601   6.088  0.1482 -0.2313 -0.2150
  157MOL0     O20595   7.366   0.497   6.126 -1.0839 -0.0844 -0.9973
  157MOL0     C20596   7.337   0.431   6.244  0.8245  0.1493  0.5169
  157MOL0     C20597   7.232   0.339   6.263 -0.3985  0.1090 -1.7358
  157MOL0     C20598   7.222   0.262   6.388 -0.0483  0.6679 -0.4661
  157MOL0     C20599   7.310   0.294   6.494  0.5082  0.0843 -0.3431
  157MOL0     O20600   7.314   0.237   6.619  0.6877  0.1987 -0.2940
  157MOL0     C20601   7.192   0.179   6.682 -0.8071  0.0645 -0.2889
  157MOL0     C20602   7.111   0.290   6.760 -0.8584 -0.1597  0.5000
  157MOL0     C20603   6.989   0.217   6.823  0.3514 -0.5958 -0.6392
  157MOL0     C20604   6.898   0.161   6.711 -0.1718  0.7492 -0.8835
  157MOL0     C20605   6.759   0.131   6.780 -0.2621 -0.0568  0.5057
  157MOL0     C20606   6.639   0.212   6.724 -0.5822  0.7028  0.0172
  157MOL0     C20607   6.661   0.354   6.768 -0.4222 -0.1133  0.7457
  157MOL0     C20608   6.597   0.444   6.669  0.3204 -0.9254  0.3193
  157MOL0     N20609   6.446   0.417   6.662 -0.4454 -0.2931  0.1734
  157MOL0     C20610   6.386   0.315   6.595 -0.6134  0.2330 -0.2198
  157MOL0     C20611   6.257   0.339   6.615  0.6838 -0.1977  0.5410
  157MOL0     C20612   6.128   0.270   6.557 -0.3893 -0.3207 -0.8220
  157MOL0     C20613   6.076   0.355   6.446  0.8293  0.7111  0.1566
  157MOL0     C20614   5.982   0.266   6.350 -0.8752  0.1359 -0.1700
  157MOL0     C20615   6.052   0.156   6.269 -0.0862 -0.6195  0.5081
  157MOL0     O20616   6.159   0.211   6.193 -0.1878  0.5110 -0.2135
  157MOL0     C20617   6.209   0.128   6.096  0.3625  0.9615  0.5649
  157MOL0     C20618   6.176  -0.005   6.077 -0.0472  0.8851  0.3911
  157MOL0     C20619   6.233  -0.061   5.963 -0.4786  0.1626 -1.2835
  157MOL0     C20620   6.335  -0.007   5.885  1.5170  0.7687  1.1867
  157MOL0     C20621   6.382  -0.090   5.761 -0.2641 -0.1607  0.0366
  157MOL0     O20622   6.312  -0.199   5.728  0.2743  0.1501  0.4922
  157MOL0     C20623   6.328  -0.293   5.626 -1.0694  0.1442  0.0733
  157MOL0     C20624   6.230  -0.393   5.630 -0.1981 -0.8120  0.7282
  157MOL0     C20625   6.237  -0.496   5.542 -0.2883  0.2935 -1.0575
  157MOL0     C20626   6.332  -0.510   5.443  0.3555 -0.0148 -0.1601
  157MOL0     O20627   6.328  -0.634   5.383  0.2163  0.0021 -0.8747
  157MOL0     C20628   6.429  -0.642   5.280 -0.0655  0.2449  0.9670
  157MOL0     C20629   6.387  -0.765   5.182 -0.5561 -0.8589  0.1835
  157MOL0     C20630   6.400  -0.905   5.246  0.3634 -0.4703  0.6342
  157MOL0     C20631   6.344  -1.020   5.149 -0.1051 -0.5209  0.8103
  157MOL0     C20632   6.368  -1.162   5.202 -0.1740  0.7348 -0.5641
  157MOL0     C20633   6.329  -1.174   5.351  0.4218  0.8608  0.1202
  157MOL0     C20634   6.338  -1.318   5.401 -0.3186 -0.7294  1.3891
  157MOL0     C20635   6.475  -1.374   5.399 -0.5603 -0.3753  0.3219
  157MOL0    Cl20636   6.593  -1.279   5.501 -0.8499 -0.2965 -0.1985
  157MOL0     C20637   6.422  -0.407   5.429 -0.4203  0.7815  0.8980
  157MOL0     C20638   6.421  -0.304   5.519 -0.2804 -0.8586 -0.6995
  157MOL0     O20639   6.477  -0.042   5.697 -1.0578 -0.6796 -0.4022
  157MOL0     C20640   6.364   0.124   5.910 -0.6505  0.2577 -0.0881
  157MOL0     C20641   6.299   0.186   6.018  0.0024 -0.1661 -0.1441
  157MOL0     N20642   6.234   0.448   6.693 -0.2904 -0.5333  1.1611
  157MOL0     N20643   6.352   0.498   6.715  0.0879 -0.1126 -0.5662
  157MOL0     C20644   7.413   0.383   6.472  0.6063  0.2683  0.0713
  157MOL0     C20645   7.429   0.443   6.346 -0.3294 -0.0199 -0.4919
  157MOL0     C20646   7.351   0.668   5.966  0.7756  0.2964 -0.1283
  157MOL0     C20647   7.258   0.707   5.869 -0.0471  0.9691  0.2711
  157MOL0     C20648   7.322   0.764   5.759 -1.0457 -0.4315  0.7188
  157MOL0     C20649   7.461   0.778   5.738  0.7346  0.4797 -0.5659
  157MOL0     O20650   7.503   0.823   5.617 -0.8767 -0.2239 -0.0566
  157MOL0     C20651   7.645   0.834   5.596  0.0913  0.0287 -0.6727
  157MOL0     C20652   7.666   0.868   5.447  0.4393  0.5520  0.7927
  157MOL0     C20653   7.806   0.902   5.391  0.0950 -0.7435  0.5576
  157MOL0     C20654   7.781   0.970   5.253 -0.3493  0.8962 -0.7859
  157MOL0     C20655   7.908   1.006   5.186  1.3928  0.8035  0.1673
  157MOL0     C20656   7.989   1.044   5.116 -1.4222 -1.0456  0.4365
  157MOL0     C20657   7.541   0.730   5.845  0.4088 -0.0344  1.0467
  157MOL0     C20658   7.492   0.684   5.955 -0.1498 -0.2578 -0.5453
  157MOL0     H20659   7.170   0.318   6.176 -1.1257  0.7053 -1.3732
  157MOL0     H20660   7.158   0.175   6.402  0.8858 -0.5364 -3.0099
  157MOL0     H20661   7.231   0.099   6.746  0.9809  1.4786  0.4622
  157MOL0     H20662   7.127   0.134   6.606  0.2231  0.8685 -1.6857
  157MOL0     H20663   7.086   0.365   6.684  3.2053 -0.9085 -1.9201
  157MOL0     H20664   7.182   0.322   6.837 -1.7108 -0.5626  1.4595
  157MOL0     H20665   6.932   0.290   6.882 -4.0019 -3.1767 -1.1447
  157MOL0     H20666   7.019   0.133   6.886 -1.6636 -1.9311 -1.3488
  157MOL0     H20667   6.891   0.228   6.624 -3.1916  1.8852  0.1197
  157MOL0     H20668   6.944   0.066   6.683 -0.8233  0.4665 -0.9936
  157MOL0     H20669   6.768   0.150   6.887 -0.6095  1.9052  0.2297
  157MOL0     H20670   6.740   0.024   6.790  1.5678 -0.5329 -0.5014
  157MOL0     H20671   6.547   0.170   6.765  0.6016 -0.8438  1.1995
  157MOL0     H20672   6.637   0.196   6.616 -0.5834 -1.7031  0.3123
  157MOL0     H20673   6.618   0.364   6.868  2.6438 -2.4360  2.4686
  157MOL0     H20674   6.768   0.376   6.762 -0.7921  1.5078 -1.5905
  157MOL0     H20675   6.643   0.436   6.570  0.5231  1.9641  0.0768
  157MOL0     H20676   6.619   0.550   6.685  1.0030 -0.4279 -3.0326
  157MOL0     H20677   6.437   0.235   6.543  2.1401  0.1804  2.3430
  157MOL0     H20678   6.066   0.267   6.647  1.6470  3.9727  0.9991
  157MOL0     H20679   6.163   0.174   6.518 -0.6300  0.2936 -2.6856
  157MOL0     H20680   6.158   0.407   6.397 -0.3470  1.0818 -1.4816
  157MOL0     H20681   6.010   0.435   6.482  1.0422 -0.5305  3.6826
  157MOL0     H20682   5.904   0.213   6.407 -0.6823 -0.1569 -0.1735
  157MOL0     H20683   5.934   0.327   6.273  2.0578  0.0166 -2.2559
  157MOL0     H20684   5.989   0.100   6.199  2.0019 -2.3165 -0.1261
  157MOL0     H20685   6.097   0.076   6.327  1.1014 -1.5521 -1.5715
  157MOL0     H20686   6.098  -0.062   6.126 -1.3586 -1.9147 -4.3154
  157MOL0     H20687   6.191  -0.158   5.940  0.2483 -0.3424 -0.5837
  157MOL0     H20688   6.144  -0.385   5.694  0.5700 -0.1346  1.7058
  157MOL0     H20689   6.161  -0.572   5.527  2.3168 -2.5782 -0.8370
  157MOL0     H20690   6.525  -0.672   5.321  1.1217 -1.6877 -2.8334
  157MOL0     H20691   6.444  -0.554   5.217  2.3242  1.3542  2.9094
  157MOL0     H20692   6.449  -0.756   5.092 -1.4731 -0.7804 -0.4484
  157MOL0     H20693   6.286  -0.748   5.145 -0.2235  2.4780  0.4323
  157MOL0     H20694   6.335  -0.916   5.333 -1.9564 -0.3939 -0.9842
  157MOL0     H20695   6.506  -0.918   5.272  0.4402 -1.0964  0.0397
  157MOL0     H20696   6.238  -0.993   5.135  0.0369  0.7909  2.0253
  157MOL0     H20697   6.385  -1.016   5.048  2.2940  1.9937  1.7648
  157MOL0     H20698   6.476  -1.165   5.188 -0.0741 -1.2510  0.2806
  157MOL0     H20699   6.316  -1.234   5.138  1.4840 -0.4238 -0.6644
  157MOL0     H20700   6.224  -1.146   5.367  0.5019  1.1002  0.2359
  157MOL0     H20701   6.387  -1.107   5.414  0.4349  1.0339 -0.0719
  157MOL0     H20702   6.293  -1.314   5.500 -0.5416  4.1835  1.3401
  157MOL0     H20703   6.260  -1.376   5.350  0.5912 -1.8850  1.2563
  157MOL0     H20704   6.518  -1.378   5.298 -1.1865  0.8650 -0.0105
  157MOL0     H20705   6.465  -1.477   5.434 -3.0912 -1.3116 -2.6962
  157MOL0     H20706   6.497  -0.409   5.350 -0.9140  0.0515  0.4369
  157MOL0     H20707   6.496  -0.226   5.505 -0.2080 -0.8888 -0.4836
  157MOL0     H20708   6.432   0.179   5.846 -0.7196 -0.1919 -0.5594
  157MOL0     H20709   6.310   0.293   6.032  2.2546  0.2987 -4.0387
  157MOL0     H20710   7.488   0.394   6.549 -0.1530 -1.0274  1.0233
  157MOL0     H20711   7.514   0.509   6.331 -0.7116  1.0153  1.6503
  157MOL0     H20712   7.152   0.683   5.873  0.0366 -0.5846 -3.0784
  157MOL0     H20713   7.265   0.767   5.667 -0.5009 -1.2760  0.3422
  157MOL0     H20714   7.692   0.736   5.604 -1.3288 -0.6125  0.2377
  157MOL0     H20715   7.696   0.903   5.663  1.6266  0.3490 -2.0949
  157MOL0     H20716   7.627   0.791   5.380 -1.7760  1.7975  0.5158
  157MOL0     H20717   7.596   0.949   5.421 -0.4901 -1.0327 -2.1856
  157MOL0     H20718   7.870   0.815   5.372 -3.4235 -3.9223  1.8688
  157MOL0     H20719   7.846   0.980   5.456 -0.5013 -1.3192  1.6458
  157MOL0     H20720   7.732   0.905   5.181  1.4403 -0.2335 -1.0561
  157MOL0     H20721   7.727   1.064   5.270 -0.5591  0.5888  0.2881
  157MOL0     H20722   8.066   1.094   5.060 -0.4362 -1.6322  1.2526
  157MOL0     H20723   7.648   0.747   5.858 -0.2086  4.0387  2.1167
  157MOL0     H20724   7.551   0.650   6.039  0.3509 -0.1344 -0.8428
  158MOL0     O20725   7.332   5.744  10.594 -0.0198  0.4606 -0.4651
  158MOL0     C20726   7.340   5.640  10.517  0.5125 -1.1473  0.0073
  158MOL0     O20727   7.442   5.606  10.438  0.0540  0.1706  0.2228
  158MOL0     C20728   7.569   5.664  10.459  1.5055  0.1770 -0.2533
  158MOL0     C20729   7.663   5.637  10.364 -0.0911 -0.1834 -0.1906
  158MOL0     C20730   7.794   5.688  10.371 -0.4562 -1.0228  0.1402
  158MOL0     C20731   7.828   5.778  10.470 -0.1233  0.2983  0.1056
  158MOL0     O20732   7.930   5.866  10.469 -0.2603 -0.7676 -0.1193
  158MOL0     C20733   7.958   5.909  10.337  0.6155 -0.5296 -0.0070
  158MOL0     C20734   7.853   5.994  10.265  0.0352 -0.0846  0.7955
  158MOL0     C20735   7.901   6.059  10.136  0.1839  0.9980  0.9640
  158MOL0     C20736   7.988   6.173  10.162  0.0063  0.0047 -0.6905
  158MOL0     C20737   8.065   6.223  10.032  0.0307 -0.3955 -0.0575
  158MOL0     C20738   7.962   6.278   9.923 -0.7247 -0.2845  0.1350
  158MOL0     C20739   8.018   6.378   9.827  0.5086 -0.2531  0.3215
  158MOL0     C20740   8.125   6.338   9.722 -0.4858  0.7090 -0.6929
  158MOL0     N20741   8.259   6.382   9.767  0.0281  0.5812 -1.0361
  158MOL0     C20742   8.328   6.498   9.727 -1.1105  0.6536  0.6438
  158MOL0     C20743   8.426   6.512   9.812  0.0204 -0.0335 -0.0053
  158MOL0     C20744   8.529   6.620   9.802  0.0608  0.9743  0.2674
  158MOL0     C20745   8.607   6.608   9.671 -0.9631  0.0257 -0.4625
  158MOL0     C20746   8.729   6.705   9.668  0.1761  0.1399 -1.3628
  158MOL0     C20747   8.830   6.675   9.782  0.9631 -0.8111  0.1283
  158MOL0     O20748   8.950   6.763   9.780 -0.4893  0.2451  0.1860
  158MOL0     C20749   9.067   6.709   9.733  0.4691  0.7398 -0.1747
  158MOL0     C20750   9.098   6.721   9.598 -0.6823 -0.0617  0.4670
  158MOL0     C20751   9.214   6.655   9.551 -0.5474 -0.2030  0.6750
  158MOL0     C20752   9.296   6.575   9.636  0.2834  1.3455  0.3469
  158MOL0     C20753   9.410   6.503   9.578  0.3312 -0.7118 -0.8475
  158MOL0     O20754   9.398   6.458   9.454 -0.0924  0.5900 -0.0396
  158MOL0     C20755   9.506   6.406   9.393 -1.0735  1.1885 -0.5259
  158MOL0     C20756   9.557   6.461   9.270  0.7771  0.9611  0.2494
  158MOL0     C20757   9.659   6.400   9.190 -0.0068  0.5326  0.5263
  158MOL0     C20758   9.725   6.285   9.239 -0.7382 -0.3356  0.9956
  158MOL0     O20759   9.829   6.232   9.168 -0.1530  0.7145  0.4595
  158MOL0     C20760   9.927   6.335   9.131  0.1349 -0.0461  0.2648
  158MOL0     C20761  10.019   6.268   9.025 -0.1136 -0.1165 -0.8751
  158MOL0     C20762  10.106   6.382   8.984  0.7054 -0.4796  0.2151
  158MOL0     C20763  10.213   6.342   8.884  0.8628  0.1301 -0.3350
  158MOL0     C20764  10.215   6.419   8.753 -0.2115  0.7714 -0.3250
  158MOL0     C20765  10.087   6.389   8.670 -0.1872 -0.3713 -0.3470
  158MOL0     C20766  10.107   6.412   8.521 -0.1527 -0.4653 -0.0596
  158MOL0     C20767  10.167   6.550   8.471 -1.0334 -0.1151 -0.1365
  158MOL0    Cl20768  10.088   6.683   8.547  0.3849  0.0185 -0.3528
  158MOL0     C20769   9.690   6.245   9.367  0.6607 -0.6106  0.2797
  158MOL0     C20770   9.591   6.302   9.438  0.7145 -0.2308  0.5854
  158MOL0     O20771   9.499   6.479   9.658  0.0127 -0.1986  0.5111
  158MOL0     C20772   9.263   6.565   9.776 -0.1975 -0.7979 -0.8704
  158MOL0     C20773   9.150   6.632   9.822 -0.9984  0.3382 -0.0781
  158MOL0     N20774   8.430   6.404   9.891 -0.4199  0.2471  0.3284
  158MOL0     N20775   8.330   6.331   9.872  1.7720 -0.4450 -0.0341
  158MOL0     C20776   7.738   5.794  10.572  0.4753 -0.8668 -0.1823
  158MOL0     C20777   7.609   5.754  10.566  0.5591 -0.0497  0.2702
  158MOL0     C20778   7.217   5.557  10.502 -0.0920 -0.4349 -0.1639
  158MOL0     C20779   7.103   5.592  10.569  0.3746 -0.4218  0.0167
  158MOL0     C20780   6.984   5.524  10.531 -0.7824  0.5684 -0.1137
  158MOL0     C20781   6.989   5.413  10.450 -0.7988  0.8508 -0.7789
  158MOL0     O20782   6.869   5.351  10.435 -0.0348  0.1947  0.1188
  158MOL0     C20783   6.840   5.312  10.302 -0.0844  0.4471 -0.4389
  158MOL0     C20784   6.720   5.222  10.306 -0.6877  0.1628  0.5137
  158MOL0     C20785   6.585   5.297  10.319 -1.2627 -0.2251  0.7010
  158MOL0     C20786   6.463   5.211  10.285  0.0056  0.3040  0.9167
  158MOL0     C20787   6.332   5.283  10.291 -0.4567  0.3755  0.0287
  158MOL0     C20788   6.233   5.360  10.297  0.0848 -0.5753 -0.7098
  158MOL0     C20789   7.108   5.366  10.392 -0.7201  0.6008 -0.2084
  158MOL0     C20790   7.222   5.442  10.417 -0.3545 -0.7617 -0.6661
  158MOL0     H20791   7.637   5.577  10.278 -2.4365  1.5616 -0.7880
  158MOL0     H20792   7.852   5.658  10.284 -0.9226 -2.1468  0.1990
  158MOL0     H20793   8.000   5.840  10.263  0.5663  1.1257 -1.6489
  158MOL0     H20794   8.047   5.971  10.348  0.6802 -0.7053  0.4771
  158MOL0     H20795   7.811   6.064  10.338 -2.1661 -0.5291  0.0270
  158MOL0     H20796   7.767   5.931  10.239  0.1160 -0.6832  1.9133
  158MOL0     H20797   7.822   6.080  10.064  0.6669 -3.0707 -1.0487
  158MOL0     H20798   7.953   5.973  10.092  1.6509  0.7652  2.9613
  158MOL0     H20799   7.933   6.255  10.208 -0.0481  0.0842 -0.8976
  158MOL0     H20800   8.065   6.146  10.235  0.5523 -0.1953 -1.3279
  158MOL0     H20801   8.120   6.142   9.984  0.9498  1.2466 -1.9268
  158MOL0     H20802   8.124   6.312  10.055 -2.7601  1.9696 -1.3530
  158MOL0     H20803   7.890   6.328   9.989 -3.8959 -2.6618 -1.2155
  158MOL0     H20804   7.900   6.203   9.872 -1.5257  1.6403 -1.8910
  158MOL0     H20805   7.934   6.430   9.780  0.5734  2.0051  2.5294
  158MOL0     H20806   8.056   6.460   9.888 -2.3036  1.9020 -0.5891
  158MOL0     H20807   8.098   6.395   9.633 -1.3668 -1.3412 -1.8143
  158MOL0     H20808   8.113   6.229   9.713 -1.4283  0.5924  1.3272
  158MOL0     H20809   8.310   6.559   9.639 -0.9360 -2.0524 -1.3813
  158MOL0     H20810   8.585   6.602   9.895 -1.0599 -0.7043  0.6558
  158MOL0     H20811   8.483   6.720   9.807 -1.2836  0.5173 -1.9677
  158MOL0     H20812   8.557   6.638   9.578 -0.7804  0.6834 -0.3592
  158MOL0     H20813   8.643   6.505   9.661  3.0713  1.2805 -0.7019
  158MOL0     H20814   8.775   6.677   9.573  1.0341  0.7395 -1.1418
  158MOL0     H20815   8.696   6.809   9.661 -0.3222  0.0669 -0.3798
  158MOL0     H20816   8.867   6.574   9.760  2.3271 -0.8783  2.4287
  158MOL0     H20817   8.790   6.690   9.883  1.7494  1.6269  0.1338
  158MOL0     H20818   9.035   6.781   9.533 -3.7545 -1.2079  2.1302
  158MOL0     H20819   9.239   6.659   9.446  0.8206 -0.1323  0.9888
  158MOL0     H20820   9.496   6.537   9.222 -0.6443 -1.0768 -1.3440
  158MOL0     H20821   9.679   6.444   9.093 -2.2239 -1.1427 -0.7833
  158MOL0     H20822   9.981   6.359   9.223 -0.7264  1.7133  0.3540
  158MOL0     H20823   9.884   6.421   9.079  0.0808  0.0746  0.5052
  158MOL0     H20824   9.952   6.227   8.949 -0.2459  0.5095 -1.1008
  158MOL0     H20825  10.092   6.195   9.062 -0.7769 -0.7227 -0.7333
  158MOL0     H20826  10.160   6.433   9.064  1.6588  0.3535 -0.9178
  158MOL0     H20827  10.045   6.463   8.943  2.0702  1.3524  1.6047
  158MOL0     H20828  10.315   6.345   8.923  0.9561 -0.3973 -0.5293
  158MOL0     H20829  10.188   6.236   8.868  0.4360 -0.0465  1.2871
  158MOL0     H20830  10.314   6.387   8.719  1.8037  1.7824  3.9120
  158MOL0     H20831  10.223   6.524   8.782  0.5079 -0.0014  2.6908
  158MOL0     H20832  10.017   6.469   8.695  2.6044  2.1976 -0.1909
  158MOL0     H20833  10.050   6.287   8.687  1.3021 -0.6321  1.6629
  158MOL0     H20834  10.178   6.335   8.489 -1.5439 -2.3375  1.1857
  158MOL0     H20835  10.009   6.393   8.477 -1.0262  2.6506  0.2918
  158MOL0     H20836  10.165   6.565   8.363 -3.2820  0.7827 -0.0235
  158MOL0     H20837  10.273   6.566   8.494 -0.8468 -1.0554 -0.3151
  158MOL0     H20838   9.745   6.162   9.411  2.3687  0.6024  0.5418
  158MOL0     H20839   9.564   6.260   9.535  1.7858  0.1336  1.0599
  158MOL0     H20840   9.321   6.496   9.836 -1.3156 -0.1481  1.0560
  158MOL0     H20841   9.125   6.608   9.925  1.2789 -1.4224  0.1450
  158MOL0     H20842   7.780   5.856  10.650 -1.2223 -1.2162  1.0804
  158MOL0     H20843   7.548   5.778  10.652  1.0319  0.6253  0.4207
  158MOL0     H20844   7.087   5.671  10.641 -1.7764 -0.7600 -0.0232
  158MOL0     H20845   6.885   5.543  10.569 -0.9743  0.4720 -0.5503
  158MOL0     H20846   6.919   5.250  10.259  1.7966 -0.4904  3.7654
  158MOL0     H20847   6.818   5.402  10.244 -0.4801  0.6575  0.0291
  158MOL0     H20848   6.701   5.156  10.221 -1.2783 -1.6655  1.9937
  158MOL0     H20849   6.730   5.162  10.397  1.9582 -0.2656  0.0260
  158MOL0     H20850   6.568   5.373  10.242 -0.2724 -0.9483 -0.2682
  158MOL0     H20851   6.570   5.332  10.422 -0.1042  0.9842  0.4891
  158MOL0     H20852   6.478   5.153  10.193  0.8080 -0.6228  1.6112
  158MOL0     H20853   6.451   5.138  10.365 -0.4675 -1.5716 -0.7916
  158MOL0     H20854   6.148   5.423  10.310  1.3562  1.3761 -1.4607
  158MOL0     H20855   7.113   5.286  10.319 -0.8138  1.2319 -0.9188
  158MOL0     H20856   7.312   5.413  10.363 -0.6194  0.1083 -1.6259
  159MOL0     O20857   0.065   3.255   7.766 -0.3208 -0.3585  0.2088
  159MOL0     C20858   0.025   3.137   7.772 -0.2910  0.1444  0.3354
  159MOL0     O20859  -0.046   3.074   7.870  0.7446 -0.8836  0.1234
  159MOL0     C20860  -0.071   3.147   7.982  0.8797 -0.0117  0.2646
  159MOL0     C20861  -0.004   3.099   8.097 -0.7736  0.3138  0.0531
  159MOL0     C20862  -0.004   3.172   8.220  0.0083  0.4042 -1.1925
  159MOL0     C20863  -0.076   3.300   8.224  0.1388  0.0531 -0.9978
  159MOL0     O20864  -0.085   3.384   8.334  0.3631  0.3175  0.1145
  159MOL0     C20865   0.016   3.366   8.430  0.6118  1.1122 -0.0075
  159MOL0     C20866  -0.002   3.451   8.553  0.3293  0.8955 -0.3178
  159MOL0     C20867  -0.141   3.449   8.611  0.2174  1.1214  0.5777
  159MOL0     C20868  -0.163   3.570   8.711  0.0832  0.6979 -0.0140
  159MOL0     C20869  -0.290   3.546   8.797  0.0495  0.0169 -0.1550
  159MOL0     C20870  -0.352   3.682   8.849 -0.1834 -0.1060 -0.0130
  159MOL0     C20871  -0.460   3.659   8.953  0.1215 -0.4542  1.1102
  159MOL0     C20872  -0.543   3.780   8.972 -0.5435 -0.3028  0.5384
  159MOL0     N20873  -0.476   3.913   9.015 -0.1272  0.5685 -0.4301
  159MOL0     C20874  -0.520   4.041   9.006  0.5022  0.7840 -0.4013
  159MOL0     C20875  -0.423   4.113   9.067  1.1587 -0.0178  0.0316
  159MOL0     C20876  -0.421   4.266   9.061 -0.2036  0.5583  0.9266
  159MOL0     C20877  -0.503   4.328   9.178  0.0831  1.0138  1.2252
  159MOL0     C20878  -0.551   4.478   9.139  1.3965 -1.0523 -0.5800
  159MOL0     C20879  -0.700   4.487   9.175 -0.0439  0.2004 -0.3308
  159MOL0     O20880  -0.730   4.436   9.305  0.4578 -0.4494  0.0371
  159MOL0     C20881  -0.711   4.518   9.415  0.1420 -0.7434  0.3975
  159MOL0     C20882  -0.822   4.571   9.483  0.8173  0.1386  0.3167
  159MOL0     C20883  -0.805   4.653   9.601  0.4137 -0.0583  0.3854
  159MOL0     C20884  -0.673   4.664   9.651  0.3441  1.3524 -1.2072
  159MOL0     C20885  -0.641   4.743   9.777 -0.0783  0.6030 -0.3965
  159MOL0     O20886  -0.525   4.710   9.851  0.7318 -0.2420  0.4447
  159MOL0     C20887  -0.485   4.786   9.961  0.3251  0.4948  0.9202
  159MOL0     C20888  -0.382   4.870   9.932  0.0991 -0.1792  0.1707
  159MOL0     C20889  -0.334   4.953  10.032 -0.0933 -0.7984  0.4176
  159MOL0     C20890  -0.409   4.957  10.162 -0.7320  0.7291  0.4672
  159MOL0     O20891  -0.360   5.014  10.270  0.0955  0.0022 -0.1664
  159MOL0     C20892  -0.447   5.110  10.325 -0.3030 -0.5925  0.2510
  159MOL0     C20893  -0.373   5.183  10.436 -0.8776  0.3935  0.6776
  159MOL0     C20894  -0.263   5.261  10.379  0.0260 -0.0309 -0.1175
  159MOL0     C20895  -0.162   5.303  10.493  0.6904  1.5267 -0.2062
  159MOL0     C20896  -0.068   5.413  10.432 -0.1443 -0.4430  1.2307
  159MOL0     C20897   0.015   5.495  10.536 -0.2063  0.7037  0.6520
  159MOL0     C20898   0.130   5.583  10.474 -0.2068 -0.2505  0.5246
  159MOL0     C20899   0.205   5.649  10.591 -0.0781 -0.3131  0.2593
  159MOL0    Cl20900   0.112   5.774  10.682  0.0765  0.2424 -0.5337
  159MOL0     C20901  -0.502   4.855  10.181  0.4224 -1.0921  0.2169
  159MOL0     C20902  -0.544   4.773  10.082 -0.1826 -0.2085 -0.1650
  159MOL0     O20903  -0.722   4.829   9.807 -0.7901 -0.5279  0.3922
  159MOL0     C20904  -0.565   4.609   9.576  0.0395  0.7003  0.2080
  159MOL0     C20905  -0.583   4.537   9.466  0.2643  0.3351  0.2271
  159MOL0     N20906  -0.320   4.031   9.106  0.2533 -0.2370  0.3041
  159MOL0     N20907  -0.357   3.912   9.086  0.7569  0.1752  0.4756
  159MOL0     C20908  -0.138   3.348   8.109  0.1507  0.1358 -0.1656
  159MOL0     C20909  -0.136   3.270   7.993 -0.6425 -0.0559 -0.0016
  159MOL0     C20910   0.058   3.046   7.659 -0.2231 -1.3487 -0.2783
  159MOL0     C20911   0.133   3.093   7.551  0.3379 -0.0061 -0.4888
  159MOL0     C20912   0.195   3.001   7.460  0.2376 -0.8166 -0.1576
  159MOL0     C20913   0.192   2.867   7.500  1.4500 -0.3071 -0.0827
  159MOL0     O20914   0.283   2.772   7.446 -0.4521 -0.5890  0.1289
  159MOL0     C20915   0.400   2.830   7.390 -0.7661 -0.5059 -0.9866
  159MOL0     C20916   0.522   2.741   7.386  0.7332 -0.3662 -0.2306
  159MOL0     C20917   0.641   2.796   7.302 -0.2113  0.3345 -0.1266
  159MOL0     C20918   0.693   2.932   7.352 -0.3760  0.3630  0.0916
  159MOL0     C20919   0.740   2.919   7.485  0.3010  0.8512 -0.4065
  159MOL0     C20920   0.760   2.934   7.607  0.0866 -0.0698  0.3872
  159MOL0     C20921   0.089   2.825   7.582  0.0561 -0.4783 -0.7313
  159MOL0     C20922   0.026   2.916   7.662  0.5453 -0.9226 -0.1490
  159MOL0     H20923   0.061   3.012   8.090 -1.7450 -0.5866  1.5478
  159MOL0     H20924   0.040   3.125   8.308 -1.5594  1.3916  0.1916
  159MOL0     H20925   0.112   3.374   8.379 -0.0885  0.9178 -1.3992
  159MOL0     H20926  -0.005   3.268   8.474  1.4185  2.0799  2.7627
  159MOL0     H20927   0.025   3.554   8.527  0.1845  0.5645 -1.9083
  159MOL0     H20928   0.068   3.411   8.626  1.1011  1.5366 -0.6958
  159MOL0     H20929  -0.151   3.349   8.653 -2.5020  0.3495 -1.6410
  159MOL0     H20930  -0.215   3.463   8.533 -1.6907  2.7125  2.5446
  159MOL0     H20931  -0.073   3.562   8.773  0.4755 -2.2349 -0.7881
  159MOL0     H20932  -0.160   3.663   8.654 -1.3293  0.4662 -0.4886
  159MOL0     H20933  -0.253   3.483   8.878  3.4911  1.3299 -0.5238
  159MOL0     H20934  -0.363   3.491   8.739 -0.1563  0.8419 -0.6898
  159MOL0     H20935  -0.400   3.733   8.765 -1.5444  3.0829  2.4965
  159MOL0     H20936  -0.280   3.747   8.899 -0.5248 -0.3522  0.8119
  159MOL0     H20937  -0.526   3.576   8.927  2.1933 -1.2039 -2.5075
  159MOL0     H20938  -0.416   3.639   9.051 -1.7315 -3.5791  1.4520
  159MOL0     H20939  -0.615   3.753   9.049  0.3095 -2.1558  0.7415
  159MOL0     H20940  -0.598   3.806   8.881  0.9188  2.3438  0.3013
  159MOL0     H20941  -0.606   4.072   8.947 -0.8990 -1.6404  0.2362
  159MOL0     H20942  -0.451   4.291   8.959  0.5673 -0.3002  0.4684
  159MOL0     H20943  -0.321   4.306   9.083 -0.9296  2.5207  0.8550
  159MOL0     H20944  -0.448   4.333   9.272  3.3617  3.5308 -0.6257
  159MOL0     H20945  -0.591   4.267   9.199  1.6046 -1.3256  1.1040
  159MOL0     H20946  -0.494   4.557   9.190 -0.5591 -0.3417  0.6054
  159MOL0     H20947  -0.555   4.480   9.030  0.6481  1.0932 -0.5476
  159MOL0     H20948  -0.756   4.432   9.098  0.5979  1.3378 -1.6736
  159MOL0     H20949  -0.745   4.587   9.177 -0.6370 -0.0057 -1.8200
  159MOL0     H20950  -0.918   4.557   9.435  0.4262  2.5299  0.2897
  159MOL0     H20951  -0.883   4.705   9.655 -2.4437 -2.6554 -0.9015
  159MOL0     H20952  -0.345   4.872   9.830  1.0691  0.9585  0.5221
  159MOL0     H20953  -0.246   5.009  10.004 -1.1411  0.5182 -0.4127
  159MOL0     H20954  -0.534   5.071  10.378 -2.7246  2.6403 -0.9702
  159MOL0     H20955  -0.497   5.178  10.256 -0.8938 -1.4249 -0.1517
  159MOL0     H20956  -0.318   5.115  10.502  4.1554  0.6444 -2.7615
  159MOL0     H20957  -0.442   5.249  10.490  1.6060  1.9142  2.1649
  159MOL0     H20958  -0.299   5.355  10.334 -1.2013 -1.1982 -1.7135
  159MOL0     H20959  -0.220   5.207  10.294 -1.2530  1.5575 -1.8548
  159MOL0     H20960  -0.228   5.342  10.571 -1.2552 -0.5325 -0.7174
  159MOL0     H20961  -0.115   5.216  10.540 -0.9483  1.9042  2.3258
  159MOL0     H20962  -0.116   5.471  10.353  1.1995 -3.7160 -2.3044
  159MOL0     H20963   0.003   5.358  10.370 -1.6776  0.3721 -1.3703
  159MOL0     H20964   0.072   5.423  10.596  3.0250  1.1285 -1.6733
  159MOL0     H20965  -0.051   5.553  10.601  1.7223  2.4792  1.1292
  159MOL0     H20966   0.191   5.526  10.404 -1.0440  0.1981 -0.5989
  159MOL0     H20967   0.082   5.654  10.406 -1.2079 -1.1887  0.2136
  159MOL0     H20968   0.299   5.692  10.555 -1.3350 -0.8504 -4.2632
  159MOL0     H20969   0.226   5.563  10.655 -2.0653 -1.9588 -1.1590
  159MOL0     H20970  -0.541   4.856  10.282  2.2239  2.4948  1.0401
  159MOL0     H20971  -0.617   4.695  10.104 -0.9199  0.3569 -0.5664
  159MOL0     H20972  -0.471   4.612   9.631 -0.9815 -1.3845  2.2507
  159MOL0     H20973  -0.498   4.485   9.423 -2.1197 -5.0991  1.2492
  159MOL0     H20974  -0.188   3.444   8.110  1.5242  0.8765 -0.5750
  159MOL0     H20975  -0.187   3.314   7.908 -1.3468  1.6961  1.2740
  159MOL0     H20976   0.141   3.199   7.529  2.1126  0.3539  1.5806
  159MOL0     H20977   0.268   3.037   7.388 -1.6878 -2.3789 -3.0612
  159MOL0     H20978   0.424   2.907   7.464 -0.8822  0.3036 -1.7719
  159MOL0     H20979   0.388   2.880   7.294 -2.2312  0.1367 -0.4947
  159MOL0     H20980   0.539   2.719   7.491 -1.1755  2.2051  0.7281
  159MOL0     H20981   0.495   2.651   7.331  0.0932 -0.9783  1.0489
  159MOL0     H20982   0.610   2.809   7.198 -2.5794  2.5168  0.7416
  159MOL0     H20983   0.720   2.720   7.291 -1.9382 -1.3655 -1.6952
  159MOL0     H20984   0.777   2.962   7.289 -1.9982  0.9104 -1.9577
  159MOL0     H20985   0.617   3.010   7.345 -1.8911 -0.9789  0.9221
  159MOL0     H20986   0.773   2.964   7.709 -2.8365 -0.4262  0.9293
  159MOL0     H20987   0.063   2.720   7.593 -0.2140 -0.1958  2.1048
  159MOL0     H20988  -0.042   2.889   7.742 -1.7363  0.8352 -1.3723
  160MOL0     O20989   8.366   2.235   2.213  0.2832 -0.8134  0.2406
  160MOL0     C20990   8.323   2.269   2.319 -0.3055  0.0596 -0.6326
  160MOL0     O20991   8.200   2.327   2.342  0.2398 -0.0862  0.4637
  160MOL0     C20992   8.102   2.343   2.246 -0.2249 -0.0239 -0.4685
  160MOL0     C20993   8.140   2.393   2.121  1.0852  0.6710 -0.1863
  160MOL0     C20994   8.037   2.412   2.025 -0.1276 -0.3763  0.0102
  160MOL0     C20995   7.901   2.395   2.053  0.2564  0.5940  0.4398
  160MOL0     O20996   7.817   2.412   1.952  0.2768  0.1890  0.3505
  160MOL0     C20997   7.714   2.323   1.948  0.8583  0.3432 -0.6834
  160MOL0     C20998   7.621   2.338   1.829 -0.7052  0.4595  0.1124
  160MOL0     C20999   7.711   2.386   1.716 -0.7818  0.7917 -0.5037
  160MOL0     C21000   7.624   2.370   1.584 -0.8659  0.1286 -0.1939
  160MOL0     C21001   7.516   2.477   1.570 -0.9032  0.1310  0.5883
  160MOL0     C21002   7.430   2.434   1.448 -0.6247  0.6435 -0.7541
  160MOL0     C21003   7.328   2.543   1.400 -0.5323  0.7417 -1.3323
  160MOL0     C21004   7.222   2.545   1.498  0.3922 -1.0049 -0.4309
  160MOL0     N21005   7.150   2.425   1.546 -0.4281  0.1967  0.9786
  160MOL0     C21006   7.178   2.346   1.650 -0.0765 -0.7252 -0.5585
  160MOL0     C21007   7.093   2.253   1.656  0.8742  0.2843  0.5555
  160MOL0     C21008   7.077   2.146   1.744  0.0771  0.5991 -1.2201
  160MOL0     C21009   6.981   2.176   1.862  0.1712 -0.4945  0.1713
  160MOL0     C21010   6.959   2.067   1.967  0.6149 -0.3335  0.2701
  160MOL0     C21011   7.090   2.004   2.016  0.0248  0.8396 -0.7490
  160MOL0     O21012   7.179   2.115   2.064  0.1881 -0.6643  0.1709
  160MOL0     C21013   7.298   2.089   2.126  1.2117  0.4223 -0.3368
  160MOL0     C21014   7.368   1.970   2.123  0.0470  0.2794 -0.6733
  160MOL0     C21015   7.485   1.958   2.192 -0.1908 -0.1861 -0.6354
  160MOL0     C21016   7.551   2.066   2.258 -0.1544  0.7686  0.0384
  160MOL0     C21017   7.672   2.044   2.344  0.5596 -0.9309 -0.3585
  160MOL0     O21018   7.734   1.923   2.342  0.0602  0.3374  0.1535
  160MOL0     C21019   7.850   1.902   2.408 -0.2231 -1.0776 -0.7812
  160MOL0     C21020   7.954   1.840   2.335 -0.6256  1.3698  0.4822
  160MOL0     C21021   8.080   1.814   2.396  0.2876 -0.0351  1.1996
  160MOL0     C21022   8.101   1.859   2.525 -1.3944 -0.1965  0.1256
  160MOL0     O21023   8.228   1.829   2.583 -0.3837 -0.0467 -0.1056
  160MOL0     C21024   8.338   1.923   2.573 -0.5128 -0.1094  0.4740
  160MOL0     C21025   8.462   1.856   2.525  0.4182  0.1304 -0.1691
  160MOL0     C21026   8.515   1.734   2.609  0.3716 -0.7088 -0.3557
  160MOL0     C21027   8.622   1.784   2.707 -0.4694 -0.4024  0.0579
  160MOL0     C21028   8.708   1.670   2.755  0.1580  0.4716  0.3083
  160MOL0     C21029   8.825   1.713   2.841 -0.2417 -0.0637 -0.4063
  160MOL0     C21030   8.909   1.587   2.864 -0.5341 -0.0813 -0.3864
  160MOL0     C21031   9.020   1.604   2.972  0.1311  0.4981 -0.0692
  160MOL0    Cl21032   8.939   1.583   3.131 -0.5235 -0.4431  0.0291
  160MOL0     C21033   7.996   1.905   2.599 -0.6389  0.6096  0.3293
  160MOL0     C21034   7.869   1.932   2.542  0.4074 -0.0232 -0.0288
  160MOL0     O21035   7.724   2.152   2.383 -0.0753  0.0917 -0.5696
  160MOL0     C21036   7.480   2.185   2.251 -0.0289  1.1984  0.0258
  160MOL0     C21037   7.350   2.194   2.190 -0.5931 -0.6704  0.1993
  160MOL0     N21038   7.014   2.262   1.546  0.1364 -0.0665 -0.0837
  160MOL0     N21039   7.047   2.365   1.476 -0.6986 -0.4841 -0.4106
  160MOL0     C21040   7.869   2.350   2.186 -0.8561  0.4057 -0.4225
  160MOL0     C21041   7.968   2.327   2.280 -0.5370 -0.7202  0.3917
  160MOL0     C21042   8.404   2.256   2.438  0.0427  0.2003 -1.2858
  160MOL0     C21043   8.358   2.308   2.562 -0.3740 -0.2698 -0.6298
  160MOL0     C21044   8.446   2.293   2.671  0.0100  0.0089  0.1395
  160MOL0     C21045   8.578   2.232   2.653  0.4619 -0.0681  0.2066
  160MOL0     O21046   8.656   2.227   2.766  0.0796 -0.1529 -0.1240
  160MOL0     C21047   8.773   2.146   2.771  0.2591 -0.7032 -0.4888
  160MOL0     C21048   8.812   2.149   2.919  0.6926 -0.6403  0.1363
  160MOL0     C21049   8.921   2.052   2.945  0.8732 -0.0919  0.5516
  160MOL0     C21050   9.043   2.070   2.848 -0.1190  0.3380  0.9184
  160MOL0     C21051   9.158   1.984   2.883  0.8099  0.4496 -0.0694
  160MOL0     C21052   9.254   1.931   2.924  1.0878  0.6635  0.4701
  160MOL0     C21053   8.621   2.195   2.526  0.6976  0.2127  0.1162
  160MOL0     C21054   8.529   2.191   2.422  0.2176 -0.9181 -0.3327
  160MOL0     H21055   8.240   2.410   2.083  0.5794  0.9034 -1.4611
  160MOL0     H21056   8.058   2.444   1.923  0.8832  3.2223  1.1811
  160MOL0     H21057   7.648   2.341   2.033  2.4488  1.5674  0.3400
  160MOL0     H21058   7.757   2.223   1.953 -3.1059 -1.5574 -0.7500
  160MOL0     H21059   7.534   2.402   1.844 -0.1565  1.1074  0.5608
  160MOL0     H21060   7.576   2.241   1.803 -1.0054 -0.0151  2.2201
  160MOL0     H21061   7.798   2.321   1.709  1.3592  3.5155 -0.5810
  160MOL0     H21062   7.752   2.486   1.725 -0.4155  0.6789 -0.9258
  160MOL0     H21063   7.686   2.389   1.495 -0.5117  2.6828  0.5080
  160MOL0     H21064   7.592   2.266   1.573  1.2867 -0.7856  1.3424
  160MOL0     H21065   7.553   2.578   1.551 -2.4769  0.2278 -2.4565
  160MOL0     H21066   7.447   2.476   1.655 -0.3859 -3.3891  1.1406
  160MOL0     H21067   7.376   2.340   1.463  2.1620 -0.7348  1.5372
  160MOL0     H21068   7.503   2.419   1.368  0.9302  1.5595  0.4302
  160MOL0     H21069   7.380   2.637   1.380  1.8209 -0.6893 -2.4066
  160MOL0     H21070   7.288   2.514   1.303 -3.2253 -1.8715  0.3985
  160MOL0     H21071   7.150   2.619   1.461  0.3884 -0.1504  1.2299
  160MOL0     H21072   7.264   2.594   1.585 -3.1913  0.2407  0.7793
  160MOL0     H21073   7.253   2.354   1.728 -0.9135 -1.4608  0.3421
  160MOL0     H21074   7.177   2.128   1.784  0.0824 -1.3011 -1.9638
  160MOL0     H21075   7.032   2.061   1.692 -1.3827  1.3339 -1.2069
  160MOL0     H21076   6.889   2.198   1.807  0.6057  2.1990  0.3925
  160MOL0     H21077   7.002   2.272   1.910 -1.3389  0.0598 -0.2373
  160MOL0     H21078   6.910   2.110   2.055  1.2101 -1.1096  1.0009
  160MOL0     H21079   6.889   1.994   1.924  0.8284  0.5962 -1.7845
  160MOL0     H21080   7.130   1.934   1.942  3.3362  0.4920  1.1358
  160MOL0     H21081   7.056   1.938   2.097 -0.2098 -1.8329 -2.8857
  160MOL0     H21082   7.325   1.893   2.060 -3.8139  2.2092 -0.7361
  160MOL0     H21083   7.542   1.867   2.177  1.9763  1.0963 -0.6829
  160MOL0     H21084   7.948   1.819   2.229 -1.8536 -1.1262  0.9663
  160MOL0     H21085   8.160   1.774   2.334 -1.4780 -1.4145 -0.3238
  160MOL0     H21086   8.377   1.966   2.666  3.4666 -1.0652 -0.5789
  160MOL0     H21087   8.323   2.008   2.507 -0.8670 -0.0465  0.6312
  160MOL0     H21088   8.538   1.928   2.495 -0.3775  0.4694 -1.4903
  160MOL0     H21089   8.432   1.807   2.432 -0.0274 -1.4458  0.7849
  160MOL0     H21090   8.547   1.646   2.553 -1.0195 -1.3694 -0.1680
  160MOL0     H21091   8.429   1.701   2.668 -1.4905  6.1575  1.7351
  160MOL0     H21092   8.692   1.845   2.649  1.3409  0.0304  2.4981
  160MOL0     H21093   8.572   1.852   2.777  2.8599  0.6828  1.6054
  160MOL0     H21094   8.747   1.617   2.668  0.5931  2.0577 -0.5136
  160MOL0     H21095   8.652   1.601   2.818  0.5422  1.6663  2.0092
  160MOL0     H21096   8.796   1.754   2.939 -0.2322  2.2210 -1.2863
  160MOL0     H21097   8.885   1.780   2.778 -1.5073  2.3137  0.7732
  160MOL0     H21098   8.848   1.503   2.898 -0.2299  0.3264  1.2994
  160MOL0     H21099   8.964   1.571   2.771  1.5438 -0.1945  0.8004
  160MOL0     H21100   9.060   1.705   2.968 -2.1772  1.4416 -0.8974
  160MOL0     H21101   9.104   1.535   2.955 -0.2242  0.5043 -2.0794
  160MOL0     H21102   8.022   1.949   2.696  1.8724  2.0392 -0.8860
  160MOL0     H21103   7.787   1.987   2.586  2.7532  3.2511  0.6237
  160MOL0     H21104   7.514   2.267   2.314  3.0547  0.1673 -0.1448
  160MOL0     H21105   7.292   2.286   2.194  1.2966  0.5763  0.0411
  160MOL0     H21106   7.769   2.328   2.221 -0.7073  2.2439  1.2829
  160MOL0     H21107   7.945   2.297   2.382  1.9510 -1.1763  0.8614
  160MOL0     H21108   8.257   2.348   2.563  0.1475  1.0970  0.1142
  160MOL0     H21109   8.418   2.346   2.762 -1.9047 -0.6758 -0.0066
  160MOL0     H21110   8.846   2.177   2.696 -0.2145 -0.2888 -0.7894
  160MOL0     H21111   8.737   2.048   2.737  2.0727 -1.3996 -0.5152
  160MOL0     H21112   8.847   2.249   2.946  1.0427 -0.8117  0.3256
  160MOL0     H21113   8.733   2.120   2.988 -0.4913 -2.5137 -1.8634
  160MOL0     H21114   8.882   1.950   2.941 -0.3428  0.3252  1.4024
  160MOL0     H21115   8.956   2.072   3.047  0.3763  0.8960  0.5468
  160MOL0     H21116   9.013   2.050   2.745 -0.4899  0.4045  1.0119
  160MOL0     H21117   9.086   2.169   2.864  0.7583 -0.0548  1.0367
  160MOL0     H21118   9.347   1.892   2.961  2.5361  2.6327 -0.8593
  160MOL0     H21119   8.724   2.162   2.513  1.2557  1.8332  0.1590
  160MOL0     H21120   8.573   2.144   2.334 -2.6297 -2.9052 -0.8320
  161MOL0     O21121   6.667   2.866   7.769 -0.4077  0.8868 -0.5768
  161MOL0     C21122   6.576   2.805   7.822 -0.6616 -0.6005 -0.4227
  161MOL0     O21123   6.585   2.733   7.931 -0.1654 -0.9391 -0.5329
  161MOL0     C21124   6.707   2.668   7.967  0.7110 -0.4846 -0.0004
  161MOL0     C21125   6.721   2.612   8.098 -0.6986 -0.2857  0.0622
  161MOL0     C21126   6.840   2.548   8.145  1.3589  0.1839  0.2377
  161MOL0     C21127   6.948   2.543   8.064  1.2281  1.1795 -0.8157
  161MOL0     O21128   7.068   2.487   8.089 -0.3091  0.1638 -0.5811
  161MOL0     C21129   7.096   2.411   8.207 -0.1823 -0.6255 -0.4189
  161MOL0     C21130   7.243   2.363   8.217 -0.3201  0.2870  0.0148
  161MOL0     C21131   7.351   2.460   8.152  0.0146  0.1325 -0.0649
  161MOL0     C21132   7.503   2.426   8.189  0.4159 -0.2142 -0.8007
  161MOL0     C21133   7.587   2.531   8.124 -0.8347 -0.2647 -0.6083
  161MOL0     C21134   7.743   2.512   8.155  0.0349 -0.1392  0.7755
  161MOL0     C21135   7.812   2.619   8.077 -0.2824  0.4027 -0.3515
  161MOL0     C21136   7.961   2.592   8.107 -0.0882 -0.5252 -0.5646
  161MOL0     N21137   8.040   2.687   8.028  0.0036 -0.0343 -0.3835
  161MOL0     C21138   8.093   2.805   8.076 -0.3930  1.0830  0.2464
  161MOL0     C21139   8.172   2.843   7.972  0.4628  0.3225  0.2753
  161MOL0     C21140   8.264   2.964   7.986 -0.9073  0.5117  0.5781
  161MOL0     C21141   8.373   2.957   7.867 -0.3474  0.6329  0.2737
  161MOL0     C21142   8.477   3.070   7.878  1.3124  0.5814 -0.3379
  161MOL0     C21143   8.589   3.041   7.778 -0.9062 -0.5325 -0.2646
  161MOL0     O21144   8.543   3.061   7.643 -0.0167  0.5950 -0.1421
  161MOL0     C21145   8.599   2.974   7.552  0.4388 -0.4484  0.6820
  161MOL0     C21146   8.594   2.839   7.567  0.4857  0.4128 -0.6308
  161MOL0     C21147   8.668   2.749   7.482 -0.3510  0.0352 -0.4210
  161MOL0     C21148   8.752   2.807   7.384  0.4698 -0.3689  0.2589
  161MOL0     C21149   8.835   2.717   7.306 -0.0597 -1.2071  1.2801
  161MOL0     O21150   8.950   2.776   7.254  0.1753  0.2977  0.2029
  161MOL0     C21151   9.050   2.693   7.206 -0.1980 -1.6475  0.4440
  161MOL0     C21152   9.048   2.645   7.080 -0.5382 -0.8177 -0.3468
  161MOL0     C21153   9.139   2.553   7.041  0.5065  0.1241 -0.2070
  161MOL0     C21154   9.245   2.512   7.117  0.9152  0.2432 -0.5654
  161MOL0     O21155   9.342   2.422   7.083 -0.1638  0.7405 -0.3241
  161MOL0     C21156   9.291   2.301   7.015 -0.1842  0.3151 -0.2267
  161MOL0     C21157   9.308   2.299   6.860 -0.0662  0.7487 -0.1461
  161MOL0     C21158   9.458   2.312   6.826  0.5508 -0.7748  0.0390
  161MOL0     C21159   9.488   2.310   6.675  0.1534  0.2130 -0.6046
  161MOL0     C21160   9.637   2.310   6.646 -0.6473  0.2250  0.4870
  161MOL0     C21161   9.666   2.379   6.511 -0.4567 -0.7750 -0.2304
  161MOL0     C21162   9.811   2.368   6.477 -1.3185  0.4272  0.0827
  161MOL0     C21163   9.841   2.431   6.345  0.9593  0.3563  0.0593
  161MOL0    Cl21164  10.023   2.451   6.326  0.2426  0.2200  0.2942
  161MOL0     C21165   9.258   2.576   7.244 -0.2004  0.0445 -0.2454
  161MOL0     C21166   9.162   2.666   7.290 -0.5291  0.3201 -0.5202
  161MOL0     O21167   8.807   2.596   7.289  0.0828  0.7177 -0.7652
  161MOL0     C21168   8.748   2.944   7.365  0.3584  0.3443 -0.0880
  161MOL0     C21169   8.675   3.026   7.448 -0.5868 -0.2223 -0.1548
  161MOL0     N21170   8.170   2.748   7.868 -0.8213 -0.3845 -0.2794
  161MOL0     N21171   8.100   2.653   7.911 -0.9821  0.5704 -0.1739
  161MOL0     C21172   6.930   2.599   7.931  0.3388  0.0372  0.3006
  161MOL0     C21173   6.818   2.656   7.880  0.4039  0.4267 -0.3279
  161MOL0     C21174   6.445   2.808   7.760  0.4549 -0.4660 -0.8451
  161MOL0     C21175   6.335   2.759   7.831 -0.0785 -0.6483 -0.3885
  161MOL0     C21176   6.218   2.766   7.756 -0.3201 -0.0997  0.3128
  161MOL0     C21177   6.195   2.826   7.635  0.6296  0.2136  0.1546
  161MOL0     O21178   6.074   2.848   7.578  0.0130  0.5736  0.0781
  161MOL0     C21179   6.046   2.985   7.570  0.0803 -0.1134  0.4309
  161MOL0     C21180   6.047   3.038   7.430  0.2468  0.8012  0.7664
  161MOL0     C21181   6.002   3.185   7.426 -0.1079 -0.1277  0.4809
  161MOL0     C21182   5.850   3.197   7.394  0.7207  0.7201 -0.8470
  161MOL0     C21183   5.815   3.342   7.380  0.1912  0.2517 -0.3102
  161MOL0     C21184   5.800   3.458   7.389 -0.6167  0.2573  0.2406
  161MOL0     C21185   6.308   2.865   7.569  0.8288  0.0657  0.1021
  161MOL0     C21186   6.433   2.849   7.622  0.3285 -0.5667 -0.1942
  161MOL0     H21187   6.634   2.614   8.164 -0.6171  1.6181  0.1762
  161MOL0     H21188   6.852   2.517   8.249  1.0499  2.4618  1.0052
  161MOL0     H21189   7.024   2.329   8.215  0.9933 -1.5599  1.3188
  161MOL0     H21190   7.081   2.475   8.294 -1.4031 -2.4470  0.7836
  161MOL0     H21191   7.249   2.270   8.160 -2.0367 -1.3538  2.2798
  161MOL0     H21192   7.268   2.345   8.322  2.0024 -0.3134 -0.5770
  161MOL0     H21193   7.336   2.557   8.198  0.5822  0.8107 -1.2578
  161MOL0     H21194   7.321   2.465   8.047 -1.6138  1.0939  0.4084
  161MOL0     H21195   7.504   2.433   8.298  0.4238 -0.2844 -0.7965
  161MOL0     H21196   7.541   2.329   8.154  1.2751 -0.4496  0.6601
  161MOL0     H21197   7.552   2.627   8.160 -0.8129 -1.0799  1.7102
  161MOL0     H21198   7.568   2.528   8.016 -0.7728 -2.4055 -0.6140
  161MOL0     H21199   7.782   2.412   8.136  0.1692  0.2945 -1.5566
  161MOL0     H21200   7.748   2.535   8.262 -0.7901  0.7402  0.6441
  161MOL0     H21201   7.796   2.601   7.970 -1.2167 -1.5630  0.0706
  161MOL0     H21202   7.784   2.716   8.118 -0.0333 -0.3266  1.6999
  161MOL0     H21203   7.973   2.487   8.079 -1.2798 -0.7585 -0.2663
  161MOL0     H21204   7.991   2.600   8.212  3.2927 -2.2927 -1.2566
  161MOL0     H21205   8.068   2.834   8.177 -3.7076 -3.7747  1.1781
  161MOL0     H21206   8.327   2.950   8.074  1.6757  0.7830 -1.1133
  161MOL0     H21207   8.214   3.061   7.990 -3.3667 -0.6144 -0.0657
  161MOL0     H21208   8.321   2.958   7.771 -0.4570  3.1311  0.3119
  161MOL0     H21209   8.440   2.871   7.877 -1.1212  0.1641  1.7423
  161MOL0     H21210   8.423   3.156   7.836 -1.5251  0.0204  1.8384
  161MOL0     H21211   8.525   3.089   7.974 -1.2433  4.3092  0.4153
  161MOL0     H21212   8.632   2.941   7.792  2.1254  0.5063 -1.4460
  161MOL0     H21213   8.670   3.110   7.804 -1.9530 -0.2030  2.5170
  161MOL0     H21214   8.529   2.800   7.645  1.9244 -0.2906  0.2517
  161MOL0     H21215   8.666   2.642   7.499 -0.2233  0.2009  0.6781
  161MOL0     H21216   8.969   2.675   7.012  0.4205  3.5407  0.1624
  161MOL0     H21217   9.130   2.504   6.944 -0.3831  1.5383 -0.8797
  161MOL0     H21218   9.184   2.291   7.035 -0.7488 -1.2204 -3.3946
  161MOL0     H21219   9.336   2.205   7.039 -0.1564  1.0453  3.0737
  161MOL0     H21220   9.237   2.362   6.804 -0.2888  1.9295  1.3800
  161MOL0     H21221   9.284   2.196   6.832  2.8774 -0.1079  0.1392
  161MOL0     H21222   9.517   2.243   6.887 -1.7195 -0.7985  2.3980
  161MOL0     H21223   9.481   2.414   6.861 -0.1202 -1.2119  1.8589
  161MOL0     H21224   9.451   2.216   6.633 -1.4495  0.5424  0.0137
  161MOL0     H21225   9.433   2.387   6.620  1.0021 -0.6787 -2.8390
  161MOL0     H21226   9.686   2.213   6.657  0.1088  0.5322 -0.0437
  161MOL0     H21227   9.678   2.370   6.728  0.1837  1.5288 -0.8198
  161MOL0     H21228   9.642   2.486   6.518 -0.5106 -0.7562 -0.6752
  161MOL0     H21229   9.610   2.320   6.438  2.3973 -0.7725 -2.6078
  161MOL0     H21230   9.871   2.419   6.553  3.8694 -4.9340  0.3517
  161MOL0     H21231   9.849   2.266   6.476 -3.4225 -0.4091 -1.1020
  161MOL0     H21232   9.793   2.529   6.343 -2.5269 -1.2047 -2.4083
  161MOL0     H21233   9.807   2.358   6.271  0.3390 -2.1963  2.6611
  161MOL0     H21234   9.350   2.555   7.297 -1.0928 -0.3287  1.2339
  161MOL0     H21235   9.149   2.711   7.388 -3.4307 -1.5367  0.0731
  161MOL0     H21236   8.812   2.997   7.295  1.3818  2.1401  2.1011
  161MOL0     H21237   8.653   3.132   7.434  0.3222  0.1835  1.2323
  161MOL0     H21238   7.017   2.586   7.868  0.1856 -1.0962  0.3018
  161MOL0     H21239   6.806   2.673   7.774 -3.5494  2.2817  0.2419
  161MOL0     H21240   6.339   2.709   7.927 -2.4160  0.4859  0.3608
  161MOL0     H21241   6.130   2.720   7.799  1.0035 -0.4305  2.8692
  161MOL0     H21242   6.121   3.039   7.627 -2.5411  2.1873  1.9613
  161MOL0     H21243   5.950   2.991   7.623 -0.5697 -1.0620 -0.5606
  161MOL0     H21244   6.138   3.052   7.371 -0.0861  3.7822  0.8081
  161MOL0     H21245   5.981   2.975   7.369  1.7950 -1.8889  1.7052
  161MOL0     H21246   6.056   3.234   7.344  0.2555 -3.8650 -1.7545
  161MOL0     H21247   6.018   3.234   7.522  0.2890 -0.4259  0.5694
  161MOL0     H21248   5.817   3.153   7.300 -0.6826  0.5020 -0.2716
  161MOL0     H21249   5.799   3.157   7.481 -0.6316  2.5341 -0.7499
  161MOL0     H21250   5.784   3.564   7.392 -3.0427  0.1108 -2.6920
  161MOL0     H21251   6.308   2.907   7.469  1.7865 -2.6458 -1.1147
  161MOL0     H21252   6.519   2.865   7.558 -2.2984 -2.7326 -4.7553
  162MOL0     O21253   7.055   5.499   7.591  0.1864  0.3334 -0.3554
  162MOL0     C21254   7.161   5.489   7.651  0.8801 -1.1873 -0.2723
  162MOL0     O21255   7.170   5.460   7.784 -0.3201 -0.0294  0.0515
  162MOL0     C21256   7.061   5.463   7.864  0.8474 -0.1253  0.1139
  162MOL0     C21257   7.019   5.582   7.922 -0.2849  0.0270  1.2711
  162MOL0     C21258   6.912   5.597   8.011 -0.2007  0.2978  0.0388
  162MOL0     C21259   6.838   5.490   8.053 -0.1658  0.9275 -0.3337
  162MOL0     O21260   6.737   5.491   8.142  0.3699 -0.0912 -1.1388
  162MOL0     C21261   6.665   5.618   8.169 -0.1651 -1.2072  0.1046
  162MOL0     C21262   6.554   5.594   8.264  0.7760 -1.3254  1.1536
  162MOL0     C21263   6.440   5.512   8.185  0.6728 -0.7629 -0.0272
  162MOL0     C21264   6.316   5.497   8.266 -0.2895 -0.7330  0.0419
  162MOL0     C21265   6.182   5.481   8.192 -0.4840  0.6469 -0.0762
  162MOL0     C21266   6.183   5.389   8.079 -0.5447  0.6695  0.9270
  162MOL0     C21267   6.046   5.315   8.051  0.4471  0.2402 -1.0067
  162MOL0     C21268   5.921   5.388   8.044 -0.4666  0.1202 -1.2457
  162MOL0     N21269   5.908   5.476   7.928 -0.2074 -0.0172  0.1780
  162MOL0     C21270   5.815   5.456   7.829  0.3846  0.3255 -0.5655
  162MOL0     C21271   5.820   5.562   7.743 -0.2947  0.2406  0.1115
  162MOL0     C21272   5.746   5.604   7.621 -0.3157  0.1714  0.2627
  162MOL0     C21273   5.686   5.479   7.546 -0.0997  0.1623 -0.7461
  162MOL0     C21274   5.641   5.503   7.399 -0.5385  1.5374  0.3237
  162MOL0     C21275   5.531   5.607   7.391 -0.0105  0.5158 -0.6262
  162MOL0     O21276   5.425   5.584   7.481  0.6135  0.7340  0.7838
  162MOL0     C21277   5.300   5.642   7.450  0.0262 -0.2310  0.9228
  162MOL0     C21278   5.192   5.602   7.537  0.3571 -0.0110  1.1248
  162MOL0     C21279   5.054   5.634   7.500 -1.3165 -0.0796  0.2164
  162MOL0     C21280   5.039   5.723   7.386  0.2763  0.1316 -0.2061
  162MOL0     C21281   4.904   5.771   7.356 -0.6455  0.3393  0.2007
  162MOL0     O21282   4.802   5.701   7.407  0.3095 -0.7464  0.8692
  162MOL0     C21283   4.666   5.745   7.398  0.1923 -0.0677  0.7687
  162MOL0     C21284   4.619   5.880   7.378 -0.0800  0.0592 -0.8892
  162MOL0     C21285   4.483   5.908   7.386 -0.7216  0.1417 -0.8267
  162MOL0     C21286   4.386   5.806   7.386  0.1961  0.2819  0.9223
  162MOL0     O21287   4.255   5.847   7.377  0.3776  0.6923  0.1052
  162MOL0     C21288   4.170   5.771   7.460  0.3833  0.4163  0.0587
  162MOL0     C21289   4.030   5.833   7.461 -0.4252 -0.0721 -0.0588
  162MOL0     C21290   3.930   5.758   7.544 -0.0369  0.2652  0.0356
  162MOL0     C21291   3.788   5.818   7.533  0.4997 -0.0176 -0.5247
  162MOL0     C21292   3.686   5.764   7.635  0.3060 -0.0944  0.0303
  162MOL0     C21293   3.546   5.834   7.631  0.3696 -0.9300  0.9385
  162MOL0     C21294   3.465   5.792   7.756 -0.0882 -0.2235  0.1107
  162MOL0     C21295   3.309   5.812   7.740 -0.0245  0.5433  0.7529
  162MOL0    Cl21296   3.215   5.772   7.891  0.2217 -0.0736 -0.2008
  162MOL0     C21297   4.423   5.668   7.389 -0.1350  0.5947  0.1661
  162MOL0     C21298   4.563   5.646   7.405 -0.1602 -0.1159  0.3864
  162MOL0     O21299   4.889   5.862   7.272 -0.5541  0.3467  0.4577
  162MOL0     C21300   5.149   5.771   7.313  0.0942 -0.8217  0.0189
  162MOL0     C21301   5.281   5.731   7.341 -0.7022  0.1792  0.7864
  162MOL0     N21302   5.917   5.646   7.799  1.0355 -0.0096 -0.5601
  162MOL0     N21303   5.978   5.590   7.897  0.4906 -0.6733  0.0088
  162MOL0     C21304   6.870   5.364   7.992  0.4813 -0.5365  0.6263
  162MOL0     C21305   6.989   5.350   7.907  1.5342 -0.3137  0.5260
  162MOL0     C21306   7.290   5.498   7.577  0.4629 -0.6396  1.0426
  162MOL0     C21307   7.303   5.453   7.447 -0.7488  0.1455  0.4326
  162MOL0     C21308   7.429   5.457   7.382 -0.2514  0.8530 -0.3289
  162MOL0     C21309   7.538   5.533   7.438  0.5644  0.4902 -0.0961
  162MOL0     O21310   7.663   5.560   7.387 -0.2405 -0.5825  0.1885
  162MOL0     C21311   7.689   5.515   7.251  0.7154  0.9093 -0.4823
  162MOL0     C21312   7.811   5.593   7.199 -0.5024  0.9213 -0.4611
  162MOL0     C21313   7.937   5.549   7.259 -0.1319 -0.0510  0.2774
  162MOL0     C21314   8.052   5.634   7.211  0.5095 -0.5349  0.2838
  162MOL0     C21315   8.111   5.581   7.091  0.4258  0.4416  0.6332
  162MOL0     C21316   8.140   5.554   6.976 -1.3617  0.9124  0.7818
  162MOL0     C21317   7.524   5.575   7.567  0.4531 -0.2837  1.1201
  162MOL0     C21318   7.404   5.549   7.637  0.7880  0.6214 -0.6915
  162MOL0     H21319   7.082   5.667   7.899  0.8288 -1.6906 -2.7704
  162MOL0     H21320   6.895   5.696   8.052  1.2886  0.2604  0.7900
  162MOL0     H21321   6.638   5.655   8.070  0.9041 -2.1350 -0.5486
  162MOL0     H21322   6.723   5.695   8.220 -1.9565  0.3594 -0.0968
  162MOL0     H21323   6.514   5.693   8.288 -3.3680 -2.3278 -0.6461
  162MOL0     H21324   6.585   5.548   8.359 -2.7502 -2.1385  2.0808
  162MOL0     H21325   6.476   5.416   8.148  0.8446 -0.0182 -1.9319
  162MOL0     H21326   6.408   5.573   8.100 -2.7065 -2.8724 -0.4513
  162MOL0     H21327   6.331   5.407   8.327  3.7307 -1.1802 -1.2679
  162MOL0     H21328   6.302   5.577   8.339 -1.8607 -0.9425  0.0057
  162MOL0     H21329   6.159   5.582   8.157 -3.4641 -0.3126 -1.2179
  162MOL0     H21330   6.110   5.440   8.264 -1.1461 -2.3346 -2.2307
  162MOL0     H21331   6.263   5.316   8.096  0.5890  1.9884  1.4588
  162MOL0     H21332   6.215   5.452   7.997  0.0387 -1.9000 -0.9598
  162MOL0     H21333   6.054   5.277   7.948 -1.7426  1.2845 -1.6397
  162MOL0     H21334   6.038   5.229   8.117  2.4361  0.0792 -0.9120
  162MOL0     H21335   5.901   5.450   8.133  2.8433  0.3395 -0.5107
  162MOL0     H21336   5.839   5.316   8.038 -1.3636  1.0331 -0.3621
  162MOL0     H21337   5.740   5.378   7.820  1.8767 -1.4938  1.6216
  162MOL0     H21338   5.829   5.654   7.569  0.7818 -1.2690  0.5432
  162MOL0     H21339   5.668   5.676   7.643  2.2125  2.9457  0.7336
  162MOL0     H21340   5.604   5.435   7.603  0.7108 -0.0362  0.2972
  162MOL0     H21341   5.755   5.394   7.544 -0.7130 -0.3683  0.0550
  162MOL0     H21342   5.724   5.520   7.330 -0.3021  0.9624  0.4658
  162MOL0     H21343   5.591   5.411   7.369  0.6209  0.3975  1.7552
  162MOL0     H21344   5.495   5.607   7.288  1.2703  2.4862 -1.1134
  162MOL0     H21345   5.569   5.704   7.423 -0.4339 -0.3839  3.1371
  162MOL0     H21346   5.225   5.533   7.614  0.1693 -2.0981 -0.5541
  162MOL0     H21347   4.970   5.590   7.552  1.4695 -0.7847  4.6307
  162MOL0     H21348   4.688   5.963   7.380  2.7643 -2.0770 -2.7167
  162MOL0     H21349   4.429   6.002   7.384 -1.0475 -0.0467 -1.0242
  162MOL0     H21350   4.207   5.756   7.562  0.5875 -0.1782 -0.0997
  162MOL0     H21351   4.163   5.667   7.427 -2.1065 -0.2702  2.3754
  162MOL0     H21352   3.996   5.825   7.357  1.5254 -0.8510 -0.6863
  162MOL0     H21353   4.049   5.939   7.481  3.0453 -0.9021  1.8165
  162MOL0     H21354   3.949   5.754   7.651 -3.4792 -0.3984  0.7604
  162MOL0     H21355   3.934   5.655   7.508 -0.0607 -0.9232  3.2048
  162MOL0     H21356   3.804   5.924   7.553 -0.7637 -0.4531  3.7125
  162MOL0     H21357   3.755   5.809   7.429  0.5930 -2.6850 -0.4013
  162MOL0     H21358   3.734   5.779   7.732  0.9388  1.5436 -0.4929
  162MOL0     H21359   3.675   5.657   7.620 -2.2768 -0.3358  2.6953
  162MOL0     H21360   3.501   5.800   7.538  2.3710 -0.8196 -0.1168
  162MOL0     H21361   3.563   5.942   7.629 -2.6999 -0.3627 -0.4412
  162MOL0     H21362   3.487   5.688   7.783  2.2929  0.0437 -0.6074
  162MOL0     H21363   3.501   5.869   7.826 -3.0063  1.5081 -0.1528
  162MOL0     H21364   3.273   5.752   7.656  0.3338  2.2485 -0.6787
  162MOL0     H21365   3.286   5.915   7.710 -0.3668  0.2195 -0.1270
  162MOL0     H21366   4.363   5.577   7.389  1.1487 -0.2847 -0.3404
  162MOL0     H21367   4.615   5.551   7.411 -1.7866 -1.0379  0.3454
  162MOL0     H21368   5.132   5.844   7.234  3.9744 -3.0227 -3.2634
  162MOL0     H21369   5.365   5.764   7.281 -2.7418  0.7260 -1.9184
  162MOL0     H21370   6.812   5.277   8.020 -0.1376 -0.0640  0.8377
  162MOL0     H21371   7.011   5.247   7.881 -1.8325 -1.1621  0.5067
  162MOL0     H21372   7.221   5.393   7.410 -0.5168 -0.0930  0.3013
  162MOL0     H21373   7.455   5.417   7.284  0.7196  1.8225 -0.4820
  162MOL0     H21374   7.611   5.541   7.179  0.5268 -2.1425 -1.4961
  162MOL0     H21375   7.697   5.406   7.248 -1.6198  0.6837 -0.5496
  162MOL0     H21376   7.808   5.568   7.092 -3.2317 -1.4643  0.0619
  162MOL0     H21377   7.786   5.699   7.214 -1.6104  0.9022 -1.9079
  162MOL0     H21378   7.957   5.444   7.233  2.0548  0.7849 -1.8182
  162MOL0     H21379   7.934   5.554   7.368 -1.2719  1.7719  0.2010
  162MOL0     H21380   8.031   5.739   7.189  2.1715 -0.4325 -1.0541
  162MOL0     H21381   8.138   5.629   7.278  0.5442  0.9038  0.3876
  162MOL0     H21382   8.168   5.540   6.873  0.5636 -0.0283  1.3834
  162MOL0     H21383   7.600   5.626   7.625 -0.0810  0.8633  0.8438
  162MOL0     H21384   7.401   5.578   7.742 -4.4465  4.0400 -1.3666
  163MOL0     O21385   5.452   8.537   9.662  0.5974 -0.3351 -0.8163
  163MOL0     C21386   5.539   8.586   9.730 -0.1389 -0.0526 -0.3982
  163MOL0     O21387   5.667   8.546   9.727 -0.9559 -0.0579 -0.1898
  163MOL0     C21388   5.727   8.480   9.622  0.3135  0.8334  0.9757
  163MOL0     C21389   5.692   8.500   9.490  0.8698  1.0992  0.4766
  163MOL0     C21390   5.737   8.420   9.379 -0.5110  0.3669  0.2927
  163MOL0     C21391   5.845   8.340   9.404 -0.0643 -0.2232 -0.6713
  163MOL0     O21392   5.909   8.269   9.302  0.4954 -0.1318 -0.0837
  163MOL0     C21393   5.849   8.268   9.167 -0.5728  0.1780 -0.2882
  163MOL0     C21394   5.963   8.200   9.081  0.3579 -1.3250  0.3527
  163MOL0     C21395   5.998   8.055   9.107  0.3925 -0.1700 -0.6324
  163MOL0     C21396   5.874   7.962   9.122 -0.2588 -0.2017  0.2870
  163MOL0     C21397   5.768   7.971   9.010 -0.1617 -0.1208 -0.5862
  163MOL0     C21398   5.812   7.940   8.867 -0.1876  0.0953  0.6482
  163MOL0     C21399   5.846   7.791   8.851  0.2503 -0.1071  0.1420
  163MOL0     C21400   5.867   7.757   8.700 -0.0720 -1.0019 -1.0462
  163MOL0     N21401   5.869   7.612   8.671  1.0265  0.4204  0.2756
  163MOL0     C21402   5.964   7.528   8.724  1.2499  0.4448  0.8538
  163MOL0     C21403   5.932   7.409   8.663 -0.3027  0.1353 -0.2755
  163MOL0     C21404   6.004   7.283   8.702 -0.8045  0.1293  0.1311
  163MOL0     C21405   6.131   7.284   8.623 -0.6523  0.4026 -0.1958
  163MOL0     C21406   6.229   7.409   8.625 -0.9079  0.6545  0.0155
  163MOL0     C21407   6.320   7.427   8.763 -0.0100 -0.5282  0.3213
  163MOL0     O21408   6.314   7.570   8.773  0.2215 -0.1454  0.1867
  163MOL0     C21409   6.378   7.629   8.874  0.1390  0.2431 -0.7098
  163MOL0     C21410   6.380   7.761   8.868 -0.0045  0.8874 -0.6558
  163MOL0     C21411   6.471   7.828   8.951  0.1221  0.0484 -0.1456
  163MOL0     C21412   6.545   7.767   9.054  0.8546 -0.4609  0.1595
  163MOL0     C21413   6.655   7.828   9.138  0.5187 -0.1480  0.0107
  163MOL0     O21414   6.739   7.750   9.208  0.3295 -0.1701 -0.6342
  163MOL0     C21415   6.816   7.802   9.305  0.8963  0.1028  0.7944
  163MOL0     C21416   6.944   7.754   9.285  0.3629  0.2279 -0.1782
  163MOL0     C21417   7.040   7.801   9.380 -0.3927 -0.9822 -0.9757
  163MOL0     C21418   6.995   7.900   9.487 -0.2607 -0.3022  0.3690
  163MOL0     O21419   7.091   7.956   9.571  0.2475  0.4813  0.7361
  163MOL0     C21420   7.120   8.084   9.523 -0.9918 -0.7186  0.1990
  163MOL0     C21421   7.247   8.118   9.602  0.3372  0.3956 -0.0782
  163MOL0     C21422   7.362   8.009   9.601 -0.5996 -0.3956  0.1678
  163MOL0     C21423   7.506   8.076   9.615 -0.1479  0.5911  0.8459
  163MOL0     C21424   7.602   7.963   9.652 -0.4097  0.6583 -0.4265
  163MOL0     C21425   7.742   8.013   9.655 -0.5051  1.1772  0.0011
  163MOL0     C21426   7.852   7.902   9.650 -0.3024 -0.7302 -1.0002
  163MOL0     C21427   7.841   7.825   9.783 -0.2130 -0.1245 -0.8568
  163MOL0    Cl21428   7.886   7.938   9.917 -0.4364  0.0176  0.4845
  163MOL0     C21429   6.859   7.939   9.506  0.6804 -0.0529 -0.0537
  163MOL0     C21430   6.777   7.898   9.406  0.1839  0.6064  0.6632
  163MOL0     O21431   6.647   7.950   9.147 -0.3462  0.5902 -0.4078
  163MOL0     C21432   6.527   7.629   9.064  0.2241 -0.3616 -0.2576
  163MOL0     C21433   6.445   7.560   8.976 -0.6593 -0.1769  0.1682
  163MOL0     N21434   5.830   7.424   8.569  0.4015 -0.3196 -0.2811
  163MOL0     N21435   5.791   7.548   8.579  0.0668 -0.3232 -0.2632
  163MOL0     C21436   5.892   8.325   9.538 -0.1964  0.0805 -0.4802
  163MOL0     C21437   5.842   8.400   9.647  0.6902 -0.4581 -0.3533
  163MOL0     C21438   5.517   8.705   9.798  0.6080 -0.1698 -0.7073
  163MOL0     C21439   5.626   8.759   9.882  1.3177  0.2830 -0.1078
  163MOL0     C21440   5.625   8.890   9.933 -0.8468 -0.7426  0.0730
  163MOL0     C21441   5.514   8.975   9.913 -0.0382  0.8268  1.0949
  163MOL0     O21442   5.514   9.115   9.916  0.2065  0.1473 -1.2953
  163MOL0     C21443   5.635   9.177   9.870  0.6398 -0.0546  0.4516
  163MOL0     C21444   5.609   9.316   9.941 -0.5620  0.1359 -0.1396
  163MOL0     C21445   5.733   9.412   9.921  0.4558 -0.8374  0.9739
  163MOL0     C21446   5.862   9.345   9.981 -0.6592 -0.6791 -1.1494
  163MOL0     C21447   5.950   9.443  10.057  0.0638 -0.1909  0.7426
  163MOL0     C21448   6.033   9.524  10.098  0.5369 -0.1506 -1.1014
  163MOL0     C21449   5.402   8.924   9.851  0.7817 -0.1530  0.3527
  163MOL0     C21450   5.400   8.796   9.789 -0.1034  0.9158 -0.2326
  163MOL0     H21451   5.624   8.584   9.474 -0.9745 -0.4626 -0.3635
  163MOL0     H21452   5.695   8.454   9.285 -0.3472 -0.8639 -0.2383
  163MOL0     H21453   5.831   8.368   9.127  0.2731 -0.2058 -1.6801
  163MOL0     H21454   5.757   8.209   9.173 -1.4147  1.5214  0.5130
  163MOL0     H21455   6.054   8.261   9.083 -2.0402  2.6095  0.1944
  163MOL0     H21456   5.934   8.208   8.976 -0.2157  0.5440  0.6096
  163MOL0     H21457   6.054   8.049   9.201  2.0892 -0.0009 -1.5828
  163MOL0     H21458   6.071   8.015   9.035 -0.7535 -3.5414 -0.0996
  163MOL0     H21459   5.899   7.861   9.155 -3.2254 -0.2942  2.7044
  163MOL0     H21460   5.828   7.994   9.216  2.1670  0.3586  1.3608
  163MOL0     H21461   5.722   8.067   8.987 -3.0738 -1.9771 -3.3536
  163MOL0     H21462   5.683   7.906   9.035 -0.0237 -0.5205 -1.1283
  163MOL0     H21463   5.897   8.000   8.835 -0.7821  0.8970  0.5561
  163MOL0     H21464   5.734   7.967   8.795  0.6219 -0.3370 -0.4183
  163MOL0     H21465   5.942   7.772   8.900  0.2760  2.4811  1.2749
  163MOL0     H21466   5.770   7.721   8.887  1.2957 -1.0239  0.6440
  163MOL0     H21467   5.960   7.796   8.660  0.4801 -1.4138 -0.1847
  163MOL0     H21468   5.780   7.802   8.650 -1.5466 -2.5464  0.0051
  163MOL0     H21469   6.023   7.549   8.813  1.3324  1.1823  0.6395
  163MOL0     H21470   5.947   7.204   8.653 -1.1281  0.1317  0.5040
  163MOL0     H21471   6.015   7.259   8.808 -2.1336 -2.1410 -0.1777
  163MOL0     H21472   6.105   7.252   8.522 -0.1499  0.6620 -0.4151
  163MOL0     H21473   6.199   7.204   8.653  0.9592  0.8384 -2.4297
  163MOL0     H21474   6.301   7.404   8.544  1.1074 -1.2869  1.8017
  163MOL0     H21475   6.185   7.508   8.607  2.1478  1.8206 -1.7281
  163MOL0     H21476   6.423   7.396   8.746 -0.1716 -0.5354 -0.6931
  163MOL0     H21477   6.280   7.362   8.842 -0.9209 -0.2500  0.0997
  163MOL0     H21478   6.336   7.815   8.785  0.5784  1.4778 -0.5945
  163MOL0     H21479   6.474   7.936   8.940 -0.6992 -0.0776 -2.1494
  163MOL0     H21480   6.964   7.680   9.208 -1.1198  1.7599 -2.1643
  163MOL0     H21481   7.141   7.761   9.390 -0.4640 -0.9650 -0.1081
  163MOL0     H21482   7.039   8.147   9.560  0.6796 -0.7793  4.4734
  163MOL0     H21483   7.127   8.093   9.414  1.1454  0.3543  0.3843
  163MOL0     H21484   7.222   8.137   9.707 -1.5160 -2.9513  0.2320
  163MOL0     H21485   7.282   8.213   9.560  0.9006 -0.4276 -1.5266
  163MOL0     H21486   7.357   7.957   9.505  1.1550  1.8779 -1.2646
  163MOL0     H21487   7.340   7.929   9.671 -0.2385 -1.9977 -1.4677
  163MOL0     H21488   7.542   8.123   9.523  2.4927 -0.3161  1.3275
  163MOL0     H21489   7.511   8.155   9.691 -1.4937  1.0955  0.4546
  163MOL0     H21490   7.593   7.886   9.575 -3.7624  1.9038 -1.4510
  163MOL0     H21491   7.578   7.914   9.747 -0.9878 -1.4490 -1.6004
  163MOL0     H21492   7.757   8.080   9.740  1.4934 -0.6657  1.1942
  163MOL0     H21493   7.778   8.077   9.573 -2.9692  0.1369 -2.0569
  163MOL0     H21494   7.843   7.831   9.567  1.3494 -3.7539  1.2265
  163MOL0     H21495   7.951   7.949   9.647  0.0887 -1.3571  1.0110
  163MOL0     H21496   7.905   7.736   9.783  1.7292  1.2119 -0.3191
  163MOL0     H21497   7.739   7.787   9.792  0.2307 -0.9617  1.0689
  163MOL0     H21498   6.823   7.990   9.594 -2.8292 -3.8383  1.0300
  163MOL0     H21499   6.683   7.951   9.397  0.6458  1.1592 -1.5117
  163MOL0     H21500   6.586   7.561   9.124  1.3442  0.6450 -0.2039
  163MOL0     H21501   6.458   7.452   8.973  0.1800 -0.0698 -1.2917
  163MOL0     H21502   5.977   8.261   9.557  1.6087  2.2924 -0.6383
  163MOL0     H21503   5.892   8.399   9.743  2.7683  0.2176 -1.3773
  163MOL0     H21504   5.722   8.712   9.900  2.9537  3.6055  0.6134
  163MOL0     H21505   5.715   8.924   9.981 -0.3665  3.0859 -3.0086
  163MOL0     H21506   5.623   9.182   9.761 -3.0248 -0.5665  0.6899
  163MOL0     H21507   5.726   9.134   9.912  0.2113 -1.0724  0.3667
  163MOL0     H21508   5.519   9.353   9.891  1.4565  3.0853 -1.9173
  163MOL0     H21509   5.588   9.290  10.045 -1.7795 -2.6832 -0.9765
  163MOL0     H21510   5.717   9.500   9.984  4.7394  3.1883 -2.8660
  163MOL0     H21511   5.752   9.443   9.818  1.9792  1.4570  1.8667
  163MOL0     H21512   5.831   9.261  10.046 -0.0682 -0.8367 -1.0696
  163MOL0     H21513   5.931   9.304   9.907  0.4461 -2.2541  0.6604
  163MOL0     H21514   6.114   9.587  10.131  1.7626 -0.9913 -2.3931
  163MOL0     H21515   5.311   8.983   9.851 -1.1635 -2.7549 -2.7192
  163MOL0     H21516   5.312   8.763   9.735 -0.7013  1.0201  0.6704
  164MOL0     O21517   9.941   7.222   9.914  0.4689 -0.2192 -0.6169
  164MOL0     C21518   9.938   7.149   9.820  0.6045  0.3026  0.0878
  164MOL0     O21519   9.828   7.079   9.783  0.6821 -0.1644  0.5547
  164MOL0     C21520   9.701   7.088   9.841 -0.9299 -0.9841  0.1394
  164MOL0     C21521   9.622   6.982   9.850  0.2154 -0.0435  0.0154
  164MOL0     C21522   9.494   6.990   9.906  0.3622 -1.1325 -0.1223
  164MOL0     C21523   9.448   7.108   9.979  0.5890 -0.0972 -0.1101
  164MOL0     O21524   9.331   7.099  10.051  0.8715 -0.1226  0.1926
  164MOL0     C21525   9.275   7.212  10.121 -0.2523 -0.4714  0.6737
  164MOL0     C21526   9.129   7.172  10.172 -0.9138 -0.1268  0.3196
  164MOL0     C21527   9.134   7.124  10.319 -0.4198  0.3036 -0.2730
  164MOL0     C21528   9.192   6.985  10.344 -0.3735  0.4158 -0.0849
  164MOL0     C21529   9.123   6.879  10.258 -0.3966  0.1971  0.4713
  164MOL0     C21530   8.971   6.859  10.278  0.0539  0.2990  0.1677
  164MOL0     C21531   8.914   6.760  10.173 -0.0408  0.5989 -0.0123
  164MOL0     C21532   8.872   6.627  10.233 -0.1651 -0.0063  1.0819
  164MOL0     N21533   8.863   6.528  10.123  0.1564 -0.2874 -0.9182
  164MOL0     C21534   8.744   6.459  10.095  0.4167 -0.4208  0.3370
  164MOL0     C21535   8.780   6.348  10.027  0.4709 -0.2580  0.0561
  164MOL0     C21536   8.705   6.226   9.992  0.0490  0.4857 -0.4650
  164MOL0     C21537   8.704   6.205   9.843 -0.6164  0.9083 -0.6713
  164MOL0     C21538   8.635   6.075   9.812  1.0150  0.6565  0.1590
  164MOL0     C21539   8.483   6.055   9.858  0.3080  0.3728  0.4002
  164MOL0     O21540   8.445   5.922   9.830  0.2801  0.5042  1.0147
  164MOL0     C21541   8.326   5.889   9.866 -0.3140  0.6382 -0.5954
  164MOL0     C21542   8.297   5.768   9.935 -0.7647  0.4218 -0.1784
  164MOL0     C21543   8.160   5.735   9.967  0.2203  1.4108  0.4388
  164MOL0     C21544   8.051   5.808   9.908 -0.4781  0.1432 -0.1563
  164MOL0     C21545   7.909   5.773   9.951  0.5250 -0.5605  0.8028
  164MOL0     O21546   7.809   5.845   9.893 -0.2908  0.4210 -0.3229
  164MOL0     C21547   7.676   5.846   9.914 -0.1670  0.0258 -0.3595
  164MOL0     C21548   7.608   5.755   9.999 -0.2012  0.8205  0.7046
  164MOL0     C21549   7.466   5.750  10.003  1.0052  0.9702 -0.5546
  164MOL0     C21550   7.399   5.853   9.936 -0.2011  0.5163 -0.1212
  164MOL0     O21551   7.262   5.869   9.947 -0.6312  0.5051 -0.0544
  164MOL0     C21552   7.189   5.803  10.048  0.5646 -0.3038 -1.2787
  164MOL0     C21553   7.060   5.883  10.074 -0.6558  0.2883  0.4051
  164MOL0     C21554   7.010   5.837  10.205  0.1939  0.7422  0.9725
  164MOL0     C21555   6.875   5.895  10.247 -0.6435  0.6736  1.0365
  164MOL0     C21556   6.886   6.050  10.250 -0.0518  1.0193 -0.6279
  164MOL0     C21557   7.002   6.085  10.344  0.9040 -1.0278 -0.1429
  164MOL0     C21558   6.989   6.232  10.386 -0.1283  0.4539  0.1808
  164MOL0     C21559   6.998   6.348  10.283  0.1133  0.3641  0.3871
  164MOL0    Cl21560   7.158   6.338  10.215  0.0303  0.2715 -0.1095
  164MOL0     C21561   7.475   5.933   9.843  0.2864  0.6036  0.0699
  164MOL0     C21562   7.615   5.939   9.838  0.0331  0.2520 -0.0324
  164MOL0     O21563   7.888   5.689  10.039  0.0357 -0.3662  0.5099
  164MOL0     C21564   8.081   5.909   9.826  0.4385 -0.0631  0.1058
  164MOL0     C21565   8.215   5.947   9.804 -0.3333  0.7033 -0.2312
  164MOL0     N21566   8.918   6.347  10.022  0.0805 -0.2453  0.1505
  164MOL0     N21567   8.963   6.456  10.077  0.1339  0.6015 -0.4607
  164MOL0     C21568   9.540   7.216   9.986  0.3696  0.1591  0.1237
  164MOL0     C21569   9.663   7.206   9.910  0.4200 -0.5584  1.3216
  164MOL0     C21570  10.056   7.123   9.729  0.3929 -0.4992 -0.8384
  164MOL0     C21571  10.182   7.190   9.740  0.2163 -0.1024 -0.0819
  164MOL0     C21572  10.287   7.148   9.664 -0.7754 -1.0355 -0.5662
  164MOL0     C21573  10.271   7.043   9.563 -1.4947  0.3672 -0.7208
  164MOL0     O21574  10.365   6.982   9.485  0.1409  0.3502  0.0755
  164MOL0     C21575  10.505   7.021   9.514 -0.5243 -0.0151 -0.5351
  164MOL0     C21576  10.587   6.920   9.432 -0.8168  0.8672  0.7839
  164MOL0     C21577  10.736   6.891   9.488 -0.0897  0.4305 -0.5700
  164MOL0     C21578  10.815   6.796   9.395  0.1456 -0.6106  0.5886
  164MOL0     C21579  10.954   6.805   9.439 -0.1984  0.5742 -0.3238
  164MOL0     C21580  11.058   6.811   9.504  0.8054 -0.0262 -0.7903
  164MOL0     C21581  10.139   6.990   9.550 -0.2119  0.3400  0.9668
  164MOL0     C21582  10.030   7.024   9.629 -0.1170  0.7076  0.4920
  164MOL0     H21583   9.633   6.892   9.790 -1.6741 -1.4879  1.6911
  164MOL0     H21584   9.426   6.906   9.895 -0.4094 -1.0027  2.9545
  164MOL0     H21585   9.263   7.299  10.056  0.9286 -0.4828  0.4148
  164MOL0     H21586   9.340   7.227  10.207  0.5841  1.8472 -0.2825
  164MOL0     H21587   9.084   7.107  10.096 -0.3148 -2.1309  1.6029
  164MOL0     H21588   9.080   7.270  10.164  0.5100  0.4833 -1.8822
  164MOL0     H21589   9.037   7.117  10.369  0.5709 -0.9938  1.6004
  164MOL0     H21590   9.188   7.202  10.373  0.2610 -0.5682  0.3456
  164MOL0     H21591   9.298   6.978  10.319  0.0286  3.7252  0.1462
  164MOL0     H21592   9.168   6.965  10.449 -2.6908  0.6074 -0.5112
  164MOL0     H21593   9.181   6.786  10.267  1.0496  0.8733 -1.2211
  164MOL0     H21594   9.149   6.905  10.155 -0.3478 -1.4803  0.0203
  164MOL0     H21595   8.917   6.953  10.274  0.7494  0.6607 -1.3158
  164MOL0     H21596   8.961   6.825  10.382 -0.1467  0.0887  0.0820
  164MOL0     H21597   8.834   6.816  10.124  0.2058  2.5015  1.6216
  164MOL0     H21598   8.992   6.749  10.097 -0.8466 -2.1907 -0.5420
  164MOL0     H21599   8.786   6.654  10.295  1.2479 -0.6098  3.4272
  164MOL0     H21600   8.948   6.586  10.300 -1.7297 -0.5783  2.5590
  164MOL0     H21601   8.642   6.484  10.121 -1.4079 -1.8970 -4.2387
  164MOL0     H21602   8.602   6.239  10.027  0.9124  1.0034  2.1061
  164MOL0     H21603   8.758   6.151  10.052  0.8335  1.4907  0.1090
  164MOL0     H21604   8.809   6.210   9.812 -0.3534  3.5081  0.3571
  164MOL0     H21605   8.658   6.286   9.784 -0.5099 -0.5851 -2.9234
  164MOL0     H21606   8.632   6.082   9.703  2.0263  4.1335  0.2460
  164MOL0     H21607   8.682   5.983   9.850  1.8390  0.6186 -0.9276
  164MOL0     H21608   8.423   6.125   9.799 -0.0026 -0.7797 -0.7146
  164MOL0     H21609   8.464   6.073   9.964 -1.3391  1.4073 -0.0315
  164MOL0     H21610   8.371   5.699   9.974 -1.2268  1.3224  2.5180
  164MOL0     H21611   8.135   5.644  10.021  1.5781 -0.6653 -2.2109
  164MOL0     H21612   7.658   5.668  10.039 -2.3330 -0.7416  0.1353
  164MOL0     H21613   7.403   5.670  10.040  0.0203  3.2733  3.4153
  164MOL0     H21614   7.251   5.805  10.138 -1.2536  0.9205  0.0019
  164MOL0     H21615   7.164   5.699  10.022 -2.1242 -0.2031  0.5208
  164MOL0     H21616   6.981   5.853  10.005  0.0132 -3.2666  0.9481
  164MOL0     H21617   7.083   5.989  10.086 -1.1234  0.9652 -3.4985
  164MOL0     H21618   7.093   5.850  10.276  2.4072  0.1598 -1.3854
  164MOL0     H21619   6.995   5.729  10.203  3.9819  0.0982  1.0396
  164MOL0     H21620   6.799   5.883  10.169  2.2022 -2.1104 -1.6238
  164MOL0     H21621   6.843   5.860  10.346  2.2345 -1.0156  1.4833
  164MOL0     H21622   6.793   6.089  10.294 -0.2412 -0.2269  0.1295
  164MOL0     H21623   6.901   6.084  10.147  2.2996 -1.7755 -1.3206
  164MOL0     H21624   7.099   6.089  10.292  0.5675 -0.1360 -0.7202
  164MOL0     H21625   6.998   6.024  10.435  1.6922 -0.8902 -0.0095
  164MOL0     H21626   6.901   6.229  10.450  0.7027 -0.1372  1.3370
  164MOL0     H21627   7.071   6.247  10.457  0.6914  1.3051 -0.8911
  164MOL0     H21628   6.984   6.449  10.322  4.5470  1.3309  0.0352
  164MOL0     H21629   6.925   6.340  10.202  0.4718 -0.3890  0.1232
  164MOL0     H21630   7.405   5.992   9.784 -3.3679 -3.0015  0.3061
  164MOL0     H21631   7.665   5.990   9.757 -1.5109  1.1518 -0.4498
  164MOL0     H21632   7.999   5.959   9.777 -1.3045 -0.2910  2.6361
  164MOL0     H21633   8.229   6.024   9.729  2.9196 -0.9193 -1.4655
  164MOL0     H21634   9.502   7.305  10.035  0.1281 -1.5038  3.2521
  164MOL0     H21635   9.723   7.297   9.912  0.8589 -0.8473  1.3334
  164MOL0     H21636  10.210   7.266   9.813  0.2826  0.4406 -0.6693
  164MOL0     H21637  10.379   7.205   9.669 -2.8942  2.6041  1.0282
  164MOL0     H21638  10.537   7.005   9.617  5.1618 -0.0073 -1.9860
  164MOL0     H21639  10.527   7.123   9.482 -0.2093  0.3888  0.9360
  164MOL0     H21640  10.535   6.824   9.430 -2.1593  1.5750  0.1704
  164MOL0     H21641  10.590   6.966   9.333  0.6274  1.8364  1.2429
  164MOL0     H21642  10.734   6.862   9.594  4.3447 -0.4100 -0.5356
  164MOL0     H21643  10.785   6.989   9.483  0.3708  0.1345 -2.6024
  164MOL0     H21644  10.764   6.699   9.400 -0.6985 -0.1254  2.7773
  164MOL0     H21645  10.821   6.827   9.290 -0.8030 -0.7194  0.4931
  164MOL0     H21646  11.155   6.819   9.550 -0.2294 -1.0002  1.7501
  164MOL0     H21647  10.122   6.918   9.471 -0.1615  2.0125 -0.6370
  164MOL0     H21648   9.942   6.961   9.619 -0.7880  1.7785 -0.6496
  165MOL0     O21649  10.931   9.153  11.331 -0.7274 -0.3282  0.0031
  165MOL0     C21650  10.931   9.202  11.451 -0.0750  0.7506 -0.4456
  165MOL0     O21651  10.833   9.167  11.550  0.3362  0.1988 -0.1113
  165MOL0     C21652  10.745   9.074  11.506 -1.2204  0.3797 -0.0198
  165MOL0     C21653  10.757   8.937  11.535 -0.9864 -1.3862  0.6532
  165MOL0     C21654  10.660   8.853  11.490  0.4911 -0.9989 -0.0590
  165MOL0     C21655  10.552   8.894  11.404  0.3468  0.4904 -0.0638
  165MOL0     O21656  10.467   8.793  11.381 -0.3470  0.3131 -0.2061
  165MOL0     C21657  10.332   8.838  11.363  0.2272  0.6234  0.6787
  165MOL0     C21658  10.246   8.718  11.397  1.3290  0.6106 -0.7649
  165MOL0     C21659  10.099   8.743  11.345 -0.4917 -0.2588 -0.3436
  165MOL0     C21660  10.084   8.710  11.194  0.1172  0.2632 -0.0386
  165MOL0     C21661   9.944   8.751  11.129 -0.9684  0.6856 -0.2372
  165MOL0     C21662   9.930   8.662  10.996  0.1463 -0.3472  0.3062
  165MOL0     C21663   9.810   8.704  10.923  0.4114 -0.2824 -0.5992
  165MOL0     C21664   9.682   8.627  10.970  0.2048 -0.3440 -0.4431
  165MOL0     N21665   9.647   8.514  10.882  0.5042  0.1877  0.6316
  165MOL0     C21666   9.518   8.475  10.854 -0.9594 -0.3496  0.1921
  165MOL0     C21667   9.529   8.356  10.799 -0.2535 -0.1306  0.5636
  165MOL0     C21668   9.418   8.270  10.735  0.1509  0.3558 -0.2349
  165MOL0     C21669   9.284   8.267  10.807 -0.0398 -0.3134 -0.3280
  165MOL0     C21670   9.202   8.162  10.743  0.0750 -0.3844 -0.0546
  165MOL0     C21671   9.084   8.097  10.826 -0.0649  0.0138 -0.9088
  165MOL0     O21672   8.980   8.193  10.853 -0.2989 -0.8467  0.1380
  165MOL0     C21673   8.857   8.162  10.803  0.6686 -0.5666 -1.2913
  165MOL0     C21674   8.748   8.212  10.876 -0.0713 -0.3657  0.0565
  165MOL0     C21675   8.621   8.222  10.824 -0.3289  0.1355  0.2471
  165MOL0     C21676   8.588   8.193  10.692 -0.4056 -0.2023  0.3306
  165MOL0     C21677   8.452   8.227  10.631  0.1306  0.5929 -0.3317
  165MOL0     O21678   8.443   8.243  10.495  0.3652  0.5146 -0.0882
  165MOL0     C21679   8.332   8.266  10.420 -0.4818  0.5206 -0.5511
  165MOL0     C21680   8.199   8.270  10.456 -0.5255  0.0940 -0.4870
  165MOL0     C21681   8.101   8.295  10.361  0.5200 -0.3480  0.3245
  165MOL0     C21682   8.125   8.317  10.230 -0.0233  0.3885  0.3284
  165MOL0     O21683   8.030   8.375  10.149 -0.2069  0.1610  0.4673
  165MOL0     C21684   7.906   8.311  10.127  0.4939  0.6094  1.2783
  165MOL0     C21685   7.811   8.387  10.030 -0.0463 -0.3720 -0.1134
  165MOL0     C21686   7.688   8.299   9.995  0.1705 -0.1319 -0.8581
  165MOL0     C21687   7.555   8.352  10.059 -0.5240 -0.2402 -0.7571
  165MOL0     C21688   7.436   8.298   9.985 -0.8257  0.0316  0.0705
  165MOL0     C21689   7.311   8.348  10.053  0.8252 -0.0200 -0.2032
  165MOL0     C21690   7.177   8.310   9.977 -0.6889  1.0115 -0.6107
  165MOL0     C21691   7.055   8.356  10.049  0.5037 -0.5364  0.0800
  165MOL0    Cl21692   6.914   8.321   9.952  0.2636 -0.0192 -0.3613
  165MOL0     C21693   8.258   8.313  10.190  0.0892 -0.4076  0.4236
  165MOL0     C21694   8.365   8.281  10.284  0.3041 -0.9401  0.1790
  165MOL0     O21695   8.366   8.244  10.719 -0.3854  0.4243 -0.1119
  165MOL0     C21696   8.693   8.123  10.627  0.4109  0.0750 -0.1730
  165MOL0     C21697   8.821   8.120  10.675 -1.1261 -0.5256  0.4658
  165MOL0     N21698   9.663   8.319  10.799  0.0054 -0.1506  0.8427
  165MOL0     N21699   9.730   8.410  10.854 -0.8121  1.0451 -0.5261
  165MOL0     C21700  10.550   9.020  11.355  0.1546 -0.2385 -0.0051
  165MOL0     C21701  10.641   9.113  11.410 -0.6917  0.6965  0.2198
  165MOL0     C21702  11.003   9.321  11.473 -0.8965 -0.6925  0.2459
  165MOL0     C21703  11.128   9.340  11.412 -0.3666  0.7290  0.2417
  165MOL0     C21704  11.198   9.460  11.428  0.2836  0.0868  0.1372
  165MOL0     C21705  11.142   9.562  11.504  0.1802 -0.0636  0.2345
  165MOL0     O21706  11.209   9.673  11.542 -0.3850 -0.0019 -1.1902
  165MOL0     C21707  11.338   9.722  11.491  0.3832  0.0350 -0.1336
  165MOL0     C21708  11.389   9.845  11.571  0.4480  0.1396 -0.5201
  165MOL0     C21709  11.403   9.815  11.724  0.0795 -0.6371 -0.7046
  165MOL0     C21710  11.456   9.935  11.800  0.5033 -0.7043  0.1908
  165MOL0     C21711  11.383  10.064  11.769 -0.0251  0.1041  0.6324
  165MOL0     C21712  11.333  10.176  11.732 -0.2969  0.1395 -1.3311
  165MOL0     C21713  11.017   9.546  11.564 -0.0045  0.3511 -0.1062
  165MOL0     C21714  10.949   9.419  11.555 -0.3301  0.7878  0.1326
  165MOL0     H21715  10.838   8.898  11.596 -1.7565 -2.5231  0.9773
  165MOL0     H21716  10.655   8.749  11.519 -0.4799 -0.4338  2.0178
  165MOL0     H21717  10.324   8.870  11.259 -0.2729  0.8008  0.7685
  165MOL0     H21718  10.302   8.915  11.435  0.5240  2.1963 -0.8095
  165MOL0     H21719  10.241   8.703  11.505  0.0889  2.4611 -0.5088
  165MOL0     H21720  10.275   8.620  11.358  0.9015  0.1615  0.0233
  165MOL0     H21721  10.061   8.843  11.372 -0.9240  0.1002 -2.1444
  165MOL0     H21722  10.029   8.682  11.403 -1.0359  2.7177  2.4777
  165MOL0     H21723  10.169   8.753  11.141 -0.3694  1.0840 -0.1686
  165MOL0     H21724  10.099   8.601  11.187  1.5053  0.2071  2.6389
  165MOL0     H21725   9.929   8.855  11.098 -1.9092  1.0957  1.4860
  165MOL0     H21726   9.879   8.720  11.211  1.0210 -0.9191  0.8266
  165MOL0     H21727   9.928   8.556  11.024 -4.9477 -0.8326 -1.0465
  165MOL0     H21728  10.018   8.693  10.938 -0.9986  3.0834  0.1637
  165MOL0     H21729   9.775   8.808  10.917 -2.0167 -1.0882 -1.5507
  165MOL0     H21730   9.810   8.675  10.817 -1.3908 -0.3950 -0.6032
  165MOL0     H21731   9.598   8.697  10.973 -0.0607 -0.6935  0.8526
  165MOL0     H21732   9.700   8.592  11.071  0.0152 -0.2974 -0.3915
  165MOL0     H21733   9.432   8.540  10.871  0.5506  0.9166  4.3290
  165MOL0     H21734   9.453   8.169  10.712 -0.4016  0.0367  0.3160
  165MOL0     H21735   9.395   8.304  10.634 -3.3843  0.7011  0.5535
  165MOL0     H21736   9.235   8.363  10.790  1.4070  0.7773  1.2546
  165MOL0     H21737   9.283   8.260  10.916 -0.2444  1.8068 -0.1417
  165MOL0     H21738   9.175   8.188  10.641  1.4871 -0.2885 -0.4355
  165MOL0     H21739   9.267   8.077  10.716 -0.0242 -0.3287 -0.4727
  165MOL0     H21740   9.131   8.058  10.917  0.9319 -1.6184 -2.0591
  165MOL0     H21741   9.045   8.004  10.782 -0.8928  0.9846 -2.3254
  165MOL0     H21742   8.769   8.262  10.970  1.0344 -2.0031  0.7396
  165MOL0     H21743   8.550   8.278  10.885  0.4013  2.5608 -1.0004
  165MOL0     H21744   8.181   8.255  10.562  3.8375 -0.8047  0.3069
  165MOL0     H21745   8.002   8.324  10.396 -0.4216  3.3164 -4.3470
  165MOL0     H21746   7.861   8.273  10.219  1.6411 -2.0778  0.8260
  165MOL0     H21747   7.941   8.224  10.072 -1.4223 -0.8378  2.2333
  165MOL0     H21748   7.862   8.403   9.934 -1.3171  1.5041 -0.5306
  165MOL0     H21749   7.775   8.481  10.072  0.4231 -0.2085 -0.0718
  165MOL0     H21750   7.699   8.194  10.024 -0.0569  0.0104 -0.2513
  165MOL0     H21751   7.677   8.306   9.886  2.0334  1.0967 -1.0178
  165MOL0     H21752   7.554   8.323  10.164  2.5528 -3.0221 -1.3223
  165MOL0     H21753   7.553   8.461  10.068 -2.4106 -0.3014  0.0829
  165MOL0     H21754   7.441   8.189   9.974 -0.0227 -0.1374  1.7646
  165MOL0     H21755   7.431   8.333   9.881 -0.6966 -1.1976 -0.3777
  165MOL0     H21756   7.318   8.456  10.066 -0.5759 -0.0816  1.3389
  165MOL0     H21757   7.311   8.303  10.152  2.0488 -0.0597 -0.2061
  165MOL0     H21758   7.184   8.375   9.890  2.3719  0.6924 -0.7032
  165MOL0     H21759   7.175   8.204   9.952  0.5939  0.1304  2.5315
  165MOL0     H21760   7.051   8.465  10.058 -2.9059 -0.6780  1.8105
  165MOL0     H21761   7.044   8.296  10.139 -0.7399 -3.7493 -2.0459
  165MOL0     H21762   8.269   8.328  10.083 -0.3574 -3.5147 -0.1542
  165MOL0     H21763   8.466   8.280  10.244  0.1997  3.6007 -0.6964
  165MOL0     H21764   8.667   8.094  10.526 -1.0286  1.3920 -0.2346
  165MOL0     H21765   8.896   8.087  10.604 -0.9712  3.5582 -1.5340
  165MOL0     H21766  10.469   9.060  11.295 -1.4267  0.9619  2.7267
  165MOL0     H21767  10.649   9.215  11.376 -2.5569  1.0631  0.7553
  165MOL0     H21768  11.159   9.258  11.348 -4.9358 -1.3515  0.3638
  165MOL0     H21769  11.286   9.488  11.371  0.4987 -2.2310 -0.7609
  165MOL0     H21770  11.317   9.746  11.386 -0.1231 -2.2483 -0.5982
  165MOL0     H21771  11.416   9.645  11.498  3.2198  2.5836 -1.1831
  165MOL0     H21772  11.479   9.892  11.530  0.1624  1.6530  0.5565
  165MOL0     H21773  11.312   9.920  11.552  0.6665  0.6460  0.5197
  165MOL0     H21774  11.471   9.732  11.741  0.3708 -0.4868 -1.1394
  165MOL0     H21775  11.304   9.800  11.770  0.4708 -0.0956  0.3704
  165MOL0     H21776  11.459   9.927  11.909 -3.4700 -0.7431  0.4524
  165MOL0     H21777  11.555   9.955  11.759 -0.5302  3.9725 -0.6985
  165MOL0     H21778  11.299  10.275  11.712  1.7263  1.3902  1.0080
  165MOL0     H21779  10.978   9.634  11.614  2.2416  1.2514  0.1483
  165MOL0     H21780  10.853   9.407  11.605  1.1099 -1.2014  2.7022
  166MOL0     O21781   2.719   6.780   2.585  0.2446 -0.6652 -0.9075
  166MOL0     C21782   2.750   6.670   2.534 -0.0659 -0.7014  0.0640
  166MOL0     O21783   2.702   6.614   2.422 -0.2741 -0.2725 -0.4411
  166MOL0     C21784   2.591   6.657   2.355 -0.0488 -0.1878 -0.8038
  166MOL0     C21785   2.548   6.577   2.261  0.6254 -0.4258  1.1538
  166MOL0     C21786   2.436   6.609   2.182 -0.1055 -0.7507 -0.4809
  166MOL0     C21787   2.367   6.728   2.199  0.5271  0.5618 -0.5360
  166MOL0     O21788   2.244   6.757   2.150 -0.0702 -0.2165  0.5970
  166MOL0     C21789   2.234   6.733   2.008  0.2146  0.4503  0.0910
  166MOL0     C21790   2.133   6.819   1.939 -1.3669  0.0676 -0.9314
  166MOL0     C21791   2.165   6.966   1.919 -0.9106  0.0962 -1.0744
  166MOL0     C21792   2.043   7.042   1.870  1.0104  0.7657 -0.6961
  166MOL0     C21793   2.077   7.184   1.830  0.8495 -1.5486  0.6105
  166MOL0     C21794   1.982   7.244   1.726 -0.2967 -1.6075  0.0544
  166MOL0     C21795   1.830   7.245   1.764 -0.8417 -0.4175  0.5826
  166MOL0     C21796   1.747   7.194   1.644  0.5861 -0.0112 -0.7370
  166MOL0     N21797   1.767   7.056   1.607 -0.2347  0.8749 -0.4589
  166MOL0     C21798   1.711   6.943   1.665 -0.3930  0.5072 -0.1533
  166MOL0     C21799   1.760   6.841   1.589 -1.1819 -0.1653  0.6223
  166MOL0     C21800   1.743   6.688   1.620 -0.0462  0.2832 -0.2926
  166MOL0     C21801   1.844   6.633   1.718  0.0931 -0.2635  0.2266
  166MOL0     C21802   1.814   6.484   1.731  0.3671 -0.4490  0.7849
  166MOL0     C21803   1.928   6.401   1.792  0.5939  0.6953 -0.0194
  166MOL0     O21804   1.928   6.425   1.928 -0.5596  0.5799  0.8569
  166MOL0     C21805   2.032   6.388   2.014  0.7646 -0.2153 -0.1030
  166MOL0     C21806   2.138   6.309   1.982 -0.1422  0.0740 -0.0152
  166MOL0     C21807   2.239   6.267   2.064 -0.4017 -0.3257 -0.8049
  166MOL0     C21808   2.238   6.307   2.205 -0.1148  0.1796 -0.0350
  166MOL0     C21809   2.350   6.280   2.298 -0.5240  0.3144 -0.1465
  166MOL0     O21810   2.317   6.267   2.426  0.1636 -0.1308 -0.6031
  166MOL0     C21811   2.406   6.291   2.529  0.5623  0.8209  0.1160
  166MOL0     C21812   2.445   6.182   2.612  0.7698 -0.1713 -0.1504
  166MOL0     C21813   2.534   6.201   2.724  0.7695  0.0969  0.4629
  166MOL0     C21814   2.569   6.334   2.758 -0.3307  0.3599  0.4280
  166MOL0     O21815   2.652   6.362   2.861 -0.3238  0.2434 -0.2391
  166MOL0     C21816   2.578   6.419   2.973 -0.3286 -0.1443  0.2430
  166MOL0     C21817   2.646   6.537   3.035  0.0565 -1.0754  0.1638
  166MOL0     C21818   2.786   6.514   3.087 -0.3530  0.5643 -1.1473
  166MOL0     C21819   2.853   6.646   3.129  0.7182  0.5368 -0.1041
  166MOL0     C21820   2.989   6.615   3.199  0.1227 -0.7313  0.2595
  166MOL0     C21821   3.052   6.744   3.238 -0.3384  0.2168 -0.1715
  166MOL0     C21822   3.189   6.736   3.310  0.4869 -0.6107  0.0789
  166MOL0     C21823   3.204   6.853   3.400  0.4500  0.9603 -0.3767
  166MOL0    Cl21824   3.177   7.020   3.340  0.1395  0.7580 -0.0419
  166MOL0     C21825   2.515   6.438   2.677  0.3119 -0.4021 -0.1913
  166MOL0     C21826   2.432   6.424   2.558 -0.5446 -1.0127 -0.5473
  166MOL0     O21827   2.463   6.267   2.253 -0.4968  0.5236  0.2142
  166MOL0     C21828   2.133   6.394   2.243 -0.2804  0.3786 -0.0086
  166MOL0     C21829   2.031   6.431   2.150  0.5949  0.6990 -0.5002
  166MOL0     N21830   1.838   6.893   1.487  0.2199 -0.6858  0.5880
  166MOL0     N21831   1.829   7.021   1.495 -0.3793  0.4778 -0.3392
  166MOL0     C21832   2.414   6.815   2.292  1.1382  0.0170  0.6926
  166MOL0     C21833   2.524   6.785   2.377  0.3714 -0.3805  0.0988
  166MOL0     C21834   2.874   6.617   2.594  0.7742  0.9603  0.4169
  166MOL0     C21835   2.947   6.517   2.527  0.3418  0.1097 -0.8754
  166MOL0     C21836   3.057   6.457   2.590 -0.7589  0.0283 -0.9601
  166MOL0     C21837   3.096   6.502   2.715  0.1328  0.4097  1.0252
  166MOL0     O21838   3.195   6.442   2.783 -0.7777  0.0034 -0.5213
  166MOL0     C21839   3.302   6.365   2.718 -0.3579  0.0649  0.4865
  166MOL0     C21840   3.388   6.306   2.832  0.9914  0.1905  0.3690
  166MOL0     C21841   3.414   6.406   2.950 -0.8697 -1.9044  0.4985
  166MOL0     C21842   3.501   6.339   3.053  0.7334 -0.8690  0.3439
  166MOL0     C21843   3.528   6.424   3.171 -0.7348 -0.0533  0.8113
  166MOL0     C21844   3.533   6.480   3.282 -0.4542  0.4772  1.0072
  166MOL0     C21845   3.034   6.609   2.774  0.2036 -0.3416 -0.3523
  166MOL0     C21846   2.926   6.671   2.712 -0.2648 -0.0473  0.8050
  166MOL0     H21847   2.610   6.492   2.232  0.5492  0.0968 -0.6579
  166MOL0     H21848   2.414   6.534   2.106 -2.3300 -1.2500  0.5825
  166MOL0     H21849   2.207   6.630   1.983 -1.2677  1.0511 -0.9247
  166MOL0     H21850   2.333   6.749   1.964  1.8978 -2.1168  2.5375
  166MOL0     H21851   2.039   6.805   1.994 -0.1686 -0.6631  1.0199
  166MOL0     H21852   2.134   6.771   1.840 -0.2868  0.0801 -0.9369
  166MOL0     H21853   2.255   6.996   1.864  0.6564 -0.5032  1.0216
  166MOL0     H21854   2.187   6.994   2.023 -3.7453 -0.7184 -0.1872
  166MOL0     H21855   2.004   7.000   1.777 -1.1566 -1.0934  0.9580
  166MOL0     H21856   1.960   7.038   1.940  0.1775 -1.6457 -1.7476
  166MOL0     H21857   2.173   7.195   1.778  1.4496 -1.4453  1.7099
  166MOL0     H21858   2.080   7.248   1.918 -1.2102 -2.2061  1.2055
  166MOL0     H21859   1.996   7.177   1.641 -2.0359 -1.3579 -0.4598
  166MOL0     H21860   2.021   7.344   1.702 -1.1764 -0.5211  2.7104
  166MOL0     H21861   1.809   7.188   1.855 -3.5069  1.1782  1.0884
  166MOL0     H21862   1.802   7.346   1.798  1.6093 -0.5085  3.2238
  166MOL0     H21863   1.770   7.248   1.552 -0.2485 -2.1082 -2.2549
  166MOL0     H21864   1.640   7.218   1.652  0.3150  0.7407 -4.4856
  166MOL0     H21865   1.640   6.932   1.747 -0.0656  0.9689  0.1934
  166MOL0     H21866   1.752   6.634   1.526 -1.9677 -1.8092  0.6388
  166MOL0     H21867   1.637   6.675   1.647 -0.0779 -2.1340 -1.3546
  166MOL0     H21868   1.845   6.674   1.820  1.3857  1.4620 -0.4154
  166MOL0     H21869   1.950   6.640   1.691  0.5845  1.2032  2.2983
  166MOL0     H21870   1.721   6.474   1.786 -0.3069 -1.6919 -0.5240
  166MOL0     H21871   1.787   6.437   1.636 -2.2788 -1.1198  1.8005
  166MOL0     H21872   2.025   6.431   1.752  1.6503  0.0124  1.9196
  166MOL0     H21873   1.930   6.294   1.769  1.0446  1.0389 -1.6909
  166MOL0     H21874   2.148   6.283   1.877 -3.0876  0.5335 -0.5005
  166MOL0     H21875   2.321   6.212   2.018 -0.5097 -0.5666 -0.7083
  166MOL0     H21876   2.418   6.084   2.576  5.4506 -1.5268 -0.7257
  166MOL0     H21877   2.564   6.121   2.791  1.3687  0.0407  0.1352
  166MOL0     H21878   2.573   6.331   3.038  0.7257 -2.2446 -2.3565
  166MOL0     H21879   2.475   6.447   2.949 -0.9568 -1.8941  0.7663
  166MOL0     H21880   2.583   6.590   3.107 -1.8968 -4.4050  1.0868
  166MOL0     H21881   2.661   6.609   2.953 -0.7785 -2.0683 -0.8992
  166MOL0     H21882   2.837   6.476   2.997 -2.9839  1.0959 -2.9682
  166MOL0     H21883   2.784   6.437   3.164 -3.1318  2.0081  0.3309
  166MOL0     H21884   2.861   6.699   3.034  0.0846 -1.0135 -1.0660
  166MOL0     H21885   2.780   6.691   3.197 -1.0352 -1.5452 -0.4709
  166MOL0     H21886   3.055   6.543   3.151 -0.4129  0.2656 -2.1298
  166MOL0     H21887   2.963   6.568   3.294  2.3166 -0.4034  1.0706
  166MOL0     H21888   2.986   6.798   3.307  1.6768 -0.0871  2.1697
  166MOL0     H21889   3.075   6.810   3.154 -2.4116  0.0605 -0.9055
  166MOL0     H21890   3.195   6.653   3.382  1.0044  0.9123  1.8663
  166MOL0     H21891   3.273   6.732   3.240 -1.0960  2.0345 -2.1563
  166MOL0     H21892   3.310   6.854   3.426  1.5197  2.5411 -4.1207
  166MOL0     H21893   3.141   6.841   3.488  1.8183 -0.7794  0.4415
  166MOL0     H21894   2.532   6.537   2.718  1.5712 -1.2813  1.5225
  166MOL0     H21895   2.379   6.506   2.512 -0.2452  0.3396  1.3740
  166MOL0     H21896   2.127   6.441   2.341 -0.7896 -0.6223  0.4470
  166MOL0     H21897   1.944   6.491   2.176 -0.3767 -0.8073 -0.1524
  166MOL0     H21898   2.368   6.911   2.311 -0.5560 -0.9002  1.4506
  166MOL0     H21899   2.561   6.868   2.435  1.6642 -0.6176 -0.3534
  166MOL0     H21900   2.922   6.475   2.430  1.6986 -0.8828 -0.8277
  166MOL0     H21901   3.106   6.380   2.531 -0.3615 -1.1577  0.8317
  166MOL0     H21902   3.360   6.434   2.656 -2.3021  2.7822  1.5347
  166MOL0     H21903   3.262   6.278   2.665  0.7294 -0.0431 -0.2026
  166MOL0     H21904   3.345   6.216   2.878  1.9393  1.1433  3.3560
  166MOL0     H21905   3.484   6.277   2.789  0.6625 -2.6522  1.3433
  166MOL0     H21906   3.322   6.446   2.995 -1.3710 -0.6298 -1.5135
  166MOL0     H21907   3.466   6.493   2.909 -1.8483 -0.6488  1.8139
  166MOL0     H21908   3.460   6.241   3.080  1.4835 -0.3993  3.6958
  166MOL0     H21909   3.596   6.318   3.003  1.0336  1.3812 -0.1311
  166MOL0     H21910   3.534   6.534   3.374  3.0708  1.8670  0.3176
  166MOL0     H21911   3.083   6.648   2.862  1.2069 -2.1527 -0.0466
  166MOL0     H21912   2.872   6.757   2.753 -1.7824 -0.5562 -0.0368
  167MOL0     O21913   3.089   3.473   6.253 -0.2094  0.0523 -0.1914
  167MOL0     C21914   3.006   3.459   6.161 -0.2662  0.0765  0.5258
  167MOL0     O21915   2.948   3.338   6.127 -0.0590 -0.3477  0.6403
  167MOL0     C21916   2.988   3.210   6.172  0.4634  0.2740 -0.5132
  167MOL0     C21917   2.895   3.116   6.172  0.0957  0.4506 -0.0614
  167MOL0     C21918   2.922   2.989   6.230 -0.4726  0.0487  0.9539
  167MOL0     C21919   3.047   2.957   6.287 -0.1420 -0.5660  0.5477
  167MOL0     O21920   3.051   2.837   6.339  0.0921 -0.1997 -0.4969
  167MOL0     C21921   3.165   2.786   6.404 -0.5118  0.5892  0.1893
  167MOL0     C21922   3.273   2.728   6.314 -0.8769 -0.6642 -0.0190
  167MOL0     C21923   3.227   2.617   6.223 -0.1222  1.3276  0.0985
  167MOL0     C21924   3.345   2.571   6.138  0.2732 -0.5444  0.3178
  167MOL0     C21925   3.457   2.494   6.209  0.3170 -0.5323 -0.1211
  167MOL0     C21926   3.557   2.430   6.113  0.7598  0.3827  0.2146
  167MOL0     C21927   3.672   2.355   6.193 -0.0660  0.0915 -0.3795
  167MOL0     C21928   3.768   2.471   6.241  0.3724  0.4366  1.0213
  167MOL0     N21929   3.888   2.428   6.304  0.0262 -0.3644  0.5134
  167MOL0     C21930   3.990   2.387   6.229 -0.7416  0.7684 -0.1597
  167MOL0     C21931   4.082   2.337   6.327 -0.0504 -0.6836  0.7097
  167MOL0     C21932   4.215   2.283   6.299  0.4066  0.1400  0.1469
  167MOL0     C21933   4.318   2.395   6.295  1.1668 -0.6967 -0.7210
  167MOL0     C21934   4.464   2.354   6.333 -0.4517  0.5956  0.3491
  167MOL0     C21935   4.518   2.251   6.233  0.8648 -0.1299  0.4200
  167MOL0     O21936   4.619   2.165   6.289  0.0391 -0.5172 -0.0241
  167MOL0     C21937   4.720   2.223   6.361  0.7299 -0.2482  0.1117
  167MOL0     C21938   4.771   2.167   6.482 -0.1907  0.1688 -0.6908
  167MOL0     C21939   4.861   2.235   6.567 -0.7958  0.4570 -0.6336
  167MOL0     C21940   4.919   2.356   6.529  0.1733 -0.6028 -0.1235
  167MOL0     C21941   5.024   2.420   6.601 -0.1214  0.2913  0.4044
  167MOL0     O21942   5.109   2.495   6.522 -0.8529 -0.4727  0.0179
  167MOL0     C21943   5.236   2.535   6.578  0.9192  0.2219 -0.1597
  167MOL0     C21944   5.356   2.509   6.512 -0.8664 -0.0117  0.3914
  167MOL0     C21945   5.474   2.566   6.564 -0.1060  0.1652  0.2719
  167MOL0     C21946   5.481   2.647   6.680 -0.7473  0.0265  0.4498
  167MOL0     O21947   5.597   2.698   6.720 -0.4713 -0.3526 -0.6246
  167MOL0     C21948   5.729   2.680   6.652  0.2929  0.3178  0.0352
  167MOL0     C21949   5.734   2.742   6.515  0.2034 -0.4561  0.7585
  167MOL0     C21950   5.792   2.885   6.505 -0.7892  0.2689  0.2067
  167MOL0     C21951   5.765   2.943   6.366  0.3535  0.1586  0.0841
  167MOL0     C21952   5.850   3.064   6.328  0.0210 -0.6350  0.3534
  167MOL0     C21953   5.843   3.098   6.180  0.1265 -0.1780  0.5548
  167MOL0     C21954   5.926   3.217   6.154 -0.3318  0.7732  0.0873
  167MOL0     C21955   5.937   3.243   6.000 -0.3544 -0.0703  0.3098
  167MOL0    Cl21956   6.071   3.151   5.935 -0.0383  0.1452 -0.0049
  167MOL0     C21957   5.354   2.679   6.748 -0.3967  1.2199 -1.2551
  167MOL0     C21958   5.238   2.620   6.687 -0.6438  0.0786  0.2512
  167MOL0     O21959   5.051   2.381   6.711  0.6192  0.5852 -0.0523
  167MOL0     C21960   4.873   2.410   6.405  0.5165 -0.1844 -0.6807
  167MOL0     C21961   4.780   2.344   6.322 -0.7326 -0.5388 -0.0377
  167MOL0     N21962   4.030   2.360   6.453  0.1590 -0.4136 -0.9287
  167MOL0     N21963   3.916   2.406   6.436 -0.3881  0.4046  0.4109
  167MOL0     C21964   3.144   3.058   6.283 -0.3671  0.2667 -0.1633
  167MOL0     C21965   3.112   3.176   6.231 -0.1755 -0.8955  0.5814
  167MOL0     C21966   2.952   3.583   6.094  0.0073 -0.1532 -0.1475
  167MOL0     C21967   2.928   3.593   5.955 -0.0677  0.5648 -0.2774
  167MOL0     C21968   2.876   3.707   5.888 -0.9360 -0.1654  0.2935
  167MOL0     C21969   2.849   3.820   5.971  0.1773  0.1377 -0.2922
  167MOL0     O21970   2.797   3.931   5.903  0.4625  0.9480 -0.1076
  167MOL0     C21971   2.768   4.051   5.961  0.1159  0.0982 -0.0200
  167MOL0     C21972   2.625   4.044   6.025 -0.6679 -0.2270  0.2371
  167MOL0     C21973   2.517   4.018   5.921  0.1003  0.0122  0.2223
  167MOL0     C21974   2.378   4.007   5.981  0.6839 -0.5433  0.4975
  167MOL0     C21975   2.343   3.906   6.085  0.4884  0.4163  0.1617
  167MOL0     C21976   2.306   3.817   6.163 -1.1216  0.3540  0.1467
  167MOL0     C21977   2.870   3.809   6.112 -0.5213  0.3010 -0.1878
  167MOL0     C21978   2.923   3.701   6.172 -0.5622 -0.1324  0.1859
  167MOL0     H21979   2.791   3.138   6.148  0.2308  3.5735  1.7391
  167MOL0     H21980   2.847   2.911   6.233 -0.4030 -0.0182  0.9510
  167MOL0     H21981   3.136   2.702   6.468  2.5126  0.4709  1.5715
  167MOL0     H21982   3.204   2.864   6.470  0.5467 -0.9936  1.5071
  167MOL0     H21983   3.364   2.713   6.372  0.9147  1.1501 -2.1151
  167MOL0     H21984   3.307   2.812   6.251 -2.8417  0.8423  0.8193
  167MOL0     H21985   3.144   2.651   6.160  0.1788  1.9434  0.0174
  167MOL0     H21986   3.186   2.536   6.284 -2.3752  0.0085 -2.9071
  167MOL0     H21987   3.309   2.500   6.063 -0.4854 -0.3702  0.5072
  167MOL0     H21988   3.399   2.654   6.090 -0.1426  0.7387  1.9790
  167MOL0     H21989   3.409   2.428   6.282 -0.3026  1.0877  1.0055
  167MOL0     H21990   3.511   2.566   6.272 -0.0948 -0.6744  0.4005
  167MOL0     H21991   3.589   2.501   6.036  1.4263 -0.3203 -0.1737
  167MOL0     H21992   3.510   2.348   6.057  2.5112 -0.1215 -0.6003
  167MOL0     H21993   3.633   2.295   6.276  0.5708 -3.2709 -2.3194
  167MOL0     H21994   3.725   2.286   6.128  0.3987  0.3470 -0.2759
  167MOL0     H21995   3.719   2.552   6.296 -0.3451 -0.2071  1.3503
  167MOL0     H21996   3.803   2.511   6.146 -1.8727 -1.0711 -0.5283
  167MOL0     H21997   3.992   2.378   6.121 -1.8358  2.5980 -0.3665
  167MOL0     H21998   4.218   2.231   6.203  3.1459 -0.4928  0.4872
  167MOL0     H21999   4.252   2.211   6.373 -2.8297  0.4947  2.3342
  167MOL0     H22000   4.295   2.475   6.366  0.6599 -0.6257 -0.9632
  167MOL0     H22001   4.304   2.433   6.194 -1.9282 -0.9687 -0.5106
  167MOL0     H22002   4.533   2.439   6.339 -2.2273  2.0200  1.6552
  167MOL0     H22003   4.457   2.312   6.433 -1.2659  3.6281  1.6709
  167MOL0     H22004   4.566   2.298   6.146  1.4275 -2.4210 -0.5687
  167MOL0     H22005   4.442   2.184   6.193  2.3303 -1.7247  0.1778
  167MOL0     H22006   4.744   2.062   6.495 -0.6279  0.2885 -0.6126
  167MOL0     H22007   4.908   2.188   6.654 -0.6724 -1.3644 -1.6300
  167MOL0     H22008   5.356   2.450   6.421 -1.2541 -0.1654  0.4909
  167MOL0     H22009   5.567   2.532   6.518 -0.2437 -2.6506  1.8668
  167MOL0     H22010   5.730   2.571   6.641 -2.3592  0.1959  0.4010
  167MOL0     H22011   5.823   2.706   6.701  0.3218  0.8583 -0.2924
  167MOL0     H22012   5.633   2.752   6.476 -0.4808 -4.4272  1.1771
  167MOL0     H22013   5.800   2.685   6.449  2.1643  2.3315  0.1057
  167MOL0     H22014   5.894   2.886   6.542 -0.2994  3.7047 -0.8990
  167MOL0     H22015   5.731   2.951   6.567 -0.1322  3.0224 -1.8757
  167MOL0     H22016   5.763   2.864   6.291 -1.4428 -1.2126  1.4738
  167MOL0     H22017   5.660   2.972   6.360  0.1813 -0.6129 -0.7945
  167MOL0     H22018   5.945   3.030   6.371 -0.6814 -2.0537  0.8526
  167MOL0     H22019   5.824   3.146   6.396  3.8847  0.9784  0.1275
  167MOL0     H22020   5.737   3.118   6.159 -0.1658 -1.9900  0.1145
  167MOL0     H22021   5.885   3.022   6.113  0.0386 -0.0568  0.3622
  167MOL0     H22022   5.881   3.303   6.204 -1.0850 -1.6517  4.0681
  167MOL0     H22023   6.022   3.192   6.200 -0.4380  0.9718  0.4190
  167MOL0     H22024   5.948   3.349   5.978  0.6105  0.2141  2.0009
  167MOL0     H22025   5.848   3.203   5.951 -0.1126 -2.2216  1.4973
  167MOL0     H22026   5.341   2.732   6.841  0.2386 -1.4717  0.5005
  167MOL0     H22027   5.146   2.636   6.743  0.8274  1.4927  2.4314
  167MOL0     H22028   4.890   2.515   6.385 -0.5477  0.5459  1.8060
  167MOL0     H22029   4.733   2.396   6.239 -1.5065 -2.3404 -0.7970
  167MOL0     H22030   3.245   3.044   6.323  0.8453  2.6575 -2.1325
  167MOL0     H22031   3.199   3.241   6.222  0.0542 -1.0249  1.6946
  167MOL0     H22032   2.950   3.502   5.899 -2.3974 -1.9418  2.5494
  167MOL0     H22033   2.857   3.720   5.782 -0.5578  0.8522  0.3495
  167MOL0     H22034   2.777   4.135   5.890  0.3208  1.4622  1.5618
  167MOL0     H22035   2.843   4.067   6.039 -0.1615 -2.2942  0.8002
  167MOL0     H22036   2.633   3.976   6.111  0.4409  0.8168  0.9912
  167MOL0     H22037   2.602   4.138   6.075 -1.0215  0.5939 -1.3972
  167MOL0     H22038   2.552   3.927   5.872  1.0214  0.0348  0.8173
  167MOL0     H22039   2.533   4.104   5.855  2.0208  0.1737  0.8528
  167MOL0     H22040   2.342   4.101   6.024 -0.9404 -1.0146  0.2249
  167MOL0     H22041   2.312   3.999   5.894 -0.8905  3.8234  1.0353
  167MOL0     H22042   2.281   3.740   6.233 -0.4934  0.5719  0.6142
  167MOL0     H22043   2.841   3.895   6.171  0.6856  0.9020 -0.4336
  167MOL0     H22044   2.950   3.690   6.276  0.8133 -3.2633 -0.4081
  168MOL0     O22045   4.741   4.001  10.819  0.0542  0.3995  0.0522
  168MOL0     C22046   4.745   3.879  10.788  0.3716 -0.1969 -0.1625
  168MOL0     O22047   4.863   3.818  10.744  0.6764  0.0463  0.5732
  168MOL0     C22048   4.970   3.888  10.715  0.1949  0.7011  0.3026
  168MOL0     C22049   5.061   3.927  10.816  0.2809  0.6989  0.9622
  168MOL0     C22050   5.179   3.992  10.775  1.0842 -0.4606 -0.7511
  168MOL0     C22051   5.220   4.014  10.645 -0.7524  0.0512  1.5025
  168MOL0     O22052   5.344   4.071  10.612  0.1961  0.6107  0.4522
  168MOL0     C22053   5.360   4.164  10.505 -0.6475  0.5857 -0.0969
  168MOL0     C22054   5.448   4.285  10.551 -0.0056  0.4408  0.2757
  168MOL0     C22055   5.406   4.392  10.655  0.9361  0.3770 -0.6382
  168MOL0     C22056   5.260   4.385  10.684 -1.2067 -0.3991  0.1917
  168MOL0     C22057   5.220   4.468  10.813  0.4779  0.2147  0.0455
  168MOL0     C22058   5.307   4.429  10.940 -0.3723 -0.7904 -0.7455
  168MOL0     C22059   5.221   4.467  11.064  0.5193  0.4506 -0.0895
  168MOL0     C22060   5.248   4.605  11.110  0.4288 -1.0779  0.2782
  168MOL0     N22061   5.195   4.610  11.252  0.6498 -0.2406  0.8271
  168MOL0     C22062   5.074   4.644  11.302 -0.7972 -1.0730  0.1389
  168MOL0     C22063   5.091   4.673  11.433  0.0466 -0.3782 -0.0127
  168MOL0     C22064   4.981   4.699  11.529 -0.6203 -0.8158  0.2423
  168MOL0     C22065   4.968   4.591  11.645 -0.1786  0.2493  0.0818
  168MOL0     C22066   4.847   4.607  11.726  0.7813 -0.4126 -0.2125
  168MOL0     C22067   4.726   4.530  11.664 -0.2772  0.2597 -0.5444
  168MOL0     O22068   4.750   4.395  11.697 -0.6296 -0.8326  0.3620
  168MOL0     C22069   4.653   4.305  11.678  0.8680  0.2300  0.5378
  168MOL0     C22070   4.637   4.201  11.772 -0.2845  0.5802 -1.1222
  168MOL0     C22071   4.533   4.100  11.761 -0.4385 -0.5457 -0.7885
  168MOL0     C22072   4.424   4.128  11.678  0.6949  0.2308 -0.4132
  168MOL0     C22073   4.292   4.060  11.681 -0.8452 -0.0024 -0.5530
  168MOL0     O22074   4.206   4.073  11.572  0.5755  0.0435  0.1256
  168MOL0     C22075   4.069   4.051  11.573  0.6532 -0.1833  0.8383
  168MOL0     C22076   3.997   4.055  11.453  0.1133  0.0228  0.5831
  168MOL0     C22077   3.848   4.059  11.447 -0.1343 -0.2988  0.4277
  168MOL0     C22078   3.780   4.047  11.568  0.1870  0.7218 -0.8414
  168MOL0     O22079   3.645   4.036  11.582  0.6362 -0.0664 -0.1969
  168MOL0     C22080   3.551   3.987  11.479 -0.6927  0.1441  0.7009
  168MOL0     C22081   3.419   3.952  11.543 -0.1416  0.2442  0.4272
  168MOL0     C22082   3.302   4.049  11.517  0.1126 -0.1612 -0.3994
  168MOL0     C22083   3.255   4.051  11.371 -0.0923 -0.4562  0.3334
  168MOL0     C22084   3.120   4.123  11.361  0.0150 -0.7160  0.8550
  168MOL0     C22085   3.046   4.102  11.218  0.4986  0.3076 -0.0580
  168MOL0     C22086   3.028   4.229  11.139 -0.2758  0.5163  0.2883
  168MOL0     C22087   2.902   4.315  11.167 -0.1256 -0.0656 -0.3976
  168MOL0    Cl22088   2.900   4.470  11.065 -0.2372  0.2287  0.1097
  168MOL0     C22089   3.854   4.046  11.685 -0.2176 -0.5552 -0.1353
  168MOL0     C22090   3.989   4.038  11.688 -0.1512  0.0360  0.2913
  168MOL0     O22091   4.262   3.998  11.779 -0.4608  0.1985  0.1951
  168MOL0     C22092   4.447   4.226  11.584 -0.1290 -0.8939 -0.0899
  168MOL0     C22093   4.561   4.311  11.573 -0.1860  0.7721 -0.1552
  168MOL0     N22094   5.233   4.667  11.458  1.1598 -0.2525  0.4858
  168MOL0     N22095   5.286   4.620  11.352 -0.8128 -1.1945  0.4188
  168MOL0     C22096   5.127   3.987  10.549  0.3343 -0.1659  0.4069
  168MOL0     C22097   5.003   3.920  10.578  0.3411 -0.3375 -0.2219
  168MOL0     C22098   4.630   3.788  10.805 -1.1572 -0.3932  0.1745
  168MOL0     C22099   4.548   3.810  10.910  0.7352 -0.1038  0.0291
  168MOL0     C22100   4.445   3.714  10.937 -0.4103 -0.5036  0.1579
  168MOL0     C22101   4.415   3.611  10.851 -0.1006  0.4943  0.3065
  168MOL0     O22102   4.318   3.518  10.882 -1.0320  0.1453  0.7805
  168MOL0     C22103   4.289   3.410  10.785  0.3654 -0.1232 -0.2530
  168MOL0     C22104   4.158   3.346  10.838  0.0692  0.3737  0.1805
  168MOL0     C22105   4.083   3.287  10.721 -0.4850 -0.0729  0.4113
  168MOL0     C22106   4.001   3.404  10.662  0.2518  0.3747  0.4909
  168MOL0     C22107   3.918   3.369  10.546  0.4624 -0.2693  0.6459
  168MOL0     C22108   3.839   3.342  10.448  0.4396  0.4001  0.7903
  168MOL0     C22109   4.499   3.598  10.738  0.8243 -1.6581 -0.2269
  168MOL0     C22110   4.607   3.687  10.715  0.5205 -0.2615  0.2033
  168MOL0     H22111   5.040   3.907  10.921 -0.8960 -1.1445  0.4155
  168MOL0     H22112   5.248   4.041  10.843  1.4570  0.6882 -1.9082
  168MOL0     H22113   5.269   4.200  10.458  1.4913  2.5298 -3.1183
  168MOL0     H22114   5.408   4.109  10.424 -1.6132 -0.3700 -0.0453
  168MOL0     H22115   5.472   4.343  10.461 -1.1904  0.6162  0.0604
  168MOL0     H22116   5.542   4.239  10.583  0.9489 -0.6414 -3.6322
  168MOL0     H22117   5.420   4.492  10.612 -0.7638  0.9491  0.0669
  168MOL0     H22118   5.463   4.370  10.745 -2.2075 -4.2074  0.5917
  168MOL0     H22119   5.207   4.431  10.600 -2.0204  2.3476  2.0538
  168MOL0     H22120   5.210   4.289  10.701 -4.2059  1.1352  0.6306
  168MOL0     H22121   5.116   4.446  10.838 -1.0248 -0.3496 -5.3913
  168MOL0     H22122   5.228   4.576  10.796  4.9663  0.4202  2.1723
  168MOL0     H22123   5.403   4.483  10.943 -1.3092  0.9327  0.6049
  168MOL0     H22124   5.323   4.321  10.947 -2.1863 -1.2078 -2.3764
  168MOL0     H22125   5.112   4.454  11.060  0.3532 -0.3399  3.4529
  168MOL0     H22126   5.253   4.389  11.134  0.3047  0.6478  0.2305
  168MOL0     H22127   5.210   4.681  11.040 -0.2162 -0.2478  1.4989
  168MOL0     H22128   5.357   4.612  11.101  0.1518  2.4877 -3.2400
  168MOL0     H22129   4.978   4.636  11.252 -1.2451 -0.1014  0.8034
  168MOL0     H22130   4.886   4.718  11.476  1.0293 -1.0123 -3.0722
  168MOL0     H22131   5.001   4.792  11.582 -2.4185 -0.0664 -0.2949
  168MOL0     H22132   5.052   4.602  11.715  0.7202 -0.6688 -0.8184
  168MOL0     H22133   4.980   4.487  11.614  2.4150  0.1542  1.1134
  168MOL0     H22134   4.864   4.575  11.829  4.3399  0.0180 -0.5299
  168MOL0     H22135   4.831   4.715  11.733 -0.4043 -0.4297 -1.8815
  168MOL0     H22136   4.714   4.556  11.559 -0.4556 -1.8307 -1.0819
  168MOL0     H22137   4.640   4.562  11.724 -0.0851 -1.3212  0.6593
  168MOL0     H22138   4.711   4.187  11.849 -1.1580  1.3314 -0.1099
  168MOL0     H22139   4.529   4.028  11.842 -0.6071  2.4359  2.0530
  168MOL0     H22140   4.055   4.054  11.362  0.3594 -2.7216  0.6948
  168MOL0     H22141   3.796   4.074  11.353 -2.0402  0.9546  1.6108
  168MOL0     H22142   3.594   3.906  11.420  0.3234  1.4723 -0.4722
  168MOL0     H22143   3.541   4.060  11.398  2.7744 -2.5963 -2.5363
  168MOL0     H22144   3.449   3.943  11.648  1.8861 -0.1221 -0.1460
  168MOL0     H22145   3.385   3.851  11.519 -1.3580  0.9376 -0.8760
  168MOL0     H22146   3.332   4.150  11.549  0.7669 -0.0577 -1.2883
  168MOL0     H22147   3.227   4.009  11.585 -0.0616  1.9033  0.7060
  168MOL0     H22148   3.328   4.103  11.308 -1.9406  0.5070 -1.1202
  168MOL0     H22149   3.233   3.953  11.328 -1.7980 -0.5383  1.2787
  168MOL0     H22150   3.148   4.227  11.380 -1.4976 -0.1735  0.2630
  168MOL0     H22151   3.050   4.082  11.434  0.2718  1.4656  2.4099
  168MOL0     H22152   2.942   4.074  11.235  0.1010  2.9747  2.8219
  168MOL0     H22153   3.098   4.031  11.153  1.2686  0.8430 -0.0494
  168MOL0     H22154   3.123   4.280  11.152  0.5800 -0.7268 -0.8312
  168MOL0     H22155   3.024   4.207  11.032  0.6610  1.1834  0.1072
  168MOL0     H22156   2.896   4.348  11.272  1.0670 -2.2325  0.4090
  168MOL0     H22157   2.815   4.251  11.151 -0.8236  0.5138  0.9432
  168MOL0     H22158   3.801   4.029  11.779 -3.7771 -1.7143 -2.1674
  168MOL0     H22159   4.025   4.024  11.790  0.3987  0.8167  0.2125
  168MOL0     H22160   4.365   4.245  11.515 -0.3544 -2.8982 -0.4270
  168MOL0     H22161   4.571   4.392  11.501  1.0109 -1.0797 -2.1651
  168MOL0     H22162   5.141   4.024  10.448 -0.9570 -0.2619  0.1665
  168MOL0     H22163   4.927   3.904  10.502 -0.1573 -4.0866  0.8816
  168MOL0     H22164   4.579   3.889  10.979  2.4170  0.1949 -1.0054
  168MOL0     H22165   4.378   3.729  11.021 -0.7835  0.8152 -0.3543
  168MOL0     H22166   4.362   3.328  10.777 -1.3547 -1.9036  1.4647
  168MOL0     H22167   4.285   3.445  10.681  0.0506  2.0944  0.4580
  168MOL0     H22168   4.185   3.263  10.904  0.2273 -0.3533 -0.7684
  168MOL0     H22169   4.096   3.420  10.889 -0.0992 -0.4269  1.1470
  168MOL0     H22170   4.010   3.209  10.746  0.9705 -1.2198  1.2534
  168MOL0     H22171   4.147   3.244  10.644 -2.3160  1.3496 -2.0391
  168MOL0     H22172   3.927   3.421  10.741  0.1555 -0.3106  0.5534
  168MOL0     H22173   4.066   3.491  10.652 -0.5650  0.8166 -1.3969
  168MOL0     H22174   3.796   3.312  10.354  2.7653 -1.6825  0.2917
  168MOL0     H22175   4.476   3.522  10.664 -0.6631 -0.7507 -0.7320
  168MOL0     H22176   4.670   3.668  10.629  2.8164  2.0543  1.2334
  169MOL0     O22177   5.372   7.554  10.935 -0.0222 -0.2729  0.0911
  169MOL0     C22178   5.398   7.437  10.918  0.2726 -0.0318 -0.8061
  169MOL0     O22179   5.347   7.367  10.808  0.2335  0.7448  0.0726
  169MOL0     C22180   5.272   7.419  10.711 -0.4935 -0.4780 -0.0377
  169MOL0     C22181   5.299   7.539  10.664  0.6484 -0.5408 -0.1300
  169MOL0     C22182   5.207   7.600  10.566 -0.5809 -0.0036  0.2617
  169MOL0     C22183   5.101   7.517  10.521 -0.0564 -0.6936  0.3365
  169MOL0     O22184   5.034   7.578  10.416  0.1529  0.2752 -1.5753
  169MOL0     C22185   4.930   7.498  10.365  0.1118 -0.7216  0.0239
  169MOL0     C22186   4.819   7.599  10.336 -0.4206  0.3034  0.5570
  169MOL0     C22187   4.694   7.545  10.271 -0.2164 -0.7720 -1.0803
  169MOL0     C22188   4.611   7.654  10.211 -1.2241 -0.6021 -0.4638
  169MOL0     C22189   4.538   7.610  10.090  0.3495 -0.3348  0.4170
  169MOL0     C22190   4.401   7.546  10.108 -0.5507 -0.4462  0.8536
  169MOL0     C22191   4.304   7.649  10.168  1.1923  0.7456 -0.1149
  169MOL0     C22192   4.158   7.613  10.181 -0.4569 -0.9734 -0.4022
  169MOL0     N22193   4.101   7.577  10.057 -0.6228  0.6752 -0.5267
  169MOL0     C22194   4.099   7.453   9.985  0.0574  0.1426  0.0539
  169MOL0     C22195   4.010   7.476   9.881 -1.2309 -0.4137  0.9433
  169MOL0     C22196   3.978   7.364   9.778  0.5453 -0.6734  0.1643
  169MOL0     C22197   3.831   7.337   9.771  0.0116 -0.3089 -0.2061
  169MOL0     C22198   3.802   7.217   9.671  0.4621  0.2714  0.3940
  169MOL0     C22199   3.652   7.171   9.662  1.1390 -0.6981 -0.2860
  169MOL0     O22200   3.576   7.162   9.786 -0.1291 -0.4823  0.3562
  169MOL0     C22201   3.436   7.165   9.787 -0.3450  0.6378  0.7303
  169MOL0     C22202   3.385   7.214   9.906 -0.1640  0.6559 -0.0497
  169MOL0     C22203   3.260   7.254   9.909  1.2642 -1.0269  0.0444
  169MOL0     C22204   3.173   7.257   9.803  1.4006 -1.0980 -0.7242
  169MOL0     C22205   3.028   7.311   9.807 -1.4275  0.3162 -0.2207
  169MOL0     O22206   2.948   7.286   9.707  0.7105  0.8733  0.3172
  169MOL0     C22207   2.819   7.338   9.717 -1.4535  0.4201  0.6844
  169MOL0     C22208   2.746   7.346   9.832 -0.3747 -0.2968  0.6709
  169MOL0     C22209   2.622   7.409   9.843 -0.3542 -1.0676  0.7217
  169MOL0     C22210   2.563   7.457   9.726  0.2163 -0.3594 -0.1468
  169MOL0     O22211   2.435   7.509   9.738  0.4601 -0.2557  0.0590
  169MOL0     C22212   2.352   7.539   9.620 -0.5199 -0.1534  0.6015
  169MOL0     C22213   2.302   7.402   9.565  0.2359  0.3130 -0.1812
  169MOL0     C22214   2.165   7.363   9.623  0.6643 -0.2223 -0.3183
  169MOL0     C22215   2.100   7.245   9.544 -0.7940 -0.0182  0.6008
  169MOL0     C22216   1.953   7.212   9.584  0.2541 -0.0748 -0.4421
  169MOL0     C22217   1.888   7.126   9.475 -0.9642 -0.3384 -0.0536
  169MOL0     C22218   1.743   7.082   9.489  0.3674  0.2549  0.5207
  169MOL0     C22219   1.690   7.000   9.610  0.6190 -0.0548  0.3561
  169MOL0    Cl22220   1.546   6.908   9.584  0.1200  0.0194 -0.0270
  169MOL0     C22221   2.634   7.434   9.603  0.3911  0.1111 -0.2291
  169MOL0     C22222   2.763   7.382   9.601  0.3405  0.2536  0.4482
  169MOL0     O22223   3.011   7.390   9.892 -0.1076 -0.1199 -0.8269
  169MOL0     C22224   3.221   7.207   9.683 -0.5816  0.0502 -0.1545
  169MOL0     C22225   3.358   7.161   9.676  0.5376  0.2208 -0.4688
  169MOL0     N22226   3.972   7.601   9.877 -0.8308 -0.0673  0.2323
  169MOL0     N22227   4.033   7.659   9.978  0.0310 -0.0131 -0.7932
  169MOL0     C22228   5.086   7.383  10.568  1.0517 -0.4433  0.0171
  169MOL0     C22229   5.164   7.340  10.663 -0.0063  0.0490 -0.9248
  169MOL0     C22230   5.477   7.361  11.021 -0.3888 -0.3027  1.1385
  169MOL0     C22231   5.493   7.405  11.148  0.6166 -0.5869  1.3223
  169MOL0     C22232   5.581   7.341  11.232 -0.2315  0.0779 -0.2622
  169MOL0     C22233   5.646   7.228  11.197 -0.0761  0.0298 -0.5102
  169MOL0     O22234   5.732   7.157  11.286 -0.6705 -0.6090  0.5890
  169MOL0     C22235   5.813   7.228  11.381 -0.7116 -0.0493 -0.7418
  169MOL0     C22236   5.921   7.323  11.320  0.4172  1.0275 -0.8068
  169MOL0     C22237   6.032   7.236  11.258 -0.2286  0.8537 -0.1039
  169MOL0     C22238   6.109   7.315  11.154  0.8262 -1.1148  0.4169
  169MOL0     C22239   6.234   7.249  11.108 -0.0402 -0.3330 -0.0536
  169MOL0     C22240   6.340   7.245  11.050 -0.2927  0.4056 -0.2893
  169MOL0     C22241   5.620   7.172  11.075 -1.0986 -0.4064 -0.7281
  169MOL0     C22242   5.547   7.244  10.988  0.5869  0.6127 -0.5060
  169MOL0     H22243   5.377   7.608  10.693 -1.4141  1.8140  0.1979
  169MOL0     H22244   5.241   7.696  10.528  0.8165 -0.8548 -0.7263
  169MOL0     H22245   4.886   7.430  10.438  1.5978  0.1228  1.7830
  169MOL0     H22246   4.956   7.440  10.276 -4.8483 -0.8139 -1.6917
  169MOL0     H22247   4.861   7.680  10.277  0.0819  0.7336  1.4899
  169MOL0     H22248   4.782   7.646  10.428 -1.1798 -1.0737  0.9982
  169MOL0     H22249   4.649   7.484  10.350  1.8999  1.1712  1.8509
  169MOL0     H22250   4.728   7.479  10.190  0.7604  0.5805 -1.8008
  169MOL0     H22251   4.538   7.685  10.287 -2.8860 -2.2404 -1.3216
  169MOL0     H22252   4.661   7.743  10.171 -2.4405  0.1333 -0.3969
  169MOL0     H22253   4.597   7.535  10.036  0.0852 -0.8855  0.8821
  169MOL0     H22254   4.523   7.696  10.024 -3.4666 -1.7389 -0.8466
  169MOL0     H22255   4.401   7.466  10.183 -0.4806  0.4160  1.7963
  169MOL0     H22256   4.361   7.523  10.009  3.3378  0.7683 -1.2209
  169MOL0     H22257   4.337   7.654  10.273 -3.3200  0.6599  1.5425
  169MOL0     H22258   4.313   7.750  10.127  0.7048  1.4307  1.3597
  169MOL0     H22259   4.091   7.685  10.227  2.7784  0.7081  2.0513
  169MOL0     H22260   4.158   7.532  10.254  0.6570  0.3328  1.1135
  169MOL0     H22261   4.149   7.359  10.007 -0.6757  0.1392  1.8902
  169MOL0     H22262   4.037   7.274   9.800  1.7208 -0.5345 -2.2096
  169MOL0     H22263   4.003   7.394   9.676  0.2747 -1.3474 -0.1046
  169MOL0     H22264   3.791   7.434   9.738 -0.3077 -0.2818  0.2674
  169MOL0     H22265   3.782   7.319   9.866  1.2337  0.0076  0.5119
  169MOL0     H22266   3.832   7.237   9.567 -1.5291  0.4760 -0.1805
  169MOL0     H22267   3.864   7.134   9.706  2.5254  1.0650 -1.1768
  169MOL0     H22268   3.642   7.073   9.616 -2.1884 -1.4465  1.7271
  169MOL0     H22269   3.609   7.259   9.613  4.1280  2.8220  2.7074
  169MOL0     H22270   3.464   7.226   9.979  2.8674  2.1692 -3.3098
  169MOL0     H22271   3.213   7.290  10.000  0.6638 -1.8883  0.0849
  169MOL0     H22272   2.793   7.295   9.916  4.0027  1.9482 -0.1356
  169MOL0     H22273   2.567   7.399   9.936  0.7360 -3.1250  1.2043
  169MOL0     H22274   2.408   7.597   9.546 -4.2319  2.5025 -0.4682
  169MOL0     H22275   2.265   7.599   9.650 -1.7979 -1.4549 -0.3295
  169MOL0     H22276   2.378   7.326   9.586  1.9784  1.4803 -1.9486
  169MOL0     H22277   2.292   7.397   9.457 -2.1475 -3.7232  0.0023
  169MOL0     H22278   2.103   7.452   9.611 -0.4903 -0.8737  0.5381
  169MOL0     H22279   2.167   7.331   9.728 -2.2313 -3.2132 -1.0095
  169MOL0     H22280   2.097   7.274   9.439 -0.7721  1.0698  0.8965
  169MOL0     H22281   2.150   7.147   9.544 -1.9547 -0.6372  1.5857
  169MOL0     H22282   1.906   7.310   9.586 -1.0075 -0.6732  0.0472
  169MOL0     H22283   1.932   7.167   9.681  2.1059  1.0158  0.5257
  169MOL0     H22284   1.958   7.044   9.454 -1.5590 -0.2875 -2.5365
  169MOL0     H22285   1.885   7.191   9.387  0.4601  0.0305  0.1348
  169MOL0     H22286   1.668   7.161   9.478 -1.6626 -1.8473 -2.6787
  169MOL0     H22287   1.725   7.021   9.400 -0.3106  1.4265 -0.1794
  169MOL0     H22288   1.669   7.064   9.696  1.4968 -1.0831  1.3648
  169MOL0     H22289   1.772   6.935   9.642 -1.8829 -2.5360  2.3731
  169MOL0     H22290   2.594   7.462   9.506 -3.5731 -3.5764  0.0002
  169MOL0     H22291   2.817   7.378   9.507  0.1834  2.0754  0.2446
  169MOL0     H22292   3.172   7.214   9.586  2.7516 -0.6022 -2.0557
  169MOL0     H22293   3.399   7.118   9.585  0.3959 -1.2265  0.1269
  169MOL0     H22294   5.002   7.317  10.550 -0.9367  1.3607  1.8919
  169MOL0     H22295   5.149   7.243  10.710  0.4219  0.6705  0.5579
  169MOL0     H22296   5.450   7.499  11.181 -1.3704 -0.9103 -0.1291
  169MOL0     H22297   5.592   7.383  11.331  0.9788 -1.7859  0.4610
  169MOL0     H22298   5.874   7.155  11.435  1.1482  2.0378  0.1398
  169MOL0     H22299   5.749   7.274  11.457  2.6752  1.2684  1.5242
  169MOL0     H22300   5.879   7.380  11.237 -1.0595  2.0285  0.5673
  169MOL0     H22301   5.959   7.401  11.386 -0.5812  2.4936 -1.8991
  169MOL0     H22302   5.980   7.148  11.219 -0.4807  1.2655 -0.6961
  169MOL0     H22303   6.093   7.220  11.348  0.1963  6.2610  0.9243
  169MOL0     H22304   6.047   7.328  11.065  2.7720  0.5753 -0.7775
  169MOL0     H22305   6.132   7.417  11.188  2.6334 -0.6806 -1.8924
  169MOL0     H22306   6.436   7.225  11.008 -0.0323  0.1759  0.4119
  169MOL0     H22307   5.677   7.087  11.039  0.4595  0.2231  0.1440
  169MOL0     H22308   5.539   7.201  10.888 -1.9782 -1.3181  0.4092
  170MOL0     O22309   1.195  10.305   2.318  0.5266 -0.5186 -0.9194
  170MOL0     C22310   1.143  10.414   2.307  0.1272 -0.5516 -0.2644
  170MOL0     O22311   1.009  10.446   2.306  0.0973 -0.6125  0.2079
  170MOL0     C22312   0.915  10.340   2.298 -1.0077  0.1497  0.2538
  170MOL0     C22313   0.903  10.238   2.391 -0.2879  1.1541 -0.0612
  170MOL0     C22314   0.786  10.155   2.371 -0.1978  0.5286 -0.7975
  170MOL0     C22315   0.693  10.165   2.269 -0.6243  1.2184 -0.6085
  170MOL0     O22316   0.586  10.084   2.251 -0.1838 -0.2900  0.0573
  170MOL0     C22317   0.543  10.003   2.360 -0.0052  0.3993  0.7477
  170MOL0     C22318   0.417   9.911   2.341 -0.1798  0.0570  0.0234
  170MOL0     C22319   0.300   9.935   2.443 -0.1035  0.2535  0.0246
  170MOL0     C22320   0.171   9.862   2.407 -0.4430  0.3161  0.5925
  170MOL0     C22321   0.077   9.877   2.520  1.1278  0.4760  0.2214
  170MOL0     C22322  -0.041   9.795   2.504 -0.4000 -0.2843  0.2010
  170MOL0     C22323  -0.150   9.842   2.600 -0.7868  0.1664 -0.2062
  170MOL0     C22324  -0.270   9.757   2.559 -0.8957  0.4926  0.3505
  170MOL0     N22325  -0.389   9.792   2.642 -0.0294 -0.2357 -0.8220
  170MOL0     C22326  -0.480   9.709   2.701 -0.3741 -0.3966  0.3894
  170MOL0     C22327  -0.580   9.791   2.743  1.2041 -0.6967 -0.1543
  170MOL0     C22328  -0.693   9.760   2.839  0.2556  0.2375 -0.6397
  170MOL0     C22329  -0.662   9.817   2.978 -1.0376  0.6368  0.3556
  170MOL0     C22330  -0.547   9.742   3.058 -0.9499  0.6077 -0.5174
  170MOL0     C22331  -0.422   9.822   3.058 -0.1661 -0.6474  0.3976
  170MOL0     O22332  -0.317   9.773   3.143 -0.7177 -0.0658  0.5023
  170MOL0     C22333  -0.206   9.848   3.167 -0.3529 -0.0345 -0.0734
  170MOL0     C22334  -0.151   9.941   3.086  0.8116  0.6245 -0.6155
  170MOL0     C22335  -0.031  10.016   3.120  0.1306  0.1835  0.5433
  170MOL0     C22336   0.039   9.997   3.241  0.9112  0.7095 -0.1091
  170MOL0     C22337   0.170  10.058   3.266 -0.2329  0.2265 -0.5339
  170MOL0     O22338   0.247  10.084   3.151  0.5317 -0.5615  0.2938
  170MOL0     C22339   0.372  10.134   3.155 -0.5388  0.4589 -1.1310
  170MOL0     C22340   0.452  10.086   3.060 -0.2730  0.9008 -0.1372
  170MOL0     C22341   0.578  10.140   3.032 -0.1616  0.0730 -0.0907
  170MOL0     C22342   0.625  10.237   3.119 -0.5965 -0.5720 -0.2068
  170MOL0     O22343   0.747  10.290   3.085 -0.3175  0.6904 -0.1330
  170MOL0     C22344   0.786  10.407   3.153  0.6465 -0.6803  0.5314
  170MOL0     C22345   0.929  10.422   3.108 -0.3220 -0.8162  0.0168
  170MOL0     C22346   0.992  10.542   3.182 -0.1938 -0.4284 -0.8456
  170MOL0     C22347   1.133  10.573   3.120  0.2863  0.3614 -0.1770
  170MOL0     C22348   1.221  10.668   3.204  0.2558 -0.1742 -0.5427
  170MOL0     C22349   1.360  10.674   3.151 -0.1860  0.2562 -0.0347
  170MOL0     C22350   1.429  10.790   3.220 -1.1361 -0.5548 -0.4148
  170MOL0     C22351   1.572  10.817   3.181  0.0943 -0.0451  0.4315
  170MOL0    Cl22352   1.691  10.714   3.274 -0.2903 -0.1111  0.9989
  170MOL0     C22353   0.550  10.280   3.229  0.6512  0.1933  0.0322
  170MOL0     C22354   0.426  10.224   3.251 -0.0291  0.0025 -0.2145
  170MOL0     O22355   0.211  10.071   3.381  0.3694 -1.0120  0.0971
  170MOL0     C22356  -0.031   9.910   3.326  0.5122  0.5574  1.1952
  170MOL0     C22357  -0.150   9.833   3.292  0.0280 -0.5675  0.1035
  170MOL0     N22358  -0.547   9.922   2.702 -0.1072 -0.1384  0.0611
  170MOL0     N22359  -0.438   9.916   2.634 -0.0175 -0.8501 -0.0684
  170MOL0     C22360   0.722  10.262   2.171  0.0239  0.9597 -1.3175
  170MOL0     C22361   0.821  10.354   2.193 -1.4750  0.3190  0.0327
  170MOL0     C22362   1.240  10.523   2.276  0.1813 -0.6386 -0.6474
  170MOL0     C22363   1.194  10.657   2.246  0.8818 -0.3488 -0.0747
  170MOL0     C22364   1.296  10.758   2.219  0.3216  0.0746  0.3961
  170MOL0     C22365   1.432  10.735   2.217 -0.2805  0.4276 -0.4962
  170MOL0     O22366   1.530  10.833   2.207  0.5422  0.3027  0.0571
  170MOL0     C22367   1.497  10.958   2.178  0.3917 -0.7240  0.7589
  170MOL0     C22368   1.611  11.049   2.174 -0.4888 -0.2224  0.0450
  170MOL0     C22369   1.708  11.026   2.053  0.0216 -0.9308  0.3629
  170MOL0     C22370   1.835  11.115   2.058 -1.5088 -0.2357  0.3215
  170MOL0     C22371   1.806  11.260   2.058  0.4656 -0.6708  0.0153
  170MOL0     C22372   1.773  11.379   2.054  0.1478 -0.2268  0.7082
  170MOL0     C22373   1.472  10.608   2.252 -0.1368  1.0005 -0.4350
  170MOL0     C22374   1.386  10.505   2.273  0.6809 -0.1496 -0.4422
  170MOL0     H22375   0.983  10.225   2.463 -1.1417  1.5578  0.9846
  170MOL0     H22376   0.777  10.076   2.445 -1.3570  1.7123  0.3632
  170MOL0     H22377   0.515  10.075   2.439 -1.9728  1.1380 -0.5274
  170MOL0     H22378   0.619   9.927   2.375 -2.2766 -2.1171  0.2910
  170MOL0     H22379   0.448   9.806   2.354  0.9335  0.3739  0.0402
  170MOL0     H22380   0.385   9.922   2.237  0.9781 -0.3314 -0.3950
  170MOL0     H22381   0.277  10.042   2.439 -1.0499  0.0675  0.3513
  170MOL0     H22382   0.341   9.899   2.538 -2.4712  0.5781  1.2365
  170MOL0     H22383   0.120   9.904   2.320 -0.6023  2.1648  1.5158
  170MOL0     H22384   0.195   9.760   2.377  0.6702  0.7196  0.0409
  170MOL0     H22385   0.046   9.981   2.517  0.5120  0.2879 -0.1976
  170MOL0     H22386   0.123   9.853   2.616 -1.4021 -3.1286  0.7447
  170MOL0     H22387  -0.013   9.689   2.511  1.0515 -0.2890 -3.3347
  170MOL0     H22388  -0.081   9.809   2.403  0.4806 -2.5071 -0.5181
  170MOL0     H22389  -0.118   9.833   2.705 -4.2924  0.1940  0.9738
  170MOL0     H22390  -0.179   9.947   2.583  2.3912  1.0970 -0.5746
  170MOL0     H22391  -0.255   9.649   2.549 -0.0009  0.6847 -0.5959
  170MOL0     H22392  -0.290   9.788   2.456  2.2488 -1.7744 -1.1101
  170MOL0     H22393  -0.477   9.601   2.695  1.3617 -0.3131 -3.2330
  170MOL0     H22394  -0.713   9.653   2.850  3.3312 -0.4200 -0.5534
  170MOL0     H22395  -0.781   9.818   2.809 -0.3729  1.5998  3.2143
  170MOL0     H22396  -0.750   9.812   3.043  0.4273 -2.1096  2.3510
  170MOL0     H22397  -0.642   9.923   2.960 -1.0980  0.7935  1.1537
  170MOL0     H22398  -0.571   9.710   3.160 -0.7237  1.6665 -0.1244
  170MOL0     H22399  -0.528   9.646   3.007 -1.0309 -0.5385  1.5105
  170MOL0     H22400  -0.456   9.923   3.083  1.3248  0.2523 -0.9638
  170MOL0     H22401  -0.387   9.815   2.954  0.5487 -3.4145  0.7290
  170MOL0     H22402  -0.193   9.962   2.988 -1.1352 -0.9350 -0.1945
  170MOL0     H22403  -0.003  10.095   3.050  2.6787  2.1756  3.5146
  170MOL0     H22404   0.410  10.006   2.999  1.0044 -1.0014  1.3459
  170MOL0     H22405   0.632  10.122   2.939  0.6138 -2.6867  0.7813
  170MOL0     H22406   0.777  10.398   3.261  4.6174 -1.3844  0.9211
  170MOL0     H22407   0.733  10.494   3.111 -1.3168 -2.0797 -0.0233
  170MOL0     H22408   0.950  10.435   3.001 -1.4619  3.4344  0.1071
  170MOL0     H22409   0.977  10.329   3.138  0.5369 -0.5124 -0.3717
  170MOL0     H22410   1.006  10.516   3.287  1.1054  0.0404 -0.8841
  170MOL0     H22411   0.930  10.633   3.175  2.2769  1.8337  3.0292
  170MOL0     H22412   1.169  10.470   3.115 -1.8697 -0.4943  0.4815
  170MOL0     H22413   1.117  10.599   3.015  0.4366  0.1778 -0.2456
  170MOL0     H22414   1.236  10.635   3.307  1.2766 -0.4736 -0.7737
  170MOL0     H22415   1.180  10.769   3.195 -1.1282 -0.8130 -1.9773
  170MOL0     H22416   1.365  10.682   3.042 -1.6848 -0.9776 -0.2321
  170MOL0     H22417   1.419  10.583   3.166  7.5356  4.2082 -1.4764
  170MOL0     H22418   1.372  10.879   3.191  0.7416  1.2714  1.1931
  170MOL0     H22419   1.428  10.777   3.329 -0.5552  2.4635  0.0201
  170MOL0     H22420   1.587  10.922   3.210 -0.0609  0.2420 -0.4808
  170MOL0     H22421   1.591  10.796   3.075  1.2085 -0.3576  0.6902
  170MOL0     H22422   0.573  10.350   3.309 -0.0187 -1.1864  1.4767
  170MOL0     H22423   0.361  10.249   3.335  2.5502  1.6425  1.4323
  170MOL0     H22424  -0.002   9.901   3.431 -3.3885 -2.3279  2.2536
  170MOL0     H22425  -0.206   9.763   3.353 -0.9018 -1.9549 -2.2145
  170MOL0     H22426   0.656  10.273   2.086 -0.9513  0.2101 -0.6691
  170MOL0     H22427   0.822  10.444   2.133 -2.3092  0.7471  0.6401
  170MOL0     H22428   1.087  10.678   2.250  0.8453 -0.5571  0.0986
  170MOL0     H22429   1.258  10.859   2.204 -2.0390 -0.9566 -1.2181
  170MOL0     H22430   1.441  10.990   2.266 -0.2043 -0.8890  0.4447
  170MOL0     H22431   1.439  10.959   2.085  0.4617 -1.2359  0.7073
  170MOL0     H22432   1.574  11.151   2.184 -1.0828 -0.4851  0.6149
  170MOL0     H22433   1.661  11.038   2.271 -3.0690  1.4421  1.7057
  170MOL0     H22434   1.654  11.075   1.972  0.6808  3.3940  2.2581
  170MOL0     H22435   1.733  10.922   2.032  1.3000 -0.5084 -0.3214
  170MOL0     H22436   1.898  11.095   2.145 -1.3235  2.3113  0.8528
  170MOL0     H22437   1.896  11.099   1.968  2.4176 -0.8050  2.8642
  170MOL0     H22438   1.732  11.478   2.046  0.2665 -0.1510  1.0040
  170MOL0     H22439   1.578  10.595   2.269 -0.2638 -0.9011 -0.8583
  170MOL0     H22440   1.415  10.405   2.303 -1.3062 -0.3703  0.9327
  171MOL0     O22441   2.937   1.753   4.825 -0.2839 -0.0958  0.3385
  171MOL0     C22442   2.854   1.843   4.860 -0.2128 -0.6943  0.4211
  171MOL0     O22443   2.886   1.967   4.906 -0.6343  0.6519  0.5068
  171MOL0     C22444   3.014   1.979   4.930  0.2870 -0.1296 -0.1598
  171MOL0     C22445   3.077   1.918   5.040 -1.4178 -0.4230 -0.0755
  171MOL0     C22446   3.216   1.943   5.049 -0.1712 -0.0985  0.3908
  171MOL0     C22447   3.294   2.015   4.960 -0.1210  0.2630 -0.2020
  171MOL0     O22448   3.429   2.026   4.981 -0.2225 -0.9387  0.3390
  171MOL0     C22449   3.514   2.103   4.883  0.2637  0.7573  0.4468
  171MOL0     C22450   3.665   2.120   4.912 -0.3958  0.1319 -0.8522
  171MOL0     C22451   3.674   2.229   5.033  0.4759  0.2846 -1.0425
  171MOL0     C22452   3.819   2.233   5.085 -0.6665  0.8279  0.6389
  171MOL0     C22453   3.825   2.284   5.226  0.1503 -0.2076 -0.1662
  171MOL0     C22454   3.973   2.290   5.281 -0.0322 -0.4375 -0.1297
  171MOL0     C22455   3.972   2.316   5.427  0.6589 -0.2861  0.7049
  171MOL0     C22456   4.006   2.188   5.502 -0.8382 -1.0045 -0.7292
  171MOL0     N22457   3.903   2.090   5.483  0.2051 -0.0600  0.4276
  171MOL0     C22458   3.792   2.089   5.566 -0.4585  0.8586  0.9886
  171MOL0     C22459   3.717   1.976   5.540  0.6440  0.6193 -0.5015
  171MOL0     C22460   3.580   1.947   5.603 -0.1861 -0.0796 -0.9116
  171MOL0     C22461   3.475   1.888   5.500  0.4326 -0.0777  0.5255
  171MOL0     C22462   3.331   1.954   5.503 -0.3890  0.7165  0.2593
  171MOL0     C22463   3.319   2.105   5.475  0.7893  0.1147 -0.3694
  171MOL0     O22464   3.364   2.131   5.340 -0.3437  0.0953  0.2253
  171MOL0     C22465   3.389   2.260   5.293 -0.3721  0.1599  0.4958
  171MOL0     C22466   3.333   2.285   5.170  0.2717 -0.1403  0.5530
  171MOL0     C22467   3.367   2.410   5.109 -0.2562 -0.1099 -0.7244
  171MOL0     C22468   3.445   2.502   5.171  0.2378 -0.5599 -1.6145
  171MOL0     C22469   3.452   2.649   5.120  0.0644  0.0376  0.0169
  171MOL0     O22470   3.422   2.674   4.995  0.2732  0.4390  0.1582
  171MOL0     C22471   3.497   2.600   4.902  0.2272 -0.0754 -0.5363
  171MOL0     C22472   3.639   2.609   4.905 -0.7735  0.5211 -0.1540
  171MOL0     C22473   3.709   2.540   4.809 -0.3067 -0.3118 -0.3208
  171MOL0     C22474   3.646   2.461   4.712 -0.2767 -0.6488 -0.4428
  171MOL0     O22475   3.728   2.386   4.636  0.7260 -0.5805  0.5067
  171MOL0     C22476   3.673   2.269   4.570  0.1442  0.6511  0.4536
  171MOL0     C22477   3.787   2.163   4.525  1.1295  1.4438 -0.3745
  171MOL0     C22478   3.711   2.045   4.464  0.2182 -0.1443  0.4141
  171MOL0     C22479   3.815   1.940   4.426 -0.3406  0.4972  0.0166
  171MOL0     C22480   3.845   1.824   4.527 -0.8390  0.0773  0.8581
  171MOL0     C22481   3.968   1.735   4.482 -0.3434  0.6470 -0.1702
  171MOL0     C22482   3.975   1.675   4.347  0.4698 -0.4496  0.8180
  171MOL0     C22483   3.940   1.515   4.352  0.0332 -0.1392  0.2119
  171MOL0    Cl22484   4.054   1.416   4.458 -0.4064  0.1569  0.5640
  171MOL0     C22485   3.506   2.462   4.705 -0.4015  0.4597  0.4143
  171MOL0     C22486   3.429   2.531   4.797 -1.0707 -0.5822  0.3022
  171MOL0     O22487   3.490   2.735   5.196 -0.3729 -1.2561 -0.0724
  171MOL0     C22488   3.506   2.475   5.296  0.4129  0.1909  0.5984
  171MOL0     C22489   3.481   2.346   5.355  0.2515 -0.5572 -0.1845
  171MOL0     N22490   3.787   1.904   5.440 -0.1966 -0.3311 -0.0361
  171MOL0     N22491   3.888   1.980   5.405 -0.6517  0.1338 -0.4697
  171MOL0     C22492   3.224   2.069   4.845 -0.3869 -0.3616 -0.5324
  171MOL0     C22493   3.085   2.059   4.839 -0.1220  0.0974 -0.4236
  171MOL0     C22494   2.711   1.811   4.847  0.9010  0.1416  0.8781
  171MOL0     C22495   2.661   1.698   4.899 -0.6969 -0.5510 -0.1023
  171MOL0     C22496   2.534   1.662   4.875  0.2748 -0.4783 -0.5315
  171MOL0     C22497   2.443   1.755   4.813 -0.2878 -0.3695  0.2785
  171MOL0     O22498   2.306   1.742   4.805 -0.7692  0.0486  0.3692
  171MOL0     C22499   2.238   1.627   4.851 -0.1227  0.0599  0.1520
  171MOL0     C22500   2.088   1.637   4.821  0.4700  0.5684  0.3568
  171MOL0     C22501   2.030   1.756   4.891  0.2170 -0.1384  0.3255
  171MOL0     C22502   1.875   1.749   4.908 -0.3281  1.0933  0.2085
  171MOL0     C22503   1.802   1.797   4.789  0.0780 -0.9868  0.0511
  171MOL0     C22504   1.718   1.825   4.694 -0.0917  1.1105 -0.7584
  171MOL0     C22505   2.499   1.879   4.767  0.8466  0.2349 -0.0644
  171MOL0     C22506   2.631   1.906   4.777  0.5256  0.0875 -0.0894
  171MOL0     H22507   3.018   1.869   5.118 -2.0802  1.2996  0.5678
  171MOL0     H22508   3.259   1.917   5.145 -1.6065 -0.7625  0.8843
  171MOL0     H22509   3.466   2.195   4.845  0.7026 -0.0862 -2.4326
  171MOL0     H22510   3.518   2.042   4.792 -0.3435  1.1553  0.1444
  171MOL0     H22511   3.726   2.144   4.824  1.4398  3.7991  1.1542
  171MOL0     H22512   3.694   2.020   4.946 -2.5242 -0.6283 -1.1436
  171MOL0     H22513   3.608   2.204   5.117  2.9503  0.6837  1.1789
  171MOL0     H22514   3.636   2.328   5.006 -0.2105 -0.2860 -2.2248
  171MOL0     H22515   3.863   2.133   5.086  0.8396  1.4137 -1.4224
  171MOL0     H22516   3.875   2.300   5.019 -0.7746  0.1531 -0.1470
  171MOL0     H22517   3.767   2.215   5.288 -1.0874 -0.6140 -1.7044
  171MOL0     H22518   3.776   2.382   5.223  1.0838  0.2999  0.6327
  171MOL0     H22519   4.029   2.367   5.228  0.0653 -0.7145 -0.4284
  171MOL0     H22520   4.025   2.197   5.255 -0.2094  0.5266 -4.7091
  171MOL0     H22521   4.037   2.399   5.457  0.5595 -0.5034  1.5364
  171MOL0     H22522   3.867   2.342   5.440  0.8176  1.6610 -1.2155
  171MOL0     H22523   4.003   2.211   5.609  0.6960 -1.4056 -0.5658
  171MOL0     H22524   4.111   2.160   5.492  0.1873  2.5406 -1.6275
  171MOL0     H22525   3.759   2.159   5.642 -1.2733  1.7703 -0.1720
  171MOL0     H22526   3.535   2.031   5.656  1.1538 -0.5774  1.1650
  171MOL0     H22527   3.586   1.872   5.683 -1.9003  1.0074  0.3166
  171MOL0     H22528   3.469   1.779   5.513  3.5226 -0.5257 -0.8874
  171MOL0     H22529   3.517   1.908   5.401 -0.0542  0.9808  0.5199
  171MOL0     H22530   3.263   1.920   5.424 -1.1836  1.7210  0.4768
  171MOL0     H22531   3.276   1.919   5.591 -1.2591 -0.6625 -0.7749
  171MOL0     H22532   3.356   2.175   5.551  1.8181  0.0600 -0.8090
  171MOL0     H22533   3.211   2.124   5.477  0.8456  0.4634  1.2555
  171MOL0     H22534   3.281   2.205   5.117  0.8751 -0.1786  0.0088
  171MOL0     H22535   3.323   2.430   5.012 -0.7905 -0.0541 -0.4736
  171MOL0     H22536   3.697   2.672   4.972 -2.4367  1.0196  0.8800
  171MOL0     H22537   3.817   2.532   4.817 -0.3299  1.1701  3.3460
  171MOL0     H22538   3.609   2.290   4.484 -0.3134 -0.2373  0.5695
  171MOL0     H22539   3.600   2.240   4.647 -1.1989 -1.7153 -1.5846
  171MOL0     H22540   3.852   2.132   4.607  2.3797  2.0507 -1.1024
  171MOL0     H22541   3.857   2.212   4.456  2.3548  2.1377  1.3161
  171MOL0     H22542   3.660   2.089   4.378 -2.3314 -1.4240  1.1554
  171MOL0     H22543   3.629   2.004   4.524  0.5617 -0.3494  0.7499
  171MOL0     H22544   3.780   1.890   4.335 -0.9548  1.3483 -0.2333
  171MOL0     H22545   3.901   1.998   4.390  2.3446 -2.3912  1.2728
  171MOL0     H22546   3.751   1.767   4.524 -1.6976  1.1588 -5.2367
  171MOL0     H22547   3.864   1.865   4.627 -1.3867  0.6849  0.7245
  171MOL0     H22548   3.976   1.650   4.552  1.8085  0.4614 -0.5703
  171MOL0     H22549   4.064   1.785   4.498  0.4778 -0.8552 -0.2430
  171MOL0     H22550   3.909   1.725   4.276  0.5218  0.0543  1.1176
  171MOL0     H22551   4.072   1.684   4.297 -0.3275 -1.1237 -0.9057
  171MOL0     H22552   3.931   1.467   4.254  1.3916 -2.1393  1.0090
  171MOL0     H22553   3.842   1.505   4.400  0.7817 -0.2991  1.7782
  171MOL0     H22554   3.454   2.405   4.629 -2.8052 -4.8470  5.3378
  171MOL0     H22555   3.324   2.543   4.775 -0.8532  2.1878  0.3754
  171MOL0     H22556   3.572   2.553   5.332 -2.5374  2.8768  0.6465
  171MOL0     H22557   3.521   2.328   5.454 -0.8561  1.5721  0.7180
  171MOL0     H22558   3.272   2.129   4.768  0.9573 -1.8191 -0.8754
  171MOL0     H22559   3.030   2.107   4.759 -0.0714 -1.5857 -1.5172
  171MOL0     H22560   2.729   1.640   4.961 -1.0071 -1.1308 -0.2958
  171MOL0     H22561   2.503   1.569   4.921 -1.2788  1.3472  2.3881
  171MOL0     H22562   2.253   1.612   4.959 -3.0950 -0.8881  0.5078
  171MOL0     H22563   2.279   1.536   4.806  2.0050  0.6566  0.7404
  171MOL0     H22564   2.086   1.633   4.712 -3.8413 -5.0058  0.1892
  171MOL0     H22565   2.040   1.551   4.868 -0.1556  1.3690  1.2279
  171MOL0     H22566   2.055   1.851   4.844 -2.4167  0.9205  0.9162
  171MOL0     H22567   2.056   1.763   4.998 -0.4569  3.8764  0.3969
  171MOL0     H22568   1.842   1.646   4.920  3.0246 -0.0360  0.6564
  171MOL0     H22569   1.836   1.813   4.988 -2.5109 -0.9989  0.9389
  171MOL0     H22570   1.661   1.853   4.608  2.3083  0.9471 -2.5261
  171MOL0     H22571   2.429   1.948   4.722 -1.8276 -2.1982  0.0974
  171MOL0     H22572   2.683   1.996   4.747 -2.4853  1.8890 -0.2809
  172MOL0     O22573   0.190  11.281   2.715  0.3004 -0.6271  1.0975
  172MOL0     C22574   0.275  11.205   2.745  0.0856  0.3686 -0.0616
  172MOL0     O22575   0.252  11.079   2.789 -0.1753  0.8571 -0.1978
  172MOL0     C22576   0.131  11.035   2.752  0.1730 -0.3227 -0.7564
  172MOL0     C22577   0.041  11.036   2.858  0.0516  1.5421 -0.6898
  172MOL0     C22578  -0.090  11.005   2.834 -0.1592 -0.0801 -0.7307
  172MOL0     C22579  -0.142  10.974   2.703  0.3612 -0.2566 -0.0221
  172MOL0     O22580  -0.263  10.918   2.664  0.2077  0.0653 -0.2095
  172MOL0     C22581  -0.328  10.849   2.764  0.9160 -0.5656  0.1895
  172MOL0     C22582  -0.411  10.734   2.711  0.2682  0.2761 -0.2850
  172MOL0     C22583  -0.500  10.676   2.817 -0.5563 -1.0743  0.4119
  172MOL0     C22584  -0.573  10.554   2.757  0.1696  0.1154 -1.1026
  172MOL0     C22585  -0.702  10.506   2.829 -0.4460 -0.4320  0.0526
  172MOL0     C22586  -0.819  10.613   2.833  0.7498 -1.0325  0.1296
  172MOL0     C22587  -0.948  10.574   2.899  0.2256 -0.1963 -0.0663
  172MOL0     C22588  -0.941  10.557   3.055 -0.0168  0.0823 -0.2618
  172MOL0     N22589  -1.072  10.504   3.114  0.4672 -0.0042 -0.2914
  172MOL0     C22590  -1.086  10.447   3.236  0.5811 -0.4981  0.0750
  172MOL0     C22591  -1.215  10.415   3.248  0.0267  0.4097  0.4225
  172MOL0     C22592  -1.289  10.361   3.374 -1.2844 -0.3510  0.8368
  172MOL0     C22593  -1.271  10.206   3.365 -0.3827 -1.2344  0.4142
  172MOL0     C22594  -1.380  10.128   3.295 -0.5247 -0.4319 -1.0491
  172MOL0     C22595  -1.350   9.981   3.281 -0.6619 -0.2528 -0.5650
  172MOL0     O22596  -1.458   9.913   3.219 -0.0446 -0.4469  0.4111
  172MOL0     C22597  -1.560   9.865   3.293  0.8462  0.4048 -1.0885
  172MOL0     C22598  -1.572   9.865   3.434  0.1378 -0.1519  0.5882
  172MOL0     C22599  -1.678   9.802   3.499  0.2325 -0.3760 -0.1655
  172MOL0     C22600  -1.780   9.728   3.428 -0.2777 -0.9456 -0.2368
  172MOL0     C22601  -1.883   9.664   3.502  0.1130 -0.6577 -1.2944
  172MOL0     O22602  -1.873   9.663   3.642 -0.7148  0.2845  0.3410
  172MOL0     C22603  -1.972   9.620   3.722  0.2062  0.3334  0.2762
  172MOL0     C22604  -2.073   9.706   3.753 -0.0145 -0.0234 -0.3054
  172MOL0     C22605  -2.188   9.657   3.835 -0.2287  0.1337 -0.6406
  172MOL0     C22606  -2.192   9.536   3.895 -0.7579 -0.2395  0.6770
  172MOL0     O22607  -2.282   9.489   3.988  0.6195  0.8910  0.3376
  172MOL0     C22608  -2.418   9.514   3.954  1.0664  0.2666  0.1399
  172MOL0     C22609  -2.506   9.396   3.999 -0.7287  1.4073 -0.4699
  172MOL0     C22610  -2.448   9.252   3.986 -0.2896 -1.5390 -0.7332
  172MOL0     C22611  -2.430   9.221   3.840  0.4689  0.0555  0.4752
  172MOL0     C22612  -2.386   9.083   3.824 -0.3378  0.8935  0.1647
  172MOL0     C22613  -2.362   9.044   3.677 -0.6917 -0.4471 -0.3362
  172MOL0     C22614  -2.316   8.900   3.669  0.0234  0.1154  0.7094
  172MOL0     C22615  -2.187   8.865   3.740  0.5801 -0.2324 -0.4117
  172MOL0    Cl22616  -2.046   8.941   3.642  0.0259  0.1505  0.2311
  172MOL0     C22617  -2.072   9.461   3.884  0.1049 -0.2099  0.0257
  172MOL0     C22618  -1.971   9.498   3.791  0.8925 -0.4872 -0.4518
  172MOL0     O22619  -1.971   9.607   3.439 -0.1647  0.7755  0.5134
  172MOL0     C22620  -1.756   9.718   3.286 -0.4729  0.1474 -1.1385
  172MOL0     C22621  -1.648   9.786   3.228 -0.4073 -0.0344  1.0252
  172MOL0     N22622  -1.290  10.474   3.145 -0.3089  0.6105 -0.1044
  172MOL0     N22623  -1.193  10.527   3.066  0.7189  0.3806 -0.2353
  172MOL0     C22624  -0.044  10.976   2.604 -0.1938  0.6568 -0.1977
  172MOL0     C22625   0.091  11.007   2.629 -0.5462 -0.2717  0.8474
  172MOL0     C22626   0.411  11.249   2.751 -0.1099 -0.0709  0.2881
  172MOL0     C22627   0.511  11.179   2.819  0.4573  0.2531 -0.2042
  172MOL0     C22628   0.643  11.233   2.829  0.2028 -1.2717  0.0977
  172MOL0     C22629   0.674  11.351   2.764 -0.9538 -0.5203  0.9213
  172MOL0     O22630   0.808  11.398   2.779  0.0727  0.0594 -0.0287
  172MOL0     C22631   0.846  11.516   2.717  0.2650  0.0109 -0.0461
  172MOL0     C22632   0.999  11.537   2.726  0.5395  0.6379 -0.0309
  172MOL0     C22633   1.035  11.625   2.853  0.3653  0.1712  0.9145
  172MOL0     C22634   1.013  11.561   2.989  0.1109 -0.1376 -0.0235
  172MOL0     C22635   1.116  11.463   3.007  0.0039  1.3071  0.1995
  172MOL0     C22636   1.198  11.371   3.004 -0.3767 -0.1310  0.9269
  172MOL0     C22637   0.572  11.419   2.694  0.6152  0.3057 -0.4384
  172MOL0     C22638   0.441  11.372   2.689  0.2074 -0.3239 -0.6019
  172MOL0     H22639   0.066  11.073   2.957 -0.7210  1.3230 -0.4029
  172MOL0     H22640  -0.150  10.998   2.924 -1.8637  0.1653 -1.8091
  172MOL0     H22641  -0.393  10.920   2.815  0.8793 -0.3849 -0.1027
  172MOL0     H22642  -0.250  10.824   2.836  1.7954  1.2140 -0.0963
  172MOL0     H22643  -0.349  10.652   2.672 -0.4047  0.3623 -1.5901
  172MOL0     H22644  -0.488  10.754   2.636 -1.6006  1.2723  1.8303
  172MOL0     H22645  -0.577  10.750   2.843  0.4914  0.3113 -0.2888
  172MOL0     H22646  -0.444  10.648   2.907 -1.6118 -0.5905  1.2446
  172MOL0     H22647  -0.598  10.564   2.651  0.3534 -1.3349 -1.3062
  172MOL0     H22648  -0.511  10.464   2.758  0.3635  0.2047  1.3917
  172MOL0     H22649  -0.702  10.475   2.934 -6.1019 -2.5921 -0.2452
  172MOL0     H22650  -0.725  10.418   2.768  2.6334 -0.6106 -1.0705
  172MOL0     H22651  -0.847  10.658   2.737 -2.2222 -1.7812  0.5416
  172MOL0     H22652  -0.776  10.700   2.882  0.5250  0.7066 -2.5574
  172MOL0     H22653  -1.022  10.654   2.887  1.4623  1.1961  1.2517
  172MOL0     H22654  -0.997  10.489   2.851 -1.9926  0.7978  0.2821
  172MOL0     H22655  -0.921  10.659   3.087  1.7965  0.0850 -1.2956
  172MOL0     H22656  -0.863  10.490   3.092  0.0254 -0.0559 -0.5943
  172MOL0     H22657  -1.010  10.398   3.296 -0.2128  0.5957  2.0367
  172MOL0     H22658  -1.397  10.377   3.373 -1.6806 -2.6262  0.1864
  172MOL0     H22659  -1.249  10.392   3.471 -0.5593  0.4973  0.2846
  172MOL0     H22660  -1.249  10.169   3.465  0.0134 -0.1345  0.7453
  172MOL0     H22661  -1.180  10.185   3.308  0.3020 -1.0725  1.4353
  172MOL0     H22662  -1.466  10.137   3.361  0.7920 -1.1072  0.8405
  172MOL0     H22663  -1.409  10.159   3.194 -0.7804 -0.4346 -0.9783
  172MOL0     H22664  -1.332   9.926   3.374 -0.4989 -5.1532 -3.1506
  172MOL0     H22665  -1.259   9.979   3.222  0.9619  1.1027  1.7304
  172MOL0     H22666  -1.508   9.928   3.494 -2.4018  1.0234  2.2430
  172MOL0     H22667  -1.675   9.823   3.606 -0.2034  0.6008 -0.3285
  172MOL0     H22668  -2.083   9.810   3.723 -2.8725  0.5620  2.2542
  172MOL0     H22669  -2.267   9.731   3.845  0.8140  1.7262 -3.2337
  172MOL0     H22670  -2.435   9.508   3.846  1.1313 -4.2290  0.1804
  172MOL0     H22671  -2.442   9.612   3.996  0.0390  1.9396 -3.9455
  172MOL0     H22672  -2.601   9.390   3.946 -0.0212 -3.3177 -1.6767
  172MOL0     H22673  -2.530   9.420   4.103 -2.8909  1.8567 -1.0314
  172MOL0     H22674  -2.517   9.175   4.023  0.7431 -1.0912  2.4182
  172MOL0     H22675  -2.361   9.245   4.051 -1.4208  3.8400  1.9078
  172MOL0     H22676  -2.522   9.236   3.784  0.2283  0.1802  0.8991
  172MOL0     H22677  -2.359   9.292   3.797  0.5761  0.0595  0.6588
  172MOL0     H22678  -2.464   9.013   3.855  0.1643  1.3695  2.7334
  172MOL0     H22679  -2.296   9.063   3.884  1.1862 -1.5690 -2.6434
  172MOL0     H22680  -2.287   9.110   3.631 -1.7417  0.7531 -0.3933
  172MOL0     H22681  -2.455   9.066   3.624 -1.1640  1.4624  1.1660
  172MOL0     H22682  -2.402   8.841   3.703 -0.0864 -0.1769 -0.0589
  172MOL0     H22683  -2.299   8.880   3.563  4.1663  2.3304  0.7334
  172MOL0     H22684  -2.175   8.756   3.745 -1.3496 -0.6539 -2.9923
  172MOL0     H22685  -2.182   8.909   3.840 -2.0445  1.4556 -0.9401
  172MOL0     H22686  -2.053   9.365   3.932  1.8587 -1.4518 -2.8647
  172MOL0     H22687  -1.883   9.438   3.772  3.8729  3.2337  0.3410
  172MOL0     H22688  -1.822   9.661   3.222  0.6558 -3.3278  0.5784
  172MOL0     H22689  -1.627   9.777   3.122  4.0650  0.5285  1.6804
  172MOL0     H22690  -0.077  10.953   2.504  1.5156 -0.5262 -0.5333
  172MOL0     H22691   0.157  11.020   2.544 -0.2638 -0.3828  1.0502
  172MOL0     H22692   0.480  11.094   2.878 -0.2934  0.4991 -0.2395
  172MOL0     H22693   0.725  11.185   2.881  1.3873 -0.5006 -0.9806
  172MOL0     H22694   0.803  11.602   2.770 -0.2867 -1.3353  1.7986
  172MOL0     H22695   0.815  11.513   2.613  2.0715 -2.3291 -0.5940
  172MOL0     H22696   1.057  11.445   2.739 -0.5031  0.0468  0.6188
  172MOL0     H22697   1.033  11.588   2.636  1.3691 -1.9937 -1.3051
  172MOL0     H22698   0.986  11.721   2.869  5.0768  3.3275 -1.3703
  172MOL0     H22699   1.137  11.660   2.836 -0.5373  2.5919  0.1091
  172MOL0     H22700   1.034  11.633   3.069  2.4809  1.5604 -2.0154
  172MOL0     H22701   0.914  11.518   3.003  0.5580 -0.5990  2.0223
  172MOL0     H22702   1.268  11.290   3.008  0.0015  0.0105 -1.2622
  172MOL0     H22703   0.604  11.513   2.650  2.3984 -0.6230 -1.2334
  172MOL0     H22704   0.366  11.431   2.638  0.5121  2.8278  2.2502
  173MOL0     O22705  11.248   1.586  11.125 -0.4790 -0.9165 -0.7783
  173MOL0     C22706  11.323   1.685  11.127 -0.3460 -0.3455  0.0293
  173MOL0     O22707  11.278   1.822  11.111  0.3390  0.3010 -0.6895
  173MOL0     C22708  11.152   1.865  11.105  1.2245 -0.4445  0.1882
  173MOL0     C22709  11.027   1.799  11.093 -0.3701 -0.2001 -1.8626
  173MOL0     C22710  10.900   1.858  11.094 -0.3262  0.3075 -0.2053
  173MOL0     C22711  10.885   1.994  11.103 -0.8626  0.3250 -0.1174
  173MOL0     O22712  10.777   2.081  11.096 -0.6124 -0.1578  0.6176
  173MOL0     C22713  10.645   2.024  11.058  0.1794  0.2266  0.0790
  173MOL0     C22714  10.535   2.127  11.065  0.5421 -0.8220 -0.6959
  173MOL0     C22715  10.397   2.064  11.053 -0.1284 -0.1751  0.3291
  173MOL0     C22716  10.340   1.982  11.171  0.5979  0.0988 -1.1960
  173MOL0     C22717  10.194   1.925  11.148  0.3079  0.6054 -0.0794
  173MOL0     C22718  10.083   2.024  11.117  0.0375  0.1189  0.3668
  173MOL0     C22719   9.950   1.957  11.166 -0.4072 -1.0238 -0.1962
  173MOL0     C22720   9.838   2.056  11.136 -0.7235 -0.2291 -0.0190
  173MOL0     N22721   9.707   1.984  11.151 -0.1922 -0.4113  1.3955
  173MOL0     C22722   9.640   2.000  11.268 -0.0297 -0.5745  0.0553
  173MOL0     C22723   9.527   1.921  11.249  1.1080 -0.5144 -0.2627
  173MOL0     C22724   9.417   1.935  11.355  0.3110  0.2583  0.6436
  173MOL0     C22725   9.303   2.014  11.296 -0.2760 -0.8617  0.6425
  173MOL0     C22726   9.158   1.971  11.331  0.2128 -0.3667  0.1612
  173MOL0     C22727   9.059   2.050  11.241  0.9560  0.7652  0.3245
  173MOL0     O22728   9.037   2.189  11.282  0.7252  0.9625 -0.0453
  173MOL0     C22729   8.924   2.261  11.228 -0.2469  0.2145 -1.0883
  173MOL0     C22730   8.854   2.234  11.110 -0.7015  0.1921 -0.2655
  173MOL0     C22731   8.745   2.313  11.078 -0.4440 -0.2864  0.2490
  173MOL0     C22732   8.704   2.427  11.151  0.2671 -0.1336  0.6622
  173MOL0     C22733   8.577   2.502  11.113  0.2881 -0.2155  0.2719
  173MOL0     O22734   8.518   2.578  11.206  0.6538 -0.7197  0.3279
  173MOL0     C22735   8.411   2.647  11.163 -0.0135  0.1177 -0.8127
  173MOL0     C22736   8.289   2.581  11.161  0.6278 -0.2123 -0.3580
  173MOL0     C22737   8.179   2.654  11.131  0.1217  0.2593  0.5893
  173MOL0     C22738   8.191   2.789  11.098  0.3362 -0.3213 -0.1801
  173MOL0     O22739   8.078   2.863  11.095  0.4946 -0.1993 -0.3135
  173MOL0     C22740   8.016   2.865  10.962 -1.1970  0.6088  0.6113
  173MOL0     C22741   7.933   2.996  10.964 -0.0731 -0.1151 -0.1320
  173MOL0     C22742   7.812   2.985  11.058  0.1114 -0.6079  0.4197
  173MOL0     C22743   7.764   3.133  11.093 -0.2594  0.9922 -0.3678
  173MOL0     C22744   7.627   3.125  11.166  0.3332 -0.0095  0.8480
  173MOL0     C22745   7.657   3.103  11.312  0.3356  0.4893  1.0426
  173MOL0     C22746   7.540   3.138  11.402  0.2279  0.2458  1.0652
  173MOL0     C22747   7.518   3.284  11.396  0.1486 -0.0811 -0.1459
  173MOL0    Cl22748   7.462   3.339  11.560  0.1460 -0.0462 -0.0882
  173MOL0     C22749   8.308   2.853  11.086 -0.5939  0.1458  1.2152
  173MOL0     C22750   8.420   2.783  11.116  0.0741  0.1922  0.3823
  173MOL0     O22751   8.539   2.478  10.997  0.8837 -0.4076  0.6825
  173MOL0     C22752   8.783   2.455  11.258  0.0174  0.4936  0.3042
  173MOL0     C22753   8.890   2.374  11.300  0.3444 -0.0647 -0.2817
  173MOL0     N22754   9.531   1.864  11.125 -1.1196 -1.2616  0.5909
  173MOL0     N22755   9.647   1.897  11.063 -0.1875  0.5253 -0.2994
  173MOL0     C22756  11.009   2.062  11.126  0.4676  0.1151 -0.4333
  173MOL0     C22757  11.141   2.008  11.124  0.5279 -0.0672  0.4015
  173MOL0     C22758  11.469   1.667  11.133 -0.1588 -0.8048  0.2768
  173MOL0     C22759  11.528   1.547  11.190  0.7988 -0.3973 -0.2762
  173MOL0     C22760  11.671   1.532  11.192  0.4503 -1.1401  0.0818
  173MOL0     C22761  11.745   1.640  11.130  0.1683  0.2797  0.2522
  173MOL0     O22762  11.886   1.655  11.123 -0.0919  0.8391  0.4365
  173MOL0     C22763  11.966   1.587  11.212 -0.5222 -0.0064 -0.1509
  173MOL0     C22764  11.936   1.616  11.363 -0.7271  0.3803 -1.2243
  173MOL0     C22765  12.041   1.539  11.449  0.3071  0.8123 -0.8174
  173MOL0     C22766  11.993   1.397  11.511  0.7330 -0.7361  0.1967
  173MOL0     C22767  12.096   1.348  11.597  1.2812 -0.4419  0.0100
  173MOL0     C22768  12.193   1.322  11.652  0.5537  0.2527 -0.4917
  173MOL0     C22769  11.682   1.738  11.065 -1.2027  0.4705 -0.1320
  173MOL0     C22770  11.550   1.769  11.078 -0.5340  0.3079 -0.0609
  173MOL0     H22771  11.032   1.694  11.066 -1.2024 -0.1255 -2.3101
  173MOL0     H22772  10.816   1.792  11.073 -0.8174  0.9731 -0.3572
  173MOL0     H22773  10.630   1.936  11.122  0.9282 -0.3064 -0.4707
  173MOL0     H22774  10.665   1.983  10.959 -0.9387 -2.9395  1.0181
  173MOL0     H22775  10.556   2.200  10.986  1.5182 -0.8252 -0.4490
  173MOL0     H22776  10.526   2.185  11.156 -1.7071 -0.6305 -0.9629
  173MOL0     H22777  10.382   2.000  10.966 -0.8899 -0.9049  0.9865
  173MOL0     H22778  10.333   2.150  11.031  0.0717 -0.0590  0.1903
  173MOL0     H22779  10.407   1.897  11.184 -0.2277 -0.4575 -0.4681
  173MOL0     H22780  10.344   2.036  11.266  0.0346 -1.6283 -0.1433
  173MOL0     H22781  10.173   1.862  11.235  0.4602  1.6308  0.7299
  173MOL0     H22782  10.203   1.854  11.066  1.3615  0.0048  0.5333
  173MOL0     H22783  10.088   2.049  11.010 -2.0437 -1.0257 -0.0528
  173MOL0     H22784  10.100   2.111  11.181  1.8413  0.0190  0.0824
  173MOL0     H22785   9.935   1.865  11.109 -2.5858 -1.1069  0.4337
  173MOL0     H22786   9.959   1.919  11.268 -3.7022  1.2620  1.1309
  173MOL0     H22787   9.846   2.103  11.038 -0.2481  0.9326  0.5593
  173MOL0     H22788   9.852   2.136  11.209 -2.7237  3.1856 -3.0924
  173MOL0     H22789   9.669   2.061  11.353  1.2420  2.9257 -2.6539
  173MOL0     H22790   9.448   1.977  11.451 -2.2650  1.4643  1.0481
  173MOL0     H22791   9.382   1.832  11.361  0.9093 -0.3128 -3.0434
  173MOL0     H22792   9.319   2.003  11.189  2.2224 -1.4193  1.0283
  173MOL0     H22793   9.321   2.117  11.327  1.3091 -1.6122  2.3677
  173MOL0     H22794   9.150   1.865  11.306  0.9879 -0.2564 -0.5919
  173MOL0     H22795   9.140   1.986  11.438 -0.2918 -2.4334  0.4076
  173MOL0     H22796   8.966   1.993  11.231 -1.1198  4.1144 -1.5514
  173MOL0     H22797   9.091   2.044  11.137  0.3330  3.5321 -0.1001
  173MOL0     H22798   8.882   2.152  11.045 -0.6815 -0.5111  0.6109
  173MOL0     H22799   8.690   2.298  10.986 -3.2692  2.7760  1.1985
  173MOL0     H22800   8.280   2.474  11.169 -0.1353 -0.2353 -1.3731
  173MOL0     H22801   8.080   2.611  11.137 -0.3102  1.2866  1.1262
  173MOL0     H22802   7.958   2.773  10.952 -0.8316  0.1875  2.1699
  173MOL0     H22803   8.082   2.860  10.875 -2.1843 -1.5019 -0.0908
  173MOL0     H22804   7.883   3.004  10.867 -0.4514  0.8008  0.1332
  173MOL0     H22805   7.998   3.083  10.981  0.7425 -0.4228 -1.5195
  173MOL0     H22806   7.832   2.939  11.156  1.1129  1.3896  1.2096
  173MOL0     H22807   7.737   2.932  11.000  1.1454 -1.7214  0.0660
  173MOL0     H22808   7.827   3.194  11.159 -2.0768  1.6724  0.8309
  173MOL0     H22809   7.733   3.177  10.998 -1.8729 -0.3622 -0.5277
  173MOL0     H22810   7.562   3.043  11.135 -2.4495  1.4458  2.3811
  173MOL0     H22811   7.572   3.219  11.150 -0.1848 -0.2112  1.4045
  173MOL0     H22812   7.752   3.140  11.352  0.2149  0.2759  1.5433
  173MOL0     H22813   7.670   2.994  11.323  0.7258  0.3313 -0.7801
  173MOL0     H22814   7.452   3.086  11.362  0.2760  0.8628  0.1452
  173MOL0     H22815   7.559   3.099  11.503 -2.0928 -1.7546  0.8432
  173MOL0     H22816   7.439   3.309  11.325 -0.0551 -1.8536 -0.5917
  173MOL0     H22817   7.609   3.338  11.368  0.5013  1.7760  3.8614
  173MOL0     H22818   8.311   2.959  11.063 -0.1181  0.1498  1.2967
  173MOL0     H22819   8.513   2.836  11.097 -0.2367 -0.1366 -2.4363
  173MOL0     H22820   8.746   2.534  11.323  2.9993  1.0363  1.4974
  173MOL0     H22821   8.944   2.385  11.394 -0.3296 -1.2097  0.2635
  173MOL0     H22822  11.018   2.170  11.119  0.5221  0.1530  0.1515
  173MOL0     H22823  11.232   2.067  11.129 -1.5056  3.2295  1.4880
  173MOL0     H22824  11.456   1.472  11.220  0.3635 -1.1614 -2.9680
  173MOL0     H22825  11.720   1.452  11.246 -1.6035 -2.6341 -0.1481
  173MOL0     H22826  12.067   1.608  11.175 -0.2970 -0.3565  0.2511
  173MOL0     H22827  11.950   1.480  11.196  0.3123  0.2078 -2.9131
  173MOL0     H22828  11.947   1.723  11.381  2.4782  0.0457 -0.7256
  173MOL0     H22829  11.839   1.579  11.399 -0.3400 -0.3443 -0.9030
  173MOL0     H22830  12.061   1.605  11.535  1.8903 -0.5844 -0.0504
  173MOL0     H22831  12.136   1.526  11.395  0.2320  0.0927 -0.7732
  173MOL0     H22832  11.894   1.408  11.557  1.6941  1.0158  2.0017
  173MOL0     H22833  11.991   1.328  11.426 -2.2217  1.8694 -2.0810
  173MOL0     H22834  12.282   1.300  11.707 -1.2434  0.3052  2.6432
  173MOL0     H22835  11.731   1.805  10.995 -0.4010 -0.6333 -0.6653
  173MOL0     H22836  11.515   1.867  11.049 -0.5557 -0.4292 -2.8500
  174MOL0     O22837   8.522   2.894   2.862 -0.6767  0.8647 -0.1514
  174MOL0     C22838   8.516   2.773   2.890 -0.0524 -0.5996  0.1293
  174MOL0     O22839   8.416   2.693   2.864  0.2010 -0.4308  0.1449
  174MOL0     C22840   8.297   2.729   2.792 -0.8334 -0.4964  0.6903
  174MOL0     C22841   8.310   2.795   2.665  0.2537  0.6815 -0.0293
  174MOL0     C22842   8.187   2.825   2.590  0.5439 -0.1600  0.0879
  174MOL0     C22843   8.056   2.790   2.635  0.0259 -0.0520 -0.5572
  174MOL0     O22844   7.938   2.809   2.560  0.4798  0.2969  0.4824
  174MOL0     C22845   7.942   2.895   2.442 -0.1061  0.6808  0.2199
  174MOL0     C22846   7.812   2.941   2.391 -0.7643  0.1205  0.4064
  174MOL0     C22847   7.718   3.001   2.502 -0.0779 -0.2925  0.1033
  174MOL0     C22848   7.586   3.058   2.456 -0.3439 -0.0353 -0.3721
  174MOL0     C22849   7.516   3.132   2.582  0.0709 -0.0799 -0.0938
  174MOL0     C22850   7.449   3.027   2.673 -0.4935  0.8054  1.1768
  174MOL0     C22851   7.355   3.088   2.779 -0.7497 -0.4931  0.5209
  174MOL0     C22852   7.220   3.143   2.722 -0.3268 -0.1916 -0.0480
  174MOL0     N22853   7.140   3.196   2.838  0.6130  0.2612 -0.4549
  174MOL0     C22854   7.083   3.117   2.940  0.3422 -0.9284  0.8726
  174MOL0     C22855   6.994   3.205   2.996 -0.2762 -0.7838 -0.2058
  174MOL0     C22856   6.885   3.168   3.093 -0.7799 -0.5268  0.1301
  174MOL0     C22857   6.926   3.140   3.236 -0.2741  0.2636 -0.2148
  174MOL0     C22858   7.009   3.247   3.308 -0.2752 -0.5901 -0.2489
  174MOL0     C22859   6.960   3.248   3.456 -0.0184  0.4526  0.2876
  174MOL0     O22860   6.831   3.312   3.462  0.0240  0.8448  0.3507
  174MOL0     C22861   6.756   3.317   3.574 -0.7754  0.7383 -1.2276
  174MOL0     C22862   6.817   3.318   3.696  0.4027  0.3292 -0.7995
  174MOL0     C22863   6.737   3.353   3.808  0.5132 -0.3071 -0.1631
  174MOL0     C22864   6.595   3.361   3.798  0.5940 -0.0255 -0.7048
  174MOL0     C22865   6.503   3.380   3.911 -0.3444  0.2205  1.1633
  174MOL0     O22866   6.378   3.418   3.876  0.2130 -0.1963 -0.1256
  174MOL0     C22867   6.276   3.427   3.970 -0.0013 -0.0384 -0.3355
  174MOL0     C22868   6.160   3.484   3.921 -0.2748 -0.0711 -0.1359
  174MOL0     C22869   6.050   3.491   3.992  0.1500  0.8868 -1.1859
  174MOL0     C22870   6.046   3.460   4.134  0.1844 -0.2577 -0.1133
  174MOL0     O22871   5.931   3.497   4.191  0.2647  0.1867  0.1917
  174MOL0     C22872   5.940   3.590   4.297  0.0736 -0.5196 -0.1769
  174MOL0     C22873   5.850   3.716   4.287  0.1609  0.1229 -0.6805
  174MOL0     C22874   5.819   3.775   4.146 -0.0223  0.5179 -0.4450
  174MOL0     C22875   5.725   3.901   4.173 -0.2877  0.2477 -0.4596
  174MOL0     C22876   5.705   3.960   4.033 -1.0433  0.7944 -0.5297
  174MOL0     C22877   5.599   4.071   4.037  0.7318  0.1857 -0.2059
  174MOL0     C22878   5.638   4.181   4.134 -0.3061  0.9993  0.0226
  174MOL0     C22879   5.550   4.306   4.122 -0.4751  0.6810 -0.7485
  174MOL0    Cl22880   5.379   4.264   4.169 -0.0390  0.3768 -0.5476
  174MOL0     C22881   6.162   3.390   4.187  0.3940 -0.9556  0.3907
  174MOL0     C22882   6.279   3.383   4.108  0.1048  0.1449 -0.2347
  174MOL0     O22883   6.533   3.327   4.012  0.2284 -0.6281 -0.8589
  174MOL0     C22884   6.539   3.334   3.672 -0.0375  0.3688  0.5716
  174MOL0     C22885   6.622   3.326   3.558  0.4642  0.3041  0.2516
  174MOL0     N22886   7.003   3.336   2.935  0.2963 -0.2615  0.5656
  174MOL0     N22887   7.079   3.318   2.841 -0.1217  0.3026 -0.3440
  174MOL0     C22888   8.048   2.733   2.761  0.3730 -0.1736 -0.0754
  174MOL0     C22889   8.165   2.699   2.835 -0.2005 -0.9039  0.5760
  174MOL0     C22890   8.636   2.713   2.953 -0.7318 -0.6684 -0.2352
  174MOL0     C22891   8.653   2.575   2.958  0.7559  0.1115 -0.4223
  174MOL0     C22892   8.773   2.528   3.017  0.4389 -1.4367  0.8658
  174MOL0     C22893   8.864   2.612   3.085  0.1195  0.2246  0.2782
  174MOL0     O22894   8.985   2.582   3.148  1.1040  0.2486 -0.1432
  174MOL0     C22895   8.995   2.451   3.210 -0.4571 -0.0771  0.4718
  174MOL0     C22896   9.074   2.468   3.337  0.1891 -0.8138 -0.3060
  174MOL0     C22897   9.226   2.435   3.327 -0.7923 -0.2168  0.2207
  174MOL0     C22898   9.271   2.288   3.317 -0.4549  0.2135 -0.4561
  174MOL0     C22899   9.235   2.229   3.449 -0.9816  0.5165  0.2307
  174MOL0     C22900   9.201   2.185   3.553  0.7006 -1.3208 -0.2196
  174MOL0     C22901   8.855   2.744   3.077 -0.1039 -0.9272  0.9121
  174MOL0     C22902   8.739   2.799   3.007  0.3732 -0.5599  0.2250
  174MOL0     H22903   8.412   2.808   2.630  0.0135 -1.6622 -1.9467
  174MOL0     H22904   8.205   2.885   2.501  1.2676 -2.1965 -1.2247
  174MOL0     H22905   7.972   2.829   2.361  0.0475 -0.0243  0.8449
  174MOL0     H22906   8.009   2.981   2.447 -1.5857  1.8277  2.1960
  174MOL0     H22907   7.753   2.855   2.359  0.7784 -1.6429  2.0630
  174MOL0     H22908   7.826   3.008   2.306  0.3256  1.4925  1.5988
  174MOL0     H22909   7.771   3.083   2.550  1.1097 -1.5688  1.0583
  174MOL0     H22910   7.712   2.921   2.577  0.4838  0.9603  1.5279
  174MOL0     H22911   7.606   3.129   2.375  0.5752 -0.8283 -0.8684
  174MOL0     H22912   7.522   2.976   2.422 -0.1951 -0.3793  0.1722
  174MOL0     H22913   7.446   3.213   2.563  0.6157  1.0072  2.1733
  174MOL0     H22914   7.601   3.182   2.630 -1.1860  1.8544  0.2458
  174MOL0     H22915   7.532   2.977   2.723 -0.8611 -0.8651  0.1870
  174MOL0     H22916   7.407   2.945   2.613 -2.7279 -0.5985  4.3421
  174MOL0     H22917   7.335   3.020   2.862  2.5705 -0.5464  1.4262
  174MOL0     H22918   7.401   3.174   2.828 -0.8408  0.6368 -1.2632
  174MOL0     H22919   7.171   3.075   2.651 -0.7910  2.5568 -2.5930
  174MOL0     H22920   7.239   3.231   2.660 -1.1687  0.6531  0.8532
  174MOL0     H22921   7.105   3.014   2.964 -0.2052 -0.7164  2.4217
  174MOL0     H22922   6.823   3.085   3.059 -0.5027 -1.6690  2.2231
  174MOL0     H22923   6.810   3.248   3.099  0.8970  1.0856  0.3740
  174MOL0     H22924   6.981   3.045   3.239  2.7039  1.8349 -0.6521
  174MOL0     H22925   6.835   3.135   3.296  0.7067 -2.3984  1.2518
  174MOL0     H22926   7.113   3.220   3.288 -0.9174 -3.1788 -0.4078
  174MOL0     H22927   7.003   3.350   3.272 -1.5184 -0.7716 -0.6007
  174MOL0     H22928   7.026   3.304   3.523 -0.7764  2.7652 -0.7746
  174MOL0     H22929   6.960   3.144   3.491  2.7379 -0.9599 -3.3047
  174MOL0     H22930   6.920   3.296   3.724 -0.5848 -0.1114  3.0201
  174MOL0     H22931   6.782   3.375   3.905  2.9521 -0.0766 -1.2679
  174MOL0     H22932   6.154   3.509   3.816  1.5238 -0.0372 -0.2612
  174MOL0     H22933   5.960   3.533   3.947 -0.6432 -1.2510 -1.6904
  174MOL0     H22934   6.036   3.642   4.302 -0.4929  0.4987  0.3999
  174MOL0     H22935   5.922   3.540   4.392 -1.4773  0.3280 -0.0057
  174MOL0     H22936   5.887   3.791   4.358 -0.3510  0.0207 -0.3052
  174MOL0     H22937   5.752   3.694   4.329 -0.5852  1.1607 -1.8135
  174MOL0     H22938   5.778   3.701   4.077 -0.7232  1.0795 -0.6548
  174MOL0     H22939   5.913   3.814   4.106 -1.8274  2.6496 -2.9531
  174MOL0     H22940   5.631   3.878   4.224  0.6011 -4.2069 -0.4645
  174MOL0     H22941   5.784   3.969   4.235  0.5264  0.9986 -1.9958
  174MOL0     H22942   5.682   3.884   3.957 -0.9065 -1.5990  1.6863
  174MOL0     H22943   5.802   4.001   4.004 -0.1788 -0.9307 -0.2210
  174MOL0     H22944   5.512   4.018   4.077  0.7330 -0.1052 -0.5778
  174MOL0     H22945   5.568   4.103   3.937  0.4687  0.2428 -0.1060
  174MOL0     H22946   5.617   4.159   4.239 -5.8704  7.1375  0.8481
  174MOL0     H22947   5.742   4.213   4.120 -0.2063  2.2046  2.8775
  174MOL0     H22948   5.546   4.333   4.016  0.9810  0.4327 -0.8841
  174MOL0     H22949   5.593   4.387   4.181  1.2864 -0.8956  0.2258
  174MOL0     H22950   6.160   3.355   4.290 -0.6421 -1.7331  0.1177
  174MOL0     H22951   6.363   3.347   4.166 -0.0752  0.9245  0.5297
  174MOL0     H22952   6.435   3.345   3.645  0.6210  2.5984 -1.4373
  174MOL0     H22953   6.581   3.310   3.459  0.6299 -0.1596  0.2570
  174MOL0     H22954   7.951   2.718   2.808  0.6268  1.0084  0.8893
  174MOL0     H22955   8.164   2.630   2.919  8.9134  0.7929  3.0952
  174MOL0     H22956   8.581   2.502   2.920  0.5205 -0.0644  0.3502
  174MOL0     H22957   8.799   2.424   3.002 -0.9396 -1.6330 -0.4592
  174MOL0     H22958   9.049   2.386   3.141  1.9253 -0.6132  2.7031
  174MOL0     H22959   8.897   2.411   3.238  0.2241 -1.3892  1.0899
  174MOL0     H22960   9.065   2.567   3.381 -2.1077 -0.6054 -1.1220
  174MOL0     H22961   9.020   2.402   3.406 -1.1193 -0.7952 -1.2637
  174MOL0     H22962   9.284   2.480   3.409 -1.9889  1.7866  0.0309
  174MOL0     H22963   9.259   2.495   3.242  1.7390 -0.0701  1.2243
  174MOL0     H22964   9.222   2.234   3.236  0.0239 -0.8379 -0.0624
  174MOL0     H22965   9.379   2.283   3.301 -0.6933  0.1189 -2.2579
  174MOL0     H22966   9.152   2.160   3.644 -3.2908 -2.0141 -2.3461
  174MOL0     H22967   8.927   2.816   3.113  0.5123 -1.5229  0.9032
  174MOL0     H22968   8.730   2.907   3.002  0.8187 -0.5482 -0.6349
  175MOL0     O22969  10.374   1.553   2.860 -0.3454 -0.0758 -0.6026
  175MOL0     C22970  10.382   1.644   2.944  0.3104  0.7556 -0.5806
  175MOL0     O22971  10.284   1.674   3.025  0.4611  0.8491 -0.2013
  175MOL0     C22972  10.162   1.604   3.027  0.0086 -0.2268  1.1479
  175MOL0     C22973  10.083   1.596   2.907  0.1238 -0.8903  0.5861
  175MOL0     C22974   9.960   1.531   2.907  0.2484 -0.6279  0.2050
  175MOL0     C22975   9.908   1.482   3.017  0.4823 -0.0674  0.3634
  175MOL0     O22976   9.787   1.423   3.022  0.0678 -0.1170  0.2265
  175MOL0     C22977   9.755   1.304   3.101 -0.6490  0.1989  0.5632
  175MOL0     C22978   9.606   1.281   3.094  1.0612  0.3993 -0.0672
  175MOL0     C22979   9.536   1.379   3.183  0.4502 -0.2236 -0.4483
  175MOL0     C22980   9.380   1.362   3.177 -0.6659 -0.4475 -0.4188
  175MOL0     C22981   9.311   1.438   3.293  0.4291 -0.5698  0.4701
  175MOL0     C22982   9.177   1.383   3.339  0.6478 -0.2298 -1.0003
  175MOL0     C22983   9.115   1.469   3.450  1.1927 -0.2906 -0.2403
  175MOL0     C22984   9.066   1.374   3.552 -0.5346 -0.2062 -0.3775
  175MOL0     N22985   8.977   1.440   3.646  0.6547  0.7815  0.3735
  175MOL0     C22986   9.003   1.503   3.770  0.3140  0.4237  0.4202
  175MOL0     C22987   8.882   1.530   3.826 -0.0783 -0.5373 -0.1438
  175MOL0     C22988   8.869   1.593   3.960  0.1710  0.2104  0.1565
  175MOL0     C22989   8.739   1.548   4.033 -0.7763  0.2650 -0.4938
  175MOL0     C22990   8.762   1.418   4.118  0.9875  0.5034  0.2797
  175MOL0     C22991   8.813   1.297   4.031 -0.1251 -1.2961 -0.1526
  175MOL0     O22992   8.782   1.160   4.074 -0.1366 -0.3665  0.5778
  175MOL0     C22993   8.844   1.092   4.175 -0.1090  0.0268  0.3806
  175MOL0     C22994   8.821   0.952   4.171 -0.7961  0.7498 -0.7439
  175MOL0     C22995   8.876   0.867   4.273  0.2729 -0.5572  0.5430
  175MOL0     C22996   8.955   0.925   4.376  1.7669  0.0410 -0.2283
  175MOL0     C22997   9.009   0.839   4.483 -0.2392  0.2450 -0.2313
  175MOL0     O22998   9.098   0.897   4.576  0.2197 -0.2092 -0.1478
  175MOL0     C22999   9.122   0.813   4.683  0.1939 -0.0796  0.2080
  175MOL0     C23000   9.043   0.812   4.795 -0.5964  0.2077 -0.5235
  175MOL0     C23001   9.087   0.737   4.907  0.1407  0.1270  0.4206
  175MOL0     C23002   9.199   0.661   4.902  0.4991  0.0077  1.4373
  175MOL0     O23003   9.231   0.569   4.993 -0.7771 -0.7322 -0.4601
  175MOL0     C23004   9.287   0.621   5.117 -0.0421  0.3557 -0.9618
  175MOL0     C23005   9.202   0.608   5.247  0.1955 -0.1138  0.2505
  175MOL0     C23006   9.077   0.697   5.255  0.4771 -0.5122  0.6831
  175MOL0     C23007   9.028   0.711   5.400  0.4889 -0.9816  0.4348
  175MOL0     C23008   8.900   0.800   5.394  0.0279 -0.7167  0.0216
  175MOL0     C23009   8.827   0.787   5.530  0.5020  0.4826  0.3659
  175MOL0     C23010   8.729   0.899   5.547 -0.6531 -0.1770  1.2026
  175MOL0     C23011   8.788   1.033   5.605 -0.0283  0.0327 -0.9259
  175MOL0    Cl23012   8.644   1.144   5.610  0.2792  0.5224 -0.0791
  175MOL0     C23013   9.292   0.686   4.803 -0.3713  0.3794 -0.3447
  175MOL0     C23014   9.250   0.755   4.691 -0.0636  0.1263 -0.5511
  175MOL0     O23015   8.979   0.723   4.477 -0.4887  0.8483  0.4184
  175MOL0     C23016   8.964   1.068   4.389 -0.2623 -0.0662 -1.1033
  175MOL0     C23017   8.913   1.147   4.279 -0.1336  0.3493 -0.0126
  175MOL0     N23018   8.791   1.500   3.729  0.1694 -0.3289 -0.3883
  175MOL0     N23019   8.845   1.451   3.622  0.5630 -0.0488 -1.3763
  175MOL0     C23020   9.993   1.488   3.141  0.5310  0.8396 -0.0766
  175MOL0     C23021  10.114   1.555   3.145 -0.1877  0.7762  0.4785
  175MOL0     C23022  10.512   1.700   2.979  0.6663  0.1889 -0.4138
  175MOL0     C23023  10.624   1.620   2.961 -0.6269 -0.5679  0.0248
  175MOL0     C23024  10.752   1.670   2.991 -0.3408  0.1888 -0.6714
  175MOL0     C23025  10.774   1.787   3.063 -0.8884  0.2304  0.4550
  175MOL0     O23026  10.896   1.840   3.088  0.9285 -0.3264 -0.1717
  175MOL0     C23027  11.005   1.790   3.014 -0.6926 -0.1444  0.8859
  175MOL0     C23028  11.116   1.898   3.023  0.4022  0.1945  0.0875
  175MOL0     C23029  11.260   1.850   3.026  0.2985  0.5225 -0.0422
  175MOL0     C23030  11.294   1.787   3.159  0.0736 -0.6450 -0.2589
  175MOL0     C23031  11.259   1.643   3.170  0.4183  0.2718 -0.0421
  175MOL0     C23032  11.252   1.523   3.172  0.4955 -0.2779  0.4532
  175MOL0     C23033  10.656   1.867   3.095 -0.5985  0.6480 -0.1081
  175MOL0     C23034  10.535   1.817   3.053 -0.5163 -0.6481 -0.2233
  175MOL0     H23035  10.119   1.654   2.822 -0.3839 -0.0065  0.9604
  175MOL0     H23036   9.900   1.523   2.817 -0.4834 -1.6772  0.7667
  175MOL0     H23037   9.790   1.303   3.204  1.3481 -2.7751 -0.0151
  175MOL0     H23038   9.802   1.212   3.065 -0.8243  0.5681 -0.6866
  175MOL0     H23039   9.587   1.182   3.134  0.1438  2.1918  4.5861
  175MOL0     H23040   9.569   1.287   2.991 -3.1323  0.1497  1.2508
  175MOL0     H23041   9.542   1.483   3.147  2.6506 -0.5259 -1.0938
  175MOL0     H23042   9.569   1.389   3.287 -0.4857  3.2116 -0.3351
  175MOL0     H23043   9.339   1.390   3.079 -0.6855  2.8878  0.4249
  175MOL0     H23044   9.359   1.257   3.196 -0.6744 -0.3277  0.2581
  175MOL0     H23045   9.299   1.539   3.251 -0.7835 -1.3466 -1.1436
  175MOL0     H23046   9.377   1.442   3.381 -2.6979  0.7572  2.9467
  175MOL0     H23047   9.183   1.281   3.376 -1.4665  0.0364  0.2461
  175MOL0     H23048   9.099   1.378   3.262 -0.5189 -2.1098  0.2121
  175MOL0     H23049   9.186   1.539   3.495 -1.9765  0.4250  4.3105
  175MOL0     H23050   9.025   1.526   3.424  1.6463  1.0219  0.9548
  175MOL0     H23051   9.149   1.329   3.608 -1.9109 -0.9919  1.0983
  175MOL0     H23052   9.020   1.288   3.503  3.6655 -1.9107 -1.8801
  175MOL0     H23053   9.096   1.502   3.826 -0.5779  0.2947  1.9253
  175MOL0     H23054   8.866   1.701   3.943  0.0220  0.4581  1.6358
  175MOL0     H23055   8.959   1.572   4.017 -0.1714 -2.9291 -0.2817
  175MOL0     H23056   8.660   1.533   3.960 -1.1096 -4.5731  0.5508
  175MOL0     H23057   8.730   1.633   4.102 -3.3773  0.3923 -0.9049
  175MOL0     H23058   8.830   1.426   4.203 -0.6158  0.9854  1.5692
  175MOL0     H23059   8.670   1.391   4.171  2.5819 -1.4631  2.1850
  175MOL0     H23060   8.921   1.313   4.022 -0.0809  0.4961  2.5141
  175MOL0     H23061   8.777   1.308   3.928  1.1025  0.0806 -0.4639
  175MOL0     H23062   8.768   0.902   4.091 -1.6990  0.2159  0.1656
  175MOL0     H23063   8.885   0.761   4.257  1.7386  0.0305 -3.9730
  175MOL0     H23064   8.956   0.876   4.787  1.1415  3.0372  1.4448
  175MOL0     H23065   9.025   0.732   4.995  0.3014 -1.9466  0.4627
  175MOL0     H23066   9.325   0.724   5.112  0.2255  0.4407  1.6214
  175MOL0     H23067   9.379   0.563   5.127 -0.4058  0.1668  2.0658
  175MOL0     H23068   9.260   0.611   5.339 -3.9401  1.7323  3.1199
  175MOL0     H23069   9.155   0.510   5.239 -1.5415  0.4090  2.7840
  175MOL0     H23070   9.002   0.656   5.186  1.6765  2.1602 -2.5092
  175MOL0     H23071   9.099   0.798   5.221  0.7235 -1.0050 -0.7042
  175MOL0     H23072   9.000   0.616   5.445 -0.1849  0.2698  2.8665
  175MOL0     H23073   9.109   0.755   5.460  0.9337 -1.7384  0.3965
  175MOL0     H23074   8.837   0.771   5.310  0.1198 -0.9554  0.0338
  175MOL0     H23075   8.942   0.900   5.377  0.7837 -1.0915 -0.4068
  175MOL0     H23076   8.897   0.778   5.613  0.4981 -2.4711  0.1367
  175MOL0     H23077   8.770   0.694   5.523  1.7251 -0.1877 -1.1441
  175MOL0     H23078   8.672   0.919   5.455 -2.4746  0.3163  2.3737
  175MOL0     H23079   8.652   0.878   5.622 -1.7417 -0.2076  0.1203
  175MOL0     H23080   8.874   1.074   5.551  1.0179  0.6691  1.1065
  175MOL0     H23081   8.818   1.018   5.710 -0.5721  0.4530 -0.7072
  175MOL0     H23082   9.383   0.628   4.801 -0.2049  0.6511 -0.8989
  175MOL0     H23083   9.324   0.756   4.612  0.6972  2.5081  0.1227
  175MOL0     H23084   9.020   1.116   4.469 -3.4798 -1.3217  2.1150
  175MOL0     H23085   8.899   1.254   4.293 -0.3160  0.3705 -0.3420
  175MOL0     H23086   9.964   1.417   3.217  2.3732 -0.3620 -0.4334
  175MOL0     H23087  10.165   1.557   3.241  2.5283 -0.3689 -0.8603
  175MOL0     H23088  10.627   1.527   2.905 -0.1219 -1.2275  1.0988
  175MOL0     H23089  10.835   1.612   2.950 -1.6334  1.1398 -5.2784
  175MOL0     H23090  10.977   1.785   2.908 -0.9918 -1.6092  1.0021
  175MOL0     H23091  11.032   1.688   3.045  0.6570 -0.7636 -1.9859
  175MOL0     H23092  11.102   1.935   2.921 -2.0038 -2.5338 -0.6884
  175MOL0     H23093  11.099   1.973   3.101 -1.6849  1.0847 -1.1317
  175MOL0     H23094  11.330   1.932   3.006  0.4058  0.9311  1.8426
  175MOL0     H23095  11.264   1.774   2.947 -2.5711  1.3037 -1.0534
  175MOL0     H23096  11.402   1.784   3.177 -0.5368 -3.5650  4.8076
  175MOL0     H23097  11.245   1.843   3.240 -2.8953 -1.4922 -1.3217
  175MOL0     H23098  11.246   1.416   3.167 -3.2219 -0.1841  0.3204
  175MOL0     H23099  10.673   1.960   3.149 -0.4855  0.8613 -0.5049
  175MOL0     H23100  10.453   1.885   3.073 -1.8066 -2.0805 -0.4424
  176MOL0     O23101   2.058   5.581   3.628  0.7167 -0.6141 -0.0473
  176MOL0     C23102   1.996   5.487   3.671 -0.1094  0.8813 -0.2571
  176MOL0     O23103   1.996   5.369   3.607  0.0361 -0.1866 -0.8715
  176MOL0     C23104   1.991   5.358   3.468  0.0486 -0.3463 -0.0679
  176MOL0     C23105   2.038   5.234   3.411 -0.2006  0.9291 -0.2726
  176MOL0     C23106   2.012   5.206   3.279  0.3312  0.6144 -0.9565
  176MOL0     C23107   1.962   5.311   3.193 -0.5152 -0.7317 -0.7874
  176MOL0     O23108   1.957   5.302   3.055  0.6582  0.6713 -0.5238
  176MOL0     C23109   1.974   5.167   2.992  0.6577 -0.0524 -0.2000
  176MOL0     C23110   1.903   5.155   2.864  0.2539  0.3831 -0.8005
  176MOL0     C23111   1.943   5.028   2.787 -0.2386  0.1829 -0.5789
  176MOL0     C23112   1.883   5.030   2.650 -0.1648 -0.1329 -0.0271
  176MOL0     C23113   1.902   4.899   2.564  0.4939 -0.7144 -0.8070
  176MOL0     C23114   1.828   4.768   2.628 -0.4215  0.1804  1.2348
  176MOL0     C23115   1.686   4.782   2.673 -0.2218  0.6152 -0.1376
  176MOL0     C23116   1.591   4.792   2.564  0.5309 -0.0342  0.1906
  176MOL0     N23117   1.447   4.790   2.604  0.7612  1.0861  0.4707
  176MOL0     C23118   1.343   4.827   2.525  0.2915  0.9554  0.5620
  176MOL0     C23119   1.238   4.825   2.608 -0.0556 -0.1863  0.3582
  176MOL0     C23120   1.096   4.856   2.566  0.1445 -0.0376 -0.3347
  176MOL0     C23121   1.075   4.838   2.413 -0.1809  0.7446 -0.4085
  176MOL0     C23122   0.928   4.809   2.376 -0.2608  0.4376  0.3554
  176MOL0     C23123   0.822   4.872   2.461  0.9050  0.4559 -0.6004
  176MOL0     O23124   0.700   4.864   2.378  0.6960  0.0963 -0.3243
  176MOL0     C23125   0.600   4.771   2.412 -0.9074  0.2040  0.1293
  176MOL0     C23126   0.621   4.658   2.503  0.0187  0.4480 -0.7344
  176MOL0     C23127   0.514   4.563   2.526 -0.1915  0.2277 -0.0152
  176MOL0     C23128   0.394   4.570   2.451  0.4279 -0.2486 -0.4201
  176MOL0     C23129   0.281   4.472   2.465 -0.3283  0.0573  0.5412
  176MOL0     O23130   0.164   4.495   2.392  0.1211 -0.6333  0.3664
  176MOL0     C23131   0.049   4.413   2.400  0.2413  0.0083  0.6467
  176MOL0     C23132  -0.069   4.478   2.360 -0.1386  0.3490  0.4622
  176MOL0     C23133  -0.196   4.409   2.367 -0.3887 -0.6553  0.0291
  176MOL0     C23134  -0.205   4.293   2.441  0.0365  0.2161 -0.3962
  176MOL0     O23135  -0.329   4.228   2.446  0.1376 -0.2160 -0.3858
  176MOL0     C23136  -0.319   4.085   2.417 -0.0694  0.9357 -0.2102
  176MOL0     C23137  -0.468   4.022   2.426 -0.2899  0.9713 -0.0626
  176MOL0     C23138  -0.554   4.094   2.325 -0.5943  0.5214  0.6569
  176MOL0     C23139  -0.703   4.059   2.350  0.7221 -0.4796  0.6480
  176MOL0     C23140  -0.800   4.149   2.274 -0.4671 -0.1748 -0.4030
  176MOL0     C23141  -0.778   4.149   2.122 -0.3540  0.1704  0.4904
  176MOL0     C23142  -0.853   4.258   2.047 -0.2978 -0.3208 -0.1658
  176MOL0     C23143  -0.842   4.254   1.891 -0.9331  0.0372  0.3328
  176MOL0    Cl23144  -0.926   4.385   1.826 -0.0508 -0.5181  0.7064
  176MOL0     C23145  -0.087   4.229   2.489 -0.0360 -0.1524  0.3853
  176MOL0     C23146   0.035   4.287   2.461 -1.1399 -0.4093  0.1596
  176MOL0     O23147   0.299   4.372   2.535 -0.0805  0.1049  0.5133
  176MOL0     C23148   0.379   4.682   2.363  0.1342  0.4728 -0.5589
  176MOL0     C23149   0.473   4.779   2.348 -0.4445  0.4978  0.2275
  176MOL0     N23150   1.280   4.783   2.733 -0.3683 -0.8923  0.8945
  176MOL0     N23151   1.403   4.766   2.730  0.3326 -0.4626 -0.6757
  176MOL0     C23152   1.935   5.435   3.241  0.5883  0.0538  0.5374
  176MOL0     C23153   1.936   5.462   3.382 -0.2613 -0.5542 -0.0129
  176MOL0     C23154   1.930   5.502   3.800 -0.3511  0.5539 -0.2915
  176MOL0     C23155   1.871   5.620   3.850  0.3466  1.2983 -0.4278
  176MOL0     C23156   1.809   5.617   3.977  0.1945 -0.5063  0.3653
  176MOL0     C23157   1.804   5.516   4.063 -0.8282  1.5804  0.0381
  176MOL0     O23158   1.734   5.517   4.188  0.2158  0.5593  0.4894
  176MOL0     C23159   1.790   5.525   4.313  0.5097 -0.7373 -0.0769
  176MOL0     C23160   1.692   5.484   4.426  0.2265  0.9253  0.8233
  176MOL0     C23161   1.635   5.343   4.418 -0.7815  1.1413  0.6389
  176MOL0     C23162   1.599   5.282   4.555  0.6747 -0.5724 -0.6387
  176MOL0     C23163   1.706   5.288   4.648  0.7146 -0.1062  0.4272
  176MOL0     C23164   1.786   5.312   4.735 -0.4067  0.0423 -0.8340
  176MOL0     C23165   1.876   5.400   4.024 -0.7021  0.6760 -0.1369
  176MOL0     C23166   1.942   5.393   3.897 -0.5482  0.0266  0.9268
  176MOL0     H23167   2.085   5.149   3.460 -2.8146 -2.0602 -2.5307
  176MOL0     H23168   2.013   5.106   3.237 -3.5304 -0.4079  0.9262
  176MOL0     H23169   1.922   5.095   3.056 -1.0956  0.7948 -0.6220
  176MOL0     H23170   2.078   5.135   2.980  1.2704  1.2716  1.2531
  176MOL0     H23171   1.919   5.247   2.806 -0.7477  1.0426 -0.0581
  176MOL0     H23172   1.795   5.148   2.878  0.1749  0.0244 -1.5253
  176MOL0     H23173   1.903   4.945   2.846  0.2093  1.7261  2.0411
  176MOL0     H23174   2.051   5.017   2.777 -0.2763  1.7668 -4.0693
  176MOL0     H23175   1.777   5.057   2.649  0.2851  1.8315 -1.6875
  176MOL0     H23176   1.927   5.112   2.592  0.6331 -0.1283  0.5776
  176MOL0     H23177   2.008   4.875   2.552  0.2665 -1.2466 -1.8719
  176MOL0     H23178   1.874   4.913   2.460 -0.8445 -1.3808 -0.5500
  176MOL0     H23179   1.885   4.715   2.704 -0.8804  0.1933  1.5936
  176MOL0     H23180   1.825   4.698   2.544 -0.1701  1.0142  0.5179
  176MOL0     H23181   1.665   4.691   2.730  2.1065  0.0128 -0.1623
  176MOL0     H23182   1.676   4.864   2.744  1.9356  2.0032 -1.3180
  176MOL0     H23183   1.602   4.714   2.488  1.7905  2.0520 -1.9229
  176MOL0     H23184   1.624   4.884   2.513 -0.4580  1.1623  1.6168
  176MOL0     H23185   1.332   4.864   2.424 -0.8630 -0.2670  0.2068
  176MOL0     H23186   1.066   4.959   2.590 -2.2937 -1.1764  2.1330
  176MOL0     H23187   1.025   4.802   2.630  0.5146 -0.2692 -0.1179
  176MOL0     H23188   1.133   4.751   2.378  3.1146  3.2353 -1.6591
  176MOL0     H23189   1.112   4.931   2.369  0.3778  1.5404  1.6262
  176MOL0     H23190   0.910   4.845   2.274 -2.0380 -1.8970 -0.2525
  176MOL0     H23191   0.909   4.701   2.386 -2.9486  0.7373 -0.6721
  176MOL0     H23192   0.855   4.975   2.478 -5.6191  3.4604 -2.9851
  176MOL0     H23193   0.815   4.832   2.562 -0.0091  0.8538 -0.4977
  176MOL0     H23194   0.719   4.640   2.545  0.1386  0.6344 -0.9308
  176MOL0     H23195   0.529   4.482   2.597 -0.7270 -0.1195 -0.2918
  176MOL0     H23196  -0.066   4.579   2.320  1.4545 -0.8499 -2.7616
  176MOL0     H23197  -0.279   4.452   2.313 -0.2106  0.9269  0.9559
  176MOL0     H23198  -0.252   4.039   2.490  0.3506  0.9548 -0.5725
  176MOL0     H23199  -0.294   4.074   2.311 -0.5718  1.5306 -0.3949
  176MOL0     H23200  -0.507   4.023   2.528  0.5910 -0.4562  0.3054
  176MOL0     H23201  -0.456   3.920   2.388 -2.4000  1.4176 -2.1476
  176MOL0     H23202  -0.516   4.061   2.228  1.3088 -0.2364  1.6258
  176MOL0     H23203  -0.534   4.202   2.326 -0.7061  0.6721 -2.6959
  176MOL0     H23204  -0.713   3.956   2.315  0.9260 -0.0019 -0.9371
  176MOL0     H23205  -0.713   4.062   2.458  0.5671 -0.9468  0.6478
  176MOL0     H23206  -0.786   4.254   2.304 -1.4823 -0.0157 -0.4368
  176MOL0     H23207  -0.901   4.121   2.306 -0.0763 -0.4805  0.5997
  176MOL0     H23208  -0.804   4.050   2.085 -1.6822 -0.2183  2.3277
  176MOL0     H23209  -0.673   4.167   2.098 -0.3709  2.6376  1.9650
  176MOL0     H23210  -0.959   4.256   2.073  0.5839  0.1584  4.4862
  176MOL0     H23211  -0.814   4.351   2.089 -0.4529  0.2268 -1.2016
  176MOL0     H23212  -0.892   4.163   1.858  4.0180 -2.3069 -1.7651
  176MOL0     H23213  -0.741   4.250   1.848 -1.5039  3.6333 -1.8560
  176MOL0     H23214  -0.094   4.146   2.559  0.5977  0.4204  1.1415
  176MOL0     H23215   0.128   4.236   2.483 -0.5943  0.7882  0.6931
  176MOL0     H23216   0.293   4.705   2.301  1.2088  2.0914 -1.5263
  176MOL0     H23217   0.441   4.854   2.276 -1.6331 -0.4665 -0.2812
  176MOL0     H23218   1.895   5.516   3.182  3.1765  0.5406 -0.6639
  176MOL0     H23219   1.901   5.562   3.403  1.6369  0.3170 -0.7428
  176MOL0     H23220   1.870   5.706   3.784  2.0640  0.2782 -1.8803
  176MOL0     H23221   1.756   5.709   3.998  1.3691  0.0656  0.8938
  176MOL0     H23222   1.822   5.629   4.318  2.6481 -1.0860 -3.2929
  176MOL0     H23223   1.873   5.454   4.325 -0.5034 -2.1917 -1.2015
  176MOL0     H23224   1.747   5.496   4.520  1.0087 -1.4930  0.7522
  176MOL0     H23225   1.609   5.556   4.425  1.1358  2.0395  1.7346
  176MOL0     H23226   1.708   5.279   4.369 -0.0208  4.2384 -2.7239
  176MOL0     H23227   1.556   5.351   4.342 -1.4049 -0.6079  1.0464
  176MOL0     H23228   1.520   5.339   4.605  2.9278  2.4123 -0.2204
  176MOL0     H23229   1.567   5.180   4.532  3.8715 -2.1572  1.2168
  176MOL0     H23230   1.865   5.327   4.805  2.2209 -1.8568 -3.1473
  176MOL0     H23231   1.880   5.313   4.090  1.7941 -0.4808 -1.6874
  176MOL0     H23232   1.984   5.296   3.872  0.8704  0.3505  1.8938
  177MOL0     O23233   1.366   6.963  11.166 -0.5030 -0.0644 -0.5994
  177MOL0     C23234   1.427   6.859  11.184 -0.6797  0.3992  0.9825
  177MOL0     O23235   1.538   6.818  11.117 -0.2220  0.4533 -0.3029
  177MOL0     C23236   1.599   6.896  11.022 -0.9223 -0.0288  0.9837
  177MOL0     C23237   1.731   6.869  10.993 -0.9622  0.3721 -0.5648
  177MOL0     C23238   1.809   6.946  10.902  0.2759 -0.7982  0.3020
  177MOL0     C23239   1.750   7.055  10.833 -0.0817  0.5920  1.0681
  177MOL0     O23240   1.822   7.129  10.739 -0.2513  0.4569  0.0607
  177MOL0     C23241   1.794   7.263  10.721  0.2570  0.1035  0.6707
  177MOL0     C23242   1.834   7.349  10.834 -0.0888  0.0847 -0.4707
  177MOL0     C23243   1.973   7.336  10.890  0.8714 -0.7089  0.4580
  177MOL0     C23244   2.007   7.415  11.017  0.3874 -0.3412  0.7152
  177MOL0     C23245   2.149   7.390  11.058  0.5093 -0.3270 -0.3014
  177MOL0     C23246   2.243   7.473  10.976  0.0097  0.2271 -0.0148
  177MOL0     C23247   2.378   7.502  11.035 -1.4936 -0.0173 -0.5616
  177MOL0     C23248   2.500   7.403  11.011  0.5174 -0.6272  0.0092
  177MOL0     N23249   2.616   7.422  11.097  0.2956 -0.5433 -0.0330
  177MOL0     C23250   2.754   7.434  11.063  0.8512  0.8418  0.1447
  177MOL0     C23251   2.814   7.443  11.180  0.0319  0.2453  0.5692
  177MOL0     C23252   2.964   7.462  11.197 -0.9996 -0.0566 -0.4170
  177MOL0     C23253   3.046   7.347  11.155 -0.5826  0.1388  0.7598
  177MOL0     C23254   3.184   7.397  11.127  0.4026  0.3007 -0.1985
  177MOL0     C23255   3.293   7.294  11.105 -0.7265 -0.2936  0.1852
  177MOL0     O23256   3.294   7.221  11.229  0.4926 -0.8425  0.0604
  177MOL0     C23257   3.409   7.162  11.257  0.0913 -0.4398 -0.2160
  177MOL0     C23258   3.428   7.103  11.385 -0.5802 -0.2720  0.0285
  177MOL0     C23259   3.539   7.038  11.425  0.0671 -0.1119  0.2236
  177MOL0     C23260   3.650   7.027  11.347 -0.2482  0.0156  1.0357
  177MOL0     C23261   3.758   6.928  11.381  0.6774  0.6090  0.1613
  177MOL0     O23262   3.773   6.894  11.511  0.4037  0.3930 -0.5996
  177MOL0     C23263   3.849   6.781  11.540  1.0145 -0.9865  0.3818
  177MOL0     C23264   3.797   6.655  11.530  1.5849  0.2257  0.2286
  177MOL0     C23265   3.869   6.540  11.556  0.1596 -0.5400 -0.5352
  177MOL0     C23266   4.012   6.549  11.575  0.0881 -1.2032 -0.0594
  177MOL0     O23267   4.079   6.436  11.600  0.1740 -0.3069  0.5604
  177MOL0     C23268   4.218   6.454  11.646  0.4213  0.4688  0.8423
  177MOL0     C23269   4.252   6.338  11.738 -0.5697 -0.2980 -0.4464
  177MOL0     C23270   4.400   6.347  11.792  0.0460  0.0660  0.4365
  177MOL0     C23271   4.436   6.211  11.847  0.8928  0.3088  0.3143
  177MOL0     C23272   4.581   6.189  11.896 -0.1099 -0.9432  0.2974
  177MOL0     C23273   4.610   6.043  11.956 -0.4656  0.3387  0.8084
  177MOL0     C23274   4.748   6.041  12.020  0.5916  0.3090  0.4016
  177MOL0     C23275   4.853   6.028  11.904  0.0617 -0.0940  0.3269
  177MOL0    Cl23276   5.021   6.028  11.974 -0.6138  0.3883 -0.3403
  177MOL0     C23277   4.066   6.686  11.577 -0.9558  0.4857  0.5259
  177MOL0     C23278   3.990   6.801  11.564  0.4945 -0.2226  0.1536
  177MOL0     O23279   3.823   6.890  11.289 -0.2356  0.7772  1.1995
  177MOL0     C23280   3.643   7.088  11.220  0.4659 -0.4800 -1.0878
  177MOL0     C23281   3.526   7.148  11.172  0.4693 -0.5137 -1.2454
  177MOL0     N23282   2.732   7.439  11.280 -0.5261 -0.5477 -0.4201
  177MOL0     N23283   2.606   7.424  11.227  0.3983 -0.0295 -0.1073
  177MOL0     C23284   1.620   7.084  10.859  0.0715  0.6584  0.6880
  177MOL0     C23285   1.549   7.011  10.948  0.3901 -0.6266 -0.5601
  177MOL0     C23286   1.362   6.762  11.286 -0.1073 -0.3131  0.0917
  177MOL0     C23287   1.424   6.631  11.314 -0.7606 -0.0523 -0.1744
  177MOL0     C23288   1.363   6.555  11.409  0.3745 -0.1377 -0.9219
  177MOL0     C23289   1.238   6.588  11.478 -0.5568 -0.0156  0.6747
  177MOL0     O23290   1.180   6.510  11.577  0.2747  0.8324  0.1143
  177MOL0     C23291   1.237   6.388  11.611  0.0601 -0.0770 -0.7860
  177MOL0     C23292   1.143   6.298  11.694 -0.0401 -0.5996  0.1769
  177MOL0     C23293   1.213   6.169  11.743 -0.3086  0.2830  0.2114
  177MOL0     C23294   1.343   6.177  11.822  0.1400  0.0016 -0.3778
  177MOL0     C23295   1.466   6.152  11.739  0.2870  0.0312 -0.1572
  177MOL0     C23296   1.563   6.126  11.671  0.2328  0.3606 -0.8861
  177MOL0     C23297   1.184   6.709  11.449  0.2451 -0.3514  0.1558
  177MOL0     C23298   1.238   6.799  11.356 -0.2169 -0.2210  0.4519
  177MOL0     H23299   1.769   6.793  11.062 -1.2536  0.8710  0.1550
  177MOL0     H23300   1.915   6.937  10.884 -0.0559  0.3493 -2.7006
  177MOL0     H23301   1.692   7.288  10.690  1.2415  2.2881 -1.1689
  177MOL0     H23302   1.852   7.282  10.630  1.3003 -0.8469  1.1151
  177MOL0     H23303   1.774   7.330  10.923  0.2932  1.7436  0.1727
  177MOL0     H23304   1.825   7.455  10.811 -0.8374 -0.2817 -1.9748
  177MOL0     H23305   2.037   7.381  10.814 -0.4814  0.2606 -0.1565
  177MOL0     H23306   1.993   7.229  10.892  0.1962 -0.9270 -1.8660
  177MOL0     H23307   1.978   7.519  10.998 -0.1333 -1.0125 -2.8973
  177MOL0     H23308   1.943   7.381  11.099  1.2876 -1.3255  1.0358
  177MOL0     H23309   2.171   7.283  11.058 -0.2194 -0.5221 -2.2108
  177MOL0     H23310   2.163   7.423  11.161 -0.3124  1.4131 -0.7004
  177MOL0     H23311   2.205   7.574  10.955  0.9385  0.8112  0.9845
  177MOL0     H23312   2.273   7.424  10.883  0.3056  1.6411 -0.6884
  177MOL0     H23313   2.409   7.594  10.986 -1.6697  0.2519 -0.1811
  177MOL0     H23314   2.372   7.518  11.144  0.5782  2.5049 -0.7249
  177MOL0     H23315   2.522   7.408  10.904 -0.1287  0.5283 -0.0954
  177MOL0     H23316   2.458   7.303  11.021 -1.2568  0.0528 -0.1828
  177MOL0     H23317   2.800   7.437  10.964  1.5624  0.0900  0.4384
  177MOL0     H23318   2.984   7.481  11.303  2.1314  1.7898 -1.1894
  177MOL0     H23319   2.992   7.550  11.138  2.2628 -0.7041 -0.0399
  177MOL0     H23320   3.018   7.304  11.058 -2.6637 -0.9323  1.7863
  177MOL0     H23321   3.031   7.266  11.226 -2.6342 -0.8410 -0.6872
  177MOL0     H23322   3.183   7.457  11.035 -2.6312  0.3785 -0.2024
  177MOL0     H23323   3.209   7.477  11.198  2.5930  0.0884 -0.6642
  177MOL0     H23324   3.385   7.354  11.101 -1.3030  0.5261 -1.8704
  177MOL0     H23325   3.299   7.237  11.012  1.7226  0.6825 -0.3406
  177MOL0     H23326   3.352   7.112  11.462 -0.5786  1.3068 -0.1353
  177MOL0     H23327   3.542   7.018  11.532 -0.8908 -1.3829  0.0341
  177MOL0     H23328   3.690   6.651  11.514  1.3815  1.1423  1.2900
  177MOL0     H23329   3.810   6.449  11.564 -3.9686  2.0292  2.7371
  177MOL0     H23330   4.233   6.557  11.679 -4.2396  2.4652 -2.2007
  177MOL0     H23331   4.283   6.450  11.559 -1.3913  0.0178 -0.5419
  177MOL0     H23332   4.248   6.256  11.666  2.3697  0.4412 -1.5800
  177MOL0     H23333   4.188   6.327  11.826  0.0633 -0.4734  0.0018
  177MOL0     H23334   4.417   6.417  11.875 -2.8356  0.9588  0.3901
  177MOL0     H23335   4.473   6.370  11.714  1.6443 -0.0604  1.8352
  177MOL0     H23336   4.367   6.183  11.928  0.8479  0.7147  0.4183
  177MOL0     H23337   4.428   6.144  11.761 -0.3498 -0.7416  1.2078
  177MOL0     H23338   4.597   6.268  11.970 -0.1325 -2.1325  1.6297
  177MOL0     H23339   4.637   6.218  11.807 -0.1905  0.7380  0.7619
  177MOL0     H23340   4.607   5.968  11.876 -1.1650 -0.0318  1.1752
  177MOL0     H23341   4.543   6.013  12.037 -1.2981 -1.3685 -0.4624
  177MOL0     H23342   4.770   6.129  12.081 -1.7759  0.2586  1.4234
  177MOL0     H23343   4.761   5.955  12.086 -1.2422 -0.1013  0.2724
  177MOL0     H23344   4.855   6.114  11.837  2.4022  1.0788  1.7433
  177MOL0     H23345   4.839   5.937  11.846  1.4763 -2.2784  3.1563
  177MOL0     H23346   4.168   6.721  11.589 -1.1698  1.7538 -1.0596
  177MOL0     H23347   4.028   6.902  11.567 -1.0205  0.4218 -1.0205
  177MOL0     H23348   3.730   7.085  11.154  1.7903 -2.0582  0.6269
  177MOL0     H23349   3.529   7.203  11.078  0.4246 -0.3059 -1.1273
  177MOL0     H23350   1.567   7.155  10.797  1.7143  1.1446 -0.2386
  177MOL0     H23351   1.445   7.039  10.965  0.5424  0.3130 -1.1069
  177MOL0     H23352   1.517   6.602  11.265 -1.7610 -2.3371 -0.8490
  177MOL0     H23353   1.423   6.467  11.432 -1.5530 -0.8836  1.7442
  177MOL0     H23354   1.327   6.407  11.670 -0.3411  0.8398 -0.4620
  177MOL0     H23355   1.261   6.337  11.517  4.6114  1.2087 -0.5541
  177MOL0     H23356   1.103   6.351  11.782 -2.0516 -1.9910  0.1608
  177MOL0     H23357   1.048   6.281  11.643  0.6173  0.0333 -1.3008
  177MOL0     H23358   1.221   6.109  11.652 -2.1757  2.5742 -1.5813
  177MOL0     H23359   1.137   6.118  11.802 -0.3991  1.2737  0.9637
  177MOL0     H23360   1.362   6.274  11.870  1.5521 -0.9005  0.9870
  177MOL0     H23361   1.352   6.107  11.906  1.8141  2.2506  1.4603
  177MOL0     H23362   1.654   6.121  11.614  0.8360  0.9029 -0.0018
  177MOL0     H23363   1.104   6.739  11.515  1.8550  0.0461  2.0216
  177MOL0     H23364   1.185   6.891  11.336  0.3653  0.0524  0.1504
  178MOL0     O23365   8.169   3.230   9.183  0.8619 -0.1772  0.2916
  178MOL0     C23366   8.119   3.308   9.265  0.2327 -0.0039  0.0682
  178MOL0     O23367   7.982   3.312   9.303  0.0306 -0.4707  0.1709
  178MOL0     C23368   7.901   3.213   9.260  0.5040 -0.1536  0.0209
  178MOL0     C23369   7.908   3.080   9.306 -0.4839 -1.4394  0.0523
  178MOL0     C23370   7.824   2.980   9.271 -0.3949  0.6128  0.8377
  178MOL0     C23371   7.714   3.005   9.184  0.2493 -0.7948 -0.0770
  178MOL0     O23372   7.606   2.924   9.148 -0.2048  0.7653  0.6987
  178MOL0     C23373   7.532   2.853   9.245 -0.2598 -0.1534  0.1877
  178MOL0     C23374   7.425   2.778   9.159  0.7551  0.2362  0.7386
  178MOL0     C23375   7.314   2.886   9.110  0.3509 -0.0403 -0.0032
  178MOL0     C23376   7.203   2.819   9.030 -0.2071  0.2144 -0.4945
  178MOL0     C23377   7.065   2.837   9.086  0.8058 -0.7823  0.0149
  178MOL0     C23378   6.963   2.745   9.020 -0.0841  0.3495 -1.0263
  178MOL0     C23379   6.828   2.744   9.070  1.3355  0.0481 -0.0872
  178MOL0     C23380   6.746   2.863   9.023  0.1888 -0.0459 -0.8867
  178MOL0     N23381   6.623   2.885   9.111 -0.8467  0.3548  0.4636
  178MOL0     C23382   6.611   2.987   9.193 -0.1241 -0.2271  0.0302
  178MOL0     C23383   6.484   2.993   9.220  1.2277  0.1650  0.4596
  178MOL0     C23384   6.420   3.090   9.307  0.4462  0.3422 -0.4037
  178MOL0     C23385   6.311   3.173   9.239 -0.0942 -0.2008  0.4046
  178MOL0     C23386   6.264   3.286   9.331 -0.0909 -0.0158 -0.0795
  178MOL0     C23387   6.134   3.265   9.410 -0.1215 -0.5944 -0.3388
  178MOL0     O23388   6.116   3.380   9.499 -0.2446 -0.1178  0.8424
  178MOL0     C23389   5.988   3.413   9.548 -0.4033  0.2899  0.8109
  178MOL0     C23390   5.980   3.504   9.655  0.1361  0.8372  0.3267
  178MOL0     C23391   5.860   3.516   9.726 -1.1058  0.3188 -0.4716
  178MOL0     C23392   5.745   3.446   9.691  0.8019 -0.1299 -0.3746
  178MOL0     C23393   5.618   3.462   9.763 -0.2803 -0.2965  0.2680
  178MOL0     O23394   5.507   3.387   9.723 -0.2447 -0.7199  0.4843
  178MOL0     C23395   5.384   3.420   9.773  0.0438  0.5099  1.3928
  178MOL0     C23396   5.349   3.551   9.804  0.3582 -0.3877  1.0836
  178MOL0     C23397   5.215   3.574   9.851  0.4380 -0.6564  0.2760
  178MOL0     C23398   5.127   3.475   9.883  0.4445  0.5047  1.0436
  178MOL0     O23399   5.005   3.492   9.947 -0.1376  0.3678 -0.8522
  178MOL0     C23400   4.917   3.593   9.890  0.2666  0.5001 -0.2942
  178MOL0     C23401   4.807   3.531   9.808  0.5868  0.2813  0.4401
  178MOL0     C23402   4.718   3.440   9.900 -1.1147  0.2138  0.1470
  178MOL0     C23403   4.659   3.508  10.027 -0.3742  0.2036 -0.1726
  178MOL0     C23404   4.551   3.417  10.093  0.0532 -1.4875  0.5756
  178MOL0     C23405   4.488   3.473  10.220  0.0209  0.3567 -0.8483
  178MOL0     C23406   4.375   3.387  10.275 -0.3631  0.1708  0.3159
  178MOL0     C23407   4.336   3.433  10.415 -0.8120 -0.3793  0.2310
  178MOL0    Cl23408   4.261   3.598  10.403 -0.0156 -0.2566 -0.3813
  178MOL0     C23409   5.163   3.344   9.854 -0.1344 -0.2145  0.6663
  178MOL0     C23410   5.286   3.316   9.794 -1.0796 -0.4584 -0.9050
  178MOL0     O23411   5.634   3.527   9.863  0.1266 -0.2460  0.0210
  178MOL0     C23412   5.749   3.362   9.581 -0.4859  0.4938 -0.2182
  178MOL0     C23413   5.874   3.342   9.519 -0.1612  0.7376 -0.3097
  178MOL0     N23414   6.409   2.890   9.157 -0.9039  0.8556 -0.0499
  178MOL0     N23415   6.501   2.825   9.085 -0.0271 -0.4541 -0.6822
  178MOL0     C23416   7.703   3.139   9.137  0.5767 -0.6580 -1.6448
  178MOL0     C23417   7.796   3.239   9.170 -0.5382 -0.3334 -0.3584
  178MOL0     C23418   8.204   3.394   9.348  0.0023  0.7652 -0.4836
  178MOL0     C23419   8.149   3.482   9.452  0.3866  0.7574  0.1563
  178MOL0     C23420   8.233   3.556   9.529  0.1758 -0.0212  0.8731
  178MOL0     C23421   8.373   3.541   9.519 -0.5275  0.7352  0.8703
  178MOL0     O23422   8.467   3.596   9.604  0.3039 -0.5219 -0.2108
  178MOL0     C23423   8.421   3.685   9.695 -0.8709 -0.7267  0.1966
  178MOL0     C23424   8.533   3.714   9.794 -0.1684  0.8702  0.0067
  178MOL0     C23425   8.656   3.778   9.734  0.3397 -0.1626 -0.0746
  178MOL0     C23426   8.758   3.849   9.829  0.1763  0.5288 -0.1161
  178MOL0     C23427   8.719   3.976   9.886  0.7868 -0.4957 -0.7883
  178MOL0     C23428   8.671   4.088   9.919 -0.0480  0.8666 -0.7547
  178MOL0     C23429   8.426   3.457   9.422 -1.2408  1.1238  0.0061
  178MOL0     C23430   8.341   3.378   9.349 -0.2221  0.1454  0.9129
  178MOL0     H23431   8.004   3.064   9.353  1.2768  2.9719 -1.5718
  178MOL0     H23432   7.860   2.882   9.302  0.7055  0.5830 -0.4531
  178MOL0     H23433   7.487   2.919   9.320  3.8491  0.5385  2.3462
  178MOL0     H23434   7.600   2.787   9.300 -0.0641  0.3549  0.5627
  178MOL0     H23435   7.366   2.699   9.206 -2.6877  0.4826 -2.6949
  178MOL0     H23436   7.471   2.729   9.072  1.5051 -1.5661  2.0989
  178MOL0     H23437   7.370   2.963   9.056  0.8874 -0.4736 -0.0722
  178MOL0     H23438   7.262   2.921   9.199 -0.1269  0.9608 -0.6566
  178MOL0     H23439   7.223   2.855   8.929  0.1360  3.1697  0.5400
  178MOL0     H23440   7.223   2.711   9.028 -0.8046  0.1148 -1.7926
  178MOL0     H23441   7.042   2.943   9.072  2.2080 -0.4304  0.2419
  178MOL0     H23442   7.067   2.810   9.192  0.2324 -0.2771  0.1591
  178MOL0     H23443   7.006   2.644   9.017 -0.5086 -0.5907  6.0860
  178MOL0     H23444   6.966   2.778   8.916 -0.7605  0.1945 -1.1001
  178MOL0     H23445   6.779   2.655   9.031 -2.1158  2.3664 -1.5032
  178MOL0     H23446   6.831   2.748   9.179  1.2878  0.6000 -0.1023
  178MOL0     H23447   6.715   2.839   8.921  0.2117  0.8703 -1.1171
  178MOL0     H23448   6.810   2.951   9.022  0.7429 -0.4403 -0.7331
  178MOL0     H23449   6.690   3.055   9.224  1.1681 -1.5484 -0.2297
  178MOL0     H23450   6.497   3.154   9.352  3.0182 -2.7309 -0.0542
  178MOL0     H23451   6.355   3.046   9.382 -1.0755  0.3326 -1.6704
  178MOL0     H23452   6.225   3.111   9.210  0.0333 -1.2879  2.2071
  178MOL0     H23453   6.353   3.215   9.148  3.4673 -0.4915  1.7591
  178MOL0     H23454   6.345   3.302   9.403 -1.2391  1.2086  0.9697
  178MOL0     H23455   6.262   3.375   9.268  0.9816 -0.9729 -1.5409
  178MOL0     H23456   6.131   3.164   9.453 -0.3038 -0.7601 -0.7248
  178MOL0     H23457   6.054   3.260   9.335 -1.3489 -1.9934  0.9877
  178MOL0     H23458   6.071   3.548   9.695  1.0405 -0.4776 -0.1942
  178MOL0     H23459   5.866   3.587   9.808  1.0442  0.8746 -1.0389
  178MOL0     H23460   5.414   3.637   9.793  3.7621 -2.7456  1.1312
  178MOL0     H23461   5.181   3.677   9.856 -0.6612 -1.0243  0.5214
  178MOL0     H23462   4.973   3.664   9.829  0.1928  0.9801  0.1893
  178MOL0     H23463   4.875   3.647   9.976 -1.1942  0.4417 -0.9439
  178MOL0     H23464   4.837   3.477   9.718  2.3106 -1.3931  1.9240
  178MOL0     H23465   4.737   3.609   9.775  1.5258  0.6811 -0.6891
  178MOL0     H23466   4.784   3.360   9.934  1.1192  1.6553 -0.6147
  178MOL0     H23467   4.641   3.386   9.843 -0.1583 -2.7207  1.4532
  178MOL0     H23468   4.738   3.533  10.097 -1.2239  2.9879 -0.0709
  178MOL0     H23469   4.606   3.601  10.002 -0.3737  0.1798 -0.2640
  178MOL0     H23470   4.594   3.318  10.107 -1.1811 -2.2728 -0.7920
  178MOL0     H23471   4.470   3.405  10.020 -1.1595  3.0262  0.8836
  178MOL0     H23472   4.449   3.572  10.194 -1.0345  0.0117 -0.6199
  178MOL0     H23473   4.561   3.485  10.300 -0.9682 -0.4655  0.2018
  178MOL0     H23474   4.290   3.388  10.206  1.9594  2.6187 -2.8478
  178MOL0     H23475   4.413   3.285  10.283  0.7471  0.4228 -1.1829
  178MOL0     H23476   4.428   3.442  10.473 -0.2046  0.8618 -0.8556
  178MOL0     H23477   4.253   3.371  10.449 -0.9484 -0.5982 -0.4779
  178MOL0     H23478   5.110   3.255   9.884 -1.0491 -0.2468 -0.9501
  178MOL0     H23479   5.320   3.214   9.777 -2.7949 -1.5783  1.7919
  178MOL0     H23480   5.667   3.292   9.572 -1.0360  0.7125  2.2897
  178MOL0     H23481   5.888   3.263   9.447 -1.7864 -1.2224  1.4035
  178MOL0     H23482   7.618   3.178   9.081 -2.1566 -3.8271 -0.0422
  178MOL0     H23483   7.792   3.341   9.134  0.2656 -0.6053 -1.2756
  178MOL0     H23484   8.043   3.481   9.476  0.8941 -0.1078  2.6999
  178MOL0     H23485   8.193   3.630   9.598 -0.4442  0.1518  0.3398
  178MOL0     H23486   8.340   3.651   9.760  1.4798 -1.4501  2.9878
  178MOL0     H23487   8.394   3.783   9.656  2.6329  0.9247  1.4605
  178MOL0     H23488   8.493   3.791   9.860  1.8698  1.1216  1.0438
  178MOL0     H23489   8.555   3.632   9.863 -0.4826  0.1702 -0.7075
  178MOL0     H23490   8.613   3.852   9.666 -1.7302  0.2737  1.5947
  178MOL0     H23491   8.716   3.702   9.684  1.2068  0.4190  0.0697
  178MOL0     H23492   8.789   3.779   9.906  1.7579  1.0267 -0.2708
  178MOL0     H23493   8.849   3.862   9.770  2.0572  1.5024  2.7794
  178MOL0     H23494   8.612   4.172   9.949 -0.0184  0.8449 -0.6353
  178MOL0     H23495   8.531   3.451   9.399 -0.9706 -1.8940  1.4949
  178MOL0     H23496   8.379   3.310   9.273 -0.6128 -2.3489  2.8482
  179MOL0     O23497   3.000   9.694  11.405 -0.8171 -0.1230 -0.1747
  179MOL0     C23498   3.042   9.656  11.297 -0.0799 -0.1991  0.2327
  179MOL0     O23499   2.982   9.566  11.216 -0.2458 -0.4390  0.2680
  179MOL0     C23500   2.872   9.487  11.253  1.1163 -0.5684 -0.7579
  179MOL0     C23501   2.847   9.370  11.185 -0.6461 -0.5630  0.1481
  179MOL0     C23502   2.745   9.280  11.227  0.3079  0.3358 -0.9256
  179MOL0     C23503   2.651   9.310  11.324  0.5548 -0.7952 -0.1050
  179MOL0     O23504   2.544   9.233  11.353 -0.3016 -0.0727 -0.3698
  179MOL0     C23505   2.426   9.291  11.420  0.9715 -0.6199  0.7313
  179MOL0     C23506   2.306   9.202  11.401  0.6051  1.2382  0.3201
  179MOL0     C23507   2.176   9.279  11.441 -0.1973  0.1200  0.0099
  179MOL0     C23508   2.059   9.208  11.371  0.0335 -0.6342 -0.3611
  179MOL0     C23509   1.937   9.233  11.468 -1.0527  0.1401  0.2402
  179MOL0     C23510   1.928   9.168  11.604  0.7024 -0.4912  1.1947
  179MOL0     C23511   1.798   9.198  11.670 -0.6493  1.1268 -0.0751
  179MOL0     C23512   1.828   9.145  11.825  0.4348 -0.3879  0.6534
  179MOL0     N23513   1.727   9.188  11.927  0.6327 -0.5551  0.5604
  179MOL0     C23514   1.588   9.175  11.905 -1.0105 -0.8647  0.2170
  179MOL0     C23515   1.543   9.223  12.024 -0.2305 -0.6902 -0.0455
  179MOL0     C23516   1.399   9.235  12.064  0.2394 -0.6217 -0.2005
  179MOL0     C23517   1.329   9.105  12.080  0.9078 -0.4093 -0.8111
  179MOL0     C23518   1.182   9.113  12.052 -0.2017  0.7116  0.0169
  179MOL0     C23519   1.117   8.979  12.038  1.3164  0.2674 -0.0444
  179MOL0     O23520   0.979   9.006  12.014  0.5553 -0.0580 -0.4181
  179MOL0     C23521   0.895   8.905  12.038  0.0574  0.4959  0.3855
  179MOL0     C23522   0.921   8.769  12.059 -0.1946  0.0255  0.0558
  179MOL0     C23523   0.818   8.677  12.066  0.1185  0.0741  0.9364
  179MOL0     C23524   0.689   8.716  12.071  0.0584  0.0039 -0.2379
  179MOL0     C23525   0.581   8.615  12.086  0.3452  0.1455  0.4548
  179MOL0     O23526   0.630   8.489  12.103 -0.2960 -0.2182  0.4389
  179MOL0     C23527   0.539   8.386  12.123  0.6179 -0.3591  0.1132
  179MOL0     C23528   0.512   8.325  12.242  0.0383 -0.2277  0.1599
  179MOL0     C23529   0.399   8.252  12.268 -0.2541 -0.0798  0.3555
  179MOL0     C23530   0.336   8.203  12.161  1.0204  0.1210  0.1330
  179MOL0     O23531   0.230   8.116  12.190  0.2828  0.2412  0.5304
  179MOL0     C23532   0.117   8.118  12.104  1.1144 -0.3852  0.0154
  179MOL0     C23533  -0.002   8.052  12.180 -0.5204 -0.8797  1.3564
  179MOL0     C23534  -0.033   8.155  12.298 -0.8047  0.4024  0.3796
  179MOL0     C23535  -0.174   8.120  12.362  0.0462 -0.4644 -0.0017
  179MOL0     C23536  -0.208   8.234  12.471 -0.3581 -0.3814 -0.4598
  179MOL0     C23537  -0.354   8.250  12.531 -0.2188  0.5634 -0.8651
  179MOL0     C23538  -0.406   8.133  12.612  0.0689  0.3406 -0.4952
  179MOL0     C23539  -0.366   8.138  12.761 -0.0161  1.4976 -0.3498
  179MOL0    Cl23540  -0.482   8.030  12.844 -0.2018  0.1385 -0.0292
  179MOL0     C23541   0.360   8.246  12.028 -0.3529 -1.1033  0.2752
  179MOL0     C23542   0.466   8.341  12.012 -0.7480  0.4714 -0.9488
  179MOL0     O23543   0.464   8.638  12.101  0.0906 -0.0620 -0.3766
  179MOL0     C23544   0.661   8.853  12.049 -0.8104  0.0156 -0.1490
  179MOL0     C23545   0.767   8.943  12.036 -0.0947 -0.2051  1.2315
  179MOL0     N23546   1.650   9.255  12.113 -0.0480  0.1227  0.5089
  179MOL0     N23547   1.759   9.230  12.051 -0.2590 -0.2720  0.3885
  179MOL0     C23548   2.676   9.442  11.385 -0.6767  0.0117 -0.4976
  179MOL0     C23549   2.777   9.528  11.349  0.3634  0.4323 -0.5060
  179MOL0     C23550   3.160   9.720  11.246  0.9960  0.1710 -0.0051
  179MOL0     C23551   3.231   9.823  11.323 -0.3335  0.2677 -0.6137
  179MOL0     C23552   3.355   9.871  11.289 -0.7924  0.3552  0.2772
  179MOL0     C23553   3.409   9.841  11.167 -0.0861  0.3014 -0.2901
  179MOL0     O23554   3.530   9.899  11.134 -0.3427  0.3404 -0.8326
  179MOL0     C23555   3.607   9.855  11.016 -0.7374 -0.6868 -0.2667
  179MOL0     C23556   3.727   9.948  10.990 -0.8136 -0.3214  0.1107
  179MOL0     C23557   3.771   9.960  10.846  0.5747  0.3825  0.4855
  179MOL0     C23558   3.911  10.030  10.825 -0.3303  0.0509  0.0866
  179MOL0     C23559   4.014   9.933  10.876  0.0122  0.2670  0.3092
  179MOL0     C23560   4.097   9.846  10.907  0.2458 -1.1658  0.2674
  179MOL0     C23561   3.332   9.756  11.085  0.3409  0.8874 -0.1402
  179MOL0     C23562   3.220   9.686  11.128 -0.3486  0.0306  0.9176
  179MOL0     H23563   2.896   9.357  11.089  2.2768 -0.2911  1.5032
  179MOL0     H23564   2.707   9.189  11.182 -3.0260  1.5007 -0.7729
  179MOL0     H23565   2.389   9.382  11.371 -1.5193 -1.9172  0.0426
  179MOL0     H23566   2.435   9.298  11.528  2.7240 -0.9775  0.6348
  179MOL0     H23567   2.304   9.113  11.464 -1.5260  1.4873  0.6719
  179MOL0     H23568   2.300   9.186  11.293  1.8554  1.3271  0.2214
  179MOL0     H23569   2.169   9.381  11.401 -2.1176 -0.4236 -1.1770
  179MOL0     H23570   2.169   9.283  11.550 -0.9407  2.5832 -0.0762
  179MOL0     H23571   2.032   9.251  11.273  1.6555 -1.0038 -1.0024
  179MOL0     H23572   2.067   9.100  11.356  1.6245 -0.2191 -3.3298
  179MOL0     H23573   1.848   9.213  11.408  0.7562 -0.8811 -2.2852
  179MOL0     H23574   1.941   9.341  11.483 -0.7231  0.0758  0.6466
  179MOL0     H23575   2.007   9.201  11.672  1.3429 -2.4598  1.4864
  179MOL0     H23576   1.936   9.059  11.592 -1.6836 -0.6095  0.0954
  179MOL0     H23577   1.770   9.303  11.676 -0.1637  1.1585  3.1033
  179MOL0     H23578   1.714   9.146  11.623 -0.2586 -0.3267  0.7860
  179MOL0     H23579   1.929   9.173  11.855  0.7282 -0.9934  0.2720
  179MOL0     H23580   1.848   9.037  11.825 -0.7412 -0.6409 -0.6503
  179MOL0     H23581   1.544   9.122  11.822  0.0501 -2.8807  0.8832
  179MOL0     H23582   1.347   9.301  11.993  2.6750 -0.7988 -2.3149
  179MOL0     H23583   1.398   9.295  12.155 -0.7733  0.1989 -0.7231
  179MOL0     H23584   1.338   9.081  12.186 -1.1422 -0.3989 -0.6039
  179MOL0     H23585   1.373   9.024  12.020  1.7388 -1.5956  1.2750
  179MOL0     H23586   1.129   9.167  12.130 -0.4595  1.0374 -0.3809
  179MOL0     H23587   1.152   9.168  11.962  0.8289 -0.0752 -0.8323
  179MOL0     H23588   1.137   8.928  12.133 -2.6216 -0.6499  0.4818
  179MOL0     H23589   1.147   8.913  11.957 -1.3609 -3.1274  1.4560
  179MOL0     H23590   1.020   8.725  12.056  0.4588  1.3692 -3.8604
  179MOL0     H23591   0.847   8.573  12.076  1.2592  0.2713 -0.0140
  179MOL0     H23592   0.576   8.339  12.328 -1.9371  2.4134  1.3526
  179MOL0     H23593   0.379   8.212  12.367 -0.3015 -1.1163 -0.0607
  179MOL0     H23594   0.138   8.055  12.017  1.3072 -3.0044  1.8534
  179MOL0     H23595   0.087   8.217  12.069 -1.0704 -0.9291  0.2096
  179MOL0     H23596   0.029   7.956  12.223  0.2798 -2.0665 -1.5964
  179MOL0     H23597  -0.089   8.033  12.116  0.0392 -1.9201  0.8764
  179MOL0     H23598  -0.043   8.254  12.254  2.4722  0.3969 -0.6423
  179MOL0     H23599   0.048   8.147  12.371  0.5861  3.3902 -0.6824
  179MOL0     H23600  -0.247   8.141  12.283 -2.3095 -2.5056  1.4990
  179MOL0     H23601  -0.176   8.014  12.388  1.8452 -0.5375 -0.0013
  179MOL0     H23602  -0.180   8.333  12.433 -2.8888  0.8607  0.6913
  179MOL0     H23603  -0.135   8.223  12.552 -1.4758 -0.2237  0.5921
  179MOL0     H23604  -0.418   8.279  12.447  0.1198 -0.0956 -1.3636
  179MOL0     H23605  -0.354   8.340  12.594 -1.7606 -1.1047  1.6888
  179MOL0     H23606  -0.514   8.150  12.608  0.0557  0.3458 -0.1704
  179MOL0     H23607  -0.380   8.039  12.562  1.7640  0.3818  0.2598
  179MOL0     H23608  -0.357   8.237  12.807  1.5452  0.5700  1.4321
  179MOL0     H23609  -0.266   8.095  12.771 -0.6941 -0.5498 -1.8336
  179MOL0     H23610   0.315   8.211  11.935  2.9735  2.0328 -2.8632
  179MOL0     H23611   0.496   8.365  11.910 -1.6373 -5.5219 -3.0326
  179MOL0     H23612   0.556   8.872  12.029 -0.6896 -1.3681 -2.4807
  179MOL0     H23613   0.745   9.049  12.031  5.0533  1.2342  3.2019
  179MOL0     H23614   2.611   9.473  11.466 -0.2482 -1.0520  0.2847
  179MOL0     H23615   2.784   9.625  11.397  2.3147  0.6501 -1.1374
  179MOL0     H23616   3.202   9.840  11.426  0.6556  0.7707 -0.3976
  179MOL0     H23617   3.404   9.944  11.352  1.1454 -0.0415 -0.6935
  179MOL0     H23618   3.533   9.853  10.934  0.2610 -2.2603 -1.1659
  179MOL0     H23619   3.648   9.756  11.032 -0.8733 -0.2364  3.9391
  179MOL0     H23620   3.705  10.045  11.036  0.4781 -0.8717  2.0035
  179MOL0     H23621   3.809   9.906  11.049 -0.3250  1.5755  0.8615
  179MOL0     H23622   3.683  10.001  10.794 -0.0054 -0.2031  0.9875
  179MOL0     H23623   3.789   9.860  10.807 -1.1558  0.4974 -0.7071
  179MOL0     H23624   3.921  10.034  10.716 -0.1551  1.4108  0.1328
  179MOL0     H23625   3.920  10.132  10.863  1.3253  0.6536 -1.7690
  179MOL0     H23626   4.176   9.782  10.942  3.3786  1.2986 -1.6248
  179MOL0     H23627   3.374   9.729  10.988 -0.5076 -0.0132 -0.2682
  179MOL0     H23628   3.184   9.622  11.048 -1.4508  1.9293 -0.2015
  180MOL0     O23629   2.373  11.165   3.472 -1.0291  0.4323 -0.1351
  180MOL0     C23630   2.429  11.242   3.551 -0.9904 -0.0262  0.2027
  180MOL0     O23631   2.369  11.330   3.638  0.7366 -1.2457  0.1865
  180MOL0     C23632   2.264  11.414   3.596  0.0441 -0.1239 -0.1185
  180MOL0     C23633   2.204  11.495   3.691 -0.1841  1.1131  0.0728
  180MOL0     C23634   2.082  11.569   3.669  0.1019  0.2650  0.3313
  180MOL0     C23635   2.027  11.567   3.546 -0.6156 -0.0926 -0.4015
  180MOL0     O23636   1.905  11.646   3.536 -0.5937  0.0749  0.2168
  180MOL0     C23637   1.776  11.568   3.542  0.6645  0.3521  0.2575
  180MOL0     C23638   1.708  11.615   3.676 -0.3248  0.7611 -0.3076
  180MOL0     C23639   1.649  11.748   3.659  0.3665 -0.7630 -0.0579
  180MOL0     C23640   1.641  11.807   3.801  0.3957  0.0130  0.5413
  180MOL0     C23641   1.529  11.917   3.807  0.1207 -0.9161  0.5261
  180MOL0     C23642   1.507  11.962   3.955  0.6437  0.1117 -0.4104
  180MOL0     C23643   1.395  12.066   3.972  0.0077 -0.0367 -0.6697
  180MOL0     C23644   1.410  12.192   3.876 -0.3972  0.3629 -0.1812
  180MOL0     N23645   1.312  12.298   3.896 -0.6397  0.3127 -0.8888
  180MOL0     C23646   1.281  12.355   4.017 -0.9042  0.0065 -0.2791
  180MOL0     C23647   1.163  12.412   3.999  0.2966  0.2004 -0.2004
  180MOL0     C23648   1.075  12.435   4.114  0.3949  0.3044 -0.2744
  180MOL0     C23649   0.920  12.418   4.090 -0.7475 -0.3026 -0.2293
  180MOL0     C23650   0.863  12.419   4.229  0.0106 -0.6630  0.1150
  180MOL0     C23651   0.712  12.390   4.242  1.0158 -1.6612 -0.5609
  180MOL0     O23652   0.643  12.507   4.188 -0.6996 -0.0457 -0.0851
  180MOL0     C23653   0.514  12.499   4.174  0.6730  0.4587 -0.1797
  180MOL0     C23654   0.446  12.605   4.125 -0.7241  0.0971  0.0337
  180MOL0     C23655   0.312  12.618   4.109  0.0511  1.1599  0.1880
  180MOL0     C23656   0.225  12.510   4.142 -1.0706 -0.0238 -0.5668
  180MOL0     C23657   0.079  12.524   4.120 -0.4946 -0.8048 -0.1469
  180MOL0     O23658   0.008  12.420   4.173  0.5635 -1.1699 -0.2866
  180MOL0     C23659  -0.135  12.432   4.157  0.1072 -0.3454  0.1105
  180MOL0     C23660  -0.189  12.304   4.142  0.5436 -0.4155  0.5571
  180MOL0     C23661  -0.324  12.289   4.124 -0.4418  0.3466  0.2944
  180MOL0     C23662  -0.410  12.398   4.142 -0.3097  0.2959  0.1901
  180MOL0     O23663  -0.548  12.379   4.133 -0.3369  0.4833 -0.4150
  180MOL0     C23664  -0.630  12.426   4.235  1.4015 -0.2623  0.4753
  180MOL0     C23665  -0.753  12.477   4.164  0.3047 -0.0259  0.1905
  180MOL0     C23666  -0.854  12.550   4.254  0.2735 -1.0174 -0.4020
  180MOL0     C23667  -0.917  12.481   4.378 -0.1986  1.8968 -0.0107
  180MOL0     C23668  -1.015  12.558   4.459  0.2675  0.5766 -0.4435
  180MOL0     C23669  -1.072  12.499   4.593 -0.8455 -0.0664  0.0149
  180MOL0     C23670  -1.219  12.453   4.590 -0.2152 -0.5150  0.8435
  180MOL0     C23671  -1.230  12.326   4.499  0.5791 -0.1553 -0.0900
  180MOL0    Cl23672  -1.292  12.380   4.334 -0.2438  1.1296 -0.7757
  180MOL0     C23673  -0.358  12.529   4.163  0.3393 -0.2220  0.0966
  180MOL0     C23674  -0.215  12.549   4.175 -0.0857 -0.9386  0.0749
  180MOL0     O23675   0.036  12.627   4.068 -1.0019 -0.0093  0.5220
  180MOL0     C23676   0.281  12.392   4.198 -0.4932 -0.7819  0.4419
  180MOL0     C23677   0.421  12.396   4.223  0.2547 -0.1565 -0.1263
  180MOL0     N23678   1.119  12.395   3.870 -0.4679  0.5713  0.4867
  180MOL0     N23679   1.208  12.324   3.805 -0.3360 -0.5494 -0.2997
  180MOL0     C23680   2.083  11.484   3.449 -0.5551 -0.0269  0.2398
  180MOL0     C23681   2.200  11.407   3.470 -1.5100 -0.9662 -1.1777
  180MOL0     C23682   2.573  11.210   3.573  0.2158  0.1128  0.0698
  180MOL0     C23683   2.644  11.297   3.657  0.2121  0.2301 -1.0514
  180MOL0     C23684   2.774  11.274   3.689 -1.2625  0.0559  0.0821
  180MOL0     C23685   2.855  11.179   3.628 -0.2135  0.1541  0.2977
  180MOL0     O23686   2.986  11.160   3.664 -0.2010 -1.2038  0.4371
  180MOL0     C23687   3.072  11.070   3.582 -0.4365  0.3811  0.3691
  180MOL0     C23688   3.224  11.095   3.613  1.1476  0.4226 -0.1539
  180MOL0     C23689   3.272  11.241   3.603  0.1714 -1.4073  0.1531
  180MOL0     C23690   3.241  11.328   3.722  0.2985  0.7926  0.0901
  180MOL0     C23691   3.317  11.458   3.715 -1.1272 -0.4893 -0.1240
  180MOL0     C23692   3.380  11.568   3.711  0.1627 -0.5265 -0.5431
  180MOL0     C23693   2.786  11.089   3.543  0.8492 -0.0643 -1.2464
  180MOL0     C23694   2.646  11.100   3.515  0.1826 -1.0465  0.0760
  180MOL0     H23695   2.249  11.495   3.790  0.5187  0.0347 -0.2272
  180MOL0     H23696   2.028  11.626   3.744 -2.4327 -2.4283  0.7310
  180MOL0     H23697   1.792  11.460   3.547 -2.2155 -0.0750  2.6044
  180MOL0     H23698   1.715  11.590   3.453  1.9764 -2.4121 -1.4790
  180MOL0     H23699   1.778  11.614   3.760 -0.1046  0.8880 -0.4893
  180MOL0     H23700   1.635  11.539   3.707  1.7733 -1.4735 -0.5855
  180MOL0     H23701   1.549  11.742   3.614  0.9094 -1.5174 -1.2022
  180MOL0     H23702   1.721  11.820   3.618 -0.7885 -0.0617 -0.9399
  180MOL0     H23703   1.611  11.744   3.886 -0.5334 -0.1287  0.1179
  180MOL0     H23704   1.738  11.854   3.819  0.3862  0.4186 -0.3942
  180MOL0     H23705   1.434  11.883   3.766 -1.4516  0.7864  2.4946
  180MOL0     H23706   1.568  12.006   3.757  1.1035 -1.2952  0.6007
  180MOL0     H23707   1.597  12.006   3.999  1.5294 -1.3096 -0.7386
  180MOL0     H23708   1.484  11.870   4.009  0.1428  0.1653 -0.5257
  180MOL0     H23709   1.299  12.018   3.952  1.2403 -1.7942 -2.7377
  180MOL0     H23710   1.386  12.103   4.075 -1.4038 -0.9453 -0.4307
  180MOL0     H23711   1.401  12.162   3.771 -4.1428  2.7977 -0.7768
  180MOL0     H23712   1.512  12.229   3.888 -1.2223  2.4112  1.2654
  180MOL0     H23713   1.328  12.342   4.114 -0.5940 -1.2100 -0.5848
  180MOL0     H23714   1.105  12.536   4.143  0.8844 -0.0301  0.4229
  180MOL0     H23715   1.109  12.377   4.200  1.2907  0.5738 -0.4364
  180MOL0     H23716   0.900  12.326   4.035  1.0617 -0.2823 -1.0097
  180MOL0     H23717   0.873  12.503   4.039 -2.3828  0.6142  2.6109
  180MOL0     H23718   0.908  12.335   4.284 -1.2149 -4.5892 -4.2474
  180MOL0     H23719   0.892  12.513   4.276 -2.1771  0.1103  0.0239
  180MOL0     H23720   0.696  12.388   4.351  0.4967  0.3272 -0.5562
  180MOL0     H23721   0.688  12.294   4.197  3.0511 -2.2685 -0.4432
  180MOL0     H23722   0.505  12.678   4.071  0.7678  0.3202  1.8329
  180MOL0     H23723   0.280  12.717   4.078  1.1695  1.9696  1.4822
  180MOL0     H23724  -0.122  12.219   4.134 -1.8392 -2.4384  0.7085
  180MOL0     H23725  -0.365  12.190   4.105  2.6018 -1.2012  0.9822
  180MOL0     H23726  -0.584  12.507   4.294 -2.1754  3.3554 -1.2265
  180MOL0     H23727  -0.654  12.343   4.302  1.3641 -2.0120 -1.6304
  180MOL0     H23728  -0.808  12.394   4.118  1.1965 -0.9292  0.7238
  180MOL0     H23729  -0.723  12.541   4.080  3.3663 -1.1223  0.3320
  180MOL0     H23730  -0.937  12.576   4.189  0.8660 -0.0151 -0.7841
  180MOL0     H23731  -0.817  12.645   4.295  1.7342 -2.0711  0.8549
  180MOL0     H23732  -0.972  12.392   4.345  2.2878 -0.1885  1.1523
  180MOL0     H23733  -0.846  12.441   4.449 -2.7774 -1.5224  0.9055
  180MOL0     H23734  -1.103  12.585   4.399 -3.1333  0.8503  4.0842
  180MOL0     H23735  -0.983  12.658   4.489 -1.6039  1.3282 -0.7604
  180MOL0     H23736  -1.061  12.567   4.677  1.7559 -0.3427 -0.0159
  180MOL0     H23737  -1.015  12.411   4.622 -4.5057 -3.6951 -2.6189
  180MOL0     H23738  -1.245  12.420   4.691  1.5338 -0.9621  1.1760
  180MOL0     H23739  -1.283  12.536   4.559  1.2237  0.7486  1.1577
  180MOL0     H23740  -1.313  12.265   4.536  1.9219 -1.2468  1.2625
  180MOL0     H23741  -1.143  12.261   4.496 -0.3606 -1.4742  0.4371
  180MOL0     H23742  -0.427  12.608   4.191 -0.6966 -0.4270 -1.7290
  180MOL0     H23743  -0.162  12.634   4.217 -3.8189  0.7632  1.8840
  180MOL0     H23744   0.216  12.309   4.223  0.0644 -2.4042 -2.8385
  180MOL0     H23745   0.465  12.305   4.263 -1.3443 -0.2918  1.4345
  180MOL0     H23746   2.025  11.455   3.362  1.0387  1.2077 -1.3018
  180MOL0     H23747   2.235  11.340   3.393  1.7240  0.4207 -1.0498
  180MOL0     H23748   2.597  11.377   3.713  3.1747  0.6440  1.0652
  180MOL0     H23749   2.831  11.346   3.747 -0.1137 -1.5877  1.0713
  180MOL0     H23750   3.053  11.096   3.478  2.2760  0.6458 -0.1300
  180MOL0     H23751   3.060  10.962   3.596  0.5824  0.3716  1.2807
  180MOL0     H23752   3.241  11.058   3.714 -1.2594  1.8703  0.8623
  180MOL0     H23753   3.281  11.025   3.550 -0.9556 -0.4409 -1.2033
  180MOL0     H23754   3.235  11.288   3.512 -1.1852 -0.0697  1.3401
  180MOL0     H23755   3.380  11.233   3.587  0.3075  1.1419 -0.5692
  180MOL0     H23756   3.133  11.346   3.722  0.0841 -0.4107  0.6497
  180MOL0     H23757   3.264  11.272   3.813  1.4053  0.6830 -0.2402
  180MOL0     H23758   3.436  11.658   3.692 -0.7530 -0.2385 -2.0632
  180MOL0     H23759   2.839  11.012   3.487  1.1457 -1.0951  0.3809
  180MOL0     H23760   2.590  11.043   3.442 -1.9376 -2.3826  2.5761
  181MOL0     O23761   9.197   9.712   0.749  1.0442  0.2544  1.3170
  181MOL0     C23762   9.249   9.818   0.788  0.2554  0.2725  0.5939
  181MOL0     O23763   9.265   9.853   0.925  0.3091  0.4581 -0.5851
  181MOL0     C23764   9.177   9.806   1.015  0.1253 -0.2031  0.5800
  181MOL0     C23765   9.220   9.812   1.148  0.4000  0.9798  0.6523
  181MOL0     C23766   9.133   9.769   1.249  0.8671 -0.8405  0.6192
  181MOL0     C23767   9.006   9.715   1.224 -0.0644 -1.0901 -0.5906
  181MOL0     O23768   8.923   9.690   1.336  0.8335 -0.0892  0.4046
  181MOL0     C23769   8.895   9.551   1.344  0.6856 -0.8816  0.3468
  181MOL0     C23770   8.796   9.527   1.464 -0.5827 -0.0484  0.4968
  181MOL0     C23771   8.647   9.551   1.437  0.3553  0.1813 -0.5896
  181MOL0     C23772   8.557   9.543   1.569 -0.1745 -0.4422  0.1189
  181MOL0     C23773   8.585   9.649   1.669 -0.4414  0.3915 -0.4512
  181MOL0     C23774   8.549   9.789   1.599 -0.5117 -0.1813 -0.1806
  181MOL0     C23775   8.678   9.875   1.573  0.4875 -0.5884 -0.4913
  181MOL0     C23776   8.732   9.949   1.701  0.6388  0.2121  0.5853
  181MOL0     N23777   8.650  10.054   1.760 -0.0638  1.0239 -0.3884
  181MOL0     C23778   8.641  10.179   1.704  0.5040  0.9144 -0.7383
  181MOL0     C23779   8.563  10.244   1.793  0.3982 -0.1082 -0.4944
  181MOL0     C23780   8.503  10.385   1.786 -0.4082  0.8066  0.3421
  181MOL0     C23781   8.544  10.475   1.910 -0.3684  0.3548 -0.0455
  181MOL0     C23782   8.511  10.626   1.901  0.0415  0.3594  0.1776
  181MOL0     C23783   8.373  10.671   1.856 -0.3807 -0.2470  0.1476
  181MOL0     O23784   8.284  10.624   1.961 -0.1399  0.5182 -0.9589
  181MOL0     C23785   8.150  10.601   1.945  0.2379 -0.8658  0.9162
  181MOL0     C23786   8.060  10.599   2.058 -0.8627 -0.9719  0.7084
  181MOL0     C23787   7.925  10.581   2.044  0.5380  0.4131  0.4120
  181MOL0     C23788   7.872  10.552   1.916  0.0426 -0.8531 -0.5016
  181MOL0     C23789   7.725  10.561   1.891  0.3756 -0.5083  0.7873
  181MOL0     O23790   7.656  10.502   1.994  0.4837 -0.3001  1.0411
  181MOL0     C23791   7.520  10.484   1.959 -0.1432  0.0300  0.1265
  181MOL0     C23792   7.477  10.361   1.900 -0.0609  0.5397  0.5391
  181MOL0     C23793   7.344  10.332   1.889 -0.1374 -0.0325 -0.0227
  181MOL0     C23794   7.248  10.410   1.960 -0.1829 -0.7076  0.7720
  181MOL0     O23795   7.116  10.378   1.948 -0.0129  0.1962  0.2761
  181MOL0     C23796   7.003  10.448   2.009  0.2282  0.0002 -0.2537
  181MOL0     C23797   6.884  10.377   1.956  0.7483  1.0622  0.1912
  181MOL0     C23798   6.752  10.444   2.011  0.0770  1.2123  0.5248
  181MOL0     C23799   6.625  10.378   1.964 -0.3816  0.4829  0.3737
  181MOL0     C23800   6.494  10.418   2.027  0.7093  0.3823 -0.9610
  181MOL0     C23801   6.472  10.570   2.025  0.3539 -0.4124 -0.4750
  181MOL0     C23802   6.337  10.606   2.079 -0.4834  0.9850 -0.3287
  181MOL0     C23803   6.324  10.755   2.129 -0.2179  0.4462  0.7632
  181MOL0    Cl23804   6.169  10.755   2.228 -0.1313 -0.1604  0.0385
  181MOL0     C23805   7.286  10.521   2.028 -0.3487 -0.3410  0.3044
  181MOL0     C23806   7.422  10.559   2.023  0.6728  0.0756  0.1469
  181MOL0     O23807   7.674  10.614   1.793  0.2968 -0.4126  0.7956
  181MOL0     C23808   7.960  10.548   1.804 -0.4874  0.2853 -0.0035
  181MOL0     C23809   8.102  10.564   1.825 -0.9039 -0.4167 -0.1125
  181MOL0     N23810   8.537  10.164   1.902 -0.1508 -0.2999 -0.2433
  181MOL0     N23811   8.587  10.050   1.881  0.0621  0.1892 -0.3826
  181MOL0     C23812   8.966   9.715   1.094  0.3645  0.1364 -0.3740
  181MOL0     C23813   9.052   9.757   0.989  0.9515 -0.0793 -0.8598
  181MOL0     C23814   9.300   9.910   0.677 -1.1474  0.1449 -0.7747
  181MOL0     C23815   9.266   9.903   0.545 -0.6026 -0.6480 -0.2150
  181MOL0     C23816   9.294  10.009   0.458  0.6505 -0.4729 -0.3545
  181MOL0     C23817   9.367  10.118   0.498  0.5038  0.3584  0.5968
  181MOL0     O23818   9.372  10.221   0.411 -0.3495  0.2854  0.4036
  181MOL0     C23819   9.481  10.309   0.408 -0.1455  0.4551  0.0682
  181MOL0     C23820   9.455  10.443   0.471  0.0709  0.0703  0.0230
  181MOL0     C23821   9.570  10.539   0.452 -0.6072  0.5064  0.3472
  181MOL0     C23822   9.540  10.672   0.517 -0.2466 -0.2862 -0.5648
  181MOL0     C23823   9.654  10.768   0.475 -0.7452  0.1652 -0.0129
  181MOL0     C23824   9.743  10.840   0.440 -0.0730  0.4219 -0.2053
  181MOL0     C23825   9.409  10.121   0.630  0.8311 -0.2283  0.7787
  181MOL0     C23826   9.376  10.024   0.718 -0.0956 -1.1854 -0.2508
  181MOL0     H23827   9.318   9.853   1.170  0.9725 -0.9019  1.8142
  181MOL0     H23828   9.154   9.780   1.355 -2.2923  0.9682  1.2116
  181MOL0     H23829   8.983   9.490   1.369 -1.7075 -4.4808  0.7937
  181MOL0     H23830   8.831   9.524   1.260 -0.1886  1.9891  0.0097
  181MOL0     H23831   8.830   9.578   1.555 -2.5941 -0.3191  1.4607
  181MOL0     H23832   8.790   9.420   1.488 -2.2576  0.2436  1.6191
  181MOL0     H23833   8.619   9.473   1.366 -1.9707 -2.6415  3.0790
  181MOL0     H23834   8.638   9.648   1.386  3.5695  0.7168 -0.3539
  181MOL0     H23835   8.449   9.543   1.550 -0.0304 -0.8912 -0.7307
  181MOL0     H23836   8.581   9.447   1.616 -0.5134 -1.3035 -1.4140
  181MOL0     H23837   8.690   9.654   1.698  0.7728 -2.2225 -3.6673
  181MOL0     H23838   8.535   9.630   1.764 -1.0622  1.6396 -0.5073
  181MOL0     H23839   8.495   9.850   1.671  2.0207 -1.2271  2.7940
  181MOL0     H23840   8.488   9.778   1.508 -1.1989 -0.8124  0.3421
  181MOL0     H23841   8.752   9.801   1.540 -1.0617 -2.3949 -0.1529
  181MOL0     H23842   8.652   9.947   1.496  0.9603  1.0683  0.8460
  181MOL0     H23843   8.827   9.993   1.669 -0.1662  0.3515 -1.8569
  181MOL0     H23844   8.762   9.877   1.778  0.6702  1.1674  1.4891
  181MOL0     H23845   8.686  10.212   1.612 -1.4582 -1.1211 -2.5626
  181MOL0     H23846   8.395  10.368   1.776 -0.5767  1.6338  0.6835
  181MOL0     H23847   8.546  10.425   1.695  1.8423  1.0112  1.4390
  181MOL0     H23848   8.653  10.472   1.905 -0.3958  0.3433 -0.7292
  181MOL0     H23849   8.511  10.427   2.002  0.1709  0.4058  0.1739
  181MOL0     H23850   8.522  10.668   2.002 -2.1416 -0.2448  0.7107
  181MOL0     H23851   8.581  10.677   1.834 -1.4237 -0.1942 -1.8650
  181MOL0     H23852   8.367  10.629   1.755  2.5478  0.8861 -0.5866
  181MOL0     H23853   8.366  10.780   1.843 -1.4964 -0.1526  1.3256
  181MOL0     H23854   8.114  10.597   2.153 -3.4568 -3.1949  2.2623
  181MOL0     H23855   7.869  10.597   2.135  1.1816  2.2805  0.5336
  181MOL0     H23856   7.540  10.279   1.865 -0.9029  0.4447 -0.8561
  181MOL0     H23857   7.319  10.240   1.837 -1.3554 -0.5632  1.3967
  181MOL0     H23858   7.002  10.551   1.973 -2.0203 -0.1942 -0.9016
  181MOL0     H23859   7.016  10.437   2.117 -0.6793  1.4122  0.0249
  181MOL0     H23860   6.899  10.275   1.994 -1.0096  1.8560  3.4250
  181MOL0     H23861   6.879  10.386   1.848  1.0460  4.4731  0.3762
  181MOL0     H23862   6.760  10.542   1.964 -0.7679  0.9481 -0.1960
  181MOL0     H23863   6.757  10.450   2.120  1.3347  0.4852  0.5242
  181MOL0     H23864   6.607  10.403   1.859  0.0079 -0.4547  0.0675
  181MOL0     H23865   6.630  10.268   1.970 -0.6938  0.2331 -2.4410
  181MOL0     H23866   6.489  10.382   2.130 -1.7561  2.8231 -0.0829
  181MOL0     H23867   6.418  10.368   1.966 -1.2055  1.5664  0.3489
  181MOL0     H23868   6.480  10.613   1.925 -0.6334  1.3443  0.1487
  181MOL0     H23869   6.546  10.631   2.078 -0.1347 -0.0608 -0.1782
  181MOL0     H23870   6.258  10.590   2.005 -1.9865 -1.0142  1.5942
  181MOL0     H23871   6.324  10.540   2.164  2.7145 -0.1518 -0.5773
  181MOL0     H23872   6.305  10.819   2.042 -3.4002  1.9924  2.3925
  181MOL0     H23873   6.409  10.796   2.183  0.3906  0.2523 -0.0259
  181MOL0     H23874   7.222  10.585   2.088  1.5042 -0.7631  2.9136
  181MOL0     H23875   7.459  10.653   2.062  0.7580 -0.9306  2.6941
  181MOL0     H23876   7.918  10.517   1.709 -4.4151  5.2224 -0.2713
  181MOL0     H23877   8.165  10.551   1.737 -0.1289  2.8804 -0.2173
  181MOL0     H23878   8.863   9.687   1.076 -0.9117  2.7138  2.0816
  181MOL0     H23879   8.997   9.755   0.896 -1.2246  0.3611  0.3387
  181MOL0     H23880   9.201   9.826   0.506 -1.3605 -0.5661  0.8538
  181MOL0     H23881   9.242  10.015   0.363 -0.3843 -0.5271  0.1941
  181MOL0     H23882   9.500  10.324   0.301  0.3765 -3.5615 -0.5604
  181MOL0     H23883   9.571  10.271   0.457  0.4957  1.8875  0.0716
  181MOL0     H23884   9.364  10.500   0.452  0.2942  0.7979  1.0229
  181MOL0     H23885   9.457  10.429   0.580 -0.0644 -1.6161 -0.1603
  181MOL0     H23886   9.588  10.553   0.345 -0.8381  0.4203  0.2954
  181MOL0     H23887   9.651  10.488   0.505  0.2880  1.0084 -0.4954
  181MOL0     H23888   9.442  10.719   0.511  0.1502  0.7389  0.5159
  181MOL0     H23889   9.549  10.658   0.625  3.1390 -3.7653 -1.0576
  181MOL0     H23890   9.814  10.900   0.386  0.3681  1.2731  1.2554
  181MOL0     H23891   9.471  10.203   0.661 -0.2799  1.6577 -1.6699
  181MOL0     H23892   9.400  10.028   0.824 -3.0214  2.2131  0.4874
  182MOL0     O23893   8.503   6.482   8.293 -0.3197  0.4962  0.4919
  182MOL0     C23894   8.474   6.466   8.178  0.8130  0.6290 -0.3431
  182MOL0     O23895   8.383   6.535   8.110 -0.4707 -0.0631 -0.5628
  182MOL0     C23896   8.363   6.656   8.168  0.9085  0.5782 -0.5964
  182MOL0     C23897   8.421   6.773   8.127 -0.4204 -0.1303 -0.1228
  182MOL0     C23898   8.393   6.898   8.183 -0.0345 -0.2231 -0.1079
  182MOL0     C23899   8.299   6.913   8.282 -0.7347  0.6510  0.4673
  182MOL0     O23900   8.282   7.038   8.345  0.2452  0.2950 -0.0403
  182MOL0     C23901   8.179   7.061   8.439 -0.7440 -0.3581  1.2299
  182MOL0     C23902   8.116   7.207   8.438 -0.5882  0.1741  0.2057
  182MOL0     C23903   8.027   7.229   8.559 -0.9447 -0.3311  0.7602
  182MOL0     C23904   7.949   7.366   8.537  0.2749  0.5798 -0.5942
  182MOL0     C23905   7.823   7.359   8.633 -1.0113 -0.7100  0.7642
  182MOL0     C23906   7.865   7.365   8.776 -0.3621 -0.4015  0.6579
  182MOL0     C23907   7.745   7.331   8.873  0.1490 -0.8571 -0.1719
  182MOL0     C23908   7.614   7.402   8.842 -0.0873 -0.4763  0.1258
  182MOL0     N23909   7.512   7.404   8.957 -0.2607 -0.5716 -0.6309
  182MOL0     C23910   7.407   7.489   8.970 -0.0722 -0.4283  0.0732
  182MOL0     C23911   7.321   7.443   9.062 -0.7205 -0.2043  0.3279
  182MOL0     C23912   7.198   7.521   9.108  0.2257 -0.0176 -0.1885
  182MOL0     C23913   7.096   7.528   8.992 -0.0471  0.0991  0.1308
  182MOL0     C23914   7.042   7.391   8.930 -0.7541 -0.3372 -0.6016
  182MOL0     C23915   6.936   7.321   9.017  0.0739  0.9098  1.1753
  182MOL0     O23916   6.987   7.283   9.144  0.9188  0.2797  0.3042
  182MOL0     C23917   6.922   7.190   9.219 -0.7043  0.1145  0.3028
  182MOL0     C23918   6.872   7.068   9.161 -0.4490  0.7748  0.1109
  182MOL0     C23919   6.849   6.961   9.254  1.2822  0.4896  0.7238
  182MOL0     C23920   6.854   6.965   9.389  0.0825  0.2282  0.2570
  182MOL0     C23921   6.839   6.858   9.495 -0.5827  0.8230 -0.1783
  182MOL0     O23922   6.826   6.892   9.624  0.3904  0.1147  0.6530
  182MOL0     C23923   6.740   6.820   9.706 -0.6357  0.1531 -1.0906
  182MOL0     C23924   6.767   6.804   9.842  0.0357  0.0649 -0.1010
  182MOL0     C23925   6.675   6.743   9.925 -0.7778 -0.5065  0.1358
  182MOL0     C23926   6.566   6.670   9.879 -0.0470 -0.4660  0.7214
  182MOL0     O23927   6.475   6.613   9.961 -0.3097 -0.1540 -0.3182
  182MOL0     C23928   6.418   6.684  10.068  0.3250 -0.2882 -0.4309
  182MOL0     C23929   6.375   6.826  10.042  0.0318  0.0626  0.2101
  182MOL0     C23930   6.251   6.832   9.948  0.6954 -0.3531  0.3853
  182MOL0     C23931   6.182   6.973   9.944  0.0468  0.3667 -0.2618
  182MOL0     C23932   6.128   7.010   9.804 -0.6094  0.4345 -0.0680
  182MOL0     C23933   6.000   6.928   9.766  0.1283  1.1598 -0.6610
  182MOL0     C23934   5.869   6.982   9.839  0.4498 -0.5689 -0.0868
  182MOL0     C23935   5.743   6.906   9.812  0.0890 -0.2544  1.3218
  182MOL0    Cl23936   5.707   6.906   9.631  0.0293 -0.5974  0.2594
  182MOL0     C23937   6.544   6.676   9.738 -0.1314 -0.8910  0.3613
  182MOL0     C23938   6.621   6.754   9.655 -0.3069 -0.1947  0.6585
  182MOL0     O23939   6.832   6.741   9.447 -0.9781  0.4677  0.0986
  182MOL0     C23940   6.895   7.092   9.434  0.3322 -0.7650  0.2181
  182MOL0     C23941   6.928   7.202   9.353  0.5344  0.5848  1.0917
  182MOL0     N23942   7.374   7.323   9.095  0.6682  0.3891  0.3992
  182MOL0     N23943   7.482   7.299   9.034  0.1299  0.8702 -0.2783
  182MOL0     C23944   8.235   6.796   8.323 -0.0142  0.1345  0.1417
  182MOL0     C23945   8.266   6.667   8.277  0.3400  0.0317 -0.0549
  182MOL0     C23946   8.529   6.348   8.116 -0.2397  0.6912  0.4237
  182MOL0     C23947   8.664   6.301   8.133  0.2594 -0.5442 -0.6641
  182MOL0     C23948   8.702   6.180   8.075  0.1621 -0.5411  0.1652
  182MOL0     C23949   8.616   6.114   7.985 -1.3844  0.0281 -0.3824
  182MOL0     O23950   8.664   5.990   7.936 -0.0082  0.7648 -0.3995
  182MOL0     C23951   8.634   5.964   7.794 -0.6149  0.2975 -1.6625
  182MOL0     C23952   8.764   5.930   7.716  0.2700  0.1951 -0.0296
  182MOL0     C23953   8.879   6.031   7.702  0.1069 -0.9532 -0.1509
  182MOL0     C23954   8.967   6.079   7.822 -0.0868  1.4268  0.2545
  182MOL0     C23955   9.036   5.956   7.873 -0.5178  0.5318 -0.2414
  182MOL0     C23956   9.091   5.845   7.915 -0.7629 -0.7191 -0.0469
  182MOL0     C23957   8.492   6.164   7.959 -0.1120  0.4304  0.0776
  182MOL0     C23958   8.447   6.281   8.026  0.9296 -0.2496  0.8035
  182MOL0     H23959   8.495   6.758   8.049 -0.4093 -4.2605  0.4572
  182MOL0     H23960   8.454   6.979   8.143  1.3072  0.3459  2.8397
  182MOL0     H23961   8.229   7.043   8.534 -2.2015  0.4217  2.1766
  182MOL0     H23962   8.098   6.988   8.441 -0.5237 -0.6588  0.1374
  182MOL0     H23963   8.066   7.228   8.343 -0.2422  0.2996  0.0491
  182MOL0     H23964   8.198   7.279   8.436  0.4524 -0.9860 -0.9677
  182MOL0     H23965   8.084   7.223   8.653  0.4894  1.2134  0.0335
  182MOL0     H23966   7.957   7.145   8.551 -2.6806  0.6576  3.7869
  182MOL0     H23967   8.016   7.453   8.543 -1.1271  1.7475 -1.1687
  182MOL0     H23968   7.917   7.368   8.433  1.7519  0.3023 -1.0698
  182MOL0     H23969   7.758   7.276   8.605 -0.5515 -1.0192  0.6078
  182MOL0     H23970   7.768   7.451   8.610  1.1751 -0.2934 -3.7867
  182MOL0     H23971   7.905   7.467   8.780 -3.2976  0.8836 -0.4285
  182MOL0     H23972   7.948   7.295   8.794  0.0649 -1.3923 -3.8131
  182MOL0     H23973   7.713   7.227   8.870 -1.3402 -0.4572  0.8237
  182MOL0     H23974   7.771   7.353   8.977  0.3225  0.3245 -0.4438
  182MOL0     H23975   7.580   7.362   8.746  3.7125  0.7271 -1.9373
  182MOL0     H23976   7.634   7.508   8.825 -1.2850  0.5434  3.9968
  182MOL0     H23977   7.396   7.582   8.915 -0.8877 -0.3750  0.3012
  182MOL0     H23978   7.241   7.620   9.127  1.6401 -0.9872  2.0053
  182MOL0     H23979   7.162   7.481   9.203 -1.0683 -0.5897 -0.8917
  182MOL0     H23980   7.131   7.584   8.905 -3.9195  0.2400 -1.5664
  182MOL0     H23981   7.012   7.591   9.023  0.5726  0.3290  1.4046
  182MOL0     H23982   6.986   7.412   8.839 -1.9361 -2.6619 -0.4694
  182MOL0     H23983   7.123   7.320   8.913  1.7497  2.1737 -0.0324
  182MOL0     H23984   6.911   7.238   8.951  1.0085  1.1055  0.5619
  182MOL0     H23985   6.851   7.390   9.023  0.3312  1.5362 -1.3414
  182MOL0     H23986   6.850   7.064   9.055 -1.7325  1.1165  0.3482
  182MOL0     H23987   6.834   6.864   9.208  1.1135  1.2448 -0.8661
  182MOL0     H23988   6.859   6.852   9.874  1.8530  1.4137 -6.1172
  182MOL0     H23989   6.678   6.730  10.033 -0.0412  0.5005  0.2568
  182MOL0     H23990   6.496   6.679  10.145  1.0714  0.9090 -1.0726
  182MOL0     H23991   6.327   6.629  10.090  1.6036 -2.7639 -1.0364
  182MOL0     H23992   6.458   6.882   9.998  0.9589 -1.5643 -0.1834
  182MOL0     H23993   6.338   6.866  10.137 -2.3371  0.6409 -0.8966
  182MOL0     H23994   6.176   6.753   9.963  0.5351 -0.0601  1.2076
  182MOL0     H23995   6.308   6.813   9.857 -0.2526  0.8407 -0.4974
  182MOL0     H23996   6.105   6.976  10.022  0.1422  0.0083 -0.1507
  182MOL0     H23997   6.255   7.053   9.963  1.1633 -0.8527  0.8197
  182MOL0     H23998   6.202   6.985   9.727  0.6316  2.8085  0.2601
  182MOL0     H23999   6.117   7.118   9.818  0.8946  0.2267  3.8177
  182MOL0     H24000   6.013   6.820   9.779  0.7198  1.3898  1.0061
  182MOL0     H24001   5.983   6.954   9.662 -3.0167 -3.1352 -1.4814
  182MOL0     H24002   5.883   6.982   9.948 -1.2250  1.0937  0.1741
  182MOL0     H24003   5.853   7.086   9.810 -1.4060 -0.4333  1.2905
  182MOL0     H24004   5.653   6.949   9.858 -0.9750 -0.7465 -0.2130
  182MOL0     H24005   5.732   6.801   9.842 -3.3073 -0.9371 -1.6526
  182MOL0     H24006   6.464   6.618   9.695  1.0172 -1.7893 -0.6535
  182MOL0     H24007   6.583   6.761   9.553  1.2480 -0.1276  0.0580
  182MOL0     H24008   6.908   7.106   9.541  3.2370  0.5295 -0.2169
  182MOL0     H24009   6.982   7.280   9.407  0.9399  0.1170  1.3701
  182MOL0     H24010   8.166   6.801   8.406  0.4583 -0.3943  0.5720
  182MOL0     H24011   8.228   6.574   8.317  0.4176 -0.1145 -0.3224
  182MOL0     H24012   8.739   6.353   8.192 -3.4302  0.9241  3.2693
  182MOL0     H24013   8.787   6.122   8.108 -1.9646 -2.2387  3.1342
  182MOL0     H24014   8.606   6.059   7.747  0.8735  1.8886  0.4880
  182MOL0     H24015   8.566   5.879   7.782  0.3619 -0.8349  0.3605
  182MOL0     H24016   8.792   5.838   7.767  0.5503  0.3527  0.1049
  182MOL0     H24017   8.720   5.906   7.619 -2.4208 -0.3049  1.2351
  182MOL0     H24018   8.838   6.124   7.661  0.5509 -0.8768 -0.4294
  182MOL0     H24019   8.952   6.002   7.626 -0.1992 -1.2483 -0.3337
  182MOL0     H24020   9.043   6.154   7.796  0.9323  1.0932  2.0859
  182MOL0     H24021   8.918   6.129   7.905 -3.0454 -2.6974  1.3111
  182MOL0     H24022   9.136   5.751   7.941 -0.5862 -0.8297 -0.7340
  182MOL0     H24023   8.421   6.109   7.898 -0.3382 -2.1116  2.4332
  182MOL0     H24024   8.345   6.305   7.996  1.2070 -1.4136 -1.3387
  183MOL0     O24025   7.119   6.998   1.316  0.0384  0.0010 -0.0364
  183MOL0     C24026   7.063   7.086   1.385 -0.9297  0.6917 -0.9181
  183MOL0     O24027   6.936   7.088   1.423 -0.0159  0.9356  0.9005
  183MOL0     C24028   6.856   6.979   1.457 -0.0769 -0.0098  0.0119
  183MOL0     C24029   6.904   6.852   1.465  0.3876  1.1490  0.3012
  183MOL0     C24030   6.813   6.745   1.505  0.7170  0.4587  0.5071
  183MOL0     C24031   6.676   6.775   1.516  0.6780 -0.0285  0.9257
  183MOL0     O24032   6.580   6.673   1.531  0.4601 -0.2835 -0.3203
  183MOL0     C24033   6.622   6.541   1.485  0.7144  0.2665 -0.1537
  183MOL0     C24034   6.496   6.448   1.486  0.9589  0.0123  0.2511
  183MOL0     C24035   6.389   6.506   1.398  0.6594 -0.9462  0.9182
  183MOL0     C24036   6.290   6.394   1.364  1.0572 -0.1063  0.4491
  183MOL0     C24037   6.199   6.445   1.250  0.2874 -0.9164  0.6720
  183MOL0     C24038   6.079   6.363   1.207  0.5500  0.1940  0.4528
  183MOL0     C24039   5.987   6.413   1.094  0.1059 -0.4112 -0.2731
  183MOL0     C24040   5.955   6.296   0.997 -0.4086  0.3931 -0.2165
  183MOL0     N24041   5.841   6.209   1.041 -1.2873 -0.9689 -0.3170
  183MOL0     C24042   5.709   6.232   1.019 -0.1014 -0.3399 -0.0503
  183MOL0     C24043   5.633   6.128   1.079  0.3811 -0.8510  0.7206
  183MOL0     C24044   5.490   6.090   1.065  0.1394 -0.3372  0.0094
  183MOL0     C24045   5.397   6.215   1.046  0.1725 -0.0915 -0.4619
  183MOL0     C24046   5.252   6.172   1.010  0.4554 -0.5187 -0.9396
  183MOL0     C24047   5.153   6.279   0.995  0.7385 -0.0805 -0.0780
  183MOL0     O24048   5.018   6.231   0.972 -0.0076  0.0687 -0.0744
  183MOL0     C24049   4.948   6.319   0.891  1.0127 -0.2234  0.2901
  183MOL0     C24050   4.971   6.317   0.753  0.3767  0.5184 -0.4461
  183MOL0     C24051   4.892   6.386   0.661  0.2708 -0.4496 -0.6181
  183MOL0     C24052   4.774   6.454   0.707 -0.9973  0.7913 -0.0660
  183MOL0     C24053   4.695   6.529   0.615 -0.1682  0.2079  0.8272
  183MOL0     O24054   4.580   6.581   0.672  0.3991  0.8094  1.0000
  183MOL0     C24055   4.505   6.677   0.607  0.4577  0.4145 -0.2311
  183MOL0     C24056   4.559   6.783   0.534  0.0013 -0.2289  0.4851
  183MOL0     C24057   4.477   6.892   0.504  0.5837 -0.4047 -0.1376
  183MOL0     C24058   4.342   6.893   0.533  0.4300 -0.0236 -0.4398
  183MOL0     O24059   4.285   7.018   0.517 -0.9508 -0.9396  0.4549
  183MOL0     C24060   4.139   7.037   0.521  0.3356  0.4135  0.4017
  183MOL0     C24061   4.082   7.153   0.441  0.8541 -0.9396 -0.6023
  183MOL0     C24062   3.931   7.128   0.405  0.4155  0.0954  0.1292
  183MOL0     C24063   3.876   7.254   0.342 -0.4985 -0.7093 -0.1265
  183MOL0     C24064   3.724   7.242   0.308 -0.3078  0.3918 -0.2572
  183MOL0     C24065   3.687   7.351   0.211  0.0737 -0.3979  0.3301
  183MOL0     C24066   3.530   7.363   0.210  0.1449 -0.0040 -0.7724
  183MOL0     C24067   3.496   7.457   0.104  0.3581 -0.0820  0.4360
  183MOL0    Cl24068   3.313   7.477   0.094 -0.0582  0.1713  0.0316
  183MOL0     C24069   4.286   6.780   0.599 -0.0637 -0.0456  0.0997
  183MOL0     C24070   4.370   6.676   0.634  1.3106 -0.4201 -0.2179
  183MOL0     O24071   4.726   6.540   0.498 -0.6312  0.0533  0.6215
  183MOL0     C24072   4.745   6.449   0.843 -0.4265  0.9277 -0.1187
  183MOL0     C24073   4.839   6.394   0.934  0.6753  0.6471 -0.6930
  183MOL0     N24074   5.730   6.063   1.148  0.2285  0.4145 -0.2389
  183MOL0     N24075   5.847   6.097   1.122  0.1280 -0.8308 -0.3230
  183MOL0     C24076   6.633   6.907   1.503  0.7452  0.4730 -0.2392
  183MOL0     C24077   6.726   7.005   1.480  0.2834  0.0321 -0.0443
  183MOL0     C24078   7.147   7.201   1.423 -0.0067 -0.3160  0.7834
  183MOL0     C24079   7.281   7.200   1.397 -0.6271  0.1196 -0.0273
  183MOL0     C24080   7.364   7.308   1.440 -0.4906  1.1557 -0.6003
  183MOL0     C24081   7.311   7.413   1.512 -0.1908 -0.6575 -0.2912
  183MOL0     O24082   7.397   7.516   1.550 -0.4971 -0.5503  0.3949
  183MOL0     C24083   7.351   7.644   1.493  0.6034 -0.6813 -0.5421
  183MOL0     C24084   7.459   7.760   1.492  0.6179 -0.8041  0.6586
  183MOL0     C24085   7.403   7.885   1.406  0.1510 -0.3256 -0.9325
  183MOL0     C24086   7.482   8.018   1.437  0.7475 -0.2130 -0.5389
  183MOL0     C24087   7.597   8.039   1.341 -0.2830  0.3862  0.4229
  183MOL0     C24088   7.712   8.043   1.296  0.2926  1.0097  0.7106
  183MOL0     C24089   7.170   7.424   1.529  0.2607  0.1743 -0.3426
  183MOL0     C24090   7.091   7.316   1.483 -0.2313 -0.5071  0.0951
  183MOL0     H24091   7.007   6.829   1.441  0.1549  1.4817 -1.0601
  183MOL0     H24092   6.843   6.641   1.495 -4.4986 -1.0995 -3.4445
  183MOL0     H24093   6.697   6.507   1.557  0.2075  0.0022  0.2481
  183MOL0     H24094   6.664   6.549   1.384  2.8766 -0.6269  0.6017
  183MOL0     H24095   6.448   6.427   1.582 -1.4170 -2.0718 -1.2695
  183MOL0     H24096   6.533   6.355   1.440 -1.2811  0.4465 -2.7519
  183MOL0     H24097   6.437   6.563   1.317 -1.4722 -1.5168 -0.8653
  183MOL0     H24098   6.343   6.593   1.446 -2.9188 -1.1172 -1.7601
  183MOL0     H24099   6.330   6.297   1.333  2.4093  1.3369 -2.8405
  183MOL0     H24100   6.232   6.380   1.455  0.8490  1.6243  0.6159
  183MOL0     H24101   6.260   6.462   1.160 -1.6441 -0.0165 -0.5342
  183MOL0     H24102   6.168   6.542   1.291  2.5300 -0.4145  1.3390
  183MOL0     H24103   6.018   6.343   1.296  0.9135  2.0749  1.1740
  183MOL0     H24104   6.136   6.276   1.173  0.2083 -0.0453  0.4821
  183MOL0     H24105   5.893   6.440   1.144  0.2335 -2.8480  1.4831
  183MOL0     H24106   6.026   6.497   1.036  1.1843  1.0621  2.4303
  183MOL0     H24107   6.046   6.235   0.993 -2.2050 -2.4392 -0.5895
  183MOL0     H24108   5.952   6.326   0.892  3.1597 -1.2394 -0.9552
  183MOL0     H24109   5.669   6.296   0.941  1.6474 -0.4721 -1.1112
  183MOL0     H24110   5.450   6.022   1.140 -1.5975 -0.1626 -0.7055
  183MOL0     H24111   5.476   6.031   0.974  2.9998  0.4046 -1.0341
  183MOL0     H24112   5.445   6.284   0.977  0.1976  0.0581 -0.2964
  183MOL0     H24113   5.392   6.273   1.139 -3.0258  2.2690 -1.9438
  183MOL0     H24114   5.256   6.110   0.920  0.6473 -0.8208 -0.7248
  183MOL0     H24115   5.226   6.097   1.086  3.8491 -0.0934  0.8504
  183MOL0     H24116   5.187   6.351   0.920 -2.8691  2.0345  0.0725
  183MOL0     H24117   5.157   6.335   1.089 -0.5893 -0.8526  0.4687
  183MOL0     H24118   5.053   6.255   0.717 -1.1666 -1.5658 -0.5761
  183MOL0     H24119   4.924   6.399   0.558  0.2411  2.6480 -0.3488
  183MOL0     H24120   4.667   6.782   0.520 -0.0585 -2.3893 -0.3118
  183MOL0     H24121   4.531   6.973   0.456  0.7613 -0.4659 -0.0420
  183MOL0     H24122   4.127   7.051   0.629  1.4297 -0.9165  0.7218
  183MOL0     H24123   4.084   6.946   0.495  2.3768 -0.7573 -0.0995
  183MOL0     H24124   4.145   7.166   0.352  1.5632  0.0043  0.0188
  183MOL0     H24125   4.075   7.241   0.506 -4.5633  0.5019 -2.5476
  183MOL0     H24126   3.868   7.101   0.490 -1.3900 -2.5144 -1.8881
  183MOL0     H24127   3.935   7.045   0.335  1.4909  0.5856 -0.4329
  183MOL0     H24128   3.892   7.345   0.400 -0.1423 -2.9442  3.6471
  183MOL0     H24129   3.929   7.263   0.246 -0.0687  0.7882  0.2343
  183MOL0     H24130   3.664   7.255   0.399  2.8197  2.9367  1.6311
  183MOL0     H24131   3.713   7.146   0.256  2.0148  0.4082 -0.8869
  183MOL0     H24132   3.731   7.323   0.115 -0.2013  0.7666 -0.1568
  183MOL0     H24133   3.740   7.442   0.239  0.9942 -0.5510 -0.8128
  183MOL0     H24134   3.480   7.267   0.197 -0.4740  0.3453 -1.0197
  183MOL0     H24135   3.507   7.409   0.306 -1.8608  3.8546 -2.8383
  183MOL0     H24136   3.540   7.432   0.007  1.8099  0.0028  1.0439
  183MOL0     H24137   3.548   7.552   0.117 -4.1082  2.8510 -0.8675
  183MOL0     H24138   4.182   6.778   0.631  0.5452  0.6115  2.2825
  183MOL0     H24139   4.328   6.600   0.700 -2.1832  1.4731 -0.0309
  183MOL0     H24140   4.650   6.478   0.887 -2.4448 -3.0990 -1.2683
  183MOL0     H24141   4.823   6.391   1.041  0.3511 -1.4573 -0.7654
  183MOL0     H24142   6.530   6.935   1.524  1.1170  0.4742  1.8266
  183MOL0     H24143   6.692   7.107   1.467  0.0359  0.3504  2.6511
  183MOL0     H24144   7.323   7.111   1.352 -4.4570 -0.5199 -2.9138
  183MOL0     H24145   7.472   7.303   1.428 -0.4093  3.8324 -1.7871
  183MOL0     H24146   7.268   7.684   1.551  1.1821 -0.0157 -0.1485
  183MOL0     H24147   7.325   7.622   1.389 -1.1842 -1.2863  0.0032
  183MOL0     H24148   7.473   7.777   1.600 -1.4772 -1.4528  1.0816
  183MOL0     H24149   7.556   7.728   1.454  0.1415 -2.7380  0.9659
  183MOL0     H24150   7.300   7.889   1.441 -0.3374  1.5326 -2.3892
  183MOL0     H24151   7.394   7.855   1.302 -4.7004 -2.3659 -0.1760
  183MOL0     H24152   7.406   8.095   1.418  1.3003  0.9430  1.6120
  183MOL0     H24153   7.510   8.025   1.542  0.9255 -0.5174 -0.5656
  183MOL0     H24154   7.804   8.034   1.242 -1.7222 -3.5981 -2.7678
  183MOL0     H24155   7.121   7.506   1.580  1.3770  0.8770 -0.3763
  183MOL0     H24156   6.986   7.324   1.509 -0.6505 -2.3135 -0.8466
  184MOL0     O24157   5.753   7.617   3.537 -0.6810  0.8511  0.7595
  184MOL0     C24158   5.653   7.668   3.496  0.6560  0.1142  0.0232
  184MOL0     O24159   5.588   7.769   3.557  0.3383  0.2112 -0.3872
  184MOL0     C24160   5.630   7.823   3.678  0.2311 -0.0126 -0.9297
  184MOL0     C24161   5.653   7.752   3.797 -0.3043  0.1654  0.9343
  184MOL0     C24162   5.671   7.813   3.921 -0.5477 -0.1474  0.2062
  184MOL0     C24163   5.676   7.955   3.923 -0.4085 -0.4303 -0.5413
  184MOL0     O24164   5.696   8.016   4.041  0.0491 -0.2139  0.0123
  184MOL0     C24165   5.570   8.059   4.089  0.3061  0.8867  0.6381
  184MOL0     C24166   5.573   8.126   4.216 -0.5989 -0.1123 -0.2786
  184MOL0     C24167   5.652   8.050   4.320  0.2796 -1.2338 -0.4352
  184MOL0     C24168   5.608   8.109   4.462  0.9449  0.6788 -0.6488
  184MOL0     C24169   5.706   8.067   4.568  0.5740 -0.6647 -0.4922
  184MOL0     C24170   5.679   8.123   4.708 -0.1134 -0.7089  0.0034
  184MOL0     C24171   5.710   8.277   4.714  0.2243  0.8863  0.0247
  184MOL0     C24172   5.674   8.335   4.853 -0.5551 -0.8277  0.3897
  184MOL0     N24173   5.708   8.480   4.867 -1.0043 -0.4533  0.7526
  184MOL0     C24174   5.670   8.555   4.975 -0.0276 -0.3959  1.2345
  184MOL0     C24175   5.676   8.686   4.931 -0.0309  0.7437 -0.9825
  184MOL0     C24176   5.618   8.789   5.022 -0.2452  0.6726 -0.6357
  184MOL0     C24177   5.695   8.815   5.152  0.0972  0.6100 -0.6431
  184MOL0     C24178   5.626   8.875   5.272  0.1278 -0.1204  0.5486
  184MOL0     C24179   5.591   9.027   5.266  0.0231  0.7137  1.0275
  184MOL0     O24180   5.716   9.099   5.276  0.0840 -0.0906 -0.1317
  184MOL0     C24181   5.704   9.232   5.297 -0.1066  0.1011 -0.5913
  184MOL0     C24182   5.754   9.288   5.416 -0.4091 -0.2414 -0.0189
  184MOL0     C24183   5.758   9.431   5.440 -0.2061  1.1598 -0.3219
  184MOL0     C24184   5.693   9.513   5.350  0.0207 -0.0008  0.4929
  184MOL0     C24185   5.675   9.655   5.373 -0.9007 -0.4278  0.6746
  184MOL0     O24186   5.603   9.724   5.290 -0.4684  0.1871  0.1068
  184MOL0     C24187   5.601   9.857   5.288 -0.1551 -1.1334  0.3430
  184MOL0     C24188   5.492   9.913   5.221  1.6969  0.5175 -0.9031
  184MOL0     C24189   5.476  10.052   5.194  0.6176 -0.2486  0.4071
  184MOL0     C24190   5.571  10.144   5.233 -0.0828  0.3455  0.7026
  184MOL0     O24191   5.537  10.275   5.207 -0.0703  0.0428  0.9816
  184MOL0     C24192   5.505  10.343   5.332  0.1583  0.4485  0.2431
  184MOL0     C24193   5.570  10.479   5.331 -1.3644  0.9959 -0.1195
  184MOL0     C24194   5.724  10.462   5.310  0.8953  0.4455  0.6904
  184MOL0     C24195   5.787  10.595   5.362 -0.0076  0.0721  1.1041
  184MOL0     C24196   5.937  10.616   5.339  0.7385  0.0596 -0.0834
  184MOL0     C24197   6.023  10.513   5.414 -0.3235 -0.6967 -0.4465
  184MOL0     C24198   6.032  10.520   5.571  0.5050  0.3440  0.5410
  184MOL0     C24199   6.166  10.561   5.625 -0.5973 -0.0194 -0.4674
  184MOL0    Cl24200   6.168  10.583   5.800 -0.5405 -0.5322  0.6601
  184MOL0     C24201   5.679  10.095   5.303  0.0597  0.2629  0.0931
  184MOL0     C24202   5.702   9.951   5.329 -0.7284 -0.1057  0.4057
  184MOL0     O24203   5.718   9.700   5.481  0.8734  0.1519 -0.3410
  184MOL0     C24204   5.644   9.453   5.239  0.2329 -0.2938  0.3871
  184MOL0     C24205   5.642   9.315   5.211  0.4759  0.3360  0.0596
  184MOL0     N24206   5.713   8.682   4.798 -0.2406 -1.1420  0.7046
  184MOL0     N24207   5.730   8.559   4.754 -0.6870  0.6808  0.2450
  184MOL0     C24208   5.655   8.031   3.797  0.4717  0.7365 -0.0549
  184MOL0     C24209   5.629   7.966   3.684 -0.4685 -0.1118  1.3414
  184MOL0     C24210   5.595   7.614   3.367  0.0415  0.4658  0.5315
  184MOL0     C24211   5.471   7.665   3.319  0.3505 -0.1639  1.0168
  184MOL0     C24212   5.424   7.642   3.193 -0.9126 -0.0030 -0.3091
  184MOL0     C24213   5.496   7.559   3.105 -0.3362 -0.8963  0.8284
  184MOL0     O24214   5.441   7.536   2.979  0.1239  0.1633 -0.4350
  184MOL0     C24215   5.524   7.495   2.867  0.3014  0.0534 -0.4688
  184MOL0     C24216   5.612   7.610   2.816  0.0543 -0.8224  0.0547
  184MOL0     C24217   5.532   7.741   2.773 -0.4038  0.1941  0.4404
  184MOL0     C24218   5.432   7.740   2.658  0.3459  0.4263 -0.4519
  184MOL0     C24219   5.315   7.652   2.667 -0.2017  0.1710 -0.2748
  184MOL0     C24220   5.206   7.597   2.681  0.9326  0.7120  0.2313
  184MOL0     C24221   5.621   7.510   3.147 -0.5168 -0.4968 -0.2501
  184MOL0     C24222   5.665   7.533   3.278 -0.1949 -0.6133 -0.0275
  184MOL0     H24223   5.651   7.644   3.784  0.6727  0.3704 -1.1708
  184MOL0     H24224   5.675   7.771   4.021 -1.2828  0.2819  0.4201
  184MOL0     H24225   5.496   7.978   4.094  1.5662 -0.4705 -1.5934
  184MOL0     H24226   5.524   8.144   4.038  0.5156  1.6864  1.7447
  184MOL0     H24227   5.467   8.127   4.242 -0.0354  0.5039  2.2216
  184MOL0     H24228   5.615   8.227   4.212  2.3983 -1.2093  1.0600
  184MOL0     H24229   5.760   8.054   4.308  0.6504 -3.8337  1.3575
  184MOL0     H24230   5.624   7.945   4.312 -1.8773 -0.5917 -3.3039
  184MOL0     H24231   5.595   8.217   4.454 -0.7509  0.6291  0.8376
  184MOL0     H24232   5.508   8.070   4.480  1.6755 -2.3205 -2.3016
  184MOL0     H24233   5.806   8.099   4.540  1.2050 -1.7096  0.4830
  184MOL0     H24234   5.716   7.959   4.585 -0.0380 -0.2519  3.5793
  184MOL0     H24235   5.741   8.078   4.785 -1.9595  0.1315  2.0856
  184MOL0     H24236   5.575   8.103   4.735 -0.1610  0.5560  0.8555
  184MOL0     H24237   5.813   8.301   4.686  0.2605  1.3975  0.5808
  184MOL0     H24238   5.649   8.325   4.637 -0.2598  1.1035  0.5360
  184MOL0     H24239   5.727   8.279   4.930 -0.9116 -0.0484  1.2108
  184MOL0     H24240   5.566   8.325   4.860 -1.0231  2.7042 -0.0713
  184MOL0     H24241   5.628   8.524   5.070 -1.7682 -0.4615  0.5005
  184MOL0     H24242   5.516   8.772   5.056  0.2975 -1.2293  0.1888
  184MOL0     H24243   5.618   8.880   4.961 -1.2570  1.5062  0.5528
  184MOL0     H24244   5.783   8.877   5.137  1.4981 -1.8169 -3.3772
  184MOL0     H24245   5.723   8.711   5.173  0.9101  0.4538 -2.3364
  184MOL0     H24246   5.535   8.816   5.286 -1.3909  1.8163 -0.6510
  184MOL0     H24247   5.693   8.867   5.358 -0.8454  2.5013  1.6670
  184MOL0     H24248   5.529   9.061   5.349 -0.9972  1.0099  0.1708
  184MOL0     H24249   5.526   9.043   5.179 -0.8237 -0.7620  1.3569
  184MOL0     H24250   5.798   9.226   5.493  2.7343  2.4597  0.5665
  184MOL0     H24251   5.808   9.465   5.530 -2.0507 -0.8004  1.5588
  184MOL0     H24252   5.418   9.846   5.180  1.0358  0.6007  0.1389
  184MOL0     H24253   5.389  10.083   5.137  1.1949  1.4357  0.4055
  184MOL0     H24254   5.518  10.288   5.426  0.8407 -1.5323 -0.9298
  184MOL0     H24255   5.396  10.348   5.330  0.1241  0.4459 -2.9433
  184MOL0     H24256   5.559  10.514   5.434  1.1859  0.2676  0.4687
  184MOL0     H24257   5.521  10.531   5.248 -2.1393 -0.2364 -0.4757
  184MOL0     H24258   5.743  10.448   5.203 -0.5437 -2.6475  0.7243
  184MOL0     H24259   5.762  10.376   5.367  0.9953  0.8701  1.2644
  184MOL0     H24260   5.730  10.663   5.298  2.2179  1.8135  0.8408
  184MOL0     H24261   5.755  10.600   5.467  3.3135  1.5780  2.1584
  184MOL0     H24262   5.972  10.715   5.371  1.9665 -0.2406 -0.4404
  184MOL0     H24263   5.961  10.605   5.233 -0.0245 -2.1362 -0.0780
  184MOL0     H24264   6.124  10.535   5.376  0.1546 -4.1261 -1.5288
  184MOL0     H24265   5.998  10.411   5.381  0.5529 -0.9646 -0.3051
  184MOL0     H24266   5.962  10.599   5.600  2.1182  3.5044 -3.2534
  184MOL0     H24267   6.001  10.421   5.604  2.0839 -0.6652 -0.8626
  184MOL0     H24268   6.197  10.658   5.585  4.2968 -1.3879 -0.5995
  184MOL0     H24269   6.248  10.495   5.594 -1.1053  0.4357 -3.0266
  184MOL0     H24270   5.752  10.161   5.348 -1.5745 -0.1329  3.6037
  184MOL0     H24271   5.795   9.928   5.380 -0.5346  2.0203  1.1272
  184MOL0     H24272   5.603   9.516   5.161 -0.0738 -0.0342  0.7574
  184MOL0     H24273   5.585   9.270   5.131  1.3523 -0.3994 -0.1679
  184MOL0     H24274   5.633   8.138   3.799  0.2364  0.7540 -1.7858
  184MOL0     H24275   5.591   8.032   3.607 -0.4790 -0.2864  1.1980
  184MOL0     H24276   5.415   7.727   3.388  2.9503  1.6402  1.6543
  184MOL0     H24277   5.326   7.675   3.159 -0.3855  0.3627 -1.5322
  184MOL0     H24278   5.464   7.471   2.779 -1.7688  2.4082  0.1724
  184MOL0     H24279   5.584   7.406   2.886 -0.4330 -1.2964 -3.7415
  184MOL0     H24280   5.680   7.625   2.901 -2.9965  0.0956  2.5078
  184MOL0     H24281   5.675   7.589   2.729 -2.2452  2.3046 -2.6321
  184MOL0     H24282   5.608   7.814   2.746 -0.4284  0.1104  0.1425
  184MOL0     H24283   5.480   7.773   2.864 -3.3049  1.4910 -1.5273
  184MOL0     H24284   5.403   7.845   2.645  2.4123  1.0958 -0.0493
  184MOL0     H24285   5.495   7.705   2.576  0.9058  1.0805 -0.3178
  184MOL0     H24286   5.109   7.553   2.685  1.8151 -1.3581  0.3049
  184MOL0     H24287   5.683   7.448   3.083 -2.0330 -1.8139 -0.5104
  184MOL0     H24288   5.754   7.482   3.315 -0.0360 -3.0269 -3.2262
  185MOL0     O24289   4.544   6.182  10.923 -0.1393 -0.9446 -0.2783
  185MOL0     C24290   4.492   6.130  11.021  0.1095 -0.4465 -0.0346
  185MOL0     O24291   4.384   6.049  11.025 -0.4634 -0.0709  0.5272
  185MOL0     C24292   4.340   5.996  10.905 -0.7491  0.0559 -0.1869
  185MOL0     C24293   4.341   5.855  10.884  0.9869 -0.4703 -0.5952
  185MOL0     C24294   4.274   5.801  10.776  0.2978 -0.4186  0.3894
  185MOL0     C24295   4.224   5.886  10.674 -0.1747 -0.6294 -0.6283
  185MOL0     O24296   4.162   5.848  10.557  0.0198 -1.1230 -0.2390
  185MOL0     C24297   4.066   5.923  10.484 -0.7440 -0.3278  0.0640
  185MOL0     C24298   4.021   5.843  10.356  0.0751 -0.0736 -0.6681
  185MOL0     C24299   3.940   5.710  10.407 -0.5266 -0.2498 -0.2249
  185MOL0     C24300   3.844   5.672  10.294 -0.6101  0.1765  0.2245
  185MOL0     C24301   3.762   5.557  10.338  1.2126  0.3083  0.0202
  185MOL0     C24302   3.845   5.436  10.408  0.0921  0.1961  0.3184
  185MOL0     C24303   3.914   5.351  10.295  0.7418  0.3054 -0.5073
  185MOL0     C24304   3.985   5.225  10.350  0.6541 -0.3507  0.2612
  185MOL0     N24305   3.900   5.117  10.394  0.1294  0.1670 -0.5993
  185MOL0     C24306   3.857   5.002  10.329 -0.1984 -0.3698  0.7793
  185MOL0     C24307   3.796   4.929  10.421  0.1577 -0.2954  0.7671
  185MOL0     C24308   3.755   4.796  10.391 -0.1032  0.5033  0.7378
  185MOL0     C24309   3.607   4.773  10.372 -0.1656 -0.0842 -0.6075
  185MOL0     C24310   3.590   4.626  10.332  0.5440 -0.2843  0.9375
  185MOL0     C24311   3.449   4.575  10.336  0.5908 -0.2390 -0.1396
  185MOL0     O24312   3.366   4.619  10.226  0.4059 -0.1210 -0.2114
  185MOL0     C24313   3.234   4.569  10.222 -0.4714 -0.0263 -1.3279
  185MOL0     C24314   3.170   4.503  10.342 -0.2556 -0.9124 -0.7586
  185MOL0     C24315   3.035   4.466  10.338 -0.0330 -0.3571  0.2560
  185MOL0     C24316   2.954   4.503  10.226  0.0012  0.5297  0.2361
  185MOL0     C24317   2.814   4.453  10.208  0.0534  0.5536 -0.6869
  185MOL0     O24318   2.728   4.500  10.120 -0.2267  0.3529 -0.4846
  185MOL0     C24319   2.597   4.460  10.103 -0.3559  0.0738  1.0231
  185MOL0     C24320   2.499   4.559  10.078  0.1506 -0.5004 -0.7428
  185MOL0     C24321   2.372   4.520  10.039  0.0745  0.5580 -0.4814
  185MOL0     C24322   2.337   4.383  10.023  0.1292  0.5742 -0.0077
  185MOL0     O24323   2.213   4.348   9.972 -0.2565  0.0066 -1.0398
  185MOL0     C24324   2.112   4.325  10.080 -0.5983 -0.4960  1.2358
  185MOL0     C24325   1.979   4.296  10.003  0.3950 -0.6889 -0.4157
  185MOL0     C24326   1.871   4.222  10.088 -0.4890  0.6899 -0.6239
  185MOL0     C24327   1.837   4.293  10.211 -0.6628  0.4914 -0.5607
  185MOL0     C24328   1.733   4.224  10.310  0.1129  0.1915  0.6385
  185MOL0     C24329   1.717   4.314  10.434 -0.3093  0.1126  0.0136
  185MOL0     C24330   1.626   4.252  10.542  0.7233 -0.8959  1.1237
  185MOL0     C24331   1.631   4.339  10.667  0.2168  0.6091  0.0989
  185MOL0    Cl24332   1.518   4.252  10.775  0.1458  0.1897  0.3776
  185MOL0     C24333   2.428   4.286  10.056  0.3614 -0.1052 -0.2718
  185MOL0     C24334   2.557   4.324  10.102  0.0338 -0.0686  0.1688
  185MOL0     O24335   2.794   4.359  10.291  0.8962  0.7114  0.1372
  185MOL0     C24336   3.019   4.576  10.125 -0.3177 -0.4355 -0.8717
  185MOL0     C24337   3.151   4.610  10.121  0.4469 -0.2639  0.5718
  185MOL0     N24338   3.783   4.999  10.539  0.7424 -0.9507  0.1210
  185MOL0     N24339   3.850   5.109  10.522 -0.8886 -0.1721 -1.3173
  185MOL0     C24340   4.237   6.024  10.685 -0.1025 -0.0582  0.2461
  185MOL0     C24341   4.279   6.078  10.807  0.4756  0.5448 -0.5284
  185MOL0     C24342   4.548   6.168  11.159 -0.4039 -0.4490  0.1653
  185MOL0     C24343   4.491   6.130  11.283  0.0616 -0.0249 -0.1281
  185MOL0     C24344   4.544   6.168  11.401 -0.7234 -0.3242  0.0069
  185MOL0     C24345   4.668   6.236  11.396 -1.0311 -0.1941 -0.1094
  185MOL0     O24346   4.746   6.259  11.506  0.2168 -0.2844 -0.7605
  185MOL0     C24347   4.750   6.403  11.549  0.1789  0.2844  0.7532
  185MOL0     C24348   4.859   6.415  11.664  1.3468  0.3446  0.8845
  185MOL0     C24349   5.014   6.396  11.625  0.1432  0.8894  0.1243
  185MOL0     C24350   5.084   6.530  11.654  0.3519 -0.4337  0.5591
  185MOL0     C24351   5.054   6.628  11.543  0.5900  0.0374 -0.1471
  185MOL0     C24352   5.057   6.693  11.441 -0.2700 -0.3713  0.7206
  185MOL0     C24353   4.729   6.271  11.278 -1.1264  0.9348 -1.0376
  185MOL0     C24354   4.669   6.242  11.162 -0.2620 -0.6062  0.8030
  185MOL0     H24355   4.379   5.792  10.963 -1.2404  0.4208  1.2908
  185MOL0     H24356   4.258   5.694  10.778 -2.8331 -0.0344  1.6100
  185MOL0     H24357   4.110   6.016  10.448 -0.6286 -0.0702  0.8447
  185MOL0     H24358   3.986   5.947  10.555  2.5062  0.4417  3.8822
  185MOL0     H24359   4.107   5.814  10.295  3.3640  1.9900  2.6247
  185MOL0     H24360   3.961   5.913  10.296 -1.1268  0.2663  0.8881
  185MOL0     H24361   3.879   5.722  10.496 -2.5789 -1.0020 -1.4642
  185MOL0     H24362   4.014   5.629  10.406 -1.2526 -0.9282 -1.9344
  185MOL0     H24363   3.781   5.757  10.264 -1.6612 -0.8587 -0.5733
  185MOL0     H24364   3.904   5.641  10.208 -1.1448 -2.4385  0.7105
  185MOL0     H24365   3.697   5.523  10.256  3.0207 -2.1992 -0.5060
  185MOL0     H24366   3.697   5.602  10.413  1.9129  1.8819 -0.2822
  185MOL0     H24367   3.772   5.376  10.464  0.4399  1.5187  2.2743
  185MOL0     H24368   3.918   5.461  10.486  3.3411 -2.1789 -1.7209
  185MOL0     H24369   3.846   5.328  10.212  1.2212 -1.7554 -0.3724
  185MOL0     H24370   3.998   5.399  10.244  1.8455 -3.7523 -2.9556
  185MOL0     H24371   4.031   5.259  10.443 -0.5038  1.0261  0.3760
  185MOL0     H24372   4.056   5.178  10.281  1.3030  1.6641 -0.5304
  185MOL0     H24373   3.880   4.982  10.225  0.4621  2.7735  0.2161
  185MOL0     H24374   3.807   4.736  10.466  1.4909  0.3510 -0.4440
  185MOL0     H24375   3.809   4.758  10.304 -1.3415 -3.4371  1.4642
  185MOL0     H24376   3.559   4.840  10.300 -1.2552 -1.3647 -1.1042
  185MOL0     H24377   3.552   4.787  10.465 -0.4243 -0.8235 -0.6472
  185MOL0     H24378   3.630   4.614  10.231 -1.2476 -0.8925  0.2428
  185MOL0     H24379   3.639   4.572  10.413 -0.8332 -1.0069  1.3314
  185MOL0     H24380   3.403   4.603  10.431 -0.4099 -3.1382  0.3174
  185MOL0     H24381   3.459   4.466  10.339  1.2466 -0.1965 -0.4418
  185MOL0     H24382   3.233   4.484  10.428 -0.8721  2.8400  0.6953
  185MOL0     H24383   2.992   4.396  10.410 -1.3549 -0.6622 -0.7929
  185MOL0     H24384   2.518   4.666  10.078 -0.1397 -0.4412 -1.6702
  185MOL0     H24385   2.292   4.592  10.024 -1.5493 -0.3314  2.9181
  185MOL0     H24386   2.101   4.404  10.155  0.6379  0.0994  0.8172
  185MOL0     H24387   2.140   4.237  10.139 -0.4708 -0.4289  1.2759
  185MOL0     H24388   2.003   4.228   9.920 -0.1821 -2.3290  0.7045
  185MOL0     H24389   1.943   4.391   9.962  1.6209 -0.0755 -0.1364
  185MOL0     H24390   1.907   4.124  10.122 -1.8863  0.2792 -0.2694
  185MOL0     H24391   1.786   4.205  10.021 -1.0266  0.2275  0.1608
  185MOL0     H24392   1.927   4.324  10.264 -1.5611  1.8320  0.2338
  185MOL0     H24393   1.797   4.388  10.175  2.4398  1.3965 -1.9920
  185MOL0     H24394   1.764   4.122  10.334 -0.2358  0.1209  0.8005
  185MOL0     H24395   1.643   4.224  10.248  1.3753 -1.6214 -1.2786
  185MOL0     H24396   1.673   4.409  10.401 -3.6190 -0.5954  2.0287
  185MOL0     H24397   1.812   4.333  10.486 -1.5455  2.9126  1.4665
  185MOL0     H24398   1.526   4.234  10.502  1.8762 -1.8366 -1.6483
  185MOL0     H24399   1.666   4.152  10.557  0.6283 -0.9110  1.2804
  185MOL0     H24400   1.586   4.438  10.659  0.1951  0.7760  1.7972
  185MOL0     H24401   1.731   4.352  10.711  1.0789  4.4430 -2.5066
  185MOL0     H24402   2.397   4.186  10.028  3.4253 -0.8566 -1.3384
  185MOL0     H24403   2.624   4.240  10.114  0.7204 -0.2463 -3.6308
  185MOL0     H24404   2.964   4.613  10.039  0.5595  1.0569 -0.8165
  185MOL0     H24405   3.194   4.672  10.043  1.0825 -2.1054 -0.6056
  185MOL0     H24406   4.219   6.095  10.605  1.8120  1.0215  0.7017
  185MOL0     H24407   4.271   6.186  10.820  0.4595  0.6079 -1.0518
  185MOL0     H24408   4.412   6.055  11.284  1.5004 -1.8696 -4.1557
  185MOL0     H24409   4.489   6.158  11.494 -0.7812 -0.0981 -0.0029
  185MOL0     H24410   4.656   6.444  11.587  1.1334  3.4959 -0.0247
  185MOL0     H24411   4.781   6.471  11.469  0.4493  1.6045  1.9350
  185MOL0     H24412   4.850   6.518  11.699  0.4325 -0.2999  2.6387
  185MOL0     H24413   4.836   6.361  11.756  1.9589  1.2136  1.5634
  185MOL0     H24414   5.019   6.372  11.518 -3.4991 -2.0510  0.4165
  185MOL0     H24415   5.052   6.311  11.682  2.0665 -0.3542 -2.7194
  185MOL0     H24416   5.070   6.558  11.758  2.9093 -0.1563  0.8901
  185MOL0     H24417   5.192   6.511  11.659  0.4919  0.2170  0.1222
  185MOL0     H24418   5.059   6.734  11.342 -1.4877  3.1249  1.9776
  185MOL0     H24419   4.827   6.318  11.278 -1.9968  2.8368 -1.6245
  185MOL0     H24420   4.726   6.259  11.071 -1.2223  1.4879  0.5369
  186MOL0     O24421   5.356   1.892  11.384 -0.2822 -0.7804  0.2484
  186MOL0     C24422   5.452   1.822  11.353  0.4037 -0.0887  0.5141
  186MOL0     O24423   5.475   1.773  11.229  0.0831 -0.8192  0.4291
  186MOL0     C24424   5.400   1.798  11.111  0.2407  0.1266  0.0205
  186MOL0     C24425   5.471   1.782  10.987 -0.3239  0.4057 -0.1985
  186MOL0     C24426   5.400   1.781  10.867 -0.8097  0.7539  0.7015
  186MOL0     C24427   5.260   1.795  10.874 -1.0671 -0.1798 -0.8104
  186MOL0     O24428   5.199   1.766  10.756  0.2144 -0.5021 -0.1449
  186MOL0     C24429   5.204   1.873  10.662 -1.2402  0.4148  0.1644
  186MOL0     C24430   5.099   1.989  10.686 -0.1166  0.3520 -1.0438
  186MOL0     C24431   4.960   1.930  10.670  0.5862 -0.2371  0.5065
  186MOL0     C24432   4.861   2.055  10.654 -0.4042  0.6070  0.0931
  186MOL0     C24433   4.723   1.998  10.623  0.0942 -0.4610  1.0529
  186MOL0     C24434   4.622   2.111  10.596  0.0402 -0.5024  0.3519
  186MOL0     C24435   4.573   2.184  10.725  0.6732  0.0738  0.3600
  186MOL0     C24436   4.460   2.278  10.691  0.0124 -0.6181  0.3693
  186MOL0     N24437   4.359   2.300  10.798  0.0591  0.5954  1.4000
  186MOL0     C24438   4.246   2.231  10.799  0.0671  0.1693 -1.6763
  186MOL0     C24439   4.180   2.258  10.922  0.6715 -0.2349  0.2127
  186MOL0     C24440   4.052   2.190  10.971  0.7291  0.0336 -0.4054
  186MOL0     C24441   3.925   2.271  10.968  0.0264  0.2343  0.7528
  186MOL0     C24442   3.869   2.279  10.823 -0.6265  1.0464  0.1180
  186MOL0     C24443   3.747   2.374  10.815  0.2050 -0.7272  0.0457
  186MOL0     O24444   3.663   2.346  10.702 -0.3718  0.1879 -0.5848
  186MOL0     C24445   3.551   2.427  10.680  0.1628  0.3322  0.8846
  186MOL0     C24446   3.518   2.539  10.746 -0.6025  0.7637  0.5795
  186MOL0     C24447   3.404   2.615  10.719  0.6192  0.3939 -0.5665
  186MOL0     C24448   3.316   2.585  10.612 -0.0399  0.7098 -0.2446
  186MOL0     C24449   3.204   2.669  10.566  0.6560 -0.1622  1.1233
  186MOL0     O24450   3.135   2.636  10.449 -0.6913  0.0967  0.3355
  186MOL0     C24451   3.032   2.719  10.411 -0.3051 -0.8202  0.7438
  186MOL0     C24452   2.931   2.775  10.496  0.2761  0.4126  0.2624
  186MOL0     C24453   2.816   2.832  10.457 -0.5246 -1.0520  0.4709
  186MOL0     C24454   2.804   2.859  10.323  0.6621  0.3085  0.7505
  186MOL0     O24455   2.694   2.915  10.264  0.5732 -0.1550  0.3301
  186MOL0     C24456   2.565   2.849  10.278  0.0769  0.4887 -0.3376
  186MOL0     C24457   2.462   2.924  10.193 -0.0567  0.5704 -0.5129
  186MOL0     C24458   2.322   2.858  10.190  0.2944 -1.0226  0.1302
  186MOL0     C24459   2.232   2.945  10.101 -0.4340 -0.1525  1.1571
  186MOL0     C24460   2.086   2.905  10.092  0.4540 -0.5099 -0.6159
  186MOL0     C24461   2.015   2.976   9.969 -0.2187  0.0583 -0.3181
  186MOL0     C24462   1.864   2.958   9.974  0.0188  0.1080  0.2434
  186MOL0     C24463   1.782   3.029  10.084 -1.2135 -0.2460  0.0413
  186MOL0    Cl24464   1.859   3.191  10.123 -0.5745 -0.3425  0.0153
  186MOL0     C24465   2.896   2.805  10.229 -0.3876  0.4382 -0.0097
  186MOL0     C24466   3.017   2.739  10.270  0.1498  0.2790 -0.3801
  186MOL0     O24467   3.185   2.771  10.626  0.7257  0.0817 -0.2176
  186MOL0     C24468   3.356   2.477  10.527  0.5737  0.0996 -0.5775
  186MOL0     C24469   3.463   2.399  10.569 -0.1351 -0.1327  0.4273
  186MOL0     N24470   4.256   2.357  10.985  0.1460 -0.5002 -0.4200
  186MOL0     N24471   4.361   2.375  10.908  0.0418 -1.0217 -0.8737
  186MOL0     C24472   5.197   1.825  10.989  1.0946 -0.0115 -0.3261
  186MOL0     C24473   5.264   1.829  11.110  0.1788 -0.4659 -0.2000
  186MOL0     C24474   5.556   1.804  11.455  0.2662  0.2219  0.8307
  186MOL0     C24475   5.624   1.677  11.450 -1.0379 -0.2526  0.2075
  186MOL0     C24476   5.724   1.642  11.541 -0.7221 -0.4568 -0.1005
  186MOL0     C24477   5.769   1.738  11.634 -0.7587 -0.0641  0.4764
  186MOL0     O24478   5.865   1.710  11.732 -0.3042 -0.0734  0.0708
  186MOL0     C24479   5.960   1.612  11.701 -0.1575 -0.1516 -0.7916
  186MOL0     C24480   6.035   1.565  11.825 -0.4519  0.0657  0.5564
  186MOL0     C24481   6.146   1.466  11.802  0.1292 -1.2975 -0.1308
  186MOL0     C24482   6.221   1.404  11.922  0.0815 -0.0917 -1.7236
  186MOL0     C24483   6.310   1.511  11.968 -0.2238  0.6127 -1.0976
  186MOL0     C24484   6.382   1.598  12.016  0.4332  1.0270 -0.1681
  186MOL0     C24485   5.703   1.852  11.644  0.4634 -0.4206  0.3051
  186MOL0     C24486   5.594   1.885  11.565  0.3015 -0.1261  0.0128
  186MOL0     H24487   5.578   1.764  10.993  0.1932  3.0743 -0.2449
  186MOL0     H24488   5.445   1.771  10.769 -0.8483  0.1956  0.7400
  186MOL0     H24489   5.209   1.836  10.559  4.7236 -2.8740  1.1750
  186MOL0     H24490   5.305   1.915  10.667 -1.1614  0.1714  0.6096
  186MOL0     H24491   5.106   2.076  10.620  0.3674  0.3133 -1.0447
  186MOL0     H24492   5.094   2.023  10.790 -1.2200  0.9908 -1.2929
  186MOL0     H24493   4.944   1.880  10.765  3.1660  1.6680  2.0910
  186MOL0     H24494   4.958   1.867  10.580  1.4919 -2.7252  2.1041
  186MOL0     H24495   4.849   2.115  10.744  0.0437  1.4039 -0.3683
  186MOL0     H24496   4.900   2.121  10.576 -3.8753  2.5752 -0.1713
  186MOL0     H24497   4.696   1.943  10.714  0.9248 -0.5315  1.2706
  186MOL0     H24498   4.724   1.936  10.533 -0.6585 -0.2227  0.8778
  186MOL0     H24499   4.536   2.062  10.551 -0.9863  0.5916  1.0851
  186MOL0     H24500   4.670   2.182  10.527 -0.6386 -0.9785 -0.6335
  186MOL0     H24501   4.544   2.108  10.799  2.0805  0.0365  0.9224
  186MOL0     H24502   4.651   2.241  10.777  1.5235  0.8280 -1.6328
  186MOL0     H24503   4.407   2.232  10.608 -3.0211  3.3576 -0.1726
  186MOL0     H24504   4.499   2.375  10.658  1.9416 -2.0993 -2.0037
  186MOL0     H24505   4.208   2.151  10.736  0.4624  0.4447 -2.2718
  186MOL0     H24506   4.062   2.176  11.079  1.0811 -0.9722 -0.5606
  186MOL0     H24507   4.054   2.087  10.935  2.9088 -2.2251  5.1130
  186MOL0     H24508   3.939   2.370  11.011 -1.0686  1.3984 -1.4177
  186MOL0     H24509   3.857   2.217  11.034 -2.8904  2.1994 -0.4591
  186MOL0     H24510   3.947   2.309  10.752 -0.2083 -0.4518 -0.0922
  186MOL0     H24511   3.845   2.177  10.791 -2.4460  1.5216 -0.1569
  186MOL0     H24512   3.788   2.476  10.811  1.1445 -1.0661  0.5813
  186MOL0     H24513   3.694   2.368  10.910  0.9108  0.8701  0.5898
  186MOL0     H24514   3.582   2.578  10.824  1.1359 -1.0603  0.1624
  186MOL0     H24515   3.373   2.696  10.786 -1.6179 -3.5283  3.7236
  186MOL0     H24516   2.938   2.765  10.604 -0.8372 -0.5694  0.2646
  186MOL0     H24517   2.755   2.869  10.538  4.1917  1.6971  3.2474
  186MOL0     H24518   2.528   2.845  10.381  0.9639 -1.2725 -0.0381
  186MOL0     H24519   2.580   2.749  10.235 -2.1695  0.7821 -1.9791
  186MOL0     H24520   2.505   2.925  10.092 -1.2850  0.5299 -1.0580
  186MOL0     H24521   2.451   3.025  10.235  0.2722 -0.1120  1.2994
  186MOL0     H24522   2.281   2.859  10.291 -0.1330 -1.0082 -0.0433
  186MOL0     H24523   2.331   2.753  10.160 -2.8148 -1.5607  0.7393
  186MOL0     H24524   2.232   3.053  10.121  1.5274 -0.2397  1.8486
  186MOL0     H24525   2.280   2.942  10.003 -2.2058  1.1221  0.1782
  186MOL0     H24526   2.024   2.938  10.177 -1.2832 -3.0677 -0.7840
  186MOL0     H24527   2.087   2.798  10.073 -0.6917 -0.7634  0.5531
  186MOL0     H24528   2.040   2.934   9.872  0.4361 -1.2762  0.3952
  186MOL0     H24529   2.034   3.084   9.967 -3.1213  0.6550 -0.2678
  186MOL0     H24530   1.826   2.976   9.873  0.7145 -1.0088 -0.2319
  186MOL0     H24531   1.834   2.853   9.981 -1.0926  0.4438  0.8718
  186MOL0     H24532   1.777   2.963  10.171 -0.8334 -0.7674 -0.3303
  186MOL0     H24533   1.679   3.039  10.048 -0.8588  1.2649 -0.6387
  186MOL0     H24534   2.878   2.813  10.122  1.7289 -1.7584 -0.6235
  186MOL0     H24535   3.073   2.688  10.193  1.4314 -0.0160  0.7146
  186MOL0     H24536   3.303   2.441  10.439 -0.3981 -1.4865  0.5869
  186MOL0     H24537   3.480   2.299  10.531 -0.3261 -1.8106  4.3417
  186MOL0     H24538   5.090   1.843  10.987  0.7958 -1.4284  0.6964
  186MOL0     H24539   5.216   1.857  11.203  0.8364 -0.0805  0.0340
  186MOL0     H24540   5.601   1.601  11.376 -0.0262 -0.6995  0.3216
  186MOL0     H24541   5.780   1.550  11.530 -2.1937 -1.1487 -2.9676
  186MOL0     H24542   6.024   1.647  11.620  2.1181  0.8347  1.2705
  186MOL0     H24543   5.905   1.527  11.660 -1.6268  2.0110 -3.6309
  186MOL0     H24544   6.072   1.651  11.881 -0.8284  0.3438  0.3767
  186MOL0     H24545   5.966   1.518  11.896 -1.1612 -0.4444 -0.4561
  186MOL0     H24546   6.215   1.504  11.727  1.2719 -0.7653  1.1484
  186MOL0     H24547   6.098   1.375  11.763 -0.3935 -1.3797  0.6738
  186MOL0     H24548   6.150   1.380  12.002 -1.5825  0.2385 -3.0360
  186MOL0     H24549   6.276   1.312  11.898  2.3243  0.6093  0.3148
  186MOL0     H24550   6.448   1.667  12.065 -0.1198 -0.2242  2.5323
  186MOL0     H24551   5.740   1.913  11.726  1.1156  0.3418 -0.5434
  186MOL0     H24552   5.540   1.976  11.589  0.1108 -0.1047 -0.4866
  187MOL0     O24553   3.587   3.367   8.524 -0.1328 -0.1120  0.2388
  187MOL0     C24554   3.611   3.341   8.405 -0.0989 -0.4447 -0.1470
  187MOL0     O24555   3.729   3.370   8.343  0.0657 -0.0118  0.1282
  187MOL0     C24556   3.825   3.418   8.416 -0.0391 -0.9589 -0.2049
  187MOL0     C24557   3.888   3.329   8.505  0.7610  0.6189 -0.7843
  187MOL0     C24558   3.976   3.370   8.602 -0.5185  0.0144  0.5162
  187MOL0     C24559   4.020   3.506   8.605  0.0144 -0.4995 -0.4362
  187MOL0     O24560   4.104   3.551   8.710  0.0572  0.3104 -1.1147
  187MOL0     C24561   4.171   3.677   8.696 -0.5855  0.3035  0.0304
  187MOL0     C24562   4.277   3.700   8.799 -0.3774 -0.8693 -0.4821
  187MOL0     C24563   4.396   3.745   8.728 -0.4244 -0.4204  0.0332
  187MOL0     C24564   4.513   3.737   8.828 -0.3903 -0.6275 -0.1352
  187MOL0     C24565   4.641   3.764   8.746 -0.4223 -0.1739  0.2993
  187MOL0     C24566   4.764   3.759   8.845  0.4174 -0.8193 -0.0211
  187MOL0     C24567   4.796   3.622   8.919 -0.3469  0.7162 -0.1573
  187MOL0     C24568   4.825   3.507   8.805  0.6937 -0.0879 -0.0717
  187MOL0     N24569   4.865   3.386   8.866 -0.1856  0.1840 -0.2124
  187MOL0     C24570   4.792   3.286   8.935  0.0147 -0.3574  1.4032
  187MOL0     C24571   4.886   3.221   9.009 -0.5081  0.4391  0.6569
  187MOL0     C24572   4.858   3.097   9.082  0.4940  1.3210  0.9835
  187MOL0     C24573   4.970   2.999   9.104  0.1852  0.8592 -0.1789
  187MOL0     C24574   5.037   3.023   9.239  0.9960 -0.4753  0.3178
  187MOL0     C24575   5.146   2.925   9.257 -0.1401 -0.8597 -0.3996
  187MOL0     O24576   5.185   2.936   9.394 -0.3522 -0.1186 -0.8253
  187MOL0     C24577   5.295   2.864   9.439 -0.1935  0.6342  0.4054
  187MOL0     C24578   5.339   2.752   9.379  0.0347  0.5816 -0.0814
  187MOL0     C24579   5.443   2.685   9.437 -0.8754 -0.3561  0.1242
  187MOL0     C24580   5.502   2.729   9.552 -0.3628  0.3647 -0.0336
  187MOL0     C24581   5.630   2.664   9.599  0.9971 -0.3694 -0.2508
  187MOL0     O24582   5.663   2.539   9.548 -0.4466 -0.2034 -0.3002
  187MOL0     C24583   5.785   2.487   9.599 -0.0482 -0.1745  0.1298
  187MOL0     C24584   5.914   2.527   9.545 -1.2140  0.3328 -0.4602
  187MOL0     C24585   6.031   2.479   9.592  0.1530  0.1122 -1.1661
  187MOL0     C24586   6.026   2.389   9.696 -0.4230  0.6271 -0.9485
  187MOL0     O24587   6.153   2.357   9.752 -0.1005  0.1614 -0.7640
  187MOL0     C24588   6.156   2.238   9.828 -0.4283 -0.6431  0.0708
  187MOL0     C24589   6.277   2.250   9.917 -0.0574 -0.8150  0.1584
  187MOL0     C24590   6.302   2.151  10.029  0.9584  0.5067 -1.3650
  187MOL0     C24591   6.180   2.128  10.119 -0.1643 -0.2922 -1.1765
  187MOL0     C24592   6.185   2.009  10.225 -0.4772 -0.8800 -0.0935
  187MOL0     C24593   6.284   2.013  10.326 -0.6248 -0.2628 -0.7557
  187MOL0     C24594   6.321   2.142  10.396  0.7790 -0.3976  0.4220
  187MOL0     C24595   6.449   2.117  10.482 -0.1299  0.4267 -0.3319
  187MOL0    Cl24596   6.452   2.197  10.632  0.0065 -0.2222  0.3567
  187MOL0     C24597   5.907   2.332   9.738 -0.3920  0.6411  0.9093
  187MOL0     C24598   5.790   2.391   9.700 -0.2094  0.8427  0.3802
  187MOL0     O24599   5.677   2.717   9.696  0.3011  1.1696 -0.4287
  187MOL0     C24600   5.438   2.831   9.624 -0.4269 -0.4002 -0.8032
  187MOL0     C24601   5.340   2.894   9.569 -0.1089 -0.1965  0.3304
  187MOL0     N24602   5.010   3.278   8.988  0.1770 -0.3059  0.5528
  187MOL0     N24603   4.998   3.381   8.907  0.1676 -0.1104  0.7088
  187MOL0     C24604   3.964   3.598   8.520  0.1767  0.3116 -1.7411
  187MOL0     C24605   3.868   3.554   8.425  0.1289  0.5241 -0.4046
  187MOL0     C24606   3.507   3.264   8.337  0.5951 -0.0510 -0.5636
  187MOL0     C24607   3.430   3.164   8.403 -0.5964 -0.9219  0.6251
  187MOL0     C24608   3.344   3.075   8.337 -0.7884  0.7609 -0.4527
  187MOL0     C24609   3.331   3.084   8.192  0.2777 -0.8516 -0.2888
  187MOL0     O24610   3.241   3.012   8.120  1.4564  0.1861  0.1243
  187MOL0     C24611   3.167   2.910   8.193 -0.8346 -0.2686 -0.2201
  187MOL0     C24612   3.055   2.858   8.104  0.0058 -0.3253  0.1792
  187MOL0     C24613   2.972   2.744   8.168 -0.4759  0.1253  0.1569
  187MOL0     C24614   2.945   2.628   8.070 -0.0819  0.1907 -0.3145
  187MOL0     C24615   2.824   2.654   7.985 -0.6777  1.1953 -0.4759
  187MOL0     C24616   2.725   2.681   7.919 -0.2063  0.3013 -0.0958
  187MOL0     C24617   3.398   3.193   8.131 -0.6342 -0.1652  0.1341
  187MOL0     C24618   3.494   3.271   8.199  0.0139 -1.0903 -0.7399
  187MOL0     H24619   3.845   3.230   8.516 -0.3322  1.2322  0.7682
  187MOL0     H24620   4.012   3.296   8.673 -1.6245  0.2710  1.3705
  187MOL0     H24621   4.095   3.755   8.690 -1.9470 -0.9008  0.7536
  187MOL0     H24622   4.224   3.680   8.601  0.6675  2.7353  0.7316
  187MOL0     H24623   4.291   3.606   8.853  1.4528  1.3123  3.2387
  187MOL0     H24624   4.263   3.778   8.875  3.8526  2.7252 -2.9615
  187MOL0     H24625   4.373   3.845   8.690 -1.2884  0.4045  2.5582
  187MOL0     H24626   4.415   3.675   8.645 -0.5380 -1.0413  0.5231
  187MOL0     H24627   4.509   3.820   8.898 -0.0939 -0.2225 -0.5935
  187MOL0     H24628   4.516   3.635   8.868 -2.8021 -1.2278 -1.3119
  187MOL0     H24629   4.638   3.864   8.702 -2.6501  0.5912  1.9781
  187MOL0     H24630   4.642   3.686   8.669 -1.3433  1.3915 -1.3545
  187MOL0     H24631   4.750   3.836   8.921  2.4218  2.0669 -2.3466
  187MOL0     H24632   4.857   3.783   8.792  1.4405 -3.9251  0.1627
  187MOL0     H24633   4.872   3.626   8.998 -1.3446 -0.9356  0.9514
  187MOL0     H24634   4.707   3.581   8.967 -0.7324  0.3283 -1.1887
  187MOL0     H24635   4.915   3.529   8.746  0.1305 -0.7001 -1.1756
  187MOL0     H24636   4.745   3.489   8.733 -0.1406  2.5196  0.1031
  187MOL0     H24637   4.687   3.260   8.935 -0.2548  0.2587 -1.6712
  187MOL0     H24638   4.765   3.055   9.042  0.8568 -0.6641  2.0570
  187MOL0     H24639   4.820   3.131   9.179  0.9340  0.4703  1.4665
  187MOL0     H24640   5.036   3.003   9.016  0.6663 -0.2832  0.1022
  187MOL0     H24641   4.926   2.899   9.095  0.7002  0.6765 -0.7458
  187MOL0     H24642   5.084   3.121   9.227 -0.4930  0.6288  2.8279
  187MOL0     H24643   4.969   3.015   9.324  1.1376  0.9877  0.5978
  187MOL0     H24644   5.228   2.949   9.189 -0.7955 -0.7459 -1.1664
  187MOL0     H24645   5.115   2.823   9.232  1.4694 -1.7715  1.1023
  187MOL0     H24646   5.289   2.726   9.286 -1.4914  0.4446  0.7546
  187MOL0     H24647   5.489   2.606   9.379 -0.2883 -0.7814  1.1624
  187MOL0     H24648   5.941   2.577   9.453  0.5758  0.4256  0.0771
  187MOL0     H24649   6.127   2.521   9.562  1.4697 -1.1383  1.0190
  187MOL0     H24650   6.175   2.156   9.758  0.2119  0.0988 -0.6556
  187MOL0     H24651   6.068   2.214   9.888 -1.1282 -3.5118 -1.8869
  187MOL0     H24652   6.262   2.348   9.964 -0.1865  0.5383 -2.5320
  187MOL0     H24653   6.368   2.253   9.857  1.0589  1.0575  1.7992
  187MOL0     H24654   6.387   2.184  10.089  1.8094  0.0053 -2.2646
  187MOL0     H24655   6.331   2.054   9.987  1.6684 -0.7907  1.8508
  187MOL0     H24656   6.154   2.222  10.169 -0.9250 -1.0231 -0.1539
  187MOL0     H24657   6.093   2.096  10.061 -1.0116  2.4024 -1.5342
  187MOL0     H24658   6.186   1.908  10.184 -0.6009 -0.8210 -0.2445
  187MOL0     H24659   6.091   2.025  10.278 -0.7209  1.8265 -1.1372
  187MOL0     H24660   6.374   1.969  10.282 -1.1390 -1.3961 -0.7106
  187MOL0     H24661   6.267   1.940  10.405  0.9544  1.6757  1.5322
  187MOL0     H24662   6.341   2.221  10.322 -2.4018 -1.5933 -1.9487
  187MOL0     H24663   6.239   2.176  10.459  0.7020 -1.4370  0.8882
  187MOL0     H24664   6.537   2.161  10.435  0.1607  3.0586  2.3674
  187MOL0     H24665   6.474   2.011  10.496  2.9943  1.3238  2.0049
  187MOL0     H24666   5.904   2.258   9.817 -2.0664  0.8666  1.0924
  187MOL0     H24667   5.692   2.357   9.731  0.7414 -1.4524  1.1021
  187MOL0     H24668   5.482   2.850   9.721 -2.3478  1.7076 -0.2598
  187MOL0     H24669   5.285   2.978   9.610  1.4920  0.9088  0.3003
  187MOL0     H24670   3.990   3.703   8.516 -2.0003  1.2388  2.5518
  187MOL0     H24671   3.828   3.621   8.350  1.8741 -2.0228 -3.8708
  187MOL0     H24672   3.436   3.159   8.511 -1.6280 -2.2966  0.6552
  187MOL0     H24673   3.294   3.000   8.397  0.5126  0.6224  0.4872
  187MOL0     H24674   3.119   2.948   8.284  2.6748  0.1678  1.6219
  187MOL0     H24675   3.241   2.833   8.214  0.9258  0.5485 -2.8463
  187MOL0     H24676   2.990   2.938   8.068  0.2873 -0.8767 -1.6742
  187MOL0     H24677   3.106   2.817   8.016 -0.9816 -3.9817  1.1047
  187MOL0     H24678   2.881   2.787   8.212 -0.4795  0.5675 -0.2689
  187MOL0     H24679   3.041   2.711   8.246  1.0466 -0.9543 -1.5886
  187MOL0     H24680   3.037   2.614   8.012 -0.7462 -0.1387 -1.3052
  187MOL0     H24681   2.933   2.527   8.111 -0.5902 -1.7460 -4.7329
  187MOL0     H24682   2.645   2.730   7.868 -1.8878  0.5927  2.6337
  187MOL0     H24683   3.390   3.216   8.025 -0.2684 -0.8073 -0.0399
  187MOL0     H24684   3.548   3.348   8.144  2.0651 -1.2526  0.9297
  188MOL0     O24685   5.454   0.178   5.118  0.0876 -0.2357 -0.0776
  188MOL0     C24686   5.459   0.117   5.008 -0.2878 -0.6877  0.2907
  188MOL0     O24687   5.571   0.052   4.959 -0.0906  0.0726  0.8309
  188MOL0     C24688   5.689   0.042   5.034 -0.3184 -0.3006 -0.3902
  188MOL0     C24689   5.716  -0.092   5.077  0.5767 -1.0460  0.4615
  188MOL0     C24690   5.829  -0.111   5.158 -0.0253 -0.9913  0.7336
  188MOL0     C24691   5.919  -0.007   5.189  0.7086  0.6052 -0.3458
  188MOL0     O24692   6.017  -0.046   5.282 -0.2099 -0.0044 -0.7131
  188MOL0     C24693   6.096   0.064   5.325 -0.0165  0.4825 -0.5774
  188MOL0     C24694   6.178   0.010   5.447  0.0757  0.4090 -0.2060
  188MOL0     C24695   6.084   0.008   5.564  0.7974 -0.4136  0.5425
  188MOL0     C24696   6.095   0.138   5.635 -0.4913  0.4856 -0.7340
  188MOL0     C24697   6.007   0.127   5.765  0.4795 -0.8190 -0.8471
  188MOL0     C24698   5.870   0.182   5.749 -0.3003  0.1810  0.0108
  188MOL0     C24699   5.786   0.156   5.872  0.0078 -0.3356 -0.3504
  188MOL0     C24700   5.829   0.212   6.005 -0.8944  0.2076 -0.3470
  188MOL0     N24701   5.754   0.336   6.024 -0.3440 -0.3832  0.0532
  188MOL0     C24702   5.615   0.351   6.040  0.1670 -1.3327  0.5110
  188MOL0     C24703   5.597   0.482   6.068 -0.1425  0.1804 -0.0444
  188MOL0     C24704   5.472   0.564   6.068 -0.4925 -0.7514 -0.2387
  188MOL0     C24705   5.449   0.644   5.934  0.0236 -0.1399  0.1083
  188MOL0     C24706   5.382   0.570   5.816 -0.2760  0.0930  0.0110
  188MOL0     C24707   5.408   0.644   5.683 -0.1570  0.8920 -0.3742
  188MOL0     O24708   5.336   0.768   5.685 -0.5178  0.2584  0.6314
  188MOL0     C24709   5.269   0.810   5.579 -0.7702 -0.6442  0.5451
  188MOL0     C24710   5.309   0.936   5.524 -0.4875  0.0882 -0.0079
  188MOL0     C24711   5.250   0.979   5.403 -0.7598  0.3782  0.1663
  188MOL0     C24712   5.156   0.902   5.342  1.1015  0.0086  0.4158
  188MOL0     C24713   5.096   0.936   5.210 -0.5251  0.2612 -0.0072
  188MOL0     O24714   5.112   1.058   5.162  0.3593 -0.0054 -0.7365
  188MOL0     C24715   5.046   1.105   5.052 -0.3402  0.4646  0.3685
  188MOL0     C24716   5.074   1.043   4.924  1.0176  0.8033 -0.0704
  188MOL0     C24717   5.022   1.106   4.815  0.3128 -0.0510 -0.5637
  188MOL0     C24718   4.948   1.223   4.825 -0.1803 -0.7333 -0.0439
  188MOL0     O24719   4.908   1.280   4.702 -0.4233  0.3165 -0.1855
  188MOL0     C24720   4.780   1.336   4.701 -0.5073 -0.9611 -0.4762
  188MOL0     C24721   4.789   1.487   4.690  0.4355 -0.4488  0.8747
  188MOL0     C24722   4.764   1.526   4.538 -1.0094  0.3103  0.0201
  188MOL0     C24723   4.810   1.668   4.500 -0.5901  0.1314  0.2687
  188MOL0     C24724   4.804   1.685   4.340  0.3040 -0.6573  0.8279
  188MOL0     C24725   4.927   1.633   4.270  0.0023 -0.9146 -0.0625
  188MOL0     C24726   4.908   1.623   4.119  0.3156 -0.6399  0.1752
  188MOL0     C24727   4.855   1.479   4.079  0.4292  0.1199  0.0176
  188MOL0    Cl24728   4.809   1.458   3.910 -0.1031 -0.2802 -0.3075
  188MOL0     C24729   4.925   1.282   4.950  0.0193  0.9822 -0.3803
  188MOL0     C24730   4.976   1.219   5.062  0.0636 -0.3597 -0.9356
  188MOL0     O24731   5.038   0.848   5.145 -0.0993 -0.0301 -0.6316
  188MOL0     C24732   5.119   0.774   5.403  0.2819 -0.6446  0.3854
  188MOL0     C24733   5.184   0.729   5.514 -0.0566 -0.2198 -0.6012
  188MOL0     N24734   5.717   0.547   6.077 -0.5212  0.2366 -0.3757
  188MOL0     N24735   5.811   0.461   6.048  0.1706 -0.2203  0.1529
  188MOL0     C24736   5.895   0.119   5.132  0.1166  0.0776  1.1833
  188MOL0     C24737   5.780   0.145   5.055 -0.6389 -1.2754 -0.1741
  188MOL0     C24738   5.343   0.106   4.917  0.4358  1.1324 -0.0702
  188MOL0     C24739   5.349   0.036   4.791  0.9858  0.2488  0.2863
  188MOL0     C24740   5.228   0.036   4.710 -1.3329 -0.4670  0.4780
  188MOL0     C24741   5.108   0.092   4.759  0.1130 -0.2862 -0.4157
  188MOL0     O24742   4.994   0.080   4.690  1.1137  0.0337  0.1095
  188MOL0     C24743   4.948   0.196   4.618  0.2971 -0.0414 -0.4241
  188MOL0     C24744   5.046   0.244   4.510 -0.3796  0.2114 -0.4360
  188MOL0     C24745   5.074   0.133   4.401 -0.0346  1.3563  0.8030
  188MOL0     C24746   5.219   0.150   4.347  0.4549 -0.1641  0.0780
  188MOL0     C24747   5.241   0.279   4.286  0.7263  1.0326 -0.2748
  188MOL0     C24748   5.265   0.388   4.252  0.3540 -0.4867  0.0351
  188MOL0     C24749   5.105   0.150   4.887 -0.5316 -0.8393  0.5680
  188MOL0     C24750   5.217   0.150   4.969  0.1875 -0.6627  0.2210
  188MOL0     H24751   5.649  -0.175   5.056 -2.2015  0.6371  2.1424
  188MOL0     H24752   5.840  -0.213   5.194  1.6567 -2.1155 -2.5541
  188MOL0     H24753   6.048   0.159   5.351 -1.2170 -0.7289  1.9522
  188MOL0     H24754   6.159   0.084   5.238  2.3047 -2.1487  0.3415
  188MOL0     H24755   6.272   0.063   5.462  0.7132  0.0972 -2.7201
  188MOL0     H24756   6.218  -0.091   5.434  0.3414  0.9443 -5.4362
  188MOL0     H24757   6.101  -0.074   5.634  0.0081  0.1748  1.4348
  188MOL0     H24758   5.978   0.004   5.537  0.7444  0.6132  0.5809
  188MOL0     H24759   6.193   0.166   5.674 -0.1594 -0.0748 -1.1479
  188MOL0     H24760   6.061   0.215   5.565  0.1168 -0.4104 -2.0735
  188MOL0     H24761   6.050   0.202   5.832 -0.8253  1.0294 -1.9805
  188MOL0     H24762   6.005   0.024   5.802 -0.7654 -2.2113 -4.3677
  188MOL0     H24763   5.838   0.140   5.653 -1.0661 -1.1573  0.8177
  188MOL0     H24764   5.880   0.290   5.735  0.1532 -0.0625 -1.9679
  188MOL0     H24765   5.678   0.172   5.864 -0.9339 -3.2722  3.2851
  188MOL0     H24766   5.791   0.048   5.893 -2.0253 -0.5202 -0.6023
  188MOL0     H24767   5.937   0.232   6.004 -0.6268 -1.0398 -1.9711
  188MOL0     H24768   5.811   0.146   6.090  1.9948 -0.8292 -0.4279
  188MOL0     H24769   5.529   0.295   6.004  1.1667 -2.0591 -0.8827
  188MOL0     H24770   5.479   0.645   6.142  2.7573  0.0210 -1.2290
  188MOL0     H24771   5.387   0.497   6.078  0.3262 -1.5492  1.9700
  188MOL0     H24772   5.550   0.669   5.900  1.2048 -1.5831  2.2883
  188MOL0     H24773   5.401   0.736   5.969 -0.4653 -1.4338  3.1745
  188MOL0     H24774   5.426   0.470   5.808  1.6829  0.7255  1.8176
  188MOL0     H24775   5.275   0.562   5.836  0.0301  0.5373  2.0204
  188MOL0     H24776   5.383   0.582   5.597  2.6081 -0.6844 -0.1798
  188MOL0     H24777   5.515   0.658   5.661 -0.4131  1.8873 -1.0469
  188MOL0     H24778   5.382   1.001   5.571 -1.9152  0.3391  1.9985
  188MOL0     H24779   5.273   1.078   5.363  1.5537 -0.7470 -1.4977
  188MOL0     H24780   5.128   0.951   4.910  0.1714  0.3088 -0.1836
  188MOL0     H24781   5.047   1.062   4.719  2.2947 -2.1356  0.7965
  188MOL0     H24782   4.726   1.307   4.791 -2.3298  0.5346 -1.0279
  188MOL0     H24783   4.731   1.291   4.614 -0.0258  2.9211 -3.0358
  188MOL0     H24784   4.882   1.530   4.728  1.0344 -0.5598 -0.4199
  188MOL0     H24785   4.698   1.521   4.742 -0.9050 -2.4064 -0.0741
  188MOL0     H24786   4.658   1.515   4.516 -1.2087  1.6410  0.2450
  188MOL0     H24787   4.819   1.449   4.483  0.0386  1.7853 -1.1121
  188MOL0     H24788   4.755   1.750   4.547  1.3453  3.3829 -2.6461
  188MOL0     H24789   4.915   1.691   4.516 -1.1984  2.6115  1.1983
  188MOL0     H24790   4.794   1.793   4.327  2.0695 -0.4430  1.0699
  188MOL0     H24791   4.719   1.619   4.316  1.9202 -3.2202  1.7498
  188MOL0     H24792   4.956   1.537   4.315  1.7885 -0.9564 -1.1878
  188MOL0     H24793   5.007   1.706   4.288 -1.9053  1.3059 -0.1723
  188MOL0     H24794   4.846   1.703   4.077  0.1210 -2.0376 -2.4616
  188MOL0     H24795   5.006   1.633   4.071 -1.1460 -1.3367 -3.2773
  188MOL0     H24796   4.768   1.458   4.142  0.2272 -1.8232 -0.8406
  188MOL0     H24797   4.935   1.407   4.098  0.2705 -0.0556  0.0238
  188MOL0     H24798   4.877   1.378   4.966 -0.6027  0.2647  2.7717
  188MOL0     H24799   4.959   1.270   5.156 -0.8834  2.7746 -2.6710
  188MOL0     H24800   5.053   0.704   5.354 -1.6452  1.2477  0.1590
  188MOL0     H24801   5.148   0.635   5.556 -2.3676  0.7567 -0.1960
  188MOL0     H24802   5.946   0.212   5.156 -1.5345  1.7695 -1.3199
  188MOL0     H24803   5.758   0.244   5.018  0.2013 -1.8342 -2.3132
  188MOL0     H24804   5.439  -0.016   4.761  0.3113 -0.7355 -0.0730
  188MOL0     H24805   5.243  -0.004   4.610  2.3245  0.2144  0.6435
  188MOL0     H24806   4.930   0.275   4.692  0.5280 -1.6439  1.4268
  188MOL0     H24807   4.853   0.170   4.569  0.9624  0.5195 -2.0852
  188MOL0     H24808   4.998   0.330   4.463 -3.1815  0.1410  1.9556
  188MOL0     H24809   5.139   0.284   4.551 -0.7636  0.9803 -0.2864
  188MOL0     H24810   5.007   0.136   4.314  0.9765 -0.6649 -0.1110
  188MOL0     H24811   5.073   0.036   4.450  0.1913  0.3001 -1.1643
  188MOL0     H24812   5.291   0.139   4.428  1.5337 -1.1644 -0.9706
  188MOL0     H24813   5.243   0.068   4.278  2.0158 -0.0451  0.4512
  188MOL0     H24814   5.280   0.484   4.209  0.2551 -1.0624 -1.3293
  188MOL0     H24815   5.019   0.193   4.937  1.8189  2.7495  1.9330
  188MOL0     H24816   5.205   0.210   5.059  0.3633  2.7080 -1.8276
  189MOL0     O24817   5.832   6.331   5.972  0.0842 -0.0905  0.0669
  189MOL0     C24818   5.782   6.252   6.052 -0.3469  0.2634 -1.2730
  189MOL0     O24819   5.656   6.206   6.041 -0.3350  0.5359  0.2194
  189MOL0     C24820   5.566   6.243   5.945  0.4156  1.1005  0.2427
  189MOL0     C24821   5.458   6.159   5.937  0.1342 -0.3506 -1.0188
  189MOL0     C24822   5.360   6.172   5.835 -0.9869  0.3751 -0.3969
  189MOL0     C24823   5.371   6.276   5.736 -0.0832  0.8737 -0.5619
  189MOL0     O24824   5.287   6.288   5.641  0.8508 -0.1733  0.1198
  189MOL0     C24825   5.206   6.405   5.654  0.5545 -0.7574  0.2666
  189MOL0     C24826   5.082   6.369   5.572  0.3576  0.2078 -1.1467
  189MOL0     C24827   4.965   6.463   5.583  0.0563  0.3974 -0.3500
  189MOL0     C24828   4.877   6.449   5.455 -0.5884  0.4273 -0.5758
  189MOL0     C24829   4.756   6.541   5.472 -1.0875  0.1867  0.5836
  189MOL0     C24830   4.666   6.522   5.343 -0.2970 -0.0331  0.0725
  189MOL0     C24831   4.547   6.615   5.351  0.4815  0.9842 -0.6148
  189MOL0     C24832   4.435   6.563   5.447 -0.4153  0.2128  1.0988
  189MOL0     N24833   4.324   6.651   5.411 -0.2659  0.1228 -0.5028
  189MOL0     C24834   4.219   6.618   5.329 -1.5295  0.0918  0.1362
  189MOL0     C24835   4.126   6.710   5.357 -0.8488 -0.5807  0.0130
  189MOL0     C24836   3.991   6.722   5.284  0.7792 -0.4261 -0.4040
  189MOL0     C24837   3.952   6.594   5.220  0.3572  0.9768 -1.0131
  189MOL0     C24838   3.804   6.599   5.188  0.2009  0.4727  0.1230
  189MOL0     C24839   3.785   6.671   5.057  1.2769  0.4190 -0.1595
  189MOL0     O24840   3.662   6.623   4.997  0.3733 -0.1437  0.5358
  189MOL0     C24841   3.540   6.685   5.015 -0.3931 -0.1202  0.0868
  189MOL0     C24842   3.506   6.760   5.127 -1.4045 -0.1071  0.7484
  189MOL0     C24843   3.384   6.804   5.149  0.2279 -0.0641  0.2502
  189MOL0     C24844   3.281   6.755   5.070  0.7701  0.4025  0.2077
  189MOL0     C24845   3.136   6.788   5.105 -1.0512  0.0516  0.3963
  189MOL0     O24846   3.104   6.824   5.241  0.0029  0.2301  0.3246
  189MOL0     C24847   2.971   6.844   5.259 -0.1129 -0.9527  0.3285
  189MOL0     C24848   2.869   6.744   5.223 -0.1070 -0.2007 -0.6960
  189MOL0     C24849   2.734   6.770   5.243  0.0490  0.4914 -0.2811
  189MOL0     C24850   2.702   6.897   5.287 -0.4507  0.0001  0.2933
  189MOL0     O24851   2.579   6.941   5.309  0.7697  1.0357  0.0225
  189MOL0     C24852   2.468   6.867   5.292  0.1302 -0.2416 -0.1365
  189MOL0     C24853   2.426   6.854   5.146  0.5237  0.2907 -0.1530
  189MOL0     C24854   2.294   6.772   5.123 -0.1354 -0.6945 -0.5199
  189MOL0     C24855   2.169   6.859   5.154  0.2900  0.5326  0.2374
  189MOL0     C24856   2.029   6.795   5.125 -0.5965  0.5414 -0.1920
  189MOL0     C24857   1.920   6.891   5.154 -0.2907 -0.9900  0.0505
  189MOL0     C24858   1.902   7.005   5.052  0.0279 -0.2227 -0.0064
  189MOL0     C24859   1.810   7.106   5.109  0.6415  0.0424  0.0903
  189MOL0    Cl24860   1.643   7.035   5.153 -0.2332  0.0309 -0.0475
  189MOL0     C24861   2.797   6.993   5.322 -0.5470  0.9323  0.2254
  189MOL0     C24862   2.936   6.966   5.311 -0.3993  0.0946  0.3902
  189MOL0     O24863   3.063   6.782   5.007  0.1306  0.0891 -0.5813
  189MOL0     C24864   3.309   6.679   4.957 -1.0919  0.8589  1.0631
  189MOL0     C24865   3.443   6.651   4.924 -0.1355  0.2477 -0.0879
  189MOL0     N24866   4.180   6.797   5.452 -1.3343  0.0705 -0.2794
  189MOL0     N24867   4.295   6.760   5.481 -1.0119  0.1901  0.1506
  189MOL0     C24868   5.476   6.362   5.736 -0.3412  0.1520 -0.2247
  189MOL0     C24869   5.570   6.346   5.844 -0.8791 -0.2406 -0.2658
  189MOL0     C24870   5.860   6.208   6.163  0.3753  0.7407 -0.1201
  189MOL0     C24871   5.808   6.100   6.242 -1.6300 -1.1460  0.1768
  189MOL0     C24872   5.894   6.078   6.350  0.4023 -1.6393  0.0960
  189MOL0     C24873   6.013   6.148   6.389 -0.3828 -0.2083  1.4485
  189MOL0     O24874   6.087   6.088   6.485  0.1017  0.6237  0.2643
  189MOL0     C24875   6.043   6.121   6.618  1.0279 -0.2221  0.5097
  189MOL0     C24876   6.001   5.989   6.697 -0.1303 -1.3599  0.4738
  189MOL0     C24877   5.994   6.016   6.851  0.3716 -0.6690 -0.1230
  189MOL0     C24878   5.913   6.145   6.902  0.3437  0.6478  0.3345
  189MOL0     C24879   5.902   6.156   7.045  0.4194 -0.4737  0.3638
  189MOL0     C24880   5.905   6.179   7.163  1.0523 -0.8176 -0.4939
  189MOL0     C24881   6.048   6.252   6.303 -0.0275  0.5743  0.6417
  189MOL0     C24882   5.976   6.285   6.184 -0.5502 -0.3809 -0.4821
  189MOL0     H24883   5.448   6.090   6.021 -0.8770  0.4502 -0.4512
  189MOL0     H24884   5.277   6.103   5.846  0.5066 -1.5270 -0.5775
  189MOL0     H24885   5.240   6.499   5.611 -1.2384  0.2773  1.0047
  189MOL0     H24886   5.168   6.424   5.755 -2.2906  1.3183 -1.0711
  189MOL0     H24887   5.047   6.269   5.600 -0.1539  1.5458  3.9702
  189MOL0     H24888   5.112   6.371   5.467 -2.4945  1.1503 -2.0270
  189MOL0     H24889   5.000   6.567   5.585 -0.8602  0.8036 -2.5710
  189MOL0     H24890   4.910   6.444   5.675 -0.7471  0.7163 -0.7528
  189MOL0     H24891   4.943   6.466   5.369 -0.2383 -0.6115 -0.5349
  189MOL0     H24892   4.852   6.343   5.451  2.5088 -0.3757 -1.6847
  189MOL0     H24893   4.789   6.645   5.478  0.9720 -0.3531 -0.1896
  189MOL0     H24894   4.694   6.513   5.557 -4.0147 -0.8002 -1.7206
  189MOL0     H24895   4.638   6.419   5.319  0.6392 -0.0903 -0.8363
  189MOL0     H24896   4.716   6.565   5.255 -1.2066 -1.4637 -1.1929
  189MOL0     H24897   4.587   6.714   5.375  2.2590  0.2021 -0.2110
  189MOL0     H24898   4.500   6.616   5.252 -1.1778 -0.6835  0.0904
  189MOL0     H24899   4.477   6.571   5.548  1.9686 -0.9940  0.2632
  189MOL0     H24900   4.405   6.460   5.426 -1.7534  0.8001 -0.0704
  189MOL0     H24901   4.214   6.539   5.254 -2.5013 -0.1497  0.4416
  189MOL0     H24902   3.985   6.811   5.222  1.7728 -0.6767 -0.8752
  189MOL0     H24903   3.914   6.752   5.356  0.6973  1.3278 -1.1749
  189MOL0     H24904   3.965   6.505   5.283  0.3042  0.5665 -1.5751
  189MOL0     H24905   4.013   6.569   5.133  0.1238 -1.2988 -0.5798
  189MOL0     H24906   3.764   6.501   5.157  2.4852  0.0765 -1.8605
  189MOL0     H24907   3.742   6.644   5.266 -1.9228 -0.2853 -1.0344
  189MOL0     H24908   3.861   6.648   4.983  1.4323 -2.0868  0.7009
  189MOL0     H24909   3.776   6.776   5.087 -2.3302  0.4642 -0.9468
  189MOL0     H24910   3.588   6.786   5.192  3.8075 -0.8432 -4.6297
  189MOL0     H24911   3.376   6.872   5.234 -1.9651  0.8353 -0.6113
  189MOL0     H24912   2.895   6.647   5.180 -1.4515 -1.0043  0.2035
  189MOL0     H24913   2.664   6.693   5.213  0.2311  0.6913 -1.2593
  189MOL0     H24914   2.392   6.919   5.351  1.5938  1.2688  0.5185
  189MOL0     H24915   2.480   6.766   5.334 -1.6390  0.6205  2.6966
  189MOL0     H24916   2.510   6.812   5.091  1.1555  0.9705  0.2791
  189MOL0     H24917   2.398   6.951   5.104  1.4216  2.0048  2.8537
  189MOL0     H24918   2.283   6.682   5.184  1.2933  0.3390  1.3810
  189MOL0     H24919   2.296   6.739   5.019  1.9659 -4.0880  0.4336
  189MOL0     H24920   2.176   6.891   5.259 -1.4673  1.5650  0.0694
  189MOL0     H24921   2.177   6.954   5.102  0.0321  1.3124  1.5742
  189MOL0     H24922   2.027   6.706   5.189  2.0093  0.8883  0.5124
  189MOL0     H24923   2.026   6.758   5.022  1.0491 -1.7143  0.4822
  189MOL0     H24924   1.952   6.926   5.252 -0.0047 -2.2221  0.4105
  189MOL0     H24925   1.825   6.838   5.169 -0.2779 -0.4091  2.6505
  189MOL0     H24926   1.999   7.055   5.037  1.4819 -1.6137  3.5644
  189MOL0     H24927   1.875   6.964   4.955 -0.6015 -1.5568  0.7052
  189MOL0     H24928   1.795   7.186   5.036 -0.2013  0.7370  0.9905
  189MOL0     H24929   1.868   7.152   5.189  1.5301  0.1578 -0.6043
  189MOL0     H24930   2.770   7.098   5.329 -1.3672  0.7017  0.6190
  189MOL0     H24931   3.015   7.033   5.342 -1.1284  1.3341 -0.3185
  189MOL0     H24932   3.243   6.671   4.871  0.1761  2.4539 -0.1034
  189MOL0     H24933   3.466   6.597   4.832  2.3100 -2.4163  1.8978
  189MOL0     H24934   5.471   6.438   5.660 -2.0825  1.9368  1.5550
  189MOL0     H24935   5.653   6.415   5.848 -0.6473 -0.2636 -2.8270
  189MOL0     H24936   5.723   6.037   6.219 -0.4963 -2.0739 -1.7053
  189MOL0     H24937   5.859   5.993   6.408 -0.4185 -1.9026 -0.7537
  189MOL0     H24938   5.963   6.194   6.607  2.2828  0.8644 -2.6446
  189MOL0     H24939   6.126   6.165   6.674 -0.1132  1.6112  0.8177
  189MOL0     H24940   5.910   5.948   6.652  0.2624 -0.9067 -0.7590
  189MOL0     H24941   6.069   5.905   6.676  1.1479 -0.0557 -0.8221
  189MOL0     H24942   6.095   6.027   6.893 -0.8186 -0.0299  2.8071
  189MOL0     H24943   5.951   5.925   6.894  1.0591 -1.4425 -1.0506
  189MOL0     H24944   5.967   6.231   6.861  2.3717 -1.2706 -1.2704
  189MOL0     H24945   5.808   6.128   6.876  0.4594 -0.8736  0.7583
  189MOL0     H24946   5.908   6.203   7.267 -0.6383 -5.0708  0.7367
  189MOL0     H24947   6.141   6.306   6.314 -0.0295  0.8230 -0.4484
  189MOL0     H24948   6.019   6.355   6.114  0.3148 -0.0522  0.3645
  190MOL0     O24949   7.863   9.039   4.437 -0.1588 -0.4282 -0.4325
  190MOL0     C24950   7.815   9.007   4.330  0.8541  0.3226  0.3187
  190MOL0     O24951   7.837   9.064   4.202 -0.0566 -0.9361 -0.1868
  190MOL0     C24952   7.910   9.185   4.194  1.6689 -0.3598 -0.4766
  190MOL0     C24953   7.839   9.310   4.190 -0.5169 -0.8850 -1.2636
  190MOL0     C24954   7.908   9.433   4.201  1.0878 -0.3085 -0.5082
  190MOL0     C24955   8.048   9.434   4.225  0.0738  0.1624 -0.0254
  190MOL0     O24956   8.124   9.547   4.233  0.0748 -0.4935 -1.0815
  190MOL0     C24957   8.058   9.677   4.262  0.2011 -0.2633 -0.2825
  190MOL0     C24958   8.174   9.773   4.294 -0.6275 -0.0038 -0.6038
  190MOL0     C24959   8.112   9.909   4.326 -0.4085 -0.1575  0.3100
  190MOL0     C24960   8.222  10.016   4.338  0.1865  1.3096  0.1796
  190MOL0     C24961   8.174  10.154   4.360  0.5318 -0.4348 -0.9230
  190MOL0     C24962   8.126  10.176   4.507 -0.3699 -0.4616 -0.2528
  190MOL0     C24963   8.105  10.326   4.540 -1.2635 -0.1402 -0.0841
  190MOL0     C24964   8.138  10.339   4.690  0.6020  0.0378 -0.1358
  190MOL0     N24965   8.107  10.472   4.752  0.5023  0.4442 -0.2100
  190MOL0     C24966   8.173  10.592   4.728  0.4506 -0.3695  0.9892
  190MOL0     C24967   8.141  10.661   4.840 -0.2112  0.6277  0.1680
  190MOL0     C24968   8.172  10.803   4.873  0.0665 -0.5844 -0.0074
  190MOL0     C24969   8.109  10.899   4.767 -0.1631  1.0436 -0.3289
  190MOL0     C24970   8.178  11.038   4.759  0.1881  0.3012 -0.7692
  190MOL0     C24971   8.324  11.029   4.702  0.1431 -0.4909 -0.3642
  190MOL0     O24972   8.317  10.980   4.568  0.1304 -0.3253  0.0404
  190MOL0     C24973   8.437  10.966   4.496  0.0829  0.1841 -0.8119
  190MOL0     C24974   8.419  10.923   4.363 -0.2634 -0.2638 -0.3390
  190MOL0     C24975   8.529  10.904   4.275  0.2897 -0.4136 -0.4042
  190MOL0     C24976   8.658  10.929   4.320  0.2013 -0.2350  0.0013
  190MOL0     C24977   8.775  10.932   4.229  0.0577  0.0780  0.3830
  190MOL0     O24978   8.740  10.948   4.095 -0.4281 -0.2095  1.4309
  190MOL0     C24979   8.833  10.983   4.001 -0.9579 -0.3617 -0.5902
  190MOL0     C24980   8.967  10.953   3.985  0.1698  0.4183 -0.4026
  190MOL0     C24981   9.041  11.001   3.875 -0.3936  0.9950 -0.0029
  190MOL0     C24982   8.978  11.076   3.774  0.3724  0.1161  1.1701
  190MOL0     O24983   9.046  11.152   3.677 -0.1073  0.8974  0.1576
  190MOL0     C24984   9.167  11.086   3.625  0.1639  0.0166 -0.2943
  190MOL0     C24985   9.150  10.995   3.500  1.0794  0.3508 -0.0363
  190MOL0     C24986   9.170  11.064   3.359 -0.9111  1.1770  0.0714
  190MOL0     C24987   9.185  10.959   3.255  0.9542  0.2431 -0.3797
  190MOL0     C24988   9.193  11.018   3.110  0.1379 -0.3160 -0.6080
  190MOL0     C24989   9.199  10.900   3.005  0.5411 -0.6318  0.6109
  190MOL0     C24990   9.219  10.963   2.869  0.6634  0.0150  0.9461
  190MOL0     C24991   9.192  10.872   2.756 -0.1314  0.1064 -0.9539
  190MOL0    Cl24992   9.197  10.958   2.596 -0.1022 -0.6748 -0.1318
  190MOL0     C24993   8.844  11.108   3.787 -0.4700  0.5697  0.1963
  190MOL0     C24994   8.777  11.051   3.894  0.1855 -0.8036 -0.3912
  190MOL0     O24995   8.888  10.958   4.267 -0.1751 -0.4100 -0.4782
  190MOL0     C24996   8.678  10.969   4.460  0.4508  0.0294  0.7732
  190MOL0     C24997   8.571  10.986   4.544  0.0264 -0.0800  1.4452
  190MOL0     N24998   8.038  10.599   4.910  0.3574  0.9892  0.2217
  190MOL0     N24999   8.021  10.486   4.853  0.0382 -0.4594 -0.2859
  190MOL0     C25000   8.123   9.311   4.222 -0.0047  0.3966  0.8070
  190MOL0     C25001   8.046   9.186   4.210  0.5165 -1.9741 -0.8207
  190MOL0     C25002   7.721   8.894   4.321 -0.3871 -0.7093 -0.2525
  190MOL0     C25003   7.653   8.853   4.203  0.1408 -0.2275  0.2182
  190MOL0     C25004   7.585   8.736   4.208  0.4142 -0.1902 -0.5647
  190MOL0     C25005   7.567   8.663   4.324 -0.4187  1.1806  0.2489
  190MOL0     O25006   7.503   8.546   4.327  0.5348 -0.0378  0.2353
  190MOL0     C25007   7.454   8.473   4.208  0.2324 -0.0261 -0.7845
  190MOL0     C25008   7.315   8.525   4.168 -0.6187 -0.2755  0.5063
  190MOL0     C25009   7.264   8.446   4.046  0.0873  0.3585 -0.3097
  190MOL0     C25010   7.134   8.507   3.973  0.3442  0.0006  0.6924
  190MOL0     C25011   7.025   8.528   4.062  0.0052 -0.7880 -0.5025
  190MOL0     C25012   6.930   8.557   4.126 -0.9673  0.2661  0.4843
  190MOL0     C25013   7.608   8.716   4.440  0.5075 -1.1274  0.3570
  190MOL0     C25014   7.681   8.833   4.441 -0.1933  0.6229 -1.1380
  190MOL0     H25015   7.733   9.302   4.169 -0.4132 -0.5636 -1.9357
  190MOL0     H25016   7.850   9.525   4.203  0.7772 -0.2846 -4.2337
  190MOL0     H25017   8.003   9.652   4.353 -1.2873 -2.0123 -1.5722
  190MOL0     H25018   7.996   9.703   4.175 -0.5733  1.3884  0.7106
  190MOL0     H25019   8.239   9.775   4.206 -2.8135 -1.9880 -2.4184
  190MOL0     H25020   8.234   9.731   4.375  1.6539  2.3692 -0.9259
  190MOL0     H25021   8.057   9.900   4.420  0.2868 -0.2411  0.7146
  190MOL0     H25022   8.045   9.938   4.245 -0.0055 -2.3032 -0.8668
  190MOL0     H25023   8.299  10.002   4.414 -1.8324  2.0585  2.4993
  190MOL0     H25024   8.270  10.004   4.241  0.6597 -0.0045  0.5584
  190MOL0     H25025   8.097  10.185   4.289  1.1361 -0.8673 -1.7875
  190MOL0     H25026   8.256  10.226   4.347 -0.7728  1.5177  0.9906
  190MOL0     H25027   8.192  10.127   4.579  1.0457 -0.1175 -1.2595
  190MOL0     H25028   8.027  10.129   4.502  1.2448 -4.3013  0.5183
  190MOL0     H25029   8.175  10.393   4.488  2.0044 -1.0192  2.7403
  190MOL0     H25030   8.002  10.354   4.515 -1.3790 -0.6773 -0.2132
  190MOL0     H25031   8.242  10.326   4.720  0.5103 -0.0229  0.1615
  190MOL0     H25032   8.064  10.285   4.750 -0.3964  0.6082 -0.8180
  190MOL0     H25033   8.249  10.625   4.658 -0.1056 -1.3738 -0.1182
  190MOL0     H25034   8.282  10.803   4.875  0.1050 -2.5190 -0.3359
  190MOL0     H25035   8.139  10.816   4.977  0.9738 -0.0097  0.2188
  190MOL0     H25036   8.003  10.910   4.791  0.1316  0.5974  1.3193
  190MOL0     H25037   8.112  10.861   4.665  1.3898  1.1394 -0.3419
  190MOL0     H25038   8.123  11.088   4.679  0.5872  0.5407 -0.9019
  190MOL0     H25039   8.177  11.103   4.847  0.1306 -2.2527  1.2349
  190MOL0     H25040   8.387  10.969   4.768 -0.7331  0.6810  1.6263
  190MOL0     H25041   8.368  11.128   4.688 -0.6286 -0.0606  0.1468
  190MOL0     H25042   8.318  10.910   4.326  1.2870  0.3419 -5.7445
  190MOL0     H25043   8.514  10.879   4.170  1.4782  0.9316 -0.9453
  190MOL0     H25044   9.010  10.878   4.052  0.9518 -0.3927 -1.7536
  190MOL0     H25045   9.148  10.987   3.880 -0.5641 -2.1158 -2.3369
  190MOL0     H25046   9.213  11.029   3.706 -1.5418  0.2670  0.9018
  190MOL0     H25047   9.245  11.157   3.595  2.0539 -1.9946 -0.3183
  190MOL0     H25048   9.046  10.962   3.500  0.4469  2.0716 -2.6610
  190MOL0     H25049   9.210  10.905   3.513 -1.3853 -1.1648  1.7494
  190MOL0     H25050   9.261  11.124   3.353  2.3436 -3.2846 -0.2362
  190MOL0     H25051   9.082  11.124   3.336 -1.0777  1.2992  0.9884
  190MOL0     H25052   9.275  10.900   3.274  0.5564  0.3003  1.9346
  190MOL0     H25053   9.094  10.900   3.266  1.3317 -0.1334  0.9128
  190MOL0     H25054   9.290  11.067   3.100  1.3633 -1.9642  2.0838
  190MOL0     H25055   9.110  11.082   3.080  0.9093  1.5755  1.0323
  190MOL0     H25056   9.117  10.828   3.010  0.9407 -1.3138 -1.6367
  190MOL0     H25057   9.298  10.857   3.026  0.7257 -0.7392 -0.4427
  190MOL0     H25058   9.158  11.053   2.874  2.9935  1.6309  1.9825
  190MOL0     H25059   9.319  11.007   2.863  1.3962 -1.7694 -1.6428
  190MOL0     H25060   9.092  10.828   2.766 -1.9634  4.1474  1.1200
  190MOL0     H25061   9.265  10.793   2.771 -0.3271  0.3878  2.3878
  190MOL0     H25062   8.792  11.177   3.722  3.8832  2.8975 -1.2450
  190MOL0     H25063   8.676  11.090   3.897  1.4431  2.7752  0.2055
  190MOL0     H25064   8.780  10.997   4.484  0.6489  0.2911 -0.3371
  190MOL0     H25065   8.589  11.021   4.645  1.2693 -0.5790  1.4103
  190MOL0     H25066   8.231   9.317   4.225 -0.0727  2.5919  3.3699
  190MOL0     H25067   8.083   9.084   4.206  1.0608 -1.7515 -2.1800
  190MOL0     H25068   7.665   8.900   4.106  2.4753 -1.3928 -0.1249
  190MOL0     H25069   7.538   8.708   4.114 -1.3953  1.3717 -0.1881
  190MOL0     H25070   7.449   8.369   4.241 -1.8492  0.7685  1.7859
  190MOL0     H25071   7.523   8.490   4.125  2.1895 -1.2463  0.5060
  190MOL0     H25072   7.244   8.520   4.251  0.2208 -1.3196  1.1790
  190MOL0     H25073   7.328   8.632   4.149 -2.5891 -0.4599 -2.6112
  190MOL0     H25074   7.226   8.347   4.073 -1.5644  1.1063  0.2950
  190MOL0     H25075   7.340   8.441   3.968  0.8191  0.8449  0.3551
  190MOL0     H25076   7.152   8.603   3.924  1.2004 -0.1013  0.7912
  190MOL0     H25077   7.107   8.447   3.886 -0.2946  1.8181 -0.4159
  190MOL0     H25078   6.860   8.578   4.204 -0.4113 -5.3134  2.9049
  190MOL0     H25079   7.602   8.658   4.532  0.5385  0.9256  1.7267
  190MOL0     H25080   7.707   8.871   4.539 -3.2013  0.4569 -0.1635
  191MOL0     O25081  10.235  10.756   1.199  0.1852  0.0751 -0.5113
  191MOL0     C25082  10.244  10.683   1.302  0.7481  0.7833  0.5558
  191MOL0     O25083  10.351  10.640   1.363 -0.8702  0.2411  0.1738
  191MOL0     C25084  10.479  10.684   1.338 -0.1961  0.1255 -0.0281
  191MOL0     C25085  10.506  10.809   1.285 -0.1476  0.4042 -0.3079
  191MOL0     C25086  10.633  10.860   1.290 -0.9918  0.2404 -0.5707
  191MOL0     C25087  10.735  10.783   1.352 -0.7260  0.2965 -0.5398
  191MOL0     O25088  10.861  10.842   1.367 -0.1194 -0.0656 -0.5318
  191MOL0     C25089  10.924  10.818   1.493  0.8148  0.6696  0.5944
  191MOL0     C25090  11.060  10.881   1.495 -1.0206  0.2357  0.0724
  191MOL0     C25091  11.030  11.037   1.485  0.0702 -0.2212  0.0837
  191MOL0     C25092  11.152  11.126   1.487  0.3639 -0.6277  0.9251
  191MOL0     C25093  11.136  11.279   1.484  0.0869 -0.6991  0.2613
  191MOL0     C25094  11.265  11.357   1.439  0.3127 -0.7149 -0.7411
  191MOL0     C25095  11.273  11.512   1.486  0.1349 -0.3647 -0.5163
  191MOL0     C25096  11.166  11.600   1.411 -0.9525  0.6742  0.2222
  191MOL0     N25097  11.216  11.736   1.379 -0.4751  0.8973  0.0410
  191MOL0     C25098  11.242  11.782   1.258  0.0080 -0.0726  0.0017
  191MOL0     C25099  11.309  11.898   1.262 -0.6011 -1.0525 -0.4156
  191MOL0     C25100  11.346  11.995   1.154 -0.8274  0.2376  0.4810
  191MOL0     C25101  11.422  11.905   1.055 -0.8490 -0.2133 -0.1253
  191MOL0     C25102  11.490  11.990   0.947 -0.2552 -0.1587 -0.2162
  191MOL0     C25103  11.627  11.950   0.902  0.4569  0.7745  0.4767
  191MOL0     O25104  11.669  12.018   0.783  0.5119 -0.1270  0.7389
  191MOL0     C25105  11.721  12.145   0.782  0.0326 -0.1418 -0.1357
  191MOL0     C25106  11.733  12.226   0.897  0.8361  0.1681 -0.2126
  191MOL0     C25107  11.773  12.357   0.885 -0.0908  0.2033 -0.3343
  191MOL0     C25108  11.810  12.420   0.767 -0.7159 -0.1379  0.7926
  191MOL0     C25109  11.859  12.560   0.772  0.2488  0.6875 -0.1607
  191MOL0     O25110  11.856  12.624   0.896 -0.0286 -0.4547 -0.1620
  191MOL0     C25111  11.873  12.760   0.908 -0.1843 -0.7630 -0.4890
  191MOL0     C25112  12.002  12.814   0.907 -0.0161  0.2650 -0.1190
  191MOL0     C25113  12.021  12.953   0.908 -0.2606 -0.8563 -0.0867
  191MOL0     C25114  11.910  13.042   0.925  0.2765  0.1330 -0.5385
  191MOL0     O25115  11.928  13.184   0.928 -0.1579  0.9016  0.2021
  191MOL0     C25116  11.832  13.276   0.869 -0.4138  0.1614  0.2452
  191MOL0     C25117  11.862  13.290   0.721 -0.5922 -0.0033 -1.2712
  191MOL0     C25118  11.998  13.359   0.672 -0.9161  0.0763 -0.8681
  191MOL0     C25119  12.003  13.509   0.710 -1.0736 -0.1368 -0.3147
  191MOL0     C25120  12.131  13.572   0.650  0.1326  0.2010  0.3257
  191MOL0     C25121  12.150  13.553   0.497  0.7653 -0.1134 -0.5436
  191MOL0     C25122  12.039  13.617   0.411 -0.0272  0.1998 -1.2964
  191MOL0     C25123  12.062  13.572   0.273  0.1132  0.8960  0.2261
  191MOL0    Cl25124  12.019  13.401   0.255 -0.1577  0.3204 -0.0033
  191MOL0     C25125  11.775  12.986   0.925  0.4107 -0.1704 -0.0152
  191MOL0     C25126  11.760  12.845   0.924 -0.2909  0.0461 -0.2317
  191MOL0     O25127  11.895  12.612   0.667  0.0879 -0.4969  0.2612
  191MOL0     C25128  11.809  12.341   0.650  0.0901  0.2060 -0.3570
  191MOL0     C25129  11.758  12.208   0.663  0.1857 -0.5604 -0.1121
  191MOL0     N25130  11.340  11.917   1.400 -0.2568  0.0435 -0.4397
  191MOL0     N25131  11.273  11.827   1.463  0.0488  0.1423  0.0983
  191MOL0     C25132  10.708  10.649   1.398  0.2338  0.0202  0.2307
  191MOL0     C25133  10.576  10.594   1.386  0.0415 -0.4830 -0.3634
  191MOL0     C25134  10.123  10.611   1.351 -0.6469 -0.2537  0.1902
  191MOL0     C25135  10.128  10.497   1.434  0.6550 -0.2455 -0.1620
  191MOL0     C25136  10.017  10.421   1.476 -0.1201  0.2072  0.7324
  191MOL0     C25137   9.889  10.463   1.429  0.6035 -0.2757 -0.7287
  191MOL0     O25138   9.785  10.380   1.461  0.1898  0.5089  0.1418
  191MOL0     C25139   9.646  10.396   1.423  0.8940 -0.5362  0.3854
  191MOL0     C25140   9.561  10.315   1.524  0.2688  0.2307  0.1669
  191MOL0     C25141   9.616  10.174   1.556 -1.0681  1.1821  1.2114
  191MOL0     C25142   9.640  10.087   1.426 -0.0035 -0.6846 -0.6758
  191MOL0     C25143   9.656   9.948   1.461  0.4699 -0.6871 -0.3125
  191MOL0     C25144   9.651   9.828   1.486 -0.5213 -0.4851  0.0172
  191MOL0     C25145   9.873  10.577   1.351  0.0256  0.4850 -0.4516
  191MOL0     C25146   9.990  10.657   1.317  0.0048  0.2975 -0.2741
  191MOL0     H25147  10.425  10.874   1.254 -0.0529  1.2990  1.2112
  191MOL0     H25148  10.654  10.960   1.252 -1.7949 -0.0398 -1.7936
  191MOL0     H25149  10.949  10.712   1.503  1.9677  0.5972 -2.1730
  191MOL0     H25150  10.869  10.857   1.579 -0.2065 -0.0498  0.2907
  191MOL0     H25151  11.126  10.847   1.415 -1.5273  1.0806 -0.7180
  191MOL0     H25152  11.113  10.854   1.586 -1.0392  1.6270  0.5083
  191MOL0     H25153  10.958  11.058   1.564 -1.9026 -0.3602 -1.5783
  191MOL0     H25154  10.984  11.055   1.387 -0.1135  0.8660  0.3597
  191MOL0     H25155  11.210  11.095   1.575  1.1149  2.6587  1.7280
  191MOL0     H25156  11.214  11.100   1.401 -0.2936 -2.0659  0.8471
  191MOL0     H25157  11.100  11.306   1.583 -1.4756  1.1458 -0.7383
  191MOL0     H25158  11.051  11.303   1.419 -0.0940 -0.2530  0.6571
  191MOL0     H25159  11.288  11.357   1.332  0.8960  3.0906 -0.7582
  191MOL0     H25160  11.351  11.298   1.471  0.1739 -0.8188 -0.5576
  191MOL0     H25161  11.248  11.504   1.592 -1.7297 -3.7212 -1.0774
  191MOL0     H25162  11.369  11.564   1.476  0.4979 -0.8361  0.4420
  191MOL0     H25163  11.078  11.597   1.475 -1.0058  2.3827  0.2879
  191MOL0     H25164  11.142  11.562   1.312 -1.9946 -1.2919  1.1787
  191MOL0     H25165  11.196  11.743   1.167  0.1918  1.0758 -0.6132
  191MOL0     H25166  11.411  12.072   1.197 -0.1912 -0.5211  0.9136
  191MOL0     H25167  11.253  12.038   1.117 -0.2925  0.2181 -0.9523
  191MOL0     H25168  11.359  11.825   1.014 -0.5580  0.2268 -1.4477
  191MOL0     H25169  11.507  11.863   1.109  1.1675  3.1352 -0.4814
  191MOL0     H25170  11.428  12.003   0.858  0.2833  0.3884 -0.5190
  191MOL0     H25171  11.507  12.087   0.994  4.6960 -1.2175  0.7454
  191MOL0     H25172  11.622  11.842   0.882  2.4137  0.4121  1.6737
  191MOL0     H25173  11.701  11.944   0.983 -1.5968 -1.5777  2.3771
  191MOL0     H25174  11.708  12.199   1.000 -0.2618  0.7371 -0.3155
  191MOL0     H25175  11.771  12.404   0.983 -2.0545 -1.1452  0.3244
  191MOL0     H25176  12.091  12.751   0.900  0.2077  0.7633 -4.3928
  191MOL0     H25177  12.127  12.978   0.913 -0.0564 -1.5863 -0.6831
  191MOL0     H25178  11.836  13.380   0.904 -0.5217 -0.0640  0.9402
  191MOL0     H25179  11.732  13.233   0.875 -0.4015  0.1585  0.4384
  191MOL0     H25180  11.778  13.336   0.666 -2.9771 -0.2613  1.8646
  191MOL0     H25181  11.881  13.185   0.697 -1.6830 -0.4257 -0.3967
  191MOL0     H25182  12.018  13.333   0.568  0.9043 -0.1501 -0.4995
  191MOL0     H25183  12.080  13.318   0.732 -0.5997  0.3607 -1.1023
  191MOL0     H25184  11.919  13.555   0.656 -0.3304  1.4305 -0.1834
  191MOL0     H25185  11.995  13.518   0.819  0.5813 -2.6490  0.0798
  191MOL0     H25186  12.216  13.518   0.693 -1.6437 -1.4542  1.9041
  191MOL0     H25187  12.127  13.681   0.663 -1.0462  0.0822  1.0251
  191MOL0     H25188  12.154  13.444   0.487  0.5565 -0.2467  0.6205
  191MOL0     H25189  12.255  13.570   0.471  2.5309 -0.3090  5.0888
  191MOL0     H25190  11.938  13.590   0.442 -0.8244 -0.6484 -4.2899
  191MOL0     H25191  12.058  13.724   0.416  2.7906 -0.2878  1.1801
  191MOL0     H25192  12.163  13.588   0.236  1.0539 -1.4688  1.5121
  191MOL0     H25193  11.997  13.637   0.215  1.5929  3.8424  1.6750
  191MOL0     H25194  11.686  13.047   0.931 -0.7464 -1.6725 -1.0881
  191MOL0     H25195  11.664  12.798   0.909  0.1472 -0.4893 -1.5273
  191MOL0     H25196  11.838  12.383   0.554 -1.0999  0.2800 -0.7004
  191MOL0     H25197  11.749  12.142   0.578  0.5473 -0.2134 -0.4221
  191MOL0     H25198  10.785  10.579   1.430 -2.5347 -2.8252  1.1701
  191MOL0     H25199  10.548  10.499   1.429  0.7802 -1.1577 -1.3345
  191MOL0     H25200  10.230  10.464   1.452  1.3463 -0.9728 -4.4105
  191MOL0     H25201  10.036  10.336   1.541  3.0059  0.2989  0.1309
  191MOL0     H25202   9.632  10.369   1.318  1.4832  1.1520 -0.1576
  191MOL0     H25203   9.627  10.503   1.417  0.5249 -0.4839  1.9351
  191MOL0     H25204   9.560  10.371   1.618 -1.0192  1.3996 -0.5017
  191MOL0     H25205   9.456  10.300   1.496 -0.8939  0.9710  3.6020
  191MOL0     H25206   9.548  10.123   1.625  0.2333 -1.7555  0.4609
  191MOL0     H25207   9.715  10.184   1.601 -0.1657  0.9749 -0.6531
  191MOL0     H25208   9.559  10.101   1.354  2.2244  3.0878 -2.7355
  191MOL0     H25209   9.729  10.117   1.371  0.6169  1.1730  1.2009
  191MOL0     H25210   9.653   9.723   1.508  4.4816 -0.2987  1.6614
  191MOL0     H25211   9.782  10.608   1.302  0.6601  0.2054 -1.8350
  191MOL0     H25212   9.971  10.750   1.264 -0.1791  1.0613  1.1021
  192MOL0     O25213  10.373   3.208   4.349  0.1375 -0.5957  0.2643
  192MOL0     C25214  10.276   3.237   4.413 -0.3571  0.4215 -0.3590
  192MOL0     O25215  10.149   3.271   4.359 -0.2322  0.5741  0.7545
  192MOL0     C25216  10.130   3.306   4.227 -0.7141 -0.3605 -0.1561
  192MOL0     C25217  10.230   3.347   4.141  0.7929  0.0686  0.0179
  192MOL0     C25218  10.190   3.379   4.005  0.3560 -0.3295  0.0881
  192MOL0     C25219  10.054   3.368   3.965  0.2133 -0.4405 -0.2166
  192MOL0     O25220  10.027   3.405   3.832  0.0560 -0.6917  1.1205
  192MOL0     C25221   9.900   3.379   3.780  0.3887 -0.7312 -0.3939
  192MOL0     C25222   9.896   3.437   3.636 -0.2137  0.0553  0.0591
  192MOL0     C25223   9.754   3.427   3.567  0.4422  0.5118 -0.0337
  192MOL0     C25224   9.732   3.447   3.414 -0.0327 -0.1823 -0.4584
  192MOL0     C25225   9.595   3.384   3.369 -0.1630 -0.3064  0.2905
  192MOL0     C25226   9.595   3.381   3.216 -0.9936 -0.0997  0.2535
  192MOL0     C25227   9.576   3.509   3.135  0.4529 -0.5228 -0.5364
  192MOL0     C25228   9.633   3.491   2.996 -0.1433 -0.2546 -0.8565
  192MOL0     N25229   9.538   3.406   2.921  0.9342  0.6191  0.8579
  192MOL0     C25230   9.418   3.428   2.850  0.6764 -0.0583 -0.9867
  192MOL0     C25231   9.381   3.312   2.789  0.6922  0.9226 -0.2972
  192MOL0     C25232   9.253   3.262   2.721  0.0852 -1.7991 -0.1596
  192MOL0     C25233   9.210   3.362   2.605 -0.2945  1.2858  0.2963
  192MOL0     C25234   9.099   3.289   2.524 -0.7921 -0.7169 -0.2418
  192MOL0     C25235   8.963   3.255   2.598 -0.3407  0.5367 -0.0279
  192MOL0     O25236   8.908   3.371   2.656  0.6888  0.2018  0.1694
  192MOL0     C25237   8.831   3.454   2.575  0.4649  0.3355  0.5413
  192MOL0     C25238   8.765   3.557   2.648  0.1810  0.5337 -0.1356
  192MOL0     C25239   8.689   3.657   2.579  0.0892  0.5711 -0.8032
  192MOL0     C25240   8.669   3.646   2.443  1.4378 -0.4391 -0.3125
  192MOL0     C25241   8.574   3.737   2.373  0.2453  0.4495  1.1121
  192MOL0     O25242   8.493   3.683   2.286 -0.1933 -0.1114  0.6144
  192MOL0     C25243   8.374   3.744   2.260 -0.1642  0.3891 -0.3873
  192MOL0     C25244   8.253   3.704   2.329 -0.2598  0.2340 -0.4156
  192MOL0     C25245   8.139   3.756   2.280  0.0863 -0.1314  0.5999
  192MOL0     C25246   8.133   3.829   2.165 -0.1812 -0.3256 -0.1452
  192MOL0     O25247   8.003   3.876   2.128 -0.8196  0.1530 -0.2605
  192MOL0     C25248   7.989   3.929   1.997 -1.1540 -0.1072 -0.7197
  192MOL0     C25249   8.000   3.820   1.890 -0.3804 -0.5657  0.0166
  192MOL0     C25250   7.913   3.702   1.934  0.1302  0.3190  0.1107
  192MOL0     C25251   7.890   3.609   1.821  0.3780  0.2090  1.2364
  192MOL0     C25252   7.762   3.516   1.826  0.6001 -0.7768 -0.2242
  192MOL0     C25253   7.746   3.446   1.958 -0.4518  0.5650  0.1726
  192MOL0     C25254   7.629   3.339   1.955  0.5215 -1.3933  0.3919
  192MOL0     C25255   7.626   3.220   2.064 -0.4350 -0.9115 -0.0526
  192MOL0    Cl25256   7.765   3.111   2.039 -0.3325  0.0429 -0.0473
  192MOL0     C25257   8.255   3.866   2.100  0.9709 -0.2119  0.3582
  192MOL0     C25258   8.375   3.823   2.150  0.4409  0.5384  0.8946
  192MOL0     O25259   8.575   3.855   2.399 -0.6219 -0.9674 -0.9277
  192MOL0     C25260   8.726   3.535   2.374  0.4746 -0.1935  0.8171
  192MOL0     C25261   8.806   3.435   2.435 -0.1728  0.4633 -0.3344
  192MOL0     N25262   9.467   3.216   2.827 -0.8402  1.1977  0.3450
  192MOL0     N25263   9.568   3.273   2.897  0.4210 -0.1279  0.3286
  192MOL0     C25264   9.956   3.323   4.052  0.0998  0.1130 -0.0822
  192MOL0     C25265   9.998   3.290   4.179 -1.6101 -0.2971  0.5543
  192MOL0     C25266  10.293   3.233   4.557  0.1905 -0.3054  0.2622
  192MOL0     C25267  10.406   3.194   4.631  0.2890 -0.0425 -0.4651
  192MOL0     C25268  10.412   3.181   4.768  0.0443 -0.3439 -0.4308
  192MOL0     C25269  10.300   3.234   4.839  0.0647  0.5108 -0.1210
  192MOL0     O25270  10.313   3.235   4.976 -0.6404  0.2628  0.9147
  192MOL0     C25271  10.284   3.360   5.039  0.0046 -1.0559 -0.6991
  192MOL0     C25272  10.336   3.366   5.186 -0.7031  0.2311 -0.5421
  192MOL0     C25273  10.478   3.325   5.205 -1.0870  0.6624  0.0578
  192MOL0     C25274  10.567   3.388   5.102 -0.1536 -0.0658 -0.2747
  192MOL0     C25275  10.701   3.390   5.167  0.3177  1.0072 -0.1714
  192MOL0     C25276  10.803   3.386   5.217  0.2140  0.0476  0.3562
  192MOL0     C25277  10.188   3.272   4.769 -0.0489 -0.3651 -0.1227
  192MOL0     C25278  10.179   3.267   4.628 -0.6317 -0.2714 -0.2242
  192MOL0     H25279  10.334   3.355   4.172  0.8135 -1.6806  0.5119
  192MOL0     H25280  10.275   3.414   3.947  1.8391 -0.8487  1.8201
  192MOL0     H25281   9.816   3.435   3.821  0.9095 -0.2139 -0.0259
  192MOL0     H25282   9.878   3.272   3.787  1.5733 -0.9130  5.2414
  192MOL0     H25283   9.975   3.392   3.574  3.9536  1.6238  3.6589
  192MOL0     H25284   9.924   3.542   3.649  0.3504 -0.1952  0.9948
  192MOL0     H25285   9.690   3.504   3.611 -0.1296 -0.7441  1.3972
  192MOL0     H25286   9.719   3.330   3.603 -0.7399 -0.1058 -2.5914
  192MOL0     H25287   9.744   3.553   3.389 -4.2591  0.6042 -0.0351
  192MOL0     H25288   9.814   3.397   3.363  1.7143  2.3820 -0.3413
  192MOL0     H25289   9.504   3.423   3.417 -0.8774 -2.5502  0.8683
  192MOL0     H25290   9.589   3.280   3.401 -1.7144 -0.1598  0.5871
  192MOL0     H25291   9.505   3.327   3.183 -1.0329  0.7403 -1.0855
  192MOL0     H25292   9.675   3.320   3.173 -0.8914  0.1059  0.1507
  192MOL0     H25293   9.471   3.539   3.133  0.7908  0.7541 -0.0404
  192MOL0     H25294   9.625   3.593   3.186 -0.2737 -0.2537 -0.2743
  192MOL0     H25295   9.736   3.453   2.996  0.2524  0.4581 -4.4352
  192MOL0     H25296   9.650   3.586   2.944  3.2989  0.5717  1.3857
  192MOL0     H25297   9.356   3.517   2.855  0.7770 -0.0373  0.2271
  192MOL0     H25298   9.176   3.273   2.798 -0.3532  0.8922 -0.8908
  192MOL0     H25299   9.258   3.160   2.681 -3.6413 -1.9935 -0.4143
  192MOL0     H25300   9.291   3.368   2.531  1.1972 -4.6524  0.9086
  192MOL0     H25301   9.187   3.455   2.656 -1.0126 -0.7276  4.0238
  192MOL0     H25302   9.077   3.366   2.449  2.4247  2.8125  2.0486
  192MOL0     H25303   9.144   3.203   2.475  0.0573  0.0200 -0.7693
  192MOL0     H25304   8.978   3.188   2.683  1.7016  1.6855  0.5874
  192MOL0     H25305   8.882   3.210   2.540  0.1909 -0.1033 -0.2869
  192MOL0     H25306   8.773   3.555   2.756  2.0953 -0.7951 -0.2691
  192MOL0     H25307   8.647   3.736   2.641 -1.1143 -1.7700  1.5560
  192MOL0     H25308   8.273   3.637   2.413  2.1212 -0.0362 -1.1290
  192MOL0     H25309   8.044   3.741   2.331 -0.0645  4.0645  1.9427
  192MOL0     H25310   8.060   4.012   1.985 -0.2775 -0.9914 -1.9692
  192MOL0     H25311   7.885   3.961   1.985 -0.8765  0.9027 -0.5584
  192MOL0     H25312   8.102   3.782   1.879  0.2228 -0.0240  2.9632
  192MOL0     H25313   7.964   3.854   1.792 -0.5457  1.5809  0.7748
  192MOL0     H25314   7.815   3.749   1.944  0.1192  0.6281 -1.2408
  192MOL0     H25315   7.946   3.648   2.022  2.2395  0.7146 -0.3806
  192MOL0     H25316   7.877   3.657   1.723 -4.6618 -1.0327  1.0404
  192MOL0     H25317   7.979   3.544   1.829  1.0118  1.0053  0.7949
  192MOL0     H25318   7.778   3.451   1.740 -0.5665  0.3024 -1.2879
  192MOL0     H25319   7.672   3.577   1.813  1.8772  1.3159  0.2204
  192MOL0     H25320   7.744   3.513   2.044  0.1117 -1.4503  1.8364
  192MOL0     H25321   7.843   3.397   1.967  0.4609  2.5207  1.6522
  192MOL0     H25322   7.537   3.388   1.989  2.6381 -0.6436  6.2070
  192MOL0     H25323   7.628   3.288   1.859 -1.3547 -0.1009 -0.3287
  192MOL0     H25324   7.533   3.170   2.039 -1.0814  0.8427 -1.4142
  192MOL0     H25325   7.629   3.266   2.163  3.0289  2.0133 -1.2540
  192MOL0     H25326   8.263   3.921   2.007  2.3379 -0.0839  0.5339
  192MOL0     H25327   8.464   3.848   2.093 -0.3789  2.4525  0.3775
  192MOL0     H25328   8.713   3.516   2.267 -0.0095 -2.0978  1.1695
  192MOL0     H25329   8.852   3.355   2.378  0.0440  0.7217 -0.5224
  192MOL0     H25330   9.850   3.326   4.027 -0.1026  1.1027  0.8009
  192MOL0     H25331   9.921   3.247   4.242  0.0774 -1.7719  1.7052
  192MOL0     H25332  10.493   3.178   4.569 -0.8374 -1.1575 -1.8090
  192MOL0     H25333  10.504   3.151   4.816 -0.9914 -0.3294  1.6878
  192MOL0     H25334  10.175   3.375   5.041  0.0594 -0.0223  3.6797
  192MOL0     H25335  10.329   3.446   4.989 -1.8482  0.2878 -0.1711
  192MOL0     H25336  10.328   3.471   5.217  2.0638 -0.2870  2.4926
  192MOL0     H25337  10.268   3.312   5.253 -1.2657  0.6134 -0.7927
  192MOL0     H25338  10.483   3.217   5.186 -1.9763  0.8079 -1.1336
  192MOL0     H25339  10.496   3.362   5.306 -0.7225 -2.4046  1.2168
  192MOL0     H25340  10.578   3.341   5.004  3.1860  3.9815 -2.1692
  192MOL0     H25341  10.544   3.495   5.091  1.3057  0.7044  2.9982
  192MOL0     H25342  10.893   3.378   5.274  1.1060 -1.1765 -1.1514
  192MOL0     H25343  10.109   3.313   4.831  2.4471  1.3622  2.0730
  192MOL0     H25344  10.084   3.275   4.577 -1.4035 -1.0224  1.0291
  193MOL0     O25345   3.449   4.152   8.187  0.0516 -0.5561  0.5456
  193MOL0     C25346   3.439   4.280   8.191 -1.2664 -0.1380 -0.7479
  193MOL0     O25347   3.355   4.355   8.126  0.0736  0.5399  0.0024
  193MOL0     C25348   3.290   4.297   8.017 -0.1448  0.9812  0.6010
  193MOL0     C25349   3.150   4.346   7.994  0.6193  0.1089 -0.0864
  193MOL0     C25350   3.080   4.306   7.880  0.0308  0.2420 -0.4310
  193MOL0     C25351   3.143   4.230   7.784 -0.0309  0.1170 -0.4626
  193MOL0     O25352   3.061   4.215   7.677 -1.3228  0.0632  0.6731
  193MOL0     C25353   2.997   4.082   7.675  0.2983 -0.0232  0.0250
  193MOL0     C25354   2.915   4.073   7.547 -0.7283  0.0088  0.1710
  193MOL0     C25355   2.796   4.178   7.541 -0.0153 -0.2659  0.0810
  193MOL0     C25356   2.669   4.149   7.625  0.5476  0.2307  0.2382
  193MOL0     C25357   2.585   4.057   7.531  2.0882 -0.9343 -1.3522
  193MOL0     C25358   2.445   4.077   7.587  0.1211 -0.0136  0.4802
  193MOL0     C25359   2.334   4.026   7.496 -1.3839  0.0065  0.0176
  193MOL0     C25360   2.370   3.886   7.441  0.1210  0.2480  0.3885
  193MOL0     N25361   2.265   3.809   7.369  0.6847 -0.0231 -0.1483
  193MOL0     C25362   2.216   3.682   7.400 -0.2235 -0.4301 -0.1577
  193MOL0     C25363   2.140   3.638   7.300  0.6033  0.0150 -0.1951
  193MOL0     C25364   2.071   3.502   7.287 -0.0396 -0.6105  0.1299
  193MOL0     C25365   2.067   3.456   7.144  0.0297  0.6661 -0.0138
  193MOL0     C25366   2.019   3.307   7.124 -0.3700 -0.8138 -0.3559
  193MOL0     C25367   1.874   3.294   7.143  0.7270  0.0752  0.0259
  193MOL0     O25368   1.838   3.151   7.149 -0.0911 -0.4192 -0.3747
  193MOL0     C25369   1.727   3.097   7.102  0.4298  0.3960 -0.0290
  193MOL0     C25370   1.639   3.160   7.013 -0.0060  0.7426  0.5616
  193MOL0     C25371   1.519   3.093   6.984  0.9344  1.1958  0.1788
  193MOL0     C25372   1.482   2.960   7.028 -0.3863  0.4435 -0.3043
  193MOL0     C25373   1.366   2.888   6.992  0.8535 -0.1166  0.2875
  193MOL0     O25374   1.347   2.765   7.048  0.1461 -1.1513 -0.7716
  193MOL0     C25375   1.222   2.707   7.027  0.0924 -0.0197 -0.1019
  193MOL0     C25376   1.128   2.726   7.130 -0.3982 -0.0725 -0.4126
  193MOL0     C25377   1.001   2.672   7.121 -1.1396  0.1509 -0.5547
  193MOL0     C25378   0.962   2.597   7.004 -0.2197  0.2232 -0.0179
  193MOL0     O25379   0.838   2.544   6.998 -0.7450 -0.0894 -0.4638
  193MOL0     C25380   0.779   2.557   6.867  0.3830 -0.7021  0.3051
  193MOL0     C25381   0.656   2.466   6.861  0.2831  0.0146 -0.2838
  193MOL0     C25382   0.526   2.534   6.823  0.2484 -0.2250  0.8352
  193MOL0     C25383   0.512   2.600   6.684 -0.6248  0.2331 -0.4992
  193MOL0     C25384   0.383   2.673   6.640 -0.4276 -0.9078 -0.6949
  193MOL0     C25385   0.389   2.769   6.529 -0.1117  0.3705  0.8474
  193MOL0     C25386   0.438   2.695   6.410  0.5226 -0.5203  0.4019
  193MOL0     C25387   0.337   2.591   6.367 -0.3734 -0.1632 -0.4731
  193MOL0    Cl25388   0.174   2.665   6.314  0.4097 -0.3048  0.4340
  193MOL0     C25389   1.062   2.567   6.912 -0.0447  1.0220  0.5082
  193MOL0     C25390   1.189   2.620   6.919  0.0464 -0.3982 -0.2289
  193MOL0     O25391   1.287   2.937   6.911 -0.8017 -0.5146 -0.6501
  193MOL0     C25392   1.584   2.904   7.109  0.1142  0.1559 -0.3499
  193MOL0     C25393   1.701   2.968   7.147 -0.3876 -0.7350 -0.6868
  193MOL0     N25394   2.138   3.748   7.213 -0.3717  0.2989  0.1783
  193MOL0     N25395   2.206   3.849   7.255 -0.4822  0.8086 -0.3270
  193MOL0     C25396   3.275   4.188   7.798  0.0625 -0.8371 -0.5787
  193MOL0     C25397   3.349   4.223   7.917  0.0534 -1.0378 -1.0399
  193MOL0     C25398   3.537   4.354   8.284  0.0890  0.9942 -0.0836
  193MOL0     C25399   3.546   4.499   8.293 -1.1059 -1.2372  1.0496
  193MOL0     C25400   3.630   4.557   8.388 -1.0913 -0.2548 -0.1890
  193MOL0     C25401   3.697   4.468   8.479 -0.4167 -0.2736 -0.2526
  193MOL0     O25402   3.770   4.507   8.581 -0.4019  0.4462 -0.4263
  193MOL0     C25403   3.900   4.543   8.549 -1.5616 -1.0736 -1.0930
  193MOL0     C25404   3.960   4.465   8.433 -1.0712  0.5541  1.6842
  193MOL0     C25405   4.095   4.514   8.381 -0.0251 -1.0581 -0.0035
  193MOL0     C25406   4.082   4.629   8.272  0.0906  0.5732  0.1489
  193MOL0     C25407   4.096   4.759   8.326  0.0391  0.1351 -0.2065
  193MOL0     C25408   4.097   4.872   8.377 -0.1796 -0.3698  0.1628
  193MOL0     C25409   3.673   4.330   8.477 -1.1806  0.5547  0.1042
  193MOL0     C25410   3.593   4.276   8.385  0.4325  0.9634  0.4855
  193MOL0     H25411   3.116   4.419   8.067 -1.7878  0.2357 -1.2326
  193MOL0     H25412   2.979   4.341   7.865 -0.7992 -2.0432 -0.5825
  193MOL0     H25413   2.936   4.050   7.760 -1.7189 -0.1940 -1.4340
  193MOL0     H25414   3.088   4.020   7.676 -0.0582 -0.5549  0.7796
  193MOL0     H25415   2.871   3.973   7.541  0.8920 -0.6910 -0.8534
  193MOL0     H25416   2.978   4.093   7.460 -1.1768  0.3898 -0.0732
  193MOL0     H25417   2.769   4.185   7.436  1.4866 -1.7443 -0.4347
  193MOL0     H25418   2.837   4.275   7.573 -3.7734  2.5574 -2.6792
  193MOL0     H25419   2.699   4.101   7.718 -0.0844  0.3659  0.5139
  193MOL0     H25420   2.627   4.247   7.648  0.6747  0.5181 -0.7021
  193MOL0     H25421   2.621   3.954   7.545  2.8687 -0.3661  1.2715
  193MOL0     H25422   2.575   4.087   7.426 -0.5639  2.0265 -0.4036
  193MOL0     H25423   2.429   4.185   7.598 -3.6693 -0.5175  1.3159
  193MOL0     H25424   2.435   4.024   7.682  1.2309 -0.0979  0.5613
  193MOL0     H25425   2.236   4.025   7.544 -2.2483 -2.4576 -1.6220
  193MOL0     H25426   2.321   4.097   7.414 -0.3660 -0.8005 -0.8661
  193MOL0     H25427   2.402   3.825   7.526 -0.8802 -0.3295  0.3742
  193MOL0     H25428   2.460   3.896   7.381 -0.1174 -1.7347 -0.3887
  193MOL0     H25429   2.243   3.621   7.485  2.4347  1.1249  0.2488
  193MOL0     H25430   1.969   3.506   7.327 -0.9915 -0.6480 -2.1639
  193MOL0     H25431   2.134   3.439   7.351  1.2016  0.6126  0.1710
  193MOL0     H25432   2.166   3.479   7.104  0.2483  0.8989  0.6419
  193MOL0     H25433   1.993   3.518   7.092  0.2948  2.8425  1.9810
  193MOL0     H25434   2.037   3.283   7.018  3.1496  1.5724 -0.4715
  193MOL0     H25435   2.075   3.245   7.195 -0.6539  0.7576  1.3131
  193MOL0     H25436   1.827   3.343   7.058 -0.0401  1.4474  1.1851
  193MOL0     H25437   1.829   3.344   7.230 -0.7260 -0.9393 -0.1045
  193MOL0     H25438   1.642   3.258   6.966  0.3161  0.1140 -0.7669
  193MOL0     H25439   1.450   3.141   6.915  0.7339  0.7780  0.0838
  193MOL0     H25440   1.152   2.786   7.217  1.2917 -1.5235  0.2054
  193MOL0     H25441   0.936   2.684   7.207 -0.6150  1.3263 -0.2888
  193MOL0     H25442   0.837   2.547   6.776 -3.1492 -0.0282 -2.2424
  193MOL0     H25443   0.754   2.663   6.858  0.0231 -0.7457  0.7163
  193MOL0     H25444   0.635   2.418   6.957 -0.1990 -2.1229 -1.4166
  193MOL0     H25445   0.687   2.393   6.786  1.5244  2.8980 -2.7922
  193MOL0     H25446   0.516   2.611   6.899  5.1772  0.6772  0.8802
  193MOL0     H25447   0.438   2.470   6.834 -0.6192  0.6746 -0.5155
  193MOL0     H25448   0.594   2.671   6.684  2.5142 -3.0953 -0.3249
  193MOL0     H25449   0.543   2.525   6.610  4.3938  0.4013  1.1045
  193MOL0     H25450   0.346   2.731   6.725  0.3022  0.6698 -1.4254
  193MOL0     H25451   0.307   2.596   6.623  2.4655 -4.0525 -0.7007
  193MOL0     H25452   0.454   2.851   6.559  1.8203  0.0095 -2.0118
  193MOL0     H25453   0.291   2.807   6.498  0.4455 -0.3838 -2.1052
  193MOL0     H25454   0.442   2.760   6.322 -4.7110  1.5762  1.3959
  193MOL0     H25455   0.540   2.657   6.426  1.3485  2.8179  5.1484
  193MOL0     H25456   0.314   2.518   6.445 -1.2862  1.3810  0.7572
  193MOL0     H25457   0.376   2.537   6.281  1.8847 -0.0199  0.3851
  193MOL0     H25458   1.043   2.496   6.832  2.1954  0.9122 -0.0064
  193MOL0     H25459   1.273   2.606   6.850  1.0242 -1.0652  1.0486
  193MOL0     H25460   1.587   2.797   7.128  0.4198  0.0529 -0.9519
  193MOL0     H25461   1.771   2.911   7.206 -0.6080 -3.1145 -2.5579
  193MOL0     H25462   3.336   4.154   7.715  0.6136 -0.2695 -0.4089
  193MOL0     H25463   3.451   4.188   7.931  2.3500  4.9935  0.8381
  193MOL0     H25464   3.484   4.553   8.222 -2.3963 -2.9028  0.8624
  193MOL0     H25465   3.632   4.664   8.407 -1.0378 -0.3676  0.4687
  193MOL0     H25466   3.959   4.534   8.640 -0.9755  1.2354 -1.1732
  193MOL0     H25467   3.900   4.650   8.526  1.0700 -0.8107 -0.2037
  193MOL0     H25468   3.970   4.359   8.459  0.8216  1.1387  3.6846
  193MOL0     H25469   3.889   4.467   8.350 -1.2584 -3.3767  1.5409
  193MOL0     H25470   4.161   4.438   8.338  1.0970 -0.2004  0.1636
  193MOL0     H25471   4.148   4.547   8.471  1.5527 -2.1527 -0.4724
  193MOL0     H25472   4.171   4.615   8.210  0.3942  0.0126  0.6994
  193MOL0     H25473   3.986   4.627   8.218  0.6822 -3.0401 -1.0080
  193MOL0     H25474   4.095   4.979   8.390  2.8900 -0.1932 -0.1061
  193MOL0     H25475   3.713   4.265   8.554  0.8253  1.9289  0.2795
  193MOL0     H25476   3.583   4.168   8.381 -0.1597  1.0279  0.1834
  194MOL0     O25477   5.751  10.041   1.372  0.1648 -0.8596 -0.0215
  194MOL0     C25478   5.741  10.048   1.497  0.5727 -0.0842  0.0282
  194MOL0     O25479   5.634  10.088   1.568 -0.9769 -0.3327  0.0914
  194MOL0     C25480   5.516  10.122   1.509 -0.8266 -1.0363  0.2884
  194MOL0     C25481   5.503  10.251   1.461  0.2600 -0.2922  0.5392
  194MOL0     C25482   5.379  10.291   1.418  0.0141 -0.0909 -0.0936
  194MOL0     C25483   5.272  10.204   1.423  0.8558 -0.0528  1.2237
  194MOL0     O25484   5.144  10.229   1.363  0.2667 -0.3829 -0.1521
  194MOL0     C25485   5.161  10.253   1.221  0.0177 -1.1176  0.2917
  194MOL0     C25486   5.024  10.318   1.179  0.5119 -0.3305  0.7852
  194MOL0     C25487   4.939  10.216   1.109  0.3356  0.0803 -0.1654
  194MOL0     C25488   4.813  10.271   1.042  0.1356 -0.5221  1.2752
  194MOL0     C25489   4.714  10.167   0.998  1.4074  0.7200  0.4727
  194MOL0     C25490   4.760  10.062   0.898 -0.1297  0.5361  0.1468
  194MOL0     C25491   4.754  10.101   0.749 -0.3151 -0.4666  0.0626
  194MOL0     C25492   4.850  10.017   0.664 -0.1940  0.0431  0.0722
  194MOL0     N25493   4.994  10.053   0.688 -0.0724  0.3123  0.5640
  194MOL0     C25494   5.055  10.176   0.693  0.1855  0.0823 -0.0682
  194MOL0     C25495   5.179  10.135   0.727 -1.0495 -0.0074 -0.0758
  194MOL0     C25496   5.277  10.246   0.758 -0.0811 -0.2595 -0.1400
  194MOL0     C25497   5.412  10.205   0.814  0.5829 -0.5807 -0.8749
  194MOL0     C25498   5.500  10.151   0.703  0.8580  0.3328  1.0530
  194MOL0     C25499   5.646  10.146   0.732  0.3867 -0.9014 -0.2383
  194MOL0     O25500   5.676  10.119   0.867  0.5645 -0.0611 -0.2691
  194MOL0     C25501   5.808  10.093   0.909 -0.2493 -0.6517  0.5272
  194MOL0     C25502   5.922  10.098   0.826 -0.7743  0.1911  0.8104
  194MOL0     C25503   6.040  10.072   0.886 -0.2167 -0.3179 -1.0005
  194MOL0     C25504   6.058  10.034   1.022  0.5284  0.1972  1.1324
  194MOL0     C25505   6.192  10.019   1.073  0.1230 -0.0607  0.2656
  194MOL0     O25506   6.303  10.047   0.999  0.3374 -0.0161 -0.0430
  194MOL0     C25507   6.428  10.018   1.056  1.3479  0.3045  0.1081
  194MOL0     C25508   6.469   9.894   1.111  0.1492 -0.3542 -0.3802
  194MOL0     C25509   6.592   9.888   1.177  0.5975 -0.8878 -0.7435
  194MOL0     C25510   6.689   9.989   1.172 -0.9162  0.3850  0.8495
  194MOL0     O25511   6.823   9.964   1.204 -0.4324  0.3991 -0.0795
  194MOL0     C25512   6.875   9.837   1.253 -0.1703  0.8346  0.0583
  194MOL0     C25513   6.919   9.731   1.141 -0.8981 -0.6732 -0.6675
  194MOL0     C25514   6.983   9.605   1.209 -0.4358  0.4836 -0.7019
  194MOL0     C25515   6.879   9.516   1.283 -0.3006  0.0244 -0.5914
  194MOL0     C25516   6.764   9.475   1.183  0.9822  0.2845 -0.7236
  194MOL0     C25517   6.695   9.341   1.242 -0.7003 -0.0066 -1.1965
  194MOL0     C25518   6.612   9.282   1.129  0.2669  0.3121 -0.3033
  194MOL0     C25519   6.493   9.209   1.192 -0.0062  0.4924 -0.2811
  194MOL0    Cl25520   6.413   9.128   1.060 -0.1968  0.1419  0.2119
  194MOL0     C25521   6.662  10.112   1.099  0.3402 -0.0047 -1.0231
  194MOL0     C25522   6.526  10.117   1.038 -0.0584 -0.5254 -0.3378
  194MOL0     O25523   6.198   9.990   1.197  0.3275  1.4159  0.6443
  194MOL0     C25524   5.937  10.011   1.089 -0.6683 -0.3239 -0.5383
  194MOL0     C25525   5.816  10.047   1.040  0.0660  0.1114 -0.1860
  194MOL0     N25526   5.195   9.996   0.730 -0.4614 -0.2432  0.0782
  194MOL0     N25527   5.080   9.946   0.701 -0.1874 -0.5552  0.2387
  194MOL0     C25528   5.280  10.074   1.477  0.4900 -0.0311  0.1822
  194MOL0     C25529   5.407  10.031   1.516 -0.1477 -0.4978  0.3251
  194MOL0     C25530   5.853   9.992   1.572 -2.1012  0.1335  0.3338
  194MOL0     C25531   5.958   9.914   1.513  0.0859  0.6127 -0.1949
  194MOL0     C25532   6.069   9.852   1.580  0.2245  0.6279  0.0437
  194MOL0     C25533   6.078   9.860   1.720 -0.5281 -0.7716  0.2187
  194MOL0     O25534   6.182   9.786   1.773  0.0949 -0.1916  0.6177
  194MOL0     C25535   6.222   9.804   1.909 -0.5480  0.6150 -0.3827
  194MOL0     C25536   6.309   9.691   1.968 -0.0934 -0.2516  0.0901
  194MOL0     C25537   6.455   9.735   1.988 -0.3855 -0.0507  0.3750
  194MOL0     C25538   6.469   9.837   2.101  0.9899  0.0525 -0.2556
  194MOL0     C25539   6.590   9.916   2.094 -0.6973  1.0860 -1.0252
  194MOL0     C25540   6.684   9.989   2.083  0.1977  0.2228  0.1022
  194MOL0     C25541   5.984   9.949   1.783  0.6108  0.3789 -0.2337
  194MOL0     C25542   5.867  10.005   1.711 -0.6534 -0.3344 -0.5634
  194MOL0     H25543   5.583  10.324   1.468  0.2492 -0.3018  0.7678
  194MOL0     H25544   5.379  10.393   1.381  0.1864 -0.3095 -0.6973
  194MOL0     H25545   5.178  10.158   1.170 -0.3697 -2.1948  2.0921
  194MOL0     H25546   5.238  10.328   1.198 -1.3906  0.1834 -0.3262
  194MOL0     H25547   5.045  10.403   1.113  0.7361 -0.5469  0.5755
  194MOL0     H25548   4.971  10.353   1.268  1.6302 -2.1395  2.2343
  194MOL0     H25549   4.909  10.145   1.187  0.8831  1.3068  1.1981
  194MOL0     H25550   4.995  10.167   1.029 -1.4196 -1.9955 -0.2472
  194MOL0     H25551   4.769  10.355   1.097  1.2171 -0.3828  1.9645
  194MOL0     H25552   4.853  10.312   0.949  3.8029  1.4773  3.5055
  194MOL0     H25553   4.625  10.217   0.957 -0.8233 -1.5870  2.1444
  194MOL0     H25554   4.667  10.129   1.089 -1.1503 -1.1722 -1.4767
  194MOL0     H25555   4.697   9.974   0.913  0.7075 -0.2379 -0.7578
  194MOL0     H25556   4.862  10.029   0.917 -0.2812 -1.6881 -2.3998
  194MOL0     H25557   4.650  10.093   0.715 -0.3510  0.4105 -0.0535
  194MOL0     H25558   4.784  10.206   0.742  1.5892 -0.9682  0.2110
  194MOL0     H25559   4.819  10.031   0.560 -0.4057 -1.9538 -0.1701
  194MOL0     H25560   4.829   9.911   0.680 -5.2925  0.3816 -2.3146
  194MOL0     H25561   5.017  10.278   0.699 -1.5670 -0.4382 -1.4037
  194MOL0     H25562   5.226  10.303   0.837 -0.9451  0.0109 -0.8741
  194MOL0     H25563   5.286  10.315   0.675  1.0554 -2.0708 -1.6025
  194MOL0     H25564   5.397  10.133   0.895 -1.5747  1.5917  0.8569
  194MOL0     H25565   5.453  10.295   0.861  0.7444 -0.9954 -0.2126
  194MOL0     H25566   5.458  10.051   0.686 -0.7046  1.1211 -0.0329
  194MOL0     H25567   5.487  10.208   0.610 -4.1615 -2.4183 -0.3694
  194MOL0     H25568   5.680  10.247   0.705  1.0020 -1.3620 -1.2391
  194MOL0     H25569   5.704  10.076   0.671 -0.7456 -3.4971  1.5137
  194MOL0     H25570   5.908  10.123   0.722  0.0152  0.3834  0.7417
  194MOL0     H25571   6.128  10.100   0.828  1.5048  1.4050  2.1738
  194MOL0     H25572   6.406   9.806   1.108  1.4342 -1.4806  2.3042
  194MOL0     H25573   6.611   9.788   1.215  0.4183 -0.6848 -0.1058
  194MOL0     H25574   6.809   9.786   1.323  0.9129 -1.3180 -0.4066
  194MOL0     H25575   6.967   9.857   1.309  2.3627  1.3097 -3.8214
  194MOL0     H25576   7.007   9.764   1.085  0.2566  0.0627  1.4754
  194MOL0     H25577   6.831   9.704   1.082 -2.2038 -2.4418  1.8948
  194MOL0     H25578   7.058   9.628   1.285  2.0236 -3.4954 -1.6309
  194MOL0     H25579   7.029   9.532   1.143 -2.3784 -0.0953 -1.4816
  194MOL0     H25580   6.929   9.432   1.333 -1.7605 -0.7182 -0.3121
  194MOL0     H25581   6.838   9.581   1.361 -2.0216 -1.3254 -0.3142
  194MOL0     H25582   6.802   9.461   1.082 -0.4057 -0.3234 -1.1855
  194MOL0     H25583   6.682   9.546   1.172  1.4039  1.5558  2.9115
  194MOL0     H25584   6.633   9.362   1.329  3.6499  0.0208  2.1950
  194MOL0     H25585   6.776   9.279   1.280  0.9604  2.2465 -0.8631
  194MOL0     H25586   6.579   9.362   1.061  1.5776  2.2715  1.2260
  194MOL0     H25587   6.669   9.208   1.074 -0.5778  0.8669 -2.0141
  194MOL0     H25588   6.423   9.269   1.249 -1.1161 -1.8452  0.9716
  194MOL0     H25589   6.511   9.124   1.259 -2.9106  0.3509  0.4466
  194MOL0     H25590   6.737  10.189   1.091  0.4661  0.0762  0.6000
  194MOL0     H25591   6.508  10.199   0.970 -4.3403  1.1963  2.4280
  194MOL0     H25592   5.936   9.970   1.190  0.9646  1.8703  0.4704
  194MOL0     H25593   5.722  10.032   1.093 -0.5522 -1.2612 -1.5992
  194MOL0     H25594   5.193  10.010   1.487  0.7103 -0.0670  2.6878
  194MOL0     H25595   5.422   9.933   1.561 -0.7080 -0.9222 -0.3846
  194MOL0     H25596   5.958   9.897   1.406 -4.2122 -1.9569 -0.0251
  194MOL0     H25597   6.155   9.803   1.535  3.2277  1.4333  4.2269
  194MOL0     H25598   6.127   9.811   1.963  0.5186  0.2359  1.6338
  194MOL0     H25599   6.270   9.903   1.912  0.7125  0.0012  1.3360
  194MOL0     H25600   6.258   9.654   2.057 -1.3085 -2.2659 -1.3461
  194MOL0     H25601   6.320   9.602   1.905 -2.3232 -1.1949  0.9511
  194MOL0     H25602   6.492   9.777   1.894 -1.5470  3.0146  1.1707
  194MOL0     H25603   6.513   9.645   2.009 -0.9617 -1.1733 -2.3788
  194MOL0     H25604   6.381   9.902   2.096  0.7915 -0.0412  1.4655
  194MOL0     H25605   6.454   9.789   2.198  0.1527 -3.8410 -2.1371
  194MOL0     H25606   6.775  10.046   2.079  0.3771 -0.0881 -0.4095
  194MOL0     H25607   5.973   9.981   1.887 -0.1612 -0.3160 -0.0914
  194MOL0     H25608   5.814  10.085   1.761  2.2197  1.6316 -0.3862
  195MOL0     O25609   7.988   4.920   9.856  0.5624  0.4034  0.1261
  195MOL0     C25610   7.978   4.799   9.835  0.7406 -0.9548 -0.4485
  195MOL0     O25611   8.071   4.726   9.775 -0.5804  0.3882  0.5037
  195MOL0     C25612   8.210   4.751   9.793 -0.2864  0.0446  0.6718
  195MOL0     C25613   8.266   4.806   9.909 -0.6946  0.3865  0.9505
  195MOL0     C25614   8.406   4.812   9.928  0.2646 -0.5731  0.2943
  195MOL0     C25615   8.499   4.772   9.835  0.2576 -0.1592  0.3775
  195MOL0     O25616   8.629   4.797   9.851 -0.1843 -0.2133 -0.0131
  195MOL0     C25617   8.728   4.766   9.757 -0.0902  0.0154 -0.5771
  195MOL0     C25618   8.864   4.811   9.822 -0.2683  0.7106  0.0152
  195MOL0     C25619   8.953   4.864   9.710  0.2393 -0.3050  0.0583
  195MOL0     C25620   8.985   4.768   9.596 -0.1218  0.9637 -0.1483
  195MOL0     C25621   9.135   4.744   9.568  0.4216 -0.3117 -0.9271
  195MOL0     C25622   9.174   4.657   9.449 -0.8255 -0.1247  1.4003
  195MOL0     C25623   9.147   4.512   9.472 -0.4541 -0.2968  0.0251
  195MOL0     C25624   9.260   4.419   9.415  0.0204  0.7256  0.0836
  195MOL0     N25625   9.272   4.419   9.271 -0.5688 -0.0105  0.9157
  195MOL0     C25626   9.160   4.417   9.191  0.3682  0.5418  0.5600
  195MOL0     C25627   9.181   4.493   9.087  0.4196  0.3197 -0.1499
  195MOL0     C25628   9.082   4.547   8.988  0.7256  0.5030 -0.7423
  195MOL0     C25629   8.947   4.574   9.059 -0.9892  0.7813  0.4999
  195MOL0     C25630   8.865   4.650   8.960 -0.3507 -0.2283  0.6149
  195MOL0     C25631   8.902   4.790   8.945  0.2021 -0.0369 -0.1563
  195MOL0     O25632   8.799   4.860   8.869  0.4038 -0.0884 -0.0308
  195MOL0     C25633   8.782   4.994   8.897  0.5468 -0.3375  1.1058
  195MOL0     C25634   8.663   5.051   8.847 -0.1625  0.4705 -0.1709
  195MOL0     C25635   8.633   5.182   8.885 -0.1397  0.1690  0.7081
  195MOL0     C25636   8.721   5.262   8.966  0.4303  0.7038  0.3230
  195MOL0     C25637   8.676   5.403   8.979 -0.7383  0.7789 -0.4828
  195MOL0     O25638   8.551   5.439   8.943  0.1145 -0.0698 -0.2170
  195MOL0     C25639   8.508   5.562   8.973  1.2233 -1.4114  0.8516
  195MOL0     C25640   8.526   5.637   9.088 -0.2427  0.4736  1.0788
  195MOL0     C25641   8.466   5.754   9.115  0.7866 -0.2019  0.3799
  195MOL0     C25642   8.389   5.811   9.017  0.2332  0.2953 -0.4839
  195MOL0     O25643   8.347   5.940   9.048  0.0437  0.2508  0.0591
  195MOL0     C25644   8.360   6.034   8.937  0.2363 -0.2891  0.5961
  195MOL0     C25645   8.396   6.174   8.999  0.5035  0.8647  0.6519
  195MOL0     C25646   8.395   6.285   8.900  0.1702  0.4408 -0.0224
  195MOL0     C25647   8.445   6.415   8.959  1.1313  0.1014  0.0024
  195MOL0     C25648   8.392   6.544   8.885  0.3865  0.7798  0.8839
  195MOL0     C25649   8.439   6.559   8.738 -0.0050 -1.3369 -1.4441
  195MOL0     C25650   8.592   6.572   8.705 -0.2499 -0.3952 -0.1380
  195MOL0     C25651   8.671   6.680   8.762 -0.2875 -0.2999 -0.3446
  195MOL0    Cl25652   8.600   6.836   8.759  0.2943 -0.1676 -0.1278
  195MOL0     C25653   8.360   5.746   8.895 -0.6432 -0.0120  0.4276
  195MOL0     C25654   8.413   5.621   8.875 -0.1649 -0.4146 -0.2313
  195MOL0     O25655   8.762   5.472   9.030 -0.0946  0.0585  0.0795
  195MOL0     C25656   8.834   5.204   9.017 -1.0765 -0.9128  0.0807
  195MOL0     C25657   8.862   5.068   8.976  0.2600 -0.3424 -0.4360
  195MOL0     N25658   9.312   4.536   9.093  1.0368  0.0764 -0.2183
  195MOL0     N25659   9.366   4.485   9.198 -0.1138  0.2820  0.4928
  195MOL0     C25660   8.445   4.711   9.720 -0.0364  0.5468 -0.0539
  195MOL0     C25661   8.302   4.699   9.699  0.2847 -0.0948 -0.0654
  195MOL0     C25662   7.848   4.735   9.849 -0.1608 -0.1488  0.1971
  195MOL0     C25663   7.736   4.814   9.877 -0.6082  0.4346 -0.2013
  195MOL0     C25664   7.611   4.750   9.903  0.3311 -0.1255  0.7604
  195MOL0     C25665   7.602   4.609   9.881  0.5478  0.0278  0.2738
  195MOL0     O25666   7.477   4.560   9.910  0.4625 -1.1011  0.7753
  195MOL0     C25667   7.456   4.421   9.908  0.7580  0.4735 -1.4722
  195MOL0     C25668   7.413   4.361   9.771  0.2608  0.6333 -0.5024
  195MOL0     C25669   7.435   4.209   9.761 -0.3527  0.2323 -0.1678
  195MOL0     C25670   7.567   4.167   9.717  0.4098  0.0198  0.4967
  195MOL0     C25671   7.567   4.026   9.738  0.0511 -0.4549 -0.1224
  195MOL0     C25672   7.586   3.911   9.756  0.3769  0.5240  0.5749
  195MOL0     C25673   7.716   4.535   9.845 -1.0686 -0.8617 -0.3322
  195MOL0     C25674   7.836   4.594   9.845 -0.0062  0.8070 -1.1518
  195MOL0     H25675   8.193   4.838   9.983 -1.3512  2.9302 -0.6711
  195MOL0     H25676   8.439   4.857  10.021 -1.9597 -0.4376  1.0803
  195MOL0     H25677   8.702   4.811   9.660  0.3892  2.5062  0.3843
  195MOL0     H25678   8.740   4.657   9.755  1.5721 -0.0306  3.2833
  195MOL0     H25679   8.914   4.730   9.875  0.8729  1.0238 -0.5366
  195MOL0     H25680   8.857   4.899   9.887  1.6575  0.6972  0.3116
  195MOL0     H25681   9.043   4.897   9.765 -1.7765  1.6043  2.4695
  195MOL0     H25682   8.916   4.959   9.671  1.4425 -0.4775 -1.6030
  195MOL0     H25683   8.949   4.665   9.606 -2.1159  1.7362  1.4497
  195MOL0     H25684   8.931   4.811   9.511  1.6115 -0.2887 -1.9821
  195MOL0     H25685   9.179   4.699   9.658 -2.6369 -1.8252 -0.0280
  195MOL0     H25686   9.184   4.839   9.547  2.0420 -0.5473  1.4207
  195MOL0     H25687   9.278   4.669   9.419 -0.9944  0.1086  0.9087
  195MOL0     H25688   9.107   4.686   9.368 -3.2123  0.4544  3.4400
  195MOL0     H25689   9.156   4.484   9.577  1.4011  1.1966  0.3197
  195MOL0     H25690   9.048   4.489   9.431 -0.2996  0.5775 -0.8977
  195MOL0     H25691   9.243   4.316   9.449  1.0065  0.5164 -0.0364
  195MOL0     H25692   9.352   4.444   9.468 -1.4198  0.3998  2.9248
  195MOL0     H25693   9.067   4.364   9.208 -0.3426  0.7099 -2.3898
  195MOL0     H25694   9.065   4.479   8.904  2.3989  0.1909 -0.8642
  195MOL0     H25695   9.132   4.633   8.944 -0.8237  0.9197 -1.7669
  195MOL0     H25696   8.948   4.624   9.157 -1.2645  1.6049  0.0961
  195MOL0     H25697   8.894   4.478   9.056 -1.4536  1.0508 -1.0207
  195MOL0     H25698   8.856   4.602   8.861  0.2774 -1.8227  1.2912
  195MOL0     H25699   8.766   4.656   9.005 -0.4575 -0.7211  0.4592
  195MOL0     H25700   9.000   4.804   8.898  0.1869  3.3471  0.5826
  195MOL0     H25701   8.915   4.840   9.042 -0.7467  2.4380 -1.2279
  195MOL0     H25702   8.602   4.993   8.778 -1.0688 -0.8120  1.6253
  195MOL0     H25703   8.546   5.230   8.841  0.4412  0.6589  0.0715
  195MOL0     H25704   8.599   5.599   9.159 -1.8392 -0.1282  2.4594
  195MOL0     H25705   8.476   5.808   9.209 -0.5859 -0.0986  0.4937
  195MOL0     H25706   8.270   6.047   8.877  0.6635 -0.3739 -0.0747
  195MOL0     H25707   8.442   6.005   8.871  2.3710  2.0789  2.0111
  195MOL0     H25708   8.502   6.160   9.025  1.3327  1.9415 -1.7924
  195MOL0     H25709   8.338   6.191   9.090 -2.0733  0.2463 -0.7805
  195MOL0     H25710   8.292   6.295   8.865 -0.2876 -0.3404  1.0621
  195MOL0     H25711   8.456   6.267   8.811 -2.1139  1.6233 -1.9646
  195MOL0     H25712   8.407   6.408   9.061  1.6988  1.4867  0.3376
  195MOL0     H25713   8.554   6.405   8.961  1.0457 -1.4114 -0.8824
  195MOL0     H25714   8.416   6.633   8.944 -3.3073  1.2939  1.8268
  195MOL0     H25715   8.283   6.536   8.876  0.6273 -1.5707 -0.9727
  195MOL0     H25716   8.395   6.653   8.704 -1.5771 -1.8036 -0.8003
  195MOL0     H25717   8.389   6.481   8.680 -0.5975 -2.5142  0.5387
  195MOL0     H25718   8.637   6.474   8.727 -0.7345 -0.0273  2.8808
  195MOL0     H25719   8.594   6.585   8.597 -1.1936 -3.2805 -0.6002
  195MOL0     H25720   8.772   6.687   8.720  0.6351 -0.2883  1.7589
  195MOL0     H25721   8.691   6.653   8.866  1.8459  1.0513 -0.3416
  195MOL0     H25722   8.295   5.791   8.821  0.4561  0.4281 -0.2876
  195MOL0     H25723   8.395   5.565   8.784  0.8890  1.1148 -1.4414
  195MOL0     H25724   8.894   5.268   9.082  1.5135 -0.1205 -2.8759
  195MOL0     H25725   8.946   5.033   9.034 -0.2942  0.5140  0.9279
  195MOL0     H25726   8.528   4.675   9.661 -0.4615  1.6794 -1.3867
  195MOL0     H25727   8.277   4.665   9.598 -1.5613  0.5775  0.1140
  195MOL0     H25728   7.757   4.915   9.910  1.6093 -0.7253  2.3918
  195MOL0     H25729   7.530   4.809   9.944  0.2923  0.7845 -0.5435
  195MOL0     H25730   7.375   4.403   9.979 -0.4718 -1.6653 -3.2560
  195MOL0     H25731   7.546   4.367   9.938  1.1291  1.1578 -1.3386
  195MOL0     H25732   7.307   4.388   9.766 -0.3011 -0.8374  1.8224
  195MOL0     H25733   7.472   4.422   9.701  1.0990  1.4466  0.8692
  195MOL0     H25734   7.366   4.168   9.687 -0.3123 -0.4471  0.1639
  195MOL0     H25735   7.410   4.163   9.857  2.1256 -2.5580 -0.7202
  195MOL0     H25736   7.589   4.188   9.612 -0.0689  2.3767  0.7924
  195MOL0     H25737   7.652   4.205   9.774  1.4769 -1.7529  0.1608
  195MOL0     H25738   7.600   3.806   9.772 -0.7470  0.3233  0.3651
  195MOL0     H25739   7.712   4.430   9.818 -1.2679 -0.7132 -0.8858
  195MOL0     H25740   7.929   4.540   9.829  0.8309  2.0225 -0.6056
  196MOL0     O25741   6.235   8.061   8.715  0.4052 -0.4530  0.3025
  196MOL0     C25742   6.347   8.072   8.668 -0.1948 -0.2504 -0.0224
  196MOL0     O25743   6.392   8.031   8.544  0.3590 -0.0470 -0.3629
  196MOL0     C25744   6.300   8.000   8.450  1.3366  0.3251 -0.8099
  196MOL0     C25745   6.212   8.101   8.406  1.1831  0.3240 -0.0564
  196MOL0     C25746   6.114   8.072   8.313 -0.5406 -0.1740  0.3317
  196MOL0     C25747   6.111   7.947   8.254  0.5841  0.8027  0.4748
  196MOL0     O25748   6.002   7.913   8.177  0.3670  0.0594  0.3791
  196MOL0     C25749   6.023   7.875   8.041 -0.0647 -0.9507 -0.4319
  196MOL0     C25750   5.889   7.818   7.997 -0.9388  0.0402  0.3258
  196MOL0     C25751   5.891   7.724   7.871  0.4992 -0.4143 -0.2196
  196MOL0     C25752   5.902   7.804   7.743 -0.4497 -0.0293 -0.6147
  196MOL0     C25753   5.916   7.722   7.615  0.3122  1.5462 -0.5385
  196MOL0     C25754   5.879   7.788   7.489 -0.1737 -0.0579 -0.7804
  196MOL0     C25755   5.957   7.919   7.468  0.5425 -0.4255  0.1642
  196MOL0     C25756   5.873   8.028   7.387 -0.1783 -0.2885  0.1689
  196MOL0     N25757   5.818   7.978   7.258 -0.3647  0.8895 -0.4796
  196MOL0     C25758   5.684   7.980   7.227 -0.9082  0.0806  0.4505
  196MOL0     C25759   5.694   7.943   7.096  1.0188 -0.4830 -0.6427
  196MOL0     C25760   5.581   7.941   7.000  0.1538  0.0795  0.3993
  196MOL0     C25761   5.556   8.087   6.958  0.7257 -0.1869  0.3032
  196MOL0     C25762   5.620   8.123   6.825 -0.8552 -0.0212 -0.4901
  196MOL0     C25763   5.594   8.262   6.774  0.1039 -0.1201  0.1056
  196MOL0     O25764   5.466   8.272   6.704 -0.3250  0.9141  0.4826
  196MOL0     C25765   5.436   8.400   6.645 -0.6713  0.1446 -0.3591
  196MOL0     C25766   5.300   8.431   6.628  0.0031  0.5353  0.2488
  196MOL0     C25767   5.266   8.556   6.579  0.5577  0.5867 -1.1769
  196MOL0     C25768   5.364   8.650   6.538  0.2620  0.8489 -0.7186
  196MOL0     C25769   5.322   8.783   6.503  0.5155  1.4597  0.3475
  196MOL0     O25770   5.211   8.826   6.569  0.2216  0.1329 -0.0097
  196MOL0     C25771   5.147   8.942   6.544 -0.0873 -0.0984 -0.9878
  196MOL0     C25772   5.175   9.025   6.435  0.2054  0.3280 -0.6775
  196MOL0     C25773   5.121   9.147   6.415  0.6586  0.1575 -0.2717
  196MOL0     C25774   5.017   9.190   6.510  0.5639  0.0383  0.3706
  196MOL0     O25775   4.958   9.315   6.504  1.0013  0.4543  0.5837
  196MOL0     C25776   5.014   9.424   6.424  0.6981  0.0981  0.0559
  196MOL0     C25777   4.949   9.550   6.474 -0.7803 -0.1585  0.8253
  196MOL0     C25778   4.849   9.601   6.362 -0.1632 -0.2200 -0.0743
  196MOL0     C25779   4.785   9.732   6.409  0.9856  0.0023  0.0722
  196MOL0     C25780   4.742   9.833   6.307  0.3893  0.1038 -0.9431
  196MOL0     C25781   4.638   9.772   6.203 -0.1334 -0.6357 -0.0801
  196MOL0     C25782   4.585   9.876   6.104 -0.1948  1.2562 -0.7456
  196MOL0     C25783   4.676   9.889   5.980 -0.2784  0.7965  0.5391
  196MOL0    Cl25784   4.644   9.755   5.862 -0.3588 -0.1495  0.0524
  196MOL0     C25785   4.976   9.105   6.615 -0.1058 -0.0291  0.1121
  196MOL0     C25786   5.042   8.979   6.632 -0.3028  0.0216  0.4404
  196MOL0     O25787   5.384   8.841   6.417  0.3636  0.5812  0.3817
  196MOL0     C25788   5.502   8.616   6.549  0.8119 -0.7101  0.1692
  196MOL0     C25789   5.535   8.495   6.606  0.4791 -0.4695 -0.3672
  196MOL0     N25790   5.819   7.928   7.050 -0.0064  0.5557  0.4194
  196MOL0     N25791   5.893   7.937   7.152  0.0791 -0.1906  0.9483
  196MOL0     C25792   6.191   7.845   8.296  0.3665 -0.2076 -0.9109
  196MOL0     C25793   6.279   7.871   8.398  0.0271  0.3796  0.4350
  196MOL0     C25794   6.441   8.136   8.755 -0.4533 -0.3819 -0.5293
  196MOL0     C25795   6.395   8.209   8.867  0.1498 -0.2875 -0.3556
  196MOL0     C25796   6.490   8.292   8.927  0.1801 -0.4149 -0.8842
  196MOL0     C25797   6.628   8.308   8.896 -0.4357 -0.3306 -0.8448
  196MOL0     O25798   6.716   8.393   8.959  0.6845 -0.3111  0.2529
  196MOL0     C25799   6.685   8.447   9.083 -0.5947 -0.2574 -0.7234
  196MOL0     C25800   6.815   8.529   9.123 -0.9236  0.4931  1.2873
  196MOL0     C25801   6.823   8.607   9.255 -0.0192 -0.4560 -0.3662
  196MOL0     C25802   6.695   8.689   9.273 -0.0700  0.7899 -0.0087
  196MOL0     C25803   6.726   8.774   9.391  0.9377 -1.5784 -0.0991
  196MOL0     C25804   6.763   8.831   9.493 -0.4751 -0.0869  0.6889
  196MOL0     C25805   6.669   8.231   8.790 -0.4107 -1.0409 -0.1287
  196MOL0     C25806   6.583   8.145   8.721  0.3115  1.0820 -0.2263
  196MOL0     H25807   6.210   8.203   8.445  0.5890  1.5253 -2.9354
  196MOL0     H25808   6.050   8.157   8.291 -0.5360 -0.3843 -0.5504
  196MOL0     H25809   6.110   7.810   8.027  1.4850  0.9100  0.0843
  196MOL0     H25810   6.039   7.964   7.979 -2.7019 -1.6869 -2.3612
  196MOL0     H25811   5.815   7.899   7.996 -1.4486 -0.4141  0.6561
  196MOL0     H25812   5.880   7.747   8.079 -1.0047  0.9049  1.0905
  196MOL0     H25813   5.794   7.674   7.867 -1.7840  3.4468 -5.3817
  196MOL0     H25814   5.967   7.647   7.880  0.0764 -0.6862  1.3407
  196MOL0     H25815   5.823   7.879   7.739 -0.1144  0.2892 -3.5275
  196MOL0     H25816   5.989   7.867   7.767 -0.9438  0.0832  0.9739
  196MOL0     H25817   5.875   7.622   7.630  4.2276 -0.1751 -0.2139
  196MOL0     H25818   6.020   7.694   7.601 -0.4781 -1.5433 -1.0211
  196MOL0     H25819   5.770   7.800   7.481 -0.3466 -2.3183 -3.7320
  196MOL0     H25820   5.910   7.718   7.411  3.2323  0.4064  0.0251
  196MOL0     H25821   5.971   7.963   7.567 -2.7193  0.4464  0.3319
  196MOL0     H25822   6.052   7.900   7.416 -0.4128 -1.8252 -1.1232
  196MOL0     H25823   5.928   8.123   7.380 -3.0809  1.9705  3.9440
  196MOL0     H25824   5.794   8.055   7.457  0.5047  0.9525  0.4907
  196MOL0     H25825   5.599   7.980   7.295 -2.0972  0.4078 -0.9941
  196MOL0     H25826   5.492   7.897   7.046 -0.0126 -1.5607 -1.3638
  196MOL0     H25827   5.608   7.881   6.913  2.5111  1.6688 -0.0522
  196MOL0     H25828   5.585   8.161   7.033 -2.5572 -0.7787  2.3098
  196MOL0     H25829   5.450   8.101   6.936  1.3042  0.0842 -2.9165
  196MOL0     H25830   5.730   8.116   6.828 -0.6623  0.6521 -3.0263
  196MOL0     H25831   5.585   8.053   6.749 -0.5018 -1.7242  0.8708
  196MOL0     H25832   5.675   8.289   6.705 -1.0560 -1.3750 -1.8324
  196MOL0     H25833   5.601   8.337   6.853 -1.1435  1.4516 -1.1921
  196MOL0     H25834   5.226   8.356   6.652 -1.7612  1.5420 -1.7156
  196MOL0     H25835   5.161   8.584   6.578  0.1359 -0.0867  3.2523
  196MOL0     H25836   5.239   8.993   6.354 -3.0053 -3.0442 -2.1747
  196MOL0     H25837   5.164   9.216   6.344 -1.4944  0.6034 -1.2099
  196MOL0     H25838   4.996   9.401   6.318 -1.8637 -0.8852  0.6147
  196MOL0     H25839   5.122   9.430   6.438  0.4712  0.1914  1.9416
  196MOL0     H25840   5.031   9.623   6.476  1.7029 -2.7090 -0.3186
  196MOL0     H25841   4.901   9.547   6.572 -0.4319 -0.7914  0.9790
  196MOL0     H25842   4.769   9.527   6.374  1.4297 -1.6840  2.4937
  196MOL0     H25843   4.879   9.605   6.257  1.9018 -1.4547  0.4089
  196MOL0     H25844   4.692   9.698   6.454  1.5292 -0.9064  0.5434
  196MOL0     H25845   4.838   9.784   6.489 -0.4542  1.1217  0.3414
  196MOL0     H25846   4.830   9.867   6.251  0.0312  1.4305 -0.7417
  196MOL0     H25847   4.698   9.922   6.352 -1.5540  1.6395 -5.3413
  196MOL0     H25848   4.554   9.731   6.262 -1.1615 -0.1518 -1.1662
  196MOL0     H25849   4.682   9.685   6.154  0.9240 -0.3162  0.2852
  196MOL0     H25850   4.482   9.852   6.077 -0.0045  0.3287 -0.6788
  196MOL0     H25851   4.577   9.973   6.154  1.8148  0.2775  1.6883
  196MOL0     H25852   4.780   9.877   6.011  0.4268  0.7287 -1.6707
  196MOL0     H25853   4.665   9.990   5.941  0.0477 -0.4944 -3.3102
  196MOL0     H25854   4.884   9.120   6.670 -0.1265  1.4580 -0.2836
  196MOL0     H25855   5.005   8.909   6.706 -4.8020 -1.5623 -2.8458
  196MOL0     H25856   5.576   8.693   6.527 -0.4630  1.3171  2.4763
  196MOL0     H25857   5.640   8.470   6.604  0.5915  0.0398 -2.2120
  196MOL0     H25858   6.174   7.745   8.258  2.3733 -0.6199 -0.8460
  196MOL0     H25859   6.334   7.787   8.439  0.2728  1.2453  1.9725
  196MOL0     H25860   6.293   8.204   8.902  1.1285 -0.7264  2.8293
  196MOL0     H25861   6.458   8.346   9.016  0.3913  1.1061 -1.6982
  196MOL0     H25862   6.663   8.367   9.153 -0.1429  0.4859  0.2953
  196MOL0     H25863   6.593   8.505   9.090 -0.2051  0.3526 -0.5454
  196MOL0     H25864   6.908   8.476   9.101 -1.3820 -1.2283  3.1972
  196MOL0     H25865   6.817   8.611   9.050  0.3593 -1.9675 -1.6557
  196MOL0     H25866   6.915   8.665   9.255 -0.4256  0.1932 -0.3329
  196MOL0     H25867   6.835   8.543   9.343  2.1573 -0.6161 -0.7314
  196MOL0     H25868   6.669   8.748   9.185 -0.6791 -2.1617 -1.9357
  196MOL0     H25869   6.611   8.625   9.299  1.5813 -1.1368  0.8823
  196MOL0     H25870   6.787   8.871   9.590 -1.8480 -0.8301  1.3647
  196MOL0     H25871   6.766   8.239   8.742 -1.5472  0.7570 -2.3247
  196MOL0     H25872   6.623   8.108   8.628  2.1796  0.7277  0.6744
  197MOL0     O25873   2.290   0.900   2.274 -0.1016  0.2546 -0.1418
  197MOL0     C25874   2.259   0.785   2.241 -0.1483 -0.5704  1.1991
  197MOL0     O25875   2.205   0.693   2.325 -0.0528  0.3508 -0.0756
  197MOL0     C25876   2.188   0.732   2.453  0.5138 -0.4233 -0.0322
  197MOL0     C25877   2.061   0.746   2.507  1.0811 -0.7036  0.1423
  197MOL0     C25878   2.047   0.787   2.634  0.0375 -0.8032 -0.1026
  197MOL0     C25879   2.150   0.820   2.721 -0.2249  0.1680 -0.7814
  197MOL0     O25880   2.135   0.875   2.843 -0.2748  0.0694 -0.2065
  197MOL0     C25881   2.053   0.809   2.935  0.6195 -0.5938 -0.5814
  197MOL0     C25882   2.017   0.890   3.057  0.1271 -0.3139  0.4007
  197MOL0     C25883   2.135   0.900   3.156 -0.4982  0.0461 -0.1808
  197MOL0     C25884   2.091   0.974   3.280 -0.3983 -0.1755  0.2553
  197MOL0     C25885   2.194   0.953   3.394  0.0479 -0.4658  0.5016
  197MOL0     C25886   2.326   1.008   3.349 -0.2947 -0.1166 -0.2841
  197MOL0     C25887   2.429   1.040   3.466 -0.2094 -0.3428 -1.1663
  197MOL0     C25888   2.428   0.943   3.582  1.4228  0.2431 -0.3688
  197MOL0     N25889   2.524   0.956   3.689  0.3801  0.1379 -0.7555
  197MOL0     C25890   2.654   0.918   3.682  0.4559 -0.1954  0.3198
  197MOL0     C25891   2.704   0.924   3.812  0.2146  0.1355  0.7076
  197MOL0     C25892   2.843   0.893   3.867 -0.2003  1.0573 -0.4901
  197MOL0     C25893   2.840   0.783   3.979  0.1731  0.3134  0.6064
  197MOL0     C25894   2.974   0.747   4.035  0.9592 -0.8615 -0.6799
  197MOL0     C25895   2.970   0.665   4.156 -0.0610  0.6237  1.2057
  197MOL0     O25896   2.897   0.545   4.116 -0.1255  0.6244 -0.2370
  197MOL0     C25897   2.851   0.465   4.212 -0.5258 -0.0440  0.0252
  197MOL0     C25898   2.737   0.384   4.185 -0.9427  0.1232  0.0828
  197MOL0     C25899   2.683   0.282   4.269  0.6999  0.1773 -0.5828
  197MOL0     C25900   2.748   0.264   4.397  0.9684  0.4930 -0.1773
  197MOL0     C25901   2.677   0.180   4.512 -0.3974 -0.1316 -0.5587
  197MOL0     O25902   2.757   0.134   4.609  0.3369 -0.2756  0.1328
  197MOL0     C25903   2.696   0.066   4.713 -0.8694 -1.2855  0.1176
  197MOL0     C25904   2.717   0.113   4.844  0.0058  0.7050  0.3264
  197MOL0     C25905   2.661   0.049   4.949  0.3195  1.0930  0.0619
  197MOL0     C25906   2.582  -0.065   4.929 -0.5538  0.5333  0.0318
  197MOL0     O25907   2.536  -0.151   5.023  0.0269 -0.2440 -0.1555
  197MOL0     C25908   2.482  -0.084   5.136 -1.0304  0.0453 -0.1624
  197MOL0     C25909   2.376  -0.172   5.201 -0.0415  0.5615 -0.2726
  197MOL0     C25910   2.237  -0.171   5.135 -0.3713  0.5886 -0.4206
  197MOL0     C25911   2.134  -0.266   5.201 -0.0656 -1.3281  1.0211
  197MOL0     C25912   2.152  -0.415   5.184 -0.1421 -0.5945 -0.9256
  197MOL0     C25913   2.033  -0.486   5.248 -0.1754 -0.2303 -0.1161
  197MOL0     C25914   1.881  -0.441   5.201 -0.1151 -0.2342  0.4805
  197MOL0     C25915   1.838  -0.467   5.050  0.5800 -0.0171  0.9643
  197MOL0    Cl25916   1.911  -0.345   4.938 -0.2012 -0.4093 -0.0724
  197MOL0     C25917   2.568  -0.111   4.799  1.0558  0.6220 -0.0164
  197MOL0     C25918   2.621  -0.051   4.685  0.7487  0.3884 -0.2065
  197MOL0     O25919   2.557   0.155   4.495 -0.4402 -0.2585  0.5893
  197MOL0     C25920   2.864   0.338   4.428  0.1775 -1.0386 -0.0650
  197MOL0     C25921   2.916   0.432   4.332 -0.1161  0.1780 -0.2534
  197MOL0     N25922   2.604   0.983   3.889  0.2287  0.0243  1.1810
  197MOL0     N25923   2.498   0.991   3.820  0.7728 -0.1403 -0.2261
  197MOL0     C25924   2.282   0.813   2.666  0.5182 -0.0065  1.0848
  197MOL0     C25925   2.300   0.770   2.532 -0.0445 -0.6807 -0.6207
  197MOL0     C25926   2.265   0.750   2.095  0.2068  0.3095 -1.2230
  197MOL0     C25927   2.216   0.624   2.043  0.1770  0.4156  0.1300
  197MOL0     C25928   2.235   0.597   1.907  0.7356 -0.5394  0.7572
  197MOL0     C25929   2.285   0.687   1.817 -0.3918 -0.8540  0.5684
  197MOL0     O25930   2.324   0.659   1.685  0.2602  0.4481 -0.0098
  197MOL0     C25931   2.230   0.602   1.590  0.7147 -0.2934 -0.3487
  197MOL0     C25932   2.205   0.712   1.486 -0.7023 -0.1930  0.0038
  197MOL0     C25933   2.113   0.655   1.374  0.0654  0.0799 -0.1462
  197MOL0     C25934   1.965   0.667   1.409 -0.1905  0.4716 -0.8299
  197MOL0     C25935   1.911   0.533   1.426 -1.1499 -0.6862  0.0737
  197MOL0     C25936   1.865   0.428   1.413  0.3204 -0.0285 -1.3430
  197MOL0     C25937   2.336   0.806   1.875  1.1454  0.4162  0.5202
  197MOL0     C25938   2.325   0.844   2.005  0.0213  0.2980 -0.3381
  197MOL0     H25939   1.977   0.729   2.440  1.2493 -0.8162 -0.0406
  197MOL0     H25940   1.948   0.809   2.673  0.5482 -0.2742  0.9439
  197MOL0     H25941   2.094   0.719   2.982  0.4349  0.4432  1.7027
  197MOL0     H25942   1.956   0.791   2.887 -0.8569  4.5322 -0.1140
  197MOL0     H25943   1.926   0.848   3.101 -2.8659  3.5869 -1.4085
  197MOL0     H25944   1.990   0.991   3.023  0.9423 -1.6787 -5.3679
  197MOL0     H25945   2.225   0.945   3.113 -0.0021 -1.3224 -0.6297
  197MOL0     H25946   2.173   0.801   3.184  0.6324  0.1879 -1.1069
  197MOL0     H25947   2.078   1.081   3.261  1.7700  0.4686  1.9021
  197MOL0     H25948   1.996   0.933   3.313 -0.7314  0.4313  0.0682
  197MOL0     H25949   2.205   0.845   3.401 -0.1507 -0.7695 -2.4966
  197MOL0     H25950   2.157   1.005   3.483  0.5253  3.1555 -1.1947
  197MOL0     H25951   2.314   1.105   3.300  0.3750 -1.3284 -3.0203
  197MOL0     H25952   2.372   0.934   3.282 -2.6526 -1.6656 -0.3106
  197MOL0     H25953   2.529   1.060   3.427  0.0803  0.8486  0.1048
  197MOL0     H25954   2.395   1.128   3.520  0.1047 -1.6491  1.3098
  197MOL0     H25955   2.440   0.841   3.545 -0.2914 -2.1223  4.6501
  197MOL0     H25956   2.331   0.945   3.632  0.8352 -1.6118 -1.3465
  197MOL0     H25957   2.720   0.886   3.602  2.2806 -0.2194  1.7615
  197MOL0     H25958   2.888   0.984   3.909  3.9130 -1.6483  1.6020
  197MOL0     H25959   2.909   0.863   3.785 -2.1532  2.1896 -2.5833
  197MOL0     H25960   2.786   0.695   3.945  1.0233 -1.2217  2.9870
  197MOL0     H25961   2.789   0.834   4.061  0.6906 -0.2673  1.3056
  197MOL0     H25962   3.020   0.688   3.955 -3.4273  0.3795 -4.5773
  197MOL0     H25963   3.036   0.836   4.050  2.4302 -1.1913 -3.8632
  197MOL0     H25964   2.909   0.732   4.218 -1.4333  2.2801 -1.7080
  197MOL0     H25965   3.071   0.652   4.198 -0.6422 -2.5581  1.8722
  197MOL0     H25966   2.691   0.391   4.087 -0.0177  1.7248 -0.2889
  197MOL0     H25967   2.586   0.243   4.241 -0.0852  0.5834  1.3636
  197MOL0     H25968   2.789   0.192   4.857  0.9339 -0.0275 -0.2541
  197MOL0     H25969   2.691   0.080   5.048  2.7064 -0.1139 -0.1910
  197MOL0     H25970   2.444   0.016   5.113 -0.2220  0.4724  0.3165
  197MOL0     H25971   2.564  -0.060   5.203 -1.5601  4.8969 -0.9096
  197MOL0     H25972   2.366  -0.125   5.299 -0.1231  2.1897 -1.0210
  197MOL0     H25973   2.409  -0.276   5.212 -0.1424  0.4006 -1.3075
  197MOL0     H25974   2.249  -0.202   5.031 -1.0720  0.5251 -0.4877
  197MOL0     H25975   2.185  -0.075   5.143 -3.1136 -0.7770 -0.6917
  197MOL0     H25976   2.130  -0.231   5.305  0.5092 -0.2189  0.6898
  197MOL0     H25977   2.038  -0.250   5.151  0.8622  0.3095 -0.3530
  197MOL0     H25978   2.237  -0.456   5.240  0.9711 -1.0433 -2.8258
  197MOL0     H25979   2.153  -0.446   5.079 -1.2571  0.1006 -1.1543
  197MOL0     H25980   2.035  -0.466   5.356  1.9456  2.1003 -0.4997
  197MOL0     H25981   2.054  -0.592   5.231 -3.4585 -1.5592  2.8957
  197MOL0     H25982   1.818  -0.507   5.261  1.7742 -0.4717  2.3167
  197MOL0     H25983   1.857  -0.337   5.225 -1.5895 -0.4955  0.2741
  197MOL0     H25984   1.730  -0.470   5.031  0.8614  1.3221 -1.1089
  197MOL0     H25985   1.879  -0.560   5.010  1.4768  1.0650 -0.7336
  197MOL0     H25986   2.485  -0.179   4.782  1.5670  0.5006 -2.4592
  197MOL0     H25987   2.603  -0.091   4.585  0.0023  0.8389 -0.2643
  197MOL0     H25988   2.921   0.329   4.520  0.1243  0.4965  0.1370
  197MOL0     H25989   3.005   0.476   4.375  0.6690 -0.0344 -1.6180
  197MOL0     H25990   2.360   0.847   2.733 -0.0821 -0.0116  1.7975
  197MOL0     H25991   2.396   0.761   2.482 -1.1646  1.2730 -3.3127
  197MOL0     H25992   2.168   0.552   2.108  1.9397  0.6909  1.8813
  197MOL0     H25993   2.210   0.500   1.867 -0.0996 -0.1174  0.2427
  197MOL0     H25994   2.136   0.569   1.637 -0.4375  1.6330 -1.1515
  197MOL0     H25995   2.286   0.518   1.551 -1.3527 -1.7898 -0.2878
  197MOL0     H25996   2.152   0.791   1.538 -1.2648 -1.5602  1.6089
  197MOL0     H25997   2.301   0.745   1.445  1.1490  0.5031  4.3567
  197MOL0     H25998   2.133   0.551   1.346  1.2079 -0.1879  1.5350
  197MOL0     H25999   2.132   0.709   1.280  2.5053  0.3331  0.4268
  197MOL0     H26000   1.960   0.714   1.508  2.6939 -0.8475  0.0510
  197MOL0     H26001   1.922   0.736   1.335  1.7434 -0.9778 -3.4546
  197MOL0     H26002   1.822   0.330   1.416  0.2310  0.0145 -1.1678
  197MOL0     H26003   2.381   0.873   1.803  0.4755  2.4843  1.9386
  197MOL0     H26004   2.370   0.938   2.035  2.6545 -0.3680 -1.8446
  198MOL0     O26005   5.247   6.286   2.691 -0.2703 -0.4208 -0.4554
  198MOL0     C26006   5.226   6.397   2.741 -0.2925 -0.1225 -0.8505
  198MOL0     O26007   5.153   6.495   2.688  0.3822 -0.3217  0.2484
  198MOL0     C26008   5.057   6.438   2.606 -0.8393  0.3835  0.9905
  198MOL0     C26009   4.974   6.327   2.648 -0.5188  0.0125  0.3671
  198MOL0     C26010   4.878   6.273   2.565 -0.5088 -0.5406 -0.5726
  198MOL0     C26011   4.869   6.318   2.434 -0.3564  0.2951  0.7914
  198MOL0     O26012   4.764   6.272   2.358 -0.6051  0.6612 -0.3593
  198MOL0     C26013   4.755   6.134   2.320 -0.2355 -0.5792  0.0695
  198MOL0     C26014   4.655   6.129   2.200 -0.7499 -0.1158  0.9215
  198MOL0     C26015   4.636   5.990   2.132 -0.3141  0.5673 -0.1518
  198MOL0     C26016   4.499   5.979   2.066  0.4597  0.2271  0.0360
  198MOL0     C26017   4.464   5.838   2.019  0.0383  1.2017 -0.1082
  198MOL0     C26018   4.581   5.780   1.927 -0.0911  0.8048 -0.0644
  198MOL0     C26019   4.558   5.635   1.890 -0.4056 -0.6740 -0.8023
  198MOL0     C26020   4.583   5.528   2.002  0.1773  0.7325  0.2560
  198MOL0     N26021   4.719   5.510   2.059 -0.1277 -1.2247  0.7536
  198MOL0     C26022   4.839   5.502   1.988 -0.3583  1.0336 -0.1948
  198MOL0     C26023   4.927   5.478   2.092  0.7134  0.0396  0.0537
  198MOL0     C26024   5.075   5.465   2.060  1.0901  0.3892  1.6558
  198MOL0     C26025   5.157   5.505   2.185  0.5293  0.4188 -0.8056
  198MOL0     C26026   5.307   5.495   2.156 -0.0164 -0.1656 -0.0276
  198MOL0     C26027   5.398   5.586   2.247 -0.1083 -0.0173  0.8516
  198MOL0     O26028   5.536   5.567   2.237  0.7732 -0.1595  0.5586
  198MOL0     C26029   5.593   5.465   2.310 -0.8906 -0.5232 -0.1512
  198MOL0     C26030   5.524   5.366   2.389  0.5860 -0.0931 -0.6631
  198MOL0     C26031   5.593   5.274   2.465  0.3732  0.5853 -0.3187
  198MOL0     C26032   5.736   5.258   2.450 -0.6557 -0.4787  0.6419
  198MOL0     C26033   5.804   5.154   2.533  0.2371 -0.2734 -0.9691
  198MOL0     O26034   5.729   5.057   2.603  0.4496 -0.6485  0.2231
  198MOL0     C26035   5.804   4.982   2.696  0.3657 -0.2408 -0.8376
  198MOL0     C26036   5.849   4.860   2.654 -0.3112 -0.4510  0.5608
  198MOL0     C26037   5.920   4.772   2.738 -0.2699 -0.1271  0.4350
  198MOL0     C26038   5.938   4.800   2.872 -0.6882  0.1703  0.6852
  198MOL0     O26039   6.007   4.726   2.965  0.4932 -0.3695  0.1130
  198MOL0     C26040   6.022   4.584   2.935  0.8264  0.1790 -0.1975
  198MOL0     C26041   6.081   4.518   3.069  0.4050  0.0320  0.5500
  198MOL0     C26042   6.230   4.562   3.083  0.5284  0.7798 -0.8325
  198MOL0     C26043   6.295   4.461   3.165 -0.2675  0.5062 -0.0290
  198MOL0     C26044   6.444   4.510   3.188 -0.7153 -0.1184  0.0008
  198MOL0     C26045   6.495   4.426   3.299 -1.3418 -0.4023 -0.5408
  198MOL0     C26046   6.642   4.468   3.329 -0.7992  0.5943 -1.5293
  198MOL0     C26047   6.723   4.382   3.446 -0.3324  1.2405 -0.2419
  198MOL0    Cl26048   6.667   4.455   3.600 -0.1132 -0.1269 -0.1836
  198MOL0     C26049   5.892   4.931   2.916 -0.4371 -0.4637 -0.3118
  198MOL0     C26050   5.825   5.016   2.830 -0.2441  1.0723 -0.2657
  198MOL0     O26051   5.928   5.158   2.531 -0.6955  0.3897 -0.5387
  198MOL0     C26052   5.799   5.348   2.359 -0.1604  0.9047 -0.1508
  198MOL0     C26053   5.735   5.456   2.293  0.4721 -0.0655  0.0846
  198MOL0     N26054   4.859   5.473   2.209 -0.0199  0.3341  0.7590
  198MOL0     N26055   4.738   5.489   2.190 -0.0271 -0.5541  0.0031
  198MOL0     C26056   4.949   6.428   2.393 -0.2389 -0.0724 -0.4258
  198MOL0     C26057   5.042   6.481   2.479 -0.7626  0.4604  0.4285
  198MOL0     C26058   5.310   6.432   2.865 -0.9416 -0.1341 -1.1984
  198MOL0     C26059   5.280   6.544   2.947 -0.6829 -1.1420 -0.7235
  198MOL0     C26060   5.346   6.571   3.065  0.1708 -1.3248  0.2444
  198MOL0     C26061   5.459   6.489   3.110 -0.2052 -0.2396  0.2988
  198MOL0     O26062   5.536   6.493   3.228 -0.4842 -0.8576 -0.1396
  198MOL0     C26063   5.549   6.619   3.293  0.2838  1.1792  0.1090
  198MOL0     C26064   5.668   6.629   3.395  0.8888 -0.4472  0.4841
  198MOL0     C26065   5.654   6.733   3.507 -0.1129  0.1357  0.5598
  198MOL0     C26066   5.764   6.705   3.616  0.0089 -0.9273  0.4658
  198MOL0     C26067   5.758   6.800   3.732  0.9229 -0.6148  0.1871
  198MOL0     C26068   5.746   6.859   3.838  0.8298 -0.4199  0.2382
  198MOL0     C26069   5.491   6.387   3.020 -0.5238 -0.0483 -0.5598
  198MOL0     C26070   5.420   6.355   2.904 -0.1331 -0.0765 -0.4846
  198MOL0     H26071   4.976   6.300   2.753 -1.5540  2.2615  1.0330
  198MOL0     H26072   4.809   6.203   2.610 -1.7026  1.4659  0.8615
  198MOL0     H26073   4.728   6.074   2.407 -2.3616  0.1366 -0.0481
  198MOL0     H26074   4.847   6.092   2.280  1.7962  0.3321  3.3503
  198MOL0     H26075   4.699   6.185   2.116 -0.4372 -4.0896 -1.8343
  198MOL0     H26076   4.559   6.168   2.235 -2.8401 -2.8520 -1.2808
  198MOL0     H26077   4.637   5.913   2.210  1.5990  0.7349  0.0381
  198MOL0     H26078   4.713   5.954   2.063 -2.2837 -2.1202 -1.1155
  198MOL0     H26079   4.421   6.020   2.131  0.3040  0.6398 -0.3994
  198MOL0     H26080   4.509   6.046   1.980 -0.0900 -1.2720 -1.2560
  198MOL0     H26081   4.368   5.829   1.968 -1.8363  1.4121  3.1644
  198MOL0     H26082   4.444   5.779   2.108  1.0118 -1.0622 -1.2895
  198MOL0     H26083   4.679   5.788   1.974 -0.4217  2.3148  0.4006
  198MOL0     H26084   4.597   5.850   1.845  1.7215  0.3205 -0.1502
  198MOL0     H26085   4.452   5.627   1.864 -0.5838 -0.6516 -0.1278
  198MOL0     H26086   4.626   5.613   1.808 -0.2442 -0.2124 -0.7908
  198MOL0     H26087   4.564   5.425   1.970 -0.0801 -0.0167  2.6257
  198MOL0     H26088   4.506   5.544   2.079  1.1476  0.0996  1.3753
  198MOL0     H26089   4.860   5.515   1.883  1.8668 -0.1136  0.0491
  198MOL0     H26090   5.103   5.538   1.984 -0.9306 -0.6126 -0.1700
  198MOL0     H26091   5.096   5.360   2.038  0.6557  0.7317 -0.6645
  198MOL0     H26092   5.139   5.442   2.273  3.6631 -2.5357 -2.0393
  198MOL0     H26093   5.137   5.610   2.209  1.5716  0.2676  0.8746
  198MOL0     H26094   5.343   5.393   2.172 -2.8130 -1.5187 -1.6446
  198MOL0     H26095   5.317   5.526   2.052 -1.3325 -1.4221 -0.5650
  198MOL0     H26096   5.362   5.584   2.350  0.0479  0.4478  0.9197
  198MOL0     H26097   5.380   5.691   2.224 -0.6765  0.3353  2.7544
  198MOL0     H26098   5.421   5.391   2.411  0.8617  2.3045 -1.7398
  198MOL0     H26099   5.558   5.210   2.545  0.0598 -1.4196 -1.9602
  198MOL0     H26100   5.840   4.825   2.552  0.5309 -2.0721  0.9945
  198MOL0     H26101   5.948   4.676   2.697 -1.7912 -0.1541 -0.6254
  198MOL0     H26102   6.094   4.561   2.856 -1.3290 -0.1206 -2.1808
  198MOL0     H26103   5.925   4.542   2.905  0.2046  2.2445 -1.2716
  198MOL0     H26104   6.079   4.410   3.052  0.4248 -0.2610  2.2065
  198MOL0     H26105   6.027   4.549   3.159  1.8383 -1.8933  2.1711
  198MOL0     H26106   6.228   4.665   3.121 -2.4200  0.0486  1.4163
  198MOL0     H26107   6.277   4.566   2.984 -1.8641 -3.8383 -2.4744
  198MOL0     H26108   6.247   4.456   3.263  2.0572 -2.4500  1.1462
  198MOL0     H26109   6.291   4.364   3.115  0.4383  0.0597  0.7567
  198MOL0     H26110   6.434   4.618   3.203 -0.3669 -0.2384  1.2029
  198MOL0     H26111   6.507   4.496   3.099  1.9536  4.1817  0.9328
  198MOL0     H26112   6.503   4.321   3.269  0.7317 -0.2871 -0.5796
  198MOL0     H26113   6.435   4.430   3.389 -0.4565 -0.1920  0.0544
  198MOL0     H26114   6.705   4.463   3.240  1.6773  0.3296  0.1690
  198MOL0     H26115   6.641   4.574   3.356  1.3315  0.5103 -1.0084
  198MOL0     H26116   6.831   4.394   3.434 -0.1179  0.8887  1.1507
  198MOL0     H26117   6.695   4.277   3.449 -1.1666  1.3863  4.5984
  198MOL0     H26118   5.918   4.962   3.017 -0.2285 -1.2618 -0.1111
  198MOL0     H26119   5.798   5.115   2.865  1.7117  1.8993 -0.9864
  198MOL0     H26120   5.902   5.323   2.338  0.1558 -1.3869  3.2600
  198MOL0     H26121   5.784   5.516   2.217 -1.9649  0.3637 -1.2714
  198MOL0     H26122   4.938   6.481   2.298 -0.5378  1.3421  0.3651
  198MOL0     H26123   5.118   6.555   2.459  0.8280  0.0418  4.0070
  198MOL0     H26124   5.189   6.598   2.923 -3.0324 -3.5475  2.0657
  198MOL0     H26125   5.330   6.654   3.133 -0.3149  0.4781 -1.9759
  198MOL0     H26126   5.449   6.639   3.333 -1.5125 -1.8678 -2.3957
  198MOL0     H26127   5.570   6.697   3.220  3.4119  0.3296 -0.0774
  198MOL0     H26128   5.707   6.530   3.421  0.6069 -1.7014 -3.2663
  198MOL0     H26129   5.749   6.672   3.335 -0.7899  3.2096  0.6315
  198MOL0     H26130   5.558   6.704   3.550 -0.6910 -0.6877 -1.1951
  198MOL0     H26131   5.656   6.835   3.467  1.7009  0.3832  1.1641
  198MOL0     H26132   5.783   6.606   3.658 -0.5249  0.4163  4.2806
  198MOL0     H26133   5.859   6.718   3.563 -1.4879  2.7829 -1.6681
  198MOL0     H26134   5.751   6.907   3.934  3.2110  0.1925 -0.1357
  198MOL0     H26135   5.584   6.336   3.042  0.8856  3.0360  1.2511
  198MOL0     H26136   5.447   6.267   2.848 -1.6495  0.2139 -1.7225
  199MOL0     O26137  10.223   1.838  10.163 -0.7248 -0.5653 -0.3370
  199MOL0     C26138  10.287   1.751  10.218 -0.9622  0.7464  0.2044
  199MOL0     O26139  10.241   1.647  10.297  0.3393 -0.2102  0.2499
  199MOL0     C26140  10.111   1.610  10.309 -0.3124 -1.3745 -0.0421
  199MOL0     C26141  10.047   1.554  10.213  0.4279  0.1528 -0.2781
  199MOL0     C26142   9.923   1.493  10.232 -1.0248  1.2260 -0.3070
  199MOL0     C26143   9.847   1.525  10.347 -0.2357  0.3814 -0.5384
  199MOL0     O26144   9.722   1.490  10.380 -0.1154  0.1311  0.2825
  199MOL0     C26145   9.673   1.362  10.332 -0.2673  0.2695  0.3603
  199MOL0     C26146   9.528   1.341  10.361  1.1371  0.5387 -0.2909
  199MOL0     C26147   9.440   1.434  10.276  0.8455  0.1036 -0.7169
  199MOL0     C26148   9.440   1.389  10.132  0.6348  0.5132 -0.1106
  199MOL0     C26149   9.334   1.445  10.047 -0.6757  0.5945  0.1839
  199MOL0     C26150   9.330   1.595  10.043  0.0899  0.0329 -0.8341
  199MOL0     C26151   9.428   1.658   9.942 -0.5015  0.1583 -0.2387
  199MOL0     C26152   9.396   1.792   9.889 -0.2850  0.6028  0.2255
  199MOL0     N26153   9.435   1.810   9.755 -0.7198 -0.0591 -0.3789
  199MOL0     C26154   9.560   1.825   9.706  0.5136  0.3125  0.0024
  199MOL0     C26155   9.538   1.866   9.577  0.7663  1.2804 -0.6664
  199MOL0     C26156   9.636   1.908   9.478  0.3438 -0.0165  0.4969
  199MOL0     C26157   9.748   1.802   9.453  0.0326 -0.9798 -1.0300
  199MOL0     C26158   9.814   1.807   9.317  0.7992 -0.3243  0.5824
  199MOL0     C26159   9.965   1.831   9.341 -0.4900  1.2049 -0.5579
  199MOL0     O26160   9.975   1.970   9.370 -0.5954  0.2347 -0.8240
  199MOL0     C26161  10.098   2.025   9.349  0.5713 -0.0755  0.8131
  199MOL0     C26162  10.212   1.948   9.347 -0.6399 -0.1797 -0.9572
  199MOL0     C26163  10.345   2.004   9.352  0.1804  0.6830 -0.7174
  199MOL0     C26164  10.358   2.146   9.325  0.5861 -0.7674  0.2267
  199MOL0     C26165  10.481   2.225   9.314 -0.4398 -0.0291 -0.0480
  199MOL0     O26166  10.474   2.357   9.287  0.2595 -0.1196  1.1008
  199MOL0     C26167  10.598   2.420   9.262 -0.2217  0.1574 -0.3343
  199MOL0     C26168  10.630   2.483   9.133  0.0283  0.0252 -0.9799
  199MOL0     C26169  10.761   2.529   9.110 -0.8356  0.6547  0.5101
  199MOL0     C26170  10.863   2.529   9.214  0.9477  0.0911  0.9308
  199MOL0     O26171  10.984   2.582   9.192 -0.2222  0.1652 -0.5966
  199MOL0     C26172  11.049   2.552   9.066  0.5054 -0.2085  0.2628
  199MOL0     C26173  11.194   2.595   9.065 -1.0578 -0.2982  0.1515
  199MOL0     C26174  11.263   2.545   8.943  0.5958  0.9156  0.1637
  199MOL0     C26175  11.401   2.590   8.916 -0.6253 -0.4824  0.3597
  199MOL0     C26176  11.409   2.730   8.861  0.2246 -0.3554  0.6105
  199MOL0     C26177  11.549   2.779   8.837 -0.0879  0.4422  0.4871
  199MOL0     C26178  11.542   2.928   8.800 -0.0872  0.3188 -0.4214
  199MOL0     C26179  11.685   2.982   8.826  0.3918  0.8580 -0.0704
  199MOL0    Cl26180  11.689   3.144   8.747 -0.3717 -0.2093 -0.3815
  199MOL0     C26181  10.826   2.479   9.335  0.4950  0.5566 -0.4864
  199MOL0     C26182  10.697   2.422   9.361 -0.8707  0.4370  0.0866
  199MOL0     O26183  10.588   2.163   9.329  0.4082  0.3336  0.3585
  199MOL0     C26184  10.235   2.222   9.309  0.0901 -0.4849 -0.2696
  199MOL0     C26185  10.110   2.156   9.315  0.7056 -0.8061 -0.8043
  199MOL0     N26186   9.410   1.852   9.535 -0.1520 -0.8117 -1.0553
  199MOL0     N26187   9.351   1.823   9.646 -0.0667 -0.6884  0.1739
  199MOL0     C26188   9.904   1.601  10.443  0.4241 -1.4639  0.0483
  199MOL0     C26189  10.036   1.644  10.424 -0.7458 -0.5030 -0.8348
  199MOL0     C26190  10.430   1.754  10.204  0.4565 -0.8363 -0.4407
  199MOL0     C26191  10.493   1.815  10.098 -0.2932 -0.8415 -0.9061
  199MOL0     C26192  10.636   1.814  10.086  0.2523  0.7462 -0.2316
  199MOL0     C26193  10.719   1.744  10.183  0.2516 -0.5412 -0.2960
  199MOL0     O26194  10.859   1.752  10.175 -0.5738 -0.0136  0.4456
  199MOL0     C26195  10.934   1.691  10.285  0.4836  0.5322 -0.8292
  199MOL0     C26196  11.078   1.671  10.238 -1.0874  0.8049 -0.1414
  199MOL0     C26197  11.179   1.642  10.343  0.3088  0.3978 -0.5796
  199MOL0     C26198  11.326   1.654  10.301 -0.2160 -0.0228 -0.0231
  199MOL0     C26199  11.370   1.791  10.325 -0.1065 -0.0956 -0.7641
  199MOL0     C26200  11.403   1.906  10.343  0.5131  0.1241 -0.1516
  199MOL0     C26201  10.649   1.686  10.291  0.4818  0.5737  1.2027
  199MOL0     C26202  10.510   1.692  10.297  0.3627 -0.6086 -0.2099
  199MOL0     H26203  10.091   1.535  10.116 -0.6214 -1.1415 -0.5365
  199MOL0     H26204   9.876   1.424  10.162  0.3095 -2.1118  1.8881
  199MOL0     H26205   9.730   1.285  10.385 -0.0702  0.7524  0.8635
  199MOL0     H26206   9.685   1.361  10.223 -0.6071  0.9641  0.3095
  199MOL0     H26207   9.521   1.363  10.468  2.6942  0.3369 -0.1202
  199MOL0     H26208   9.492   1.240  10.336 -0.2280  1.0384 -0.4427
  199MOL0     H26209   9.491   1.529  10.289  0.8837  0.0100 -0.1465
  199MOL0     H26210   9.341   1.461  10.315  1.5810  0.8553  0.6889
  199MOL0     H26211   9.533   1.423  10.085 -0.0463  1.8535 -0.5598
  199MOL0     H26212   9.429   1.280  10.129  0.1471  0.3732  3.4611
  199MOL0     H26213   9.244   1.397  10.088  0.6901 -1.3296  1.0464
  199MOL0     H26214   9.356   1.409   9.946  0.0794 -0.6078  0.7552
  199MOL0     H26215   9.353   1.642  10.139  2.6980  0.0146 -1.3599
  199MOL0     H26216   9.227   1.620  10.019  0.0896  2.5417  1.3253
  199MOL0     H26217   9.529   1.654   9.984 -0.9140 -0.5638  0.7178
  199MOL0     H26218   9.436   1.584   9.862 -2.0017 -3.7588  2.9316
  199MOL0     H26219   9.448   1.869   9.947  2.1504 -1.0581  0.3802
  199MOL0     H26220   9.287   1.802   9.896 -0.5382 -1.9409  0.6770
  199MOL0     H26221   9.654   1.822   9.759  1.6924 -0.1781 -2.0135
  199MOL0     H26222   9.687   1.995   9.519 -2.4171  2.9702 -1.8821
  199MOL0     H26223   9.586   1.938   9.386  2.7783 -0.7362 -1.1527
  199MOL0     H26224   9.709   1.700   9.465  2.4629 -1.7081  1.7731
  199MOL0     H26225   9.817   1.822   9.536 -0.8009 -0.2458 -0.4859
  199MOL0     H26226   9.793   1.708   9.276 -0.0948 -0.3789  1.1389
  199MOL0     H26227   9.773   1.886   9.253 -0.5165 -1.5380 -0.1471
  199MOL0     H26228  10.016   1.797   9.251 -0.8342  2.9495 -1.4465
  199MOL0     H26229  10.004   1.781   9.431 -0.7698  1.2931 -0.3858
  199MOL0     H26230  10.197   1.841   9.356 -1.2478  0.0206  1.0264
  199MOL0     H26231  10.436   1.949   9.369  0.5373  1.2581 -0.7422
  199MOL0     H26232  10.551   2.466   9.060 -1.5022 -1.6353  0.9278
  199MOL0     H26233  10.791   2.566   9.013 -1.6206 -0.0399 -0.0007
  199MOL0     H26234  11.005   2.618   8.990 -2.3231 -3.3984 -1.0976
  199MOL0     H26235  11.031   2.447   9.041 -1.3126 -0.5821  2.7945
  199MOL0     H26236  11.232   2.536   9.149 -0.7890  0.0473  0.2714
  199MOL0     H26237  11.210   2.701   9.086 -0.6174 -0.8234  2.8211
  199MOL0     H26238  11.195   2.575   8.863 -0.5982 -4.0219 -1.0534
  199MOL0     H26239  11.249   2.437   8.934  0.7715  0.7916  1.2803
  199MOL0     H26240  11.459   2.583   9.008  0.0023  0.9680  0.1110
  199MOL0     H26241  11.446   2.531   8.835  3.0571 -1.4296  2.8552
  199MOL0     H26242  11.360   2.794   8.935  1.1318  1.5465 -0.3678
  199MOL0     H26243  11.357   2.729   8.765  3.2293 -3.3857 -1.1879
  199MOL0     H26244  11.590   2.720   8.755 -0.2400  2.2663 -0.9636
  199MOL0     H26245  11.602   2.754   8.929  1.7614 -2.4086 -1.1958
  199MOL0     H26246  11.512   2.939   8.695 -0.8077 -2.0680 -0.5262
  199MOL0     H26247  11.475   2.982   8.868  1.9418 -1.2965  3.1239
  199MOL0     H26248  11.765   2.917   8.790 -1.4842 -2.5639  1.5505
  199MOL0     H26249  11.707   2.990   8.933  1.8588 -0.7503 -0.2116
  199MOL0     H26250  10.902   2.483   9.412  1.3623  1.1402 -1.3457
  199MOL0     H26251  10.679   2.398   9.465  0.6478  0.7776  0.4604
  199MOL0     H26252  10.234   2.328   9.287  3.7088 -0.3383 -0.3749
  199MOL0     H26253  10.020   2.215   9.301  1.5972  0.2036 -2.6770
  199MOL0     H26254   9.856   1.613  10.539  2.1233 -3.4642  1.2321
  199MOL0     H26255  10.092   1.695  10.502 -0.6505 -1.2228 -0.4290
  199MOL0     H26256  10.438   1.865  10.020  0.6090  3.1436  0.7973
  199MOL0     H26257  10.677   1.880  10.010 -1.0079  0.9199 -0.7864
  199MOL0     H26258  10.887   1.596  10.313 -0.9823  1.0139 -1.5953
  199MOL0     H26259  10.933   1.755  10.374  1.0760  0.6676 -0.9130
  199MOL0     H26260  11.083   1.585  10.170  3.2991 -0.0450  0.9405
  199MOL0     H26261  11.099   1.760  10.177 -2.3897 -0.8462 -3.2384
  199MOL0     H26262  11.156   1.541  10.379  1.7741  0.6648  1.2504
  199MOL0     H26263  11.155   1.709  10.426 -2.9452 -0.1304 -0.9657
  199MOL0     H26264  11.375   1.583  10.368 -2.6630 -0.4224  1.5027
  199MOL0     H26265  11.329   1.632  10.194  0.7619 -2.6493  0.4724
  199MOL0     H26266  11.439   2.004  10.366 -0.2862 -0.0803  2.1924
  199MOL0     H26267  10.691   1.621  10.368  1.9909 -0.2881 -0.2831
  199MOL0     H26268  10.463   1.646  10.383  0.5396  2.3645  1.5946
  200MOL0     O26269   5.585   7.700   5.198  0.3157 -0.4001 -0.1447
  200MOL0     C26270   5.599   7.688   5.075 -0.0256  0.2234  0.6678
  200MOL0     O26271   5.711   7.745   5.009  0.4118  0.1907 -0.1364
  200MOL0     C26272   5.829   7.767   5.067 -0.3012  0.2520  0.7200
  200MOL0     C26273   5.915   7.848   4.993 -1.4788 -0.2557 -0.4782
  200MOL0     C26274   6.027   7.908   5.053  0.5398 -0.0850 -0.3075
  200MOL0     C26275   6.057   7.885   5.191 -0.0636 -0.6848  0.2869
  200MOL0     O26276   6.172   7.947   5.244  0.1826 -0.3501  0.4013
  200MOL0     C26277   6.226   7.910   5.369  0.2098 -0.6135 -1.1047
  200MOL0     C26278   6.339   7.993   5.404 -1.0433  0.4607  0.7107
  200MOL0     C26279   6.350   8.026   5.550 -0.0790  0.6990 -0.0059
  200MOL0     C26280   6.478   8.090   5.574  0.4296 -0.2128  0.4011
  200MOL0     C26281   6.480   8.144   5.726 -0.3254  0.6058  0.0671
  200MOL0     C26282   6.620   8.137   5.792  0.2001  0.4256  0.3296
  200MOL0     C26283   6.631   8.213   5.929 -0.2281 -0.7136 -0.1584
  200MOL0     C26284   6.778   8.223   5.982  0.3102  0.3041  0.6965
  200MOL0     N26285   6.863   8.295   5.884 -0.2838 -0.0645 -0.4458
  200MOL0     C26286   6.972   8.250   5.828  0.0408  0.3491 -0.0604
  200MOL0     C26287   7.025   8.356   5.761 -0.4032 -0.0318  0.3749
  200MOL0     C26288   7.154   8.338   5.679 -0.5654 -0.4964 -0.0273
  200MOL0     C26289   7.139   8.333   5.529 -0.2234  0.7310  0.7621
  200MOL0     C26290   7.272   8.321   5.459 -0.5542 -0.0689 -0.0003
  200MOL0     C26291   7.259   8.296   5.302  0.0370 -0.9183 -0.8002
  200MOL0     O26292   7.184   8.394   5.231  0.7614  0.2694  0.6011
  200MOL0     C26293   7.254   8.492   5.161  0.4796 -0.0670 -0.5312
  200MOL0     C26294   7.193   8.537   5.039  0.1007 -0.8250 -1.1422
  200MOL0     C26295   7.256   8.637   4.958  0.1535  0.2549  0.8594
  200MOL0     C26296   7.372   8.706   5.004  0.5583 -0.3528  1.2008
  200MOL0     C26297   7.417   8.827   4.930 -0.5273  0.1816  0.3677
  200MOL0     O26298   7.491   8.917   4.998 -0.0800  0.7348  1.3056
  200MOL0     C26299   7.557   9.013   4.932  0.2518 -1.1885  0.0683
  200MOL0     C26300   7.632   8.990   4.818 -1.0290  1.0657 -0.8937
  200MOL0     C26301   7.708   9.093   4.759 -0.5001 -0.5995  0.3157
  200MOL0     C26302   7.718   9.219   4.812 -0.1380  0.0800  0.1679
  200MOL0     O26303   7.785   9.329   4.762  0.0702 -0.0279  0.6683
  200MOL0     C26304   7.848   9.315   4.634  0.9163  0.2212 -0.0192
  200MOL0     C26305   7.884   9.454   4.588  0.4214  0.0335 -0.1154
  200MOL0     C26306   7.958   9.529   4.710 -0.1539 -0.3317  0.9336
  200MOL0     C26307   8.016   9.659   4.656 -0.2606  0.0264 -1.5824
  200MOL0     C26308   8.108   9.727   4.748  0.0073  1.1392  0.1841
  200MOL0     C26309   8.157   9.856   4.704 -0.3511  0.2380 -0.0691
  200MOL0     C26310   8.254   9.929   4.809 -0.5353 -0.2673  0.0082
  200MOL0     C26311   8.398   9.871   4.814  1.2709 -1.3361  0.8957
  200MOL0    Cl26312   8.484   9.906   4.647  0.2144  0.1608  0.2012
  200MOL0     C26313   7.642   9.237   4.931  0.1826 -0.1363  0.5295
  200MOL0     C26314   7.574   9.137   4.995 -0.3872 -0.3288  0.0364
  200MOL0     O26315   7.388   8.833   4.807 -0.0215 -0.8326  0.1342
  200MOL0     C26316   7.424   8.671   5.129  0.3160  0.1619 -0.5700
  200MOL0     C26317   7.363   8.568   5.201  0.3361  0.5683  0.3457
  200MOL0     N26318   6.943   8.466   5.773  0.4119 -0.7770  0.7282
  200MOL0     N26319   6.848   8.428   5.853  0.3861 -0.0398 -0.2263
  200MOL0     C26320   5.974   7.797   5.262 -0.3157  0.3529  0.0518
  200MOL0     C26321   5.864   7.736   5.191  0.8729 -0.2410 -0.2655
  200MOL0     C26322   5.496   7.631   4.995  0.4109  0.7420  0.0348
  200MOL0     C26323   5.405   7.540   5.045  0.1513 -0.4045  0.0491
  200MOL0     C26324   5.304   7.491   4.963  0.6446  0.0071 -0.1696
  200MOL0     C26325   5.287   7.534   4.831  0.0789 -0.1580 -0.5424
  200MOL0     O26326   5.167   7.518   4.758 -0.2300 -0.0511 -0.6337
  200MOL0     C26327   5.047   7.455   4.799 -0.6111  0.8976 -0.2391
  200MOL0     C26328   4.934   7.553   4.811 -0.0341 -0.0982  1.1974
  200MOL0     C26329   4.926   7.649   4.695 -0.7241  0.4272  1.4926
  200MOL0     C26330   4.888   7.580   4.559 -0.5436  0.0359  0.3422
  200MOL0     C26331   4.758   7.512   4.556 -1.2052 -0.0851 -0.5997
  200MOL0     C26332   4.647   7.469   4.545  0.4906 -0.4620 -0.1142
  200MOL0     C26333   5.384   7.615   4.784 -0.4421 -0.2698  0.2315
  200MOL0     C26334   5.489   7.665   4.856 -0.1949  0.4769  0.0369
  200MOL0     H26335   5.914   7.864   4.886  2.8438  2.5545 -0.3327
  200MOL0     H26336   6.077   7.982   4.990 -0.4189  0.9517  0.1094
  200MOL0     H26337   6.266   7.809   5.361  1.5556 -0.0392 -2.2160
  200MOL0     H26338   6.147   7.912   5.444  0.5047  1.7437 -0.7739
  200MOL0     H26339   6.345   8.086   5.346 -0.3167 -0.1405 -0.2171
  200MOL0     H26340   6.432   7.939   5.384  0.1456  1.3172  3.3668
  200MOL0     H26341   6.326   7.943   5.617 -2.8744  2.7559  1.7947
  200MOL0     H26342   6.267   8.093   5.579  1.6846  3.0467 -0.0725
  200MOL0     H26343   6.564   8.025   5.559 -0.3508 -0.6930 -2.4406
  200MOL0     H26344   6.491   8.184   5.520 -0.6237  0.8207  1.8546
  200MOL0     H26345   6.420   8.087   5.798 -1.5978  2.2022  0.3247
  200MOL0     H26346   6.446   8.247   5.738 -3.8589 -0.6578  2.6640
  200MOL0     H26347   6.682   8.190   5.719 -1.1364 -0.4538 -1.5218
  200MOL0     H26348   6.667   8.040   5.811  1.5317  0.9613 -0.0840
  200MOL0     H26349   6.574   8.306   5.919  1.4073  0.1124 -3.1289
  200MOL0     H26350   6.580   8.138   5.990 -1.0630  0.7550  1.0128
  200MOL0     H26351   6.812   8.121   5.998 -0.9906 -0.2486  0.0557
  200MOL0     H26352   6.774   8.286   6.071  0.7394  0.4840  0.5890
  200MOL0     H26353   7.025   8.156   5.839 -1.8748 -0.6891  0.7857
  200MOL0     H26354   7.221   8.255   5.702  0.9265  0.1502 -1.7729
  200MOL0     H26355   7.204   8.427   5.718  0.4541 -1.5700  1.2201
  200MOL0     H26356   7.099   8.425   5.485 -0.1661  0.6113  0.4516
  200MOL0     H26357   7.070   8.263   5.481 -2.4682  1.7732  2.2972
  200MOL0     H26358   7.321   8.417   5.474 -1.5870  0.3507  0.8054
  200MOL0     H26359   7.323   8.237   5.508 -0.8230  0.2961  0.9152
  200MOL0     H26360   7.215   8.198   5.286  3.4859 -2.2302 -3.4920
  200MOL0     H26361   7.358   8.289   5.257 -0.6156 -0.8510 -2.3111
  200MOL0     H26362   7.097   8.497   5.007 -1.0662  2.3061 -1.9671
  200MOL0     H26363   7.211   8.661   4.862 -2.6889 -4.1396  0.8119
  200MOL0     H26364   7.630   8.887   4.787 -1.7930 -0.2392  2.9496
  200MOL0     H26365   7.753   9.076   4.662 -0.9542  0.6072 -0.1182
  200MOL0     H26366   7.777   9.270   4.564  1.2096  0.9659 -0.8079
  200MOL0     H26367   7.931   9.243   4.634  0.6693 -0.0744 -0.4822
  200MOL0     H26368   7.786   9.501   4.578 -0.2450 -1.0184  1.1582
  200MOL0     H26369   7.944   9.467   4.497 -0.4302  1.4896 -0.5084
  200MOL0     H26370   8.029   9.456   4.750  0.8168 -0.3487 -0.7330
  200MOL0     H26371   7.887   9.545   4.793  1.4528 -0.6088  2.4188
  200MOL0     H26372   8.065   9.636   4.561  2.2925  2.1108 -0.8673
  200MOL0     H26373   7.930   9.724   4.637 -0.5920  0.3937  0.7809
  200MOL0     H26374   8.190   9.656   4.760 -0.9029  0.0978  0.4338
  200MOL0     H26375   8.069   9.747   4.849  2.9737  0.1299  1.6488
  200MOL0     H26376   8.064   9.912   4.695 -0.0360  1.1124  1.6948
  200MOL0     H26377   8.219   9.849   4.614  0.8454 -1.1128  0.8055
  200MOL0     H26378   8.276  10.034   4.789  2.6130 -0.2185  2.8460
  200MOL0     H26379   8.200   9.921   4.903 -0.2690  1.9506  0.3968
  200MOL0     H26380   8.398   9.765   4.842  1.8619 -0.8555  2.8521
  200MOL0     H26381   8.458   9.927   4.886 -0.0200  1.2378  0.0987
  200MOL0     H26382   7.657   9.339   4.966  1.2267  1.1276 -3.1202
  200MOL0     H26383   7.534   9.158   5.094  1.0789 -1.3419  0.8791
  200MOL0     H26384   7.510   8.732   5.154 -0.4975  0.4067  1.9316
  200MOL0     H26385   7.418   8.547   5.292 -0.2439 -0.6462  0.4485
  200MOL0     H26386   6.005   7.762   5.359 -2.7138 -2.1524  0.0414
  200MOL0     H26387   5.820   7.650   5.240  0.1129  0.1476 -0.2573
  200MOL0     H26388   5.407   7.496   5.144 -0.7940 -1.9981 -0.5996
  200MOL0     H26389   5.225   7.431   5.007  0.1938  1.2933  0.8686
  200MOL0     H26390   5.056   7.404   4.895  0.1849  0.6885 -0.4219
  200MOL0     H26391   5.001   7.378   4.736  1.7884 -0.7983 -0.0610
  200MOL0     H26392   4.839   7.506   4.837 -1.3160  2.3419  1.2978
  200MOL0     H26393   4.964   7.613   4.898  0.3747  1.8250 -0.2051
  200MOL0     H26394   5.022   7.697   4.674 -1.9639  1.5682 -2.2592
  200MOL0     H26395   4.867   7.741   4.708 -1.5585  0.4322 -1.6002
  200MOL0     H26396   4.881   7.658   4.482  1.2972 -3.0483 -3.3019
  200MOL0     H26397   4.967   7.516   4.518 -1.1701 -1.3578  1.2229
  200MOL0     H26398   4.541   7.458   4.552 -0.2468  4.5405 -0.1150
  200MOL0     H26399   5.372   7.651   4.682 -1.0278  2.8196  1.2683
  200MOL0     H26400   5.561   7.737   4.816  1.4693 -0.9743  0.3194
  201MOL0     O26401   5.092   8.426   1.793  0.3456  0.3730 -0.1792
  201MOL0     C26402   5.115   8.333   1.714 -0.4564 -0.2365  0.8899
  201MOL0     O26403   5.044   8.304   1.599  0.4801 -0.1478 -0.1306
  201MOL0     C26404   4.947   8.398   1.559 -0.0033 -0.1274  0.2382
  201MOL0     C26405   4.851   8.454   1.638  0.4901  0.5451  0.4759
  201MOL0     C26406   4.760   8.547   1.586  0.0760  0.7340 -1.2063
  201MOL0     C26407   4.761   8.585   1.453 -0.7305  0.8275  0.5517
  201MOL0     O26408   4.671   8.661   1.390  0.2839 -0.1497 -0.6307
  201MOL0     C26409   4.720   8.789   1.360  0.2759  0.3426  0.4699
  201MOL0     C26410   4.639   8.910   1.417 -0.1086 -1.3865  0.1028
  201MOL0     C26411   4.491   8.895   1.368 -0.3704 -0.8455 -0.1970
  201MOL0     C26412   4.441   9.001   1.273 -0.0461 -0.9395 -0.5293
  201MOL0     C26413   4.303   8.973   1.221  0.3412  0.0994  0.1475
  201MOL0     C26414   4.243   9.073   1.124 -0.3522 -0.9100 -1.2247
  201MOL0     C26415   4.107   9.046   1.079  0.5208 -0.3516 -0.1574
  201MOL0     C26416   4.024   9.167   1.088 -0.3967 -1.0179  0.1060
  201MOL0     N26417   3.874   9.147   1.061 -0.0995 -0.4352  0.3598
  201MOL0     C26418   3.776   9.228   1.111  0.2647  0.6981 -0.0736
  201MOL0     C26419   3.671   9.165   1.060  0.4132  0.2337  0.1822
  201MOL0     C26420   3.532   9.234   1.066 -0.3134 -0.1573 -0.5953
  201MOL0     C26421   3.418   9.163   1.133  0.0240 -1.3331  0.9359
  201MOL0     C26422   3.300   9.263   1.128  0.2135  0.2662  0.1209
  201MOL0     C26423   3.187   9.222   1.226  0.0134 -0.4848 -0.3155
  201MOL0     O26424   3.228   9.190   1.359  0.2597 -0.2887  0.8903
  201MOL0     C26425   3.126   9.109   1.416  0.4642  0.3998 -0.0290
  201MOL0     C26426   3.112   8.968   1.384  0.3773 -0.1726  0.0482
  201MOL0     C26427   3.016   8.890   1.450  0.1659 -1.1865 -0.6917
  201MOL0     C26428   2.947   8.943   1.567 -1.0648  0.6780  0.5873
  201MOL0     C26429   2.862   8.853   1.636  0.2711 -0.0438 -0.0600
  201MOL0     O26430   2.892   8.716   1.613  0.2746  0.0470 -0.6557
  201MOL0     C26431   2.791   8.647   1.666  0.2453 -0.7813 -0.9782
  201MOL0     C26432   2.788   8.620   1.803 -0.9300  0.9486  0.0810
  201MOL0     C26433   2.691   8.531   1.857  0.0804  0.4078 -0.4209
  201MOL0     C26434   2.598   8.472   1.769 -0.1378 -0.0431 -0.6573
  201MOL0     O26435   2.515   8.365   1.810 -0.2511  0.1520 -0.1676
  201MOL0     C26436   2.414   8.318   1.720 -0.3756 -0.2365  0.3525
  201MOL0     C26437   2.332   8.202   1.779  1.0891  0.0999 -0.7271
  201MOL0     C26438   2.260   8.232   1.909  0.7886 -0.2919 -0.1437
  201MOL0     C26439   2.142   8.331   1.886 -0.4602 -0.5286 -0.5975
  201MOL0     C26440   2.075   8.379   2.016 -0.2340 -0.0293 -0.3245
  201MOL0     C26441   1.943   8.459   1.998  1.1620 -0.3371  0.4834
  201MOL0     C26442   1.903   8.509   2.139 -1.0553  0.3608  1.0685
  201MOL0     C26443   1.786   8.612   2.120 -0.8419  0.1916 -0.0473
  201MOL0    Cl26444   1.643   8.535   2.052 -0.2459 -0.1173 -0.2501
  201MOL0     C26445   2.597   8.510   1.628  0.7763 -0.4434  0.7789
  201MOL0     C26446   2.688   8.610   1.584 -0.8649  0.1366  0.0857
  201MOL0     O26447   2.779   8.899   1.717 -0.0616 -0.4065  0.0272
  201MOL0     C26448   2.971   9.081   1.600  0.7363 -0.5248 -0.0233
  201MOL0     C26449   3.066   9.153   1.531 -0.1652 -0.0549 -0.6748
  201MOL0     N26450   3.702   9.063   0.980 -0.6534  1.1431 -0.0744
  201MOL0     N26451   3.832   9.053   0.973  0.2920 -0.0821 -0.7813
  201MOL0     C26452   4.861   8.528   1.370  0.2741  0.4127 -0.3492
  201MOL0     C26453   4.953   8.435   1.423  0.3476 -0.2908 -1.3296
  201MOL0     C26454   5.231   8.245   1.748 -0.1324  0.2666 -0.5079
  201MOL0     C26455   5.304   8.270   1.863 -0.4627  0.8711  0.4988
  201MOL0     C26456   5.415   8.195   1.890  0.0812  0.8080 -0.1624
  201MOL0     C26457   5.473   8.092   1.807  1.0849 -0.5586 -1.6963
  201MOL0     O26458   5.584   8.014   1.821  0.7467 -0.9693  0.1964
  201MOL0     C26459   5.692   8.043   1.899  0.0636 -0.4831  0.2479
  201MOL0     C26460   5.749   7.914   1.959  0.2195  0.1077 -0.2842
  201MOL0     C26461   5.885   7.934   2.036  0.4639 -0.7887  0.3067
  201MOL0     C26462   5.868   8.016   2.166  0.0193 -0.2480  0.5926
  201MOL0     C26463   5.829   7.940   2.288  1.2891  0.4366 -1.0141
  201MOL0     C26464   5.809   7.879   2.394  0.0578  0.5561 -0.0757
  201MOL0     C26465   5.398   8.076   1.691  0.8482 -0.0219  0.2482
  201MOL0     C26466   5.267   8.139   1.661  0.4172 -0.4021 -0.7387
  201MOL0     H26467   4.840   8.415   1.739 -2.8556 -0.7622 -0.2662
  201MOL0     H26468   4.687   8.584   1.657  1.1401 -3.0713  2.2675
  201MOL0     H26469   4.730   8.798   1.251 -0.1033  2.1787  0.5438
  201MOL0     H26470   4.822   8.796   1.397  0.6660  3.1976 -0.8468
  201MOL0     H26471   4.682   9.006   1.385 -1.3995  0.2315  2.8687
  201MOL0     H26472   4.641   8.918   1.526  1.5500  0.6489  0.0042
  201MOL0     H26473   4.420   8.895   1.451 -0.3573 -0.8150 -0.1864
  201MOL0     H26474   4.494   8.803   1.310  3.6630 -0.9489 -0.1487
  201MOL0     H26475   4.440   9.102   1.316 -0.7332 -1.0684 -0.2364
  201MOL0     H26476   4.513   9.001   1.191  1.4273 -0.4172  0.6962
  201MOL0     H26477   4.228   8.964   1.300  0.1492  0.5723  0.0249
  201MOL0     H26478   4.307   8.877   1.168  1.6825  1.7052 -2.9668
  201MOL0     H26479   4.303   9.082   1.034  1.0492 -3.0063 -0.5812
  201MOL0     H26480   4.243   9.170   1.174 -0.4455 -1.1102 -0.8284
  201MOL0     H26481   4.122   9.006   0.978 -0.4169 -2.2547  0.4075
  201MOL0     H26482   4.061   8.958   1.125 -0.2930 -0.6878 -1.5487
  201MOL0     H26483   4.074   9.247   1.033  0.0403 -0.9098  0.6489
  201MOL0     H26484   4.026   9.209   1.189 -1.3711 -0.8824  0.0853
  201MOL0     H26485   3.772   9.320   1.169  0.5757  0.8879 -0.3538
  201MOL0     H26486   3.524   9.267   0.962 -1.2065 -0.8847 -0.7667
  201MOL0     H26487   3.555   9.332   1.109 -1.8572  1.0953 -2.4456
  201MOL0     H26488   3.447   9.137   1.235  1.5350 -0.1222  0.8350
  201MOL0     H26489   3.393   9.071   1.079 -0.2565  0.5259 -2.3613
  201MOL0     H26490   3.339   9.358   1.164 -0.0522  0.7564 -0.8280
  201MOL0     H26491   3.260   9.281   1.027 -2.5742 -0.5967  0.9752
  201MOL0     H26492   3.135   9.138   1.180 -1.7766  0.0921  0.5745
  201MOL0     H26493   3.109   9.299   1.222  0.5008  0.0991 -5.4568
  201MOL0     H26494   3.171   8.922   1.306  2.9327 -3.1674  3.4313
  201MOL0     H26495   2.996   8.791   1.410  0.2261 -0.1094 -3.6259
  201MOL0     H26496   2.858   8.663   1.874 -1.2855  0.2714  0.8563
  201MOL0     H26497   2.697   8.492   1.958  0.3901  1.2430 -0.1058
  201MOL0     H26498   2.451   8.282   1.623  1.6001 -0.4292  1.1397
  201MOL0     H26499   2.354   8.406   1.693 -0.6377 -0.8448 -1.1794
  201MOL0     H26500   2.409   8.127   1.798 -0.8972 -2.0499 -0.7143
  201MOL0     H26501   2.270   8.164   1.697  0.2079 -2.2249  0.9084
  201MOL0     H26502   2.325   8.279   1.983 -2.3141  0.0544  2.5750
  201MOL0     H26503   2.223   8.138   1.952 -0.8769  1.8984  3.7175
  201MOL0     H26504   2.179   8.414   1.825  0.0867 -0.1042  0.2860
  201MOL0     H26505   2.067   8.275   1.829  1.8922 -1.4758 -2.9690
  201MOL0     H26506   2.150   8.435   2.072  0.8198  1.5631 -3.1152
  201MOL0     H26507   2.054   8.292   2.079  2.2542  0.8286  1.8824
  201MOL0     H26508   1.861   8.401   1.954  1.5248 -1.3569  1.1159
  201MOL0     H26509   1.964   8.540   1.927  3.3014  0.7899  2.2624
  201MOL0     H26510   1.869   8.426   2.203 -1.2530 -1.0938 -0.8302
  201MOL0     H26511   1.993   8.561   2.172 -1.6006  2.8818 -1.1093
  201MOL0     H26512   1.809   8.696   2.054 -1.9450 -0.3429 -1.1496
  201MOL0     H26513   1.758   8.647   2.220  0.5439 -0.0335  0.4428
  201MOL0     H26514   2.521   8.482   1.555  1.6672 -1.2221  0.1170
  201MOL0     H26515   2.685   8.651   1.483  1.5812 -1.7366 -0.8489
  201MOL0     H26516   2.919   9.126   1.684 -0.9435  0.9082 -1.7332
  201MOL0     H26517   3.078   9.256   1.560  0.1943 -0.5846  1.1797
  201MOL0     H26518   4.862   8.544   1.263  2.1768  0.0854 -0.4086
  201MOL0     H26519   5.034   8.390   1.367  0.7435 -0.5581 -0.5525
  201MOL0     H26520   5.268   8.344   1.934 -1.8934  0.9304 -0.2562
  201MOL0     H26521   5.457   8.213   1.988 -3.6565 -2.0864  2.2281
  201MOL0     H26522   5.665   8.121   1.970  0.2089 -0.8885  0.7569
  201MOL0     H26523   5.772   8.093   1.843  0.0539  1.5690  1.9601
  201MOL0     H26524   5.678   7.872   2.031 -0.3721  3.4687  1.2336
  201MOL0     H26525   5.757   7.837   1.882 -0.5936 -1.3903  1.0627
  201MOL0     H26526   5.956   7.985   1.971  1.1721 -0.9678  0.9167
  201MOL0     H26527   5.934   7.839   2.060 -0.9420 -1.7489 -0.5023
  201MOL0     H26528   5.963   8.067   2.185 -0.6424  0.7972  1.2335
  201MOL0     H26529   5.793   8.094   2.146  0.4122 -0.1633 -0.6070
  201MOL0     H26530   5.786   7.812   2.474  0.2625  1.0116  0.3665
  201MOL0     H26531   5.417   8.000   1.616  1.7993  0.2277  0.2328
  201MOL0     H26532   5.208   8.112   1.573 -1.8492 -1.2554  0.9577
  202MOL0     O26533   3.147   9.999   2.736 -0.1368  0.5279  0.7215
  202MOL0     C26534   3.216   9.976   2.629 -0.1620  0.3012  0.1640
  202MOL0     O26535   3.175   9.899   2.520  1.0972  1.1185 -0.0189
  202MOL0     C26536   3.038   9.874   2.512 -1.0576 -0.8151 -0.2553
  202MOL0     C26537   2.954   9.976   2.453 -0.5332 -0.2888 -1.1107
  202MOL0     C26538   2.817   9.951   2.438  0.5871 -0.2295 -0.6182
  202MOL0     C26539   2.769   9.825   2.465 -0.4984 -0.6397  0.1190
  202MOL0     O26540   2.633   9.816   2.462  0.1940  0.0621  0.6383
  202MOL0     C26541   2.579   9.688   2.451  0.2317 -0.3972  0.8663
  202MOL0     C26542   2.431   9.705   2.504 -0.3969  0.2157 -0.4352
  202MOL0     C26543   2.322   9.605   2.449  0.5509  0.3704 -0.5145
  202MOL0     C26544   2.171   9.621   2.480 -0.2989 -0.4149  0.1396
  202MOL0     C26545   2.143   9.773   2.476  0.5897 -0.5304  0.5674
  202MOL0     C26546   1.995   9.793   2.502  0.0107  0.4578 -0.2847
  202MOL0     C26547   1.959   9.941   2.481  0.1192 -0.9169  0.3923
  202MOL0     C26548   1.809   9.973   2.503 -0.1362  0.6953  0.2199
  202MOL0     N26549   1.712   9.943   2.388 -0.5986 -0.0747 -0.5827
  202MOL0     C26550   1.587   9.997   2.377  0.8895 -0.5525  0.6384
  202MOL0     C26551   1.542   9.977   2.245  0.3137  0.8588  1.5161
  202MOL0     C26552   1.408  10.014   2.197  0.0745  0.6235  0.6990
  202MOL0     C26553   1.305   9.906   2.226  1.0905 -0.0556  0.0757
  202MOL0     C26554   1.167   9.970   2.199  0.2266  1.0406  0.3944
  202MOL0     C26555   1.055   9.872   2.166 -0.3271 -0.7137  0.2033
  202MOL0     O26556   1.015   9.783   2.268  0.3768 -0.4057  0.2832
  202MOL0     C26557   0.906   9.709   2.235  0.5514  0.6037  0.6926
  202MOL0     C26558   0.913   9.573   2.251  0.9161 -0.2082  0.0569
  202MOL0     C26559   0.796   9.490   2.235  0.2915 -0.2081  1.1984
  202MOL0     C26560   0.679   9.542   2.186  0.2706 -1.1446 -0.5330
  202MOL0     C26561   0.564   9.459   2.148  0.6082 -0.3200  0.0257
  202MOL0     O26562   0.573   9.323   2.128  0.0449  0.3372 -0.6840
  202MOL0     C26563   0.463   9.248   2.108  1.3522 -0.3452 -0.3380
  202MOL0     C26564   0.374   9.225   2.215  0.6077  0.3740  1.2902
  202MOL0     C26565   0.270   9.130   2.198 -0.0951  0.2851  0.7500
  202MOL0     C26566   0.257   9.050   2.087 -0.1074 -0.2880 -0.0785
  202MOL0     O26567   0.150   8.953   2.079  0.4737  0.2414  0.1340
  202MOL0     C26568   0.066   8.941   1.968 -0.0564 -0.0311 -0.1454
  202MOL0     C26569  -0.056   9.028   1.971 -0.0374 -0.3951  0.9960
  202MOL0     C26570  -0.147   9.000   1.844 -0.3706  1.1273 -0.0710
  202MOL0     C26571  -0.212   9.128   1.798  0.2381  0.3442  0.6344
  202MOL0     C26572  -0.256   9.114   1.642 -0.2220  0.0088  0.3851
  202MOL0     C26573  -0.381   9.025   1.625 -0.3026 -0.0666 -0.7928
  202MOL0     C26574  -0.438   9.029   1.484 -0.5816  0.2333  0.1644
  202MOL0     C26575  -0.526   8.910   1.446  0.2610  0.4360  1.1603
  202MOL0    Cl26576  -0.572   8.907   1.276 -0.3605  0.3554 -0.0006
  202MOL0     C26577   0.349   9.069   1.987 -0.2535 -0.3085 -1.2128
  202MOL0     C26578   0.453   9.164   1.995 -0.2183 -0.6473  0.5794
  202MOL0     O26579   0.456   9.525   2.138 -1.2491 -0.8589 -0.4990
  202MOL0     C26580   0.672   9.683   2.159  0.6943  0.3506  0.6462
  202MOL0     C26581   0.784   9.758   2.193  0.2393 -0.2090 -0.4950
  202MOL0     N26582   1.645   9.915   2.175 -0.2153  0.7907 -1.8330
  202MOL0     N26583   1.745   9.894   2.265 -0.7027 -0.5994  0.2388
  202MOL0     C26584   2.851   9.726   2.513  0.0167  0.3475 -0.0003
  202MOL0     C26585   2.990   9.747   2.538  0.2959 -0.3029 -0.5210
  202MOL0     C26586   3.359  10.013   2.629  0.3954 -0.1286  0.3404
  202MOL0     C26587   3.424  10.063   2.743 -0.1905 -0.0249 -0.0377
  202MOL0     C26588   3.564  10.084   2.735  0.3036 -0.7135 -0.2884
  202MOL0     C26589   3.634  10.052   2.613  0.3629 -0.8911  0.7200
  202MOL0     O26590   3.767  10.082   2.608 -0.2343 -0.2143  0.4452
  202MOL0     C26591   3.865   9.970   2.598 -0.3216  0.1171  0.8783
  202MOL0     C26592   4.014  10.024   2.624 -0.1897 -0.1002  0.5069
  202MOL0     C26593   4.039  10.165   2.558  0.7857  0.3772 -0.1408
  202MOL0     C26594   4.178  10.210   2.564  0.3532  0.5012 -1.0135
  202MOL0     C26595   4.215  10.216   2.703 -0.2160  0.1563  0.2575
  202MOL0     C26596   4.263  10.204   2.815 -0.5532  0.3707 -0.2948
  202MOL0     C26597   3.572  10.001   2.503 -0.5067 -0.6003 -0.2086
  202MOL0     C26598   3.438   9.984   2.516 -0.0534  0.2679  0.0496
  202MOL0     H26599   3.004  10.067   2.420  0.8588 -1.0583 -1.1685
  202MOL0     H26600   2.749  10.016   2.383  0.4955  0.4692  0.2925
  202MOL0     H26601   2.619   9.617   2.524 -1.5109 -1.3620  0.9337
  202MOL0     H26602   2.567   9.651   2.349 -1.0092  0.2219  0.7721
  202MOL0     H26603   2.402   9.805   2.471 -0.7783  1.6024  3.5231
  202MOL0     H26604   2.423   9.701   2.613 -3.0851  1.0362 -0.5528
  202MOL0     H26605   2.338   9.498   2.467 -0.6342 -0.2709 -2.8803
  202MOL0     H26606   2.336   9.619   2.342  3.8926  1.2106 -0.0689
  202MOL0     H26607   2.120   9.561   2.404  0.2274  0.8526 -1.2672
  202MOL0     H26608   2.135   9.584   2.576 -1.1339  1.0854  0.4371
  202MOL0     H26609   2.153   9.800   2.371  0.0203  1.3108  0.9482
  202MOL0     H26610   2.214   9.838   2.528  2.0786 -0.9507 -0.8490
  202MOL0     H26611   1.978   9.779   2.609  3.3786  1.3141  0.4848
  202MOL0     H26612   1.932   9.723   2.445  0.4817 -4.2059  4.2009
  202MOL0     H26613   2.013  10.004   2.552 -0.4784  0.6838 -0.5121
  202MOL0     H26614   1.985   9.990   2.387 -0.2046 -1.8543 -0.2091
  202MOL0     H26615   1.799  10.080   2.526  1.4787  1.0178 -0.4460
  202MOL0     H26616   1.772   9.925   2.594 -1.2180 -0.4471 -0.7949
  202MOL0     H26617   1.541  10.047   2.462  1.1384 -0.0582  0.4833
  202MOL0     H26618   1.409  10.042   2.091 -0.3278  0.0281  0.5321
  202MOL0     H26619   1.385  10.105   2.253  2.3934  1.9150 -0.3096
  202MOL0     H26620   1.317   9.862   2.326 -0.4003 -1.2336 -0.2332
  202MOL0     H26621   1.319   9.819   2.162 -0.6192 -1.5977  1.6821
  202MOL0     H26622   1.138  10.022   2.291 -0.6688  1.4148 -0.0861
  202MOL0     H26623   1.172  10.051   2.124 -0.7898  1.1939  0.4727
  202MOL0     H26624   1.087   9.819   2.076 -4.1208  1.4839 -2.7608
  202MOL0     H26625   0.973   9.930   2.123 -0.8031 -3.4768 -2.9796
  202MOL0     H26626   1.006   9.534   2.291  2.3062  1.3604 -1.5130
  202MOL0     H26627   0.797   9.384   2.257 -0.0883 -0.8012 -1.3182
  202MOL0     H26628   0.376   9.295   2.298 -0.2045 -1.8370  3.2635
  202MOL0     H26629   0.196   9.138   2.277 -2.4496  0.3993 -1.3524
  202MOL0     H26630   0.030   8.838   1.978 -0.6221  0.2500  0.9211
  202MOL0     H26631   0.125   8.944   1.876  0.9051 -1.6419  0.3678
  202MOL0     H26632  -0.004   9.124   1.963  1.4012 -0.9136  3.3424
  202MOL0     H26633  -0.120   9.039   2.059  0.1196  1.9014  0.8654
  202MOL0     H26634  -0.217   8.917   1.857  0.7432  0.2609  0.6646
  202MOL0     H26635  -0.077   8.972   1.764 -3.0345  0.6429 -2.3656
  202MOL0     H26636  -0.295   9.145   1.867  0.1708 -0.9485  0.8988
  202MOL0     H26637  -0.146   9.214   1.807 -2.6055  2.8114 -0.2902
  202MOL0     H26638  -0.169   9.088   1.580  0.0855  3.0212 -0.5993
  202MOL0     H26639  -0.297   9.201   1.590 -2.9030 -3.4694 -4.0714
  202MOL0     H26640  -0.452   9.055   1.704 -0.2933  0.8840 -1.1391
  202MOL0     H26641  -0.360   8.920   1.648 -2.6087 -0.1924  1.1800
  202MOL0     H26642  -0.504   9.115   1.472 -2.7897 -1.5508 -1.2775
  202MOL0     H26643  -0.347   9.030   1.422 -0.3896  1.0154  0.4470
  202MOL0     H26644  -0.608   8.907   1.519 -1.5253 -0.5540 -0.7572
  202MOL0     H26645  -0.471   8.818   1.466 -1.2376 -1.1369 -1.4096
  202MOL0     H26646   0.347   9.001   1.902  1.4110  0.9624 -2.3538
  202MOL0     H26647   0.533   9.174   1.922  0.7223 -1.0298  1.5231
  202MOL0     H26648   0.587   9.721   2.105 -0.4729 -1.8644  0.8187
  202MOL0     H26649   0.771   9.866   2.197  0.3428 -0.1825  3.3342
  202MOL0     H26650   2.829   9.622   2.531  0.0361  0.1849 -0.8726
  202MOL0     H26651   3.050   9.661   2.567 -0.6057 -0.5097  0.8117
  202MOL0     H26652   3.377  10.090   2.837 -0.2039 -0.3771  0.0604
  202MOL0     H26653   3.609  10.129   2.823 -2.0265 -0.4040  0.8143
  202MOL0     H26654   3.878   9.936   2.495  1.7130  0.5890  0.9448
  202MOL0     H26655   3.843   9.879   2.655 -1.8366 -0.3626 -0.3965
  202MOL0     H26656   4.035  10.024   2.731  0.9931 -1.7913  0.3113
  202MOL0     H26657   4.087   9.950   2.591 -1.0260 -0.9754  0.5618
  202MOL0     H26658   3.989  10.244   2.615  0.1908  1.3875 -1.9913
  202MOL0     H26659   4.004  10.159   2.455  3.3405 -0.9048 -1.0171
  202MOL0     H26660   4.246  10.151   2.502 -0.1646 -2.1924  0.7869
  202MOL0     H26661   4.183  10.313   2.529 -0.4004  1.3476  1.2205
  202MOL0     H26662   4.297  10.184   2.915  0.4612 -2.6880 -1.1241
  202MOL0     H26663   3.635   9.955   2.428  0.8449  1.5181 -0.4430
  202MOL0     H26664   3.399   9.926   2.433 -1.1482  0.7139  0.2301
  203MOL0     O26665   0.717  10.118   7.232  0.1074  0.3139  0.7872
  203MOL0     C26666   0.829  10.147   7.265  0.3156 -0.5382  0.4100
  203MOL0     O26667   0.929  10.192   7.183 -0.2660  0.1562  0.0388
  203MOL0     C26668   0.912  10.164   7.045  0.7801  0.6014 -0.7169
  203MOL0     C26669   1.001  10.081   6.978  0.7857 -0.3026  0.0246
  203MOL0     C26670   0.988  10.074   6.834 -0.8326  0.0188  0.4467
  203MOL0     C26671   0.891  10.150   6.763  0.1113 -0.1480 -0.2821
  203MOL0     O26672   0.864  10.142   6.630  0.2539  0.7911 -0.1029
  203MOL0     C26673   0.801  10.021   6.597  0.8605  0.3099 -0.4933
  203MOL0     C26674   0.752  10.032   6.447 -0.3988 -0.5557  0.2587
  203MOL0     C26675   0.618  10.097   6.406  0.2664 -1.3051 -0.3790
  203MOL0     C26676   0.611  10.248   6.444 -0.6412 -0.0298  0.5522
  203MOL0     C26677   0.478  10.323   6.396 -0.6162  0.3463  0.0218
  203MOL0     C26678   0.352  10.272   6.468 -0.3719  0.0162  0.1332
  203MOL0     C26679   0.347  10.295   6.624 -0.1684 -0.4167 -0.2643
  203MOL0     C26680   0.257  10.191   6.696 -0.5430  0.4410 -0.5135
  203MOL0     N26681   0.115  10.206   6.642 -0.4983  0.7172  0.0363
  203MOL0     C26682   0.061  10.111   6.562  0.4063  0.4148 -0.9501
  203MOL0     C26683  -0.065  10.159   6.561 -0.2695 -0.9215  0.0613
  203MOL0     C26684  -0.168  10.089   6.469  0.2752  0.3170 -0.2532
  203MOL0     C26685  -0.287  10.058   6.558  0.3642 -0.8168 -0.2264
  203MOL0     C26686  -0.391   9.967   6.490  0.5037  0.4100 -0.6456
  203MOL0     C26687  -0.446  10.007   6.351  0.5146 -0.5574 -0.1025
  203MOL0     O26688  -0.510  10.133   6.357 -0.6279  0.3736  0.3051
  203MOL0     C26689  -0.622  10.154   6.436 -0.0455 -0.6487 -0.4355
  203MOL0     C26690  -0.618  10.269   6.517 -0.6133  0.1148 -0.0594
  203MOL0     C26691  -0.721  10.317   6.597 -0.3361 -0.2797 -0.4729
  203MOL0     C26692  -0.830  10.225   6.620  0.0436  0.3506  0.3700
  203MOL0     C26693  -0.940  10.256   6.722  0.5080  0.6424  0.1742
  203MOL0     O26694  -0.897  10.327   6.826  0.7250 -0.5383 -0.8249
  203MOL0     C26695  -0.989  10.379   6.917 -0.0383  0.4464 -1.0424
  203MOL0     C26696  -0.977  10.355   7.050  0.7358 -0.1028  0.3271
  203MOL0     C26697  -1.074  10.415   7.129  0.3939 -0.7062  0.9555
  203MOL0     C26698  -1.167  10.520   7.078  0.3502  0.7608  0.1999
  203MOL0     O26699  -1.256  10.591   7.156 -0.4532 -0.0208  0.6312
  203MOL0     C26700  -1.268  10.560   7.294 -0.9224  1.2445 -0.5137
  203MOL0     C26701  -1.370  10.639   7.362  1.5441  0.3936  0.0590
  203MOL0     C26702  -1.323  10.753   7.451  0.4263 -0.0483  0.6372
  203MOL0     C26703  -1.424  10.858   7.462 -0.0874 -0.8419 -0.2617
  203MOL0     C26704  -1.362  10.982   7.534  0.3974  0.5736 -0.2423
  203MOL0     C26705  -1.231  11.046   7.482  0.9820 -0.0611 -0.3464
  203MOL0     C26706  -1.270  11.097   7.339 -0.6570 -0.6952 -0.2038
  203MOL0     C26707  -1.191  11.222   7.297  0.4060  0.5087  0.1000
  203MOL0    Cl26708  -1.009  11.215   7.322  0.1159 -0.4292 -0.4033
  203MOL0     C26709  -1.169  10.542   6.940 -0.5501 -0.4495  0.1767
  203MOL0     C26710  -1.081  10.467   6.860 -0.4001  0.5295  0.9411
  203MOL0     O26711  -1.054  10.215   6.705  0.2295  1.4195 -0.0675
  203MOL0     C26712  -0.825  10.103   6.548 -0.2444  0.9061  0.1745
  203MOL0     C26713  -0.724  10.068   6.460 -0.6441 -0.2700  0.0368
  203MOL0     N26714  -0.088  10.262   6.643 -0.1454  0.3369  0.6800
  203MOL0     N26715   0.025  10.305   6.684 -0.3607  0.1586  0.2392
  203MOL0     C26716   0.812  10.239   6.833  0.7280 -0.9940  0.2325
  203MOL0     C26717   0.814  10.239   6.972  0.6536  0.4475 -0.1886
  203MOL0     C26718   0.873  10.126   7.401  0.3942 -0.6425  0.6165
  203MOL0     C26719   1.008  10.130   7.430  0.1567  0.0306 -0.0824
  203MOL0     C26720   1.046  10.114   7.557 -0.3253 -0.3547 -0.3490
  203MOL0     C26721   0.954  10.099   7.662  0.3065 -0.1926  0.0288
  203MOL0     O26722   0.996  10.090   7.794  0.3015 -0.7071  0.0689
  203MOL0     C26723   0.936   9.985   7.877 -0.5514  0.6164 -0.0654
  203MOL0     C26724   0.978   9.846   7.813 -0.2039  0.6805  0.4598
  203MOL0     C26725   1.118   9.820   7.856 -0.7607 -0.2233 -0.0571
  203MOL0     C26726   1.177   9.694   7.779  0.2687 -0.1648  0.8130
  203MOL0     C26727   1.256   9.605   7.866 -0.9947 -0.2644  0.2182
  203MOL0     C26728   1.277   9.525   7.951  0.2428 -0.0857 -0.6237
  203MOL0     C26729   0.813  10.100   7.630  0.2728  0.1589 -0.4088
  203MOL0     C26730   0.777  10.102   7.497 -0.1029  0.2056  0.3665
  203MOL0     H26731   1.064  10.004   7.021  1.0028 -0.2626 -0.2210
  203MOL0     H26732   1.048   9.997   6.786 -0.2644  1.2376 -0.8667
  203MOL0     H26733   0.716  10.001   6.663  1.3462 -1.2502 -0.2901
  203MOL0     H26734   0.876   9.942   6.612  0.9068 -0.1380 -2.6726
  203MOL0     H26735   0.742   9.934   6.399 -1.3291  0.4069 -1.6144
  203MOL0     H26736   0.836  10.070   6.388 -0.7511  1.1873  0.8409
  203MOL0     H26737   0.540  10.045   6.462 -0.3459  0.4839  0.4869
  203MOL0     H26738   0.609  10.092   6.297 -1.5685 -0.8559 -0.2836
  203MOL0     H26739   0.620  10.256   6.553 -0.2898 -0.0564  0.5280
  203MOL0     H26740   0.696  10.302   6.401  1.4498 -2.1194  1.8008
  203MOL0     H26741   0.457  10.308   6.290 -0.5350  0.4646 -0.0121
  203MOL0     H26742   0.502  10.430   6.406 -1.7200  0.6265 -0.2564
  203MOL0     H26743   0.329  10.166   6.449 -2.0473  0.1388  1.2535
  203MOL0     H26744   0.264  10.322   6.427 -1.0769 -4.0594 -4.1989
  203MOL0     H26745   0.446  10.276   6.667 -0.4234  1.7685  1.4878
  203MOL0     H26746   0.338  10.403   6.639  3.6841  0.1280 -0.7799
  203MOL0     H26747   0.251  10.215   6.802  2.2488 -2.3820  0.4248
  203MOL0     H26748   0.278  10.084   6.680  1.0150  0.3395  1.7763
  203MOL0     H26749   0.113  10.036   6.503  1.3098 -1.0555  1.5427
  203MOL0     H26750  -0.127   9.992   6.440 -2.7782 -0.2151 -3.5663
  203MOL0     H26751  -0.198  10.148   6.382 -3.0442 -1.8972 -0.8248
  203MOL0     H26752  -0.334  10.152   6.587  1.4182 -0.5088  0.5325
  203MOL0     H26753  -0.249  10.002   6.644  1.3473 -1.4126 -1.0277
  203MOL0     H26754  -0.354   9.866   6.469 -0.7656 -0.2870  0.3556
  203MOL0     H26755  -0.467   9.937   6.563  0.2411  0.7551 -0.7802
  203MOL0     H26756  -0.524   9.941   6.312 -0.0095 -0.7855  1.2665
  203MOL0     H26757  -0.361  10.021   6.284  2.8074 -0.9439  2.5354
  203MOL0     H26758  -0.526  10.327   6.510 -0.3390  0.1296  2.5191
  203MOL0     H26759  -0.715  10.413   6.649  1.2571 -0.3459 -0.4957
  203MOL0     H26760  -0.896  10.295   7.092  1.2487  0.6773  0.4665
  203MOL0     H26761  -1.059  10.404   7.236  0.4794  0.5781  1.0963
  203MOL0     H26762  -1.165  10.564   7.328 -1.1400  2.5278  0.0390
  203MOL0     H26763  -1.303  10.457   7.311  2.2655 -0.0406 -1.0152
  203MOL0     H26764  -1.444  10.582   7.420  0.7320  0.4672 -0.8655
  203MOL0     H26765  -1.431  10.677   7.279  0.9403 -2.7901 -1.0958
  203MOL0     H26766  -1.237  10.789   7.395  0.2219 -0.6558 -0.0795
  203MOL0     H26767  -1.287  10.715   7.547  0.8018  0.2278  0.6061
  203MOL0     H26768  -1.459  10.887   7.362 -2.4695 -0.2977  0.6656
  203MOL0     H26769  -1.514  10.828   7.516 -0.8392 -0.0618 -1.0307
  203MOL0     H26770  -1.341  10.958   7.639 -2.9080  0.9816  0.6149
  203MOL0     H26771  -1.440  11.058   7.540 -1.7530 -1.4324 -1.4003
  203MOL0     H26772  -1.143  10.981   7.490  2.3403  1.8977  2.1083
  203MOL0     H26773  -1.215  11.128   7.552 -2.1388 -0.2794  0.7613
  203MOL0     H26774  -1.253  11.018   7.266 -0.7821 -3.4988  2.5775
  203MOL0     H26775  -1.375  11.126   7.332 -0.7984 -1.1712 -0.0886
  203MOL0     H26776  -1.229  11.302   7.361 -1.6822  0.9092 -1.5374
  203MOL0     H26777  -1.214  11.247   7.193  0.5347 -0.9544 -0.3047
  203MOL0     H26778  -1.226  10.619   6.889 -0.0415  0.0732  0.3846
  203MOL0     H26779  -1.079  10.486   6.753  0.4905  1.8331  1.1657
  203MOL0     H26780  -0.903  10.030   6.566  0.6938 -0.1941 -0.1733
  203MOL0     H26781  -0.739   9.978   6.400  0.5029  1.0444 -2.3640
  203MOL0     H26782   0.750  10.309   6.778  0.1883 -0.0630  1.9349
  203MOL0     H26783   0.752  10.305   7.031 -1.0435 -2.0215  0.9962
  203MOL0     H26784   1.083  10.145   7.353 -0.3743  1.2339 -0.3887
  203MOL0     H26785   1.152  10.120   7.579 -0.2429 -0.4481 -0.7079
  203MOL0     H26786   0.827   9.971   7.878 -0.3114 -1.8567 -1.2312
  203MOL0     H26787   0.968   9.993   7.981 -0.6185  2.7049 -0.1636
  203MOL0     H26788   0.913   9.766   7.848  0.1708 -0.2498 -0.8824
  203MOL0     H26789   0.977   9.851   7.703  0.8662 -1.1222  0.3373
  203MOL0     H26790   1.115   9.806   7.964 -3.3714 -1.4649 -0.2198
  203MOL0     H26791   1.185   9.899   7.822  2.0353 -2.9831 -1.4700
  203MOL0     H26792   1.096   9.638   7.731  0.5350  1.0846 -1.2354
  203MOL0     H26793   1.247   9.735   7.705  0.5982  0.9649  1.7143
  203MOL0     H26794   1.287   9.449   8.026  1.1309  0.4264 -0.2165
  203MOL0     H26795   0.738  10.091   7.708 -0.5394 -2.3554 -1.3863
  203MOL0     H26796   0.673  10.092   7.467  0.4068 -3.0195 -0.5954
  204MOL0     O26797   5.925   2.447   2.373  1.0502  0.4938  0.0800
  204MOL0     C26798   5.908   2.333   2.413  1.5060  0.3665  0.2275
  204MOL0     O26799   5.840   2.296   2.528  0.3961 -0.5785  0.1532
  204MOL0     C26800   5.803   2.397   2.613 -0.0215  0.1036 -0.7988
  204MOL0     C26801   5.738   2.517   2.569  0.0595  0.3670 -0.8403
  204MOL0     C26802   5.710   2.627   2.657  0.3513 -1.0312  0.5704
  204MOL0     C26803   5.731   2.607   2.796 -0.0838 -0.2414  0.9610
  204MOL0     O26804   5.701   2.690   2.900  0.3480 -0.2708 -0.4970
  204MOL0     C26805   5.630   2.810   2.872 -0.8984 -0.5977 -0.8201
  204MOL0     C26806   5.508   2.816   2.951  0.5223 -0.6935 -0.4235
  204MOL0     C26807   5.424   2.943   2.964  0.3247 -0.2306  0.3582
  204MOL0     C26808   5.368   2.991   2.828 -0.3840 -0.3300  0.2264
  204MOL0     C26809   5.357   3.144   2.830  0.1848 -0.2107 -0.0922
  204MOL0     C26810   5.258   3.200   2.943 -0.4154 -0.5383 -0.2282
  204MOL0     C26811   5.227   3.342   2.918  0.0867 -0.2855  0.4585
  204MOL0     C26812   5.341   3.431   2.865  0.5161  0.2242 -0.4747
  204MOL0     N26813   5.303   3.579   2.875  0.4682  0.6584 -0.1684
  204MOL0     C26814   5.284   3.645   2.995 -0.5999  0.1859  0.2945
  204MOL0     C26815   5.251   3.767   2.963 -0.2695 -0.4727  0.3056
  204MOL0     C26816   5.204   3.888   3.043  0.1814 -0.3724 -0.6261
  204MOL0     C26817   5.293   3.905   3.168  0.2456 -0.3931 -0.2105
  204MOL0     C26818   5.443   3.925   3.145 -0.3546  0.3474  0.2857
  204MOL0     C26819   5.521   3.880   3.270  0.3242  0.9441  0.4785
  204MOL0     O26820   5.505   3.745   3.318  0.8109 -0.5349 -0.2105
  204MOL0     C26821   5.572   3.643   3.249  1.5533  0.9218 -0.5747
  204MOL0     C26822   5.566   3.522   3.318 -0.6247  0.1045  0.4666
  204MOL0     C26823   5.648   3.421   3.269  0.5566 -0.5153 -0.2435
  204MOL0     C26824   5.726   3.434   3.155 -0.0310  0.3886 -0.0693
  204MOL0     C26825   5.813   3.314   3.098  0.4191  0.2241 -0.3397
  204MOL0     O26826   5.878   3.329   2.979 -0.9433 -0.6538  0.2119
  204MOL0     C26827   5.931   3.211   2.929  0.1468 -0.0231 -1.0406
  204MOL0     C26828   5.868   3.092   2.909 -0.7559  0.2833  0.5912
  204MOL0     C26829   5.938   2.986   2.855  0.2815  0.2000  0.4966
  204MOL0     C26830   6.075   2.991   2.828  0.0461 -0.4543  0.1542
  204MOL0     O26831   6.136   2.892   2.748  0.9159 -0.5771 -0.4097
  204MOL0     C26832   6.080   2.766   2.724  0.4751  0.4417  0.3176
  204MOL0     C26833   6.199   2.708   2.648 -0.3664 -0.0597 -0.2862
  204MOL0     C26834   6.143   2.597   2.562  0.1412 -0.8992  0.2893
  204MOL0     C26835   6.248   2.482   2.534 -0.6111 -0.5596 -0.0656
  204MOL0     C26836   6.378   2.538   2.478 -0.1942  0.0700  0.2305
  204MOL0     C26837   6.354   2.615   2.344  0.2819 -0.3519 -0.4716
  204MOL0     C26838   6.297   2.536   2.229  0.4213 -0.4523  0.5750
  204MOL0     C26839   6.349   2.554   2.086  0.1684 -0.4830 -0.8339
  204MOL0    Cl26840   6.498   2.448   2.064 -0.0824  0.5396 -0.5961
  204MOL0     C26841   6.143   3.114   2.855  0.3924 -0.7097  0.2679
  204MOL0     C26842   6.074   3.217   2.912  0.8806 -0.5955  0.1636
  204MOL0     O26843   5.814   3.214   3.162  0.2203 -0.4072 -0.9395
  204MOL0     C26844   5.724   3.554   3.088  0.2812 -0.4513 -0.1640
  204MOL0     C26845   5.653   3.660   3.137 -0.1699  0.6903  0.2151
  204MOL0     N26846   5.241   3.770   2.826  0.0387  0.1550 -0.6175
  204MOL0     N26847   5.268   3.658   2.766 -1.0211  0.6107  0.1072
  204MOL0     C26848   5.796   2.489   2.833 -0.2187 -1.2060 -0.5378
  204MOL0     C26849   5.834   2.391   2.746  0.0393  0.3787  0.1465
  204MOL0     C26850   5.970   2.232   2.329  0.7611  1.1280 -0.4251
  204MOL0     C26851   5.994   2.260   2.194  0.2319  1.1747 -0.3020
  204MOL0     C26852   6.049   2.158   2.106 -0.2226  0.7447 -0.1301
  204MOL0     C26853   6.069   2.026   2.151  0.5531  0.8415 -0.7761
  204MOL0     O26854   6.106   1.915   2.082 -0.2192 -0.5344  0.0250
  204MOL0     C26855   6.176   1.940   1.960  0.0787 -0.1261 -0.2231
  204MOL0     C26856   6.318   1.980   2.004 -1.1056  0.3078 -0.7100
  204MOL0     C26857   6.424   1.955   1.891  0.8447  0.3088  0.3278
  204MOL0     C26858   6.550   2.033   1.910  0.2353 -0.7138 -0.1136
  204MOL0     C26859   6.631   1.964   2.014  0.4772 -0.0233 -0.0231
  204MOL0     C26860   6.685   1.887   2.085  0.0821  0.7398 -0.5691
  204MOL0     C26861   6.039   2.000   2.291  0.0797 -0.4489 -0.3689
  204MOL0     C26862   5.984   2.097   2.370  0.0895 -0.6216 -0.5806
  204MOL0     H26863   5.695   2.532   2.471 -1.7607 -1.9698 -0.5014
  204MOL0     H26864   5.673   2.720   2.615 -0.4990  0.0758  3.5291
  204MOL0     H26865   5.612   2.833   2.767  1.9760  0.3236 -1.1896
  204MOL0     H26866   5.686   2.892   2.919 -2.6501  1.7475 -2.6131
  204MOL0     H26867   5.530   2.804   3.058 -0.3354 -3.8722 -0.5073
  204MOL0     H26868   5.437   2.743   2.912  0.7065 -1.1284  0.0462
  204MOL0     H26869   5.490   3.016   3.012 -0.1527  0.7314 -0.4292
  204MOL0     H26870   5.336   2.940   3.029 -1.4414 -0.7988 -1.9326
  204MOL0     H26871   5.446   2.979   2.752  0.9179  4.5282  0.4240
  204MOL0     H26872   5.276   2.938   2.803  0.0258 -0.6538 -0.6430
  204MOL0     H26873   5.322   3.176   2.732 -1.1548 -2.3287 -0.3686
  204MOL0     H26874   5.457   3.189   2.828 -0.9187  2.5431 -3.7648
  204MOL0     H26875   5.294   3.182   3.044 -4.2739  1.8224  1.8098
  204MOL0     H26876   5.163   3.146   2.935 -1.2118  0.7184  0.3389
  204MOL0     H26877   5.145   3.353   2.846 -1.5609 -0.1196  2.2921
  204MOL0     H26878   5.179   3.372   3.011  0.4095  3.8576 -0.5028
  204MOL0     H26879   5.370   3.414   2.761  0.7251 -0.2867 -0.3373
  204MOL0     H26880   5.435   3.417   2.919 -0.1944  1.7523  1.2615
  204MOL0     H26881   5.266   3.598   3.091  2.0415 -0.2303  0.6838
  204MOL0     H26882   5.100   3.870   3.072  0.4070 -1.2622 -0.3311
  204MOL0     H26883   5.193   3.973   2.975 -1.9156  0.3964  0.5562
  204MOL0     H26884   5.276   3.815   3.228 -1.9060  0.7544  1.0471
  204MOL0     H26885   5.260   3.994   3.222  3.5147  1.4920 -1.0479
  204MOL0     H26886   5.479   3.866   3.060 -1.5506  1.4367 -1.0297
  204MOL0     H26887   5.453   4.031   3.122  0.3333  0.8788  2.7266
  204MOL0     H26888   5.489   3.953   3.345 -1.0547  1.0394 -0.1656
  204MOL0     H26889   5.630   3.892   3.266  0.0403  4.6674 -2.7029
  204MOL0     H26890   5.494   3.504   3.397 -0.9071 -0.7900  0.0204
  204MOL0     H26891   5.631   3.324   3.315 -1.0783  0.3183  1.0312
  204MOL0     H26892   5.761   3.088   2.923 -1.0311  0.4672 -1.1597
  204MOL0     H26893   5.880   2.899   2.826  2.3664 -1.8904  2.2254
  204MOL0     H26894   5.991   2.766   2.659  0.6118  0.0950  0.1288
  204MOL0     H26895   6.058   2.711   2.816  0.8379 -0.0390  0.1224
  204MOL0     H26896   6.258   2.650   2.720  2.4655  1.3092 -1.3513
  204MOL0     H26897   6.265   2.778   2.596  0.6246 -0.9711 -0.3007
  204MOL0     H26898   6.105   2.635   2.467 -0.1165 -0.2541  0.6419
  204MOL0     H26899   6.059   2.547   2.610 -1.0083  0.1392 -0.6034
  204MOL0     H26900   6.276   2.422   2.622 -0.0150 -2.1750 -1.2924
  204MOL0     H26901   6.197   2.404   2.477 -0.8978 -3.0357  3.2578
  204MOL0     H26902   6.453   2.461   2.459 -1.7041 -1.3029 -0.3868
  204MOL0     H26903   6.432   2.598   2.552 -4.1373  1.4251  2.2548
  204MOL0     H26904   6.455   2.648   2.318 -0.6999  4.1817  0.6950
  204MOL0     H26905   6.317   2.716   2.361  1.5013  0.1984 -0.9523
  204MOL0     H26906   6.285   2.433   2.263  2.0068 -0.2039  2.0495
  204MOL0     H26907   6.203   2.589   2.213 -0.2856 -1.6414  0.7023
  204MOL0     H26908   6.360   2.662   2.077 -5.5911  0.7662  2.3116
  204MOL0     H26909   6.289   2.522   2.001  3.1020 -1.8719 -2.5696
  204MOL0     H26910   6.247   3.126   2.829  1.1980 -3.3222  1.8948
  204MOL0     H26911   6.118   3.313   2.939 -2.2382  0.3927  2.2997
  204MOL0     H26912   5.785   3.577   3.001 -0.0296  0.4930 -0.1419
  204MOL0     H26913   5.668   3.759   3.094 -1.8602  0.0269 -2.1209
  204MOL0     H26914   5.815   2.476   2.939  1.5651  2.4957 -0.2515
  204MOL0     H26915   5.886   2.303   2.783 -2.3191 -1.6042 -0.9598
  204MOL0     H26916   5.985   2.359   2.151  1.4617  2.4722  2.2053
  204MOL0     H26917   6.068   2.185   2.003 -2.0374 -1.6247 -1.1924
  204MOL0     H26918   6.126   2.014   1.897  2.1030  0.6514 -1.0218
  204MOL0     H26919   6.172   1.844   1.908  0.7806 -0.2572 -0.0447
  204MOL0     H26920   6.319   2.084   2.040 -1.9533  0.9309 -2.3810
  204MOL0     H26921   6.345   1.922   2.092 -0.8804 -2.3787 -2.4293
  204MOL0     H26922   6.374   1.994   1.802  0.6987  0.2716  0.3919
  204MOL0     H26923   6.442   1.847   1.886 -3.5866 -0.5814 -1.3781
  204MOL0     H26924   6.597   2.034   1.811 -1.1029 -0.6760 -0.7674
  204MOL0     H26925   6.526   2.136   1.937 -1.6576 -1.1817  0.1356
  204MOL0     H26926   6.743   1.827   2.152  0.1618  2.8723  1.4163
  204MOL0     H26927   6.048   1.900   2.333 -0.2119  0.3248  1.6584
  204MOL0     H26928   5.951   2.076   2.471  0.8612 -1.2718 -0.4508
  205MOL0     O26929   0.196   4.676   7.945 -0.5817 -0.4613  0.3516
  205MOL0     C26930   0.169   4.746   7.844  0.5771  0.3147 -0.8831
  205MOL0     O26931   0.262   4.798   7.758 -0.7687 -0.1631  0.4795
  205MOL0     C26932   0.398   4.752   7.786  0.6344  0.0670  0.2254
  205MOL0     C26933   0.495   4.843   7.834  0.3691 -0.7520 -0.2639
  205MOL0     C26934   0.623   4.805   7.874 -0.8105 -0.1861 -0.1233
  205MOL0     C26935   0.670   4.667   7.858  0.2868  0.1289  0.4436
  205MOL0     O26936   0.800   4.636   7.887 -0.2596 -0.1249  0.2110
  205MOL0     C26937   0.830   4.501   7.906  0.4294  0.1833  0.1251
  205MOL0     C26938   0.897   4.438   7.788  0.0018  0.4556 -0.6824
  205MOL0     C26939   1.001   4.338   7.830 -0.3086 -0.1333 -0.4132
  205MOL0     C26940   1.099   4.305   7.712  0.1872 -0.7174 -0.3539
  205MOL0     C26941   1.216   4.238   7.762 -0.1572  0.2904  0.0493
  205MOL0     C26942   1.334   4.242   7.665  0.5064  0.5107  0.3027
  205MOL0     C26943   1.464   4.208   7.733  0.9109  0.7737 -0.4100
  205MOL0     C26944   1.576   4.198   7.634 -0.4473  0.0201 -0.0822
  205MOL0     N26945   1.591   4.314   7.544 -0.0775  0.5660  0.2072
  205MOL0     C26946   1.629   4.443   7.585 -0.2446  0.1252 -0.2511
  205MOL0     C26947   1.650   4.504   7.470 -0.1188 -0.7997  0.2747
  205MOL0     C26948   1.710   4.637   7.427  0.1624 -0.1670 -0.6879
  205MOL0     C26949   1.601   4.750   7.422  0.0233  0.3545  0.1434
  205MOL0     C26950   1.578   4.799   7.569  0.4534 -0.5689 -0.3818
  205MOL0     C26951   1.490   4.913   7.568 -0.1774  0.0366  0.3267
  205MOL0     O26952   1.466   4.948   7.706 -0.0577  0.6029 -0.4203
  205MOL0     C26953   1.561   5.011   7.779 -0.1350 -1.0164  0.5305
  205MOL0     C26954   1.532   5.030   7.912 -0.1675 -0.1840  0.0524
  205MOL0     C26955   1.623   5.092   8.003 -0.0554 -0.6923  0.7925
  205MOL0     C26956   1.745   5.148   7.960  0.0565 -0.2882  0.5823
  205MOL0     C26957   1.851   5.202   8.051  0.6607 -0.1155 -0.7096
  205MOL0     O26958   1.956   5.273   7.998 -0.5567  0.5344 -0.7870
  205MOL0     C26959   2.063   5.318   8.070  0.5639  0.1844 -0.3755
  205MOL0     C26960   2.116   5.273   8.198  0.1378 -0.3053 -0.4242
  205MOL0     C26961   2.234   5.337   8.260  0.5935 -0.2682 -0.0913
  205MOL0     C26962   2.295   5.439   8.185 -0.3794  0.0461  0.7080
  205MOL0     O26963   2.423   5.492   8.214  0.5775  0.2999 -0.4330
  205MOL0     C26964   2.515   5.421   8.296  0.1605 -0.0168  0.1695
  205MOL0     C26965   2.655   5.463   8.258  0.1242 -0.3506 -1.2485
  205MOL0     C26966   2.745   5.349   8.201  0.0912 -0.2540 -0.4059
  205MOL0     C26967   2.706   5.335   8.055  0.8765  0.2151  0.1190
  205MOL0     C26968   2.801   5.232   7.988 -0.6682 -0.0740 -1.1590
  205MOL0     C26969   2.717   5.143   7.890  0.0376  0.3047  0.5316
  205MOL0     C26970   2.672   5.202   7.752  1.3143  0.4102 -0.1957
  205MOL0     C26971   2.565   5.299   7.754 -0.5875  0.2880 -0.4852
  205MOL0    Cl26972   2.492   5.304   7.588 -0.2028  0.1091 -0.0944
  205MOL0     C26973   2.239   5.486   8.066 -0.0308  0.8221  0.2318
  205MOL0     C26974   2.123   5.431   8.011  0.0786  0.1432  0.5216
  205MOL0     O26975   1.820   5.186   8.167 -0.3104  0.2455 -0.6388
  205MOL0     C26976   1.777   5.135   7.820  1.2787  0.4297 -0.1893
  205MOL0     C26977   1.693   5.061   7.741  0.4474  0.2052  0.1363
  205MOL0     N26978   1.631   4.418   7.370  0.4171 -0.3505  0.2005
  205MOL0     N26979   1.599   4.306   7.409  0.9729  0.4748  0.0279
  205MOL0     C26980   0.578   4.582   7.798 -0.0183  0.5884 -0.0725
  205MOL0     C26981   0.445   4.626   7.762  0.6563  0.0919  0.0527
  205MOL0     C26982   0.027   4.776   7.804 -0.5404 -0.8308  0.4347
  205MOL0     C26983  -0.077   4.737   7.892  0.5719  0.1004 -0.2300
  205MOL0     C26984  -0.210   4.770   7.853  0.1476 -1.5421  0.2023
  205MOL0     C26985  -0.239   4.852   7.740  0.5545 -0.2676 -0.1176
  205MOL0     O26986  -0.366   4.898   7.741  0.2355  0.3946  0.2723
  205MOL0     C26987  -0.417   4.919   7.611  1.0296  0.1785 -0.5246
  205MOL0     C26988  -0.571   4.938   7.619  0.0356  0.5399 -1.1707
  205MOL0     C26989  -0.637   4.923   7.486  0.3740 -0.1363  0.0677
  205MOL0     C26990  -0.788   4.960   7.478 -1.4089  0.3309  0.5665
  205MOL0     C26991  -0.832   4.941   7.340 -0.6646  0.1038  0.9574
  205MOL0     C26992  -0.891   4.930   7.232 -0.4813 -0.6071 -0.0641
  205MOL0     C26993  -0.135   4.893   7.659 -0.2099  0.7193  0.4450
  205MOL0     C26994  -0.006   4.857   7.694  0.0397 -0.5569 -0.5767
  205MOL0     H26995   0.460   4.945   7.849  4.1508  0.2851  2.8223
  205MOL0     H26996   0.698   4.875   7.908 -2.7973  0.4365  3.4447
  205MOL0     H26997   0.738   4.445   7.928  0.4922  0.0578  0.0633
  205MOL0     H26998   0.898   4.489   7.991  3.1948  0.4963 -1.9305
  205MOL0     H26999   0.944   4.522   7.736  3.3060 -0.6064  0.3424
  205MOL0     H27000   0.815   4.387   7.737 -2.1096 -1.2261  3.8442
  205MOL0     H27001   0.940   4.250   7.852  0.8057 -0.6104  0.8578
  205MOL0     H27002   1.054   4.364   7.922  1.3590 -0.1379 -1.3251
  205MOL0     H27003   1.056   4.241   7.634  0.0244 -0.5876 -0.3722
  205MOL0     H27004   1.123   4.402   7.667 -0.7768 -0.8315 -1.1707
  205MOL0     H27005   1.198   4.144   7.814  2.8077  0.9586  2.5834
  205MOL0     H27006   1.248   4.313   7.835 -1.3992 -0.0703  0.9912
  205MOL0     H27007   1.336   4.339   7.615 -1.3202  0.9653  1.0063
  205MOL0     H27008   1.312   4.172   7.584 -3.1405  0.8438  0.8016
  205MOL0     H27009   1.479   4.277   7.816 -1.7442  2.3762 -1.1380
  205MOL0     H27010   1.451   4.119   7.795 -3.1718  1.2631 -0.2724
  205MOL0     H27011   1.573   4.110   7.569  1.1609  2.1330 -3.3052
  205MOL0     H27012   1.666   4.197   7.697 -1.0680 -0.5019  0.8069
  205MOL0     H27013   1.632   4.465   7.691  2.2476  1.6822 -0.5781
  205MOL0     H27014   1.744   4.632   7.323 -1.1538 -0.2972 -1.1314
  205MOL0     H27015   1.793   4.670   7.490 -1.4763  1.7932  0.5800
  205MOL0     H27016   1.515   4.704   7.372 -2.6841  4.7401  0.2197
  205MOL0     H27017   1.639   4.842   7.375  1.6666 -0.2338  0.2386
  205MOL0     H27018   1.524   4.722   7.625  1.5034  0.7902  2.7390
  205MOL0     H27019   1.676   4.822   7.613  1.2470  0.6614 -2.6477
  205MOL0     H27020   1.403   4.874   7.516 -3.4442  0.8402  4.6329
  205MOL0     H27021   1.524   5.006   7.521  1.3303 -0.9589 -0.6483
  205MOL0     H27022   1.432   4.994   7.932 -1.2326  1.1533 -2.4443
  205MOL0     H27023   1.613   5.098   8.111  1.6871 -0.9510  0.9969
  205MOL0     H27024   2.068   5.193   8.252  0.2729 -2.3040 -3.0969
  205MOL0     H27025   2.281   5.308   8.354  0.7889 -0.1300 -0.1457
  205MOL0     H27026   2.498   5.313   8.300  0.7475 -0.0807  2.3694
  205MOL0     H27027   2.497   5.463   8.395  0.0018  4.6627 -1.5789
  205MOL0     H27028   2.712   5.496   8.346 -0.9985  0.7512 -0.9084
  205MOL0     H27029   2.655   5.552   8.194 -0.7847  0.2769 -0.4001
  205MOL0     H27030   2.736   5.252   8.250 -0.5009 -1.0843 -2.0915
  205MOL0     H27031   2.850   5.379   8.202 -0.2067  1.0513  2.4254
  205MOL0     H27032   2.602   5.299   8.059 -0.2818  2.8983 -2.3961
  205MOL0     H27033   2.702   5.430   8.001  1.3005 -0.2366 -0.7337
  205MOL0     H27034   2.837   5.172   8.071  1.1465  4.1860  1.4298
  205MOL0     H27035   2.882   5.287   7.940  0.5962 -1.7835 -1.0609
  205MOL0     H27036   2.630   5.109   7.947 -1.1308 -1.2141 -1.9973
  205MOL0     H27037   2.772   5.052   7.866 -1.6392 -0.9944  1.4039
  205MOL0     H27038   2.759   5.233   7.693  0.8161  1.2345 -0.5213
  205MOL0     H27039   2.633   5.120   7.690 -0.5448  0.7013  0.5143
  205MOL0     H27040   2.617   5.391   7.783 -0.5594 -0.4504  2.0386
  205MOL0     H27041   2.487   5.271   7.826 -1.7537  0.2233 -1.7281
  205MOL0     H27042   2.288   5.563   8.007  4.1971 -1.9003 -0.2544
  205MOL0     H27043   2.080   5.466   7.917  1.4171  0.3858 -0.0136
  205MOL0     H27044   1.873   5.167   7.779  2.2721 -1.4394  0.5647
  205MOL0     H27045   1.724   5.040   7.640  2.3289  1.1266  0.4884
  205MOL0     H27046   0.619   4.487   7.765  2.1462  1.5741 -0.4227
  205MOL0     H27047   0.384   4.548   7.716 -0.9033  0.1674  1.8685
  205MOL0     H27048  -0.068   4.679   7.983 -1.6851  1.8528  1.2269
  205MOL0     H27049  -0.284   4.731   7.921  2.9023 -1.7793  3.3082
  205MOL0     H27050  -0.389   4.837   7.545 -0.7457  0.7453 -2.0824
  205MOL0     H27051  -0.369   5.009   7.571  2.0663  0.6899  1.7142
  205MOL0     H27052  -0.605   4.857   7.686  1.1657 -0.2879 -1.5695
  205MOL0     H27053  -0.592   5.035   7.664  1.5791  1.3679 -2.1688
  205MOL0     H27054  -0.637   4.817   7.462 -0.6806 -1.2946  4.3932
  205MOL0     H27055  -0.572   4.984   7.422  2.7447 -2.5444 -0.0036
  205MOL0     H27056  -0.850   4.911   7.554 -1.2717 -0.9395 -0.1053
  205MOL0     H27057  -0.790   5.069   7.482  2.8757  0.7435 -2.0141
  205MOL0     H27058  -0.942   4.938   7.138 -1.0950 -2.3155  0.0746
  205MOL0     H27059  -0.146   4.961   7.575 -1.6539  0.2318  0.2077
  205MOL0     H27060   0.067   4.905   7.628  0.4265  1.9738  1.5287
  206MOL0     O27061   9.559   0.337   7.363 -0.4678 -0.4825 -0.0264
  206MOL0     C27062   9.494   0.351   7.462 -0.5447 -1.1848 -0.9404
  206MOL0     O27063   9.375   0.281   7.499  0.1225 -0.7222 -0.0199
  206MOL0     C27064   9.362   0.163   7.431  0.2046 -0.0957 -0.0607
  206MOL0     C27065   9.307   0.171   7.304  0.0134  0.6712 -0.3861
  206MOL0     C27066   9.273   0.046   7.249 -0.0411  0.4569 -0.2184
  206MOL0     C27067   9.302  -0.074   7.310  0.2951 -0.0092 -0.2218
  206MOL0     O27068   9.272  -0.187   7.238  0.2666  0.3186  0.0514
  206MOL0     C27069   9.230  -0.308   7.305 -0.2176  0.3627  0.2724
  206MOL0     C27070   9.103  -0.304   7.389 -0.3071  0.8063 -0.6052
  206MOL0     C27071   8.968  -0.267   7.325 -0.4178 -1.0702  0.5502
  206MOL0     C27072   8.858  -0.374   7.343 -0.2485  1.6461  0.4118
  206MOL0     C27073   8.890  -0.509   7.278 -1.1774 -0.1593 -0.5056
  206MOL0     C27074   8.781  -0.607   7.292  1.0554  0.5658 -0.0497
  206MOL0     C27075   8.796  -0.741   7.213  0.1150  0.0755 -0.6865
  206MOL0     C27076   8.658  -0.809   7.182  0.8420 -0.3933  1.2663
  206MOL0     N27077   8.679  -0.927   7.104 -0.9105  0.4952 -0.3669
  206MOL0     C27078   8.657  -0.955   6.965  0.3840  0.3328  0.1785
  206MOL0     C27079   8.710  -1.078   6.950  1.2762 -0.2472  0.2782
  206MOL0     C27080   8.721  -1.157   6.827 -0.2556  0.1607  0.8222
  206MOL0     C27081   8.584  -1.196   6.760 -0.5015  0.0637  0.4350
  206MOL0     C27082   8.567  -1.356   6.761 -0.2750  0.4838  0.0524
  206MOL0     C27083   8.431  -1.376   6.704 -0.2554  0.8914  0.1679
  206MOL0     O27084   8.385  -1.509   6.708  0.0025 -0.2978  0.0315
  206MOL0     C27085   8.469  -1.616   6.674  0.2481 -0.4264  0.0074
  206MOL0     C27086   8.540  -1.632   6.552 -0.5361  0.1109  0.2168
  206MOL0     C27087   8.633  -1.733   6.535 -0.7885  0.0234 -1.0028
  206MOL0     C27088   8.669  -1.820   6.645 -0.0013  0.4635 -0.4629
  206MOL0     C27089   8.757  -1.934   6.640  0.6800  0.1924 -0.9310
  206MOL0     O27090   8.846  -1.927   6.545  0.1110  0.1889  0.4332
  206MOL0     C27091   8.948  -2.019   6.524  0.3054  0.5539  0.3051
  206MOL0     C27092   9.068  -2.030   6.604 -0.1262  0.8670 -0.7759
  206MOL0     C27093   9.164  -2.130   6.576 -0.8157  0.0458 -0.0764
  206MOL0     C27094   9.149  -2.214   6.469  0.3649  0.2954 -0.2134
  206MOL0     O27095   9.251  -2.310   6.442 -0.0489 -0.1650 -1.0405
  206MOL0     C27096   9.360  -2.257   6.374  0.0519 -0.2388  0.8021
  206MOL0     C27097   9.487  -2.232   6.460  0.2303  0.4319  0.9092
  206MOL0     C27098   9.527  -2.350   6.548 -0.8490 -0.3037 -0.2775
  206MOL0     C27099   9.654  -2.314   6.617 -1.1616 -0.1284 -0.1081
  206MOL0     C27100   9.714  -2.420   6.706 -0.4267  0.1046  0.6349
  206MOL0     C27101   9.794  -2.513   6.604  0.0142 -0.2592  1.1751
  206MOL0     C27102   9.874  -2.621   6.668  0.8149  0.9349 -0.3106
  206MOL0     C27103   9.932  -2.717   6.556 -0.3468 -0.9226 -0.0234
  206MOL0    Cl27104  10.055  -2.827   6.619 -0.1682 -0.0319 -0.0624
  206MOL0     C27105   9.046  -2.197   6.383  1.2680  0.4364 -0.8610
  206MOL0     C27106   8.939  -2.110   6.410 -0.1251 -0.2307 -0.3022
  206MOL0     O27107   8.754  -2.024   6.729  0.5224  0.6320  0.3134
  206MOL0     C27108   8.597  -1.803   6.767  0.7159  0.3790  0.5393
  206MOL0     C27109   8.499  -1.699   6.777 -0.3486  0.1085 -1.0142
  206MOL0     N27110   8.759  -1.126   7.063  0.2105 -0.0644 -0.2407
  206MOL0     N27111   8.745  -1.038   7.160 -0.3426  0.4039  0.0048
  206MOL0     C27112   9.355  -0.074   7.442 -0.4529  0.4641 -0.3529
  206MOL0     C27113   9.377   0.042   7.502  0.1545  0.3382 -0.4861
  206MOL0     C27114   9.549   0.443   7.568 -0.5410 -0.0649  0.4871
  206MOL0     C27115   9.658   0.531   7.545  0.1074  0.2131 -0.1573
  206MOL0     C27116   9.702   0.616   7.638  1.3536  0.2186  0.2933
  206MOL0     C27117   9.649   0.620   7.775 -0.1104  0.0242 -0.4609
  206MOL0     O27118   9.710   0.686   7.880  0.7410 -0.0958 -0.8670
  206MOL0     C27119   9.821   0.774   7.863 -0.9231  0.3598 -0.9223
  206MOL0     C27120   9.859   0.823   8.004 -0.7336 -0.1593  0.6239
  206MOL0     C27121   9.928   0.722   8.094  0.9057  0.0930 -0.0191
  206MOL0     C27122  10.074   0.702   8.054  0.0639  0.0772 -0.1422
  206MOL0     C27123  10.138   0.600   8.137 -0.3011  0.0014  0.0063
  206MOL0     C27124  10.180   0.514   8.214 -0.0747 -0.0401 -0.9560
  206MOL0     C27125   9.549   0.525   7.804 -1.1389  0.4295  0.1669
  206MOL0     C27126   9.510   0.441   7.701  0.2697  0.5142  0.1524
  206MOL0     H27127   9.285   0.264   7.252 -0.6116  1.2655  0.8883
  206MOL0     H27128   9.227   0.043   7.151 -1.6794  0.1804  0.5254
  206MOL0     H27129   9.316  -0.331   7.369 -0.9641 -0.5873  0.9691
  206MOL0     H27130   9.229  -0.393   7.236  2.5890  2.1760 -2.2491
  206MOL0     H27131   9.116  -0.234   7.473  1.8582  1.2967 -1.2722
  206MOL0     H27132   9.086  -0.406   7.425 -5.5598  2.1160  1.5916
  206MOL0     H27133   8.976  -0.239   7.220 -0.8243  0.8974  1.0054
  206MOL0     H27134   8.929  -0.176   7.372 -3.9312 -0.7804 -2.4106
  206MOL0     H27135   8.827  -0.397   7.445 -0.7325  0.9408  0.1178
  206MOL0     H27136   8.764  -0.337   7.300 -1.1859 -0.9517  0.0518
  206MOL0     H27137   8.981  -0.561   7.310  0.4094  2.1366 -1.0821
  206MOL0     H27138   8.909  -0.493   7.171  1.2750  1.5211  0.0927
  206MOL0     H27139   8.683  -0.570   7.261  0.9407  0.3300  0.0341
  206MOL0     H27140   8.763  -0.634   7.397 -1.5639  0.6579 -0.4069
  206MOL0     H27141   8.852  -0.728   7.120 -0.6940  0.3608 -1.1457
  206MOL0     H27142   8.846  -0.817   7.274  0.0149 -0.5651 -1.3846
  206MOL0     H27143   8.597  -0.743   7.119  3.5229  0.1215 -0.9471
  206MOL0     H27144   8.586  -0.836   7.260 -1.4627  0.9966 -0.2470
  206MOL0     H27145   8.605  -0.895   6.891  2.5617  1.0859 -0.8331
  206MOL0     H27146   8.776  -1.251   6.835  0.1325  0.2191 -0.7321
  206MOL0     H27147   8.780  -1.096   6.758  0.9752 -1.9068 -0.0823
  206MOL0     H27148   8.584  -1.154   6.659 -0.6533  1.3244  0.9420
  206MOL0     H27149   8.513  -1.138   6.819  2.0445  0.6905  3.1552
  206MOL0     H27150   8.647  -1.401   6.700  0.6059  0.3291  1.2862
  206MOL0     H27151   8.578  -1.392   6.863  3.3360 -1.3324 -0.8009
  206MOL0     H27152   8.426  -1.352   6.597 -0.6922  0.4062  0.0763
  206MOL0     H27153   8.359  -1.317   6.762 -1.0591  0.6301 -0.5415
  206MOL0     H27154   8.516  -1.574   6.464 -0.2031 -0.1647 -0.0596
  206MOL0     H27155   8.691  -1.752   6.445 -1.1107  0.9566 -1.4214
  206MOL0     H27156   9.074  -1.967   6.692  1.1679 -0.3573  0.0582
  206MOL0     H27157   9.246  -2.114   6.645 -0.9827 -1.9840  0.6677
  206MOL0     H27158   9.325  -2.174   6.311 -0.7017 -1.1123  0.0504
  206MOL0     H27159   9.374  -2.343   6.308  1.4974  0.6469 -0.1089
  206MOL0     H27160   9.483  -2.142   6.523 -1.5539  0.1260  1.2768
  206MOL0     H27161   9.566  -2.206   6.389 -0.6295  1.6592  0.3551
  206MOL0     H27162   9.543  -2.429   6.473 -0.0570 -1.4403  1.0293
  206MOL0     H27163   9.450  -2.370   6.623  1.4067  0.2695  2.3668
  206MOL0     H27164   9.722  -2.270   6.544  0.7434 -0.7939  1.1955
  206MOL0     H27165   9.615  -2.243   6.691  1.6742 -1.0947  2.5147
  206MOL0     H27166   9.631  -2.471   6.756  0.1354 -0.4785  0.9963
  206MOL0     H27167   9.793  -2.384   6.773  2.0635  1.2039 -2.6062
  206MOL0     H27168   9.867  -2.448   6.554 -2.0101  0.7229 -0.6868
  206MOL0     H27169   9.733  -2.559   6.525  0.0742  1.9825 -0.2803
  206MOL0     H27170   9.963  -2.589   6.724  1.7674  1.1199 -1.8726
  206MOL0     H27171   9.816  -2.658   6.754  1.9149 -0.0202  0.0539
  206MOL0     H27172   9.960  -2.653   6.473  1.8205 -0.1886  1.2046
  206MOL0     H27173   9.848  -2.784   6.533 -1.9453 -0.6694  4.1883
  206MOL0     H27174   9.040  -2.276   6.309 -0.5520  1.3292 -1.7389
  206MOL0     H27175   8.842  -2.110   6.361  0.6069  3.1386 -2.0226
  206MOL0     H27176   8.607  -1.875   6.848  2.5265  1.5468  1.4286
  206MOL0     H27177   8.462  -1.677   6.876  3.0207 -2.1476  0.9606
  206MOL0     H27178   9.375  -0.168   7.494  0.1460  0.8807  0.1840
  206MOL0     H27179   9.426   0.050   7.598 -1.2000 -1.5731  0.4377
  206MOL0     H27180   9.710   0.540   7.450  0.6318  0.0532  0.1066
  206MOL0     H27181   9.781   0.684   7.609  1.6327  0.9053  2.4648
  206MOL0     H27182   9.799   0.866   7.809  1.2458  0.1751 -2.2345
  206MOL0     H27183   9.906   0.721   7.819 -0.2355 -1.3934  2.1804
  206MOL0     H27184   9.909   0.920   8.001 -3.0159  1.2052  2.8930
  206MOL0     H27185   9.765   0.845   8.055  0.6012  2.1928  2.2727
  206MOL0     H27186   9.887   0.621   8.089  1.1902  0.0317 -1.6892
  206MOL0     H27187   9.918   0.742   8.201 -0.7648 -2.7213  0.4631
  206MOL0     H27188  10.088   0.667   7.952 -0.5801 -1.9407  0.4160
  206MOL0     H27189  10.114   0.804   8.059 -0.2202  0.2292 -0.8265
  206MOL0     H27190  10.216   0.443   8.286  0.1124  1.5186  0.5531
  206MOL0     H27191   9.516   0.507   7.906  0.1641  1.1094  0.7313
  206MOL0     H27192   9.423   0.379   7.716  0.6770  0.4148  2.2925
  207MOL0     O27193   7.523   9.645   3.403  0.0040  0.4071 -0.5377
  207MOL0     C27194   7.488   9.541   3.455  0.0874  0.1817  0.5234
  207MOL0     O27195   7.525   9.409   3.417  0.6670 -0.3302 -0.2488
  207MOL0     C27196   7.628   9.379   3.336 -0.1340  0.3880  0.0541
  207MOL0     C27197   7.649   9.243   3.317  0.0402 -0.1634 -0.1492
  207MOL0     C27198   7.762   9.200   3.254 -0.3204  0.6878  0.7035
  207MOL0     C27199   7.856   9.284   3.196  0.2091 -0.0613  0.2400
  207MOL0     O27200   7.955   9.219   3.124 -0.4562  0.0652 -0.0787
  207MOL0     C27201   8.045   9.298   3.047 -0.3998  0.2107  0.5461
  207MOL0     C27202   8.123   9.213   2.930  0.3762 -0.0730  0.3726
  207MOL0     C27203   8.225   9.305   2.859  0.1927 -0.9458 -1.4588
  207MOL0     C27204   8.309   9.220   2.765  0.0151  0.9174 -0.5758
  207MOL0     C27205   8.421   9.309   2.710 -0.4886 -0.1582 -0.7096
  207MOL0     C27206   8.369   9.405   2.602  0.0805 -0.7510  0.5179
  207MOL0     C27207   8.476   9.495   2.536  0.7842 -0.3870 -0.3511
  207MOL0     C27208   8.578   9.426   2.444 -0.7141 -0.0362  0.9782
  207MOL0     N27209   8.503   9.366   2.335  0.4030  0.2982  0.2669
  207MOL0     C27210   8.474   9.229   2.329  0.2479 -0.1869 -0.6737
  207MOL0     C27211   8.395   9.223   2.216  0.5107  0.6130 -0.0638
  207MOL0     C27212   8.328   9.102   2.170  1.1403  0.0725 -0.0209
  207MOL0     C27213   8.428   9.043   2.078  0.9498  0.2046  0.0485
  207MOL0     C27214   8.408   9.116   1.938  0.1345 -0.2566 -0.9111
  207MOL0     C27215   8.460   9.039   1.822  0.5572  0.9656 -0.4159
  207MOL0     O27216   8.467   9.130   1.705  0.0371  0.3123  0.2136
  207MOL0     C27217   8.347   9.181   1.652  0.3376  0.2407  0.3080
  207MOL0     C27218   8.253   9.104   1.583  0.4312  0.5524  0.5428
  207MOL0     C27219   8.149   9.170   1.524 -0.2190 -0.0664 -0.4483
  207MOL0     C27220   8.132   9.309   1.533  1.4296  0.6802 -0.0576
  207MOL0     C27221   8.020   9.380   1.469  0.3426 -0.0270 -0.4159
  207MOL0     O27222   7.954   9.476   1.542 -0.4211  0.2120  0.6767
  207MOL0     C27223   7.837   9.531   1.494  0.4429  0.4600  0.5766
  207MOL0     C27224   7.822   9.670   1.510  0.5166  0.4794 -1.0743
  207MOL0     C27225   7.710   9.740   1.470  0.2305 -0.4395 -0.1483
  207MOL0     C27226   7.610   9.671   1.394  0.0475 -0.3018  0.7389
  207MOL0     O27227   7.511   9.754   1.353 -0.5942 -1.0340  1.2463
  207MOL0     C27228   7.418   9.711   1.249 -0.7217  0.0103 -0.4253
  207MOL0     C27229   7.458   9.768   1.114  0.7945  0.4190 -0.0559
  207MOL0     C27230   7.368   9.730   0.995  0.7316 -0.2848  0.0030
  207MOL0     C27231   7.328   9.585   0.983  0.1446  0.6468  0.8648
  207MOL0     C27232   7.214   9.551   0.888  0.3166 -0.4912 -0.8330
  207MOL0     C27233   7.210   9.401   0.847  0.1305 -0.4695 -0.3875
  207MOL0     C27234   7.110   9.385   0.730 -0.4624 -0.6186  0.2156
  207MOL0     C27235   6.963   9.404   0.780  0.4311  0.0331  1.0060
  207MOL0    Cl27236   6.905   9.257   0.866 -0.6954  0.2448 -0.3564
  207MOL0     C27237   7.630   9.531   1.372  0.0367 -0.6825 -0.2443
  207MOL0     C27238   7.740   9.464   1.426 -0.1356  0.4115 -0.0005
  207MOL0     O27239   7.988   9.338   1.355  0.4228 -0.5473 -0.6973
  207MOL0     C27240   8.230   9.386   1.609  0.0865  0.3857  0.9882
  207MOL0     C27241   8.328   9.318   1.669  0.0683 -0.5155  0.8474
  207MOL0     N27242   8.380   9.349   2.163  0.4765 -1.0191 -0.3073
  207MOL0     N27243   8.447   9.434   2.232 -0.4119  0.4535  0.2574
  207MOL0     C27244   7.830   9.426   3.202  0.8749  0.2158  0.2149
  207MOL0     C27245   7.717   9.468   3.273 -0.8769 -0.2171  0.0629
  207MOL0     C27246   7.391   9.553   3.570 -0.4480  0.0550 -0.2476
  207MOL0     C27247   7.298   9.454   3.612  0.1901  0.3170  0.6492
  207MOL0     C27248   7.225   9.468   3.731  1.3696 -0.1902  0.7380
  207MOL0     C27249   7.230   9.590   3.804  0.5966  0.9370  0.1498
  207MOL0     O27250   7.189   9.603   3.934  0.5241  0.2442 -0.3536
  207MOL0     C27251   7.113   9.493   3.989 -0.1019 -0.2877 -0.9804
  207MOL0     C27252   6.970   9.493   3.926 -0.4330  0.6578  0.2844
  207MOL0     C27253   6.903   9.630   3.935 -0.1009 -0.7695 -0.6567
  207MOL0     C27254   6.759   9.629   3.884 -0.5822 -0.8925 -0.9916
  207MOL0     C27255   6.744   9.611   3.737 -0.3809 -0.2673  0.0357
  207MOL0     C27256   6.720   9.598   3.619  0.2255 -0.6263 -0.0130
  207MOL0     C27257   7.308   9.692   3.753 -0.0047 -0.3538  0.5315
  207MOL0     C27258   7.386   9.679   3.641 -0.7269  0.2479 -0.4576
  207MOL0     H27259   7.574   9.174   3.354  0.9371  0.0146  2.1665
  207MOL0     H27260   7.768   9.093   3.237 -1.5641  0.6892  0.0722
  207MOL0     H27261   8.120   9.350   3.107  0.0754 -0.3456  0.4417
  207MOL0     H27262   7.991   9.384   3.006 -0.6371  0.0613  0.5433
  207MOL0     H27263   8.041   9.190   2.862 -0.4733 -1.5496  1.8209
  207MOL0     H27264   8.170   9.125   2.975  3.2829  0.1882 -1.8011
  207MOL0     H27265   8.292   9.353   2.931 -1.0984 -0.0768 -0.7883
  207MOL0     H27266   8.171   9.391   2.819 -0.3356 -0.8584 -0.5917
  207MOL0     H27267   8.344   9.127   2.812 -0.5564 -0.7263 -3.2102
  207MOL0     H27268   8.253   9.191   2.676  0.4389  0.5111 -0.7120
  207MOL0     H27269   8.494   9.242   2.663  0.0499  0.8462 -1.3592
  207MOL0     H27270   8.482   9.366   2.780  3.1542 -2.1080 -1.9827
  207MOL0     H27271   8.285   9.465   2.640  1.4028  0.7089  1.2650
  207MOL0     H27272   8.336   9.343   2.518  2.1477 -0.3774 -0.6520
  207MOL0     H27273   8.429   9.565   2.466  1.4863 -1.5696 -2.0534
  207MOL0     H27274   8.514   9.545   2.626  0.2627 -3.2027  1.5798
  207MOL0     H27275   8.630   9.351   2.504 -2.3118 -1.8446  0.2291
  207MOL0     H27276   8.643   9.504   2.405  0.8839 -1.2131  1.2064
  207MOL0     H27277   8.498   9.158   2.407 -0.8533  1.2402  1.0512
  207MOL0     H27278   8.237   9.138   2.121  1.4008  2.0748  0.8971
  207MOL0     H27279   8.302   9.038   2.255 -1.9925  0.1585 -0.7765
  207MOL0     H27280   8.424   8.933   2.076  2.1705 -0.0140  3.2065
  207MOL0     H27281   8.534   9.059   2.099  1.2633 -1.5334 -0.0536
  207MOL0     H27282   8.307   9.152   1.916 -0.9059 -1.4927  1.4649
  207MOL0     H27283   8.468   9.206   1.952 -1.5220  0.9790 -1.4169
  207MOL0     H27284   8.386   8.961   1.803 -2.7698  4.4737 -3.6408
  207MOL0     H27285   8.562   9.004   1.841  0.8185  0.5475 -2.3412
  207MOL0     H27286   8.270   8.998   1.564  0.2809  0.3139  1.6304
  207MOL0     H27287   8.077   9.114   1.464 -0.7120  1.1774 -1.0559
  207MOL0     H27288   7.903   9.730   1.552  1.3889 -0.1626 -1.7837
  207MOL0     H27289   7.702   9.843   1.502 -0.2039 -0.2187 -0.9266
  207MOL0     H27290   7.318   9.749   1.268 -0.0939  1.3583  0.3134
  207MOL0     H27291   7.410   9.602   1.252 -1.7217  0.0049 -2.2041
  207MOL0     H27292   7.557   9.740   1.078  1.1175  1.7213 -0.2304
  207MOL0     H27293   7.455   9.877   1.123  1.2996  0.5624 -1.3960
  207MOL0     H27294   7.415   9.774   0.906 -0.4203  0.5360 -0.2205
  207MOL0     H27295   7.279   9.791   1.014  1.5857  1.2284 -0.5873
  207MOL0     H27296   7.413   9.519   0.964 -1.9160 -1.9034 -0.0697
  207MOL0     H27297   7.282   9.565   1.080 -1.6037 -0.9261 -0.2275
  207MOL0     H27298   7.213   9.613   0.798 -1.9283  0.5782 -0.1257
  207MOL0     H27299   7.125   9.562   0.950  0.9478 -0.3341  0.0654
  207MOL0     H27300   7.205   9.335   0.933 -2.0885 -0.3745 -0.3826
  207MOL0     H27301   7.315   9.389   0.821 -0.6810 -2.8737 -2.9788
  207MOL0     H27302   7.135   9.454   0.648  0.5657 -3.3745 -2.0009
  207MOL0     H27303   7.139   9.291   0.681 -0.2881 -1.4218  1.7898
  207MOL0     H27304   6.907   9.422   0.688  2.8887 -0.2599 -0.6545
  207MOL0     H27305   6.946   9.500   0.830  1.0195  1.8429 -2.0014
  207MOL0     H27306   7.571   9.478   1.298  2.9454 -0.8436 -2.6265
  207MOL0     H27307   7.749   9.359   1.398 -0.0998  0.2084  0.7440
  207MOL0     H27308   8.220   9.494   1.614  4.7071  1.1442 -0.6529
  207MOL0     H27309   8.406   9.363   1.730  0.2372 -1.5044  1.3784
  207MOL0     H27310   7.889   9.504   3.156  0.3918  0.2041 -0.4360
  207MOL0     H27311   7.696   9.574   3.281  1.0502  0.1609  0.6055
  207MOL0     H27312   7.289   9.362   3.554  0.7878  1.0811 -0.7038
  207MOL0     H27313   7.161   9.385   3.759 -1.5835  1.0873 -1.6646
  207MOL0     H27314   7.097   9.513   4.095  0.3126  1.6311 -1.2261
  207MOL0     H27315   7.160   9.395   3.978 -3.2177 -1.8801 -1.0590
  207MOL0     H27316   6.978   9.462   3.821 -1.9509 -0.3385  0.4295
  207MOL0     H27317   6.926   9.417   3.990  0.4120  0.8413  1.1056
  207MOL0     H27318   6.964   9.704   3.881 -0.5683 -0.3449 -0.6101
  207MOL0     H27319   6.893   9.662   4.040 -1.0773  3.0636 -1.7504
  207MOL0     H27320   6.699   9.547   3.925  2.6352 -2.0556  1.9350
  207MOL0     H27321   6.715   9.727   3.903 -0.0198 -0.3740 -2.2863
  207MOL0     H27322   6.700   9.575   3.516 -0.9319 -2.5872  0.6014
  207MOL0     H27323   7.299   9.789   3.800 -2.1949 -0.5451  0.6287
  207MOL0     H27324   7.449   9.766   3.625  0.6363 -0.6635 -0.2164
  208MOL0     O27325  10.675   5.661   3.297  0.0347 -0.7485 -0.0996
  208MOL0     C27326  10.725   5.575   3.374 -0.3157  0.9405  0.2578
  208MOL0     O27327  10.663   5.453   3.402 -0.2017 -0.2620 -0.3700
  208MOL0     C27328  10.523   5.422   3.390  0.4294  0.4630 -0.7723
  208MOL0     C27329  10.418   5.512   3.374  0.5608  0.3826  0.5117
  208MOL0     C27330  10.291   5.460   3.353  1.0241 -0.2801  0.5632
  208MOL0     C27331  10.262   5.317   3.363  0.9790 -0.7787  0.2840
  208MOL0     O27332  10.136   5.259   3.354 -0.0508  0.6303  0.2574
  208MOL0     C27333  10.032   5.334   3.295 -0.7788 -0.2005 -0.2894
  208MOL0     C27334   9.907   5.255   3.325  0.8175  0.2944  0.7698
  208MOL0     C27335   9.784   5.341   3.300  0.1351  0.1355  0.2467
  208MOL0     C27336   9.655   5.256   3.282 -0.9387 -1.0826 -0.4259
  208MOL0     C27337   9.525   5.339   3.279 -1.0747 -0.3752 -0.0530
  208MOL0     C27338   9.408   5.260   3.249  0.1950  0.2842 -0.8576
  208MOL0     C27339   9.285   5.351   3.229 -0.2067  0.3540 -0.7361
  208MOL0     C27340   9.152   5.271   3.203 -0.4425  0.0724  0.7140
  208MOL0     N27341   9.097   5.186   3.312  0.1036 -0.1444 -0.5586
  208MOL0     C27342   9.026   5.250   3.414 -0.0785  0.6576  0.7340
  208MOL0     C27343   8.943   5.159   3.466  0.9352  0.9684 -0.5532
  208MOL0     C27344   8.820   5.171   3.551  0.0957  0.2433 -0.3431
  208MOL0     C27345   8.697   5.241   3.485  0.5923 -0.2600 -0.7033
  208MOL0     C27346   8.602   5.149   3.391 -0.0020 -0.0308 -0.7918
  208MOL0     C27347   8.554   5.025   3.454 -0.3983  0.6315 -0.3545
  208MOL0     O27348   8.462   4.949   3.382  0.2807 -0.2556 -0.2094
  208MOL0     C27349   8.331   4.979   3.377 -0.2652  0.3862  0.1026
  208MOL0     C27350   8.260   5.081   3.438  0.2627 -0.3154 -0.2394
  208MOL0     C27351   8.128   5.099   3.417 -0.4537  0.1821 -0.2749
  208MOL0     C27352   8.061   5.013   3.331  0.2778 -0.2042  0.1299
  208MOL0     C27353   7.918   5.032   3.314 -0.2986  0.0344  0.3005
  208MOL0     O27354   7.858   4.958   3.213 -0.2476  0.2140 -0.1724
  208MOL0     C27355   7.732   4.968   3.182 -0.1400  0.3912  0.1065
  208MOL0     C27356   7.680   4.967   3.050 -0.2625 -0.3128  0.4773
  208MOL0     C27357   7.537   4.949   3.033 -0.4560 -0.6215  0.1364
  208MOL0     C27358   7.453   4.904   3.131  0.0852 -0.2414  0.3099
  208MOL0     O27359   7.334   4.853   3.113  0.6120 -0.1164 -0.0212
  208MOL0     C27360   7.231   4.922   3.029  0.5118 -0.0177 -0.1710
  208MOL0     C27361   7.170   5.046   3.091 -0.2809 -0.9171 -0.4539
  208MOL0     C27362   7.050   5.091   3.003 -0.4101  0.2444 -0.6049
  208MOL0     C27363   6.977   5.218   3.067 -1.5047  0.7469 -0.1674
  208MOL0     C27364   6.837   5.243   3.002 -0.4992  1.0949  0.0204
  208MOL0     C27365   6.834   5.252   2.851  0.5127  0.1156  0.4209
  208MOL0     C27366   6.685   5.253   2.803  0.7314  1.2766 -0.2934
  208MOL0     C27367   6.657   5.204   2.662 -0.8338  0.0979  0.6531
  208MOL0    Cl27368   6.734   5.284   2.534 -0.2758 -0.0178 -0.1794
  208MOL0     C27369   7.504   4.906   3.260  0.0042 -0.5668  0.3356
  208MOL0     C27370   7.640   4.933   3.279  0.3975 -1.0113 -0.4933
  208MOL0     O27371   7.859   5.116   3.379  0.1679  0.3092  0.3188
  208MOL0     C27372   8.135   4.919   3.256 -0.2777 -0.1190  0.3401
  208MOL0     C27373   8.273   4.904   3.285  0.8325  0.6473  0.3377
  208MOL0     N27374   8.976   5.039   3.409  0.4572 -0.1234  0.4791
  208MOL0     N27375   9.063   5.053   3.312 -0.5673  0.1471 -0.3781
  208MOL0     C27376  10.365   5.238   3.409 -0.5518  0.0925  0.3716
  208MOL0     C27377  10.493   5.290   3.424 -0.1473 -0.4951  0.3422
  208MOL0     C27378  10.864   5.593   3.403 -0.0089 -0.0168  0.3176
  208MOL0     C27379  10.938   5.685   3.336 -0.7488 -1.4245  0.2186
  208MOL0     C27380  11.073   5.708   3.366 -0.9895 -0.2600 -0.0528
  208MOL0     C27381  11.140   5.630   3.464 -0.2408 -0.1729 -0.1033
  208MOL0     O27382  11.262   5.635   3.520  0.1637 -0.5483  0.3392
  208MOL0     C27383  11.343   5.749   3.482 -0.3541 -0.0914  0.1856
  208MOL0     C27384  11.441   5.703   3.369  0.9940 -1.2023 -0.1595
  208MOL0     C27385  11.518   5.583   3.434  0.5034  0.4899 -0.3205
  208MOL0     C27386  11.640   5.526   3.357  0.3417  1.1613 -0.2029
  208MOL0     C27387  11.754   5.618   3.374 -0.8293  0.8465  0.1821
  208MOL0     C27388  11.835   5.702   3.407  0.4410 -0.1250  0.6918
  208MOL0     C27389  11.067   5.524   3.515  0.1026 -0.2819  0.5942
  208MOL0     C27390  10.929   5.514   3.498 -0.8971  0.5644  1.0816
  208MOL0     H27391  10.427   5.620   3.367 -0.9078  0.4676 -5.5887
  208MOL0     H27392  10.211   5.533   3.343 -0.2309 -1.7102 -0.4449
  208MOL0     H27393  10.053   5.359   3.191  0.5944 -1.3976 -0.3316
  208MOL0     H27394  10.023   5.427   3.353  1.1121  0.2687 -0.6872
  208MOL0     H27395   9.898   5.228   3.430 -1.6645  3.9067  1.6857
  208MOL0     H27396   9.918   5.172   3.255  1.1123 -0.3881  1.6166
  208MOL0     H27397   9.790   5.396   3.205 -3.9857 -0.1957 -0.4090
  208MOL0     H27398   9.773   5.423   3.371 -3.5540 -0.0293  0.0609
  208MOL0     H27399   9.676   5.194   3.195  0.8114  0.5730 -1.2616
  208MOL0     H27400   9.649   5.182   3.362  1.9304 -3.9868 -2.6308
  208MOL0     H27401   9.538   5.424   3.212 -1.1585  1.1194  1.7451
  208MOL0     H27402   9.505   5.384   3.377  0.1882  2.8289 -1.1222
  208MOL0     H27403   9.378   5.181   3.319 -1.4020  2.5921  1.2019
  208MOL0     H27404   9.424   5.213   3.151  0.3085  0.1342 -0.7692
  208MOL0     H27405   9.275   5.408   3.321  1.7012 -0.8964  0.3253
  208MOL0     H27406   9.302   5.423   3.149 -1.3053  1.4735  0.0110
  208MOL0     H27407   9.166   5.206   3.116 -0.6537 -1.1142  1.5440
  208MOL0     H27408   9.081   5.349   3.172 -0.5479 -0.5097 -0.5705
  208MOL0     H27409   9.033   5.358   3.430  0.6279  0.5011  1.5756
  208MOL0     H27410   8.854   5.231   3.636  0.4438 -1.7308  1.0033
  208MOL0     H27411   8.795   5.074   3.595 -1.6565  0.2674 -1.2031
  208MOL0     H27412   8.728   5.335   3.436 -2.6751  1.2282 -0.1857
  208MOL0     H27413   8.636   5.281   3.567  0.3032 -1.0658 -0.5228
  208MOL0     H27414   8.516   5.207   3.356 -2.6843 -3.0751  0.2703
  208MOL0     H27415   8.661   5.117   3.304  3.1174 -0.7791  1.4421
  208MOL0     H27416   8.510   5.060   3.548  1.7551  4.7565 -0.6444
  208MOL0     H27417   8.645   4.968   3.469 -0.6200  0.2841 -0.3340
  208MOL0     H27418   8.322   5.153   3.490  2.3013 -1.1642 -1.3759
  208MOL0     H27419   8.081   5.179   3.474  1.7510  3.0993 -2.2260
  208MOL0     H27420   7.749   4.974   2.967 -1.9111  1.1680 -0.8391
  208MOL0     H27421   7.504   4.949   2.930  0.0983  1.6873 -0.0820
  208MOL0     H27422   7.151   4.855   2.998  0.0730  0.1638  0.5315
  208MOL0     H27423   7.291   4.960   2.945  2.1809 -0.8459  0.5974
  208MOL0     H27424   7.248   5.123   3.093 -0.3648 -0.8302  0.9848
  208MOL0     H27425   7.143   5.019   3.194 -0.4779 -0.1288 -0.2903
  208MOL0     H27426   6.981   5.007   2.992 -0.4885  0.3399 -0.8509
  208MOL0     H27427   7.071   5.116   2.898  1.1911 -1.3468 -0.7132
  208MOL0     H27428   6.960   5.212   3.175  1.1878 -1.5897  0.2649
  208MOL0     H27429   7.041   5.304   3.044 -0.6915  1.1895  3.1684
  208MOL0     H27430   6.777   5.320   3.052 -2.3591  0.6107 -1.3272
  208MOL0     H27431   6.775   5.156   3.027  2.8768 -1.5268 -0.0649
  208MOL0     H27432   6.889   5.167   2.809  1.7877  1.4421 -0.7257
  208MOL0     H27433   6.883   5.344   2.819 -1.4465  0.1558 -2.9618
  208MOL0     H27434   6.609   5.206   2.865  3.8241 -2.2163  1.2674
  208MOL0     H27435   6.639   5.352   2.801 -4.4975 -0.7451  2.5240
  208MOL0     H27436   6.553   5.219   2.632 -1.3302  0.2883  2.3889
  208MOL0     H27437   6.683   5.098   2.650  2.1305  1.0353 -3.7984
  208MOL0     H27438   7.440   4.870   3.340 -0.6287  0.6915  0.4149
  208MOL0     H27439   7.677   4.919   3.380 -0.9250  1.4437  0.3907
  208MOL0     H27440   8.084   4.845   3.194 -0.2685  0.3697 -0.2617
  208MOL0     H27441   8.330   4.820   3.246  1.6832 -0.0671  2.9183
  208MOL0     H27442  10.336   5.134   3.417 -0.6056 -0.3366 -3.5910
  208MOL0     H27443  10.565   5.215   3.455  0.6998  0.1935  0.0787
  208MOL0     H27444  10.894   5.737   3.252  0.3186  2.8005  2.0007
  208MOL0     H27445  11.110   5.795   3.312  1.4984 -1.5345 -0.5770
  208MOL0     H27446  11.392   5.800   3.565  1.3204  2.5275 -2.2505
  208MOL0     H27447  11.286   5.831   3.439  0.6592  0.0288 -0.9484
  208MOL0     H27448  11.390   5.669   3.278 -2.7453  1.2228  0.7715
  208MOL0     H27449  11.501   5.786   3.331 -2.6006  1.6242 -0.3055
  208MOL0     H27450  11.450   5.499   3.450 -0.6484  0.7206 -3.3151
  208MOL0     H27451  11.541   5.613   3.537 -1.4385 -1.0568  0.6317
  208MOL0     H27452  11.669   5.431   3.402 -1.1501 -1.3144 -3.9048
  208MOL0     H27453  11.617   5.511   3.251 -0.9242  0.7987  0.0992
  208MOL0     H27454  11.899   5.782   3.440  0.3123  1.2455 -2.1245
  208MOL0     H27455  11.120   5.459   3.585  3.2403 -0.1838 -1.5010
  208MOL0     H27456  10.873   5.445   3.559 -0.4870 -0.4106  0.3766
  209MOL0     O27457   7.287   2.937   5.994 -1.1875 -0.3898 -0.2253
  209MOL0     C27458   7.273   2.826   5.944 -0.1134  0.5020 -0.2309
  209MOL0     O27459   7.164   2.745   5.973  0.1522 -0.1335  0.3273
  209MOL0     C27460   7.068   2.779   6.065 -0.0023  0.4815  0.5163
  209MOL0     C27461   7.096   2.845   6.183 -0.1943  0.1007  0.0616
  209MOL0     C27462   6.995   2.858   6.273 -0.1951  0.0456  0.3181
  209MOL0     C27463   6.869   2.812   6.248 -0.2315  0.5979  0.3644
  209MOL0     O27464   6.768   2.847   6.343 -0.6233 -0.9485  0.0608
  209MOL0     C27465   6.632   2.795   6.349 -0.5812 -0.4308 -0.3523
  209MOL0     C27466   6.643   2.669   6.444 -0.0206  0.0732  0.0254
  209MOL0     C27467   6.508   2.602   6.483 -0.3037  0.3482 -0.1951
  209MOL0     C27468   6.460   2.661   6.617 -0.3068  0.5701  0.1765
  209MOL0     C27469   6.321   2.609   6.652  0.1134  0.1321  0.4393
  209MOL0     C27470   6.262   2.691   6.767 -0.4104 -0.2600 -0.0502
  209MOL0     C27471   6.139   2.622   6.837 -0.5814  0.6778 -0.0825
  209MOL0     C27472   6.125   2.473   6.822  0.1112 -0.2851  0.5906
  209MOL0     N27473   6.037   2.411   6.917 -0.3938  0.0013  0.2003
  209MOL0     C27474   6.070   2.289   6.988  0.6307 -0.3604 -1.6683
  209MOL0     C27475   5.945   2.228   7.012  0.1091 -0.0837  1.3359
  209MOL0     C27476   5.927   2.095   7.083  0.4716 -0.6969  1.1065
  209MOL0     C27477   5.953   1.974   7.010 -0.3586  0.1899  0.6269
  209MOL0     C27478   5.883   1.853   7.068 -0.5142  0.4398  0.1013
  209MOL0     C27479   5.897   1.725   6.993  0.1182  0.2375  0.3492
  209MOL0     O27480   5.818   1.682   6.878  0.7372 -0.7078  0.3853
  209MOL0     C27481   5.682   1.698   6.867 -0.3443  1.0908 -0.2475
  209MOL0     C27482   5.597   1.712   6.972  0.1522  0.6544 -0.1527
  209MOL0     C27483   5.464   1.726   6.943  0.2812 -0.2147 -0.4128
  209MOL0     C27484   5.412   1.708   6.815 -0.1087  0.8017  1.0489
  209MOL0     C27485   5.276   1.730   6.793 -0.6661  0.1983 -0.4682
  209MOL0     O27486   5.234   1.770   6.672  0.0709  1.3495  0.2257
  209MOL0     C27487   5.094   1.780   6.646 -0.5864  0.0681  0.3501
  209MOL0     C27488   5.003   1.850   6.735  0.1197 -0.2556 -0.1913
  209MOL0     C27489   4.868   1.863   6.701 -0.3891 -0.7458 -0.2200
  209MOL0     C27490   4.807   1.808   6.585 -0.0722 -0.2310 -1.0790
  209MOL0     O27491   4.678   1.838   6.550  0.5860  0.4410  0.5434
  209MOL0     C27492   4.581   1.802   6.648 -0.4462  0.2929  0.6250
  209MOL0     C27493   4.560   1.652   6.649 -0.0322  0.4647  0.5175
  209MOL0     C27494   4.503   1.601   6.525 -0.7826  0.1010 -0.0317
  209MOL0     C27495   4.457   1.453   6.552 -0.5679  0.4309  0.0199
  209MOL0     C27496   4.402   1.390   6.413  0.3446  0.2850  1.1143
  209MOL0     C27497   4.368   1.240   6.421  0.5068  0.3764 -0.3796
  209MOL0     C27498   4.316   1.180   6.288  0.4501  0.3159 -0.2566
  209MOL0     C27499   4.302   1.020   6.282 -1.3704  0.0487 -0.4995
  209MOL0    Cl27500   4.265   0.971   6.113 -0.3296  0.0833  0.0619
  209MOL0     C27501   4.897   1.739   6.505 -0.4117  0.6477 -0.4954
  209MOL0     C27502   5.032   1.722   6.536  0.4575 -0.8338  0.0840
  209MOL0     O27503   5.204   1.691   6.887 -0.7986 -0.0487  0.3729
  209MOL0     C27504   5.502   1.686   6.708  0.5894 -0.7639 -0.1802
  209MOL0     C27505   5.637   1.689   6.736 -0.8553  1.1614 -0.6809
  209MOL0     N27506   5.854   2.303   6.943 -0.0232  1.2738 -0.0139
  209MOL0     N27507   5.899   2.414   6.900  0.1126  0.0003  0.4704
  209MOL0     C27508   6.843   2.742   6.123  0.1240  0.3556  0.1135
  209MOL0     C27509   6.942   2.718   6.038 -0.3920  0.1730  0.2349
  209MOL0     C27510   7.365   2.768   5.850 -0.2042 -0.7550 -0.0963
  209MOL0     C27511   7.339   2.665   5.761 -0.9651  0.0670  0.1216
  209MOL0     C27512   7.434   2.611   5.681  0.2232 -0.0363  0.2932
  209MOL0     C27513   7.568   2.673   5.674  0.4429 -0.5267  1.1613
  209MOL0     O27514   7.663   2.634   5.582  0.0362 -0.0577  0.5601
  209MOL0     C27515   7.630   2.539   5.487 -0.5401 -0.2934  0.2316
  209MOL0     C27516   7.752   2.505   5.404  0.3088  0.1003 -0.1940
  209MOL0     C27517   7.801   2.631   5.339  0.7736  0.2772  0.3878
  209MOL0     C27518   7.949   2.625   5.296  0.1352 -0.6050 -0.9388
  209MOL0     C27519   8.032   2.681   5.415 -0.3432  0.2585  0.1659
  209MOL0     C27520   8.095   2.706   5.522  0.3682 -1.4313  0.1042
  209MOL0     C27521   7.596   2.784   5.751 -0.0929 -0.2340  0.7254
  209MOL0     C27522   7.501   2.831   5.834  0.3570  1.0241 -0.3970
  209MOL0     H27523   7.199   2.871   6.208  0.0734 -0.3076 -0.5678
  209MOL0     H27524   7.004   2.916   6.365 -0.0770  0.9311 -0.2412
  209MOL0     H27525   6.587   2.776   6.251 -1.6530 -1.8307  0.3816
  209MOL0     H27526   6.564   2.870   6.390 -0.0574 -0.6158  0.9136
  209MOL0     H27527   6.697   2.700   6.534  1.0637 -2.5560  0.3813
  209MOL0     H27528   6.705   2.598   6.389  3.3750  2.4953  0.4197
  209MOL0     H27529   6.536   2.496   6.481  0.1200  0.4339 -2.6260
  209MOL0     H27530   6.434   2.625   6.406 -0.4423  0.5979  0.0110
  209MOL0     H27531   6.528   2.631   6.698 -1.5037  0.1785  1.0733
  209MOL0     H27532   6.460   2.769   6.601  1.8584  0.5108 -0.6400
  209MOL0     H27533   6.336   2.508   6.692  0.2919 -0.7622 -1.7662
  209MOL0     H27534   6.239   2.612   6.580 -1.4156  4.9829  2.0104
  209MOL0     H27535   6.229   2.788   6.728  0.8034  1.1856  2.2930
  209MOL0     H27536   6.340   2.713   6.840 -1.3701  1.8183  0.4167
  209MOL0     H27537   6.143   2.659   6.940 -1.1633  1.6825 -0.4014
  209MOL0     H27538   6.051   2.669   6.791  0.5405  1.0446 -1.9626
  209MOL0     H27539   6.220   2.419   6.826  0.4633  0.3772  2.1524
  209MOL0     H27540   6.075   2.453   6.727  1.0556 -0.0846  0.0379
  209MOL0     H27541   6.171   2.250   6.990  1.6051  1.9416 -2.0870
  209MOL0     H27542   5.820   2.100   7.105 -0.0972  2.6200 -1.4804
  209MOL0     H27543   5.969   2.091   7.184 -0.9277  1.7356  1.8862
  209MOL0     H27544   6.061   1.958   7.013 -0.1290  1.6686  1.1161
  209MOL0     H27545   5.926   1.985   6.905  3.4707  1.8383 -0.3453
  209MOL0     H27546   5.936   1.843   7.163  1.1552  4.2157 -0.2214
  209MOL0     H27547   5.777   1.869   7.092 -0.8313 -0.2121 -0.8167
  209MOL0     H27548   5.872   1.661   7.079 -0.8603  3.4586  2.6764
  209MOL0     H27549   6.003   1.714   6.972  0.2282  2.6277 -0.6137
  209MOL0     H27550   5.633   1.725   7.073  0.5535  3.5427 -0.5783
  209MOL0     H27551   5.406   1.758   7.028  0.6418 -0.9874  0.1428
  209MOL0     H27552   5.039   1.908   6.820  2.8724 -0.4886 -1.1051
  209MOL0     H27553   4.803   1.914   6.772  0.2700  1.2755 -0.9840
  209MOL0     H27554   4.484   1.848   6.625 -0.3485 -0.1213 -0.6766
  209MOL0     H27555   4.601   1.822   6.754  2.3836  0.4121  0.1246
  209MOL0     H27556   4.486   1.638   6.728 -0.4962 -0.6555 -0.0881
  209MOL0     H27557   4.652   1.602   6.682 -0.2586 -0.0675  0.3571
  209MOL0     H27558   4.569   1.616   6.439 -3.5957  0.8583 -2.2359
  209MOL0     H27559   4.419   1.667   6.498 -1.4591  0.8678  3.4324
  209MOL0     H27560   4.548   1.399   6.582  2.5358  4.6240 -0.9474
  209MOL0     H27561   4.382   1.445   6.630 -2.6044  1.1234 -1.7803
  209MOL0     H27562   4.479   1.403   6.336 -1.2372 -0.7022 -0.7145
  209MOL0     H27563   4.315   1.444   6.376 -0.0975 -2.1584 -1.8193
  209MOL0     H27564   4.290   1.225   6.496 -1.1292 -1.4574 -2.2848
  209MOL0     H27565   4.448   1.176   6.458 -1.4111  0.3047  4.4378
  209MOL0     H27566   4.220   1.224   6.260  0.6570  1.8910  1.3304
  209MOL0     H27567   4.387   1.216   6.213  1.1522  1.4939  0.9225
  209MOL0     H27568   4.235   0.977   6.357 -0.2769  0.8450  0.9793
  209MOL0     H27569   4.398   0.971   6.301 -1.2443  0.4560 -0.0881
  209MOL0     H27570   4.873   1.693   6.410  2.9125  0.0431 -1.1811
  209MOL0     H27571   5.103   1.666   6.476  0.9150 -1.1479  0.9009
  209MOL0     H27572   5.455   1.671   6.612 -1.3095  0.5589  0.4885
  209MOL0     H27573   5.706   1.677   6.653 -1.4565 -0.9383 -0.9400
  209MOL0     H27574   6.742   2.711   6.098 -0.7288  1.8924  1.4749
  209MOL0     H27575   6.917   2.661   5.950 -2.6334  1.3235  0.0682
  209MOL0     H27576   7.244   2.612   5.771 -1.5317  1.3174  1.7263
  209MOL0     H27577   7.412   2.521   5.625  1.3935 -0.6007  0.7076
  209MOL0     H27578   7.546   2.571   5.425 -0.0033  0.1945 -0.2481
  209MOL0     H27579   7.598   2.444   5.532 -0.3607 -0.2700  0.4099
  209MOL0     H27580   7.825   2.457   5.470  0.4256 -0.8348 -0.9824
  209MOL0     H27581   7.707   2.431   5.338  0.0927 -1.0329  1.1821
  209MOL0     H27582   7.771   2.724   5.388 -0.7639 -0.1376  0.2814
  209MOL0     H27583   7.740   2.630   5.248  0.3659  1.6511  0.6243
  209MOL0     H27584   7.976   2.522   5.272 -2.1014 -1.9009  1.5904
  209MOL0     H27585   7.952   2.691   5.209 -3.0065 -2.1161 -2.3457
  209MOL0     H27586   8.133   2.732   5.619 -1.9025 -0.4610  0.7919
  209MOL0     H27587   7.688   2.839   5.736 -0.8369  1.0984  0.9308
  209MOL0     H27588   7.517   2.923   5.889 -4.7056  2.2291 -0.4735
  210MOL0     O27589   8.731   1.446   4.511 -0.5198 -0.9583 -0.1929
  210MOL0     C27590   8.639   1.492   4.581  0.1991  0.3594 -0.0248
  210MOL0     O27591   8.504   1.453   4.571 -0.1388  0.2408 -0.0228
  210MOL0     C27592   8.454   1.365   4.482 -0.0891 -0.0905  0.2193
  210MOL0     C27593   8.316   1.376   4.464 -0.5196 -0.9647 -1.0741
  210MOL0     C27594   8.245   1.276   4.398  0.4427 -0.8703 -0.2208
  210MOL0     C27595   8.316   1.168   4.348  0.4853 -0.4201 -0.1449
  210MOL0     O27596   8.239   1.067   4.288  0.9106 -0.5340 -0.5708
  210MOL0     C27597   8.299   0.983   4.196 -0.1213 -0.1422  0.8979
  210MOL0     C27598   8.235   1.010   4.055 -0.9576  0.2930 -0.6974
  210MOL0     C27599   8.082   0.974   4.066 -0.6930  1.0237  0.3560
  210MOL0     C27600   8.026   0.956   3.919 -0.3625  0.0401  0.7300
  210MOL0     C27601   7.901   0.876   3.921  0.4757  0.8734 -0.1075
  210MOL0     C27602   7.847   0.854   3.777 -0.3486  0.9798 -0.5390
  210MOL0     C27603   7.722   0.770   3.781  0.1302 -0.1226  1.1703
  210MOL0     C27604   7.658   0.774   3.637 -0.5340  0.1898  0.0258
  210MOL0     N27605   7.594   0.904   3.631  0.4315 -0.2102  0.3618
  210MOL0     C27606   7.469   0.922   3.684  0.0915 -0.0898  0.5113
  210MOL0     C27607   7.446   1.052   3.656 -0.3997 -0.5121  0.2846
  210MOL0     C27608   7.315   1.129   3.679  0.2409 -0.0687 -0.0073
  210MOL0     C27609   7.333   1.281   3.685 -0.3284 -0.2318  0.7625
  210MOL0     C27610   7.214   1.356   3.748 -0.8198  0.7821  0.5054
  210MOL0     C27611   7.169   1.305   3.893 -0.4398  0.0052 -0.5188
  210MOL0     O27612   7.259   1.332   4.000 -0.4764  0.2912 -0.2707
  210MOL0     C27613   7.235   1.280   4.125  0.2079 -0.3003  0.5571
  210MOL0     C27614   7.104   1.245   4.180 -0.0589  0.5649  0.1285
  210MOL0     C27615   7.094   1.202   4.310  0.4148 -0.2793  0.3929
  210MOL0     C27616   7.214   1.172   4.377 -0.8261 -0.0183  0.0192
  210MOL0     C27617   7.206   1.106   4.514 -0.9828 -0.4036  0.8611
  210MOL0     O27618   7.069   1.091   4.557 -0.2312  0.8365  0.0801
  210MOL0     C27619   7.025   1.025   4.662  0.2442  0.4920 -0.6177
  210MOL0     C27620   6.897   0.978   4.667  0.4026  0.7386  0.0694
  210MOL0     C27621   6.840   0.912   4.782 -0.0185 -0.2648 -1.3304
  210MOL0     C27622   6.916   0.879   4.898 -0.9821 -0.0873 -0.9680
  210MOL0     O27623   6.875   0.805   5.004 -0.2245 -0.7630  0.6194
  210MOL0     C27624   6.757   0.719   4.989 -1.4363  0.6653 -0.1678
  210MOL0     C27625   6.636   0.780   5.060  0.4313 -0.2464 -0.1779
  210MOL0     C27626   6.489   0.728   5.048 -0.4176 -0.4494 -0.6341
  210MOL0     C27627   6.437   0.688   4.916 -0.0208 -0.4324  0.8355
  210MOL0     C27628   6.409   0.814   4.817  0.2645  0.6106 -0.0835
  210MOL0     C27629   6.448   0.796   4.672  0.1448 -0.8597  0.9088
  210MOL0     C27630   6.447   0.922   4.597  0.1054 -0.3677  0.5106
  210MOL0     C27631   6.513   0.917   4.459  0.2091  0.8111  0.1192
  210MOL0    Cl27632   6.440   0.784   4.363  0.0372  0.1847  0.7118
  210MOL0     C27633   7.048   0.928   4.899  0.3117 -0.8977  0.1705
  210MOL0     C27634   7.094   1.008   4.789 -0.3006 -0.8888 -0.0091
  210MOL0     O27635   7.305   1.063   4.575 -0.5487 -1.1042  0.7818
  210MOL0     C27636   7.341   1.185   4.323 -0.3741 -0.2145  0.7575
  210MOL0     C27637   7.351   1.256   4.197  0.1220  0.7184  0.1313
  210MOL0     N27638   7.558   1.114   3.611 -0.0354 -0.3500  0.2415
  210MOL0     N27639   7.636   1.024   3.587 -0.4641 -0.5624  0.4807
  210MOL0     C27640   8.453   1.162   4.361  0.0712 -0.7709 -0.4561
  210MOL0     C27641   8.523   1.256   4.439 -0.0361  0.6458  0.3329
  210MOL0     C27642   8.664   1.601   4.684 -0.5621  0.1103  0.7089
  210MOL0     C27643   8.792   1.647   4.693 -0.9000 -0.2568  0.2725
  210MOL0     C27644   8.824   1.750   4.788 -0.2240  2.4022 -0.2852
  210MOL0     C27645   8.720   1.804   4.863 -0.3219 -0.1397 -0.6573
  210MOL0     O27646   8.741   1.915   4.942 -0.0882  0.0481 -0.4669
  210MOL0     C27647   8.673   1.908   5.077 -0.2116  0.2083 -0.0101
  210MOL0     C27648   8.752   2.001   5.157 -0.4865  0.3376 -0.1939
  210MOL0     C27649   8.877   1.923   5.216 -0.0949 -0.5520  0.4632
  210MOL0     C27650   8.968   2.033   5.289  0.3364  0.8682  0.1064
  210MOL0     C27651   9.036   2.122   5.193  0.4093  0.1410 -1.6695
  210MOL0     C27652   9.089   2.200   5.116 -0.1223  1.0354  0.2694
  210MOL0     C27653   8.593   1.752   4.852 -1.0269  0.2680  0.1946
  210MOL0     C27654   8.567   1.643   4.772  0.9267  0.3127 -0.0486
  210MOL0     H27655   8.271   1.464   4.507  0.9049 -0.0788 -1.3366
  210MOL0     H27656   8.140   1.296   4.380  1.0019  0.8059 -2.0163
  210MOL0     H27657   8.271   0.883   4.231 -1.9245  1.0332  3.1271
  210MOL0     H27658   8.408   0.983   4.193 -0.0089 -2.3775  2.8022
  210MOL0     H27659   8.297   0.957   3.982  0.6879  2.7899 -1.2336
  210MOL0     H27660   8.234   1.116   4.027  0.6267  0.8881  1.3132
  210MOL0     H27661   8.022   1.050   4.117  0.2026  1.1787  1.2129
  210MOL0     H27662   8.062   0.879   4.115 -1.4846  0.3438 -1.2311
  210MOL0     H27663   8.015   1.058   3.880  2.7698  0.4678  0.7090
  210MOL0     H27664   8.089   0.903   3.847 -3.2013  2.6179 -4.2355
  210MOL0     H27665   7.828   0.942   3.969  1.4428  1.8683  0.0268
  210MOL0     H27666   7.901   0.780   3.972 -5.3363  0.1028 -0.8879
  210MOL0     H27667   7.918   0.815   3.703  0.2564  3.0533 -1.1168
  210MOL0     H27668   7.817   0.954   3.744 -0.5873  0.5752 -1.6160
  210MOL0     H27669   7.753   0.667   3.804  2.8133  0.7394  1.8111
  210MOL0     H27670   7.649   0.812   3.850 -1.2830  0.6611 -0.7217
  210MOL0     H27671   7.582   0.697   3.616 -4.4912  3.0837  2.4118
  210MOL0     H27672   7.741   0.760   3.567 -0.8293  0.8712 -0.4730
  210MOL0     H27673   7.409   0.846   3.733 -2.7926 -0.1390 -2.7101
  210MOL0     H27674   7.264   1.095   3.769 -0.7072  1.1026 -0.0699
  210MOL0     H27675   7.248   1.117   3.594 -1.1594  0.7079  0.9519
  210MOL0     H27676   7.353   1.314   3.583  0.7199  3.1859  1.9243
  210MOL0     H27677   7.420   1.289   3.752 -0.1168 -1.1547  0.6176
  210MOL0     H27678   7.247   1.459   3.764  0.5184  0.6074 -0.8958
  210MOL0     H27679   7.136   1.347   3.672 -1.2098  1.3725  0.8275
  210MOL0     H27680   7.144   1.199   3.883  2.4683 -0.9009  0.6950
  210MOL0     H27681   7.078   1.359   3.921  1.2768  2.0589  1.5147
  210MOL0     H27682   7.016   1.258   4.117 -1.6618  0.9755  2.3107
  210MOL0     H27683   6.999   1.176   4.356 -0.2478 -3.0315 -2.1966
  210MOL0     H27684   6.828   0.980   4.584  0.1356  0.1218  0.2763
  210MOL0     H27685   6.732   0.901   4.788  0.1316 -1.1420  1.1547
  210MOL0     H27686   6.794   0.635   5.049  1.7617  2.4898  0.6549
  210MOL0     H27687   6.736   0.688   4.886 -2.7467 -2.9654  1.0318
  210MOL0     H27688   6.632   0.886   5.036 -3.4371  0.2728  2.0224
  210MOL0     H27689   6.655   0.776   5.167 -0.7354 -0.3425  0.0375
  210MOL0     H27690   6.417   0.797   5.092  0.7926  2.0307 -2.3003
  210MOL0     H27691   6.477   0.638   5.109  0.0464  0.7108  1.2156
  210MOL0     H27692   6.505   0.617   4.867  1.8379  0.9188  1.3616
  210MOL0     H27693   6.341   0.638   4.934 -0.3228 -1.1063 -2.0813
  210MOL0     H27694   6.457   0.899   4.867 -2.4912  1.3578  1.5341
  210MOL0     H27695   6.301   0.831   4.818 -0.1768 -1.3607 -2.9804
  210MOL0     H27696   6.381   0.729   4.618 -0.2412  1.6333 -1.9219
  210MOL0     H27697   6.550   0.757   4.662  0.5485  0.5905 -1.1255
  210MOL0     H27698   6.338   0.926   4.591 -0.0182 -2.1842  0.7574
  210MOL0     H27699   6.486   1.010   4.649 -0.3436  1.4122 -1.9977
  210MOL0     H27700   6.620   0.906   4.476  0.5567  2.6082 -0.6342
  210MOL0     H27701   6.492   1.004   4.395 -1.7298 -0.0213 -0.4506
  210MOL0     H27702   7.119   0.905   4.977  0.0531 -1.3102  0.2842
  210MOL0     H27703   7.188   1.060   4.800 -1.3285  0.8870  0.6609
  210MOL0     H27704   7.424   1.152   4.384  0.3021 -0.4126 -0.2513
  210MOL0     H27705   7.444   1.280   4.147  0.3042  3.5747  1.6564
  210MOL0     H27706   8.506   1.078   4.317 -0.6027 -1.4900  0.0824
  210MOL0     H27707   8.624   1.231   4.469 -0.6214 -1.1154  0.9725
  210MOL0     H27708   8.877   1.624   4.630  1.7102  3.2852  2.1039
  210MOL0     H27709   8.926   1.785   4.798  1.2180 -1.5834  1.3442
  210MOL0     H27710   8.671   1.807   5.120 -2.6128  0.1597 -0.0890
  210MOL0     H27711   8.567   1.934   5.064 -0.5514 -0.8918  0.4164
  210MOL0     H27712   8.783   2.083   5.091  1.0214  2.8221  3.2742
  210MOL0     H27713   8.686   2.038   5.236  1.2578  1.2003  0.9156
  210MOL0     H27714   8.932   1.886   5.129 -0.7694 -1.1602  0.2815
  210MOL0     H27715   8.856   1.831   5.272 -0.3879 -1.5683 -1.2419
  210MOL0     H27716   8.904   2.088   5.358 -3.2537 -2.4803 -0.1702
  210MOL0     H27717   9.047   1.975   5.338  1.6718  0.2166 -2.5791
  210MOL0     H27718   9.136   2.267   5.047 -0.9017  1.6808  0.3461
  210MOL0     H27719   8.502   1.784   4.902 -0.5032 -1.3749  2.3217
  210MOL0     H27720   8.468   1.597   4.775  1.1055 -0.5281 -3.2528
  211MOL0     O27721   0.780  10.036   4.104  0.2776  0.3651  0.3574
  211MOL0     C27722   0.805  10.102   4.204 -0.2991  0.3748 -0.3569
  211MOL0     O27723   0.715  10.162   4.288 -0.8892 -0.2461  0.2199
  211MOL0     C27724   0.585  10.139   4.271  0.8438  0.0901 -0.9021
  211MOL0     C27725   0.510  10.143   4.156 -0.9088  0.4348  1.4337
  211MOL0     C27726   0.369  10.133   4.158  0.1625 -0.4301 -0.3669
  211MOL0     C27727   0.296  10.137   4.281  0.5277 -0.4794 -0.0076
  211MOL0     O27728   0.161  10.146   4.263  1.3655  0.8468 -0.6763
  211MOL0     C27729   0.074  10.126   4.382 -0.9213 -0.0787  0.3223
  211MOL0     C27730  -0.071  10.116   4.338  0.2421 -0.2368 -0.2310
  211MOL0     C27731  -0.135  10.241   4.290  0.3531 -0.3033  0.3672
  211MOL0     C27732  -0.282  10.219   4.232 -0.8559 -1.2563  0.3985
  211MOL0     C27733  -0.345  10.355   4.193 -0.9768 -0.0339  0.0760
  211MOL0     C27734  -0.447  10.332   4.080 -0.9427 -0.3471  0.0703
  211MOL0     C27735  -0.539  10.452   4.065 -0.8435  0.3530 -0.1746
  211MOL0     C27736  -0.491  10.583   3.991 -0.7440  0.8207 -0.2034
  211MOL0     N27737  -0.489  10.563   3.842 -0.0834 -0.3986 -0.2250
  211MOL0     C27738  -0.373  10.532   3.782 -0.5763 -0.5168  1.0231
  211MOL0     C27739  -0.400  10.541   3.649  0.0002 -0.3117 -0.4512
  211MOL0     C27740  -0.317  10.502   3.539 -1.0193  0.0191  0.4776
  211MOL0     C27741  -0.156  10.530   3.551  0.8267  0.0106 -0.4872
  211MOL0     C27742  -0.109  10.520   3.406 -0.4933  0.1063  0.8784
  211MOL0     C27743   0.033  10.566   3.390  0.2783 -0.4766 -0.2128
  211MOL0     O27744   0.115  10.484   3.474 -0.2514 -0.0215  0.9237
  211MOL0     C27745   0.238  10.539   3.479  0.4974  0.2516 -0.8279
  211MOL0     C27746   0.292  10.565   3.601  0.0930 -0.7444 -0.5520
  211MOL0     C27747   0.421  10.617   3.610  0.3571 -0.3737  0.1340
  211MOL0     C27748   0.500  10.628   3.493 -0.3067  0.2675 -0.0866
  211MOL0     C27749   0.638  10.672   3.504 -0.0862  0.6943  0.6625
  211MOL0     O27750   0.687  10.688   3.625  0.4549  0.6402 -0.3118
  211MOL0     C27751   0.820  10.682   3.659 -0.5909  0.1891  0.5493
  211MOL0     C27752   0.898  10.563   3.634 -0.0852  0.5724 -0.6666
  211MOL0     C27753   1.038  10.558   3.674  0.5874 -0.0293 -0.3736
  211MOL0     C27754   1.099  10.674   3.722 -0.6695 -0.6196 -0.5065
  211MOL0     O27755   1.224  10.695   3.760 -0.3971  0.1858 -0.1193
  211MOL0     C27756   1.316  10.595   3.741 -0.2844 -0.1817 -1.2695
  211MOL0     C27757   1.449  10.641   3.812  0.1797 -1.2673 -0.0432
  211MOL0     C27758   1.503  10.790   3.803 -0.8234  0.1448  0.2060
  211MOL0     C27759   1.545  10.842   3.663  0.2933 -0.2870 -0.2856
  211MOL0     C27760   1.550  11.000   3.653 -0.0094  0.4901  0.4457
  211MOL0     C27761   1.670  11.050   3.731  0.3090 -0.2362  0.7484
  211MOL0     C27762   1.675  11.198   3.732  0.5593 -1.0125 -0.0118
  211MOL0     C27763   1.795  11.260   3.804 -0.8565  0.1693 -0.6773
  211MOL0    Cl27764   1.925  11.224   3.694  0.5653  0.6513 -0.3027
  211MOL0     C27765   1.022  10.796   3.738  0.4654  0.1010 -0.4259
  211MOL0     C27766   0.888  10.795   3.714  0.4975 -0.6133 -0.5282
  211MOL0     O27767   0.704  10.690   3.401 -0.6392  0.3302 -0.1928
  211MOL0     C27768   0.442  10.598   3.371  0.5376 -0.4478 -1.1556
  211MOL0     C27769   0.316  10.553   3.369  0.4380 -0.1028  0.5785
  211MOL0     N27770  -0.520  10.609   3.629 -0.2583 -0.2362 -0.6593
  211MOL0     N27771  -0.583  10.607   3.755  0.4983  0.0372  0.0621
  211MOL0     C27772   0.365  10.115   4.397 -0.4824  0.4786 -0.4922
  211MOL0     C27773   0.504  10.114   4.391  0.3101  0.2886  0.5940
  211MOL0     C27774   0.950  10.122   4.241 -0.2106 -0.6785 -0.2600
  211MOL0     C27775   1.041  10.042   4.173 -0.7333 -0.2501 -0.6344
  211MOL0     C27776   1.174  10.037   4.211  0.1081 -0.0708 -0.8870
  211MOL0     C27777   1.217  10.122   4.316 -1.0462  0.7352 -0.1838
  211MOL0     O27778   1.353  10.100   4.341  0.0488  0.3273  0.2977
  211MOL0     C27779   1.439  10.213   4.388 -0.2517 -0.3777 -0.7011
  211MOL0     C27780   1.427  10.344   4.314 -0.1186 -0.5909  0.4261
  211MOL0     C27781   1.502  10.351   4.180  0.7408  0.0626  0.5316
  211MOL0     C27782   1.409  10.295   4.067  1.1735  0.1701  0.2826
  211MOL0     C27783   1.479  10.273   3.942 -0.2554 -0.8601 -0.0120
  211MOL0     C27784   1.528  10.263   3.833 -0.5582  0.0206  0.6698
  211MOL0     C27785   1.132  10.197   4.383 -0.2233  0.9317  0.9254
  211MOL0     C27786   0.999  10.205   4.348  0.5572 -0.1243 -0.2112
  211MOL0     H27787   0.552  10.160   4.057 -0.6419 -0.2272  1.4291
  211MOL0     H27788   0.339  10.135   4.053  1.5636  1.2106 -0.7903
  211MOL0     H27789   0.077  10.211   4.450 -2.2301 -0.9170  1.5020
  211MOL0     H27790   0.108  10.036   4.435 -2.0725 -1.3199 -0.9621
  211MOL0     H27791  -0.133  10.080   4.421  1.2715  1.4580  1.3626
  211MOL0     H27792  -0.083  10.036   4.265 -1.1262  1.8058 -2.3853
  211MOL0     H27793  -0.075  10.280   4.207  2.1204  0.2623  1.8351
  211MOL0     H27794  -0.139  10.308   4.377  0.1256  2.1154 -1.4224
  211MOL0     H27795  -0.283  10.162   4.139 -2.1326 -2.7505  1.2737
  211MOL0     H27796  -0.340  10.158   4.302 -0.8039 -0.0690  1.5020
  211MOL0     H27797  -0.268  10.426   4.162 -1.3336  2.1643  3.5918
  211MOL0     H27798  -0.379  10.415   4.278  2.0303  3.1398 -0.7212
  211MOL0     H27799  -0.503  10.240   4.101  1.4380 -1.4570  1.9813
  211MOL0     H27800  -0.385  10.324   3.990 -0.1106  0.4092  0.5613
  211MOL0     H27801  -0.626  10.423   4.005 -0.3792 -1.5125  0.0085
  211MOL0     H27802  -0.582  10.483   4.161 -0.8169  1.0173 -0.3736
  211MOL0     H27803  -0.391  10.606   4.028  0.9903  0.6118 -4.2084
  211MOL0     H27804  -0.571  10.656   4.010 -3.6470 -1.5787 -2.2950
  211MOL0     H27805  -0.277  10.491   3.812  0.0511 -0.3188 -0.5859
  211MOL0     H27806  -0.355  10.560   3.455 -1.6713  1.4430  1.7197
  211MOL0     H27807  -0.340  10.402   3.499 -2.0169  1.1203 -1.9049
  211MOL0     H27808  -0.111  10.460   3.621  0.2683 -0.2279 -0.3595
  211MOL0     H27809  -0.156  10.630   3.596 -4.1654 -0.3582  0.9525
  211MOL0     H27810  -0.119  10.415   3.375 -0.3656  0.6547 -1.1832
  211MOL0     H27811  -0.168  10.578   3.335 -0.2479 -1.0252 -0.2939
  211MOL0     H27812   0.060  10.667   3.422 -0.9867  0.3382 -1.5997
  211MOL0     H27813   0.050  10.564   3.282  0.7937  0.3968 -0.1534
  211MOL0     H27814   0.250  10.548   3.699  3.8035 -1.7346  1.0639
  211MOL0     H27815   0.470  10.640   3.704 -2.4925  0.0536  1.6074
  211MOL0     H27816   0.854  10.473   3.593  0.1021  1.1324 -2.1395
  211MOL0     H27817   1.087  10.462   3.660 -2.3131 -2.4138  3.5235
  211MOL0     H27818   1.332  10.570   3.636  1.1996 -0.8350 -0.9241
  211MOL0     H27819   1.283  10.506   3.795 -0.8573  1.3387  1.0094
  211MOL0     H27820   1.534  10.575   3.791  2.9694  1.9913  0.0547
  211MOL0     H27821   1.425  10.615   3.916 -0.1126 -2.6240 -0.4226
  211MOL0     H27822   1.588  10.792   3.871  1.5474 -0.6701 -2.5042
  211MOL0     H27823   1.430  10.859   3.845 -0.9105 -0.3563  0.9030
  211MOL0     H27824   1.646  10.802   3.647 -0.0096  0.0979 -4.2023
  211MOL0     H27825   1.471  10.807   3.590 -1.0629 -0.6207  1.2040
  211MOL0     H27826   1.454  11.031   3.697 -0.5862 -2.0521  1.1364
  211MOL0     H27827   1.564  11.012   3.546  2.8867  2.6179  0.9335
  211MOL0     H27828   1.759  11.006   3.686  0.0777  0.5214 -0.5003
  211MOL0     H27829   1.667  11.008   3.832  0.5451  0.8756  1.2250
  211MOL0     H27830   1.687  11.245   3.634  4.3296  3.0332  2.0366
  211MOL0     H27831   1.583  11.228   3.784  1.7425  0.5666  1.3001
  211MOL0     H27832   1.807  11.216   3.903  0.1251  1.6197 -0.1141
  211MOL0     H27833   1.806  11.368   3.818  0.9486 -0.3910  4.8401
  211MOL0     H27834   1.062  10.893   3.765 -2.0514  0.9803  0.3488
  211MOL0     H27835   0.828  10.883   3.739 -0.7863 -2.0325  1.8285
  211MOL0     H27836   0.495  10.598   3.276 -0.9560  2.0730 -2.0825
  211MOL0     H27837   0.267  10.529   3.275 -1.7564  1.1805  1.3106
  211MOL0     H27838   0.337  10.105   4.501 -0.1110 -1.6696 -0.5507
  211MOL0     H27839   0.568  10.104   4.479 -0.1369 -0.5747  0.8315
  211MOL0     H27840   1.008   9.964   4.105  0.6271 -1.7211  0.3123
  211MOL0     H27841   1.252   9.986   4.156  0.6210  0.4261 -0.6364
  211MOL0     H27842   1.546  10.190   4.388 -0.5057 -1.8591  1.3885
  211MOL0     H27843   1.403  10.243   4.487 -0.7410  1.5315 -1.4140
  211MOL0     H27844   1.323  10.379   4.314  0.7867  2.3767  2.1948
  211MOL0     H27845   1.464  10.418   4.385 -1.6659  0.9790 -0.3044
  211MOL0     H27846   1.597  10.298   4.186  1.3082  0.6789 -1.9962
  211MOL0     H27847   1.532  10.452   4.149  0.0988 -0.0454 -0.4689
  211MOL0     H27848   1.376  10.193   4.087 -1.4715  0.9116  0.0499
  211MOL0     H27849   1.325  10.362   4.048  1.4686  0.4927  0.1009
  211MOL0     H27850   1.569  10.233   3.739  1.3004 -0.7852  1.6734
  211MOL0     H27851   1.165  10.258   4.467 -0.5864  0.6215  1.3001
  211MOL0     H27852   0.932  10.263   4.411  2.7529  0.5180  1.6376
  212MOL0     O27853   4.549   6.881   2.811 -0.8829  0.5484  0.3522
  212MOL0     C27854   4.626   6.803   2.742  0.5861  0.0321 -0.0124
  212MOL0     O27855   4.747   6.754   2.783 -0.5585 -0.1702 -0.8082
  212MOL0     C27856   4.800   6.788   2.903  0.1634 -0.5166  0.3959
  212MOL0     C27857   4.877   6.690   2.957  1.0323  0.8645  1.1053
  212MOL0     C27858   4.938   6.711   3.078  0.0743  0.0635 -0.5564
  212MOL0     C27859   4.926   6.831   3.144 -0.1366 -0.5124  0.3728
  212MOL0     O27860   4.994   6.841   3.266 -0.4976 -0.1038  0.4407
  212MOL0     C27861   5.087   6.947   3.306  1.2841 -0.4474  0.6543
  212MOL0     C27862   5.172   6.900   3.424 -0.8724  0.1694  0.1354
  212MOL0     C27863   5.314   6.962   3.422 -0.3307  0.2260 -0.1565
  212MOL0     C27864   5.317   7.110   3.442  0.2387 -0.2804  0.5625
  212MOL0     C27865   5.456   7.165   3.437 -0.8642  0.1155  0.6329
  212MOL0     C27866   5.550   7.116   3.541 -0.1351 -0.1241  0.4448
  212MOL0     C27867   5.681   7.198   3.554  0.1543 -0.0466 -0.6164
  212MOL0     C27868   5.783   7.171   3.445  0.8316  0.0544 -0.4819
  212MOL0     N27869   5.872   7.059   3.472 -0.1869 -0.7129  0.7607
  212MOL0     C27870   5.987   7.061   3.557  0.8129 -0.3596  0.1898
  212MOL0     C27871   6.059   6.957   3.515 -0.1886  0.9950  0.0896
  212MOL0     C27872   6.191   6.924   3.575 -0.9046 -0.4936 -0.1924
  212MOL0     C27873   6.170   6.863   3.719 -0.3674 -0.2329 -0.1651
  212MOL0     C27874   6.308   6.833   3.792 -0.4441 -0.8351 -0.0274
  212MOL0     C27875   6.381   6.950   3.856  0.1232 -0.3613  0.6499
  212MOL0     O27876   6.429   6.912   3.987 -0.5047 -0.4358  0.5456
  212MOL0     C27877   6.519   6.999   4.036  0.1532  0.5986 -0.1301
  212MOL0     C27878   6.527   7.140   4.004  0.7657 -0.3897 -0.0968
  212MOL0     C27879   6.623   7.226   4.066 -0.3127  0.2481  0.5910
  212MOL0     C27880   6.719   7.169   4.155 -0.0985  0.1498  0.2311
  212MOL0     C27881   6.834   7.251   4.211  1.0096  0.6386  0.5772
  212MOL0     O27882   6.811   7.387   4.228  0.0404  0.1448  0.4544
  212MOL0     C27883   6.896   7.481   4.282  0.6630  0.3164 -0.3042
  212MOL0     C27884   7.011   7.440   4.365 -0.0590  0.6339 -1.0621
  212MOL0     C27885   7.109   7.540   4.403  0.1740  0.6251  0.4856
  212MOL0     C27886   7.087   7.669   4.366  0.3156 -0.4897 -0.1105
  212MOL0     O27887   7.178   7.769   4.399  0.8338  0.0201  0.4623
  212MOL0     C27888   7.234   7.786   4.529 -1.2428  0.2364  0.0029
  212MOL0     C27889   7.356   7.871   4.537 -0.4785  0.2763 -0.1790
  212MOL0     C27890   7.316   8.022   4.532 -0.4437 -0.3797  0.1128
  212MOL0     C27891   7.433   8.126   4.545 -0.8222  0.1911 -0.0840
  212MOL0     C27892   7.380   8.266   4.527 -0.2918 -0.5390  0.0165
  212MOL0     C27893   7.330   8.320   4.664  0.1295 -0.5304  0.6542
  212MOL0     C27894   7.306   8.472   4.668 -0.0664 -0.6036  0.5708
  212MOL0     C27895   7.166   8.499   4.625  0.4778  0.7872 -0.1453
  212MOL0    Cl27896   7.126   8.672   4.590  0.3421  0.3010 -0.2983
  212MOL0     C27897   6.979   7.705   4.285  0.4422 -0.6363 -0.8896
  212MOL0     C27898   6.886   7.612   4.240  0.4937  0.8118  0.3120
  212MOL0     O27899   6.937   7.193   4.228  0.0093  0.4289  0.0566
  212MOL0     C27900   6.718   7.033   4.177 -0.2276 -0.0467 -0.9030
  212MOL0     C27901   6.628   6.948   4.115 -0.1457 -0.4842 -0.0863
  212MOL0     N27902   6.005   6.893   3.407 -0.0196 -0.4574  0.2857
  212MOL0     N27903   5.897   6.956   3.388  0.8241 -0.6013  0.7431
  212MOL0     C27904   4.854   6.934   3.086 -0.5992  0.2024 -1.1194
  212MOL0     C27905   4.789   6.919   2.971  0.2363  0.3199  0.5015
  212MOL0     C27906   4.583   6.767   2.605 -0.4532 -0.5344  0.4626
  212MOL0     C27907   4.480   6.820   2.537  0.1931  0.1032 -1.4601
  212MOL0     C27908   4.460   6.790   2.405  0.1238 -0.5657 -0.4159
  212MOL0     C27909   4.533   6.691   2.345  0.2022  0.6134 -0.1301
  212MOL0     O27910   4.503   6.650   2.223 -0.3744 -0.8421 -0.1719
  212MOL0     C27911   4.366   6.627   2.185  0.1235 -0.2888  0.0413
  212MOL0     C27912   4.299   6.535   2.291 -0.9019  0.9606  0.1721
  212MOL0     C27913   4.324   6.384   2.244 -0.3189 -1.3398  0.1500
  212MOL0     C27914   4.220   6.292   2.304  0.0606 -0.8922 -0.0850
  212MOL0     C27915   4.265   6.221   2.424  1.1674 -0.9303 -0.0256
  212MOL0     C27916   4.295   6.171   2.531  1.0241  0.3623  0.3317
  212MOL0     C27917   4.634   6.623   2.406 -0.8703  0.4084 -0.4932
  212MOL0     C27918   4.668   6.669   2.534  0.7276  0.7435 -1.9282
  212MOL0     H27919   4.889   6.592   2.912 -1.8002  0.6793  0.5817
  212MOL0     H27920   5.018   6.643   3.103 -0.6757 -1.5836 -2.3590
  212MOL0     H27921   5.027   7.031   3.341  1.2675 -0.9550  1.9172
  212MOL0     H27922   5.145   6.991   3.224  0.6066  2.6508  1.7052
  212MOL0     H27923   5.192   6.794   3.406  2.2724  0.4075  1.5057
  212MOL0     H27924   5.114   6.917   3.514 -0.5837  3.3388 -0.1584
  212MOL0     H27925   5.360   6.944   3.325 -1.1182 -0.4676 -0.4120
  212MOL0     H27926   5.371   6.909   3.500 -0.7734 -1.9472 -1.2167
  212MOL0     H27927   5.251   7.164   3.373  4.6276  0.6197 -3.4142
  212MOL0     H27928   5.289   7.128   3.546  0.7645 -2.8757  1.2411
  212MOL0     H27929   5.458   7.273   3.456  1.4182  0.9199 -3.0480
  212MOL0     H27930   5.492   7.142   3.337  0.7327 -1.2784  1.4704
  212MOL0     H27931   5.572   7.009   3.537  1.2357  0.1642 -0.4360
  212MOL0     H27932   5.498   7.135   3.635 -1.1147  0.5355 -0.1997
  212MOL0     H27933   5.653   7.303   3.548  1.6755  0.7250  3.0323
  212MOL0     H27934   5.722   7.190   3.655  0.6265  1.4973 -0.6614
  212MOL0     H27935   5.857   7.252   3.440  2.6385 -1.5377 -0.5822
  212MOL0     H27936   5.736   7.166   3.346  1.3136  0.7234 -0.7561
  212MOL0     H27937   6.021   7.120   3.641 -0.5733 -0.9063  1.1836
  212MOL0     H27938   6.254   7.013   3.581  1.3669 -2.0490  0.6188
  212MOL0     H27939   6.245   6.856   3.508 -1.2872  0.1848 -1.2124
  212MOL0     H27940   6.117   6.767   3.715 -1.0305 -0.1210  3.1471
  212MOL0     H27941   6.101   6.918   3.782  1.4136  2.3147 -0.3056
  212MOL0     H27942   6.287   6.760   3.870 -2.9707  1.6450  1.7889
  212MOL0     H27943   6.380   6.788   3.722  0.3542 -2.5112  1.7698
  212MOL0     H27944   6.306   7.029   3.869  0.4704  0.0336  0.2821
  212MOL0     H27945   6.468   6.993   3.805  1.3157  0.9014  3.4977
  212MOL0     H27946   6.455   7.182   3.935 -0.3360 -2.3975 -0.2375
  212MOL0     H27947   6.631   7.331   4.042  3.7512  0.3230  1.6590
  212MOL0     H27948   7.025   7.340   4.405  0.3587  0.8543 -0.6573
  212MOL0     H27949   7.190   7.498   4.462 -0.8234  0.7043  1.9732
  212MOL0     H27950   7.281   7.693   4.561  2.2990  0.9614 -2.4771
  212MOL0     H27951   7.162   7.826   4.602  1.1287  5.1797  0.0305
  212MOL0     H27952   7.409   7.842   4.446 -0.8464  0.7080 -0.5357
  212MOL0     H27953   7.415   7.854   4.628 -0.6401 -1.0093 -0.2967
  212MOL0     H27954   7.241   8.040   4.610 -2.0150  3.0363 -1.9191
  212MOL0     H27955   7.262   8.034   4.437 -0.1411  0.3239  0.0228
  212MOL0     H27956   7.491   8.114   4.637  1.2255 -3.3588 -1.6441
  212MOL0     H27957   7.505   8.110   4.464 -2.3860 -1.0563 -1.2876
  212MOL0     H27958   7.301   8.285   4.454 -1.5377  3.2954  2.1467
  212MOL0     H27959   7.465   8.323   4.488  0.0789 -0.8840  0.3074
  212MOL0     H27960   7.418   8.298   4.726 -0.4299 -1.2608  1.1953
  212MOL0     H27961   7.252   8.262   4.713 -2.0943  2.5751  1.1152
  212MOL0     H27962   7.320   8.520   4.766 -0.5330  0.5426  0.0987
  212MOL0     H27963   7.370   8.530   4.601 -2.4819 -0.5262 -1.8165
  212MOL0     H27964   7.101   8.472   4.709 -0.2454  1.4629 -0.4797
  212MOL0     H27965   7.145   8.426   4.546 -2.0352  1.1314  0.1192
  212MOL0     H27966   6.977   7.811   4.264  1.4491 -0.2315  0.9120
  212MOL0     H27967   6.798   7.626   4.178  1.0901  2.8904 -0.1567
  212MOL0     H27968   6.801   6.984   4.226 -1.6525 -0.6706  1.0106
  212MOL0     H27969   6.636   6.840   4.122  1.0590 -0.4020 -0.0537
  212MOL0     H27970   4.839   7.033   3.129  1.0529  1.1321 -2.5553
  212MOL0     H27971   4.733   7.005   2.936 -0.0024  0.0995  0.3387
  212MOL0     H27972   4.417   6.888   2.594 -2.4939 -3.1671 -0.2305
  212MOL0     H27973   4.390   6.857   2.356 -0.4447  0.6699  1.9250
  212MOL0     H27974   4.353   6.581   2.086  1.2631 -2.0301  0.6628
  212MOL0     H27975   4.296   6.709   2.169 -1.3117 -1.4695  0.0421
  212MOL0     H27976   4.328   6.546   2.396 -0.4893 -1.0287  0.3039
  212MOL0     H27977   4.192   6.559   2.283 -1.7955 -2.2483  1.2383
  212MOL0     H27978   4.425   6.349   2.266  0.0344  0.4005  1.5978
  212MOL0     H27979   4.316   6.382   2.135 -1.8169 -0.2566  0.2026
  212MOL0     H27980   4.122   6.340   2.317 -0.8302 -2.5501 -0.3137
  212MOL0     H27981   4.206   6.215   2.227  2.5766  2.9444 -4.8863
  212MOL0     H27982   4.322   6.103   2.609 -2.1206 -3.3036 -1.4308
  212MOL0     H27983   4.683   6.541   2.355 -1.8335  0.5931 -1.7751
  212MOL0     H27984   4.757   6.626   2.579 -0.0922 -0.0388 -1.0050
  213MOL0     O27985   7.145  11.340   5.266  0.8377  1.0518 -0.3153
  213MOL0     C27986   7.053  11.386   5.195 -0.3618 -0.0979 -0.1957
  213MOL0     O27987   6.931  11.338   5.177  0.0193 -0.9650  0.1573
  213MOL0     C27988   6.898  11.232   5.259  0.6203  0.9659  0.4365
  213MOL0     C27989   6.827  11.244   5.378  0.7980  0.1230 -0.5151
  213MOL0     C27990   6.807  11.141   5.459 -0.1008 -0.3804 -0.5351
  213MOL0     C27991   6.868  11.015   5.437  0.5653 -0.2956  0.2278
  213MOL0     O27992   6.852  10.911   5.515 -0.6144  0.0052 -0.4141
  213MOL0     C27993   6.739  10.818   5.492  0.6528  0.1474  0.2177
  213MOL0     C27994   6.737  10.727   5.618  0.9741 -0.3196 -0.0945
  213MOL0     C27995   6.652  10.599   5.619 -0.9411  0.4659 -0.0941
  213MOL0     C27996   6.670  10.517   5.749 -1.0759  0.1012  0.9668
  213MOL0     C27997   6.582  10.392   5.764 -0.3227  0.5489 -0.1752
  213MOL0     C27998   6.603  10.332   5.901  0.0768  0.0061  0.4521
  213MOL0     C27999   6.482  10.235   5.920  0.9017 -0.0892 -0.4716
  213MOL0     C28000   6.457  10.213   6.077 -0.4354 -0.5178  0.8584
  213MOL0     N28001   6.325  10.145   6.091 -0.0585  0.2210  0.5483
  213MOL0     C28002   6.292  10.014   6.061  0.1729 -0.1243 -0.2237
  213MOL0     C28003   6.165  10.001   6.108 -0.1549  0.8811 -0.6803
  213MOL0     C28004   6.069   9.884   6.096  0.2280 -0.0996  0.2339
  213MOL0     C28005   6.075   9.811   6.230  0.7989 -0.3267  1.0445
  213MOL0     C28006   6.199   9.723   6.225  0.6004  0.5100  0.1573
  213MOL0     C28007   6.223   9.629   6.347 -0.3470 -0.2170 -0.6921
  213MOL0     O28008   6.096   9.590   6.412 -0.3382 -0.2112  0.8072
  213MOL0     C28009   6.109   9.527   6.536 -0.1416 -0.4312 -0.8303
  213MOL0     C28010   6.225   9.494   6.612  1.5232 -0.7654 -0.0276
  213MOL0     C28011   6.219   9.427   6.738 -0.0553  0.4070 -0.1434
  213MOL0     C28012   6.094   9.377   6.786 -0.1241 -0.5119  0.0512
  213MOL0     C28013   6.089   9.295   6.908  0.4561 -0.2286 -0.3083
  213MOL0     O28014   6.212   9.241   6.941  0.9279  0.7253 -0.2067
  213MOL0     C28015   6.247   9.222   7.072 -0.1698  0.4026  0.4470
  213MOL0     C28016   6.367   9.152   7.079  1.1607  0.9823  0.2481
  213MOL0     C28017   6.436   9.133   7.196 -0.1627 -0.2383  0.0343
  213MOL0     C28018   6.370   9.168   7.317 -0.7767 -0.0027  0.5111
  213MOL0     O28019   6.435   9.169   7.443  0.0083  1.0639  0.4705
  213MOL0     C28020   6.561   9.102   7.440 -0.1981 -0.0512  0.3787
  213MOL0     C28021   6.631   9.109   7.570  0.3733  0.3770  0.5362
  213MOL0     C28022   6.704   8.984   7.603 -0.2166 -0.7665 -0.1199
  213MOL0     C28023   6.762   9.012   7.736  0.1023  0.1526  0.4309
  213MOL0     C28024   6.799   8.879   7.801 -0.8139  0.4446 -0.1024
  213MOL0     C28025   6.933   8.825   7.752  0.0495  0.0922  0.2604
  213MOL0     C28026   6.985   8.730   7.853 -0.2808 -0.0986 -0.1499
  213MOL0     C28027   7.114   8.660   7.811  0.0528  0.0172 -0.3281
  213MOL0    Cl28028   7.240   8.787   7.851 -0.1000 -0.1455 -0.2035
  213MOL0     C28029   6.245   9.232   7.317 -0.6449  0.1709  1.2788
  213MOL0     C28030   6.180   9.261   7.194  0.0801  0.2766  0.3567
  213MOL0     O28031   5.988   9.303   6.973  0.2008 -0.0415  0.3270
  213MOL0     C28032   5.977   9.408   6.709  0.4595 -1.5902  0.0808
  213MOL0     C28033   5.985   9.480   6.582 -0.7040  0.3779  0.3111
  213MOL0     N28034   6.120  10.121   6.165 -0.1073 -0.5570 -0.0465
  213MOL0     N28035   6.224  10.201   6.157  0.4825  0.4752 -0.2556
  213MOL0     C28036   6.942  11.003   5.323  0.3441  0.6189 -0.0621
  213MOL0     C28037   6.956  11.107   5.231 -0.6212  0.5317 -1.0029
  213MOL0     C28038   7.086  11.503   5.118  0.6742 -0.1140  0.6286
  213MOL0     C28039   6.984  11.593   5.071 -0.7372 -0.0121  0.1342
  213MOL0     C28040   7.018  11.696   4.977  0.1057 -0.0958 -0.6945
  213MOL0     C28041   7.151  11.728   4.954 -0.0809  0.5402  0.2755
  213MOL0     O28042   7.197  11.814   4.857  0.1891  0.0062  0.7123
  213MOL0     C28043   7.136  11.944   4.859  0.5838  0.3192 -0.3077
  213MOL0     C28044   7.211  12.060   4.785  0.7958 -0.2288 -0.1372
  213MOL0     C28045   7.327  12.114   4.864  0.0742  0.4938 -0.3442
  213MOL0     C28046   7.409  12.188   4.769 -0.7111 -0.0964  0.4142
  213MOL0     C28047   7.523  12.249   4.843 -0.8833  0.6503 -0.3371
  213MOL0     C28048   7.625  12.283   4.908 -0.2202 -0.7509 -0.0614
  213MOL0     C28049   7.254  11.635   5.004  0.4626 -0.3966  0.1204
  213MOL0     C28050   7.223  11.523   5.081  0.6318 -0.0124  0.2931
  213MOL0     H28051   6.774  11.335   5.405 -1.1616 -1.4101  1.0764
  213MOL0     H28052   6.762  11.157   5.557 -1.9546 -0.1574 -1.3875
  213MOL0     H28053   6.749  10.769   5.395 -1.9584  2.0594 -1.1732
  213MOL0     H28054   6.647  10.878   5.485  2.2182  2.6467 -0.2398
  213MOL0     H28055   6.710  10.794   5.700  2.3181  0.7741 -0.5081
  213MOL0     H28056   6.838  10.690   5.635  0.8271 -0.1752  1.2063
  213MOL0     H28057   6.673  10.534   5.534 -0.1005 -0.1487  0.5650
  213MOL0     H28058   6.543  10.597   5.617 -1.0198 -3.1201  0.5297
  213MOL0     H28059   6.774  10.498   5.775 -0.8010 -0.4011 -0.4189
  213MOL0     H28060   6.653  10.589   5.830  1.0166 -0.2827  1.7969
  213MOL0     H28061   6.608  10.312   5.694 -1.0241 -0.2515  0.4501
  213MOL0     H28062   6.484  10.427   5.729  0.1254  1.7756 -0.2242
  213MOL0     H28063   6.606  10.406   5.983  2.7210 -1.4574  1.8231
  213MOL0     H28064   6.705  10.293   5.911  0.8731  1.6938 -0.6683
  213MOL0     H28065   6.387  10.272   5.880  0.9993  1.2005  0.4276
  213MOL0     H28066   6.517  10.144   5.871  2.4600 -2.2145  4.1012
  213MOL0     H28067   6.454  10.313   6.121 -2.0456 -0.3589  0.4316
  213MOL0     H28068   6.527  10.144   6.126 -1.6224 -1.1871  1.6454
  213MOL0     H28069   6.348   9.931   6.019  1.6702  0.2274  1.0073
  213MOL0     H28070   6.096   9.819   6.012  0.7408  1.9657 -1.2606
  213MOL0     H28071   5.964   9.910   6.084 -1.1605 -2.4531  4.8165
  213MOL0     H28072   5.985   9.749   6.229  0.5459  0.0418  0.1374
  213MOL0     H28073   6.081   9.883   6.312 -1.9298  3.0303 -1.3882
  213MOL0     H28074   6.181   9.643   6.153  1.3469  1.5877 -1.2682
  213MOL0     H28075   6.290   9.777   6.198  0.8262  1.7721  3.0868
  213MOL0     H28076   6.266   9.699   6.420 -2.0406  0.5892 -0.4106
  213MOL0     H28077   6.296   9.550   6.326  1.6299  0.6888  2.2038
  213MOL0     H28078   6.327   9.521   6.586  1.0588  1.7154  0.4810
  213MOL0     H28079   6.307   9.408   6.799  0.3453  2.2348 -0.0975
  213MOL0     H28080   6.411   9.135   6.981 -2.4514  1.4551 -1.6372
  213MOL0     H28081   6.532   9.081   7.191 -0.2239 -0.2875 -0.7701
  213MOL0     H28082   6.618   9.159   7.366 -1.0415  2.5372  1.5980
  213MOL0     H28083   6.554   8.997   7.410 -4.5884 -0.1043  0.9907
  213MOL0     H28084   6.565   9.142   7.651  2.6048  2.5110  1.5983
  213MOL0     H28085   6.698   9.195   7.560  0.0801  0.5920  0.3838
  213MOL0     H28086   6.782   8.950   7.535 -1.7064 -2.0000 -1.2942
  213MOL0     H28087   6.627   8.907   7.607 -1.9852  0.9037 -0.3959
  213MOL0     H28088   6.850   9.077   7.731 -0.4121  0.8607  0.2791
  213MOL0     H28089   6.700   9.075   7.800 -1.7430  1.1935 -2.1870
  213MOL0     H28090   6.724   8.800   7.791 -0.3286 -0.4311  2.4583
  213MOL0     H28091   6.811   8.898   7.908 -1.2243 -0.7169  0.1613
  213MOL0     H28092   7.003   8.908   7.738 -1.7151  1.6378  0.3214
  213MOL0     H28093   6.928   8.785   7.650  1.8383  1.5333 -0.4469
  213MOL0     H28094   6.991   8.779   7.951 -0.4383  2.1945 -1.2434
  213MOL0     H28095   6.905   8.655   7.858 -2.9665  2.6210  0.4043
  213MOL0     H28096   7.114   8.624   7.707  0.0719 -2.0062  0.3361
  213MOL0     H28097   7.149   8.575   7.870  1.5428 -0.6625 -2.0870
  213MOL0     H28098   6.206   9.264   7.414  1.2401  1.0104  1.7990
  213MOL0     H28099   6.092   9.323   7.192  0.2177  0.5557  1.7198
  213MOL0     H28100   5.878   9.375   6.740  1.1533 -2.3985  1.5476
  213MOL0     H28101   5.902   9.497   6.514 -0.4393  0.9837  0.1305
  213MOL0     H28102   6.989  10.913   5.285 -0.8964  1.1405 -3.1007
  213MOL0     H28103   7.027  11.095   5.150 -0.1637  2.0108 -0.8530
  213MOL0     H28104   6.878  11.586   5.092 -1.4543  3.3775 -1.6419
  213MOL0     H28105   6.945  11.749   4.917 -1.3393 -1.8017 -0.5427
  213MOL0     H28106   7.112  11.971   4.962  1.4428  2.0460 -0.5317
  213MOL0     H28107   7.038  11.939   4.810  0.6604  1.3285 -0.5740
  213MOL0     H28108   7.236  12.013   4.690 -2.6983 -0.4595 -1.0667
  213MOL0     H28109   7.152  12.150   4.763  4.2834  3.2125  2.9313
  213MOL0     H28110   7.376  12.026   4.905 -0.3680  1.4854  2.5857
  213MOL0     H28111   7.292  12.183   4.942  0.1788 -0.7211  0.8057
  213MOL0     H28112   7.444  12.122   4.689  0.6665  0.5115  0.4998
  213MOL0     H28113   7.353  12.268   4.720  0.4608 -0.5991 -1.8542
  213MOL0     H28114   7.713  12.327   4.951 -1.4516  1.3481  0.4306
  213MOL0     H28115   7.357  11.662   4.982  0.3343 -1.3723 -1.9116
  213MOL0     H28116   7.305  11.457   5.106  3.0923  3.0160  0.8937
  214MOL0     O28117   0.781   1.084   4.636  0.1735  0.7636  0.7237
  214MOL0     C28118   0.783   1.188   4.576  0.1056  0.1715 -0.6824
  214MOL0     O28119   0.679   1.269   4.550  0.0892  0.8341 -0.0276
  214MOL0     C28120   0.563   1.236   4.613  0.4208 -0.5719 -0.2226
  214MOL0     C28121   0.467   1.135   4.571  0.2041  0.3075  0.2477
  214MOL0     C28122   0.362   1.091   4.652  0.1496 -1.0718 -0.6236
  214MOL0     C28123   0.341   1.156   4.780  0.0971  0.5509  0.3075
  214MOL0     O28124   0.239   1.124   4.861  0.4983 -0.2316 -0.3510
  214MOL0     C28125   0.146   1.025   4.821  0.3928 -0.1918 -0.9347
  214MOL0     C28126   0.024   1.001   4.923 -0.1244  0.2050  0.2211
  214MOL0     C28127  -0.071   1.129   4.918 -0.3938  0.7258  0.5235
  214MOL0     C28128  -0.004   1.266   4.957 -0.6306  0.2478  0.5649
  214MOL0     C28129   0.059   1.257   5.096 -0.3886 -0.8884  0.0228
  214MOL0     C28130   0.105   1.393   5.153 -0.3475 -0.1716 -0.3576
  214MOL0     C28131   0.207   1.413   5.268  0.2410 -0.0019 -0.1369
  214MOL0     C28132   0.159   1.351   5.400 -0.5972 -0.3515  0.4734
  214MOL0     N28133   0.022   1.396   5.416  0.8686 -0.2016 -1.0879
  214MOL0     C28134  -0.026   1.504   5.489  0.6173 -0.2435  0.0914
  214MOL0     C28135  -0.161   1.492   5.482 -0.9963  0.1355  0.1993
  214MOL0     C28136  -0.251   1.594   5.548 -0.8476 -0.1420 -0.4542
  214MOL0     C28137  -0.350   1.536   5.649 -0.0510 -0.8099  0.0623
  214MOL0     C28138  -0.412   1.639   5.743  0.0795 -1.3224 -0.0815
  214MOL0     C28139  -0.524   1.594   5.831 -0.3253 -0.5597  0.4842
  214MOL0     O28140  -0.558   1.714   5.904 -0.0733  0.0844 -0.4052
  214MOL0     C28141  -0.681   1.714   5.966  0.4458  0.0008 -0.2158
  214MOL0     C28142  -0.797   1.662   5.914  0.2845 -0.7087  0.9420
  214MOL0     C28143  -0.912   1.644   5.984  0.2994  0.7636  0.1245
  214MOL0     C28144  -0.920   1.693   6.115 -0.4593 -0.1426  0.0255
  214MOL0     C28145  -1.054   1.685   6.175 -0.8410  0.7245  0.4394
  214MOL0     O28146  -1.161   1.640   6.100  0.1934  0.1271 -0.0580
  214MOL0     C28147  -1.290   1.642   6.146 -0.2413 -1.1688  0.2800
  214MOL0     C28148  -1.354   1.534   6.199  1.1367  0.3423  0.0103
  214MOL0     C28149  -1.500   1.540   6.228 -0.7601  0.0496  0.2616
  214MOL0     C28150  -1.568   1.662   6.206  0.2938  0.0907 -0.2582
  214MOL0     O28151  -1.700   1.668   6.245  0.3111 -0.4062  0.2180
  214MOL0     C28152  -1.788   1.557   6.222 -0.6474  1.1275  0.5747
  214MOL0     C28153  -1.932   1.599   6.261 -0.4641  0.0955  0.7123
  214MOL0     C28154  -1.937   1.637   6.403  0.5208  0.7821 -0.8891
  214MOL0     C28155  -2.073   1.691   6.444 -0.2166 -0.4816 -0.3974
  214MOL0     C28156  -2.068   1.740   6.591 -0.0616 -0.1910 -0.5277
  214MOL0     C28157  -2.200   1.791   6.657  0.3333 -0.6004  0.3284
  214MOL0     C28158  -2.160   1.865   6.786 -0.7906  0.2001  0.5814
  214MOL0     C28159  -2.275   1.956   6.846 -0.5736  0.6775 -0.8834
  214MOL0    Cl28160  -2.362   2.038   6.735 -0.1933  0.0457 -0.0021
  214MOL0     C28161  -1.503   1.765   6.143  0.0424 -0.7059 -0.7467
  214MOL0     C28162  -1.364   1.757   6.122 -0.0434  0.2922  0.7756
  214MOL0     O28163  -1.061   1.732   6.289 -0.4276 -0.6289  0.6438
  214MOL0     C28164  -0.811   1.755   6.177  0.2423 -0.1748 -0.3554
  214MOL0     C28165  -0.690   1.774   6.096 -0.1779  0.0985  0.7076
  214MOL0     N28166  -0.188   1.366   5.428  0.2778  0.1391  1.0930
  214MOL0     N28167  -0.080   1.304   5.395  0.0166  0.7310  0.7018
  214MOL0     C28168   0.426   1.259   4.825  0.6040 -0.5278 -0.7903
  214MOL0     C28169   0.538   1.302   4.738  0.4880 -0.5192 -0.3217
  214MOL0     C28170   0.903   1.224   4.515  0.0197 -0.8017 -0.3138
  214MOL0     C28171   0.915   1.324   4.413  0.0270 -0.0054  0.1997
  214MOL0     C28172   1.042   1.349   4.356  0.6654  0.6857 -0.1165
  214MOL0     C28173   1.154   1.284   4.395 -0.6277  0.2936  0.0007
  214MOL0     O28174   1.272   1.313   4.324 -0.1165  0.1745  0.0123
  214MOL0     C28175   1.378   1.217   4.290  0.5451  0.3533 -0.4697
  214MOL0     C28176   1.485   1.277   4.196 -0.6387  0.5508 -0.5822
  214MOL0     C28177   1.614   1.206   4.204 -0.4198  0.9166  1.5487
  214MOL0     C28178   1.619   1.068   4.149 -0.5918  0.8733  0.5239
  214MOL0     C28179   1.747   0.999   4.163 -0.4897 -0.0398 -0.4332
  214MOL0     C28180   1.851   0.932   4.175 -0.0431 -0.3136  0.4244
  214MOL0     C28181   1.147   1.192   4.496 -0.7094 -0.2049  0.1107
  214MOL0     C28182   1.025   1.163   4.558  0.0998  0.2491 -0.0337
  214MOL0     H28183   0.489   1.072   4.485 -1.3760  0.8155 -0.5710
  214MOL0     H28184   0.307   1.002   4.623 -0.1843 -1.4278  0.9991
  214MOL0     H28185   0.203   0.932   4.820 -1.1396 -1.2044  0.1364
  214MOL0     H28186   0.103   1.047   4.723  1.3875  2.9782 -0.7889
  214MOL0     H28187   0.056   0.969   5.022  0.1918  0.2873  0.1458
  214MOL0     H28188  -0.040   0.919   4.889  0.1626  0.1138 -0.1049
  214MOL0     H28189  -0.161   1.124   4.980 -1.9359  3.8299 -1.2146
  214MOL0     H28190  -0.106   1.133   4.814  0.8750  1.2658  0.0982
  214MOL0     H28191   0.068   1.297   4.881 -2.9844  1.7683 -1.1848
  214MOL0     H28192  -0.078   1.346   4.957 -0.3741  0.5808  2.9476
  214MOL0     H28193   0.153   1.200   5.096  1.5120  2.0428 -0.2897
  214MOL0     H28194  -0.016   1.209   5.161 -0.2789  0.9700  1.6136
  214MOL0     H28195   0.015   1.446   5.184  1.4740  2.2095  1.2369
  214MOL0     H28196   0.160   1.448   5.076  0.1247  0.9650  0.7569
  214MOL0     H28197   0.306   1.376   5.239  0.3933  1.7785 -2.2044
  214MOL0     H28198   0.231   1.519   5.282 -4.8293  1.3889 -0.0033
  214MOL0     H28199   0.218   1.389   5.484 -1.2882  3.4193 -0.5429
  214MOL0     H28200   0.165   1.243   5.383 -4.5032 -0.2654 -2.9474
  214MOL0     H28201   0.027   1.589   5.531  3.1360 -1.4735 -0.4612
  214MOL0     H28202  -0.301   1.649   5.468  1.1776  2.0591 -0.3124
  214MOL0     H28203  -0.187   1.663   5.604 -2.2080  1.2404 -0.5507
  214MOL0     H28204  -0.301   1.469   5.720 -0.2423  2.2718  3.3660
  214MOL0     H28205  -0.437   1.490   5.601 -0.8602  0.3609  0.3751
  214MOL0     H28206  -0.333   1.674   5.811 -2.0503  1.4368  1.1978
  214MOL0     H28207  -0.441   1.724   5.681 -4.3411 -0.5726  2.5743
  214MOL0     H28208  -0.496   1.514   5.901  0.4014 -2.9317 -2.3309
  214MOL0     H28209  -0.605   1.558   5.767  0.1704  1.1598 -1.1969
  214MOL0     H28210  -0.788   1.626   5.812  0.5214  1.8893 -0.0355
  214MOL0     H28211  -0.998   1.599   5.937 -1.8493  1.5199  3.0413
  214MOL0     H28212  -1.302   1.439   6.203 -1.2716 -1.4331 -3.9916
  214MOL0     H28213  -1.550   1.456   6.276 -2.0544  0.2216 -0.7132
  214MOL0     H28214  -1.765   1.475   6.291  1.2663  0.9705 -0.2087
  214MOL0     H28215  -1.770   1.527   6.118  1.7027 -2.3349  1.7778
  214MOL0     H28216  -1.999   1.521   6.225  0.1906  0.4607 -1.4067
  214MOL0     H28217  -1.955   1.685   6.197  3.4100 -0.6659 -2.0715
  214MOL0     H28218  -1.856   1.709   6.420 -0.6771  1.8933  0.2201
  214MOL0     H28219  -1.914   1.546   6.459 -0.1525  1.3930  0.4133
  214MOL0     H28220  -2.113   1.771   6.380 -0.0197  0.4698  0.6376
  214MOL0     H28221  -2.145   1.609   6.435 -2.1198  0.9082  1.1401
  214MOL0     H28222  -1.997   1.823   6.590 -1.4675  1.2775  3.4824
  214MOL0     H28223  -2.043   1.657   6.657 -3.0827 -0.8918 -0.1416
  214MOL0     H28224  -2.274   1.716   6.688 -1.3651  0.9478  0.2175
  214MOL0     H28225  -2.246   1.857   6.583 -0.3077 -1.9505 -0.5263
  214MOL0     H28226  -2.139   1.785   6.857  2.3544  1.9247  1.8066
  214MOL0     H28227  -2.065   1.919   6.778  0.8240 -2.4102  1.0586
  214MOL0     H28228  -2.219   2.025   6.909  2.0121  0.5405 -2.8660
  214MOL0     H28229  -2.337   1.902   6.918 -0.9741 -1.1099 -2.4858
  214MOL0     H28230  -1.558   1.857   6.126 -2.6655 -1.6623  1.9177
  214MOL0     H28231  -1.318   1.837   6.065  0.9597 -0.9260 -0.1965
  214MOL0     H28232  -0.828   1.791   6.278 -1.4207 -1.2056 -0.2287
  214MOL0     H28233  -0.602   1.824   6.133  2.4862 -1.4799 -2.9265
  214MOL0     H28234   0.401   1.303   4.921  1.4284 -1.0131 -0.3414
  214MOL0     H28235   0.595   1.388   4.772 -1.7010  1.6989 -1.8631
  214MOL0     H28236   0.825   1.380   4.387  1.1698  1.6374 -0.4216
  214MOL0     H28237   1.044   1.428   4.282 -1.5562  0.6603 -0.2721
  214MOL0     H28238   1.330   1.133   4.240  0.3603  1.3500 -2.0615
  214MOL0     H28239   1.434   1.192   4.380  1.0498  0.9192 -0.6190
  214MOL0     H28240   1.440   1.285   4.096 -2.8333 -2.1551  0.0545
  214MOL0     H28241   1.491   1.380   4.232 -1.2793  0.0655  1.0104
  214MOL0     H28242   1.646   1.190   4.308  1.8581  1.8055  1.0435
  214MOL0     H28243   1.701   1.259   4.164 -1.9256  1.4356 -1.3061
  214MOL0     H28244   1.539   1.006   4.191 -1.3492  0.2907 -1.6670
  214MOL0     H28245   1.614   1.068   4.040 -0.8595  1.9317  0.5194
  214MOL0     H28246   1.945   0.882   4.187  0.0935  0.3930  3.1331
  214MOL0     H28247   1.241   1.152   4.531  0.7779  2.1630 -0.9656
  214MOL0     H28248   1.028   1.101   4.647  1.0145  0.8979  0.4010
  215MOL0     O28249   3.831   5.420   7.569  0.1043  0.5306 -0.1511
  215MOL0     C28250   3.923   5.392   7.495  0.0104 -0.6823  0.2667
  215MOL0     O28251   3.923   5.401   7.362 -0.4425 -0.1617  1.3676
  215MOL0     C28252   3.802   5.400   7.286  0.0994 -0.7660  0.2056
  215MOL0     C28253   3.784   5.297   7.186 -0.1605  0.3701  0.4535
  215MOL0     C28254   3.661   5.290   7.114  0.8593 -0.0998  0.1485
  215MOL0     C28255   3.553   5.364   7.164  0.0090 -0.2539  0.2496
  215MOL0     O28256   3.426   5.354   7.101  0.3489 -0.6565 -0.2985
  215MOL0     C28257   3.377   5.225   7.079 -0.6378 -0.5667  0.7477
  215MOL0     C28258   3.383   5.189   6.927  0.8971 -1.5125 -0.4436
  215MOL0     C28259   3.270   5.249   6.850  0.6970  0.3105  0.5493
  215MOL0     C28260   3.267   5.400   6.844 -0.0980 -0.7177  0.0752
  215MOL0     C28261   3.192   5.460   6.728 -0.3213 -0.7880  0.0733
  215MOL0     C28262   3.046   5.413   6.711  0.5031  0.3723  0.3049
  215MOL0     C28263   2.958   5.508   6.622  0.0614  0.4071  0.1945
  215MOL0     C28264   2.809   5.484   6.638 -0.0253  0.6654 -0.6107
  215MOL0     N28265   2.724   5.590   6.566  1.4322  0.0289 -0.2060
  215MOL0     C28266   2.668   5.706   6.609 -0.3718 -0.2119  0.5277
  215MOL0     C28267   2.618   5.762   6.489  0.7730  0.1763  0.0563
  215MOL0     C28268   2.534   5.884   6.485  0.0206 -0.9826  0.1180
  215MOL0     C28269   2.432   5.884   6.593 -0.2341 -0.4331  1.0870
  215MOL0     C28270   2.350   5.756   6.589  0.4365  0.6914  0.2238
  215MOL0     C28271   2.221   5.768   6.658 -0.0208 -1.0493 -0.7874
  215MOL0     O28272   2.144   5.662   6.615  0.6366  0.2919  0.0719
  215MOL0     C28273   2.013   5.646   6.652 -0.5952 -0.0354  0.0637
  215MOL0     C28274   1.946   5.545   6.596  0.3901  0.3862  0.4573
  215MOL0     C28275   1.812   5.524   6.615  0.4016  0.2134 -1.0191
  215MOL0     C28276   1.742   5.595   6.712 -1.2912 -0.3664  0.1352
  215MOL0     C28277   1.599   5.581   6.718  0.0208 -1.1485 -0.5992
  215MOL0     O28278   1.549   5.472   6.665 -0.2927  0.5682 -0.3017
  215MOL0     C28279   1.426   5.418   6.702  0.7512 -0.0147 -0.9051
  215MOL0     C28280   1.361   5.333   6.609 -0.0324  0.6355 -0.3488
  215MOL0     C28281   1.236   5.287   6.637  0.2093  0.8860  0.4828
  215MOL0     C28282   1.175   5.320   6.762 -0.6856 -0.1946 -0.4706
  215MOL0     O28283   1.067   5.246   6.793  0.3072 -0.4754  0.3442
  215MOL0     C28284   0.951   5.323   6.810  0.1421 -1.1867  0.2747
  215MOL0     C28285   0.821   5.244   6.831 -0.8302  0.2031 -0.5637
  215MOL0     C28286   0.700   5.326   6.880 -0.8653  0.3757  0.0032
  215MOL0     C28287   0.569   5.245   6.864  0.4515 -0.5727  0.1769
  215MOL0     C28288   0.431   5.322   6.873 -0.1299 -0.6349 -0.0118
  215MOL0     C28289   0.406   5.371   7.012 -0.3039 -0.8346 -0.3177
  215MOL0     C28290   0.256   5.413   7.028  0.8080  0.2198  0.2418
  215MOL0     C28291   0.147   5.301   7.014 -1.0214 -0.6233  0.8255
  215MOL0    Cl28292   0.182   5.155   7.109  0.7997 -0.1044  0.3959
  215MOL0     C28293   1.233   5.413   6.852  0.4332  0.5582  0.0027
  215MOL0     C28294   1.363   5.460   6.829  0.2423  0.5689  0.2555
  215MOL0     O28295   1.542   5.675   6.782  0.3514  0.0407 -0.2841
  215MOL0     C28296   1.817   5.699   6.776 -0.5986  0.4137 -0.5485
  215MOL0     C28297   1.946   5.726   6.751 -0.1211 -0.1076 -0.1320
  215MOL0     N28298   2.630   5.679   6.385  0.8087 -0.0069 -0.1948
  215MOL0     N28299   2.688   5.567   6.429 -0.5793 -0.4129  0.2591
  215MOL0     C28300   3.569   5.465   7.258  0.1507 -0.3865  0.9765
  215MOL0     C28301   3.692   5.490   7.313  0.0600  0.7056 -0.5245
  215MOL0     C28302   4.057   5.364   7.553 -0.1583  0.6948  0.0963
  215MOL0     C28303   4.145   5.288   7.478 -0.0108  0.3611  0.2501
  215MOL0     C28304   4.271   5.246   7.531  0.4442 -0.5866 -0.2802
  215MOL0     C28305   4.315   5.302   7.650 -0.6628 -0.3234 -0.2134
  215MOL0     O28306   4.440   5.273   7.682  1.1707  0.4070 -0.2549
  215MOL0     C28307   4.490   5.316   7.807 -0.5237 -0.0151 -1.1901
  215MOL0     C28308   4.629   5.250   7.825  1.0220  0.0956  0.0185
  215MOL0     C28309   4.746   5.334   7.773 -0.1887 -0.0198 -0.2042
  215MOL0     C28310   4.732   5.383   7.627  0.3350 -0.0663  0.1729
  215MOL0     C28311   4.690   5.272   7.533  0.6605 -0.9374  0.0000
  215MOL0     C28312   4.650   5.186   7.452  0.2331 -0.3390  0.2685
  215MOL0     C28313   4.232   5.401   7.709 -0.1719 -0.0292 -0.0383
  215MOL0     C28314   4.101   5.415   7.671  0.4759 -0.0059  0.5170
  215MOL0     H28315   3.866   5.228   7.169 -1.0006 -0.0626 -2.3536
  215MOL0     H28316   3.637   5.211   7.043 -0.3229 -2.6035  3.0684
  215MOL0     H28317   3.270   5.212   7.096 -1.5356  2.6649 -1.6330
  215MOL0     H28318   3.436   5.151   7.134  1.0382 -0.4105 -0.7585
  215MOL0     H28319   3.352   5.084   6.924 -3.1051 -0.5742  1.3432
  215MOL0     H28320   3.481   5.211   6.884  0.9024 -3.9694 -1.8964
  215MOL0     H28321   3.174   5.218   6.892 -0.1106 -1.2099 -2.1682
  215MOL0     H28322   3.261   5.207   6.749 -0.6471  0.0998  0.7399
  215MOL0     H28323   3.228   5.435   6.940  0.2882  1.7828 -0.5873
  215MOL0     H28324   3.366   5.447   6.839 -0.5786  0.2458 -1.0369
  215MOL0     H28325   3.243   5.430   6.637 -0.5524 -0.5170 -0.1486
  215MOL0     H28326   3.192   5.569   6.740  0.8469 -0.9455  1.8429
  215MOL0     H28327   3.001   5.406   6.811 -3.1428  3.3281 -0.9169
  215MOL0     H28328   3.045   5.316   6.659  1.0417  2.0218 -3.0473
  215MOL0     H28329   2.982   5.612   6.645  3.4249  0.1269 -1.3883
  215MOL0     H28330   2.985   5.487   6.518 -1.3546 -0.4655 -0.0279
  215MOL0     H28331   2.780   5.490   6.743 -0.7163 -0.7020 -0.7033
  215MOL0     H28332   2.788   5.386   6.595 -0.1749  1.1092 -1.5757
  215MOL0     H28333   2.668   5.745   6.711 -2.0456 -1.4970  1.0568
  215MOL0     H28334   2.499   5.882   6.381 -3.7254 -1.4553  1.2378
  215MOL0     H28335   2.603   5.967   6.506  1.8552 -2.2222 -0.7785
  215MOL0     H28336   2.363   5.965   6.571 -1.8803 -2.1393 -0.4023
  215MOL0     H28337   2.470   5.899   6.695 -1.8276  0.4670  1.5693
  215MOL0     H28338   2.335   5.735   6.483 -1.1199  0.2044  0.5222
  215MOL0     H28339   2.411   5.672   6.626  1.7558  0.6908 -1.8004
  215MOL0     H28340   2.180   5.867   6.636  1.7608 -0.2464 -0.6401
  215MOL0     H28341   2.241   5.771   6.765  0.2923 -0.9406 -0.8494
  215MOL0     H28342   2.003   5.481   6.529 -1.6043  0.4996 -1.4897
  215MOL0     H28343   1.766   5.442   6.561  0.6816 -1.4512  1.1004
  215MOL0     H28344   1.408   5.285   6.524 -1.3534 -3.4389  0.9640
  215MOL0     H28345   1.204   5.200   6.581  3.2272 -1.4066  1.9807
  215MOL0     H28346   0.930   5.390   6.726  1.0126  3.0270  3.0897
  215MOL0     H28347   0.968   5.392   6.893  1.6727  2.0614 -2.4839
  215MOL0     H28348   0.854   5.164   6.897  1.1738 -0.4625 -2.2495
  215MOL0     H28349   0.803   5.203   6.731 -0.9452 -0.6124 -0.2100
  215MOL0     H28350   0.706   5.413   6.813  5.5514 -0.5363 -1.3030
  215MOL0     H28351   0.719   5.362   6.981  0.5597 -0.7613  0.1682
  215MOL0     H28352   0.571   5.199   6.765  2.0125  1.1716 -0.6431
  215MOL0     H28353   0.570   5.162   6.935  0.2681  1.0576  2.1835
  215MOL0     H28354   0.349   5.257   6.841 -1.9693  1.6692 -0.2740
  215MOL0     H28355   0.431   5.417   6.820  0.6064 -0.0871  0.9344
  215MOL0     H28356   0.468   5.459   7.029  0.9044 -2.1688  2.8616
  215MOL0     H28357   0.433   5.296   7.087  4.8143  1.0921  0.1367
  215MOL0     H28358   0.244   5.449   7.131 -2.8027 -1.6352  0.6411
  215MOL0     H28359   0.221   5.484   6.953  0.4155 -3.6045 -3.6416
  215MOL0     H28360   0.153   5.267   6.910  0.5068  0.9213  0.3696
  215MOL0     H28361   0.047   5.340   7.035 -0.9973  0.0257 -0.2046
  215MOL0     H28362   1.187   5.443   6.945 -1.1838  0.1540 -0.6361
  215MOL0     H28363   1.417   5.525   6.897  0.2401  1.4135 -0.5307
  215MOL0     H28364   1.754   5.766   6.835 -0.5530  1.3292 -1.5071
  215MOL0     H28365   2.003   5.807   6.796  0.4482 -0.9251  0.6615
  215MOL0     H28366   3.493   5.525   7.307 -1.8142 -0.8010 -1.3673
  215MOL0     H28367   3.717   5.569   7.384  1.9242  1.2647 -1.7376
  215MOL0     H28368   4.110   5.235   7.390 -0.2512  0.5016  0.2603
  215MOL0     H28369   4.331   5.179   7.471 -0.3829 -1.2763 -0.3490
  215MOL0     H28370   4.428   5.288   7.892 -0.9115  3.2664 -0.2352
  215MOL0     H28371   4.488   5.425   7.818  0.4384 -0.2438  2.0101
  215MOL0     H28372   4.633   5.221   7.930  0.3702 -2.3231 -0.5699
  215MOL0     H28373   4.637   5.158   7.767  1.5892  0.9984 -1.3920
  215MOL0     H28374   4.843   5.287   7.791 -0.8825 -1.5038 -0.2718
  215MOL0     H28375   4.754   5.430   7.826 -1.9766  2.0826 -3.3744
  215MOL0     H28376   4.660   5.466   7.623 -0.3354 -0.6604 -0.3341
  215MOL0     H28377   4.824   5.433   7.597 -1.4242  2.7373 -0.9573
  215MOL0     H28378   4.606   5.122   7.378 -2.3939 -0.5163  1.8389
  215MOL0     H28379   4.268   5.454   7.797 -0.0363 -2.7915  1.6776
  215MOL0     H28380   4.036   5.477   7.731 -1.0692 -2.4867  1.5487
  216MOL0     O28381   9.994   9.665   5.182 -0.3977 -0.2404  0.3215
  216MOL0     C28382   9.954   9.613   5.074 -0.4339 -0.6165  0.5441
  216MOL0     O28383   9.828   9.613   5.014 -0.0576 -0.4202 -0.1943
  216MOL0     C28384   9.711   9.642   5.084  1.1235 -1.4071  0.3866
  216MOL0     C28385   9.681   9.646   5.226 -0.3190 -0.1689  0.2464
  216MOL0     C28386   9.547   9.667   5.271 -0.0496  0.9733 -0.3725
  216MOL0     C28387   9.449   9.705   5.174  0.4344 -1.9804  0.4161
  216MOL0     O28388   9.319   9.741   5.206 -0.4892  0.0325  0.0757
  216MOL0     C28389   9.256   9.671   5.317 -0.0571 -0.7803 -0.2686
  216MOL0     C28390   9.104   9.677   5.317  0.3289 -0.2923 -0.3010
  216MOL0     C28391   9.028   9.607   5.205  0.0858  0.7943  0.8882
  216MOL0     C28392   9.029   9.449   5.204 -0.1905  0.1787 -0.0360
  216MOL0     C28393   8.996   9.382   5.337  0.5100  0.0868 -0.1361
  216MOL0     C28394   9.019   9.229   5.337 -0.4151  0.3527 -0.4667
  216MOL0     C28395   8.927   9.149   5.254 -0.2855 -0.0521  0.8245
  216MOL0     C28396   9.007   9.104   5.127  0.2581 -0.4333  0.5273
  216MOL0     N28397   9.100   8.988   5.136  0.1689 -0.5735  0.7574
  216MOL0     C28398   9.067   8.849   5.147 -0.7489  0.0201 -0.4777
  216MOL0     C28399   9.190   8.802   5.159 -0.7912  0.2865 -0.3798
  216MOL0     C28400   9.222   8.661   5.179 -0.3634 -0.7722  0.0252
  216MOL0     C28401   9.317   8.615   5.062 -0.2676 -0.6592 -1.3047
  216MOL0     C28402   9.388   8.481   5.069  0.7131  0.0032 -0.5441
  216MOL0     C28403   9.288   8.366   5.050  0.8084  0.0758  0.5686
  216MOL0     O28404   9.294   8.274   5.160 -0.5938  0.7149 -0.2380
  216MOL0     C28405   9.226   8.158   5.142 -0.0748  1.6569  0.3837
  216MOL0     C28406   9.135   8.119   5.038  0.0979  0.1639  0.2118
  216MOL0     C28407   9.078   7.998   5.036  0.7762 -0.2283  0.3466
  216MOL0     C28408   9.117   7.903   5.126  0.0753 -0.0511 -0.0078
  216MOL0     C28409   9.047   7.770   5.123 -0.8535  1.2954  0.0463
  216MOL0     O28410   8.914   7.769   5.125 -0.5368  0.1521 -0.2476
  216MOL0     C28411   8.861   7.640   5.101 -0.5201 -0.7556  0.1806
  216MOL0     C28412   8.840   7.554   5.209  0.2458 -0.6619  0.3647
  216MOL0     C28413   8.795   7.426   5.196  0.6252 -0.3905  0.2276
  216MOL0     C28414   8.772   7.373   5.068  0.6827 -1.7687  0.4299
  216MOL0     O28415   8.738   7.244   5.048 -0.1713  0.2031 -0.0166
  216MOL0     C28416   8.614   7.219   4.995 -0.2611  0.1912  0.2106
  216MOL0     C28417   8.563   7.077   5.035  0.5283  0.2224  0.4879
  216MOL0     C28418   8.412   7.059   5.039 -0.2767  0.0878 -0.6041
  216MOL0     C28419   8.387   6.904   5.072 -0.7308  0.5525 -0.3076
  216MOL0     C28420   8.238   6.880   5.117 -0.0972 -0.3284 -0.7475
  216MOL0     C28421   8.132   6.904   5.002 -0.1544  0.0876 -0.8226
  216MOL0     C28422   8.009   6.811   5.030  0.5732 -0.8423  0.0159
  216MOL0     C28423   7.908   6.891   5.126  0.6986 -0.5494  0.0329
  216MOL0    Cl28424   7.954   6.911   5.297 -0.1195  0.4125 -0.2774
  216MOL0     C28425   8.779   7.464   4.961 -0.3060 -0.8788 -0.1121
  216MOL0     C28426   8.814   7.594   4.980  0.0034  0.1693 -0.3446
  216MOL0     O28427   9.125   7.674   5.119  0.2091 -0.4499  0.2131
  216MOL0     C28428   9.210   7.927   5.230 -0.1318  0.1135 -0.5192
  216MOL0     C28429   9.268   8.057   5.234 -0.9408  0.2794 -0.6731
  216MOL0     N28430   9.295   8.897   5.135  0.8524 -0.5695  0.5595
  216MOL0     N28431   9.234   9.007   5.123 -0.1986  0.6058 -0.1112
  216MOL0     C28432   9.488   9.724   5.037  0.2007  0.2733  0.2801
  216MOL0     C28433   9.614   9.689   4.993  0.0485  0.3757  0.5818
  216MOL0     C28434  10.054   9.528   5.001 -0.4243  0.0106  0.3745
  216MOL0     C28435  10.170   9.492   5.068  0.2689  0.8218 -0.3295
  216MOL0     C28436  10.272   9.420   5.004  0.2402  0.6476 -0.3635
  216MOL0     C28437  10.261   9.377   4.868 -0.2119  0.7051 -0.5225
  216MOL0     O28438  10.348   9.283   4.798 -0.4124  0.3833 -0.9916
  216MOL0     C28439  10.490   9.278   4.831  0.2416 -0.6677 -0.5027
  216MOL0     C28440  10.547   9.413   4.773  0.2923  0.6338  0.9451
  216MOL0     C28441  10.693   9.424   4.755 -1.1255  0.4109 -0.5203
  216MOL0     C28442  10.741   9.570   4.734  0.0411  0.6332 -0.6384
  216MOL0     C28443  10.704   9.662   4.841 -0.3941 -1.0000 -0.4217
  216MOL0     C28444  10.653   9.740   4.922 -0.5956  0.3082  0.7629
  216MOL0     C28445  10.142   9.405   4.805  0.4709 -0.3663 -0.0024
  216MOL0     C28446  10.042   9.485   4.867 -0.4122 -0.9159 -0.1186
  216MOL0     H28447   9.761   9.618   5.293  0.6031  0.2811 -0.6244
  216MOL0     H28448   9.521   9.664   5.376 -1.0771 -2.8739 -0.5620
  216MOL0     H28449   9.297   9.713   5.410 -2.3674  0.1133  0.4229
  216MOL0     H28450   9.278   9.565   5.303  0.5265 -0.4636 -1.9268
  216MOL0     H28451   9.064   9.778   5.330 -0.3494 -0.7060  0.9464
  216MOL0     H28452   9.084   9.633   5.415  2.6666 -1.0735 -0.1111
  216MOL0     H28453   9.073   9.648   5.114  2.4683  2.1462  2.5425
  216MOL0     H28454   8.924   9.638   5.218 -0.2680 -0.9172  2.5885
  216MOL0     H28455   8.961   9.420   5.123 -0.0060  1.5086 -0.7001
  216MOL0     H28456   9.134   9.426   5.185  0.5054  1.2008  2.2144
  216MOL0     H28457   8.888   9.401   5.346 -0.7238 -4.1655 -3.1453
  216MOL0     H28458   9.064   9.414   5.417 -1.3381 -0.3803  1.7070
  216MOL0     H28459   9.007   9.186   5.437  0.1539  0.0928 -0.5086
  216MOL0     H28460   9.123   9.199   5.321 -1.1919 -3.3267  0.4055
  216MOL0     H28461   8.884   9.073   5.320 -1.3619  0.5783  0.8688
  216MOL0     H28462   8.850   9.213   5.210  2.4364  0.8793 -3.0948
  216MOL0     H28463   9.065   9.187   5.086 -2.3245  1.8505  1.1864
  216MOL0     H28464   8.934   9.078   5.050  0.1811 -0.0557  0.4692
  216MOL0     H28465   8.976   8.798   5.176 -0.0117 -1.0478  0.0306
  216MOL0     H28466   9.129   8.605   5.181 -1.0135  0.0057 -3.2118
  216MOL0     H28467   9.269   8.661   5.278  1.1410 -0.0490 -0.6515
  216MOL0     H28468   9.398   8.689   5.062 -1.2234  0.4283 -0.1894
  216MOL0     H28469   9.265   8.612   4.966 -0.0901 -1.2964 -1.3849
  216MOL0     H28470   9.459   8.475   4.986  0.1827 -2.3257 -0.8811
  216MOL0     H28471   9.446   8.467   5.161  1.0147 -1.9561 -0.9787
  216MOL0     H28472   9.304   8.308   4.959 -6.1489 -1.6821 -0.0887
  216MOL0     H28473   9.184   8.400   5.040 -0.0354 -2.8914 -2.0870
  216MOL0     H28474   9.095   8.199   4.976  0.3053  0.0046 -0.1318
  216MOL0     H28475   8.996   7.974   4.968  0.6709  1.6027 -0.2128
  216MOL0     H28476   8.868   7.580   5.311 -2.5416 -1.3234  1.3714
  216MOL0     H28477   8.778   7.354   5.275 -4.6106 -0.5400 -0.6613
  216MOL0     H28478   8.601   7.234   4.888 -0.6108  1.4085  0.4004
  216MOL0     H28479   8.548   7.291   5.046 -1.2443  0.2827 -1.1451
  216MOL0     H28480   8.599   7.064   5.138 -1.7842  0.0952  1.3484
  216MOL0     H28481   8.613   7.003   4.973  1.6974  1.5963 -0.2551
  216MOL0     H28482   8.363   7.084   4.944 -1.6211  0.6991  0.2169
  216MOL0     H28483   8.364   7.111   5.122  1.3162 -1.7746  1.6083
  216MOL0     H28484   8.408   6.851   4.979 -0.0525 -1.2646  0.8510
  216MOL0     H28485   8.444   6.864   5.156  0.2851  1.1250 -0.7032
  216MOL0     H28486   8.216   6.944   5.203  0.5150 -0.4519 -0.4880
  216MOL0     H28487   8.215   6.779   5.155 -2.7827  0.3579 -0.3395
  216MOL0     H28488   8.166   6.894   4.898  3.2307  4.2767 -0.3835
  216MOL0     H28489   8.107   7.010   5.006 -1.8847 -0.1716 -2.9612
  216MOL0     H28490   7.962   6.791   4.933 -1.4164 -3.0823  1.3251
  216MOL0     H28491   8.047   6.719   5.075 -1.2039 -1.2391  0.8002
  216MOL0     H28492   7.810   6.843   5.139 -0.0427  1.3525  2.0284
  216MOL0     H28493   7.879   6.986   5.081  0.1385 -0.6912  0.0881
  216MOL0     H28494   8.747   7.440   4.861 -1.0715  2.2069 -0.7002
  216MOL0     H28495   8.818   7.659   4.894 -0.4506 -0.2188 -0.6621
  216MOL0     H28496   9.235   7.846   5.297 -0.5174 -0.3096 -0.8759
  216MOL0     H28497   9.341   8.095   5.305 -0.7483 -2.0353  0.4573
  216MOL0     H28498   9.409   9.751   4.968 -2.7877 -3.2229  1.9846
  216MOL0     H28499   9.647   9.691   4.890  2.8580  0.3742  1.3823
  216MOL0     H28500  10.181   9.510   5.175 -0.7351 -2.2689  0.4270
  216MOL0     H28501  10.357   9.381   5.059 -0.8358 -0.6358  0.4515
  216MOL0     H28502  10.541   9.189   4.794  5.4174  0.8877  1.9441
  216MOL0     H28503  10.504   9.271   4.939  2.2434  1.6008 -0.5373
  216MOL0     H28504  10.498   9.451   4.683  0.6912  2.4938  1.4693
  216MOL0     H28505  10.517   9.483   4.852 -2.8148 -0.8330  1.2059
  216MOL0     H28506  10.728   9.365   4.670  0.3881  1.4440 -0.6481
  216MOL0     H28507  10.746   9.372   4.836 -3.3278  0.7266  1.2279
  216MOL0     H28508  10.850   9.577   4.724 -0.1244  0.4149 -3.8423
  216MOL0     H28509  10.705   9.608   4.638  0.7870  0.1072 -1.1329
  216MOL0     H28510  10.588   9.796   4.986 -1.4551  0.3757 -0.1329
  216MOL0     H28511  10.132   9.368   4.703  0.4432  0.3989 -0.2825
  216MOL0     H28512   9.950   9.499   4.812 -0.0746 -0.1216 -0.5034
  217MOL0     O28513   9.164  11.405   5.327 -0.2537 -0.5899 -0.4629
  217MOL0     C28514   9.123  11.519   5.322  1.5761 -0.5222 -0.3693
  217MOL0     O28515   9.161  11.610   5.234 -0.1514 -0.2125  0.1954
  217MOL0     C28516   9.250  11.592   5.132 -0.5307 -0.2844 -0.4958
  217MOL0     C28517   9.348  11.497   5.134  0.1549  1.0703  0.3182
  217MOL0     C28518   9.438  11.489   5.028  0.0863 -0.3640 -0.3951
  217MOL0     C28519   9.437  11.577   4.922 -0.4464 -0.1850  1.0525
  217MOL0     O28520   9.513  11.557   4.815 -0.7106 -1.0072  0.5110
  217MOL0     C28521   9.619  11.663   4.794 -0.4572  0.5146  0.6918
  217MOL0     C28522   9.627  11.716   4.653  0.3202  0.1608  0.0821
  217MOL0     C28523   9.491  11.784   4.598 -0.3000 -0.8080 -0.6945
  217MOL0     C28524   9.488  11.819   4.445  0.3877  0.5614  0.5840
  217MOL0     C28525   9.362  11.894   4.393 -0.4340  0.3618 -0.1943
  217MOL0     C28526   9.380  12.002   4.285 -0.5568  0.4832 -0.3243
  217MOL0     C28527   9.268  12.104   4.284 -0.2425 -0.2334 -0.3135
  217MOL0     C28528   9.276  12.200   4.160 -0.0327  0.1992  0.1055
  217MOL0     N28529   9.242  12.113   4.038  0.1834  0.6938  0.6355
  217MOL0     C28530   9.113  12.091   3.985 -1.2343 -0.6554  0.7847
  217MOL0     C28531   9.122  12.013   3.874 -0.3378  0.8169 -0.9462
  217MOL0     C28532   9.006  11.963   3.782  0.4342  0.0958 -0.1750
  217MOL0     C28533   9.052  11.969   3.637 -0.2428 -0.6754 -0.0413
  217MOL0     C28534   8.916  11.965   3.549 -0.0376 -0.0904 -0.1849
  217MOL0     C28535   8.892  11.824   3.491 -0.0877 -0.0942 -0.0214
  217MOL0     O28536   8.888  11.730   3.593  0.1826 -0.3625  0.0507
  217MOL0     C28537   8.867  11.601   3.551 -0.9295  0.5223 -0.4590
  217MOL0     C28538   8.764  11.544   3.607  0.4826  0.6868  0.0850
  217MOL0     C28539   8.728  11.411   3.582 -0.4162  0.1295  0.0712
  217MOL0     C28540   8.803  11.342   3.490 -0.4256  0.2970  0.2114
  217MOL0     C28541   8.755  11.204   3.449  0.2383  0.0000 -0.4319
  217MOL0     O28542   8.825  11.135   3.368  0.3968 -0.7014  0.9089
  217MOL0     C28543   8.777  11.015   3.313 -0.7217 -0.6729  0.2168
  217MOL0     C28544   8.704  10.921   3.373  1.3009 -0.3660  0.8963
  217MOL0     C28545   8.669  10.797   3.314  0.9122  1.0896  0.7068
  217MOL0     C28546   8.673  10.785   3.171 -0.5852 -0.3936  0.0161
  217MOL0     O28547   8.615  10.674   3.111 -0.7867 -0.3892  0.2168
  217MOL0     C28548   8.568  10.661   2.977 -0.3200 -0.4366  0.5355
  217MOL0     C28549   8.623  10.541   2.900  0.0358 -0.2236 -0.0327
  217MOL0     C28550   8.610  10.405   2.965 -0.3276  0.8875  0.4204
  217MOL0     C28551   8.692  10.283   2.892  0.5358 -0.1464 -0.6848
  217MOL0     C28552   8.847  10.294   2.906 -0.0978 -0.7325  0.1642
  217MOL0     C28553   8.915  10.165   2.851 -0.1425 -0.7243 -0.7794
  217MOL0     C28554   9.067  10.171   2.881 -0.4442 -0.9127 -0.1743
  217MOL0     C28555   9.132  10.036   2.848  0.6560  1.1385 -0.4273
  217MOL0    Cl28556   9.317  10.046   2.832 -0.4603  0.0803 -0.2447
  217MOL0     C28557   8.767  10.871   3.103 -0.1842  0.3160 -0.1064
  217MOL0     C28558   8.821  10.983   3.176 -0.0115  0.1177  0.0270
  217MOL0     O28559   8.648  11.180   3.506 -0.3391  0.0840 -0.2321
  217MOL0     C28560   8.915  11.398   3.434  0.3889  0.6463  0.6928
  217MOL0     C28561   8.941  11.531   3.460  0.3273  0.4994  0.1661
  217MOL0     N28562   9.259  11.984   3.863  0.0901  0.2834 -0.2447
  217MOL0     N28563   9.328  12.056   3.949 -0.5117  0.1950  0.3095
  217MOL0     C28564   9.325  11.657   4.912  0.8174 -0.1917 -0.9773
  217MOL0     C28565   9.235  11.665   5.014  0.2167 -0.1508 -0.6417
  217MOL0     C28566   9.013  11.544   5.417 -0.1948  0.4281  1.0251
  217MOL0     C28567   8.912  11.626   5.373  0.0362  0.1357  0.2472
  217MOL0     C28568   8.812  11.655   5.463  0.1636 -0.6855  0.8925
  217MOL0     C28569   8.807  11.612   5.593 -0.1353 -0.0368  0.3061
  217MOL0     O28570   8.701  11.631   5.678 -0.9634 -0.1264  0.3337
  217MOL0     C28571   8.587  11.696   5.628  0.3112  0.0935 -0.5217
  217MOL0     C28572   8.460  11.654   5.708  0.3158 -0.2659  0.6353
  217MOL0     C28573   8.326  11.708   5.654 -0.0545  0.6627  0.1494
  217MOL0     C28574   8.200  11.663   5.733 -1.6981 -0.7620  0.5948
  217MOL0     C28575   8.223  11.526   5.787  0.0332  0.9310 -0.3484
  217MOL0     C28576   8.236  11.418   5.845  0.1939  0.5586 -0.4435
  217MOL0     C28577   8.915  11.537   5.635 -0.2630  0.5320 -0.2754
  217MOL0     C28578   9.019  11.498   5.548 -1.4676 -0.2686  0.6714
  217MOL0     H28579   9.370  11.425   5.212 -0.5467 -0.9609 -1.2696
  217MOL0     H28580   9.529  11.431   5.042  0.6262  0.9144  1.7978
  217MOL0     H28581   9.715  11.621   4.828 -0.7068 -3.1959 -2.4746
  217MOL0     H28582   9.591  11.752   4.850 -0.4584  1.7377 -1.1775
  217MOL0     H28583   9.656  11.643   4.576 -1.4950  0.7875 -1.2754
  217MOL0     H28584   9.708  11.788   4.664  3.2918 -3.0152  0.8548
  217MOL0     H28585   9.455  11.872   4.652  0.6479 -1.6203  1.3741
  217MOL0     H28586   9.423  11.702   4.621  1.0134 -1.1012  2.6627
  217MOL0     H28587   9.575  11.877   4.412  0.7306 -1.4218 -2.3411
  217MOL0     H28588   9.500  11.724   4.393  1.6665  0.8537  0.3015
  217MOL0     H28589   9.321  11.936   4.485 -0.0388  3.7005 -1.3715
  217MOL0     H28590   9.292  11.825   4.345 -0.1289  0.9747 -1.6033
  217MOL0     H28591   9.386  11.945   4.191 -0.3337  1.7934 -1.1324
  217MOL0     H28592   9.477  12.052   4.290  0.1723 -1.0016  1.9689
  217MOL0     H28593   9.170  12.057   4.289 -1.2959  1.8489 -0.2939
  217MOL0     H28594   9.285  12.181   4.360 -3.0003 -0.7194  0.9043
  217MOL0     H28595   9.382  12.221   4.139 -0.4778  1.2756 -1.2473
  217MOL0     H28596   9.211  12.288   4.165 -3.9214 -2.4493  0.4433
  217MOL0     H28597   9.029  12.132   4.039 -0.1621  1.4865  0.9588
  217MOL0     H28598   8.913  12.017   3.803 -0.4755 -0.4981 -2.3467
  217MOL0     H28599   8.983  11.858   3.798 -3.1666  0.8120  0.1945
  217MOL0     H28600   9.129  11.895   3.614 -0.3117 -1.2928  1.5880
  217MOL0     H28601   9.113  12.059   3.625  2.7229 -2.5959 -0.4122
  217MOL0     H28602   8.825  11.993   3.602 -0.0352 -0.7849  0.2070
  217MOL0     H28603   8.922  12.018   3.454  1.5219  0.9081  0.4289
  217MOL0     H28604   8.960  11.803   3.408 -0.3842  2.1221 -0.8876
  217MOL0     H28605   8.792  11.808   3.449 -0.2621 -1.3206  0.8010
  217MOL0     H28606   8.709  11.594   3.686 -0.1704  0.9834 -0.5463
  217MOL0     H28607   8.644  11.363   3.631 -0.1316 -1.5597 -1.0142
  217MOL0     H28608   8.697  10.928   3.481 -0.9812  2.7988  0.6590
  217MOL0     H28609   8.604  10.728   3.368  1.1236 -1.7394 -2.3290
  217MOL0     H28610   8.587  10.748   2.913  1.2983  0.1064  1.6924
  217MOL0     H28611   8.460  10.643   2.981 -0.7808  1.7991  0.0176
  217MOL0     H28612   8.724  10.570   2.870  0.6974 -1.8061  0.5457
  217MOL0     H28613   8.572  10.548   2.804 -0.4314 -1.1330  0.1286
  217MOL0     H28614   8.503  10.382   2.964  0.2320 -2.1711  0.6065
  217MOL0     H28615   8.644  10.406   3.069 -0.0299  0.7388  0.3276
  217MOL0     H28616   8.659  10.194   2.946 -1.9763  0.7109 -0.6928
  217MOL0     H28617   8.662  10.272   2.787  0.5968  0.1650 -0.7365
  217MOL0     H28618   8.854  10.294   3.016 -0.4689 -4.9396  0.3472
  217MOL0     H28619   8.884  10.389   2.867 -0.8249  0.7003  2.7038
  217MOL0     H28620   8.895  10.153   2.744 -0.9599 -1.4350 -0.5628
  217MOL0     H28621   8.869  10.072   2.886 -0.9785 -1.2473 -3.0538
  217MOL0     H28622   9.119  10.248   2.823  1.4710 -2.3451 -0.4533
  217MOL0     H28623   9.091  10.204   2.982 -1.2756 -0.0130 -0.2588
  217MOL0     H28624   9.079   9.991   2.764  0.0012 -1.2840  1.1938
  217MOL0     H28625   9.121   9.973   2.937  3.4202  2.0257  0.6537
  217MOL0     H28626   8.795  10.852   3.000  3.1020 -1.1731  0.9521
  217MOL0     H28627   8.891  11.047   3.124  2.3971 -3.3710 -1.4064
  217MOL0     H28628   8.967  11.342   3.358  0.4376 -0.1451  1.3000
  217MOL0     H28629   9.026  11.584   3.418  0.7957 -1.4040 -1.4356
  217MOL0     H28630   9.343  11.728   4.832  1.7052  0.9751  0.2265
  217MOL0     H28631   9.154  11.737   5.000  0.3005 -0.2138 -1.5321
  217MOL0     H28632   8.918  11.657   5.269  0.7809 -1.0865 -0.0994
  217MOL0     H28633   8.734  11.725   5.431  1.1572  0.8469  1.7179
  217MOL0     H28634   8.559  11.664   5.528 -1.8216  0.3594 -0.0669
  217MOL0     H28635   8.599  11.805   5.633 -1.9370  0.3703  0.4833
  217MOL0     H28636   8.469  11.546   5.721 -0.3367 -0.9728 -3.3674
  217MOL0     H28637   8.462  11.702   5.806 -3.2448 -1.0113  1.2100
  217MOL0     H28638   8.324  11.652   5.560  1.1437 -1.9688  1.5595
  217MOL0     H28639   8.319  11.817   5.649 -1.9314  0.5926  0.7080
  217MOL0     H28640   8.177  11.725   5.820 -2.2435 -3.1058  2.2051
  217MOL0     H28641   8.116  11.661   5.662 -1.0370 -0.4814 -0.2107
  217MOL0     H28642   8.244  11.318   5.884 -2.0499  1.1697  1.8779
  217MOL0     H28643   8.913  11.499   5.736 -0.4920 -1.8907 -1.1260
  217MOL0     H28644   9.100  11.439   5.590 -0.1854 -0.4899 -1.9048
  218MOL0     O28645   4.993   3.941   9.756 -0.7583 -0.1329 -0.2720
  218MOL0     C28646   4.983   3.954   9.631 -0.0747  0.3787  0.6619
  218MOL0     O28647   4.868   3.959   9.561  0.4371 -0.1231  0.4029
  218MOL0     C28648   4.762   3.993   9.641 -0.5689  0.4221  0.9865
  218MOL0     C28649   4.668   3.890   9.655  0.2590 -0.8726  0.3069
  218MOL0     C28650   4.561   3.902   9.752  0.2829 -0.4030  0.7575
  218MOL0     C28651   4.549   4.019   9.831 -0.5678  0.3777 -0.1667
  218MOL0     O28652   4.445   4.044   9.918  0.7096  0.3866  1.1085
  218MOL0     C28653   4.463   3.990  10.048 -0.1701  0.6327  1.0698
  218MOL0     C28654   4.590   4.038  10.116 -0.5368  0.3649  0.1555
  218MOL0     C28655   4.571   4.043  10.269 -0.0398  0.0362 -0.0309
  218MOL0     C28656   4.546   3.908  10.337  0.0774  0.8170 -0.6431
  218MOL0     C28657   4.511   3.918  10.494  0.5173  0.0855 -1.3004
  218MOL0     C28658   4.378   4.006  10.514  0.7079  0.1900  0.4210
  218MOL0     C28659   4.318   3.989  10.651  0.2848  0.1303 -0.3501
  218MOL0     C28660   4.175   3.930  10.652 -0.5389 -0.0035 -0.3209
  218MOL0     N28661   4.069   4.024  10.613  0.2777  0.1354  0.1060
  218MOL0     C28662   4.002   4.027  10.492 -0.8032 -0.2357 -0.5683
  218MOL0     C28663   3.958   4.155  10.487 -0.9042 -0.3515 -0.2685
  218MOL0     C28664   3.891   4.219  10.372  0.0195  0.5956  0.3494
  218MOL0     C28665   3.752   4.164  10.343 -1.0681 -1.2461 -0.1812
  218MOL0     C28666   3.701   4.256  10.225 -0.0845 -0.3833  0.6767
  218MOL0     C28667   3.555   4.214  10.198  0.4849  0.1531  0.8099
  218MOL0     O28668   3.504   4.287  10.086  0.2713 -0.0795  0.4148
  218MOL0     C28669   3.371   4.270  10.062  0.4927  0.4380 -0.3756
  218MOL0     C28670   3.323   4.312   9.936  0.4211 -0.4658 -0.8114
  218MOL0     C28671   3.191   4.307   9.910  0.3491  0.4440  0.1208
  218MOL0     C28672   3.099   4.243   9.992  0.5194  0.4701 -0.8771
  218MOL0     C28673   2.961   4.233   9.943  1.4017  0.6835 -0.3240
  218MOL0     O28674   2.933   4.222   9.809  0.7170 -0.4536 -0.6907
  218MOL0     C28675   2.820   4.185   9.754  0.7711 -0.1825  0.7012
  218MOL0     C28676   2.808   4.215   9.617 -0.8600 -0.8450 -0.2239
  218MOL0     C28677   2.697   4.196   9.540 -0.7014  0.2981 -0.6546
  218MOL0     C28678   2.579   4.137   9.593  0.2717  0.2517  0.6003
  218MOL0     O28679   2.450   4.127   9.527 -0.3017  0.8397 -0.6638
  218MOL0     C28680   2.456   4.056   9.410  0.4890  0.1545  0.0850
  218MOL0     C28681   2.311   4.035   9.353  0.9762 -0.2631 -0.1226
  218MOL0     C28682   2.323   3.943   9.233  0.2305  0.1069  0.2809
  218MOL0     C28683   2.213   3.979   9.125  0.0344 -0.3218 -0.3325
  218MOL0     C28684   2.176   3.847   9.052  1.0379 -0.2743 -0.4332
  218MOL0     C28685   2.088   3.875   8.930 -0.4735  0.4380  0.7873
  218MOL0     C28686   2.088   3.744   8.836 -0.5762  0.2011  0.2939
  218MOL0     C28687   1.991   3.639   8.886  0.3375  0.6891 -0.1602
  218MOL0    Cl28688   1.972   3.496   8.771 -0.0478  0.1458  0.5318
  218MOL0     C28689   2.588   4.096   9.728  0.1182 -0.3293 -0.7295
  218MOL0     C28690   2.709   4.114   9.805  0.3115  0.4733 -1.1166
  218MOL0     O28691   2.882   4.215  10.043  0.7068  0.5196 -0.3669
  218MOL0     C28692   3.147   4.187  10.110 -0.9587 -0.0549  0.4911
  218MOL0     C28693   3.271   4.214  10.143 -0.1479  1.1431 -0.1987
  218MOL0     N28694   4.003   4.221  10.595  0.6001 -0.3299 -0.1175
  218MOL0     N28695   4.050   4.144  10.682 -0.6622  0.6449 -0.2912
  218MOL0     C28696   4.644   4.127   9.809 -1.1089  1.4850 -0.2687
  218MOL0     C28697   4.753   4.109   9.724  0.0206 -0.5566  0.3534
  218MOL0     C28698   5.110   3.920   9.570 -0.1335 -0.5499  0.2030
  218MOL0     C28699   5.224   3.884   9.644  0.1737 -0.5209 -0.8501
  218MOL0     C28700   5.351   3.899   9.585  0.8172 -0.6380  0.0369
  218MOL0     C28701   5.368   3.918   9.449 -0.7043 -0.2984 -0.1615
  218MOL0     O28702   5.492   3.926   9.383  0.7968  0.9440 -0.4924
  218MOL0     C28703   5.600   3.937   9.465  0.7490 -0.7781  0.4670
  218MOL0     C28704   5.655   3.795   9.505 -0.2789 -0.6188 -0.4952
  218MOL0     C28705   5.717   3.728   9.381 -0.3300  0.1641  0.1593
  218MOL0     C28706   5.619   3.676   9.276 -0.2644  0.7322 -0.2099
  218MOL0     C28707   5.519   3.583   9.329 -0.3346  0.1077  0.5152
  218MOL0     C28708   5.433   3.497   9.367 -1.6025 -0.2441 -0.7728
  218MOL0     C28709   5.252   3.928   9.371 -0.2859 -0.6489  0.1776
  218MOL0     C28710   5.119   3.932   9.431 -0.3780  0.6010 -0.9141
  218MOL0     H28711   4.676   3.807   9.585 -1.3677 -0.9983  0.2438
  218MOL0     H28712   4.487   3.822   9.750  0.7641 -0.8375 -0.4128
  218MOL0     H28713   4.455   3.884  10.024 -2.9724  1.3925 -2.0272
  218MOL0     H28714   4.372   4.015  10.103 -0.3082  1.3545  0.5362
  218MOL0     H28715   4.613   4.141  10.086 -3.3076  0.3438 -2.5007
  218MOL0     H28716   4.679   3.980  10.086 -0.0744  1.9706 -1.7749
  218MOL0     H28717   4.492   4.118  10.284 -1.2793 -0.5619 -2.7600
  218MOL0     H28718   4.664   4.092  10.298 -2.1454  4.0332  0.7193
  218MOL0     H28719   4.468   3.846  10.292  0.9175 -1.5132  0.9351
  218MOL0     H28720   4.638   3.849  10.329 -0.2210 -0.0070  1.2636
  218MOL0     H28721   4.596   3.951  10.555 -0.4250 -2.8887  1.9504
  218MOL0     H28722   4.479   3.817  10.520  0.3107 -0.6845 -4.2389
  218MOL0     H28723   4.307   3.969  10.440  1.9197 -0.8816 -0.2585
  218MOL0     H28724   4.399   4.110  10.488 -1.2158  0.0025 -2.2773
  218MOL0     H28725   4.388   3.917  10.696 -0.8503 -0.0514  1.1808
  218MOL0     H28726   4.316   4.073  10.720  0.2841 -0.8520  0.8821
  218MOL0     H28727   4.153   3.889  10.751 -2.0426 -0.5073 -0.8403
  218MOL0     H28728   4.177   3.841  10.587  0.5812  0.1150 -0.4869
  218MOL0     H28729   4.008   3.940  10.427 -1.0079 -2.4390  2.1525
  218MOL0     H28730   3.954   4.209  10.283 -1.4549  0.5952 -0.7537
  218MOL0     H28731   3.886   4.328  10.380  0.1433  0.9086 -2.5966
  218MOL0     H28732   3.700   4.176  10.438 -1.5312 -0.2478 -0.5453
  218MOL0     H28733   3.759   4.058  10.318 -0.3882 -1.5210  1.1072
  218MOL0     H28734   3.704   4.361  10.254  1.0295 -0.4796  0.9540
  218MOL0     H28735   3.764   4.250  10.136 -1.5663 -1.3525 -0.3663
  218MOL0     H28736   3.491   4.228  10.286 -0.7330  0.2288 -0.0656
  218MOL0     H28737   3.553   4.108  10.169  0.3262 -0.1172  1.7587
  218MOL0     H28738   3.385   4.374   9.872 -1.8260  1.4117 -1.3362
  218MOL0     H28739   3.155   4.346   9.815 -3.5771  1.6920  1.9001
  218MOL0     H28740   2.896   4.258   9.571 -1.0523  1.4093  1.2998
  218MOL0     H28741   2.693   4.253   9.448 -1.3654 -0.7793 -1.3062
  218MOL0     H28742   2.491   3.954   9.429 -2.2209 -0.8932 -0.1273
  218MOL0     H28743   2.516   4.106   9.333 -1.4616  0.5840 -1.2271
  218MOL0     H28744   2.275   4.133   9.321  4.7701  1.5516  0.5978
  218MOL0     H28745   2.240   3.995   9.426 -3.5811 -1.9083 -4.7946
  218MOL0     H28746   2.311   3.840   9.270 -1.0935  0.0175 -0.3410
  218MOL0     H28747   2.421   3.936   9.186 -0.3598 -4.9221 -0.8479
  218MOL0     H28748   2.114   4.015   9.155 -0.6730 -1.2463 -1.4259
  218MOL0     H28749   2.260   4.050   9.056  0.7405  0.4922  0.9549
  218MOL0     H28750   2.118   3.786   9.122 -1.2172  1.4310 -0.6743
  218MOL0     H28751   2.273   3.807   9.024  2.9112  3.0934  0.6669
  218MOL0     H28752   2.137   3.948   8.865  0.6552 -0.4933  0.5699
  218MOL0     H28753   1.986   3.902   8.959 -0.7886  0.2780 -0.1507
  218MOL0     H28754   2.048   3.776   8.740  2.9868  1.7891 -0.8195
  218MOL0     H28755   2.187   3.699   8.834 -0.5886  0.2024 -0.4351
  218MOL0     H28756   1.887   3.672   8.893 -0.8290 -2.6690  0.0273
  218MOL0     H28757   2.018   3.593   8.981 -1.9172  1.7880  1.0935
  218MOL0     H28758   2.503   4.058   9.784  0.4182 -0.1020 -0.1074
  218MOL0     H28759   2.712   4.084   9.909  2.2340  0.7438 -1.0759
  218MOL0     H28760   3.089   4.147  10.192 -1.8124  3.8048  1.9905
  218MOL0     H28761   3.291   4.196  10.248  2.2358 -0.2952 -0.8085
  218MOL0     H28762   4.637   4.210   9.879 -0.7620 -0.3093  2.0265
  218MOL0     H28763   4.827   4.188   9.718  1.7589 -2.2159 -1.5108
  218MOL0     H28764   5.214   3.891   9.752 -1.1023 -0.3537 -0.9596
  218MOL0     H28765   5.416   3.888   9.671 -1.3019  0.1779  1.8500
  218MOL0     H28766   5.578   3.999   9.552  2.9722 -2.4738  2.3688
  218MOL0     H28767   5.674   3.992   9.407  0.1889 -0.1669  0.3224
  218MOL0     H28768   5.730   3.810   9.583  0.2473  0.6862 -1.2128
  218MOL0     H28769   5.585   3.728   9.557 -0.6535 -0.1297 -0.3551
  218MOL0     H28770   5.775   3.640   9.411 -0.2703  0.2920  0.4206
  218MOL0     H28771   5.784   3.800   9.333 -0.0585  0.2657  0.6721
  218MOL0     H28772   5.564   3.755   9.225 -1.0148  0.0062 -0.5502
  218MOL0     H28773   5.677   3.619   9.202 -0.5779 -0.3211  0.3301
  218MOL0     H28774   5.367   3.424   9.410 -1.4145  0.8151  1.4462
  218MOL0     H28775   5.266   3.960   9.268  0.1172  1.5788  0.8859
  218MOL0     H28776   5.036   3.959   9.367 -0.9677  0.3876 -0.2416
  219MOL0     O28777   7.654   6.324  10.630 -0.9032  0.0849  0.3052
  219MOL0     C28778   7.740   6.243  10.657  0.0056  0.6135  0.0678
  219MOL0     O28779   7.720   6.133  10.742  0.0783  0.1143 -0.2131
  219MOL0     C28780   7.594   6.111  10.790 -0.3693 -0.0808 -0.5235
  219MOL0     C28781   7.495   6.043  10.715 -0.2080  0.4728  0.5464
  219MOL0     C28782   7.370   6.020  10.765 -0.0629 -0.1202 -0.0476
  219MOL0     C28783   7.333   6.067  10.895 -1.1038  0.0645  0.5741
  219MOL0     O28784   7.207   6.059  10.946 -0.1801  0.2665 -0.5033
  219MOL0     C28785   7.104   5.980  10.886  0.0433 -0.2090 -0.1326
  219MOL0     C28786   6.962   5.994  10.948  1.8739  0.0881  0.6355
  219MOL0     C28787   6.858   5.891  10.898 -0.5126  0.3505 -0.1282
  219MOL0     C28788   6.790   5.927  10.770 -0.1685  0.6216  0.2570
  219MOL0     C28789   6.675   5.823  10.714 -0.7273 -0.9212 -0.9950
  219MOL0     C28790   6.604   5.864  10.578 -0.4486  0.0583 -0.4205
  219MOL0     C28791   6.565   5.745  10.482  0.5870  0.2215  0.5535
  219MOL0     C28792   6.497   5.621  10.548  0.1841 -0.0657 -0.9410
  219MOL0     N28793   6.364   5.646  10.602  0.2280  0.2599  0.0161
  219MOL0     C28794   6.248   5.636  10.536  0.0050  0.5546  0.3595
  219MOL0     C28795   6.141   5.639  10.626 -0.2421  0.5369 -0.2856
  219MOL0     C28796   5.994   5.625  10.623 -0.1479 -0.4374 -0.0213
  219MOL0     C28797   5.953   5.482  10.564 -0.6749 -0.0540  0.1405
  219MOL0     C28798   5.794   5.483  10.523  0.0016 -1.0295 -0.3934
  219MOL0     C28799   5.761   5.571  10.404 -0.7663  0.3734  0.3991
  219MOL0     O28800   5.628   5.600  10.387  0.3652 -0.2578 -0.1096
  219MOL0     C28801   5.533   5.506  10.338  0.4585 -0.4096 -0.0342
  219MOL0     C28802   5.393   5.543  10.326 -0.5948  1.2563 -0.5580
  219MOL0     C28803   5.302   5.466  10.258  0.1935  0.4340  0.5237
  219MOL0     C28804   5.342   5.338  10.215 -0.2265 -0.6645 -0.0437
  219MOL0     C28805   5.251   5.253  10.146 -0.4145 -0.2739 -0.1034
  219MOL0     O28806   5.119   5.287  10.141 -0.6390  0.0716 -0.2470
  219MOL0     C28807   5.016   5.219  10.066 -0.1457 -0.0358  0.4702
  219MOL0     C28808   5.015   5.089  10.014  0.2073 -0.3165 -1.2712
  219MOL0     C28809   4.898   5.033   9.973 -0.9759  0.0003  0.1141
  219MOL0     C28810   4.776   5.100   9.964  0.1412 -0.1754 -0.3585
  219MOL0     O28811   4.668   5.042   9.901 -0.0043  0.3570 -0.3606
  219MOL0     C28812   4.544   5.108   9.924  1.1061 -0.5321  0.6755
  219MOL0     C28813   4.431   5.006   9.882 -0.8793  0.1755 -0.7081
  219MOL0     C28814   4.406   4.993   9.728  0.3568 -0.8836 -0.3684
  219MOL0     C28815   4.379   4.842   9.684 -1.1731 -0.2810 -0.1426
  219MOL0     C28816   4.295   4.830   9.549  0.7576  0.4695  0.1260
  219MOL0     C28817   4.143   4.833   9.565 -0.9724 -0.2863 -0.5274
  219MOL0     C28818   4.081   4.896   9.452 -0.1255 -0.0573 -0.0828
  219MOL0     C28819   4.133   4.832   9.324  0.2205 -0.0275 -1.5401
  219MOL0    Cl28820   4.131   4.659   9.336 -0.1960 -0.6819  0.1757
  219MOL0     C28821   4.786   5.234  10.002 -0.1199  0.0859 -0.3318
  219MOL0     C28822   4.895   5.286  10.067 -0.2196 -0.0867 -0.5758
  219MOL0     O28823   5.298   5.153  10.105 -0.4555  0.2566  0.1303
  219MOL0     C28824   5.478   5.301  10.233 -0.1391  0.2705 -0.0726
  219MOL0     C28825   5.579   5.387  10.277  0.1235 -0.1536 -0.2951
  219MOL0     N28826   6.201   5.644  10.747  0.0539  0.2373 -0.4474
  219MOL0     N28827   6.329   5.649  10.732  0.9297 -0.1578 -0.7657
  219MOL0     C28828   7.439   6.124  10.972  0.8019  0.3053  0.2959
  219MOL0     C28829   7.562   6.155  10.914  0.1893  0.9231 -0.0037
  219MOL0     C28830   7.872   6.276  10.597 -0.5103  0.8840 -0.4442
  219MOL0     C28831   7.892   6.389  10.523  0.3826 -0.6803 -0.5997
  219MOL0     C28832   8.022   6.409  10.478 -0.6258  0.0414  1.0173
  219MOL0     C28833   8.123   6.303  10.486  1.3626  0.3321  0.3575
  219MOL0     O28834   8.246   6.310  10.433  0.5303  0.3108 -0.0492
  219MOL0     C28835   8.310   6.436  10.444  1.0372 -0.4559  0.1224
  219MOL0     C28836   8.348   6.473  10.292  0.4842 -0.6884  0.5647
  219MOL0     C28837   8.442   6.603  10.288  0.4119 -0.2385 -0.0729
  219MOL0     C28838   8.422   6.655  10.139 -0.9677 -0.5588  0.2112
  219MOL0     C28839   8.501   6.782  10.122 -0.1427 -0.7204  0.1425
  219MOL0     C28840   8.542   6.899  10.128  0.4739 -0.3302  0.4541
  219MOL0     C28841   8.092   6.196  10.552 -0.3245 -0.1441 -0.5928
  219MOL0     C28842   7.974   6.182  10.616  0.0137 -0.4752  1.0094
  219MOL0     H28843   7.496   6.009  10.612 -3.1050 -0.0519  0.5929
  219MOL0     H28844   7.296   5.987  10.693 -1.1496  0.2898  0.8701
  219MOL0     H28845   7.133   5.875  10.874 -2.4563 -1.2832  2.1208
  219MOL0     H28846   7.101   6.008  10.781 -0.6056  2.2550  0.4799
  219MOL0     H28847   6.936   6.096  10.921  2.3833  0.0512 -0.0215
  219MOL0     H28848   6.974   6.000  11.057 -2.0657  0.2118  1.2073
  219MOL0     H28849   6.783   5.881  10.978 -2.5310  2.8629 -1.5497
  219MOL0     H28850   6.912   5.797  10.883 -1.0599  0.4482 -3.4499
  219MOL0     H28851   6.733   6.019  10.789 -0.1538  1.0711 -1.6410
  219MOL0     H28852   6.860   5.943  10.687  3.0007 -2.6664  1.9799
  219MOL0     H28853   6.614   5.799  10.802  3.2050 -6.2273  0.8359
  219MOL0     H28854   6.748   5.747  10.685  2.9592  2.6485 -2.1211
  219MOL0     H28855   6.665   5.922  10.508 -1.3951 -0.2216 -1.5201
  219MOL0     H28856   6.516   5.922  10.609  0.6372  0.1542  2.8468
  219MOL0     H28857   6.492   5.775  10.407  0.0633 -1.5519  0.3168
  219MOL0     H28858   6.651   5.695  10.436  0.3747 -3.8356  3.9050
  219MOL0     H28859   6.568   5.571  10.615  0.6977  0.5090 -1.0505
  219MOL0     H28860   6.479   5.550  10.467 -1.3150  0.4064 -1.0445
  219MOL0     H28861   6.230   5.623  10.430  0.2553 -0.4831  0.4341
  219MOL0     H28862   5.960   5.699  10.549 -0.0552  0.7204  1.0707
  219MOL0     H28863   5.941   5.646  10.716 -3.5410 -1.8112 -1.4703
  219MOL0     H28864   5.951   5.408  10.645  0.9846 -0.6179 -0.2956
  219MOL0     H28865   6.007   5.441  10.478 -1.1667  0.3357 -0.3604
  219MOL0     H28866   5.765   5.379  10.504 -0.6291 -0.5772 -2.0352
  219MOL0     H28867   5.734   5.522  10.606  0.5186  0.3703 -0.6539
  219MOL0     H28868   5.798   5.533  10.309 -2.5443 -1.4027  0.3558
  219MOL0     H28869   5.807   5.670  10.409 -0.0030  0.1209 -1.0681
  219MOL0     H28870   5.377   5.646  10.356 -1.5976  1.0948 -0.5060
  219MOL0     H28871   5.199   5.499  10.250 -0.3948 -1.3155  0.4924
  219MOL0     H28872   5.107   5.031  10.008  0.1515 -0.2953 -2.7639
  219MOL0     H28873   4.896   4.929   9.942 -0.7882 -0.2025  0.7722
  219MOL0     H28874   4.519   5.199   9.869  0.1351  0.3444  2.4989
  219MOL0     H28875   4.543   5.128  10.031  0.6701 -1.6146  0.8840
  219MOL0     H28876   4.339   5.042   9.929 -0.0661  2.6232 -0.8523
  219MOL0     H28877   4.448   4.909   9.931 -1.1379 -0.0049 -0.9764
  219MOL0     H28878   4.499   5.016   9.676  1.8582 -2.5356  1.4431
  219MOL0     H28879   4.322   5.060   9.707 -0.5194 -1.3227  1.5465
  219MOL0     H28880   4.477   4.794   9.671 -2.1911 -2.4198 -0.3808
  219MOL0     H28881   4.320   4.789   9.759 -2.8427  1.2309 -0.3384
  219MOL0     H28882   4.302   4.735   9.494 -3.5418 -1.1705  1.9799
  219MOL0     H28883   4.324   4.917   9.489 -2.6208  1.2968 -0.4676
  219MOL0     H28884   4.101   4.881   9.654 -1.3834 -1.5086 -0.0468
  219MOL0     H28885   4.107   4.731   9.582 -0.9599 -0.0057  1.5072
  219MOL0     H28886   3.973   4.879   9.456 -0.3382  0.8645 -1.4068
  219MOL0     H28887   4.103   5.003   9.455  0.7525 -0.2461  1.5972
  219MOL0     H28888   4.235   4.862   9.297  1.5663  0.8486  3.5145
  219MOL0     H28889   4.069   4.869   9.244  1.2933  0.7624 -2.0500
  219MOL0     H28890   4.697   5.296  10.005  0.8062  1.4075  1.5667
  219MOL0     H28891   4.890   5.378  10.125  0.2027 -0.4072 -0.0181
  219MOL0     H28892   5.505   5.208  10.184 -3.1641 -0.2247 -1.0633
  219MOL0     H28893   5.683   5.356  10.270 -0.7702 -4.1454  1.2771
  219MOL0     H28894   7.414   6.156  11.073  0.3716 -1.8000  0.8970
  219MOL0     H28895   7.629   6.199  10.987  0.4896 -1.9697  1.6454
  219MOL0     H28896   7.819   6.469  10.522  2.3157  1.2081 -0.6663
  219MOL0     H28897   8.034   6.502  10.424 -2.7427 -0.2011  0.0232
  219MOL0     H28898   8.405   6.438  10.499  1.6503 -1.3013 -0.8641
  219MOL0     H28899   8.245   6.513  10.485  0.2283 -0.5646 -0.9254
  219MOL0     H28900   8.412   6.401  10.240  2.2158 -1.2231  3.2139
  219MOL0     H28901   8.253   6.492  10.241  0.7192 -0.8734  0.0543
  219MOL0     H28902   8.549   6.589  10.300  0.5487  0.5239 -0.3307
  219MOL0     H28903   8.418   6.680  10.362  0.9482  0.0965 -0.2451
  219MOL0     H28904   8.454   6.586  10.060  0.5558  0.8304 -0.4500
  219MOL0     H28905   8.316   6.665  10.113 -1.2425 -1.6165  0.8607
  219MOL0     H28906   8.565   7.004  10.130  2.3854 -0.7194  0.1496
  219MOL0     H28907   8.148   6.102  10.553 -1.0354 -0.5938 -1.6021
  219MOL0     H28908   7.946   6.097  10.677  2.1693 -1.8722  0.1677
  220MOL0     O28909  10.832   8.211   2.804 -0.4567 -0.0587  0.3399
  220MOL0     C28910  10.840   8.262   2.919 -0.4733 -0.8133 -0.3248
  220MOL0     O28911  10.800   8.197   3.034 -0.9759 -0.0622 -0.1226
  220MOL0     C28912  10.757   8.066   3.021 -0.1542 -0.4529 -0.4227
  220MOL0     C28913  10.632   8.052   3.080  0.1586  0.3083 -0.3259
  220MOL0     C28914  10.564   7.935   3.066 -0.0778  0.0023 -0.2015
  220MOL0     C28915  10.626   7.818   3.013 -0.0463  0.8183  0.1429
  220MOL0     O28916  10.577   7.682   3.000 -0.0607  0.1020 -1.2517
  220MOL0     C28917  10.452   7.658   3.050  0.6017 -0.2174  0.5697
  220MOL0     C28918  10.408   7.520   2.988  0.7595 -0.2728  0.2259
  220MOL0     C28919  10.269   7.489   3.046  0.3515  0.6647 -0.5818
  220MOL0     C28920  10.230   7.364   2.976  0.2437  0.4453  0.0521
  220MOL0     C28921  10.076   7.338   3.011  0.9862  0.6625 -0.3955
  220MOL0     C28922   9.994   7.284   2.890  0.1315  0.2054 -1.1368
  220MOL0     C28923   9.844   7.259   2.912  0.5836  0.5900 -0.6146
  220MOL0     C28924   9.841   7.116   2.972 -1.1426 -1.0741 -0.4034
  220MOL0     N28925   9.715   7.065   3.014 -0.2408 -0.6901  0.6303
  220MOL0     C28926   9.633   6.992   2.932 -0.9740 -0.0218 -0.2818
  220MOL0     C28927   9.516   7.014   2.998 -0.0934  0.8974  0.6378
  220MOL0     C28928   9.377   6.965   2.977  0.4818  0.9880  0.2427
  220MOL0     C28929   9.369   6.815   2.982  1.1283 -0.3197  0.2005
  220MOL0     C28930   9.434   6.746   2.855 -0.5092  0.5196 -0.4818
  220MOL0     C28931   9.385   6.603   2.836 -0.0772 -0.2063  0.4420
  220MOL0     O28932   9.430   6.557   2.706 -0.4643 -0.6529  0.3233
  220MOL0     C28933   9.359   6.462   2.640 -0.9813  0.2604 -0.9058
  220MOL0     C28934   9.319   6.490   2.511  1.0857 -0.5416  0.2732
  220MOL0     C28935   9.217   6.412   2.440 -0.7229 -0.5976 -0.1969
  220MOL0     C28936   9.182   6.284   2.491  0.0771  0.3462  0.5119
  220MOL0     C28937   9.096   6.179   2.420  0.3721 -0.7582 -0.3791
  220MOL0     O28938   9.034   6.229   2.303  0.3383 -0.3514 -0.3116
  220MOL0     C28939   8.967   6.149   2.216  0.0984 -0.5048  0.1352
  220MOL0     C28940   8.870   6.055   2.269  0.1928 -0.2506 -0.5784
  220MOL0     C28941   8.796   5.989   2.168 -0.7467 -0.1792  0.3915
  220MOL0     C28942   8.817   6.007   2.029 -1.0149  1.0941  0.1536
  220MOL0     O28943   8.740   5.949   1.935 -1.0566 -0.5809  0.0017
  220MOL0     C28944   8.746   5.802   1.927  0.2655  0.1029 -0.8208
  220MOL0     C28945   8.607   5.734   1.984 -0.3120 -0.9299  0.2599
  220MOL0     C28946   8.494   5.774   1.887  1.7900 -0.3495  0.0298
  220MOL0     C28947   8.370   5.682   1.898 -0.4015  0.0066  0.0377
  220MOL0     C28948   8.286   5.709   1.776 -0.1742 -0.7938  0.6335
  220MOL0     C28949   8.156   5.628   1.773  0.3311  0.3956 -0.2902
  220MOL0     C28950   8.054   5.692   1.675 -0.8771 -0.0310 -0.8343
  220MOL0     C28951   7.917   5.729   1.739 -0.5193  0.5901 -0.0588
  220MOL0    Cl28952   7.921   5.905   1.777 -0.1495 -0.2224  0.3934
  220MOL0     C28953   8.917   6.099   1.976 -0.0648 -0.0731 -0.0115
  220MOL0     C28954   8.980   6.174   2.075 -0.8300  0.2588 -0.1926
  220MOL0     O28955   9.089   6.067   2.465 -0.5702  0.6295  0.0152
  220MOL0     C28956   9.224   6.255   2.628 -0.0268 -0.5679 -0.0982
  220MOL0     C28957   9.311   6.341   2.707 -0.4958  0.1393 -0.4478
  220MOL0     N28958   9.533   7.078   3.121  0.0895 -1.3115  0.4272
  220MOL0     N28959   9.657   7.103   3.130  0.5975 -0.4281 -0.1965
  220MOL0     C28960  10.757   7.831   2.974 -0.6021 -0.7944  0.2900
  220MOL0     C28961  10.822   7.953   2.978  0.0451  0.1704  0.3407
  220MOL0     C28962  10.895   8.403   2.934  0.5354  0.5207 -0.3847
  220MOL0     C28963  10.958   8.458   3.047  0.0155  0.1303  0.5385
  220MOL0     C28964  11.003   8.587   3.059  0.3913  0.2484  0.4581
  220MOL0     C28965  10.985   8.671   2.945 -0.0953  0.9494  0.3462
  220MOL0     O28966  11.010   8.809   2.938  0.2205 -0.2557 -0.3823
  220MOL0     C28967  11.085   8.864   3.048  1.2681 -0.0406 -0.4610
  220MOL0     C28968  11.001   8.927   3.155  0.4298  0.0247 -0.5923
  220MOL0     C28969  11.086   8.980   3.274 -0.0330 -0.0475 -0.5025
  220MOL0     C28970  11.076   9.125   3.301  0.5997  0.1971 -0.3034
  220MOL0     C28971  11.171   9.208   3.237 -0.1400 -0.1424  0.2935
  220MOL0     C28972  11.245   9.275   3.179 -1.0474 -0.0899 -0.1927
  220MOL0     C28973  10.926   8.622   2.828 -0.6757 -0.1135 -0.2543
  220MOL0     C28974  10.871   8.494   2.832 -0.4476  0.6765  0.1375
  220MOL0     H28975  10.599   8.136   3.140  3.2926  1.9617 -0.7197
  220MOL0     H28976  10.460   7.924   3.093  0.6245 -0.9667  2.3292
  220MOL0     H28977  10.381   7.739   3.030 -1.3207 -1.6985  1.0814
  220MOL0     H28978  10.461   7.645   3.159  0.2593 -3.4454  0.3092
  220MOL0     H28979  10.471   7.434   3.010 -0.5559 -1.0358  1.1487
  220MOL0     H28980  10.389   7.529   2.880 -2.7081 -0.0099  0.7541
  220MOL0     H28981  10.194   7.563   3.017 -0.4277 -0.7389 -2.3591
  220MOL0     H28982  10.284   7.486   3.154  0.6936 -0.5506 -0.6495
  220MOL0     H28983  10.250   7.378   2.870  2.7962 -1.5508  0.1613
  220MOL0     H28984  10.295   7.279   3.000 -0.5883 -0.2522 -0.1383
  220MOL0     H28985  10.025   7.423   3.058  1.1335  1.9100 -2.3793
  220MOL0     H28986  10.089   7.254   3.080 -0.1765  1.8272  1.3276
  220MOL0     H28987  10.041   7.200   2.838  2.9824  2.2153 -2.0838
  220MOL0     H28988  10.004   7.363   2.814  3.1766  2.4485  1.3017
  220MOL0     H28989   9.802   7.335   2.980 -1.9559 -1.4603  0.2784
  220MOL0     H28990   9.791   7.265   2.817  2.6619  1.1475 -1.7924
  220MOL0     H28991   9.911   7.112   3.056 -0.8143  2.4662 -0.3652
  220MOL0     H28992   9.871   7.051   2.889  0.8722  1.4309 -1.8199
  220MOL0     H28993   9.652   6.940   2.838  0.0657  0.9978 -0.6565
  220MOL0     H28994   9.343   6.993   2.877  0.3793 -3.5721 -1.2575
  220MOL0     H28995   9.315   7.017   3.051  1.4980  0.5811  1.4290
  220MOL0     H28996   9.261   6.810   2.965  1.0222  4.6033 -2.1494
  220MOL0     H28997   9.382   6.773   3.082 -2.5715 -0.2981  0.8645
  220MOL0     H28998   9.409   6.800   2.763  0.2780  0.9549 -0.4506
  220MOL0     H28999   9.541   6.770   2.860 -1.1128  3.5164  0.3004
  220MOL0     H29000   9.276   6.603   2.848  0.0356 -1.2043  1.6802
  220MOL0     H29001   9.425   6.526   2.902  0.9854 -1.4729 -1.6020
  220MOL0     H29002   9.344   6.586   2.467  2.9005 -0.8918  0.4252
  220MOL0     H29003   9.169   6.438   2.346  0.5113 -0.4816 -0.8041
  220MOL0     H29004   8.853   6.043   2.375  0.0076  1.4486 -0.3798
  220MOL0     H29005   8.716   5.918   2.190  0.2147 -1.0782  1.0892
  220MOL0     H29006   8.834   5.761   1.978  0.5494  1.6858  0.0376
  220MOL0     H29007   8.755   5.773   1.822  1.5489  2.1441 -1.3360
  220MOL0     H29008   8.594   5.756   2.090  2.4276 -1.4700  0.7909
  220MOL0     H29009   8.608   5.625   1.979  0.6750 -1.0835  2.6415
  220MOL0     H29010   8.522   5.787   1.782 -0.2363  2.1195 -0.3345
  220MOL0     H29011   8.457   5.875   1.910  2.3558 -0.2550  0.5403
  220MOL0     H29012   8.403   5.578   1.902 -2.7600 -0.7563  0.8052
  220MOL0     H29013   8.314   5.710   1.987  0.7627  0.2647  0.7104
  220MOL0     H29014   8.340   5.687   1.683  0.8840  0.7272  0.8566
  220MOL0     H29015   8.265   5.816   1.767  0.9519 -0.6867 -1.2743
  220MOL0     H29016   8.116   5.626   1.874  1.9191  0.4859  0.3662
  220MOL0     H29017   8.178   5.527   1.738 -2.1291  0.0160 -0.9306
  220MOL0     H29018   8.111   5.777   1.638  0.1480 -0.1495  0.4182
  220MOL0     H29019   8.038   5.622   1.592 -0.0832  0.8747 -1.7640
  220MOL0     H29020   7.895   5.670   1.828 -1.2855  2.6440  1.1770
  220MOL0     H29021   7.830   5.708   1.677 -1.8445  1.5725  1.3990
  220MOL0     H29022   8.938   6.100   1.870 -3.1403  1.3392 -0.7034
  220MOL0     H29023   9.040   6.258   2.042  0.1999 -1.1700 -2.1337
  220MOL0     H29024   9.199   6.158   2.669  1.6384 -3.0778 -4.4144
  220MOL0     H29025   9.317   6.338   2.815  3.1644  4.0617 -0.2709
  220MOL0     H29026  10.796   7.736   2.939 -1.3970 -0.8980 -0.3764
  220MOL0     H29027  10.927   7.957   2.951  0.2483  0.3737  1.1218
  220MOL0     H29028  10.962   8.398   3.138 -0.8260  1.3460  1.4096
  220MOL0     H29029  11.044   8.616   3.155  1.0905 -2.2837  0.9968
  220MOL0     H29030  11.135   8.953   3.008  1.0952 -1.0673 -3.1815
  220MOL0     H29031  11.161   8.800   3.094  1.0195  0.4789  0.7137
  220MOL0     H29032  10.937   9.008   3.119  1.6672  0.5143 -1.7207
  220MOL0     H29033  10.928   8.851   3.187  0.0106 -0.1918 -1.9757
  220MOL0     H29034  11.189   8.953   3.247 -0.2299 -0.9156 -0.4256
  220MOL0     H29035  11.066   8.930   3.370  1.5827  1.1916  0.5474
  220MOL0     H29036  10.978   9.159   3.267  0.6048  1.6383  1.0402
  220MOL0     H29037  11.082   9.152   3.406  5.4477  3.3347 -1.1205
  220MOL0     H29038  11.310   9.321   3.108  1.1785  1.8911  2.8682
  220MOL0     H29039  10.910   8.699   2.754 -2.5319 -1.4131 -1.2776
  220MOL0     H29040  10.808   8.459   2.751 -0.4226 -1.6651  1.0639
  221MOL0     O29041  11.190  10.817   4.733 -0.6739  0.1395  0.1315
  221MOL0     C29042  11.152  10.925   4.770 -0.0161  0.5788 -1.1866
  221MOL0     O29043  11.235  11.024   4.809 -0.1058 -0.4040  0.7001
  221MOL0     C29044  11.374  11.027   4.788  0.6054  0.8950 -0.9074
  221MOL0     C29045  11.442  11.146   4.782  0.3674 -0.9417 -0.1393
  221MOL0     C29046  11.581  11.147   4.755 -0.1924  0.0640 -0.6532
  221MOL0     C29047  11.657  11.026   4.736  0.7722 -0.6164  0.3142
  221MOL0     O29048  11.771  11.047   4.679  0.4840  0.2685 -0.0825
  221MOL0     C29049  11.839  10.928   4.644  0.1973 -0.0256  0.2580
  221MOL0     C29050  11.988  10.969   4.622  0.3307  0.9362  0.3299
  221MOL0     C29051  12.045  11.095   4.677  0.1364  0.1463 -0.3806
  221MOL0     C29052  12.066  11.104   4.834  0.9200 -0.1476  1.4960
  221MOL0     C29053  12.104  11.247   4.880  0.5464 -0.7011  0.0151
  221MOL0     C29054  11.985  11.347   4.880  0.6163  0.7053 -0.9754
  221MOL0     C29055  12.037  11.476   4.947  0.5204 -1.4371  0.4349
  221MOL0     C29056  11.943  11.592   4.909  0.0310  0.0685  0.1893
  221MOL0     N29057  12.003  11.720   4.952  0.6514 -0.2257 -0.0045
  221MOL0     C29058  12.117  11.774   4.906 -0.0091  0.0670 -0.4482
  221MOL0     C29059  12.116  11.899   4.955  0.5812  0.1773  0.2121
  221MOL0     C29060  12.227  11.993   4.942  0.4187 -0.5994 -0.3611
  221MOL0     C29061  12.278  12.063   5.066 -0.4770 -0.1505 -0.2641
  221MOL0     C29062  12.337  11.969   5.175 -0.3901  0.8863  0.8702
  221MOL0     C29063  12.427  12.046   5.273  0.0756 -1.0513 -0.1780
  221MOL0     O29064  12.532  11.959   5.321 -0.1487 -0.2301  0.5074
  221MOL0     C29065  12.633  12.029   5.380 -1.2425  0.6414 -0.5337
  221MOL0     C29066  12.766  11.982   5.385  0.9355  0.9070  0.9987
  221MOL0     C29067  12.873  12.039   5.448 -0.0146 -0.4758  0.3637
  221MOL0     C29068  12.850  12.165   5.510 -0.5992 -0.9278 -0.0187
  221MOL0     C29069  12.970  12.249   5.562 -0.8556  0.3740  0.8310
  221MOL0     O29070  12.943  12.355   5.641  0.2470  0.4268 -0.3032
  221MOL0     C29071  13.041  12.437   5.687  0.1271 -0.2273  0.1751
  221MOL0     C29072  13.053  12.567   5.641  0.1272  0.0712  0.1439
  221MOL0     C29073  13.162  12.640   5.690 -0.6709  0.2200 -0.0758
  221MOL0     C29074  13.247  12.593   5.784 -0.4309 -0.2648  0.1510
  221MOL0     O29075  13.365  12.649   5.817 -0.3578 -0.0117  0.1625
  221MOL0     C29076  13.366  12.798   5.821 -0.4221  0.3642 -0.2142
  221MOL0     C29077  13.474  12.840   5.917 -1.4075 -0.0616  0.2989
  221MOL0     C29078  13.494  12.998   5.936 -0.2114 -0.5118 -0.0775
  221MOL0     C29079  13.600  13.024   6.037 -0.1994  0.9757 -0.2191
  221MOL0     C29080  13.652  13.165   6.012 -0.3216 -0.3555  0.4167
  221MOL0     C29081  13.740  13.191   5.879 -0.1024  0.2856  0.6406
  221MOL0     C29082  13.805  13.322   5.878 -0.2073  0.4106  0.0603
  221MOL0     C29083  13.803  13.393   5.742  0.2037 -0.5470  0.8763
  221MOL0    Cl29084  13.873  13.303   5.613 -0.3136 -0.3417  0.2846
  221MOL0     C29085  13.233  12.464   5.830  0.1226 -0.0663  0.3492
  221MOL0     C29086  13.126  12.388   5.784 -0.2198  0.3912  0.0116
  221MOL0     O29087  13.087  12.222   5.518  0.0835  1.2951 -0.9833
  221MOL0     C29088  12.715  12.218   5.515 -0.5801 -0.0190 -0.3481
  221MOL0     C29089  12.607  12.154   5.453  0.4223 -0.0793 -0.3947
  221MOL0     N29090  12.016  11.917   5.048  0.2062  0.1693  0.3689
  221MOL0     N29091  11.942  11.815   5.025  0.7116 -0.0317  0.3022
  221MOL0     C29092  11.581  10.910   4.758 -0.6931 -0.3115  0.4166
  221MOL0     C29093  11.446  10.908   4.794  1.0309  0.7162  0.1151
  221MOL0     C29094  11.005  10.936   4.787  0.5604  0.1723 -0.4611
  221MOL0     C29095  10.952  11.052   4.844 -0.5657  0.2919 -0.9274
  221MOL0     C29096  10.811  11.055   4.863 -0.5960 -0.3990 -0.4113
  221MOL0     C29097  10.725  10.954   4.815  0.2304 -0.1327 -0.2948
  221MOL0     O29098  10.588  10.962   4.833  0.1020 -0.0208  0.2928
  221MOL0     C29099  10.525  10.852   4.911 -0.7876 -0.4278  0.0428
  221MOL0     C29100  10.388  10.820   4.853  0.1853 -0.9856  0.3445
  221MOL0     C29101  10.390  10.795   4.698 -0.1344 -0.1359  0.9895
  221MOL0     C29102  10.247  10.798   4.647 -0.3110 -0.9598  0.7725
  221MOL0     C29103  10.160  10.684   4.663 -0.1561  0.2831  0.7241
  221MOL0     C29104  10.100  10.579   4.685  0.9424 -0.4777  0.1407
  221MOL0     C29105  10.779  10.840   4.759  0.8210  0.3019 -0.4696
  221MOL0     C29106  10.925  10.828   4.750  0.8166  0.4889  0.0584
  221MOL0     H29107  11.383  11.237   4.792  0.9961 -0.5631  0.2756
  221MOL0     H29108  11.639  11.238   4.740 -2.0953  2.1246  3.1480
  221MOL0     H29109  11.802  10.874   4.557  0.9445  0.4693 -0.3759
  221MOL0     H29110  11.832  10.867   4.735 -1.4743  0.0195  0.1945
  221MOL0     H29111  12.017  10.955   4.517  2.3700  0.8386  0.8609
  221MOL0     H29112  12.041  10.890   4.678 -1.1367 -1.6063 -1.6273
  221MOL0     H29113  11.982  11.177   4.641 -1.8487 -1.2323 -0.1781
  221MOL0     H29114  12.144  11.107   4.631 -0.3976  2.7109 -1.0328
  221MOL0     H29115  11.977  11.073   4.889  1.1415  0.0500  1.9704
  221MOL0     H29116  12.142  11.031   4.863 -1.1557 -2.1073  2.3680
  221MOL0     H29117  12.182  11.281   4.812 -0.0802 -1.1635 -0.9461
  221MOL0     H29118  12.155  11.246   4.977  1.2031 -1.2115 -0.3237
  221MOL0     H29119  11.907  11.302   4.943  1.7743 -0.8720 -0.6114
  221MOL0     H29120  11.954  11.371   4.778  0.1428  2.5512 -0.4515
  221MOL0     H29121  12.035  11.472   5.056  1.2183 -2.0388  0.4369
  221MOL0     H29122  12.136  11.504   4.910 -0.9100 -1.8657 -4.5904
  221MOL0     H29123  11.845  11.571   4.952  0.0131 -0.4983 -0.1202
  221MOL0     H29124  11.930  11.589   4.800  1.0260 -0.3423  0.0631
  221MOL0     H29125  12.203  11.730   4.856  1.4885  3.4198 -1.1350
  221MOL0     H29126  12.202  12.068   4.866  3.0577  1.4069  0.5652
  221MOL0     H29127  12.312  11.943   4.894 -0.9159 -0.4079 -3.1041
  221MOL0     H29128  12.201  12.123   5.115 -0.7932  1.1154 -2.2023
  221MOL0     H29129  12.352  12.139   5.040 -1.0598  1.4182  2.2361
  221MOL0     H29130  12.252  11.924   5.227  0.5456 -1.1351  0.7272
  221MOL0     H29131  12.408  11.905   5.121 -0.9427 -0.4093  1.6261
  221MOL0     H29132  12.372  12.094   5.355  0.7871  0.0029 -0.2905
  221MOL0     H29133  12.480  12.130   5.226  1.1391 -1.8581 -0.4498
  221MOL0     H29134  12.766  11.882   5.344 -0.3097  0.1169  2.7745
  221MOL0     H29135  12.974  12.000   5.440 -0.3854 -1.0246 -3.7060
  221MOL0     H29136  12.988  12.604   5.563 -1.8718 -4.4763 -0.7067
  221MOL0     H29137  13.177  12.737   5.643  0.0263  1.5557  2.6960
  221MOL0     H29138  13.270  12.830   5.863 -0.8118  0.5577 -1.2214
  221MOL0     H29139  13.381  12.837   5.720 -0.5292 -0.2955 -0.4923
  221MOL0     H29140  13.567  12.802   5.874 -1.8098  1.2308 -1.8091
  221MOL0     H29141  13.461  12.790   6.014 -0.5999  0.1204  0.5073
  221MOL0     H29142  13.406  13.048   5.979 -0.4652  0.7931 -1.9431
  221MOL0     H29143  13.508  13.042   5.837 -0.0004  1.2403  0.6965
  221MOL0     H29144  13.548  13.010   6.133  0.2908 -1.6854 -0.2729
  221MOL0     H29145  13.684  12.955   6.036 -0.9619 -0.0032 -1.8523
  221MOL0     H29146  13.713  13.194   6.098 -1.1693  2.5944  0.1465
  221MOL0     H29147  13.562  13.227   6.009 -0.2907 -0.2782  1.0433
  221MOL0     H29148  13.672  13.178   5.794  2.1486  0.2628 -1.2580
  221MOL0     H29149  13.819  13.119   5.853  0.4422  0.4178  1.8576
  221MOL0     H29150  13.758  13.396   5.944 -2.7268 -0.5161 -0.5892
  221MOL0     H29151  13.911  13.313   5.903  0.8645  3.7838 -2.6515
  221MOL0     H29152  13.861  13.486   5.744 -1.7315  0.8920 -2.1494
  221MOL0     H29153  13.705  13.433   5.714  0.4383 -1.6356 -1.6896
  221MOL0     H29154  13.302  12.429   5.907 -0.5668 -1.4386  0.3563
  221MOL0     H29155  13.105  12.294   5.834  1.9757 -0.0978  0.1163
  221MOL0     H29156  12.690  12.304   5.576  1.0394 -0.9883  1.8197
  221MOL0     H29157  12.514  12.205   5.476  2.3931  2.7151  2.1504
  221MOL0     H29158  11.630  10.814   4.755  1.9048  0.9503 -2.2221
  221MOL0     H29159  11.395  10.818   4.828 -0.9559  2.1101  1.0363
  221MOL0     H29160  11.018  11.131   4.880 -0.7257  0.6987 -1.5192
  221MOL0     H29161  10.769  11.145   4.908  0.1805 -0.1681 -0.1278
  221MOL0     H29162  10.503  10.905   5.004  2.0283  1.1686 -0.0869
  221MOL0     H29163  10.590  10.767   4.929 -1.7222 -0.8320  1.7392
  221MOL0     H29164  10.344  10.747   4.920  2.3777  0.7697  4.0424
  221MOL0     H29165  10.332  10.912   4.875  0.5569 -1.1111  1.9704
  221MOL0     H29166  10.425  10.694   4.674  1.0413 -0.1681  2.6996
  221MOL0     H29167  10.451  10.869   4.646  0.4980 -0.9305  0.5807
  221MOL0     H29168  10.192  10.880   4.692 -0.0143  0.9935 -2.1861
  221MOL0     H29169  10.256  10.819   4.540 -2.2686 -2.4504  0.2628
  221MOL0     H29170  10.053  10.492   4.728  2.1818  0.3951  3.6136
  221MOL0     H29171  10.715  10.760   4.725  0.2252  0.7815 -0.5014
  221MOL0     H29172  10.967  10.738   4.706 -1.9942 -1.7254  1.6159
  222MOL0     O29173   1.111   3.436   3.627  0.0157  0.1988 -0.2394
  222MOL0     C29174   1.019   3.509   3.655 -1.2610  0.6584  0.4320
  222MOL0     O29175   0.983   3.612   3.578  0.3389  0.1666 -0.2060
  222MOL0     C29176   1.042   3.619   3.449  0.2595  0.6654  0.1008
  222MOL0     C29177   0.968   3.607   3.336  0.4648 -0.4683 -0.4924
  222MOL0     C29178   1.022   3.623   3.206 -0.0360  0.9440 -0.1817
  222MOL0     C29179   1.153   3.644   3.178 -0.0347 -0.6996 -0.6983
  222MOL0     O29180   1.203   3.654   3.053  0.3514  0.4362 -0.1352
  222MOL0     C29181   1.328   3.712   3.040 -0.2533  0.1122  0.0794
  222MOL0     C29182   1.423   3.599   2.988  0.5179 -0.5968 -0.1505
  222MOL0     C29183   1.551   3.657   2.962 -0.1306  0.7075  0.4552
  222MOL0     C29184   1.544   3.748   2.848 -0.1499 -0.4820  0.4237
  222MOL0     C29185   1.679   3.776   2.791 -0.2240  0.6799 -0.7171
  222MOL0     C29186   1.680   3.813   2.648  0.1014 -0.2303  0.0765
  222MOL0     C29187   1.818   3.818   2.587  0.9016  0.0804  0.6305
  222MOL0     C29188   1.903   3.945   2.633  0.6396  0.0557  0.3415
  222MOL0     N29189   2.038   3.958   2.580  0.3209  0.8181 -0.2119
  222MOL0     C29190   2.122   3.851   2.557  0.3056 -0.1170 -0.9270
  222MOL0     C29191   2.228   3.913   2.514  0.0084  0.1681 -0.4369
  222MOL0     C29192   2.348   3.841   2.455 -0.3341 -0.5831  0.2061
  222MOL0     C29193   2.326   3.779   2.314 -0.3714  0.1274 -0.2795
  222MOL0     C29194   2.207   3.680   2.304  0.2903  0.3569 -0.1086
  222MOL0     C29195   2.189   3.646   2.171  0.7806 -0.1590  0.2673
  222MOL0     O29196   2.290   3.553   2.133  0.2712 -0.0639 -1.2761
  222MOL0     C29197   2.385   3.599   2.035  0.5073  0.9714 -0.0768
  222MOL0     C29198   2.470   3.502   1.986  0.2981 -0.6970 -0.2086
  222MOL0     C29199   2.566   3.531   1.883 -0.1137  0.1588 -0.0515
  222MOL0     C29200   2.581   3.665   1.833  0.1328  0.2857 -0.2151
  222MOL0     C29201   2.688   3.697   1.733  0.7656  1.1476 -0.2592
  222MOL0     O29202   2.776   3.603   1.698 -0.1418  0.2821  0.4145
  222MOL0     C29203   2.862   3.626   1.594  0.2676  0.2215  0.0597
  222MOL0     C29204   2.834   3.580   1.468  0.2870 -0.0726  1.0792
  222MOL0     C29205   2.928   3.609   1.367  0.2832  0.0513 -0.0630
  222MOL0     C29206   3.045   3.686   1.390  0.9641  0.2175  0.8845
  222MOL0     O29207   3.139   3.726   1.294 -0.1479  0.4118 -0.6241
  222MOL0     C29208   3.118   3.724   1.150 -0.2689 -0.3774 -0.3234
  222MOL0     C29209   3.209   3.818   1.076  0.0131 -0.3925  0.2427
  222MOL0     C29210   3.230   3.958   1.134  0.2104  0.9236 -0.0541
  222MOL0     C29211   3.328   4.058   1.060 -0.4027 -0.3435 -0.7513
  222MOL0     C29212   3.321   4.192   1.133  0.0674  0.9953  0.7434
  222MOL0     C29213   3.456   4.275   1.113  0.5824 -0.2002  0.2911
  222MOL0     C29214   3.443   4.417   1.174  0.6634 -0.0657 -1.4019
  222MOL0     C29215   3.548   4.512   1.115 -0.0790  0.2550 -0.3727
  222MOL0    Cl29216   3.503   4.554   0.941  0.1499 -0.6178  0.3871
  222MOL0     C29217   3.068   3.727   1.518 -0.2402  0.0132 -1.0512
  222MOL0     C29218   2.981   3.696   1.626 -0.1309 -0.0386  0.3712
  222MOL0     O29219   2.685   3.813   1.686 -0.6705 -0.4309 -0.1776
  222MOL0     C29220   2.493   3.767   1.887  0.9180  0.3274 -0.0053
  222MOL0     C29221   2.396   3.728   1.985 -0.8533  0.2470  0.1215
  222MOL0     N29222   2.205   4.049   2.498 -0.4644 -0.1780  0.0464
  222MOL0     N29223   2.090   4.078   2.547  0.0971 -0.3365  0.6682
  222MOL0     C29224   1.233   3.648   3.294  0.8707 -0.0400 -0.0622
  222MOL0     C29225   1.174   3.653   3.426  0.1198 -0.5246  0.3306
  222MOL0     C29226   0.945   3.490   3.767 -0.4339  1.4996  0.0231
  222MOL0     C29227   0.942   3.377   3.841 -1.0558  1.2172 -0.5699
  222MOL0     C29228   0.866   3.364   3.954 -0.5994  0.2547  0.6233
  222MOL0     C29229   0.771   3.453   3.985 -0.4337 -0.3660 -0.5809
  222MOL0     O29230   0.700   3.466   4.102 -0.0005  0.0070 -0.5653
  222MOL0     C29231   0.674   3.346   4.179 -0.9168 -0.4587 -0.1511
  222MOL0     C29232   0.775   3.324   4.296 -0.2165 -1.1274  0.0580
  222MOL0     C29233   0.792   3.180   4.357 -0.1124  0.2386  0.0826
  222MOL0     C29234   0.675   3.080   4.344 -0.6812 -0.0675  1.0527
  222MOL0     C29235   0.711   2.955   4.397 -0.2277 -0.4089 -0.1329
  222MOL0     C29236   0.722   2.842   4.444 -0.4160 -0.0950  0.0259
  222MOL0     C29237   0.754   3.560   3.897  0.0487 -0.2954 -1.0004
  222MOL0     C29238   0.849   3.590   3.797 -0.4491  0.0260 -0.0155
  222MOL0     H29239   0.863   3.589   3.356  0.2989 -0.7073 -1.5310
  222MOL0     H29240   0.966   3.593   3.118 -1.5758 -1.6797  1.5410
  222MOL0     H29241   1.369   3.754   3.132 -1.5201 -0.3941  0.8970
  222MOL0     H29242   1.308   3.791   2.967 -1.5930  0.2217  0.5462
  222MOL0     H29243   1.403   3.551   2.892  5.4519  0.3034 -1.9187
  222MOL0     H29244   1.418   3.525   3.068 -1.6668  0.1173  0.4327
  222MOL0     H29245   1.618   3.573   2.940 -1.1595 -0.6768  2.3279
  222MOL0     H29246   1.596   3.708   3.047 -0.7506  0.2608  1.0590
  222MOL0     H29247   1.486   3.714   2.761 -0.1913  4.3469 -1.7724
  222MOL0     H29248   1.506   3.846   2.876 -0.1019 -0.4201  0.2724
  222MOL0     H29249   1.749   3.692   2.796  0.5197  1.2772  3.8372
  222MOL0     H29250   1.726   3.860   2.842  0.4379  0.9127 -1.6868
  222MOL0     H29251   1.627   3.907   2.636 -1.3094 -0.5304  3.0543
  222MOL0     H29252   1.622   3.735   2.597 -0.2129 -1.5337  2.2789
  222MOL0     H29253   1.860   3.718   2.606 -1.1612 -0.8416  0.5915
  222MOL0     H29254   1.799   3.831   2.480 -2.0310  2.6234  1.3329
  222MOL0     H29255   1.906   3.945   2.743 -2.0491  2.1907  0.5224
  222MOL0     H29256   1.843   4.034   2.614 -1.8882 -2.0279 -2.2046
  222MOL0     H29257   2.090   3.751   2.585 -2.5713  0.7575 -0.7294
  222MOL0     H29258   2.366   3.754   2.518  1.1348 -0.0331  0.5931
  222MOL0     H29259   2.430   3.914   2.454 -1.1565  0.3548 -0.7146
  222MOL0     H29260   2.421   3.739   2.276  0.6822  1.9122  0.3498
  222MOL0     H29261   2.307   3.866   2.250 -1.1368 -0.0791 -0.3410
  222MOL0     H29262   2.224   3.586   2.356  1.7165  1.0382  0.7201
  222MOL0     H29263   2.115   3.720   2.349 -1.9360 -3.3941 -0.8994
  222MOL0     H29264   2.172   3.731   2.106 -1.2119 -1.6762 -1.3460
  222MOL0     H29265   2.098   3.588   2.149  1.9411 -2.7053  1.6291
  222MOL0     H29266   2.456   3.399   2.019  1.5077 -0.1700  2.1057
  222MOL0     H29267   2.636   3.456   1.851  1.4947  1.0892  1.1011
  222MOL0     H29268   2.751   3.514   1.443  2.3226 -1.5072 -2.6864
  222MOL0     H29269   2.904   3.569   1.269  2.4154  1.9678 -1.4697
  222MOL0     H29270   3.019   3.764   1.129 -0.1666 -0.6443 -1.3750
  222MOL0     H29271   3.124   3.622   1.110 -2.1682 -1.3254  1.5895
  222MOL0     H29272   3.170   3.822   0.974 -2.1544 -2.3572  0.8905
  222MOL0     H29273   3.295   3.751   1.071 -0.9616 -1.6326 -0.2930
  222MOL0     H29274   3.259   3.956   1.239  1.6570 -1.4655 -0.4248
  222MOL0     H29275   3.131   4.005   1.131 -0.3396 -0.2639 -1.1364
  222MOL0     H29276   3.418   4.010   1.098 -1.0038  1.5833  3.6599
  222MOL0     H29277   3.309   4.063   0.952 -2.5692 -2.5557 -0.5586
  222MOL0     H29278   3.306   4.175   1.240  1.2132  2.7154  1.2293
  222MOL0     H29279   3.243   4.260   1.097 -1.2859  0.4797  2.5926
  222MOL0     H29280   3.476   4.291   1.007 -2.3091 -1.4767 -0.5459
  222MOL0     H29281   3.536   4.224   1.167 -1.1606 -2.3251  0.9981
  222MOL0     H29282   3.343   4.460   1.186  2.2838  3.4972  1.5654
  222MOL0     H29283   3.475   4.397   1.277  1.1983 -0.7937 -1.7019
  222MOL0     H29284   3.647   4.469   1.132 -1.0233 -0.6008  4.3022
  222MOL0     H29285   3.550   4.605   1.173 -3.9427  0.6586 -0.6760
  222MOL0     H29286   3.149   3.795   1.543 -2.0099  0.9354  2.8956
  222MOL0     H29287   3.005   3.732   1.725  1.9264  2.2598 -0.8353
  222MOL0     H29288   2.492   3.873   1.867 -1.9685  0.7899  2.0477
  222MOL0     H29289   2.332   3.812   2.012 -1.9625 -0.6188  0.2536
  222MOL0     H29290   1.341   3.645   3.311  0.5407 -0.1691  2.5308
  222MOL0     H29291   1.243   3.681   3.505  0.8858  4.8580 -1.7940
  222MOL0     H29292   1.020   3.302   3.827 -1.0159  1.3158 -0.8761
  222MOL0     H29293   0.881   3.283   4.025  0.2617 -0.4602 -0.3344
  222MOL0     H29294   0.676   3.256   4.116 -4.5722 -0.7045 -0.1486
  222MOL0     H29295   0.569   3.355   4.209 -1.4910  1.6824 -2.4340
  222MOL0     H29296   0.872   3.347   4.251 -0.3435 -3.7277 -1.7398
  222MOL0     H29297   0.754   3.402   4.370 -0.4814 -1.6063  0.4881
  222MOL0     H29298   0.829   3.178   4.460 -0.3101 -0.5725  0.1471
  222MOL0     H29299   0.877   3.131   4.310 -1.1638 -3.2829  1.4797
  222MOL0     H29300   0.582   3.111   4.392 -0.6983  1.3440  0.1375
  222MOL0     H29301   0.664   3.068   4.236  0.0004 -0.5110  1.0249
  222MOL0     H29302   0.729   2.742   4.483  1.3391 -1.7284 -3.9359
  222MOL0     H29303   0.670   3.626   3.917  2.2432  1.9047  1.9399
  222MOL0     H29304   0.835   3.686   3.749  1.5438  1.5458  2.1739
  223MOL0     O29305   3.539   5.056   7.919  0.3861  0.1919 -0.3439
  223MOL0     C29306   3.427   5.009   7.909 -0.0347 -0.7448 -0.3585
  223MOL0     O29307   3.388   4.871   7.926  0.2147  0.7194 -0.0446
  223MOL0     C29308   3.497   4.793   7.946 -0.4460 -0.3700  0.6632
  223MOL0     C29309   3.525   4.697   7.847 -0.2972  0.0767 -0.1598
  223MOL0     C29310   3.640   4.620   7.852  0.4987  0.9025  0.6219
  223MOL0     C29311   3.711   4.626   7.973  1.0901  1.1964  0.0040
  223MOL0     O29312   3.815   4.534   7.987  0.6162 -0.4642  0.5859
  223MOL0     C29313   3.780   4.397   7.952  0.7846  0.1894  0.0071
  223MOL0     C29314   3.853   4.295   8.039 -1.4664  0.0919  0.3571
  223MOL0     C29315   4.006   4.334   8.017 -0.0401  0.5530  0.0846
  223MOL0     C29316   4.093   4.240   8.099  0.6688 -0.4393 -0.0651
  223MOL0     C29317   4.241   4.265   8.060  0.6699  0.7683 -0.0370
  223MOL0     C29318   4.343   4.151   8.100  0.8796  0.5275 -0.1088
  223MOL0     C29319   4.487   4.184   8.070  0.4589  0.1440  0.3085
  223MOL0     C29320   4.543   4.237   8.199  0.1093 -1.0061  0.8361
  223MOL0     N29321   4.661   4.321   8.173  0.4692 -0.5118 -0.9078
  223MOL0     C29322   4.785   4.290   8.122 -0.8489  1.0645  0.1581
  223MOL0     C29323   4.865   4.404   8.142 -0.4832 -0.8577 -0.3661
  223MOL0     C29324   5.015   4.412   8.132  0.2422 -0.2343  0.8961
  223MOL0     C29325   5.075   4.553   8.146 -0.0319 -0.0822  0.0027
  223MOL0     C29326   5.035   4.659   8.038 -0.9328  0.4308 -0.1792
  223MOL0     C29327   5.139   4.777   8.049  0.1642 -0.5421  0.2122
  223MOL0     O29328   5.277   4.749   7.991  0.6223 -0.5923  0.4755
  223MOL0     C29329   5.382   4.823   8.045  0.3639 -0.6382 -0.0931
  223MOL0     C29330   5.426   4.803   8.169 -0.5548 -0.0442  0.5149
  223MOL0     C29331   5.525   4.878   8.227  0.0419 -0.0334  0.0134
  223MOL0     C29332   5.582   4.982   8.159 -0.8356 -0.1285  0.3302
  223MOL0     C29333   5.699   5.061   8.204 -1.2455  0.2805  0.2857
  223MOL0     O29334   5.682   5.090   8.337  0.0078 -0.6808 -0.2690
  223MOL0     C29335   5.770   5.148   8.416 -0.4407  0.4392 -1.4011
  223MOL0     C29336   5.824   5.276   8.390 -0.2286  0.0303  0.2681
  223MOL0     C29337   5.907   5.339   8.472  0.1458  0.3457 -0.6019
  223MOL0     C29338   5.953   5.268   8.585 -0.1767  0.3824  0.3498
  223MOL0     O29339   6.043   5.324   8.666  0.6813  0.3628 -0.0140
  223MOL0     C29340   6.179   5.343   8.614 -0.4544 -0.9535 -0.0577
  223MOL0     C29341   6.267   5.379   8.723 -0.4644 -0.4265  0.1618
  223MOL0     C29342   6.251   5.289   8.849  0.5406 -0.2616 -0.4338
  223MOL0     C29343   6.361   5.332   8.946  0.9191  0.3752 -0.5167
  223MOL0     C29344   6.363   5.248   9.075 -0.0941 -0.7080 -0.3136
  223MOL0     C29345   6.441   5.316   9.185  0.5214 -0.7652  0.1772
  223MOL0     C29346   6.440   5.229   9.306  0.0569  0.5537  0.5426
  223MOL0     C29347   6.470   5.308   9.433 -0.2513  0.2386 -0.5826
  223MOL0    Cl29348   6.478   5.199   9.577 -0.4108  0.7442 -0.0006
  223MOL0     C29349   5.905   5.142   8.621 -0.0901 -0.4495  0.0487
  223MOL0     C29350   5.811   5.081   8.532 -0.2206  0.1839 -1.3091
  223MOL0     O29351   5.796   5.096   8.135  0.4329  1.1188  0.2486
  223MOL0     C29352   5.550   5.001   8.020 -0.1607  0.0517 -0.4238
  223MOL0     C29353   5.448   4.928   7.969  0.4130  0.3797 -0.2970
  223MOL0     N29354   4.783   4.495   8.208  0.0354  0.1777 -0.2430
  223MOL0     N29355   4.664   4.450   8.222 -0.3565  0.8961  0.0437
  223MOL0     C29356   3.682   4.711   8.070 -0.0801 -0.5170 -0.6226
  223MOL0     C29357   3.581   4.800   8.056  0.3922  0.4232 -0.4912
  223MOL0     C29358   3.322   5.109   7.863  0.0999 -0.7091  0.0349
  223MOL0     C29359   3.351   5.245   7.836 -0.5278 -0.8437 -0.5561
  223MOL0     C29360   3.248   5.329   7.779 -0.6080 -0.5365  0.2342
  223MOL0     C29361   3.116   5.280   7.756  0.0435  0.4959  0.6566
  223MOL0     O29362   3.003   5.342   7.708 -0.0977  0.5051 -0.1413
  223MOL0     C29363   3.016   5.486   7.703 -0.4272  0.3732 -0.5867
  223MOL0     C29364   2.882   5.550   7.714  0.0366 -0.0655 -0.3398
  223MOL0     C29365   2.897   5.704   7.705 -0.5087  0.4618 -0.6929
  223MOL0     C29366   2.913   5.760   7.571 -0.6376 -0.4974  0.1652
  223MOL0     C29367   2.808   5.719   7.475  0.7069  0.5479 -0.7128
  223MOL0     C29368   2.723   5.689   7.390 -0.2486 -0.0691  0.0612
  223MOL0     C29369   3.095   5.138   7.769 -0.4491 -0.4593 -0.1150
  223MOL0     C29370   3.198   5.055   7.824 -0.7801 -1.0146 -0.6434
  223MOL0     H29371   3.467   4.689   7.756  0.0657 -3.5982 -0.2014
  223MOL0     H29372   3.673   4.560   7.767 -0.8764 -0.9966  1.3738
  223MOL0     H29373   3.807   4.364   7.851 -0.7332 -1.1806  0.0043
  223MOL0     H29374   3.674   4.371   7.961  1.2353 -1.3414  1.3987
  223MOL0     H29375   3.823   4.190   8.030 -1.6836  0.0147  1.7298
  223MOL0     H29376   3.821   4.315   8.141  0.1063 -1.3117  1.1903
  223MOL0     H29377   4.016   4.440   8.042  0.6827  1.1093 -2.2928
  223MOL0     H29378   4.038   4.313   7.915 -1.6970  0.0468 -0.3621
  223MOL0     H29379   4.083   4.268   8.205  0.8348  3.5307 -0.9475
  223MOL0     H29380   4.046   4.142   8.090 -0.2015 -0.1534  1.0876
  223MOL0     H29381   4.253   4.363   8.106 -3.5539  1.1438  0.6437
  223MOL0     H29382   4.247   4.282   7.952  1.2420 -1.5089 -0.4231
  223MOL0     H29383   4.304   4.064   8.047 -0.1105  0.3557  0.8457
  223MOL0     H29384   4.332   4.120   8.205  2.2799  0.1771 -0.0481
  223MOL0     H29385   4.546   4.099   8.036  2.2299  0.4204  2.4855
  223MOL0     H29386   4.499   4.255   7.987 -0.7304  0.2435  0.2004
  223MOL0     H29387   4.597   4.156   8.250  2.9531  0.5791  0.4975
  223MOL0     H29388   4.461   4.277   8.259 -1.3120 -2.0556 -0.3082
  223MOL0     H29389   4.816   4.195   8.080  0.6542  0.9293  1.4612
  223MOL0     H29390   5.047   4.363   8.039  2.3389 -0.0269  1.4742
  223MOL0     H29391   5.046   4.344   8.212 -1.1913 -2.0780 -0.0305
  223MOL0     H29392   5.184   4.558   8.147  0.1332 -2.3504 -0.3544
  223MOL0     H29393   5.030   4.587   8.240 -0.3909 -0.9489  0.1607
  223MOL0     H29394   5.032   4.629   7.933 -0.7932  1.5759 -0.5256
  223MOL0     H29395   4.937   4.699   8.066 -0.9889 -0.0244  0.2924
  223MOL0     H29396   5.146   4.806   8.154 -0.8975 -0.0805  0.1716
  223MOL0     H29397   5.096   4.869   8.008 -2.8714 -2.3261 -0.9517
  223MOL0     H29398   5.399   4.715   8.227 -1.3766  0.1849  0.4925
  223MOL0     H29399   5.557   4.857   8.329  1.1396 -0.1443 -0.3426
  223MOL0     H29400   5.804   5.321   8.293  0.0114 -0.1272  0.1455
  223MOL0     H29401   5.941   5.441   8.459  2.9977 -0.3610  0.5267
  223MOL0     H29402   6.178   5.420   8.537 -1.8281 -0.2994  0.5648
  223MOL0     H29403   6.223   5.259   8.560  3.6827  0.9379  0.0404
  223MOL0     H29404   6.299   5.476   8.760  1.3907 -1.1465  0.5344
  223MOL0     H29405   6.362   5.333   8.695 -0.9479 -3.7437  3.1872
  223MOL0     H29406   6.269   5.185   8.822  2.2192 -0.4043  1.0527
  223MOL0     H29407   6.154   5.305   8.897  0.7157 -3.1906  1.1022
  223MOL0     H29408   6.458   5.312   8.901  1.9447  2.1100  0.7675
  223MOL0     H29409   6.359   5.440   8.966 -0.0043 -0.2124  3.4594
  223MOL0     H29410   6.399   5.146   9.058  0.2377 -0.4743 -1.0642
  223MOL0     H29411   6.259   5.235   9.106  0.0016  0.2423  0.4382
  223MOL0     H29412   6.415   5.418   9.217  0.3802 -0.2351 -1.5339
  223MOL0     H29413   6.545   5.339   9.160  0.5678  2.9564  2.8604
  223MOL0     H29414   6.337   5.194   9.317 -0.6935  2.4534 -0.0182
  223MOL0     H29415   6.507   5.143   9.303  0.8889  0.7633  5.3133
  223MOL0     H29416   6.394   5.383   9.455 -2.0560 -0.6953 -3.2083
  223MOL0     H29417   6.566   5.352   9.405  0.3496 -0.0531  0.9005
  223MOL0     H29418   5.936   5.071   8.697 -0.8011 -0.1289  0.6568
  223MOL0     H29419   5.777   4.982   8.560 -2.2958  0.5855 -2.2892
  223MOL0     H29420   5.593   5.091   7.977 -2.0946  0.4607 -1.6374
  223MOL0     H29421   5.405   4.948   7.871 -2.5342  1.0901  1.0393
  223MOL0     H29422   3.740   4.720   8.161 -1.2114  1.5351 -0.0375
  223MOL0     H29423   3.579   4.880   8.129  0.7646  0.0597 -0.0822
  223MOL0     H29424   3.444   5.287   7.873 -0.5972 -2.5965  1.8894
  223MOL0     H29425   3.276   5.433   7.767 -0.9193 -0.1974  2.1055
  223MOL0     H29426   3.068   5.525   7.615  0.0011  2.2097  0.4255
  223MOL0     H29427   3.068   5.518   7.794  0.5428 -1.8110 -0.3273
  223MOL0     H29428   2.820   5.505   7.636  0.3119  1.6222 -1.5680
  223MOL0     H29429   2.832   5.528   7.809 -4.2211 -1.2036 -2.6023
  223MOL0     H29430   2.977   5.722   7.776 -0.5314 -3.3715  0.5323
  223MOL0     H29431   2.802   5.749   7.735 -0.6916  0.0382 -0.6269
  223MOL0     H29432   2.914   5.869   7.579 -1.4721 -0.4993  0.4638
  223MOL0     H29433   3.012   5.728   7.538  0.2375  0.5933  1.6078
  223MOL0     H29434   2.670   5.664   7.301  1.1295 -2.5915 -0.1499
  223MOL0     H29435   3.009   5.102   7.714  0.9370 -0.7904 -2.1703
  223MOL0     H29436   3.184   4.947   7.823  2.8323 -1.6189  0.1048
  224MOL0     O29437   0.905   4.678   9.001  0.1307 -0.1618  0.8347
  224MOL0     C29438   0.888   4.559   8.990  0.4900 -0.5791 -0.0631
  224MOL0     O29439   0.964   4.473   8.911 -0.0740 -0.0494 -0.7027
  224MOL0     C29440   1.092   4.528   8.893  0.2843  0.5638 -0.4610
  224MOL0     C29441   1.213   4.478   8.955  0.3810 -0.7507  0.5462
  224MOL0     C29442   1.329   4.553   8.945  0.8392 -0.2657 -0.8769
  224MOL0     C29443   1.339   4.669   8.864  0.1156 -0.2235 -0.2457
  224MOL0     O29444   1.464   4.727   8.849 -0.4040  0.3653  0.2941
  224MOL0     C29445   1.470   4.861   8.816  1.0308 -0.3863  1.5768
  224MOL0     C29446   1.601   4.920   8.862  0.4811 -0.4832  0.4256
  224MOL0     C29447   1.625   5.072   8.842  0.1446 -0.5025  0.0816
  224MOL0     C29448   1.549   5.161   8.937  0.5539 -0.4214  0.3466
  224MOL0     C29449   1.589   5.306   8.902  0.0213  0.5081  0.3338
  224MOL0     C29450   1.538   5.420   8.988 -0.1847 -0.7079  0.4931
  224MOL0     C29451   1.385   5.418   8.984  0.2464 -0.6080 -0.2800
  224MOL0     C29452   1.325   5.545   9.046  1.0062  0.7995 -0.5542
  224MOL0     N29453   1.225   5.613   8.971  0.4380 -0.3473 -0.6657
  224MOL0     C29454   1.084   5.625   9.014  0.1589 -0.1495  0.2709
  224MOL0     C29455   1.034   5.727   8.935 -0.6762  1.1152 -0.3596
  224MOL0     C29456   0.899   5.774   8.941 -0.1602 -0.2165  0.2566
  224MOL0     C29457   0.893   5.918   8.984 -1.2883 -0.2728  0.7014
  224MOL0     C29458   0.773   6.009   8.952 -0.1301  0.7510  0.4743
  224MOL0     C29459   0.791   6.165   8.981  0.1999  0.4616 -0.2514
  224MOL0     O29460   0.778   6.180   9.124 -0.5983  0.8204 -0.2864
  224MOL0     C29461   0.747   6.303   9.168 -0.0490  0.3727  0.5631
  224MOL0     C29462   0.666   6.309   9.275  0.8522 -0.0149  0.7648
  224MOL0     C29463   0.638   6.433   9.340 -0.6019  0.0957  0.0004
  224MOL0     C29464   0.694   6.546   9.298 -0.2755 -1.1162  0.0058
  224MOL0     C29465   0.654   6.674   9.361 -0.2747  0.8087  0.2193
  224MOL0     O29466   0.580   6.670   9.475 -0.6871 -0.7612  0.8057
  224MOL0     C29467   0.534   6.780   9.545 -0.0818 -0.2442  0.1549
  224MOL0     C29468   0.481   6.896   9.481 -0.3325  0.7952  0.8748
  224MOL0     C29469   0.440   6.997   9.560  0.4093 -0.5324 -0.4937
  224MOL0     C29470   0.446   6.998   9.702  0.2933 -0.6960 -0.7098
  224MOL0     O29471   0.386   7.096   9.774 -0.6028  0.1000 -0.0465
  224MOL0     C29472   0.427   7.121   9.910 -0.1301  0.1830 -0.6391
  224MOL0     C29473   0.333   7.235   9.972 -0.6482 -0.6608  0.3110
  224MOL0     C29474   0.188   7.206  10.010  0.1162 -0.4950 -0.0432
  224MOL0     C29475   0.160   7.082  10.093  1.0477  0.4635  0.1308
  224MOL0     C29476   0.220   7.100  10.232 -0.4081  0.3872  0.6304
  224MOL0     C29477   0.135   7.036  10.346  0.5141  0.0644  0.9872
  224MOL0     C29478   0.006   7.103  10.377  0.3309 -0.3946  0.1847
  224MOL0     C29479   0.022   7.257  10.404 -0.8093  0.7354  0.6523
  224MOL0    Cl29480   0.122   7.302  10.536  0.3990  0.0168 -0.5326
  224MOL0     C29481   0.506   6.887   9.769  0.0080  0.1028  0.6398
  224MOL0     C29482   0.552   6.782   9.689  0.5670  0.1393  0.6369
  224MOL0     O29483   0.697   6.774   9.307 -0.3908 -0.8373  0.0485
  224MOL0     C29484   0.777   6.547   9.194 -0.2687 -0.1385  1.0579
  224MOL0     C29485   0.813   6.424   9.130 -0.6260  0.6480 -0.1170
  224MOL0     N29486   1.129   5.760   8.837 -0.5301  0.4284  0.4015
  224MOL0     N29487   1.235   5.690   8.855  0.5419  0.0337 -0.5765
  224MOL0     C29488   1.227   4.707   8.792 -0.1437  0.2094  0.5032
  224MOL0     C29489   1.098   4.642   8.816 -0.0840 -0.0020  0.7050
  224MOL0     C29490   0.780   4.493   9.061  1.0776  0.0255 -0.0871
  224MOL0     C29491   0.770   4.350   9.066  0.3083  0.6144  0.7528
  224MOL0     C29492   0.666   4.290   9.123 -0.1692 -0.1670 -1.3035
  224MOL0     C29493   0.557   4.359   9.183 -0.0333 -0.3632  0.2670
  224MOL0     O29494   0.444   4.307   9.239  0.2380 -0.1989  0.4607
  224MOL0     C29495   0.446   4.168   9.261  0.8411  0.6042 -0.2161
  224MOL0     C29496   0.366   4.090   9.156 -0.5353 -0.0096 -0.5575
  224MOL0     C29497   0.346   3.940   9.205  0.5941  0.4808  0.3894
  224MOL0     C29498   0.297   3.865   9.075 -0.1887  0.2862 -0.6658
  224MOL0     C29499   0.293   3.717   9.112  0.1996 -0.4023  1.4623
  224MOL0     C29500   0.309   3.603   9.110  0.8656  0.4769  0.0468
  224MOL0     C29501   0.570   4.503   9.187  0.7695  0.9083 -0.5469
  224MOL0     C29502   0.679   4.564   9.128 -0.7088  0.1353 -0.9318
  224MOL0     H29503   1.213   4.378   8.998 -0.6498 -1.5845 -1.2571
  224MOL0     H29504   1.426   4.521   8.981  1.4844  1.3929 -1.0313
  224MOL0     H29505   1.391   4.915   8.870  1.1015  0.3904  0.9293
  224MOL0     H29506   1.463   4.881   8.709  0.9986  0.6723  1.7652
  224MOL0     H29507   1.681   4.889   8.795  1.5427  0.6300  1.1490
  224MOL0     H29508   1.620   4.891   8.966  2.9551 -2.2643 -0.4254
  224MOL0     H29509   1.615   5.110   8.740  2.5358 -0.9778 -0.3814
  224MOL0     H29510   1.730   5.081   8.872  0.0970  0.2471  0.0473
  224MOL0     H29511   1.442   5.142   8.920  0.3174 -0.5252  1.8245
  224MOL0     H29512   1.583   5.141   9.039  1.1029  0.3253  0.3141
  224MOL0     H29513   1.550   5.312   8.800 -1.0574  0.8141  0.7472
  224MOL0     H29514   1.698   5.315   8.902  0.1000 -0.3732 -0.0780
  224MOL0     H29515   1.563   5.512   8.934 -1.0427 -1.1012 -0.6179
  224MOL0     H29516   1.576   5.403   9.089 -0.1299 -0.4068  0.5233
  224MOL0     H29517   1.344   5.421   8.882 -2.9503 -1.1864  0.8477
  224MOL0     H29518   1.348   5.333   9.042 -3.1959 -0.2702 -1.7076
  224MOL0     H29519   1.405   5.616   9.067  1.2004 -0.3624  3.3488
  224MOL0     H29520   1.284   5.512   9.142  2.6586  2.5644  0.8277
  224MOL0     H29521   1.027   5.578   9.093 -1.3336  1.4985  0.2407
  224MOL0     H29522   0.836   5.705   8.998 -3.2248 -1.1548 -3.7692
  224MOL0     H29523   0.852   5.767   8.843 -3.1906 -0.1922  1.5773
  224MOL0     H29524   0.976   5.964   8.929 -1.7121  0.4070  0.6312
  224MOL0     H29525   0.931   5.915   9.086  0.3597  1.7402  0.2203
  224MOL0     H29526   0.735   5.995   8.851  1.1827 -0.3959  0.1071
  224MOL0     H29527   0.686   5.989   9.015 -0.7336  2.0698  0.0798
  224MOL0     H29528   0.724   6.213   8.909 -0.2561  0.6228  0.2741
  224MOL0     H29529   0.893   6.190   8.951 -0.9163  3.2300 -2.1630
  224MOL0     H29530   0.620   6.215   9.304  0.6385  0.1084  0.8315
  224MOL0     H29531   0.569   6.441   9.424  2.1040  0.2267  2.3747
  224MOL0     H29532   0.461   6.886   9.375  2.5632  0.8140  0.2377
  224MOL0     H29533   0.382   7.081   9.520  0.7586 -0.2019 -0.3073
  224MOL0     H29534   0.532   7.152   9.909 -0.5795  1.8175 -1.9760
  224MOL0     H29535   0.414   7.037   9.979 -0.3561  1.3451  0.7627
  224MOL0     H29536   0.324   7.325   9.909 -0.5325  1.7364  3.4736
  224MOL0     H29537   0.379   7.275  10.063  0.5561  2.8124 -1.5971
  224MOL0     H29538   0.134   7.183   9.918  0.0141 -0.5122  0.0213
  224MOL0     H29539   0.157   7.298  10.060 -1.1830 -1.7018  1.4591
  224MOL0     H29540   0.051   7.088  10.108  1.1563 -0.3173  1.3646
  224MOL0     H29541   0.191   6.990  10.043  1.3043 -1.2583  3.2604
  224MOL0     H29542   0.244   7.200  10.269  1.4086 -0.8823  3.1269
  224MOL0     H29543   0.316   7.050  10.219  2.2707  4.2756  3.2283
  224MOL0     H29544   0.206   7.036  10.429  1.0766  6.0148  0.9554
  224MOL0     H29545   0.112   6.937  10.306 -2.0840  1.0940 -0.3253
  224MOL0     H29546  -0.047   7.080  10.285 -1.0084  3.2597 -0.1285
  224MOL0     H29547  -0.038   7.053  10.463 -0.7978 -2.4269 -1.4977
  224MOL0     H29548  -0.078   7.298  10.419 -0.1273  1.4657  4.0226
  224MOL0     H29549   0.060   7.285  10.305 -1.3241  0.1141  0.2760
  224MOL0     H29550   0.531   6.892   9.875 -1.0322  1.3764  0.8500
  224MOL0     H29551   0.602   6.694   9.728  0.6553 -1.0657 -1.9608
  224MOL0     H29552   0.810   6.639   9.145 -0.0540 -1.7634 -2.1127
  224MOL0     H29553   0.863   6.430   9.034 -0.6994 -1.4974 -0.3321
  224MOL0     H29554   1.234   4.783   8.715  3.0598 -1.9909 -1.6024
  224MOL0     H29555   1.014   4.691   8.768  2.2175  1.9442 -1.6699
  224MOL0     H29556   0.842   4.282   9.020  2.1121  2.3832  0.8002
  224MOL0     H29557   0.668   4.185   9.096  1.6896 -0.3388 -0.6436
  224MOL0     H29558   0.415   4.143   9.363  3.5058 -3.9246 -0.2272
  224MOL0     H29559   0.551   4.138   9.268  1.2556  1.1466 -3.0701
  224MOL0     H29560   0.266   4.134   9.148 -1.1258 -1.2892 -0.5493
  224MOL0     H29561   0.413   4.096   9.057  2.8880 -2.6678  0.6878
  224MOL0     H29562   0.275   3.941   9.288 -1.2492  2.8093 -1.0807
  224MOL0     H29563   0.443   3.898   9.233  1.5105  0.8782 -1.9611
  224MOL0     H29564   0.198   3.905   9.053 -1.6753 -0.7016  3.3393
  224MOL0     H29565   0.366   3.884   8.992 -0.8839 -0.7223 -1.5051
  224MOL0     H29566   0.341   3.501   9.099  0.8291  0.6466 -2.0314
  224MOL0     H29567   0.490   4.557   9.237  0.1556 -0.3547 -0.1113
  224MOL0     H29568   0.683   4.673   9.138  0.7786 -0.0286  0.8781
  225MOL0     O29569   3.373   6.525   6.317 -0.3875  0.0044  0.2330
  225MOL0     C29570   3.303   6.430   6.351  0.5338 -1.7220  0.3421
  225MOL0     O29571   3.166   6.428   6.345 -0.6551 -0.6369 -0.4765
  225MOL0     C29572   3.098   6.543   6.310  0.1358  1.0396  0.0196
  225MOL0     C29573   2.984   6.528   6.228  0.3052 -0.5385  0.0507
  225MOL0     C29574   2.914   6.642   6.197  0.0727 -0.9101  2.0217
  225MOL0     C29575   2.956   6.768   6.233 -1.0612  0.5191 -0.0488
  225MOL0     O29576   2.874   6.869   6.182 -0.6885  0.0168  0.4128
  225MOL0     C29577   2.884   7.009   6.228  0.7285 -0.4703  0.4600
  225MOL0     C29578   2.747   7.083   6.202  0.6227 -0.7773  0.8601
  225MOL0     C29579   2.689   7.055   6.058  0.1245  0.1213  1.1267
  225MOL0     C29580   2.579   7.155   6.027  0.3687  0.8621 -0.0690
  225MOL0     C29581   2.503   7.120   5.896 -0.3164  0.5632  0.3609
  225MOL0     C29582   2.587   7.141   5.773 -0.0805  0.3994 -0.3972
  225MOL0     C29583   2.514   7.082   5.651  0.6951  0.1347  0.4335
  225MOL0     C29584   2.446   7.179   5.548 -0.6556  0.5380  0.3140
  225MOL0     N29585   2.331   7.247   5.607 -0.3718 -0.0761  0.7544
  225MOL0     C29586   2.343   7.372   5.666  0.3533 -0.7265  0.2590
  225MOL0     C29587   2.210   7.401   5.689  0.2204 -0.1122  0.6250
  225MOL0     C29588   2.159   7.525   5.750  0.2402  0.2062 -0.2948
  225MOL0     C29589   2.010   7.545   5.756  1.4101  0.1544  0.4540
  225MOL0     C29590   1.977   7.668   5.849  0.1904 -0.4437  0.0810
  225MOL0     C29591   1.949   7.623   5.995  0.0765 -0.2810  1.0795
  225MOL0     O29592   1.906   7.736   6.069 -0.1541  0.1305 -0.2948
  225MOL0     C29593   1.844   7.715   6.189 -0.0900  1.0621  0.1961
  225MOL0     C29594   1.846   7.595   6.276  0.5265  0.3106 -0.1929
  225MOL0     C29595   1.775   7.598   6.394 -0.1178  0.2085 -0.0964
  225MOL0     C29596   1.685   7.704   6.429 -0.2722 -0.7155  0.9820
  225MOL0     C29597   1.600   7.694   6.546 -0.1872 -0.2039  0.2441
  225MOL0     O29598   1.579   7.572   6.589  1.2666  0.1694  0.1786
  225MOL0     C29599   1.476   7.555   6.676 -0.7762 -0.3902 -0.8249
  225MOL0     C29600   1.376   7.466   6.644  0.2551 -0.0100 -0.0125
  225MOL0     C29601   1.291   7.436   6.753 -0.0074  0.5519 -0.2797
  225MOL0     C29602   1.304   7.478   6.881  0.1129 -0.8570 -0.1854
  225MOL0     O29603   1.199   7.464   6.966  0.1283 -0.1803  0.4958
  225MOL0     C29604   1.205   7.508   7.101  0.0095  0.4845 -0.4522
  225MOL0     C29605   1.094   7.445   7.180  0.1658  0.2172  0.4029
  225MOL0     C29606   1.089   7.478   7.329  1.0058 -0.6941 -0.3439
  225MOL0     C29607   1.053   7.630   7.351 -0.5197  1.0374 -0.1472
  225MOL0     C29608   1.062   7.686   7.489  0.3586  0.2163  0.3937
  225MOL0     C29609   1.205   7.712   7.534 -0.0932  0.6898 -0.6584
  225MOL0     C29610   1.218   7.776   7.675 -0.1386  1.0533 -1.0609
  225MOL0     C29611   1.134   7.903   7.708  0.0523 -0.4570 -0.2285
  225MOL0    Cl29612   1.214   8.018   7.605 -0.1948  0.2558 -0.1832
  225MOL0     C29613   1.409   7.558   6.914 -0.7547  0.5893 -0.6412
  225MOL0     C29614   1.492   7.595   6.801 -0.4188 -0.4185 -0.2321
  225MOL0     O29615   1.538   7.792   6.574 -0.2194  0.7966  0.3768
  225MOL0     C29616   1.692   7.816   6.350  0.5298  0.4640  1.2661
  225MOL0     C29617   1.769   7.821   6.234 -0.8864  0.2214 -0.1353
  225MOL0     N29618   2.136   7.291   5.641  0.2326  0.2658  0.0369
  225MOL0     N29619   2.207   7.200   5.588 -0.1404 -0.0415 -0.0937
  225MOL0     C29620   3.075   6.784   6.314 -0.2738  0.2385 -0.7691
  225MOL0     C29621   3.139   6.669   6.358  0.1024 -0.2827  1.1357
  225MOL0     C29622   3.382   6.318   6.405 -0.0587  0.5817 -0.0748
  225MOL0     C29623   3.318   6.195   6.464 -0.5866  0.4536 -0.6856
  225MOL0     C29624   3.389   6.080   6.513 -0.3306 -0.0633  0.5754
  225MOL0     C29625   3.527   6.083   6.524 -0.8110 -0.4633  0.2031
  225MOL0     O29626   3.587   5.976   6.590  0.4373  0.1006  0.2600
  225MOL0     C29627   3.723   5.982   6.634 -0.6090 -0.3474  0.0485
  225MOL0     C29628   3.812   5.940   6.510 -0.3157 -0.5131  0.7946
  225MOL0     C29629   3.959   5.921   6.553  0.9466  0.1455  0.4454
  225MOL0     C29630   4.033   5.855   6.436 -0.3906 -0.1353  0.5190
  225MOL0     C29631   4.147   5.792   6.512  0.5871 -0.1251 -0.9709
  225MOL0     C29632   4.237   5.752   6.584  0.3314 -0.0266 -0.2039
  225MOL0     C29633   3.591   6.194   6.470  0.0454 -0.6287  0.4133
  225MOL0     C29634   3.530   6.311   6.412  0.6394  1.4358 -0.5516
  225MOL0     H29635   2.965   6.435   6.175  1.6983 -0.2249 -1.0705
  225MOL0     H29636   2.836   6.641   6.121  0.8702 -2.4292  1.1681
  225MOL0     H29637   2.964   7.055   6.170 -1.1931  4.3334  1.1385
  225MOL0     H29638   2.909   7.002   6.335  3.0880 -2.3621 -0.1144
  225MOL0     H29639   2.757   7.192   6.210 -0.0911 -0.1415 -4.0467
  225MOL0     H29640   2.670   7.040   6.266  1.2170  0.5719  2.5630
  225MOL0     H29641   2.652   6.953   6.049  0.0221  0.3357 -1.8355
  225MOL0     H29642   2.765   7.074   5.981 -0.5479  0.4865  0.5459
  225MOL0     H29643   2.512   7.138   6.112  0.8273  2.9493  0.7627
  225MOL0     H29644   2.608   7.259   6.038  2.7676  0.1359  1.1340
  225MOL0     H29645   2.410   7.178   5.894 -0.8656 -0.2881  0.5823
  225MOL0     H29646   2.465   7.017   5.901 -1.1013  0.7746 -0.8146
  225MOL0     H29647   2.681   7.085   5.777 -0.2888  0.1169  0.9194
  225MOL0     H29648   2.607   7.246   5.747 -2.3789  1.4499  1.6807
  225MOL0     H29649   2.586   7.043   5.579  3.4791  2.6276  1.6862
  225MOL0     H29650   2.446   7.004   5.686 -1.5198  2.1601  0.9609
  225MOL0     H29651   2.418   7.120   5.460  3.0143  0.6761 -1.1015
  225MOL0     H29652   2.531   7.240   5.517  1.5103 -0.4229  3.7756
  225MOL0     H29653   2.431   7.434   5.680 -0.8527  0.7933  1.3814
  225MOL0     H29654   2.186   7.606   5.682 -4.0144  0.8587 -1.4569
  225MOL0     H29655   2.214   7.542   5.843  1.9618 -1.4124 -0.9290
  225MOL0     H29656   1.965   7.455   5.799  3.0846 -1.3879 -0.8071
  225MOL0     H29657   1.971   7.563   5.655 -4.3629  1.5787  2.5804
  225MOL0     H29658   2.060   7.740   5.844 -0.0163 -0.1953  0.2263
  225MOL0     H29659   1.889   7.726   5.820  0.0398  0.7649  2.6410
  225MOL0     H29660   2.045   7.588   6.034  1.0848  1.7959  0.6104
  225MOL0     H29661   1.878   7.541   6.006 -0.2791 -0.1246  0.0454
  225MOL0     H29662   1.894   7.507   6.233 -1.7720  1.4843 -6.0754
  225MOL0     H29663   1.774   7.512   6.460  0.4520  1.0721  1.0877
  225MOL0     H29664   1.345   7.436   6.544 -2.0863 -0.9329  0.9187
  225MOL0     H29665   1.194   7.397   6.725  0.8058 -0.4736 -1.8086
  225MOL0     H29666   1.192   7.616   7.106 -2.4081  0.3247 -1.9035
  225MOL0     H29667   1.302   7.476   7.141  0.1583  0.8197 -0.5436
  225MOL0     H29668   1.105   7.336   7.178  0.9304  0.2135  2.2318
  225MOL0     H29669   1.002   7.477   7.132  0.4006 -0.9752 -0.9336
  225MOL0     H29670   1.182   7.460   7.384  1.7654  0.2639 -1.2802
  225MOL0     H29671   1.016   7.418   7.385  1.6030 -0.7216  0.4295
  225MOL0     H29672   1.122   7.688   7.288  1.2613  0.8052  1.4922
  225MOL0     H29673   0.959   7.648   7.298  1.8786  2.4387 -4.4804
  225MOL0     H29674   1.004   7.625   7.559  0.1628 -0.2084 -0.1342
  225MOL0     H29675   1.006   7.779   7.485 -2.1835 -0.9483  3.9771
  225MOL0     H29676   1.252   7.767   7.452  1.7960  1.4595  0.8845
  225MOL0     H29677   1.268   7.624   7.549 -1.2636 -0.0684  0.0608
  225MOL0     H29678   1.190   7.701   7.749 -2.5758  0.7993 -2.1371
  225MOL0     H29679   1.327   7.791   7.676  0.1476 -0.7836 -0.9433
  225MOL0     H29680   1.168   7.926   7.809 -0.0523  1.2339 -0.5540
  225MOL0     H29681   1.025   7.896   7.702 -0.0589 -2.0378  2.3267
  225MOL0     H29682   1.422   7.607   7.010  0.9673 -0.0069 -0.5489
  225MOL0     H29683   1.575   7.664   6.813 -0.1336  0.3677 -4.9595
  225MOL0     H29684   1.632   7.900   6.382 -0.4719 -0.6163  2.3701
  225MOL0     H29685   1.777   7.904   6.164 -1.9370 -0.5101 -1.1637
  225MOL0     H29686   3.121   6.874   6.354  5.6905 -2.8445  0.3932
  225MOL0     H29687   3.229   6.686   6.416 -1.1845 -0.9757  3.4465
  225MOL0     H29688   3.209   6.195   6.465 -0.6000 -0.8400  0.4080
  225MOL0     H29689   3.335   6.000   6.563  0.9115 -0.1377  1.8569
  225MOL0     H29690   3.723   5.909   6.715  0.7083 -1.8973 -1.2714
  225MOL0     H29691   3.751   6.082   6.668  0.1848 -0.9074  1.0765
  225MOL0     H29692   3.779   5.841   6.477  0.9786 -0.6233 -0.2423
  225MOL0     H29693   3.799   6.013   6.430 -2.8207  2.1128  3.3264
  225MOL0     H29694   3.966   5.864   6.646 -0.0883  4.3859  3.4527
  225MOL0     H29695   3.992   6.023   6.574  0.3806  0.4399 -0.0485
  225MOL0     H29696   3.970   5.780   6.388 -1.4283  1.0861 -0.1075
  225MOL0     H29697   4.074   5.925   6.362 -0.0794  1.2762  1.9636
  225MOL0     H29698   4.312   5.710   6.648  0.0350  1.7303  1.3833
  225MOL0     H29699   3.692   6.209   6.506  0.1434  0.8756 -0.4001
  225MOL0     H29700   3.593   6.392   6.377  1.6369  1.3483  0.9403
  226MOL0     O29701   8.167   2.321   8.071 -0.1512 -0.2167 -0.3598
  226MOL0     C29702   8.210   2.274   7.966 -0.6392 -0.5522 -0.1475
  226MOL0     O29703   8.175   2.147   7.924  0.1924 -0.1273 -0.8597
  226MOL0     C29704   8.054   2.101   7.976 -0.4269 -1.2558  1.2280
  226MOL0     C29705   7.944   2.180   7.945 -0.2178  0.2656  0.9299
  226MOL0     C29706   7.817   2.147   8.000 -1.0809  0.2304 -0.5325
  226MOL0     C29707   7.803   2.025   8.068 -0.3327 -0.3060  0.2410
  226MOL0     O29708   7.680   2.009   8.126  0.1156 -0.1857 -0.6512
  226MOL0     C29709   7.596   1.912   8.063  0.0857  0.2890  0.3777
  226MOL0     C29710   7.455   1.933   8.094  0.2942  0.5509 -1.0913
  226MOL0     C29711   7.408   1.891   8.233  0.1201  0.4045 -0.1840
  226MOL0     C29712   7.275   1.950   8.275 -0.0069 -0.4783 -0.5420
  226MOL0     C29713   7.233   1.872   8.403  0.0409  1.2795 -0.1863
  226MOL0     C29714   7.143   1.954   8.496 -0.2561  0.8911 -0.1376
  226MOL0     C29715   7.014   1.984   8.425  0.5934  0.3093  0.2101
  226MOL0     C29716   6.921   2.046   8.520  0.0755  0.2385  0.0245
  226MOL0     N29717   6.943   2.191   8.538  0.2125  0.0048 -0.2720
  226MOL0     C29718   7.007   2.248   8.642 -0.1248 -0.1170  0.7533
  226MOL0     C29719   6.985   2.381   8.624 -0.0449  0.2163  0.4958
  226MOL0     C29720   7.030   2.501   8.707  0.8442 -0.0545  0.2602
  226MOL0     C29721   7.136   2.581   8.626 -0.3957  0.6451 -0.6495
  226MOL0     C29722   7.075   2.684   8.531 -0.5504 -0.1822  0.8685
  226MOL0     C29723   7.010   2.809   8.597  0.8366  0.4623  0.5505
  226MOL0     O29724   6.968   2.912   8.502 -0.3387  0.3004 -0.1557
  226MOL0     C29725   6.854   2.907   8.419 -0.7565  0.6854 -0.3192
  226MOL0     C29726   6.825   3.019   8.337  0.1451 -0.1752 -0.0794
  226MOL0     C29727   6.708   3.010   8.264  0.2477 -0.3373 -0.0993
  226MOL0     C29728   6.610   2.904   8.278  0.3100 -0.9247  0.2088
  226MOL0     C29729   6.480   2.903   8.198 -0.0366 -0.3930 -0.5080
  226MOL0     O29730   6.464   3.011   8.117  0.2047 -0.2828 -0.1255
  226MOL0     C29731   6.353   3.050   8.054 -0.1707 -0.1203  0.8245
  226MOL0     C29732   6.234   3.044   8.117  0.5572  1.2164 -0.9041
  226MOL0     C29733   6.119   3.089   8.045 -0.0638 -0.0084 -0.2042
  226MOL0     C29734   6.124   3.135   7.916  0.1650 -0.4797  0.5266
  226MOL0     O29735   6.016   3.179   7.830 -0.1064  0.7770 -1.1713
  226MOL0     C29736   5.888   3.150   7.884 -0.3289  0.3526 -0.0601
  226MOL0     C29737   5.795   3.220   7.782  0.1504  0.1657 -0.4527
  226MOL0     C29738   5.826   3.365   7.755  0.3613 -0.1626  0.0547
  226MOL0     C29739   5.824   3.450   7.877 -0.2191 -0.7089 -0.4069
  226MOL0     C29740   5.800   3.597   7.848 -0.9565  0.4155 -0.5874
  226MOL0     C29741   5.909   3.672   7.771 -0.5411 -0.9845 -0.0349
  226MOL0     C29742   5.855   3.796   7.702  0.1047 -0.1717  0.2021
  226MOL0     C29743   5.810   3.902   7.808 -0.5715 -0.2600 -0.3282
  226MOL0    Cl29744   5.927   3.933   7.942 -0.3571 -0.0138  0.1520
  226MOL0     C29745   6.248   3.142   7.861  0.4974  0.3885 -0.5462
  226MOL0     C29746   6.371   3.100   7.925 -0.2652  0.2310  0.5266
  226MOL0     O29747   6.399   2.821   8.222  0.1012  0.5806  0.5050
  226MOL0     C29748   6.640   2.798   8.361 -0.6182 -0.4290 -0.9526
  226MOL0     C29749   6.762   2.799   8.434  0.2854 -0.2836 -0.4512
  226MOL0     N29750   6.910   2.398   8.508  0.4867 -0.5378 -0.7596
  226MOL0     N29751   6.885   2.285   8.457  0.2077  0.3995 -0.2511
  226MOL0     C29752   7.911   1.938   8.095 -0.9994 -0.2516 -0.1810
  226MOL0     C29753   8.038   1.986   8.063  0.5605 -0.1070 -0.6407
  226MOL0     C29754   8.326   2.345   7.914 -0.2753 -0.1549 -0.5505
  226MOL0     C29755   8.372   2.467   7.979  0.5302 -0.3924 -1.6466
  226MOL0     C29756   8.494   2.525   7.937  0.5159 -0.8889  0.0910
  226MOL0     C29757   8.568   2.468   7.835 -0.6930 -0.8764  0.2011
  226MOL0     O29758   8.688   2.539   7.816 -0.2032  0.1922  0.6788
  226MOL0     C29759   8.784   2.485   7.722 -1.3269 -1.2237  0.0435
  226MOL0     C29760   8.897   2.579   7.696  0.0641  0.0936  0.2660
  226MOL0     C29761   8.954   2.653   7.820  0.2101 -0.8974 -0.9209
  226MOL0     C29762   8.905   2.796   7.826 -0.3374  0.1683 -0.1048
  226MOL0     C29763   8.981   2.880   7.735 -0.4552  0.5082  0.0369
  226MOL0     C29764   9.064   2.919   7.657 -0.5215  0.5815 -0.1869
  226MOL0     C29765   8.531   2.343   7.775  0.5333  0.1107 -0.3939
  226MOL0     C29766   8.407   2.286   7.816  0.9668  0.1279  0.7787
  226MOL0     H29767   7.953   2.257   7.870 -2.7764 -0.0581  0.2005
  226MOL0     H29768   7.729   2.206   7.978 -1.5842  1.3088  3.6083
  226MOL0     H29769   7.632   1.814   8.094  0.8518 -0.6393 -2.9781
  226MOL0     H29770   7.610   1.912   7.954  1.7926 -3.7773  0.4206
  226MOL0     H29771   7.396   1.878   8.020 -0.1995  0.3104 -0.5320
  226MOL0     H29772   7.430   2.036   8.071 -0.2406  0.6693 -0.0579
  226MOL0     H29773   7.481   1.931   8.303  2.3876  0.6041 -2.5138
  226MOL0     H29774   7.409   1.782   8.240  0.3352  0.4537  0.5411
  226MOL0     H29775   7.292   2.053   8.307  0.1402 -0.7482  0.2652
  226MOL0     H29776   7.192   1.949   8.203  0.1119 -1.7909 -0.6753
  226MOL0     H29777   7.322   1.857   8.465 -0.2406 -0.8694 -0.2311
  226MOL0     H29778   7.193   1.776   8.369  0.9958  1.3662 -1.6626
  226MOL0     H29779   7.195   2.044   8.530  0.4651  0.9091 -1.2266
  226MOL0     H29780   7.121   1.890   8.582 -0.7488 -2.5755 -2.6069
  226MOL0     H29781   7.012   2.047   8.336 -0.3593  0.9080  0.6356
  226MOL0     H29782   6.966   1.892   8.392 -0.3715  0.7522  0.3630
  226MOL0     H29783   6.927   1.990   8.614  0.2532 -2.5269 -1.5057
  226MOL0     H29784   6.820   2.034   8.478 -0.1674  1.4405  0.2244
  226MOL0     H29785   7.059   2.189   8.717  2.0414 -1.0297 -1.3464
  226MOL0     H29786   7.068   2.452   8.797 -0.5523 -3.7713 -0.9826
  226MOL0     H29787   6.948   2.566   8.739  1.6715  1.5390 -0.6790
  226MOL0     H29788   7.183   2.511   8.557 -0.7529 -0.3644  0.1194
  226MOL0     H29789   7.217   2.624   8.685  1.6709  0.7738 -3.3500
  226MOL0     H29790   7.161   2.707   8.468  0.0014 -1.4642  1.1285
  226MOL0     H29791   6.995   2.628   8.482  2.5954 -4.0348 -0.3883
  226MOL0     H29792   7.081   2.855   8.667  2.8809  3.5748 -3.1958
  226MOL0     H29793   6.922   2.776   8.652  0.9311 -0.8791 -0.0625
  226MOL0     H29794   6.893   3.103   8.330 -0.4474  0.4240  1.0139
  226MOL0     H29795   6.702   3.091   8.193  0.2508  0.6641  1.0140
  226MOL0     H29796   6.231   2.994   8.213 -1.6541  3.3708  0.2555
  226MOL0     H29797   6.027   3.076   8.100 -0.0839 -2.1495 -0.6518
  226MOL0     H29798   5.895   3.196   7.983  1.2412  0.9967 -0.4315
  226MOL0     H29799   5.873   3.042   7.893 -0.1799  0.3464  0.1306
  226MOL0     H29800   5.692   3.217   7.821 -0.7677 -1.8580 -2.8022
  226MOL0     H29801   5.788   3.156   7.694 -3.1499 -2.5156  1.5135
  226MOL0     H29802   5.752   3.394   7.680  0.8822 -1.9684 -1.2203
  226MOL0     H29803   5.921   3.376   7.702  0.9136  0.9231  1.2411
  226MOL0     H29804   5.736   3.408   7.927 -0.0630  0.1419  0.6214
  226MOL0     H29805   5.915   3.450   7.938  0.7968 -0.7009 -1.8583
  226MOL0     H29806   5.788   3.656   7.940 -0.9882  4.0168 -2.7249
  226MOL0     H29807   5.708   3.606   7.789  0.1899  2.7058 -2.1921
  226MOL0     H29808   5.953   3.612   7.691  2.1135  3.8729 -2.6396
  226MOL0     H29809   5.992   3.700   7.836  0.1244 -0.8046 -0.9515
  226MOL0     H29810   5.942   3.838   7.652  0.1206  1.4867  1.5276
  226MOL0     H29811   5.772   3.778   7.632  0.5198 -0.5102 -0.2072
  226MOL0     H29812   5.712   3.883   7.851 -1.5762  1.6785 -1.6588
  226MOL0     H29813   5.799   3.997   7.756  1.2059  1.5349  2.2930
  226MOL0     H29814   6.262   3.171   7.757  1.4079 -0.1684 -0.5927
  226MOL0     H29815   6.466   3.110   7.872 -1.4382 -0.2298 -1.7918
  226MOL0     H29816   6.571   2.716   8.378 -1.3953  0.7113  2.2197
  226MOL0     H29817   6.766   2.724   8.512 -3.0286 -2.1235 -1.8039
  226MOL0     H29818   7.902   1.850   8.158  0.8861  1.1055  2.1758
  226MOL0     H29819   8.126   1.926   8.082 -0.4259 -1.7989 -1.1529
  226MOL0     H29820   8.307   2.509   8.055  0.3278  4.4907 -4.1408
  226MOL0     H29821   8.526   2.619   7.980  0.5366 -0.5740 -0.6055
  226MOL0     H29822   8.734   2.467   7.626  0.2118 -1.6854 -0.7020
  226MOL0     H29823   8.825   2.392   7.763  1.1807  0.0927  0.7209
  226MOL0     H29824   8.974   2.508   7.664  0.1634  0.2074  0.2546
  226MOL0     H29825   8.872   2.648   7.615  0.0196 -2.3433 -1.9506
  226MOL0     H29826   9.063   2.654   7.827  0.2262 -3.9231  0.8924
  226MOL0     H29827   8.922   2.601   7.910  1.4258 -1.1225 -0.5997
  226MOL0     H29828   8.801   2.799   7.793 -0.5423  1.8838  0.6313
  226MOL0     H29829   8.907   2.830   7.930 -1.8092 -1.4626  0.4998
  226MOL0     H29830   9.143   2.943   7.588  2.6703 -1.9740  2.2619
  226MOL0     H29831   8.577   2.297   7.688  2.0891 -1.3641  1.1259
  226MOL0     H29832   8.378   2.190   7.776 -0.0905  0.1939  1.3530
  227MOL0     O29833   6.709   2.777   6.865 -0.2643  0.0970 -0.2861
  227MOL0     C29834   6.793   2.829   6.793 -1.1184 -0.4477 -0.0583
  227MOL0     O29835   6.764   2.921   6.699 -0.3933 -1.0693  0.4189
  227MOL0     C29836   6.659   3.008   6.700 -0.0635 -0.0420 -0.4970
  227MOL0     C29837   6.599   3.055   6.583 -1.1948  0.2680 -0.6823
  227MOL0     C29838   6.500   3.158   6.591  0.1391 -0.0794 -0.8447
  227MOL0     C29839   6.462   3.223   6.717 -0.6535 -0.2318  0.4558
  227MOL0     O29840   6.362   3.323   6.727 -0.4439 -0.1877 -0.0109
  227MOL0     C29841   6.226   3.270   6.705  0.4999  0.4144 -0.2305
  227MOL0     C29842   6.179   3.203   6.834  0.3702 -0.0543  0.0258
  227MOL0     C29843   6.046   3.133   6.813  0.6281  0.3694  0.1087
  227MOL0     C29844   5.993   3.054   6.941  0.9525 -0.6903 -0.8066
  227MOL0     C29845   5.885   2.958   6.909 -0.3034 -0.1120 -0.0328
  227MOL0     C29846   5.865   2.866   7.027  0.3964  0.7662  0.1360
  227MOL0     C29847   5.744   2.779   7.013  0.0051 -0.3930 -0.0519
  227MOL0     C29848   5.723   2.659   7.116 -0.0383  0.2049 -0.2055
  227MOL0     N29849   5.584   2.602   7.103 -0.5491 -1.3409 -0.3051
  227MOL0     C29850   5.549   2.495   7.034  0.4675 -0.0194  0.0775
  227MOL0     C29851   5.417   2.477   7.049  0.8453  0.9900  0.1577
  227MOL0     C29852   5.323   2.374   6.979  0.7274 -0.3436 -0.6551
  227MOL0     C29853   5.391   2.289   6.880  0.3158  0.3950  0.0653
  227MOL0     C29854   5.294   2.187   6.825 -0.7968  0.5220  0.4540
  227MOL0     C29855   5.319   2.152   6.676  0.2353 -0.4992 -0.1471
  227MOL0     O29856   5.444   2.075   6.681  0.1522 -0.5070  0.9808
  227MOL0     C29857   5.563   2.134   6.648  0.3460  0.2420  0.0618
  227MOL0     C29858   5.677   2.097   6.719 -0.7032 -1.0024 -0.0618
  227MOL0     C29859   5.805   2.142   6.677  0.0196  0.1088 -0.2845
  227MOL0     C29860   5.817   2.226   6.570  0.4838 -0.4540  0.2348
  227MOL0     C29861   5.942   2.290   6.543 -0.1228 -0.4268  0.3035
  227MOL0     O29862   6.053   2.236   6.604 -0.2013  0.4355 -0.4501
  227MOL0     C29863   6.151   2.192   6.519 -0.8802 -0.5192 -1.1177
  227MOL0     C29864   6.119   2.126   6.402  0.4439 -0.4948  0.2759
  227MOL0     C29865   6.218   2.062   6.335  0.3420  0.4459  0.4818
  227MOL0     C29866   6.351   2.070   6.376  0.3138  0.0770 -0.0713
  227MOL0     O29867   6.457   2.006   6.320  0.5650 -0.5740 -0.5250
  227MOL0     C29868   6.446   1.946   6.188 -0.4045  0.5067  0.5585
  227MOL0     C29869   6.577   1.902   6.123 -0.0819  0.6220  0.1570
  227MOL0     C29870   6.689   2.003   6.151 -0.2997 -0.4453 -0.7361
  227MOL0     C29871   6.673   2.145   6.089  0.1388 -0.5487 -0.1196
  227MOL0     C29872   6.800   2.218   6.080 -0.0959 -0.1996  0.3465
  227MOL0     C29873   6.882   2.198   5.950  0.4094  0.1406 -0.0754
  227MOL0     C29874   6.990   2.306   5.943  0.3899 -0.5908 -0.8284
  227MOL0     C29875   7.082   2.292   5.820 -0.2244 -0.1667 -0.3868
  227MOL0    Cl29876   7.197   2.161   5.823 -0.7748 -0.0859 -0.1423
  227MOL0     C29877   6.384   2.149   6.484 -0.6230 -0.4811 -1.2841
  227MOL0     C29878   6.278   2.201   6.563 -0.0607 -0.3055 -0.1251
  227MOL0     O29879   5.945   2.387   6.474  0.4283 -0.0648 -0.6960
  227MOL0     C29880   5.695   2.265   6.496 -0.8789  0.0581  0.3348
  227MOL0     C29881   5.572   2.220   6.538  0.6290  0.1230  0.3208
  227MOL0     N29882   5.373   2.571   7.137 -0.7315 -0.4249  0.0415
  227MOL0     N29883   5.472   2.640   7.177  0.6247  0.0192 -0.6852
  227MOL0     C29884   6.529   3.178   6.829  0.1321 -0.0471  0.0816
  227MOL0     C29885   6.621   3.074   6.821 -0.1911 -0.0790 -0.9629
  227MOL0     C29886   6.928   2.767   6.807  0.5913 -0.0597  0.2236
  227MOL0     C29887   7.010   2.741   6.700  0.4309 -0.9072  0.6005
  227MOL0     C29888   7.129   2.679   6.711  0.0699 -0.5213 -0.2222
  227MOL0     C29889   7.182   2.654   6.841 -0.2891  0.0725  0.3101
  227MOL0     O29890   7.301   2.590   6.864  0.3815 -0.0186 -0.0075
  227MOL0     C29891   7.292   2.452   6.836 -0.5450 -0.3208  0.9860
  227MOL0     C29892   7.397   2.427   6.721  0.3468  0.7541  0.2216
  227MOL0     C29893   7.538   2.478   6.763  0.5495  0.9321 -0.1543
  227MOL0     C29894   7.657   2.375   6.726 -0.0124  0.7414  0.1837
  227MOL0     C29895   7.668   2.362   6.582  0.3681  0.3010 -0.1798
  227MOL0     C29896   7.686   2.354   6.464 -0.6391 -0.1816  0.2375
  227MOL0     C29897   7.106   2.682   6.952 -0.7441  0.9240 -0.1260
  227MOL0     C29898   6.981   2.739   6.935  1.2276 -0.7305  0.7190
  227MOL0     H29899   6.632   3.029   6.483  0.2422 -0.9692  0.0648
  227MOL0     H29900   6.454   3.194   6.500  0.9767 -0.9329 -1.6271
  227MOL0     H29901   6.231   3.197   6.624  2.4067  0.8174 -0.5193
  227MOL0     H29902   6.160   3.353   6.678  1.7622  1.7335  0.5682
  227MOL0     H29903   6.163   3.287   6.903  3.8090  3.4513 -3.0051
  227MOL0     H29904   6.246   3.125   6.871 -2.1281 -1.6271  1.5413
  227MOL0     H29905   6.044   3.057   6.735 -0.6923  1.0810 -0.5972
  227MOL0     H29906   5.972   3.210   6.787 -0.1692 -0.4041  0.0258
  227MOL0     H29907   6.083   3.018   6.991  0.2412 -2.0475 -0.4787
  227MOL0     H29908   5.960   3.129   7.014  3.0499 -0.3593 -0.1347
  227MOL0     H29909   5.923   2.902   6.823  2.2157 -0.8376  1.4396
  227MOL0     H29910   5.792   3.006   6.879  0.9750  1.4612 -1.6949
  227MOL0     H29911   5.844   2.927   7.115 -1.4555 -0.5037  0.6463
  227MOL0     H29912   5.950   2.800   7.047 -1.0422 -0.7689  1.4894
  227MOL0     H29913   5.661   2.850   7.018  1.6764  1.8244 -1.6371
  227MOL0     H29914   5.735   2.731   6.915 -1.8365  0.1037 -0.1612
  227MOL0     H29915   5.731   2.707   7.213  0.0984  2.5380 -1.3010
  227MOL0     H29916   5.800   2.582   7.103 -0.3444  0.0494 -1.2671
  227MOL0     H29917   5.619   2.443   6.970  0.2612  1.1821 -1.1673
  227MOL0     H29918   5.250   2.432   6.921 -0.7118  1.2040  2.4822
  227MOL0     H29919   5.270   2.318   7.056 -0.5091  1.2410 -0.3005
  227MOL0     H29920   5.469   2.239   6.938  0.3550  1.3095  0.8252
  227MOL0     H29921   5.453   2.329   6.799  2.2250 -1.3572  0.5744
  227MOL0     H29922   5.321   2.097   6.881 -0.6989 -0.6846 -1.4405
  227MOL0     H29923   5.187   2.207   6.832 -1.9417 -3.9632 -0.6734
  227MOL0     H29924   5.320   2.241   6.612 -0.9939  0.7640  1.5194
  227MOL0     H29925   5.234   2.092   6.641 -2.1918  1.4961  1.9396
  227MOL0     H29926   5.675   2.036   6.809 -2.0495 -1.1533 -0.1753
  227MOL0     H29927   5.897   2.120   6.732 -1.0686  0.1416  1.6461
  227MOL0     H29928   6.017   2.116   6.366  0.7654 -3.4728 -0.0974
  227MOL0     H29929   6.193   2.004   6.247 -0.5917 -0.6069  1.4105
  227MOL0     H29930   6.413   2.029   6.125  0.9766 -1.3771 -2.9673
  227MOL0     H29931   6.374   1.864   6.193  1.2676 -0.9842  1.9382
  227MOL0     H29932   6.557   1.891   6.016  0.3887 -2.7267  0.3120
  227MOL0     H29933   6.601   1.806   6.170 -5.2783 -0.9874  0.1434
  227MOL0     H29934   6.784   1.967   6.110  0.9208  1.9850 -0.2654
  227MOL0     H29935   6.705   2.020   6.258  3.2673 -1.9940 -0.8858
  227MOL0     H29936   6.637   2.127   5.988 -3.6686 -1.7333  1.2544
  227MOL0     H29937   6.600   2.205   6.144  0.7642  0.7453 -0.6472
  227MOL0     H29938   6.862   2.193   6.167 -0.4866 -5.7513 -0.5978
  227MOL0     H29939   6.776   2.324   6.085 -1.7861 -0.6256  2.7695
  227MOL0     H29940   6.825   2.210   5.858  3.1758  0.2622 -1.8856
  227MOL0     H29941   6.935   2.104   5.937 -0.5013 -0.0640 -3.0731
  227MOL0     H29942   6.939   2.403   5.942 -0.8556 -1.1281  1.7356
  227MOL0     H29943   7.047   2.299   6.037 -1.3336  1.2865  0.4386
  227MOL0     H29944   7.142   2.383   5.810 -1.0381  0.1863 -2.3319
  227MOL0     H29945   7.023   2.271   5.731  2.8682 -0.3693 -2.5616
  227MOL0     H29946   6.484   2.158   6.525 -1.8313  1.4951  1.5035
  227MOL0     H29947   6.311   2.257   6.649  1.6438 -2.7018  0.9094
  227MOL0     H29948   5.683   2.336   6.415 -4.8277 -2.2167 -1.3664
  227MOL0     H29949   5.484   2.250   6.482 -0.4328 -0.2981  1.6898
  227MOL0     H29950   6.509   3.227   6.924  0.3270  2.6811 -1.2070
  227MOL0     H29951   6.665   3.047   6.916 -2.1100  0.0275 -0.0070
  227MOL0     H29952   6.972   2.765   6.601  0.1948  5.0528  1.7476
  227MOL0     H29953   7.183   2.641   6.625 -1.6060 -0.2795 -1.4270
  227MOL0     H29954   7.190   2.421   6.809 -0.9820 -0.2766  2.4914
  227MOL0     H29955   7.317   2.401   6.930 -2.0005 -0.0955  1.5233
  227MOL0     H29956   7.398   2.322   6.693 -2.7131  0.4650  0.9392
  227MOL0     H29957   7.368   2.477   6.628 -0.5627 -1.8170 -0.9694
  227MOL0     H29958   7.540   2.487   6.872 -1.5444 -0.0853  0.0056
  227MOL0     H29959   7.546   2.574   6.711 -0.5712  0.2568 -1.6622
  227MOL0     H29960   7.760   2.398   6.755  1.2544 -1.5708 -2.1743
  227MOL0     H29961   7.638   2.278   6.771  0.0523 -0.4056 -2.1172
  227MOL0     H29962   7.702   2.366   6.358 -0.4594 -1.6654  0.0726
  227MOL0     H29963   7.135   2.652   7.052  1.1134 -0.7250 -1.0761
  227MOL0     H29964   6.916   2.750   7.021 -2.2233 -0.3971 -1.7270
  228MOL0     O29965   1.531  10.587   7.174 -0.0668 -0.0519 -1.0141
  228MOL0     C29966   1.464  10.491   7.216 -0.3366 -0.3286  0.5151
  228MOL0     O29967   1.340  10.462   7.187 -0.6573 -0.1386  0.4987
  228MOL0     C29968   1.278  10.509   7.074  0.4417  0.7293 -0.3920
  228MOL0     C29969   1.332  10.548   6.945  0.2521  0.9041 -0.5370
  228MOL0     C29970   1.251  10.578   6.831  0.1455 -0.9509 -0.5575
  228MOL0     C29971   1.114  10.582   6.849 -0.6778 -0.0037  0.6103
  228MOL0     O29972   1.027  10.610   6.746  0.3716  0.1097  0.4616
  228MOL0     C29973   0.995  10.503   6.660 -0.1677 -0.1105  0.2039
  228MOL0     C29974   0.902  10.543   6.546 -0.3027 -0.5418  0.7838
  228MOL0     C29975   0.751  10.559   6.592 -0.3728  0.7609  0.7229
  228MOL0     C29976   0.721  10.644   6.717 -0.3877  0.2204  0.6052
  228MOL0     C29977   0.581  10.623   6.767  0.1536  0.5262 -1.2004
  228MOL0     C29978   0.469  10.631   6.664  0.5242  0.1970 -0.8909
  228MOL0     C29979   0.461  10.760   6.584 -0.8126 -0.5241 -0.8268
  228MOL0     C29980   0.314  10.784   6.540 -0.5829 -0.0223  0.0118
  228MOL0     N29981   0.263  10.694   6.438  1.1279 -0.0021 -0.1438
  228MOL0     C29982   0.164  10.596   6.459  0.5723  0.0803  0.7154
  228MOL0     C29983   0.131  10.553   6.336 -0.3844 -0.3576  0.4639
  228MOL0     C29984   0.031  10.446   6.303 -0.5261  0.3589 -0.3832
  228MOL0     C29985  -0.110  10.478   6.358  0.5323  0.5272  0.5068
  228MOL0     C29986  -0.189  10.588   6.297 -0.2513 -0.1811 -1.4188
  228MOL0     C29987  -0.200  10.584   6.145 -0.1498  0.2309  0.0845
  228MOL0     O29988  -0.303  10.677   6.103 -0.4972  0.2442 -0.4485
  228MOL0     C29989  -0.426  10.642   6.134  0.1776  0.8423  0.0063
  228MOL0     C29990  -0.520  10.747   6.108  0.1200  0.4015 -0.5998
  228MOL0     C29991  -0.655  10.732   6.121  0.3842  0.3161  0.4481
  228MOL0     C29992  -0.708  10.610   6.168 -0.8507 -0.7891  0.3506
  228MOL0     C29993  -0.862  10.598   6.179 -0.0691 -0.3870  0.8018
  228MOL0     O29994  -0.907  10.495   6.247  0.1464 -0.1778  0.6447
  228MOL0     C29995  -1.040  10.463   6.283  0.7380  0.0032  0.0758
  228MOL0     C29996  -1.155  10.517   6.232 -0.8125 -0.5769 -0.3734
  228MOL0     C29997  -1.281  10.470   6.279  0.4877 -0.5188  0.4514
  228MOL0     C29998  -1.293  10.374   6.379  0.4392  0.1553 -0.0800
  228MOL0     O29999  -1.418  10.335   6.414  0.8869 -0.2670  0.8224
  228MOL0     C30000  -1.477  10.411   6.529  0.9029 -0.0650  0.4002
  228MOL0     C30001  -1.408  10.389   6.665 -0.2507 -0.1157 -0.7857
  228MOL0     C30002  -1.433  10.238   6.701 -0.1808  0.2172 -0.7593
  228MOL0     C30003  -1.369  10.215   6.841  0.4181  0.3599  0.1580
  228MOL0     C30004  -1.410  10.078   6.888 -0.5465 -0.0475  0.1737
  228MOL0     C30005  -1.356   9.958   6.808 -0.0446  0.7059 -0.1065
  228MOL0     C30006  -1.205   9.926   6.834  0.7231  0.3750 -0.4808
  228MOL0     C30007  -1.157   9.812   6.750  0.6477 -0.2583  0.0083
  228MOL0    Cl30008  -0.983   9.778   6.767  0.2509  0.0941  0.7335
  228MOL0     C30009  -1.172  10.318   6.435 -0.6877  0.0081  0.6090
  228MOL0     C30010  -1.048  10.361   6.381 -0.0788 -0.6359 -0.3262
  228MOL0     O30011  -0.931  10.686   6.120  0.7578 -0.1198  0.3445
  228MOL0     C30012  -0.618  10.501   6.204  0.1589 -0.4751  0.5734
  228MOL0     C30013  -0.477  10.519   6.190  0.0872  0.1548  0.2211
  228MOL0     N30014   0.215  10.614   6.246 -0.2264  0.9371 -0.5450
  228MOL0     N30015   0.294  10.698   6.309  0.5726  0.4814 -0.0819
  228MOL0     C30016   1.054  10.523   6.972 -0.0947 -0.4293 -0.2468
  228MOL0     C30017   1.138  10.491   7.088  0.5427 -0.8575 -0.1579
  228MOL0     C30018   1.522  10.403   7.328  0.1194 -0.2623  0.6845
  228MOL0     C30019   1.660  10.372   7.331 -0.4891  0.3971  0.0483
  228MOL0     C30020   1.707  10.298   7.442  0.3183  0.0044  0.4785
  228MOL0     C30021   1.624  10.242   7.537  0.3811  0.0245  0.1061
  228MOL0     O30022   1.688  10.177   7.638 -1.0206  0.4599 -0.7791
  228MOL0     C30023   1.731  10.273   7.745 -1.1077  0.9567 -0.0301
  228MOL0     C30024   1.889  10.256   7.776  1.1119  0.1704  0.0208
  228MOL0     C30025   1.930  10.127   7.840  0.1082  0.5436  0.6044
  228MOL0     C30026   2.078  10.111   7.875 -0.6539  0.1954  0.5444
  228MOL0     C30027   2.104  10.005   7.977  1.1144 -0.6913 -0.6937
  228MOL0     C30028   2.111   9.933   8.075 -0.8732  0.1989  0.7019
  228MOL0     C30029   1.487  10.272   7.539  0.0618  0.3496  0.1824
  228MOL0     C30030   1.441  10.353   7.430 -0.1246 -1.4444  0.7716
  228MOL0     H30031   1.436  10.553   6.916  0.3620  1.6932 -0.0415
  228MOL0     H30032   1.295  10.617   6.740  1.1659 -0.0313  0.3044
  228MOL0     H30033   0.968  10.407   6.704  0.4052  0.0015  0.8127
  228MOL0     H30034   1.089  10.463   6.623  0.5288 -0.4456  2.2283
  228MOL0     H30035   0.906  10.459   6.475 -1.3664 -1.5523  1.8784
  228MOL0     H30036   0.934  10.633   6.493 -3.7218 -1.1776 -2.8473
  228MOL0     H30037   0.718  10.457   6.610  0.4283  0.1028 -1.2607
  228MOL0     H30038   0.701  10.596   6.502 -0.1974 -0.6607  0.0156
  228MOL0     H30039   0.788  10.599   6.790  1.6933 -1.7860 -2.3060
  228MOL0     H30040   0.732  10.750   6.692  3.3469  0.1934  1.4462
  228MOL0     H30041   0.561  10.686   6.855  1.8682 -2.1024  1.2791
  228MOL0     H30042   0.571  10.526   6.817 -3.2518  0.7428 -1.1996
  228MOL0     H30043   0.374  10.612   6.715  0.1611 -1.3289 -2.0699
  228MOL0     H30044   0.480  10.550   6.592  1.8843  1.8424 -2.6265
  228MOL0     H30045   0.490  10.849   6.641 -3.5260  0.7596 -1.2365
  228MOL0     H30046   0.534  10.768   6.504  0.8478  2.9976  0.8280
  228MOL0     H30047   0.321  10.880   6.488  0.4158 -0.4247 -0.6234
  228MOL0     H30048   0.240  10.807   6.618 -1.8749  3.4989 -2.0221
  228MOL0     H30049   0.106  10.566   6.546  1.5608 -0.9321  1.0520
  228MOL0     H30050   0.070  10.358   6.356 -1.5669 -0.6958 -1.3233
  228MOL0     H30051   0.037  10.424   6.196  0.1859  1.1402 -0.5195
  228MOL0     H30052  -0.111  10.509   6.463  0.1638  0.2940  0.5739
  228MOL0     H30053  -0.167  10.385   6.361 -0.2430  0.9296 -0.7945
  228MOL0     H30054  -0.284  10.582   6.351  0.1459  1.2269 -0.5093
  228MOL0     H30055  -0.134  10.677   6.330  1.9753 -1.6443 -0.9905
  228MOL0     H30056  -0.213  10.482   6.109  2.0034 -1.2349  3.0541
  228MOL0     H30057  -0.111  10.631   6.101 -2.6041  2.5604 -2.8225
  228MOL0     H30058  -0.491  10.846   6.075 -2.8868  1.8189  0.6016
  228MOL0     H30059  -0.719  10.819   6.110  0.0754  0.3026  1.9001
  228MOL0     H30060  -1.145  10.586   6.148  0.7037 -0.7230 -0.3474
  228MOL0     H30061  -1.379  10.498   6.242  1.1095  0.1707 -0.7417
  228MOL0     H30062  -1.584  10.392   6.539  0.7374 -0.9777 -2.4552
  228MOL0     H30063  -1.464  10.516   6.500  2.3978 -0.4357 -0.3759
  228MOL0     H30064  -1.441  10.454   6.748  4.6282 -1.2989  2.5137
  228MOL0     H30065  -1.305  10.414   6.640 -0.4215  0.6568 -0.7566
  228MOL0     H30066  -1.381  10.171   6.632 -1.8217 -0.2521 -1.5795
  228MOL0     H30067  -1.540  10.215   6.705  0.4929 -3.2506  0.7736
  228MOL0     H30068  -1.261  10.228   6.832  0.5008 -0.6864 -0.5286
  228MOL0     H30069  -1.417  10.284   6.911 -0.7360  0.4679 -0.7028
  228MOL0     H30070  -1.519  10.075   6.878 -0.4461  2.0155 -2.9308
  228MOL0     H30071  -1.376  10.074   6.992 -2.5233  0.4673  0.8932
  228MOL0     H30072  -1.388   9.977   6.705 -1.0416 -1.1490 -0.1762
  228MOL0     H30073  -1.405   9.871   6.852  0.4980  0.0232 -0.8201
  228MOL0     H30074  -1.141  10.012   6.812  1.1808  0.8259  2.2510
  228MOL0     H30075  -1.200   9.907   6.942  0.2617  2.3782 -0.0757
  228MOL0     H30076  -1.165   9.850   6.648 -0.4996  0.5039  0.3589
  228MOL0     H30077  -1.218   9.722   6.757  1.3104 -0.7332 -0.2278
  228MOL0     H30078  -1.182  10.241   6.511  1.0728  0.3262  1.2103
  228MOL0     H30079  -0.952  10.328   6.420 -0.2854  2.7361  3.7596
  228MOL0     H30080  -0.659  10.415   6.256 -1.0862  1.4826  2.9776
  228MOL0     H30081  -0.416  10.432   6.214  3.2368  0.9128 -3.8499
  228MOL0     H30082   0.955  10.481   6.957  0.8458 -4.2051  2.6005
  228MOL0     H30083   1.106  10.460   7.187  1.7116 -0.8969  0.2269
  228MOL0     H30084   1.732  10.397   7.254  0.1846  1.7247  1.0681
  228MOL0     H30085   1.815  10.291   7.454  0.5636  0.8634 -1.0001
  228MOL0     H30086   1.680  10.247   7.839 -0.8356 -2.9878 -0.8418
  228MOL0     H30087   1.710  10.375   7.710 -1.4048  0.9887  0.2288
  228MOL0     H30088   1.940  10.279   7.682 -1.2211 -1.0166 -1.6551
  228MOL0     H30089   1.902  10.342   7.842  2.3650  1.1671 -1.4690
  228MOL0     H30090   1.905  10.043   7.774 -2.0709  1.3562  0.3021
  228MOL0     H30091   1.882  10.107   7.936  0.5221 -1.9023  0.3777
  228MOL0     H30092   2.138  10.088   7.786 -3.0799  0.5379 -1.2807
  228MOL0     H30093   2.110  10.207   7.916 -2.1412 -0.1106  2.5488
  228MOL0     H30094   2.120   9.869   8.160 -0.2945 -0.9602 -0.1958
  228MOL0     H30095   1.416  10.228   7.607 -0.8360 -1.9106 -2.0598
  228MOL0     H30096   1.336  10.378   7.424  0.5987  1.5976 -1.0770
  229MOL0     O30097   5.804   7.261   1.052 -1.0701  0.3051  0.3395
  229MOL0     C30098   5.692   7.219   1.059 -0.3349 -0.0482 -0.3464
  229MOL0     O30099   5.642   7.151   1.168 -0.1272 -0.2931  0.0596
  229MOL0     C30100   5.724   7.063   1.236  0.4597  0.1161 -0.2922
  229MOL0     C30101   5.843   6.993   1.188 -0.6342  0.0476 -0.0638
  229MOL0     C30102   5.928   6.922   1.276  0.4073  0.1128  0.1447
  229MOL0     C30103   5.891   6.899   1.408 -0.8562  0.6893  0.0548
  229MOL0     O30104   5.967   6.835   1.496 -0.5442  0.3986  0.9181
  229MOL0     C30105   5.961   6.689   1.502  0.3835 -0.4787  0.5683
  229MOL0     C30106   5.971   6.630   1.647  0.1450 -0.6155  0.9922
  229MOL0     C30107   6.105   6.647   1.724  0.8262  0.9015  1.0008
  229MOL0     C30108   6.128   6.794   1.758  0.1289  0.1078  0.1061
  229MOL0     C30109   6.233   6.817   1.867 -0.7859  0.2154 -0.2988
  229MOL0     C30110   6.381   6.779   1.814 -0.2343 -0.0446  0.1921
  229MOL0     C30111   6.498   6.776   1.914  1.4476  0.7681  0.1088
  229MOL0     C30112   6.558   6.919   1.933 -0.1004 -0.0281 -0.5922
  229MOL0     N30113   6.688   6.918   2.010  0.0470 -1.1875  0.1905
  229MOL0     C30114   6.693   6.918   2.147  0.0701  0.1255  0.4937
  229MOL0     C30115   6.818   6.948   2.175  0.0535  0.3693 -0.1349
  229MOL0     C30116   6.870   6.975   2.316 -0.0759  0.2625  0.1345
  229MOL0     C30117   6.982   7.085   2.306  0.1002  0.7694 -0.8318
  229MOL0     C30118   7.119   7.062   2.378 -1.0901  0.4172 -0.3732
  229MOL0     C30119   7.219   7.002   2.280 -0.2842  0.1460  0.4782
  229MOL0     O30120   7.358   7.013   2.324 -0.0206 -0.1094  0.0886
  229MOL0     C30121   7.443   6.928   2.262 -0.5192  0.5243 -0.5266
  229MOL0     C30122   7.534   6.865   2.344  0.7742 -0.8770 -0.2177
  229MOL0     C30123   7.637   6.782   2.291 -0.2516  0.4289 -0.6545
  229MOL0     C30124   7.654   6.786   2.152 -1.3634  0.6830 -0.1265
  229MOL0     C30125   7.776   6.725   2.094 -0.0660 -0.7060 -0.3801
  229MOL0     O30126   7.858   6.641   2.166  1.0187 -0.4278  0.8342
  229MOL0     C30127   7.958   6.589   2.096  0.5876 -0.1847  0.1543
  229MOL0     C30128   7.939   6.477   2.026 -0.2582  0.3706  1.0678
  229MOL0     C30129   8.048   6.403   1.982  0.4115  0.4008 -0.0389
  229MOL0     C30130   8.179   6.443   2.000  0.0716 -0.1452 -0.1136
  229MOL0     O30131   8.258   6.366   1.926  0.6926 -1.0985  0.0170
  229MOL0     C30132   8.385   6.343   1.980 -0.1301 -0.3657  0.2846
  229MOL0     C30133   8.388   6.252   2.107  0.3779  0.0985  0.1145
  229MOL0     C30134   8.516   6.295   2.188 -0.2590  1.3659 -0.0719
  229MOL0     C30135   8.514   6.415   2.267  0.4239  0.2988 -0.6022
  229MOL0     C30136   8.634   6.452   2.354 -0.0514 -0.3240  0.1766
  229MOL0     C30137   8.663   6.346   2.467 -0.3950 -0.3393 -0.7053
  229MOL0     C30138   8.744   6.415   2.583  0.2850 -0.5554 -0.3355
  229MOL0     C30139   8.887   6.398   2.534  0.7096  0.0955 -0.2964
  229MOL0    Cl30140   8.977   6.500   2.650  0.4281  0.0459  0.4350
  229MOL0     C30141   8.200   6.569   2.069 -0.3315  0.2704 -0.2619
  229MOL0     C30142   8.093   6.635   2.127  0.5869  0.1210  0.8391
  229MOL0     O30143   7.800   6.761   1.975 -0.5311 -0.5150  0.5896
  229MOL0     C30144   7.566   6.846   2.072  0.1233  0.1555  1.7119
  229MOL0     C30145   7.458   6.915   2.120  0.0274 -0.2577 -0.3895
  229MOL0     N30146   6.887   6.969   2.059  0.6944  0.6684  0.5639
  229MOL0     N30147   6.809   6.947   1.960 -0.3632 -0.1188  0.5090
  229MOL0     C30148   5.769   6.949   1.449 -0.4674 -0.1478  1.0464
  229MOL0     C30149   5.685   7.023   1.364  0.6414 -0.5291 -0.5581
  229MOL0     C30150   5.599   7.246   0.953  0.4155 -0.9831 -0.4453
  229MOL0     C30151   5.627   7.325   0.843  0.8623  0.0058  0.1152
  229MOL0     C30152   5.542   7.330   0.729 -0.4149  0.8159  0.8984
  229MOL0     C30153   5.424   7.270   0.725 -0.6502  0.3662  0.0127
  229MOL0     O30154   5.343   7.270   0.619 -0.1185 -0.8211  0.2701
  229MOL0     C30155   5.239   7.359   0.633  0.7663 -0.5531  0.2296
  229MOL0     C30156   5.257   7.479   0.543 -0.1781  0.1975 -0.0835
  229MOL0     C30157   5.233   7.472   0.391  0.1638 -0.0334 -0.6468
  229MOL0     C30158   5.374   7.446   0.320  0.3078  0.8662 -0.5500
  229MOL0     C30159   5.352   7.413   0.179  0.4790  0.3839  0.4404
  229MOL0     C30160   5.342   7.401   0.053  0.6690 -0.2150 -0.4816
  229MOL0     C30161   5.381   7.204   0.837  0.1885 -0.5767 -0.4556
  229MOL0     C30162   5.464   7.190   0.950 -0.0983  0.2747 -0.5788
  229MOL0     H30163   5.876   7.014   1.087  2.3133  3.7314  1.4243
  229MOL0     H30164   6.020   6.868   1.257 -0.5752 -1.9696  1.0379
  229MOL0     H30165   6.035   6.645   1.434  0.5404 -0.5539  0.7868
  229MOL0     H30166   5.861   6.668   1.461 -0.2973  0.4261  1.7011
  229MOL0     H30167   5.955   6.522   1.639 -0.3599 -0.4549 -0.4619
  229MOL0     H30168   5.882   6.665   1.700 -2.0927  0.6127 -3.0995
  229MOL0     H30169   6.191   6.610   1.668  1.8223  0.8329  2.4974
  229MOL0     H30170   6.096   6.573   1.804  2.2319 -2.4513 -1.7093
  229MOL0     H30171   6.153   6.858   1.673 -4.0938  0.9993 -0.7134
  229MOL0     H30172   6.029   6.836   1.781 -0.6171 -0.7737 -1.3369
  229MOL0     H30173   6.208   6.749   1.950 -1.6628 -0.6080 -1.2073
  229MOL0     H30174   6.230   6.921   1.899  1.6635 -0.2946  1.9597
  229MOL0     H30175   6.404   6.841   1.727  0.9212 -0.9368 -0.1586
  229MOL0     H30176   6.368   6.678   1.774 -1.5552 -0.3195  1.2282
  229MOL0     H30177   6.474   6.726   2.009 -1.4621 -3.0786 -2.3374
  229MOL0     H30178   6.571   6.707   1.871 -0.0290 -2.9128  2.9597
  229MOL0     H30179   6.482   6.974   1.991  2.1443 -0.2117  2.8387
  229MOL0     H30180   6.581   6.955   1.833  1.1587 -2.1244 -1.1011
  229MOL0     H30181   6.600   6.908   2.202 -0.2862  0.6638 -0.0043
  229MOL0     H30182   6.904   6.883   2.363  1.9063  1.5612  1.4400
  229MOL0     H30183   6.794   7.003   2.389  0.1798  2.4739 -0.3661
  229MOL0     H30184   6.941   7.179   2.344  0.8715  0.3373  1.1837
  229MOL0     H30185   7.006   7.109   2.202 -1.9274  1.6388 -1.1490
  229MOL0     H30186   7.168   7.151   2.419  0.4805 -1.3224  1.7249
  229MOL0     H30187   7.115   6.989   2.459 -0.0325 -0.2889 -0.9330
  229MOL0     H30188   7.205   7.060   2.188 -3.2779  2.4074  2.1728
  229MOL0     H30189   7.195   6.898   2.257  4.4353 -1.0248 -0.2894
  229MOL0     H30190   7.512   6.879   2.449 -0.8428 -1.3733 -0.4685
  229MOL0     H30191   7.701   6.728   2.360  1.3703  0.7958 -1.7988
  229MOL0     H30192   7.843   6.436   1.998 -1.1635  2.9926  0.0092
  229MOL0     H30193   8.032   6.314   1.924  0.2267  1.0170 -0.9539
  229MOL0     H30194   8.440   6.437   1.989  1.2405 -1.3853  5.0323
  229MOL0     H30195   8.442   6.301   1.897  1.9661  3.2068 -0.3078
  229MOL0     H30196   8.396   6.146   2.082 -1.3665 -0.2882  1.0495
  229MOL0     H30197   8.304   6.264   2.175  1.3782  0.1120  1.3994
  229MOL0     H30198   8.604   6.292   2.122 -1.0847  5.4074 -1.6010
  229MOL0     H30199   8.533   6.214   2.259  3.0857  0.5390 -1.5923
  229MOL0     H30200   8.520   6.497   2.194  2.4935  2.3123  1.6658
  229MOL0     H30201   8.424   6.409   2.328  1.1392 -0.7189  0.3950
  229MOL0     H30202   8.584   6.535   2.405 -2.4976  0.4309 -3.1529
  229MOL0     H30203   8.718   6.481   2.290  0.5566  0.8845  1.4714
  229MOL0     H30204   8.719   6.257   2.438 -1.0048 -0.0175 -3.0489
  229MOL0     H30205   8.565   6.323   2.510 -0.2137  0.7255  0.3563
  229MOL0     H30206   8.722   6.521   2.597  2.4362 -0.2264  1.0186
  229MOL0     H30207   8.724   6.368   2.680  0.3509  0.3179  0.1070
  229MOL0     H30208   8.886   6.426   2.429 -1.3700 -0.4067 -0.4553
  229MOL0     H30209   8.931   6.300   2.556 -0.2869  0.3012  3.4076
  229MOL0     H30210   8.302   6.604   2.084 -0.5239 -0.0211  2.3307
  229MOL0     H30211   8.109   6.714   2.200  1.6860 -0.9636  1.8373
  229MOL0     H30212   7.585   6.863   1.966 -3.8303 -0.0421  0.7945
  229MOL0     H30213   7.391   6.978   2.062 -0.1464  1.4293  1.5370
  229MOL0     H30214   5.723   6.924   1.544 -1.1665 -1.4093  0.3985
  229MOL0     H30215   5.594   7.061   1.410  0.3153 -0.2733 -1.4100
  229MOL0     H30216   5.726   7.369   0.836  1.3446 -0.9477  0.6577
  229MOL0     H30217   5.583   7.386   0.646  1.9512 -1.4763  0.4085
  229MOL0     H30218   5.226   7.387   0.737  2.2588 -0.6101  0.4624
  229MOL0     H30219   5.148   7.303   0.610 -0.7534  1.6935  0.4697
  229MOL0     H30220   5.184   7.544   0.593  0.9527  0.6093  1.0864
  229MOL0     H30221   5.360   7.512   0.559  0.9742 -3.1000 -0.1244
  229MOL0     H30222   5.188   7.563   0.351 -2.6811 -0.0814  2.0681
  229MOL0     H30223   5.167   7.386   0.375  1.9652 -1.3874 -1.1630
  229MOL0     H30224   5.440   7.533   0.322  1.3409  0.1047 -0.6168
  229MOL0     H30225   5.418   7.365   0.379 -1.6661  1.2037  1.5004
  229MOL0     H30226   5.310   7.388  -0.048  3.2683 -3.8093 -1.0025
  229MOL0     H30227   5.284   7.158   0.853  0.7538 -2.0498 -1.0646
  229MOL0     H30228   5.428   7.129   1.033 -1.1507 -1.4586 -2.2247
  230MOL0     O30229   9.396   6.286   7.191  0.5246  0.4011  0.7653
  230MOL0     C30230   9.426   6.193   7.268 -0.8735  0.6431  0.7449
  230MOL0     O30231   9.388   6.179   7.397 -1.1518  0.0279 -0.0323
  230MOL0     C30232   9.340   6.291   7.465  0.0205 -0.5455 -0.7173
  230MOL0     C30233   9.204   6.297   7.498 -0.2848 -0.3665 -0.6074
  230MOL0     C30234   9.147   6.418   7.543 -0.2780  0.0276  0.0868
  230MOL0     C30235   9.225   6.529   7.580  0.9255 -0.4958  0.6309
  230MOL0     O30236   9.170   6.636   7.648  0.2908 -0.2670 -0.0415
  230MOL0     C30237   9.052   6.697   7.600 -0.9446 -0.3443  0.1196
  230MOL0     C30238   9.025   6.825   7.685  0.5569  0.9405 -0.1299
  230MOL0     C30239   9.133   6.935   7.677 -0.0284  0.3181  0.0256
  230MOL0     C30240   9.092   7.041   7.775  1.1938 -0.3060 -0.6613
  230MOL0     C30241   9.159   7.173   7.744 -0.6168  0.3242 -0.0361
  230MOL0     C30242   9.112   7.228   7.605  0.3130 -1.4970 -0.3186
  230MOL0     C30243   9.145   7.377   7.571  0.6485  0.6781  0.8627
  230MOL0     C30244   9.111   7.397   7.421 -0.6356 -0.0345 -0.2249
  230MOL0     N30245   8.998   7.334   7.356  0.3452  0.2487 -0.4317
  230MOL0     C30246   8.865   7.356   7.377 -0.1935  0.3775  0.6505
  230MOL0     C30247   8.806   7.246   7.321  0.6372 -0.1403  0.2910
  230MOL0     C30248   8.658   7.217   7.314  0.5766 -0.4268  0.3385
  230MOL0     C30249   8.587   7.209   7.451 -0.7194 -0.1163  0.3501
  230MOL0     C30250   8.452   7.173   7.412  0.9177 -1.0420  0.3765
  230MOL0     C30251   8.356   7.219   7.516 -0.0104  0.5911 -0.3043
  230MOL0     O30252   8.383   7.148   7.630  0.3385 -0.0575  0.1185
  230MOL0     C30253   8.318   7.024   7.647 -0.0014 -0.2018  1.0721
  230MOL0     C30254   8.331   6.951   7.763  0.2124 -0.4048  0.7836
  230MOL0     C30255   8.289   6.825   7.788 -0.1097  0.5493  1.1013
  230MOL0     C30256   8.210   6.762   7.688  1.1820  0.4967  0.5848
  230MOL0     C30257   8.154   6.626   7.709 -0.2463  0.9240  0.6458
  230MOL0     O30258   8.212   6.554   7.802 -0.2163 -0.2227  0.2756
  230MOL0     C30259   8.143   6.443   7.851  0.2183  0.0642 -0.0165
  230MOL0     C30260   8.137   6.330   7.776 -0.6389  0.0591  0.8491
  230MOL0     C30261   8.075   6.217   7.822  0.8709 -0.3180 -0.5935
  230MOL0     C30262   8.028   6.207   7.952 -0.3616  0.5695 -0.4962
  230MOL0     O30263   7.964   6.107   8.013  0.4543  0.3969 -0.1048
  230MOL0     C30264   8.006   5.970   7.989 -0.2262 -0.1293 -0.1428
  230MOL0     C30265   8.151   5.959   8.043 -0.9347  0.8994 -0.1273
  230MOL0     C30266   8.177   5.829   8.113 -0.3741 -1.1130 -1.1800
  230MOL0     C30267   8.195   5.712   8.013  0.3330 -0.6482  0.9906
  230MOL0     C30268   8.315   5.727   7.919  0.4840 -0.2114  0.6754
  230MOL0     C30269   8.298   5.622   7.804  0.0718 -0.1566 -0.0404
  230MOL0     C30270   8.405   5.644   7.694 -0.7256 -0.6388  0.5339
  230MOL0     C30271   8.548   5.604   7.738  0.5864  0.9102  0.0223
  230MOL0    Cl30272   8.534   5.427   7.762  0.0308  0.3772  0.2864
  230MOL0     C30273   8.037   6.323   8.029 -0.6135  0.6602 -0.0652
  230MOL0     C30274   8.095   6.442   7.976  0.6835  0.8194 -0.8583
  230MOL0     O30275   8.047   6.587   7.645 -0.8844 -0.4948 -1.2968
  230MOL0     C30276   8.193   6.827   7.570  0.2413 -0.0150 -0.1049
  230MOL0     C30277   8.243   6.956   7.554  0.0293  0.0836 -0.1853
  230MOL0     N30278   8.895   7.149   7.292 -1.1146 -0.7227  0.2153
  230MOL0     N30279   9.005   7.215   7.293  0.0826 -0.1832 -0.1004
  230MOL0     C30280   9.360   6.519   7.561  0.3156  0.1681 -0.2994
  230MOL0     C30281   9.416   6.405   7.504  0.2046 -0.1821  0.1455
  230MOL0     C30282   9.502   6.071   7.215  0.6298  0.7252 -0.2896
  230MOL0     C30283   9.591   6.003   7.304  0.4395 -0.3386  0.0608
  230MOL0     C30284   9.676   5.907   7.258 -0.4386 -0.8275  0.0815
  230MOL0     C30285   9.665   5.870   7.123  0.0106  0.6824  0.6800
  230MOL0     O30286   9.754   5.785   7.059 -0.4171 -0.3227  0.7099
  230MOL0     C30287   9.779   5.667   7.133 -0.0076 -0.2923  0.1595
  230MOL0     C30288   9.703   5.536   7.074  0.2253  0.1712  0.3563
  230MOL0     C30289   9.716   5.405   7.151  0.2567  0.5343 -1.0099
  230MOL0     C30290   9.716   5.285   7.060  0.0187  0.6092 -0.0981
  230MOL0     C30291   9.586   5.269   7.002  1.2359  0.4567 -1.1553
  230MOL0     C30292   9.477   5.253   6.956 -0.1107 -0.5534 -0.1007
  230MOL0     C30293   9.575   5.922   7.030 -1.1481 -0.9552 -1.0686
  230MOL0     C30294   9.487   6.023   7.079 -0.8304 -1.0165  0.0302
  230MOL0     H30295   9.146   6.209   7.472  1.0573 -1.4023 -0.1810
  230MOL0     H30296   9.040   6.411   7.561 -0.9491  2.1813 -2.3109
  230MOL0     H30297   8.963   6.635   7.620 -0.8234 -0.5530  0.0134
  230MOL0     H30298   9.055   6.713   7.492  0.2690 -0.1015  0.1781
  230MOL0     H30299   9.018   6.793   7.789 -3.7065 -2.1301 -1.0911
  230MOL0     H30300   8.933   6.872   7.648  0.2117  1.0216  0.8096
  230MOL0     H30301   9.116   6.975   7.577  0.2528 -2.5199 -1.2470
  230MOL0     H30302   9.233   6.892   7.678  0.1928  0.8151 -0.2949
  230MOL0     H30303   8.983   7.049   7.772  1.0015 -1.6694  0.9368
  230MOL0     H30304   9.114   7.010   7.878 -0.7771  1.6137  0.4168
  230MOL0     H30305   9.268   7.164   7.753 -0.4523  1.4513 -0.7276
  230MOL0     H30306   9.135   7.244   7.824  0.2490 -0.1980  0.7097
  230MOL0     H30307   9.003   7.219   7.599  0.1503  0.2584 -0.4506
  230MOL0     H30308   9.156   7.175   7.520 -1.0724 -0.3427 -1.8280
  230MOL0     H30309   9.087   7.443   7.636 -1.0844 -2.5623  2.8984
  230MOL0     H30310   9.251   7.393   7.591  0.5257  0.1316  2.0231
  230MOL0     H30311   9.198   7.351   7.374 -1.3585 -2.7498  0.9019
  230MOL0     H30312   9.113   7.505   7.404 -1.8659 -0.0899 -0.7920
  230MOL0     H30313   8.818   7.441   7.428 -0.9489  0.4297 -0.1032
  230MOL0     H30314   8.641   7.124   7.260 -0.2740 -0.6344  0.9457
  230MOL0     H30315   8.617   7.296   7.251  0.5151 -0.9446 -0.2833
  230MOL0     H30316   8.593   7.310   7.493 -0.7564 -0.0451  0.1811
  230MOL0     H30317   8.630   7.132   7.516 -0.6580  0.0709  0.5351
  230MOL0     H30318   8.428   7.216   7.314  0.7936  0.0723  0.8801
  230MOL0     H30319   8.437   7.065   7.402  1.6276 -0.9761 -2.1310
  230MOL0     H30320   8.253   7.195   7.487  0.2335 -0.4777 -0.3052
  230MOL0     H30321   8.374   7.325   7.538  0.3685  0.3842  0.3896
  230MOL0     H30322   8.386   7.015   7.831 -0.9694  0.1967  1.2075
  230MOL0     H30323   8.304   6.770   7.880 -0.6165  2.5657  2.4548
  230MOL0     H30324   8.166   6.333   7.672 -2.0280  3.1168  0.4398
  230MOL0     H30325   8.064   6.137   7.750  1.8999 -1.1166  0.1011
  230MOL0     H30326   8.012   5.949   7.882 -0.3614  2.3225 -0.7020
  230MOL0     H30327   7.955   5.894   8.049  4.4180 -1.6123  2.3652
  230MOL0     H30328   8.167   6.041   8.113 -0.9351 -1.3537  2.6934
  230MOL0     H30329   8.219   5.986   7.962 -2.4489  1.0586 -1.3966
  230MOL0     H30330   8.105   5.816   8.194 -2.4575  0.2069 -2.6978
  230MOL0     H30331   8.271   5.853   8.162  0.5814  0.3444 -3.5359
  230MOL0     H30332   8.202   5.623   8.076 -0.1402  1.2094  3.8423
  230MOL0     H30333   8.105   5.702   7.952  0.1840  0.3064  1.0449
  230MOL0     H30334   8.406   5.707   7.977 -0.0261 -2.8481  0.7037
  230MOL0     H30335   8.310   5.819   7.859  0.2107 -0.0182  0.9958
  230MOL0     H30336   8.204   5.639   7.750 -0.4845 -0.7504  0.7215
  230MOL0     H30337   8.304   5.520   7.843  4.7334  0.6076  1.9588
  230MOL0     H30338   8.384   5.591   7.600 -1.2198  1.0575 -0.3557
  230MOL0     H30339   8.404   5.749   7.662  0.3724 -0.1083  2.1148
  230MOL0     H30340   8.572   5.646   7.836 -0.2909 -0.1138  0.7023
  230MOL0     H30341   8.625   5.632   7.665  0.8458 -0.7775 -0.4012
  230MOL0     H30342   7.990   6.335   8.126 -0.6263  2.0727 -0.2262
  230MOL0     H30343   8.094   6.529   8.041  0.0792 -0.5697  1.1063
  230MOL0     H30344   8.137   6.779   7.490  0.0091  0.0381  0.0272
  230MOL0     H30345   8.199   7.010   7.471  2.2835  2.0539 -0.2068
  230MOL0     H30346   9.410   6.612   7.588 -0.4969  0.2577  1.0182
  230MOL0     H30347   9.515   6.415   7.461  0.3037  3.5216  0.9108
  230MOL0     H30348   9.608   6.030   7.408 -0.2989  0.1663  0.0525
  230MOL0     H30349   9.746   5.877   7.334 -1.8266 -0.5758  1.5120
  230MOL0     H30350   9.748   5.665   7.238  0.5431 -2.3091  0.3269
  230MOL0     H30351   9.888   5.655   7.138  0.4372  3.1235  1.0512
  230MOL0     H30352   9.596   5.558   7.068  0.5331  1.6641 -0.1862
  230MOL0     H30353   9.740   5.539   6.971  0.2933 -1.5527  0.3064
  230MOL0     H30354   9.626   5.377   7.205  0.3727 -1.1878 -1.6579
  230MOL0     H30355   9.811   5.405   7.205 -0.6148 -0.5614  0.6011
  230MOL0     H30356   9.782   5.287   6.973 -2.4181  0.1159 -2.0853
  230MOL0     H30357   9.750   5.194   7.110  4.8892  2.5947  0.7015
  230MOL0     H30358   9.379   5.230   6.919 -1.6175 -0.4837  3.5023
  230MOL0     H30359   9.579   5.878   6.931  0.7228  0.7518 -1.8220
  230MOL0     H30360   9.414   6.073   7.015 -1.6371 -1.5797  0.4864
  231MOL0     O30361   8.056   6.977  10.464  0.2161 -0.1605 -0.3562
  231MOL0     C30362   8.079   6.938  10.348 -0.0166 -0.8485  0.5663
  231MOL0     O30363   8.177   6.985  10.270  0.3537 -0.2827 -0.1742
  231MOL0     C30364   8.277   7.070  10.312 -0.1241 -0.4570 -0.5042
  231MOL0     C30365   8.317   7.182  10.237 -0.4754 -0.5204  0.2901
  231MOL0     C30366   8.428   7.259  10.281  0.1149  0.2489  0.6733
  231MOL0     C30367   8.507   7.219  10.387 -0.6045 -0.0114  0.1642
  231MOL0     O30368   8.617   7.288  10.414 -0.3628 -0.5578  0.7601
  231MOL0     C30369   8.716   7.237  10.508 -0.6218  0.5613 -1.1210
  231MOL0     C30370   8.840   7.313  10.545 -0.2933 -0.4037  0.0760
  231MOL0     C30371   8.887   7.301  10.685  0.2410 -0.3348  0.2764
  231MOL0     C30372   8.990   7.189  10.717 -0.1606  1.2488 -0.1641
  231MOL0     C30373   9.065   7.208  10.842  0.8261  0.5884  0.0454
  231MOL0     C30374   9.158   7.087  10.870 -0.0249  0.9590  0.1491
  231MOL0     C30375   9.247   7.041  10.752  0.0928  0.0864  0.0048
  231MOL0     C30376   9.330   7.165  10.690  0.6079 -0.0636 -0.0938
  231MOL0     N30377   9.442   7.186  10.775 -0.9427 -0.4874 -0.6376
  231MOL0     C30378   9.572   7.124  10.781 -0.8086  0.7123 -0.0641
  231MOL0     C30379   9.644   7.192  10.876 -0.5934 -0.4069 -1.1039
  231MOL0     C30380   9.786   7.153  10.911 -0.3593 -0.0483  0.3600
  231MOL0     C30381   9.776   7.094  11.052  0.8044  0.8205  0.6074
  231MOL0     C30382   9.908   7.020  11.089  0.7644  0.0292  0.1939
  231MOL0     C30383  10.032   7.101  11.127  1.2000  0.2292 -0.2211
  231MOL0     O30384   9.988   7.185  11.234 -0.6589  0.0621  0.9928
  231MOL0     C30385  10.081   7.276  11.273  0.2502 -0.1826 -0.2757
  231MOL0     C30386  10.037   7.350  11.388  0.8307  1.1838 -0.1145
  231MOL0     C30387  10.137   7.427  11.457 -0.3931  0.4823 -0.2119
  231MOL0     C30388  10.273   7.435  11.411  0.2240  0.6852  0.5182
  231MOL0     C30389  10.372   7.493  11.507  0.1009 -0.4152  0.7864
  231MOL0     O30390  10.490   7.540  11.450  0.0885 -0.1031  0.2451
  231MOL0     C30391  10.583   7.617  11.518 -0.2863 -0.3939  0.2313
  231MOL0     C30392  10.544   7.720  11.602  0.1122  0.7496 -0.4961
  231MOL0     C30393  10.641   7.802  11.655 -0.0483 -0.8880  0.6762
  231MOL0     C30394  10.774   7.787  11.622  0.1683 -0.1192 -0.1863
  231MOL0     O30395  10.858   7.884  11.670 -0.1279 -0.1162 -0.0076
  231MOL0     C30396  10.999   7.859  11.650 -1.2253  0.1322  0.5684
  231MOL0     C30397  11.075   7.968  11.734  0.4909 -0.0831  0.9440
  231MOL0     C30398  11.050   7.968  11.881 -0.0281 -0.8113 -0.8693
  231MOL0     C30399  11.127   7.858  11.954 -0.1264  0.0482 -0.9207
  231MOL0     C30400  11.117   7.861  12.112 -0.4631  0.3903 -0.2207
  231MOL0     C30401  10.980   7.807  12.166 -0.9333  0.8412  0.0693
  231MOL0     C30402  11.009   7.698  12.273 -0.9926  0.3110  0.4370
  231MOL0     C30403  10.898   7.652  12.349  0.4767  0.1479 -0.8227
  231MOL0    Cl30404  10.810   7.771  12.437  0.5278  0.3779  0.2343
  231MOL0     C30405  10.814   7.680  11.543  0.2498 -0.1950 -0.2258
  231MOL0     C30406  10.715   7.599  11.486 -0.0234  0.3340 -0.1469
  231MOL0     O30407  10.351   7.472  11.621  0.0465 -0.7438 -0.3973
  231MOL0     C30408  10.306   7.369  11.301 -0.4172  0.6597 -0.1550
  231MOL0     C30409  10.210   7.302  11.225 -1.2292  0.9728 -0.4816
  231MOL0     N30410   9.558   7.279  10.933 -0.1565  0.3464 -0.5920
  231MOL0     N30411   9.445   7.278  10.873  0.8714  0.2743 -0.2740
  231MOL0     C30412   8.451   7.118  10.469 -1.3127  0.5650 -0.7023
  231MOL0     C30413   8.340   7.049  10.435  0.0546  1.0306  0.5694
  231MOL0     C30414   7.998   6.826  10.304 -0.2320  0.0130  0.1587
  231MOL0     C30415   7.881   6.779  10.373  0.2636  0.5100 -0.5297
  231MOL0     C30416   7.809   6.669  10.324  0.0774 -1.0559  0.1882
  231MOL0     C30417   7.863   6.588  10.225 -0.3788  0.5275  1.3865
  231MOL0     O30418   7.793   6.477  10.188 -0.1674 -0.7589 -0.4760
  231MOL0     C30419   7.668   6.500  10.119  0.3945 -0.3660 -0.0879
  231MOL0     C30420   7.535   6.444  10.193  0.2405  0.3251  0.0404
  231MOL0     C30421   7.505   6.298  10.179 -1.1786  0.5181 -0.8744
  231MOL0     C30422   7.454   6.243  10.313  0.4877  0.4789 -0.1889
  231MOL0     C30423   7.432   6.100  10.292  0.7573 -1.0149 -1.1161
  231MOL0     C30424   7.436   5.978  10.267  0.7633  0.9135 -0.2284
  231MOL0     C30425   7.995   6.623  10.171  0.2474  0.0987 -0.9392
  231MOL0     C30426   8.059   6.739  10.207  0.0560  0.7575  0.1333
  231MOL0     H30427   8.264   7.209  10.146 -0.6004 -2.7368 -0.3540
  231MOL0     H30428   8.458   7.344  10.221  1.7322 -1.3496 -0.9089
  231MOL0     H30429   8.761   7.141  10.481  0.7118 -0.1751  3.0700
  231MOL0     H30430   8.661   7.228  10.602  2.1726 -0.2107  0.5453
  231MOL0     H30431   8.818   7.421  10.546 -0.2368 -0.3883 -0.3903
  231MOL0     H30432   8.927   7.296  10.482 -1.4041 -0.1060 -1.5968
  231MOL0     H30433   8.803   7.271  10.749 -0.1905  2.2173  1.0184
  231MOL0     H30434   8.932   7.392  10.726  0.0063  0.5341 -1.3142
  231MOL0     H30435   8.934   7.096  10.733 -1.0708  2.0980  2.0058
  231MOL0     H30436   9.052   7.184  10.627  0.1851 -2.5648  0.0973
  231MOL0     H30437   8.990   7.209  10.922 -0.4073 -4.2835 -0.7380
  231MOL0     H30438   9.119   7.302  10.830 -2.0244  2.0643 -2.4514
  231MOL0     H30439   9.096   6.997  10.879  1.5730 -0.2277 -0.0733
  231MOL0     H30440   9.216   7.088  10.963 -0.4026  0.8076  0.3868
  231MOL0     H30441   9.315   6.958  10.775 -0.1487  0.1378  0.9464
  231MOL0     H30442   9.183   7.007  10.670 -3.2022  2.6473  1.3092
  231MOL0     H30443   9.267   7.253  10.670 -1.3660 -1.5952 -1.0570
  231MOL0     H30444   9.357   7.143  10.586  2.1211  1.3263 -0.0360
  231MOL0     H30445   9.595   7.038  10.719 -3.7054  0.3245 -0.7813
  231MOL0     H30446   9.847   7.242  10.894  2.0272 -2.0055 -2.2757
  231MOL0     H30447   9.814   7.080  10.834 -5.6099 -0.2241 -1.8502
  231MOL0     H30448   9.698   7.018  11.037  1.3997  0.2142  0.5020
  231MOL0     H30449   9.742   7.149  11.140 -1.1174 -0.0019  0.4238
  231MOL0     H30450   9.893   6.952  11.173 -1.6475  0.3831  0.1117
  231MOL0     H30451   9.930   6.955  11.003 -4.2110 -1.7641 -0.0766
  231MOL0     H30452  10.060   7.166  11.043 -1.2480  1.4579 -0.1855
  231MOL0     H30453  10.109   7.032  11.161 -0.3809 -0.5645  1.9267
  231MOL0     H30454   9.932   7.350  11.414  0.9126 -1.0130  0.4086
  231MOL0     H30455  10.101   7.483  11.542 -0.1880  1.1516 -0.5611
  231MOL0     H30456  10.439   7.734  11.628 -0.0052  1.9473 -1.5476
  231MOL0     H30457  10.613   7.874  11.731 -0.1261 -0.5031  0.2862
  231MOL0     H30458  11.024   7.868  11.544 -3.0548  3.0222  0.2621
  231MOL0     H30459  11.033   7.761  11.685  1.4787  1.0497  0.7720
  231MOL0     H30460  11.026   8.056  11.693 -1.6778 -0.7705  1.9420
  231MOL0     H30461  11.181   7.966  11.705  0.9570  0.9651  2.4190
  231MOL0     H30462  10.946   7.959  11.913  0.0653  2.9124  1.0520
  231MOL0     H30463  11.093   8.063  11.916 -4.4275  1.2031 -0.3266
  231MOL0     H30464  11.099   7.758  11.920 -1.0170  0.9151 -2.8221
  231MOL0     H30465  11.232   7.873  11.928  0.3911 -0.8256  0.5191
  231MOL0     H30466  11.107   7.965  12.145 -0.4141  0.9247 -1.8041
  231MOL0     H30467  11.205   7.809  12.152 -0.8208 -1.1043 -1.3206
  231MOL0     H30468  10.934   7.754  12.081  0.5676  1.0576 -0.9151
  231MOL0     H30469  10.916   7.890  12.194 -0.9440  0.6963  0.4803
  231MOL0     H30470  11.065   7.616  12.226  1.4281  0.9810  1.9668
  231MOL0     H30471  11.071   7.744  12.351 -0.3626 -0.6617  0.5334
  231MOL0     H30472  10.939   7.582  12.422 -2.7773 -1.2661 -0.2001
  231MOL0     H30473  10.818   7.607  12.291  0.1992 -0.5492  0.0828
  231MOL0     H30474  10.919   7.675  11.514  1.2274  2.4952  2.3969
  231MOL0     H30475  10.732   7.518  11.415  0.2863  2.3302 -2.5140
  231MOL0     H30476  10.413   7.365  11.282  0.2244 -0.7505  3.1139
  231MOL0     H30477  10.243   7.247  11.138 -0.4191  0.1658  0.3256
  231MOL0     H30478   8.497   7.085  10.562 -1.7545 -2.6233 -1.5070
  231MOL0     H30479   8.302   6.975  10.504  2.4251 -1.2259 -0.3573
  231MOL0     H30480   7.845   6.846  10.450  0.6685  0.1211  0.0048
  231MOL0     H30481   7.703   6.656  10.342 -0.0471 -0.8573 -0.3985
  231MOL0     H30482   7.691   6.452  10.023  1.4040  0.2385 -0.1690
  231MOL0     H30483   7.660   6.609  10.115  4.2656  0.1350  1.1537
  231MOL0     H30484   7.545   6.489  10.293 -5.0448  2.1042  0.0892
  231MOL0     H30485   7.455   6.495  10.138  1.7303  0.2733 -2.3326
  231MOL0     H30486   7.594   6.240  10.153  1.3460  3.6133  0.3049
  231MOL0     H30487   7.425   6.284  10.106 -1.0896 -1.8559 -0.5924
  231MOL0     H30488   7.531   6.259  10.389 -0.4678 -2.3450  1.5285
  231MOL0     H30489   7.357   6.282  10.345 -0.8571 -2.6397 -0.1353
  231MOL0     H30490   7.433   5.872  10.252 -0.0393  1.2868 -3.4526
  231MOL0     H30491   8.041   6.557  10.098  1.4373 -0.5562  0.3615
  231MOL0     H30492   8.149   6.756  10.149  0.4504  1.7300  1.0240
  232MOL0     O30493   1.560   2.872  10.507  0.2433  1.1108 -0.1725
  232MOL0     C30494   1.573   2.782  10.424  0.7801  0.9171  0.1576
  232MOL0     O30495   1.631   2.660  10.454 -0.3149  0.4901 -0.3820
  232MOL0     C30496   1.680   2.651  10.580 -0.0875  1.0550  0.3355
  232MOL0     C30497   1.813   2.650  10.607 -0.1669 -0.4017  0.1501
  232MOL0     C30498   1.859   2.629  10.736 -0.2901  1.0768  0.1426
  232MOL0     C30499   1.767   2.578  10.833  0.0080  0.2779 -0.8241
  232MOL0     O30500   1.817   2.559  10.963 -0.1073  0.8665  0.0159
  232MOL0     C30501   1.728   2.500  11.064 -0.2392  0.3472 -1.2420
  232MOL0     C30502   1.799   2.494  11.213  0.1879  0.0204 -0.1168
  232MOL0     C30503   1.903   2.379  11.238 -0.2898 -0.3092  0.0438
  232MOL0     C30504   1.986   2.410  11.360  0.3115  0.5886  0.7146
  232MOL0     C30505   2.112   2.312  11.356 -0.3007 -0.1716 -0.6294
  232MOL0     C30506   2.060   2.178  11.411 -0.0998 -0.2014 -0.0308
  232MOL0     C30507   2.056   2.185  11.567 -0.3040  0.1409  0.0038
  232MOL0     C30508   2.193   2.220  11.636 -0.0146  1.4022 -0.0624
  232MOL0     N30509   2.209   2.186  11.775  0.7836 -0.3582  0.0156
  232MOL0     C30510   2.248   2.060  11.811  0.2682 -0.1131  0.2916
  232MOL0     C30511   2.276   2.068  11.942 -0.0227  0.2574 -0.1932
  232MOL0     C30512   2.346   1.944  12.004 -0.0316 -0.5975  0.1820
  232MOL0     C30513   2.354   1.948  12.157 -0.5593  0.3083  0.0408
  232MOL0     C30514   2.380   1.814  12.234  0.7306  0.2150 -0.3342
  232MOL0     C30515   2.261   1.715  12.222  0.2768  1.4600  0.3084
  232MOL0     O30516   2.152   1.779  12.292  0.2195 -0.4827  0.8398
  232MOL0     C30517   2.060   1.701  12.355 -0.4276 -0.7889  0.1031
  232MOL0     C30518   1.983   1.762  12.456 -0.4179  0.2484  0.9284
  232MOL0     C30519   1.904   1.689  12.549 -0.4289 -0.0025  0.6249
  232MOL0     C30520   1.889   1.555  12.530 -0.2160  0.1634 -0.1854
  232MOL0     C30521   1.804   1.476  12.630  1.1106 -0.4812  1.0106
  232MOL0     O30522   1.737   1.548  12.731 -0.3126 -0.4752  0.6863
  232MOL0     C30523   1.665   1.489  12.831  1.1516  0.2448  0.1350
  232MOL0     C30524   1.533   1.458  12.810 -0.2858 -0.4495 -0.4941
  232MOL0     C30525   1.470   1.391  12.913  0.6854  0.0274 -0.0402
  232MOL0     C30526   1.515   1.391  13.046  0.4793 -0.2727 -0.0366
  232MOL0     O30527   1.450   1.327  13.149  0.2107 -0.3933  0.2472
  232MOL0     C30528   1.434   1.181  13.127  0.3000  0.1449  1.0852
  232MOL0     C30529   1.365   1.117  13.246 -0.0093 -0.0543  0.0151
  232MOL0     C30530   1.245   1.197  13.311 -0.4666 -0.0958  0.3119
  232MOL0     C30531   1.152   1.102  13.372 -0.5007  0.1169 -0.1489
  232MOL0     C30532   1.041   1.186  13.442 -0.6139  0.3118 -0.0820
  232MOL0     C30533   0.929   1.104  13.508  0.5935  0.4457 -0.6044
  232MOL0     C30534   0.819   1.197  13.561 -0.6057  0.9128 -0.1169
  232MOL0     C30535   0.861   1.289  13.676 -0.4410 -0.1320  0.4323
  232MOL0    Cl30536   0.737   1.402  13.723 -0.0358 -0.3155 -0.0475
  232MOL0     C30537   1.634   1.453  13.074  0.0615  0.3791 -0.7956
  232MOL0     C30538   1.712   1.490  12.969 -0.0789  0.4132  0.2993
  232MOL0     O30539   1.814   1.352  12.622  0.0175  0.1776  0.2623
  232MOL0     C30540   1.942   1.491  12.420  1.2869 -0.3521  0.1649
  232MOL0     C30541   2.039   1.560  12.337 -0.8629 -0.1710  0.4778
  232MOL0     N30542   2.245   2.196  11.991  0.3831  0.0090  0.3864
  232MOL0     N30543   2.203   2.265  11.888  0.4288 -0.6465 -0.6500
  232MOL0     C30544   1.633   2.585  10.805  0.7308 -1.1937 -0.1958
  232MOL0     C30545   1.591   2.601  10.670  0.0119  0.5982  0.1683
  232MOL0     C30546   1.529   2.799  10.285  0.6424  0.1774 -0.7295
  232MOL0     C30547   1.476   2.922  10.235  0.4945 -0.9038 -0.8752
  232MOL0     C30548   1.462   2.942  10.099  1.0886  0.6408  0.1154
  232MOL0     C30549   1.503   2.844  10.004  0.1080 -0.0849 -0.8202
  232MOL0     O30550   1.510   2.872   9.869  0.5383  0.5037  0.2034
  232MOL0     C30551   1.423   2.979   9.819 -0.4555 -0.5901 -0.0228
  232MOL0     C30552   1.280   2.904   9.814  0.4878 -0.2577 -0.5197
  232MOL0     C30553   1.227   2.904   9.675 -0.1269  0.8512  0.1374
  232MOL0     C30554   1.300   2.788   9.595  0.1058  0.8371 -0.2860
  232MOL0     C30555   1.274   2.788   9.451  0.6032  0.5606  0.2282
  232MOL0     C30556   1.268   2.771   9.333 -0.2254 -0.7823  0.6948
  232MOL0     C30557   1.554   2.730  10.059  0.5677  0.2168  0.4945
  232MOL0     C30558   1.572   2.708  10.191  0.2999 -0.8171  0.0214
  232MOL0     H30559   1.872   2.689  10.525 -3.4971  0.7475 -1.9174
  232MOL0     H30560   1.964   2.636  10.765 -0.9363 -2.0689  4.1924
  232MOL0     H30561   1.697   2.403  11.023 -2.6269  0.2349  0.6048
  232MOL0     H30562   1.636   2.554  11.090  0.5810  1.1196  0.1633
  232MOL0     H30563   1.724   2.476  11.291  1.0403  0.1956  0.7687
  232MOL0     H30564   1.843   2.594  11.217  3.9836 -1.1351 -4.5310
  232MOL0     H30565   1.964   2.381  11.148  3.1095  5.1765  1.9819
  232MOL0     H30566   1.843   2.290  11.262  1.5661 -0.8867  3.1009
  232MOL0     H30567   2.015   2.516  11.362  0.2496  0.6599 -0.9688
  232MOL0     H30568   1.918   2.388  11.443  0.4596 -1.0449  0.4333
  232MOL0     H30569   2.197   2.341  11.418 -0.6611 -0.2484 -0.0904
  232MOL0     H30570   2.152   2.298  11.255  2.3632 -1.9510  0.5681
  232MOL0     H30571   2.135   2.100  11.396  0.7443  0.6400 -0.2600
  232MOL0     H30572   1.963   2.142  11.375  1.2731 -1.0555 -3.1610
  232MOL0     H30573   1.979   2.254  11.602  0.0448 -0.9008  3.0596
  232MOL0     H30574   2.022   2.087  11.599  0.4308  0.6673  2.6037
  232MOL0     H30575   2.214   2.327  11.636  0.5909  1.6264  5.5644
  232MOL0     H30576   2.268   2.171  11.574 -2.9558 -1.9611 -1.3484
  232MOL0     H30577   2.280   1.980  11.746  0.6165  0.2970 -0.0426
  232MOL0     H30578   2.447   1.940  11.963 -0.0988  2.4616 -0.5417
  232MOL0     H30579   2.295   1.854  11.968  1.6404 -0.8392 -1.6992
  232MOL0     H30580   2.263   1.993  12.197  1.0903  3.0379  1.0079
  232MOL0     H30581   2.437   2.016  12.181  0.7667 -0.9447 -0.8820
  232MOL0     H30582   2.468   1.759  12.202  0.1802 -1.9402  1.6015
  232MOL0     H30583   2.396   1.824  12.341  1.4464 -3.6189  0.0526
  232MOL0     H30584   2.289   1.621  12.270 -1.3439  1.5088  1.4051
  232MOL0     H30585   2.237   1.687  12.119 -0.1093  1.3941  0.4139
  232MOL0     H30586   1.991   1.870  12.469 -5.0348  0.7021  1.9239
  232MOL0     H30587   1.860   1.739  12.635  2.4779 -0.4720  2.5195
  232MOL0     H30588   1.495   1.451  12.708 -1.0401 -4.0207 -0.0874
  232MOL0     H30589   1.385   1.329  12.887  0.3454  0.2127  0.6121
  232MOL0     H30590   1.524   1.129  13.093  1.6513  3.4402 -0.9466
  232MOL0     H30591   1.373   1.171  13.037  2.7339  0.1482 -0.6809
  232MOL0     H30592   1.422   1.094  13.337  0.8509 -0.6438 -0.6642
  232MOL0     H30593   1.327   1.019  13.216 -1.0889 -0.4833  2.4473
  232MOL0     H30594   1.196   1.256  13.234  2.0759  2.0483  0.1960
  232MOL0     H30595   1.294   1.253  13.391  1.6220 -1.6022  0.1871
  232MOL0     H30596   1.092   1.039  13.306 -2.8283 -1.0411  2.8212
  232MOL0     H30597   1.205   1.036  13.440 -0.8810 -1.3005 -1.1839
  232MOL0     H30598   0.990   1.257  13.375  0.5191  0.1276 -1.1789
  232MOL0     H30599   1.087   1.253  13.515 -2.9855  0.6471  1.2227
  232MOL0     H30600   0.968   1.056  13.599 -1.2723  2.3871  1.3476
  232MOL0     H30601   0.894   1.035  13.431 -0.0526  0.1993 -0.1071
  232MOL0     H30602   0.778   1.253  13.477 -1.4200 -0.0772 -0.3902
  232MOL0     H30603   0.733   1.139  13.594  1.5965 -3.1520 -0.8298
  232MOL0     H30604   0.948   1.345  13.642 -0.4977  0.8191  1.7741
  232MOL0     H30605   0.892   1.226  13.759 -0.3431 -1.4341 -0.5594
  232MOL0     H30606   1.686   1.435  13.167  0.6620  1.7175 -0.8575
  232MOL0     H30607   1.816   1.513  12.984  0.0155  0.0584  0.2072
  232MOL0     H30608   1.933   1.385  12.402 -0.4286  0.2901 -4.1310
  232MOL0     H30609   2.105   1.514  12.264  3.6727 -0.1603  4.1561
  232MOL0     H30610   1.555   2.583  10.880  0.6459  3.7404  0.1787
  232MOL0     H30611   1.485   2.601  10.647  0.1223  1.1140 -0.3678
  232MOL0     H30612   1.443   2.991  10.312  0.2630 -2.6923  0.7080
  232MOL0     H30613   1.417   3.039  10.080 -1.6171  0.0364  2.7385
  232MOL0     H30614   1.468   3.017   9.727  1.1333  0.5747  1.1809
  232MOL0     H30615   1.416   3.069   9.882  1.4287 -0.7711  0.5195
  232MOL0     H30616   1.290   2.798   9.837 -0.2666  0.0075  1.1362
  232MOL0     H30617   1.208   2.947   9.883  1.5758  1.3057 -0.2960
  232MOL0     H30618   1.250   3.002   9.633 -3.1341  1.8317  0.5724
  232MOL0     H30619   1.119   2.895   9.660  0.1730  1.7704 -3.5654
  232MOL0     H30620   1.409   2.795   9.604  0.3782  1.0684 -2.8509
  232MOL0     H30621   1.250   2.697   9.628  0.9115 -0.0398 -1.3899
  232MOL0     H30622   1.259   2.771   9.226 -1.7480 -2.2665  0.7726
  232MOL0     H30623   1.586   2.659   9.984  0.6455  2.6594 -1.9488
  232MOL0     H30624   1.598   2.605  10.213  1.4536 -0.1963  1.7004
  233MOL0     O30625   3.724   1.609   1.807 -0.1565 -0.0975  0.2876
  233MOL0     C30626   3.787   1.545   1.894  0.5202 -0.1523  0.7057
  233MOL0     O30627   3.836   1.606   2.005  0.0823 -0.1091  0.3882
  233MOL0     C30628   3.817   1.562   2.132  0.2523 -0.0089 -0.0863
  233MOL0     C30629   3.728   1.468   2.175  0.1649  0.6315 -0.3069
  233MOL0     C30630   3.699   1.445   2.318  0.2538 -0.2790  0.1297
  233MOL0     C30631   3.776   1.514   2.413  0.9898 -0.1712  0.4148
  233MOL0     O30632   3.764   1.487   2.545  0.5301 -0.0569  0.1842
  233MOL0     C30633   3.655   1.399   2.589  0.5513  0.2275 -0.4001
  233MOL0     C30634   3.655   1.400   2.746 -0.6508  0.1309  0.6995
  233MOL0     C30635   3.644   1.536   2.810  0.7817 -0.6282 -0.0435
  233MOL0     C30636   3.645   1.563   2.964 -0.2682 -0.8025 -0.1081
  233MOL0     C30637   3.774   1.576   3.044  0.3076 -0.4520 -0.2253
  233MOL0     C30638   3.874   1.682   2.983  0.1785 -0.5064 -0.2431
  233MOL0     C30639   3.988   1.729   3.074 -0.4797  0.5785  0.8526
  233MOL0     C30640   4.083   1.617   3.109  0.5370  1.2262 -0.7447
  233MOL0     N30641   4.188   1.673   3.195  0.2748  0.3718 -0.5835
  233MOL0     C30642   4.164   1.747   3.312  0.5610  0.3774 -0.2691
  233MOL0     C30643   4.287   1.762   3.374  0.2392 -0.7925 -0.8794
  233MOL0     C30644   4.307   1.846   3.491 -0.8347  0.5186  0.6062
  233MOL0     C30645   4.303   1.770   3.621  0.0613  0.4988 -1.0621
  233MOL0     C30646   4.163   1.708   3.658 -0.9674  0.7072 -0.1901
  233MOL0     C30647   4.189   1.607   3.763 -0.4310 -0.0168  0.2565
  233MOL0     O30648   4.224   1.669   3.880  0.5663 -0.6117 -0.5052
  233MOL0     C30649   4.272   1.593   3.987 -0.6571 -0.1527  0.3151
  233MOL0     C30650   4.194   1.499   4.057 -0.1053  0.2481  1.3582
  233MOL0     C30651   4.244   1.420   4.161 -0.1146  0.0654 -0.7848
  233MOL0     C30652   4.385   1.433   4.196  0.2531  0.7258 -0.1291
  233MOL0     C30653   4.446   1.340   4.295  0.4660 -0.8352  0.2340
  233MOL0     O30654   4.352   1.253   4.348 -0.2744 -0.0974 -0.4646
  233MOL0     C30655   4.386   1.172   4.449 -0.5580 -0.4636 -0.9285
  233MOL0     C30656   4.415   1.201   4.586  1.0619  0.8935  0.4188
  233MOL0     C30657   4.474   1.113   4.674  0.5086  0.3831  0.1741
  233MOL0     C30658   4.514   0.989   4.634  0.4991  0.2993  0.7345
  233MOL0     O30659   4.588   0.898   4.710 -0.1066 -0.5185 -0.5356
  233MOL0     C30660   4.620   0.943   4.844  0.0346  0.2839 -0.3954
  233MOL0     C30661   4.722   0.855   4.905 -0.2240  0.5843 -0.3487
  233MOL0     C30662   4.670   0.717   4.939  0.4719 -0.0189 -0.6260
  233MOL0     C30663   4.778   0.629   5.006 -0.3119  0.0896 -0.3645
  233MOL0     C30664   4.719   0.523   5.097  0.2275  0.3323 -0.4515
  233MOL0     C30665   4.834   0.449   5.171 -0.5391  0.7872  0.9913
  233MOL0     C30666   4.757   0.361   5.273  0.2763 -0.3733  0.5276
  233MOL0     C30667   4.847   0.297   5.380 -0.6046  0.0176  0.0401
  233MOL0    Cl30668   4.901   0.435   5.486  0.0058  0.2424  0.0597
  233MOL0     C30669   4.487   0.955   4.502 -0.3161 -0.6381  1.1608
  233MOL0     C30670   4.424   1.042   4.412  0.0390 -0.9638 -0.7275
  233MOL0     O30671   4.562   1.334   4.320  0.3983  0.2450 -0.3555
  233MOL0     C30672   4.462   1.530   4.135  0.1633 -0.6243 -0.0308
  233MOL0     C30673   4.404   1.623   4.035  0.1099  1.4898 -0.7199
  233MOL0     N30674   4.384   1.706   3.286  0.1980 -0.6903  0.1283
  233MOL0     N30675   4.321   1.649   3.193  0.2237  0.2805  0.6530
  233MOL0     C30676   3.860   1.620   2.377  0.0864  0.5976 -0.3285
  233MOL0     C30677   3.880   1.637   2.238  0.1680 -0.0714  0.1935
  233MOL0     C30678   3.800   1.399   1.878  0.3735 -0.5568 -0.4893
  233MOL0     C30679   3.723   1.336   1.776  0.6428  0.2776  1.0750
  233MOL0     C30680   3.752   1.196   1.751  0.4006 -0.6314  0.8560
  233MOL0     C30681   3.852   1.127   1.828 -0.0511 -0.4075 -0.3431
  233MOL0     O30682   3.907   1.010   1.789  0.0434  0.4741  0.2658
  233MOL0     C30683   3.869   0.967   1.656 -0.3193  0.7770  0.2511
  233MOL0     C30684   3.949   0.839   1.643 -0.4283  0.7512  0.5437
  233MOL0     C30685   3.972   0.808   1.489 -0.1432 -0.2284 -0.1463
  233MOL0     C30686   4.047   0.679   1.455  0.3656  0.6424 -0.6035
  233MOL0     C30687   4.167   0.657   1.538 -0.9980 -0.8823  0.1791
  233MOL0     C30688   4.269   0.630   1.601 -0.2899 -0.0024  0.4458
  233MOL0     C30689   3.913   1.192   1.937 -0.2595 -0.1758 -0.4310
  233MOL0     C30690   3.892   1.330   1.953  0.5623  0.0200  0.1681
  233MOL0     H30691   3.681   1.403   2.102  0.3287 -0.9501  0.9432
  233MOL0     H30692   3.625   1.368   2.335 -0.6515 -0.3493 -3.3313
  233MOL0     H30693   3.668   1.295   2.559  3.6179  1.8492 -6.0669
  233MOL0     H30694   3.560   1.444   2.559 -0.0972 -2.6096 -3.0490
  233MOL0     H30695   3.746   1.346   2.775 -0.8884 -1.0516 -0.6121
  233MOL0     H30696   3.564   1.353   2.786 -2.5033  1.4205 -1.7306
  233MOL0     H30697   3.548   1.578   2.779  1.3927  2.0538  1.3619
  233MOL0     H30698   3.712   1.601   2.754  0.4966 -1.3655 -1.2744
  233MOL0     H30699   3.607   1.665   2.968 -1.8533 -1.3330 -0.6848
  233MOL0     H30700   3.586   1.486   3.016  1.0556 -2.0088 -0.3184
  233MOL0     H30701   3.828   1.484   3.071  3.3983  0.8381 -1.6004
  233MOL0     H30702   3.744   1.621   3.139 -1.5196 -1.1272 -0.4362
  233MOL0     H30703   3.809   1.766   2.957  1.4522  0.3508 -0.7912
  233MOL0     H30704   3.921   1.635   2.896  0.6622  0.6242 -0.6255
  233MOL0     H30705   4.041   1.803   3.013  0.7089 -2.6471 -2.3659
  233MOL0     H30706   3.933   1.779   3.154 -0.1353  0.5184  1.1312
  233MOL0     H30707   4.135   1.578   3.020  0.5643 -2.4668  0.7164
  233MOL0     H30708   4.024   1.542   3.163  0.8503  1.5509  0.0588
  233MOL0     H30709   4.064   1.769   3.347 -0.0262  1.7756 -2.6058
  233MOL0     H30710   4.246   1.937   3.482  0.1129  1.0576 -0.7649
  233MOL0     H30711   4.410   1.883   3.485 -1.1661  1.3034 -0.7313
  233MOL0     H30712   4.335   1.840   3.699 -1.6869 -0.8889  1.0374
  233MOL0     H30713   4.371   1.684   3.624 -2.0552 -1.2301 -0.5054
  233MOL0     H30714   4.106   1.793   3.699 -0.0433  1.0502  0.4052
  233MOL0     H30715   4.103   1.670   3.575  0.2130  0.5609 -0.9909
  233MOL0     H30716   4.265   1.531   3.742 -0.7778 -1.0849  2.5180
  233MOL0     H30717   4.100   1.546   3.781  1.0007 -3.2706 -2.5860
  233MOL0     H30718   4.104   1.467   4.005  2.6056 -1.4872 -2.8297
  233MOL0     H30719   4.181   1.350   4.215 -2.3054  0.8125 -2.2686
  233MOL0     H30720   4.372   1.294   4.620  0.6809  1.0865 -0.5732
  233MOL0     H30721   4.475   1.131   4.781 -1.0240 -0.6491  0.3931
  233MOL0     H30722   4.526   0.936   4.899 -2.4001 -0.8868 -4.3487
  233MOL0     H30723   4.665   1.043   4.852 -0.1579  0.3997 -0.7736
  233MOL0     H30724   4.762   0.899   4.997  1.2707  1.8050 -1.5155
  233MOL0     H30725   4.813   0.845   4.845 -0.5602 -0.1010 -0.7517
  233MOL0     H30726   4.617   0.661   4.862  1.1430  0.8597 -1.7558
  233MOL0     H30727   4.585   0.731   5.007  0.9221 -0.6485  0.0875
  233MOL0     H30728   4.842   0.584   4.929 -2.6739 -2.5058 -0.9760
  233MOL0     H30729   4.840   0.684   5.078  0.1556  0.3570 -0.9595
  233MOL0     H30730   4.640   0.461   5.054  0.0950  0.2359 -0.0709
  233MOL0     H30731   4.664   0.575   5.176  2.5019  0.7182  0.9688
  233MOL0     H30732   4.906   0.514   5.222  1.8372 -0.7971 -0.1403
  233MOL0     H30733   4.874   0.377   5.098 -3.6302  2.0702 -2.2831
  233MOL0     H30734   4.678   0.409   5.332 -2.4154 -4.4604  0.6310
  233MOL0     H30735   4.713   0.284   5.209  1.0192 -1.6357  1.4963
  233MOL0     H30736   4.920   0.241   5.322 -2.9669  0.1161 -3.2994
  233MOL0     H30737   4.785   0.237   5.448  1.0264  0.6304  2.1662
  233MOL0     H30738   4.536   0.864   4.468 -0.8876 -0.0697 -1.3909
  233MOL0     H30739   4.413   1.035   4.305  0.3973 -0.8253 -0.7740
  233MOL0     H30740   4.565   1.539   4.168 -0.5039  0.8324  1.9097
  233MOL0     H30741   4.470   1.690   3.982  0.9483 -0.7909 -2.7757
  233MOL0     H30742   3.909   1.676   2.457  0.6209  0.5371 -0.6060
  233MOL0     H30743   3.929   1.725   2.198 -0.2883 -0.4419 -1.2563
  233MOL0     H30744   3.659   1.393   1.710  0.5429 -0.6091  0.3866
  233MOL0     H30745   3.718   1.149   1.659 -0.1393 -2.4608  1.9253
  233MOL0     H30746   3.903   1.043   1.585 -1.7581  2.1366  0.9371
  233MOL0     H30747   3.762   0.944   1.646  0.2692 -2.1885 -0.0841
  233MOL0     H30748   4.048   0.855   1.686  0.0155  1.8607 -0.8060
  233MOL0     H30749   3.888   0.768   1.699  1.6535  1.0555  3.4069
  233MOL0     H30750   4.035   0.890   1.453 -0.0322 -0.5006 -0.5786
  233MOL0     H30751   3.886   0.815   1.422  0.8680 -0.7874 -1.5538
  233MOL0     H30752   3.973   0.599   1.459  0.2610  0.6619 -1.7929
  233MOL0     H30753   4.073   0.690   1.349 -0.1090  2.9333 -0.5439
  233MOL0     H30754   4.363   0.590   1.634  1.4871  1.0693 -2.8134
  233MOL0     H30755   3.998   1.139   1.978  0.0147  0.1403 -0.5800
  233MOL0     H30756   3.954   1.382   2.025  0.4900 -0.5842  0.6731
  234MOL0     O30757   1.172   6.818   8.597 -1.0012 -0.0551 -0.3085
  234MOL0     C30758   1.185   6.901   8.512 -0.9461 -1.2831  0.1691
  234MOL0     O30759   1.287   6.990   8.504  0.5234  0.1938  0.9748
  234MOL0     C30760   1.397   6.977   8.583 -0.3234 -0.3275  0.5575
  234MOL0     C30761   1.434   7.089   8.665 -0.4470  0.2476 -0.3058
  234MOL0     C30762   1.559   7.086   8.724 -0.0605  0.2263 -0.7077
  234MOL0     C30763   1.641   6.972   8.712 -0.9194  0.6054 -0.8354
  234MOL0     O30764   1.761   6.953   8.774  0.0449  0.0102  0.5194
  234MOL0     C30765   1.864   7.026   8.715 -0.1189  0.4464 -0.1197
  234MOL0     C30766   1.995   6.988   8.780 -0.0316  0.5589 -0.8999
  234MOL0     C30767   2.114   7.059   8.726  0.1900 -0.2484  0.1957
  234MOL0     C30768   2.239   7.004   8.780 -0.0595  0.5458 -0.0781
  234MOL0     C30769   2.356   7.003   8.675 -0.2932 -0.3453 -0.1694
  234MOL0     C30770   2.329   6.911   8.563  0.2867  0.7168  0.6764
  234MOL0     C30771   2.441   6.925   8.458 -0.4007  0.0868  0.2149
  234MOL0     C30772   2.439   7.058   8.369  1.0721 -0.7275  0.9200
  234MOL0     N30773   2.549   7.068   8.269  0.0683 -0.9031 -0.3320
  234MOL0     C30774   2.615   6.964   8.217 -0.5142 -0.2090 -0.6640
  234MOL0     C30775   2.701   7.022   8.125 -0.0578  0.3922  0.2318
  234MOL0     C30776   2.817   6.963   8.046  0.4934  0.3557 -0.6630
  234MOL0     C30777   2.874   7.048   7.932 -1.3425 -0.2626 -0.0808
  234MOL0     C30778   2.872   6.983   7.802  0.5064  1.7170  0.9572
  234MOL0     C30779   2.924   7.079   7.686  0.4377 -0.1086 -0.2516
  234MOL0     O30780   3.033   7.166   7.717 -0.6727  0.4944 -0.1123
  234MOL0     C30781   3.155   7.126   7.759 -1.0014 -0.4882  0.1651
  234MOL0     C30782   3.208   6.998   7.786 -0.1049  0.7301  0.0072
  234MOL0     C30783   3.336   6.978   7.808  0.2248 -0.3488  0.4180
  234MOL0     C30784   3.431   7.083   7.799 -0.3442  0.5002 -0.4911
  234MOL0     C30785   3.575   7.059   7.825  0.3577  1.0852 -0.3569
  234MOL0     O30786   3.659   7.156   7.784 -0.2677  0.9766 -0.0438
  234MOL0     C30787   3.793   7.156   7.826  0.0039  0.4791  0.8830
  234MOL0     C30788   3.835   7.262   7.905  0.1312 -0.1126 -0.7577
  234MOL0     C30789   3.966   7.275   7.938 -0.6818 -0.1297  0.4037
  234MOL0     C30790   4.063   7.185   7.901 -0.5637  0.3658 -0.7535
  234MOL0     O30791   4.185   7.204   7.952 -0.2315  0.8689  0.3920
  234MOL0     C30792   4.293   7.133   7.895 -0.3687  0.5847  0.7991
  234MOL0     C30793   4.428   7.206   7.931  0.5843 -0.1438  0.3535
  234MOL0     C30794   4.548   7.138   7.853  0.2702  0.1579  0.3111
  234MOL0     C30795   4.659   7.240   7.829  0.3799 -0.1261 -0.1438
  234MOL0     C30796   4.759   7.172   7.738 -1.2161  0.2263  0.0875
  234MOL0     C30797   4.874   7.264   7.689 -0.8880  0.4308  0.8457
  234MOL0     C30798   4.962   7.199   7.584  0.6793 -0.0646 -0.3657
  234MOL0     C30799   5.026   7.310   7.501 -0.3594  0.2981 -0.7668
  234MOL0    Cl30800   5.157   7.248   7.387 -0.2570  0.8033 -0.2222
  234MOL0     C30801   4.022   7.062   7.828 -0.8608  0.0210 -0.4484
  234MOL0     C30802   3.883   7.056   7.784 -0.5522  0.3318 -0.1052
  234MOL0     O30803   3.606   6.946   7.873  0.1846 -0.0051  0.2683
  234MOL0     C30804   3.382   7.205   7.765  0.4751  0.0904 -0.4495
  234MOL0     C30805   3.249   7.224   7.745  0.7402 -0.4920 -0.5106
  234MOL0     N30806   2.670   7.155   8.121 -0.2975 -1.6100 -0.0983
  234MOL0     N30807   2.588   7.181   8.211  0.1960  0.4750 -0.1105
  234MOL0     C30808   1.593   6.868   8.631 -0.9790 -0.2657 -0.4193
  234MOL0     C30809   1.477   6.874   8.568 -0.8030 -0.4122  0.6925
  234MOL0     C30810   1.091   6.916   8.402  0.5048 -0.4494  0.3276
  234MOL0     C30811   0.958   6.885   8.425 -0.4520 -1.0722 -0.2996
  234MOL0     C30812   0.870   6.892   8.314  0.7190  0.0199  0.3239
  234MOL0     C30813   0.908   6.952   8.192  0.1070 -0.3237 -0.6095
  234MOL0     O30814   0.814   6.974   8.094  0.4702  0.2305 -0.7041
  234MOL0     C30815   0.842   7.054   7.983 -0.0195 -0.5303  0.2807
  234MOL0     C30816   0.762   7.027   7.854 -0.0784 -0.2049  0.2258
  234MOL0     C30817   0.616   6.999   7.883 -0.6729 -0.4699 -0.1640
  234MOL0     C30818   0.523   6.956   7.768 -0.6295 -0.4738  0.0385
  234MOL0     C30819   0.378   6.974   7.802  0.0109 -0.2568  0.1994
  234MOL0     C30820   0.266   6.990   7.855  1.0565  0.0631 -0.2480
  234MOL0     C30821   1.034   7.008   8.183 -0.6757  0.5200  0.2714
  234MOL0     C30822   1.134   6.973   8.278 -0.6387 -0.5236 -0.4886
  234MOL0     H30823   1.386   7.186   8.668  4.5092  3.0662 -0.1144
  234MOL0     H30824   1.584   7.172   8.786 -2.3331 -0.7573  1.7296
  234MOL0     H30825   1.837   7.131   8.732 -1.1700  0.4724 -1.7265
  234MOL0     H30826   1.874   7.005   8.608 -0.0190  2.4549 -0.5595
  234MOL0     H30827   2.003   6.881   8.760 -3.0740 -0.2574  1.4771
  234MOL0     H30828   1.985   6.998   8.889  0.4796  0.2760 -0.8252
  234MOL0     H30829   2.118   7.165   8.751 -0.7537 -0.4002  1.0548
  234MOL0     H30830   2.115   7.067   8.617 -0.5228 -0.7630  0.1396
  234MOL0     H30831   2.264   7.061   8.869 -2.5715  2.9988 -0.8269
  234MOL0     H30832   2.235   6.896   8.801  1.4864  0.2404 -1.1535
  234MOL0     H30833   2.454   6.975   8.715 -0.7535 -0.1551  1.1507
  234MOL0     H30834   2.375   7.104   8.637 -0.4905  0.0202  0.6631
  234MOL0     H30835   2.234   6.938   8.517  0.6040 -0.0071 -0.4339
  234MOL0     H30836   2.334   6.809   8.603  0.9201 -0.2849 -1.7502
  234MOL0     H30837   2.535   6.909   8.512 -0.9883 -3.2448  0.4857
  234MOL0     H30838   2.451   6.840   8.389  0.5070  1.1450 -1.0009
  234MOL0     H30839   2.448   7.142   8.438  2.9444  0.1368 -0.2761
  234MOL0     H30840   2.350   7.078   8.309  1.2148  4.1931  1.9499
  234MOL0     H30841   2.614   6.863   8.257  0.6627 -0.6795 -1.7317
  234MOL0     H30842   2.788   6.862   8.018  0.4344 -0.4058  1.9624
  234MOL0     H30843   2.897   6.939   8.117  1.8213 -2.5694 -2.9420
  234MOL0     H30844   2.978   7.072   7.958 -0.9240  4.0031 -4.3950
  234MOL0     H30845   2.824   7.145   7.926  0.3381  0.7223  0.9489
  234MOL0     H30846   2.936   6.895   7.799  1.4523  2.4035  0.1126
  234MOL0     H30847   2.770   6.945   7.785  2.0015 -1.4922 -2.3576
  234MOL0     H30848   2.837   7.135   7.651 -0.8154 -1.9719 -0.2539
  234MOL0     H30849   2.946   7.022   7.595  0.1733 -1.0514  0.2626
  234MOL0     H30850   3.137   6.916   7.784 -0.8572  1.3841 -0.6102
  234MOL0     H30851   3.374   6.882   7.840  0.6475 -0.7425 -1.1873
  234MOL0     H30852   3.762   7.336   7.937  1.2969  0.1897  1.3090
  234MOL0     H30853   3.989   7.367   7.991 -0.3739  1.6176 -2.5749
  234MOL0     H30854   4.271   7.107   7.791 -2.7827  0.6265  1.2443
  234MOL0     H30855   4.294   7.033   7.938 -0.8284 -0.8642 -2.3145
  234MOL0     H30856   4.441   7.210   8.040  0.8896  3.2542  0.3011
  234MOL0     H30857   4.420   7.306   7.888  0.0020 -0.6224 -0.6774
  234MOL0     H30858   4.508   7.094   7.761 -1.2354  4.0413 -1.0724
  234MOL0     H30859   4.583   7.052   7.911 -2.0568 -0.4201  0.9956
  234MOL0     H30860   4.619   7.329   7.780 -4.7834 -1.5230  0.9592
  234MOL0     H30861   4.702   7.269   7.926  1.8735 -1.2046 -0.4464
  234MOL0     H30862   4.701   7.131   7.655 -0.7421 -1.8147  0.7123
  234MOL0     H30863   4.804   7.087   7.791 -3.1043 -1.6531 -1.1558
  234MOL0     H30864   4.928   7.285   7.783 -1.2245  0.9740  0.9236
  234MOL0     H30865   4.835   7.358   7.649 -1.6180 -1.4844 -3.4945
  234MOL0     H30866   5.040   7.139   7.633  2.0701  3.9814  2.9902
  234MOL0     H30867   4.904   7.136   7.516 -1.2360  1.2428 -0.0316
  234MOL0     H30868   5.067   7.383   7.571 -0.6072  0.7175 -1.0584
  234MOL0     H30869   4.955   7.358   7.433  0.8461  0.5185 -1.9203
  234MOL0     H30870   4.090   6.983   7.800  2.0306  1.1862  2.6026
  234MOL0     H30871   3.847   6.969   7.730 -1.1168 -0.1269  0.9677
  234MOL0     H30872   3.461   7.277   7.748 -0.4218  1.3516  0.5878
  234MOL0     H30873   3.232   7.322   7.702  1.8436  0.0834  0.3025
  234MOL0     H30874   1.671   6.793   8.627  1.0126  1.6830 -0.1793
  234MOL0     H30875   1.448   6.783   8.516 -3.0670  0.5533  0.1479
  234MOL0     H30876   0.922   6.833   8.513  3.9154 -1.4391  1.5602
  234MOL0     H30877   0.772   6.846   8.305  0.2308  0.4965  2.5042
  234MOL0     H30878   0.946   7.050   7.947  0.1363 -0.2810  0.6978
  234MOL0     H30879   0.822   7.160   8.005  1.5350  0.1900 -1.4647
  234MOL0     H30880   0.785   7.100   7.776 -3.4417 -1.4432 -2.1718
  234MOL0     H30881   0.802   6.932   7.818 -1.6965 -0.0636 -2.1636
  234MOL0     H30882   0.580   7.096   7.920 -0.1366 -0.1129 -0.5598
  234MOL0     H30883   0.604   6.942   7.976 -0.6971  2.2561  1.6223
  234MOL0     H30884   0.550   7.011   7.678  0.8184 -0.1986  0.6185
  234MOL0     H30885   0.551   6.851   7.755  0.1989 -0.5148  1.8375
  234MOL0     H30886   0.176   6.997   7.913  0.5141  5.0089 -1.1958
  234MOL0     H30887   1.068   7.067   8.098  2.6760  0.4255  1.3717
  234MOL0     H30888   1.236   7.000   8.255 -0.2684 -2.6492 -1.5344
  235MOL0     O30889   6.933   6.797   8.647  0.4400 -0.6060  0.2311
  235MOL0     C30890   6.975   6.905   8.695 -0.1866 -0.4588  0.0850
  235MOL0     O30891   6.979   7.022   8.628  0.5394 -0.4732  0.3596
  235MOL0     C30892   6.884   7.038   8.520 -0.3058 -0.3303 -0.1619
  235MOL0     C30893   6.899   6.964   8.402 -0.0644 -0.3322 -0.2503
  235MOL0     C30894   6.806   6.971   8.309  0.2627 -0.2503 -0.4396
  235MOL0     C30895   6.691   7.050   8.333  0.4226  1.1473  0.0931
  235MOL0     O30896   6.582   7.061   8.248  0.6743 -0.0472 -0.1759
  235MOL0     C30897   6.574   6.980   8.130  0.9699  0.0828  0.6675
  235MOL0     C30898   6.435   7.001   8.078  0.2165 -0.2629 -0.5209
  235MOL0     C30899   6.406   6.937   7.943 -0.9214 -0.0085 -0.0289
  235MOL0     C30900   6.297   6.821   7.958  0.8683 -0.2371 -0.1136
  235MOL0     C30901   6.269   6.773   7.820 -1.3861 -0.1110  0.8311
  235MOL0     C30902   6.162   6.652   7.815  0.7363  0.5000 -0.9656
  235MOL0     C30903   6.123   6.593   7.676 -0.6553 -0.1719 -0.6883
  235MOL0     C30904   6.017   6.483   7.700  0.0103 -0.3776 -0.2350
  235MOL0     N30905   5.876   6.531   7.694  0.5188 -0.2553  0.4052
  235MOL0     C30906   5.765   6.456   7.721  1.2655 -1.1401 -0.2507
  235MOL0     C30907   5.659   6.538   7.702  0.0827  0.3644  0.6585
  235MOL0     C30908   5.518   6.484   7.698 -0.2196 -0.3753  0.5309
  235MOL0     C30909   5.442   6.495   7.562  0.2154 -0.6413  0.2429
  235MOL0     C30910   5.511   6.418   7.452 -0.9337 -0.7446 -0.1263
  235MOL0     C30911   5.426   6.413   7.320  0.4011 -0.3664 -0.6372
  235MOL0     O30912   5.476   6.312   7.227 -0.5138  0.0238  0.2824
  235MOL0     C30913   5.421   6.331   7.096 -0.4002 -0.5747  0.0093
  235MOL0     C30914   5.315   6.420   7.063 -0.1500  0.1011  0.6497
  235MOL0     C30915   5.269   6.432   6.927 -0.1966  1.4204 -0.1837
  235MOL0     C30916   5.318   6.358   6.823 -0.2127  0.0357 -0.2604
  235MOL0     C30917   5.255   6.365   6.696 -0.7131  0.3483  0.0121
  235MOL0     O30918   5.123   6.403   6.690 -0.7787 -0.0286  0.3836
  235MOL0     C30919   5.053   6.446   6.579 -0.1501  0.2628 -0.3677
  235MOL0     C30920   4.915   6.449   6.591  0.1874  0.1541 -0.4437
  235MOL0     C30921   4.832   6.518   6.496 -0.1221  0.1465  0.7343
  235MOL0     C30922   4.891   6.577   6.378 -0.4468 -1.1130  0.2572
  235MOL0     O30923   4.822   6.648   6.281  0.5425  0.7220 -0.3312
  235MOL0     C30924   4.686   6.698   6.316  0.3367 -0.9787 -0.3444
  235MOL0     C30925   4.586   6.595   6.269 -0.1277 -0.1847 -0.3613
  235MOL0     C30926   4.442   6.609   6.312 -0.7336 -0.1609 -0.2906
  235MOL0     C30927   4.428   6.615   6.466 -0.0512 -0.4715 -0.0395
  235MOL0     C30928   4.296   6.556   6.502  0.1034  0.6666  0.2994
  235MOL0     C30929   4.176   6.641   6.450 -0.1654  0.6084  0.2083
  235MOL0     C30930   4.037   6.590   6.494 -0.3606 -1.1257  0.3586
  235MOL0     C30931   3.935   6.656   6.400 -0.0641  0.0843 -0.7044
  235MOL0    Cl30932   3.836   6.512   6.375  0.1518 -0.1150  0.1709
  235MOL0     C30933   5.030   6.563   6.355 -0.1796 -0.4681  0.0522
  235MOL0     C30934   5.096   6.500   6.456 -0.9545  0.8219  0.7520
  235MOL0     O30935   5.320   6.302   6.606 -0.0124 -0.2916 -0.2765
  235MOL0     C30936   5.434   6.287   6.848 -0.1999  0.0518 -0.9032
  235MOL0     C30937   5.479   6.266   6.985 -0.4383  0.5647 -0.2747
  235MOL0     N30938   5.705   6.648   7.641 -0.3100 -0.1554 -0.6597
  235MOL0     N30939   5.830   6.648   7.635 -0.7524 -0.1828 -0.9457
  235MOL0     C30940   6.664   7.104   8.454  0.0532  0.4351  0.0772
  235MOL0     C30941   6.770   7.106   8.545  0.2708  0.3284 -0.4761
  235MOL0     C30942   7.034   6.895   8.834  0.0816  0.9213  0.0545
  235MOL0     C30943   7.019   6.777   8.912 -0.2580  0.3666  0.8978
  235MOL0     C30944   7.079   6.778   9.035 -0.9248  0.4999 -0.1666
  235MOL0     C30945   7.151   6.885   9.085 -1.0796  0.9211 -0.0950
  235MOL0     O30946   7.198   6.868   9.211 -0.0176  0.1562 -0.5089
  235MOL0     C30947   7.249   6.984   9.281 -0.2757  0.2370 -0.0087
  235MOL0     C30948   7.261   6.965   9.432 -0.1137 -0.4686 -0.2566
  235MOL0     C30949   7.282   7.087   9.526  0.9200 -0.2765 -0.4983
  235MOL0     C30950   7.240   7.055   9.671 -0.1328 -0.7417  0.3744
  235MOL0     C30951   7.314   6.942   9.730  0.6059 -0.6257 -0.2994
  235MOL0     C30952   7.364   6.844   9.776 -0.4495 -0.3834  0.1344
  235MOL0     C30953   7.169   7.001   9.004  0.4271  1.1784 -0.3907
  235MOL0     C30954   7.113   7.007   8.875  0.4387  0.4119 -0.8372
  235MOL0     H30955   6.990   6.905   8.394  0.7011  0.4463  1.8581
  235MOL0     H30956   6.829   6.925   8.214  1.3013 -1.1201  0.2148
  235MOL0     H30957   6.604   6.875   8.136 -2.1476 -1.1935 -2.4997
  235MOL0     H30958   6.633   7.025   8.050 -1.2156  0.4737 -0.8134
  235MOL0     H30959   6.414   7.105   8.050 -3.6727 -1.1479 -1.5037
  235MOL0     H30960   6.364   6.970   8.155  1.9091 -1.7668  0.5250
  235MOL0     H30961   6.499   6.897   7.903 -1.2764  0.2050 -1.0787
  235MOL0     H30962   6.374   7.008   7.867  3.1415  2.7222  0.5265
  235MOL0     H30963   6.346   6.748   8.023  2.7382 -0.5699 -1.7773
  235MOL0     H30964   6.202   6.852   8.003 -0.4451 -3.4804 -0.3858
  235MOL0     H30965   6.358   6.740   7.766 -2.0339 -0.1284 -0.2557
  235MOL0     H30966   6.227   6.858   7.766  1.6171  0.1657 -1.2950
  235MOL0     H30967   6.069   6.689   7.860  1.6025  2.0120 -0.3253
  235MOL0     H30968   6.208   6.580   7.883 -0.9039  2.1594  2.1424
  235MOL0     H30969   6.079   6.667   7.608 -1.0133 -0.0056 -0.2803
  235MOL0     H30970   6.207   6.538   7.633  0.1634  1.4135 -1.2180
  235MOL0     H30971   6.030   6.447   7.803 -2.2904  0.5181  0.4470
  235MOL0     H30972   6.026   6.402   7.627 -2.2654 -2.0910  1.2382
  235MOL0     H30973   5.768   6.357   7.766  0.8206 -0.9785  0.1389
  235MOL0     H30974   5.464   6.549   7.768  1.3040  1.5200  0.0197
  235MOL0     H30975   5.516   6.382   7.739 -0.8519 -0.8304 -0.6032
  235MOL0     H30976   5.444   6.602   7.540  0.0501 -0.7642 -0.3887
  235MOL0     H30977   5.344   6.447   7.562  1.8492 -4.4054 -0.6506
  235MOL0     H30978   5.607   6.464   7.426 -1.0913 -0.5825 -0.4210
  235MOL0     H30979   5.536   6.318   7.490  1.8945  0.7575  2.3905
  235MOL0     H30980   5.437   6.516   7.284  2.3948 -0.2664  0.1463
  235MOL0     H30981   5.321   6.396   7.347 -0.0026  2.3090 -0.1621
  235MOL0     H30982   5.271   6.482   7.140 -0.6129  2.7550 -1.5809
  235MOL0     H30983   5.179   6.493   6.926 -0.6195  0.8458  1.0171
  235MOL0     H30984   4.856   6.418   6.677 -0.8964  2.5831 -0.2243
  235MOL0     H30985   4.726   6.532   6.517 -0.6077 -0.2689 -1.1673
  235MOL0     H30986   4.672   6.791   6.260  1.0294 -0.3813  0.4297
  235MOL0     H30987   4.673   6.742   6.416  4.0060 -2.6637  1.0761
  235MOL0     H30988   4.620   6.493   6.292  0.0871 -0.0430 -0.0449
  235MOL0     H30989   4.590   6.597   6.160  2.8529 -1.9298 -0.4038
  235MOL0     H30990   4.388   6.518   6.282  3.1484 -3.6596  2.1949
  235MOL0     H30991   4.420   6.708   6.271 -1.7188 -0.5516 -0.7365
  235MOL0     H30992   4.504   6.547   6.506 -2.4842 -2.0815  2.0822
  235MOL0     H30993   4.444   6.718   6.501  1.1488  0.8114 -3.8717
  235MOL0     H30994   4.296   6.564   6.612  1.1310  1.9361  0.2420
  235MOL0     H30995   4.298   6.453   6.467  0.5874 -0.5063  3.4100
  235MOL0     H30996   4.183   6.629   6.341  1.8315 -1.4675  0.4821
  235MOL0     H30997   4.195   6.746   6.476 -1.5994  1.3464 -1.4885
  235MOL0     H30998   4.043   6.482   6.479 -1.0080 -1.0175 -0.7881
  235MOL0     H30999   4.002   6.606   6.597 -0.5497  0.6462  0.0506
  235MOL0     H31000   3.966   6.694   6.302  0.0504  0.1248 -0.6533
  235MOL0     H31001   3.877   6.734   6.450 -2.1891  0.8874 -4.0844
  235MOL0     H31002   5.071   6.614   6.269  0.6875  3.7081  2.6390
  235MOL0     H31003   5.203   6.492   6.439 -1.1428  3.0160 -2.4690
  235MOL0     H31004   5.492   6.242   6.768  1.7744 -0.4715  0.7244
  235MOL0     H31005   5.569   6.206   6.994 -0.7355 -0.0615 -1.3097
  235MOL0     H31006   6.570   7.157   8.466  0.7049  2.2053 -2.1235
  235MOL0     H31007   6.762   7.148   8.644 -2.2947 -3.5220  1.1878
  235MOL0     H31008   6.973   6.690   8.867 -1.1245  2.0562 -1.7314
  235MOL0     H31009   7.071   6.680   9.083  1.2317 -0.7969 -2.2487
  235MOL0     H31010   7.174   7.059   9.257 -0.7314 -0.7783 -1.9527
  235MOL0     H31011   7.349   7.005   9.243  0.6686 -0.1479  2.0988
  235MOL0     H31012   7.163   6.927   9.463 -0.7788  1.0821 -0.3737
  235MOL0     H31013   7.327   6.881   9.457 -3.3350 -2.5785  1.9018
  235MOL0     H31014   7.220   7.175   9.505  1.6352  0.4786  0.4673
  235MOL0     H31015   7.387   7.118   9.522  1.4422 -1.9707 -0.5764
  235MOL0     H31016   7.261   7.142   9.734 -0.3509  1.5414 -2.5015
  235MOL0     H31017   7.137   7.021   9.675 -0.6750  0.9094  2.1919
  235MOL0     H31018   7.413   6.750   9.793  0.1419 -0.3617 -1.3166
  235MOL0     H31019   7.210   7.089   9.053  0.4038 -0.1587  2.2083
  235MOL0     H31020   7.107   7.104   8.827 -1.1825  1.0615  0.5880
  236MOL0     O31021   4.501   9.916   9.773  0.2438 -0.8326  0.3307
  236MOL0     C31022   4.545   9.910   9.660 -0.5243 -0.2102  0.0188
  236MOL0     O31023   4.479   9.870   9.559  0.3010 -1.1521 -0.1098
  236MOL0     C31024   4.344   9.856   9.583  0.1212  0.3261 -0.0951
  236MOL0     C31025   4.239   9.950   9.563 -0.1602 -0.3004  0.3358
  236MOL0     C31026   4.109   9.931   9.579 -0.4299 -0.2558 -0.1991
  236MOL0     C31027   4.061   9.808   9.617 -0.6891 -0.1514 -0.7323
  236MOL0     O31028   3.923   9.798   9.629  0.3284 -0.1052 -0.3673
  236MOL0     C31029   3.872   9.725   9.518  0.2967 -0.8584  0.0621
  236MOL0     C31030   3.739   9.660   9.571 -0.9129 -0.9211 -0.0730
  236MOL0     C31031   3.623   9.721   9.491  0.7905 -0.7249 -0.3518
  236MOL0     C31032   3.489   9.654   9.542 -0.3906 -0.6094  0.1172
  236MOL0     C31033   3.370   9.691   9.441 -0.1220  0.7214 -0.4340
  236MOL0     C31034   3.246   9.625   9.504  0.1014 -1.1778  0.1557
  236MOL0     C31035   3.117   9.631   9.429 -0.6997 -0.4557  0.6112
  236MOL0     C31036   3.109   9.763   9.365 -0.2494  0.1446  0.0632
  236MOL0     N31037   2.983   9.787   9.294 -0.0268 -0.6184 -0.6112
  236MOL0     C31038   2.881   9.872   9.333  0.2919 -0.1165 -0.5795
  236MOL0     C31039   2.809   9.891   9.224  0.9464 -0.8717  0.3873
  236MOL0     C31040   2.675   9.958   9.226  0.9921  0.1021 -0.7335
  236MOL0     C31041   2.578   9.909   9.351  0.2472  0.0999  0.2598
  236MOL0     C31042   2.456  10.005   9.353  0.2326  0.4320  0.1887
  236MOL0     C31043   2.367   9.976   9.231 -0.2440 -0.1529 -0.1147
  236MOL0     O31044   2.331   9.837   9.228 -0.4987  0.2870 -0.4374
  236MOL0     C31045   2.202   9.805   9.215  0.2266  0.4229 -0.4163
  236MOL0     C31046   2.106   9.860   9.304 -0.0445  0.6999 -0.3626
  236MOL0     C31047   1.970   9.820   9.281 -0.3240 -0.4477 -0.3050
  236MOL0     C31048   1.933   9.737   9.173  0.4062  0.1128  0.0996
  236MOL0     C31049   1.791   9.700   9.157 -0.5134  0.3868  0.3982
  236MOL0     O31050   1.714   9.731   9.258 -0.1364 -0.7488 -0.1700
  236MOL0     C31051   1.577   9.720   9.254 -0.5068  0.1944  0.3086
  236MOL0     C31052   1.502   9.830   9.300 -0.0932  0.4508  0.1476
  236MOL0     C31053   1.364   9.831   9.296  0.1871  0.3523 -0.1217
  236MOL0     C31054   1.298   9.719   9.249  0.6055  0.3805 -0.6831
  236MOL0     O31055   1.163   9.699   9.276 -0.7724  0.2417 -0.1863
  236MOL0     C31056   1.072   9.700   9.168 -0.5267  0.2135  0.0035
  236MOL0     C31057   0.940   9.740   9.233 -0.2089 -0.8209 -0.5980
  236MOL0     C31058   0.814   9.697   9.150 -0.1009 -0.8550  0.3837
  236MOL0     C31059   0.697   9.793   9.193 -0.2210  0.4717  0.6107
  236MOL0     C31060   0.575   9.780   9.100  0.2975  0.2326  0.9571
  236MOL0     C31061   0.451   9.712   9.169  0.2436  0.3622 -0.5101
  236MOL0     C31062   0.360   9.636   9.071 -0.0047 -0.2731  0.3533
  236MOL0     C31063   0.255   9.551   9.154 -0.0737 -0.7502  1.0714
  236MOL0    Cl31064   0.341   9.419   9.245 -0.2841  0.0369 -0.0501
  236MOL0     C31065   1.365   9.595   9.214  0.3769 -0.0105  0.2671
  236MOL0     C31066   1.511   9.604   9.208  0.6435  0.6090 -0.1950
  236MOL0     O31067   1.759   9.640   9.058  0.2751 -0.1710 -0.0059
  236MOL0     C31068   2.028   9.678   9.103 -0.3721  0.2439  0.4051
  236MOL0     C31069   2.156   9.726   9.109 -0.5462 -0.5689 -1.2899
  236MOL0     N31070   2.868   9.821   9.124  0.0096  0.5330  0.0097
  236MOL0     N31071   2.969   9.762   9.168 -0.2647 -0.6150 -0.5920
  236MOL0     C31072   4.159   9.708   9.651 -0.0549  0.4568  0.6271
  236MOL0     C31073   4.294   9.731   9.626 -0.3130 -0.5947  1.1780
  236MOL0     C31074   4.695   9.947   9.640 -0.0768  0.5797 -0.3493
  236MOL0     C31075   4.769   9.961   9.759  0.9800  0.1179  1.0509
  236MOL0     C31076   4.901   9.994   9.737 -0.5628  0.8825 -0.7625
  236MOL0     C31077   4.968  10.026   9.615 -1.2151  0.6816  0.1985
  236MOL0     O31078   5.093  10.083   9.603 -0.1234 -0.1426 -0.0412
  236MOL0     C31079   5.175  10.058   9.484 -0.6259 -0.9203  0.2732
  236MOL0     C31080   5.305  10.109   9.523  0.2714 -0.6448  0.7744
  236MOL0     C31081   5.332  10.224   9.613  0.1809 -0.2135  0.2237
  236MOL0     C31082   5.488  10.229   9.639  0.1520  0.0669  0.3644
  236MOL0     C31083   5.536  10.331   9.736 -0.5370  0.9198  0.6876
  236MOL0     C31084   5.572  10.407   9.815 -0.1159 -0.4395 -0.3305
  236MOL0     C31085   4.886  10.001   9.497  0.6485  0.2630 -0.7416
  236MOL0     C31086   4.755   9.967   9.514  0.1247 -0.3429  0.9280
  236MOL0     H31087   4.266  10.039   9.507 -0.6506 -3.0335 -4.7986
  236MOL0     H31088   4.040  10.013   9.564 -0.2695 -0.2309 -0.8337
  236MOL0     H31089   3.940   9.646   9.486  1.8487  0.5737 -0.2539
  236MOL0     H31090   3.840   9.787   9.434 -2.3697 -1.1867  0.7438
  236MOL0     H31091   3.733   9.661   9.680  3.5065 -0.4438  0.3393
  236MOL0     H31092   3.744   9.560   9.526 -2.5587 -1.1577  0.2045
  236MOL0     H31093   3.633   9.697   9.384 -1.6523 -0.0852 -0.7924
  236MOL0     H31094   3.617   9.830   9.500  3.0159 -0.5452 -0.5111
  236MOL0     H31095   3.502   9.546   9.530 -0.6795 -0.5515 -0.8213
  236MOL0     H31096   3.465   9.684   9.644  2.4639  0.1075  0.6492
  236MOL0     H31097   3.394   9.646   9.344 -1.3908 -1.3950  0.1666
  236MOL0     H31098   3.349   9.799   9.434 -0.2567  0.6291 -1.9411
  236MOL0     H31099   3.242   9.680   9.599  2.5032  0.7440 -0.7634
  236MOL0     H31100   3.263   9.518   9.520 -0.2675 -1.3240 -0.4081
  236MOL0     H31101   3.113   9.538   9.372  0.6468 -2.5457  3.6728
  236MOL0     H31102   3.039   9.631   9.506 -1.5294  1.0194 -0.1862
  236MOL0     H31103   3.186   9.766   9.288 -1.4725 -1.7009 -1.3443
  236MOL0     H31104   3.122   9.836   9.445 -0.0240 -2.8269  2.9198
  236MOL0     H31105   2.849   9.914   9.428 -3.3020  1.1519 -2.1452
  236MOL0     H31106   2.634   9.941   9.126 -0.1128  0.6348 -0.3936
  236MOL0     H31107   2.681  10.067   9.235 -2.8793  0.3516  0.9606
  236MOL0     H31108   2.627   9.900   9.448 -1.3387 -1.0044  1.0093
  236MOL0     H31109   2.546   9.806   9.329  1.7508 -0.3124 -0.0792
  236MOL0     H31110   2.401   9.978   9.443  0.7366  0.6573  0.5668
  236MOL0     H31111   2.484  10.110   9.364 -0.0482  0.6315 -0.8236
  236MOL0     H31112   2.412   9.991   9.133 -1.2347 -5.6024 -1.7258
  236MOL0     H31113   2.281  10.044   9.238 -0.3458 -0.3529  0.6878
  236MOL0     H31114   2.141   9.925   9.383 -0.1076  0.9312 -0.5205
  236MOL0     H31115   1.897   9.865   9.347  0.2156  0.4056 -0.2655
  236MOL0     H31116   1.566   9.912   9.332  1.0308 -0.3737  0.0896
  236MOL0     H31117   1.307   9.915   9.334  1.1390  0.6935  0.6139
  236MOL0     H31118   1.084   9.601   9.122  0.9131  0.6218 -0.5301
  236MOL0     H31119   1.097   9.780   9.098  0.5866 -0.0370  0.0945
  236MOL0     H31120   0.944   9.843   9.271 -3.0807 -0.4023 -1.1678
  236MOL0     H31121   0.937   9.696   9.333  1.3341  2.7549  1.1972
  236MOL0     H31122   0.794   9.591   9.164 -0.9212 -0.6583  0.7288
  236MOL0     H31123   0.840   9.710   9.044  0.9496 -1.2189  0.5833
  236MOL0     H31124   0.671   9.772   9.297 -2.4649  0.6929  0.1431
  236MOL0     H31125   0.725   9.898   9.182  1.8303 -0.3335 -3.5591
  236MOL0     H31126   0.597   9.743   9.000 -1.7667  0.2324  0.4474
  236MOL0     H31127   0.543   9.884   9.092 -0.7751 -0.0141  1.7215
  236MOL0     H31128   0.391   9.786   9.222  1.6089  0.3025  1.2221
  236MOL0     H31129   0.485   9.644   9.247 -1.1266 -3.3014 -2.8627
  236MOL0     H31130   0.320   9.715   9.007 -1.0554  0.1925  1.5397
  236MOL0     H31131   0.427   9.566   9.020  1.7171 -0.6498  2.9642
  236MOL0     H31132   0.181   9.495   9.096  2.5490 -4.7996  1.2230
  236MOL0     H31133   0.191   9.617   9.212 -0.6641 -1.8969  1.7715
  236MOL0     H31134   1.317   9.499   9.198  0.0070  0.4530 -1.6595
  236MOL0     H31135   1.574   9.520   9.180 -1.3841 -0.0213 -3.2651
  236MOL0     H31136   2.005   9.595   9.037  3.5972 -1.4867  0.8527
  236MOL0     H31137   2.219   9.684   9.031  1.7053 -2.2612  1.2176
  236MOL0     H31138   4.107   9.617   9.678 -3.0731  0.3777 -4.2274
  236MOL0     H31139   4.361   9.646   9.635  1.2154 -0.1297 -3.2480
  236MOL0     H31140   4.717   9.947   9.853 -3.0693  2.3681 -0.5737
  236MOL0     H31141   4.952  10.009   9.832 -1.5062 -0.0386 -0.0936
  236MOL0     H31142   5.121  10.115   9.408 -1.7791  0.9351  2.3647
  236MOL0     H31143   5.186   9.952   9.459 -1.0009 -1.0868  0.7857
  236MOL0     H31144   5.352  10.021   9.568  2.9829  1.4866  2.4477
  236MOL0     H31145   5.364  10.135   9.435 -1.1067  2.1800  0.6000
  236MOL0     H31146   5.270  10.221   9.703  0.2154  1.7921  0.3530
  236MOL0     H31147   5.305  10.318   9.564 -1.7733 -1.1504 -0.5862
  236MOL0     H31148   5.517  10.134   9.684  0.2497 -0.7896 -1.3933
  236MOL0     H31149   5.537  10.241   9.542  1.9159 -1.0791  1.0665
  236MOL0     H31150   5.615  10.462   9.897  0.2874 -2.4769  0.8835
  236MOL0     H31151   4.909  10.023   9.393 -0.9812  4.4625 -0.4319
  236MOL0     H31152   4.693   9.938   9.430  2.3984 -0.7195 -0.7077
  237MOL0     O31153   8.124   5.275   2.507  0.4856 -0.2744 -0.1284
  237MOL0     C31154   8.182   5.189   2.574 -0.0749  0.5489  1.1115
  237MOL0     O31155   8.130   5.122   2.680  0.3352 -0.1420 -0.4798
  237MOL0     C31156   8.007   5.169   2.737  0.1120  0.9251 -0.5276
  237MOL0     C31157   7.993   5.184   2.874  0.9056 -0.3956 -0.1693
  237MOL0     C31158   7.876   5.236   2.925 -0.6370 -0.2319 -1.0389
  237MOL0     C31159   7.766   5.287   2.848 -0.6350  0.4827  0.0085
  237MOL0     O31160   7.643   5.331   2.901  0.3980 -0.2482 -0.1004
  237MOL0     C31161   7.614   5.357   3.041 -0.1608  0.1162  0.5500
  237MOL0     C31162   7.474   5.397   3.085  0.2680 -0.6818  0.5021
  237MOL0     C31163   7.440   5.546   3.110  0.4468 -0.1261 -0.3431
  237MOL0     C31164   7.484   5.629   2.995  0.2731 -1.1571 -0.6467
  237MOL0     C31165   7.377   5.730   2.966  0.5260 -0.1280 -0.2905
  237MOL0     C31166   7.356   5.840   3.075 -0.3589  0.5914  0.2421
  237MOL0     C31167   7.485   5.922   3.101  0.1281 -0.6209 -0.3602
  237MOL0     C31168   7.556   5.988   2.982  0.1503  0.5244 -0.0570
  237MOL0     N31169   7.625   6.115   3.036  0.8246 -0.1542 -0.1237
  237MOL0     C31170   7.733   6.118   3.116  0.0752  0.8991 -0.9249
  237MOL0     C31171   7.743   6.251   3.158  0.2210  0.3989  0.6984
  237MOL0     C31172   7.839   6.333   3.246  0.2868  0.6178 -0.0801
  237MOL0     C31173   7.953   6.241   3.298  0.2415 -0.0845 -0.9569
  237MOL0     C31174   8.004   6.299   3.424 -0.1917  0.1287 -0.5372
  237MOL0     C31175   8.130   6.235   3.483  0.6138  0.5788  0.8796
  237MOL0     O31176   8.237   6.218   3.391  0.7525 -0.0425 -0.2343
  237MOL0     C31177   8.358   6.181   3.432 -0.1046  0.2806 -0.0209
  237MOL0     C31178   8.410   6.188   3.561 -0.5460  0.4485 -0.1172
  237MOL0     C31179   8.542   6.147   3.585 -0.1434  0.2282 -0.2775
  237MOL0     C31180   8.629   6.096   3.489  0.0135 -0.5300  0.3878
  237MOL0     C31181   8.760   6.043   3.522 -0.5452  0.3635  0.4173
  237MOL0     O31182   8.814   6.064   3.643 -0.0339 -0.1104 -0.3591
  237MOL0     C31183   8.946   6.048   3.680 -0.9671 -0.1854 -0.3811
  237MOL0     C31184   8.979   6.032   3.819 -0.9843 -0.2848  0.2106
  237MOL0     C31185   9.116   6.017   3.866  0.5588  0.5511  0.1585
  237MOL0     C31186   9.216   6.014   3.773 -0.4270  0.0428 -0.5579
  237MOL0     O31187   9.353   6.020   3.818  0.8932 -0.6731 -0.4054
  237MOL0     C31188   9.381   6.136   3.900 -0.3170  0.0393 -0.4552
  237MOL0     C31189   9.532   6.138   3.931 -0.4164 -0.1140  0.3156
  237MOL0     C31190   9.579   6.263   4.005  0.5796  0.5925  0.0354
  237MOL0     C31191   9.730   6.275   4.008  0.2414  0.3662  0.2235
  237MOL0     C31192   9.775   6.421   4.004 -0.3348  0.1459 -0.5936
  237MOL0     C31193   9.764   6.477   3.867 -0.6212 -0.6846  0.6138
  237MOL0     C31194   9.869   6.590   3.847 -0.1692 -1.3085  0.4842
  237MOL0     C31195   9.838   6.707   3.933 -0.2682 -0.5013 -0.8999
  237MOL0    Cl31196   9.929   6.849   3.860 -0.1631  0.1622 -0.3169
  237MOL0     C31197   9.187   6.024   3.633  0.0895 -0.1562  0.8169
  237MOL0     C31198   9.057   6.046   3.587 -0.6982  0.7825  0.3937
  237MOL0     O31199   8.821   5.988   3.429  0.0862  0.1134 -1.3221
  237MOL0     C31200   8.568   6.087   3.358 -0.1625 -0.5381  0.4884
  237MOL0     C31201   8.437   6.137   3.327 -0.1848  0.1789  0.5624
  237MOL0     N31202   7.646   6.320   3.086  0.2696  0.3876 -0.0488
  237MOL0     N31203   7.571   6.240   3.016  0.0644  0.4368 -1.1120
  237MOL0     C31204   7.785   5.280   2.708  0.3229  0.7771  0.7825
  237MOL0     C31205   7.899   5.210   2.658 -0.2169 -0.5442  0.3554
  237MOL0     C31206   8.304   5.131   2.528 -0.0326 -0.8194 -0.1091
  237MOL0     C31207   8.366   5.019   2.600 -0.3698 -0.1300  0.7663
  237MOL0     C31208   8.489   4.963   2.557  0.1381 -0.4248 -0.1658
  237MOL0     C31209   8.555   5.044   2.456 -0.0327 -0.6601  0.9527
  237MOL0     O31210   8.683   5.020   2.419  0.3760 -0.0378 -0.7746
  237MOL0     C31211   8.749   4.889   2.449  0.3985  0.4439 -0.0279
  237MOL0     C31212   8.832   4.915   2.576  0.4928 -0.0903  0.2922
  237MOL0     C31213   8.860   4.774   2.638  0.0612 -0.6734  0.0029
  237MOL0     C31214   8.965   4.783   2.748  0.3498  0.0621 -0.0432
  237MOL0     C31215   9.098   4.836   2.715  0.4194 -1.1716  0.6528
  237MOL0     C31216   9.198   4.880   2.668 -0.0044  0.3002  0.5221
  237MOL0     C31217   8.495   5.155   2.394 -0.2194  0.5157 -0.4601
  237MOL0     C31218   8.367   5.190   2.419 -0.8784 -0.2649 -1.5838
  237MOL0     H31219   8.080   5.156   2.933  1.5485  0.2596 -0.7807
  237MOL0     H31220   7.881   5.241   3.033 -0.1421 -4.4507 -0.6870
  237MOL0     H31221   7.685   5.435   3.068 -1.5270  0.9897  1.7826
  237MOL0     H31222   7.632   5.263   3.094 -0.7071  1.2484  2.8554
  237MOL0     H31223   7.466   5.343   3.180  1.2935 -0.8383  0.5077
  237MOL0     H31224   7.395   5.340   3.035  0.7518 -0.9219  0.0055
  237MOL0     H31225   7.478   5.597   3.199  3.0976  2.2086 -2.6265
  237MOL0     H31226   7.332   5.536   3.123  0.7074 -1.4041  1.0126
  237MOL0     H31227   7.585   5.669   2.998  0.4067 -1.1696 -2.9200
  237MOL0     H31228   7.485   5.571   2.902 -0.5371  1.6831 -2.5648
  237MOL0     H31229   7.282   5.677   2.955  0.0947  0.2786  1.2212
  237MOL0     H31230   7.416   5.785   2.880  2.5219 -2.9349 -1.3219
  237MOL0     H31231   7.330   5.795   3.171  0.4819 -1.9368 -0.6352
  237MOL0     H31232   7.277   5.907   3.039 -0.2563 -0.2964 -1.7418
  237MOL0     H31233   7.463   5.991   3.183  0.3930 -3.6314  2.4530
  237MOL0     H31234   7.554   5.855   3.154 -0.7746  1.3968  3.8008
  237MOL0     H31235   7.481   6.018   2.910 -0.2605  0.0009  0.1449
  237MOL0     H31236   7.628   5.916   2.942 -0.4281  0.6335 -1.3405
  237MOL0     H31237   7.795   6.032   3.140 -1.8449 -0.1137  0.7007
  237MOL0     H31238   7.794   6.389   3.329 -1.4788  1.0691 -1.2743
  237MOL0     H31239   7.887   6.407   3.181  2.5764  0.8058  1.6929
  237MOL0     H31240   8.029   6.232   3.219  0.4787 -0.4215 -0.6933
  237MOL0     H31241   7.913   6.141   3.319 -0.3061  0.0818 -1.2078
  237MOL0     H31242   8.033   6.399   3.394 -0.7591 -0.8146 -4.9054
  237MOL0     H31243   7.925   6.304   3.500  1.6866  0.3077  1.4920
  237MOL0     H31244   8.094   6.144   3.533 -2.8107  1.2763 -0.0343
  237MOL0     H31245   8.163   6.298   3.566  0.1280  2.2073 -0.1111
  237MOL0     H31246   8.362   6.221   3.653  1.1914 -1.5893  1.6421
  237MOL0     H31247   8.591   6.163   3.680 -0.6937  2.6162 -0.3415
  237MOL0     H31248   8.901   6.043   3.893 -1.9892  0.9276 -0.9813
  237MOL0     H31249   9.137   6.019   3.972  1.7706  1.3817 -0.0828
  237MOL0     H31250   9.317   6.141   3.988 -0.1888 -2.3065 -0.1581
  237MOL0     H31251   9.364   6.222   3.834  2.1073 -0.0438 -1.2970
  237MOL0     H31252   9.594   6.141   3.841 -0.3167  1.2898  0.4039
  237MOL0     H31253   9.545   6.039   3.976 -1.5006 -1.6554 -2.5241
  237MOL0     H31254   9.552   6.260   4.111  1.1599  2.9285  0.3013
  237MOL0     H31255   9.538   6.350   3.953 -0.7069 -1.1930 -2.1084
  237MOL0     H31256   9.762   6.232   4.104  1.7333  2.3201  0.6524
  237MOL0     H31257   9.778   6.216   3.930 -1.6699 -1.3243  0.2532
  237MOL0     H31258   9.878   6.433   4.039 -0.4082 -0.5507 -0.1217
  237MOL0     H31259   9.725   6.475   4.085  3.1327  1.3437  0.9461
  237MOL0     H31260   9.661   6.503   3.844  0.3193  1.6167 -1.4598
  237MOL0     H31261   9.788   6.400   3.792  0.6591 -0.7677  1.0910
  237MOL0     H31262   9.970   6.551   3.858  0.2478 -0.9464 -1.6228
  237MOL0     H31263   9.847   6.618   3.743 -2.2038 -2.1187  0.6435
  237MOL0     H31264   9.871   6.684   4.035 -3.3761 -2.9170 -0.3127
  237MOL0     H31265   9.732   6.730   3.938  0.2052  2.5631 -2.7290
  237MOL0     H31266   9.272   6.031   3.566  1.9781  0.9696  3.1862
  237MOL0     H31267   9.047   6.055   3.479 -1.2757 -0.4579  0.3265
  237MOL0     H31268   8.627   6.037   3.282  2.4130  0.1390  1.9321
  237MOL0     H31269   8.391   6.136   3.229 -1.7917  1.1792  1.2596
  237MOL0     H31270   7.711   5.314   2.637 -3.1614 -2.4919  2.4735
  237MOL0     H31271   7.902   5.199   2.550 -0.4564  0.1018  0.2803
  237MOL0     H31272   8.299   4.972   2.671 -2.3719 -1.8986 -2.0779
  237MOL0     H31273   8.532   4.880   2.612 -0.9025  1.5559  4.0576
  237MOL0     H31274   8.812   4.863   2.363  0.0920 -0.4089 -0.0088
  237MOL0     H31275   8.678   4.806   2.453 -1.0777  1.3000 -3.9435
  237MOL0     H31276   8.924   4.965   2.546 -0.4741  2.3449  1.1410
  237MOL0     H31277   8.790   4.982   2.652  5.2161  0.6698  2.6312
  237MOL0     H31278   8.888   4.710   2.554  0.4932 -0.1831 -0.2350
  237MOL0     H31279   8.770   4.727   2.679  1.7629 -4.2275 -0.0008
  237MOL0     H31280   8.928   4.831   2.839  2.0578  0.4971  0.4607
  237MOL0     H31281   8.975   4.677   2.776 -1.8846 -0.2979 -0.3816
  237MOL0     H31282   9.284   4.921   2.620 -2.0472  4.0526 -0.2901
  237MOL0     H31283   8.543   5.210   2.314 -0.3052 -0.9640 -1.5752
  237MOL0     H31284   8.318   5.271   2.366 -2.6351 -0.2017  0.0263
  238MOL0     O31285   2.262   5.083  10.367  0.5360  0.4150  0.2064
  238MOL0     C31286   2.258   5.209  10.366 -0.3609 -0.6369  0.2952
  238MOL0     O31287   2.178   5.292  10.445 -0.2108 -0.3608  0.3607
  238MOL0     C31288   2.090   5.234  10.526  0.0485 -0.1533 -1.1189
  238MOL0     C31289   2.075   5.300  10.647  0.5468 -0.6227 -0.3334
  238MOL0     C31290   1.983   5.256  10.744  0.3721 -0.0747  0.4026
  238MOL0     C31291   1.906   5.142  10.725 -0.0869  0.3332  1.0650
  238MOL0     O31292   1.809   5.096  10.812 -0.3187 -0.2623 -0.3603
  238MOL0     C31293   1.744   4.966  10.788 -0.1024 -0.2479  0.6551
  238MOL0     C31294   1.632   4.940  10.888 -0.6390  0.2131  0.4516
  238MOL0     C31295   1.530   5.047  10.897  0.6893 -0.4987  0.3046
  238MOL0     C31296   1.391   5.013  10.960  0.2038 -0.2775  0.1694
  238MOL0     C31297   1.286   5.122  10.966  0.3503 -0.0738  0.0191
  238MOL0     C31298   1.258   5.199  10.841  0.2731  0.0657  0.7404
  238MOL0     C31299   1.232   5.119  10.705  0.0989  0.8089 -0.8870
  238MOL0     C31300   1.185   5.213  10.590 -0.0680  0.2481  0.0948
  238MOL0     N31301   1.202   5.152  10.460 -0.7198 -0.0825 -1.1955
  238MOL0     C31302   1.318   5.147  10.381 -0.5016  0.2691 -0.7611
  238MOL0     C31303   1.279   5.081  10.275  1.6999  0.0584  0.0015
  238MOL0     C31304   1.357   5.057  10.153 -0.2374 -0.3086 -0.3880
  238MOL0     C31305   1.417   5.188  10.094  0.1639  0.4974  0.9044
  238MOL0     C31306   1.559   5.200  10.142 -0.3944 -0.1010  0.3515
  238MOL0     C31307   1.614   5.330  10.078  0.2569  0.9978  0.1958
  238MOL0     O31308   1.746   5.335  10.111 -0.2246  0.1253  0.0386
  238MOL0     C31309   1.818   5.444  10.065 -1.1580  0.5111 -0.2568
  238MOL0     C31310   1.790   5.516   9.960  0.7736 -0.1605  0.5964
  238MOL0     C31311   1.876   5.612   9.898  0.7303  0.1068 -0.1048
  238MOL0     C31312   2.002   5.634   9.955  0.2374  0.5872  0.1540
  238MOL0     C31313   2.104   5.732   9.909  0.6153 -0.0556  0.1484
  238MOL0     O31314   2.194   5.800   9.994  0.2954  0.2803 -0.2481
  238MOL0     C31315   2.291   5.864   9.920  0.2000 -0.3226 -0.9592
  238MOL0     C31316   2.275   6.000   9.881  0.5624  0.1859  0.0110
  238MOL0     C31317   2.368   6.063   9.791 -1.1433 -0.3607 -0.1419
  238MOL0     C31318   2.485   5.990   9.751  0.0713  1.1455 -0.1512
  238MOL0     O31319   2.581   6.034   9.669  0.0275  0.6450 -0.7506
  238MOL0     C31320   2.668   6.113   9.739  0.3333 -0.1413 -0.3576
  238MOL0     C31321   2.798   6.163   9.654 -0.2849  1.1308  0.9705
  238MOL0     C31322   2.912   6.219   9.741 -0.6658  0.1842 -1.1174
  238MOL0     C31323   3.016   6.308   9.672 -0.0440 -0.8174 -0.2343
  238MOL0     C31324   3.141   6.307   9.766 -0.5886 -0.7823 -0.6955
  238MOL0     C31325   3.114   6.361   9.912 -0.3797 -0.8231 -0.2930
  238MOL0     C31326   3.257   6.380   9.982  0.1675 -0.3148  0.8329
  238MOL0     C31327   3.245   6.484  10.096  0.3984  0.2163  0.0589
  238MOL0    Cl31328   3.333   6.443  10.242 -0.4766 -0.3033  0.7884
  238MOL0     C31329   2.504   5.853   9.802  1.1158 -0.4291  0.0045
  238MOL0     C31330   2.407   5.794   9.886 -0.2619 -0.0225  0.6232
  238MOL0     O31331   2.085   5.756   9.788 -0.3328 -0.3431  0.1153
  238MOL0     C31332   2.031   5.570  10.075 -0.9341 -0.2075  0.1749
  238MOL0     C31333   1.944   5.474  10.135 -0.1380  0.1295 -0.0983
  238MOL0     N31334   1.144   5.039  10.289  0.3929  1.2923 -1.0393
  238MOL0     N31335   1.103   5.079  10.403 -0.8608 -0.2168  0.1903
  238MOL0     C31336   1.938   5.070  10.607 -0.1660  0.5968 -0.2820
  238MOL0     C31337   2.015   5.116  10.500 -0.3860  0.5105 -0.3421
  238MOL0     C31338   2.333   5.280  10.270 -0.4422 -0.4404 -1.4529
  238MOL0     C31339   2.421   5.207  10.191 -0.2256  0.0729  0.2998
  238MOL0     C31340   2.506   5.270  10.096  0.5458  0.5836 -1.1816
  238MOL0     C31341   2.495   5.405  10.072  0.2108  0.1750 -0.0420
  238MOL0     O31342   2.558   5.479   9.971  0.1895  0.4447  0.1196
  238MOL0     C31343   2.649   5.411   9.879 -0.1053 -0.6355 -0.0823
  238MOL0     C31344   2.681   5.503   9.779  0.1806  0.5660 -0.1732
  238MOL0     C31345   2.782   5.460   9.671  0.5187 -0.4560 -0.2922
  238MOL0     C31346   2.799   5.554   9.547 -0.9217  0.0432 -0.9746
  238MOL0     C31347   2.914   5.644   9.562 -0.3954 -0.6099  0.7397
  238MOL0     C31348   2.986   5.739   9.587  0.2450 -0.2831  0.4141
  238MOL0     C31349   2.413   5.483  10.158  0.3599  0.7035 -0.5634
  238MOL0     C31350   2.336   5.426  10.260 -0.2380  0.2824 -0.6971
  238MOL0     H31351   2.123   5.397  10.649 -4.2828  2.0660  1.6314
  238MOL0     H31352   1.961   5.316  10.832  2.6416  1.4865 -0.0142
  238MOL0     H31353   1.828   4.896  10.780  1.1340  1.4021 -4.2165
  238MOL0     H31354   1.697   4.965  10.689  0.7477 -0.1621  0.2392
  238MOL0     H31355   1.665   4.922  10.991 -0.3779 -1.2295  0.1397
  238MOL0     H31356   1.574   4.851  10.864  0.0513 -0.7681  2.1850
  238MOL0     H31357   1.499   5.061  10.793  0.3975 -2.7680  0.0289
  238MOL0     H31358   1.562   5.141  10.943 -0.8378 -0.8550  2.2045
  238MOL0     H31359   1.355   4.930  10.897  0.9422 -1.1958  0.9197
  238MOL0     H31360   1.399   4.975  11.062  1.7277  1.4058  0.7219
  238MOL0     H31361   1.333   5.191  11.038  3.1490  0.9787 -2.5796
  238MOL0     H31362   1.187   5.088  10.999  0.6440  0.1203  1.1532
  238MOL0     H31363   1.355   5.251  10.840 -1.4136  3.4798  1.0008
  238MOL0     H31364   1.194   5.287  10.848 -0.5937 -0.5331  0.4509
  238MOL0     H31365   1.331   5.077  10.683  0.8665  0.8890  1.9543
  238MOL0     H31366   1.165   5.034  10.719  2.4807 -1.2939 -1.4487
  238MOL0     H31367   1.244   5.305  10.587  1.3101 -0.6121  0.3335
  238MOL0     H31368   1.081   5.247  10.598  0.1583  0.7634  1.0648
  238MOL0     H31369   1.409   5.205  10.391  1.1597 -2.4108  1.1358
  238MOL0     H31370   1.303   5.002  10.075  0.2569 -2.5042  0.7569
  238MOL0     H31371   1.445   4.998  10.180 -1.3886 -1.0449  1.9260
  238MOL0     H31372   1.358   5.269  10.138  1.9545  1.4904  1.5858
  238MOL0     H31373   1.407   5.195   9.985 -3.9223  3.6270  1.2247
  238MOL0     H31374   1.571   5.215  10.250 -0.7022  0.2515  0.3396
  238MOL0     H31375   1.615   5.112  10.109 -1.7413 -0.4136 -1.1924
  238MOL0     H31376   1.553   5.407  10.126  1.4782  2.0068  0.1716
  238MOL0     H31377   1.600   5.308   9.972 -0.7878 -0.5795  0.6370
  238MOL0     H31378   1.710   5.497   9.888 -1.7634 -0.3790  3.2908
  238MOL0     H31379   1.832   5.668   9.815  1.5895  0.0380 -0.6209
  238MOL0     H31380   2.184   6.043   9.923  1.3232  0.1702  1.7167
  238MOL0     H31381   2.362   6.169   9.769  1.8028  0.0569  0.5737
  238MOL0     H31382   2.711   6.079   9.834  3.5322  4.1792  0.0658
  238MOL0     H31383   2.619   6.204   9.775  1.3482 -0.2982  1.6061
  238MOL0     H31384   2.761   6.235   9.580 -1.1993 -1.0224 -0.7801
  238MOL0     H31385   2.839   6.082   9.592 -1.7796  1.0184  0.0922
  238MOL0     H31386   2.963   6.133   9.784  0.6830  0.1375 -2.7060
  238MOL0     H31387   2.879   6.272   9.832 -0.9001 -0.8026 -0.6158
  238MOL0     H31388   3.044   6.259   9.578 -3.0861 -2.9074 -0.2039
  238MOL0     H31389   2.985   6.413   9.664  4.0412  0.6901  1.2380
  238MOL0     H31390   3.227   6.366   9.731 -1.6373  2.1928  1.3793
  238MOL0     H31391   3.174   6.203   9.773  0.8455 -0.7593 -4.5354
  238MOL0     H31392   3.054   6.287   9.966 -0.0061  0.1718  1.5623
  238MOL0     H31393   3.063   6.458   9.913  3.5827  1.5094 -1.4206
  238MOL0     H31394   3.268   6.280  10.024 -1.3468 -0.2815  1.3597
  238MOL0     H31395   3.342   6.395   9.916 -2.1681  4.6183 -1.6247
  238MOL0     H31396   3.140   6.485  10.127 -0.4092  0.8249 -2.4491
  238MOL0     H31397   3.276   6.582  10.058 -0.2850  0.6466  0.5672
  238MOL0     H31398   2.592   5.803   9.763  1.1246 -0.1186 -0.3901
  238MOL0     H31399   2.399   5.687   9.896 -3.8342  0.1485  1.0231
  238MOL0     H31400   2.118   5.594  10.135 -0.0154 -1.3792 -0.6472
  238MOL0     H31401   1.968   5.423  10.228 -2.1399 -0.0333  0.3614
  238MOL0     H31402   1.904   4.968  10.587 -1.1836  0.1336  3.2087
  238MOL0     H31403   2.028   5.056  10.410  0.4752 -0.3670  0.3342
  238MOL0     H31404   2.436   5.099  10.192  3.5058  0.3832 -1.8202
  238MOL0     H31405   2.567   5.212  10.027 -0.1312 -2.6999  0.7837
  238MOL0     H31406   2.597   5.334   9.821  1.0991  0.0903 -2.2237
  238MOL0     H31407   2.748   5.382   9.915  1.8401 -0.1837 -4.5084
  238MOL0     H31408   2.595   5.555   9.735 -0.1626  2.1897  2.2054
  238MOL0     H31409   2.720   5.589   9.835  0.4075  0.0939  0.4018
  238MOL0     H31410   2.757   5.358   9.639  0.9530 -0.8036  0.4313
  238MOL0     H31411   2.876   5.443   9.724 -0.8104 -2.2728  1.6730
  238MOL0     H31412   2.800   5.496   9.454 -0.2698 -1.2801 -0.1721
  238MOL0     H31413   2.704   5.606   9.533 -0.7307  0.8643  0.5500
  238MOL0     H31414   3.046   5.821   9.620 -0.8809  0.6979  0.1020
  238MOL0     H31415   2.392   5.589  10.145  0.2464  0.6928 -0.4715
  238MOL0     H31416   2.264   5.488  10.313  1.9548  0.1465  2.7389
  239MOL0     O31417   3.071   3.659   3.257 -0.2545  0.9021  0.8102
  239MOL0     C31418   3.068   3.627   3.375  0.1442 -0.7246 -0.2967
  239MOL0     O31419   2.951   3.624   3.453  0.2783 -0.2368  0.1487
  239MOL0     C31420   2.832   3.661   3.393 -0.5299  0.6115  1.0604
  239MOL0     C31421   2.749   3.575   3.327 -0.7877  0.9818 -0.0553
  239MOL0     C31422   2.625   3.610   3.278  0.3559 -0.6963 -0.4660
  239MOL0     C31423   2.586   3.748   3.280  0.5786 -0.2052 -0.9854
  239MOL0     O31424   2.453   3.783   3.258  0.5219 -0.0567  0.7051
  239MOL0     C31425   2.411   3.919   3.253  0.4644 -0.7656  0.1658
  239MOL0     C31426   2.326   3.946   3.382 -0.1006 -0.3940  0.6045
  239MOL0     C31427   2.199   4.033   3.363  0.2331 -0.3555  0.7435
  239MOL0     C31428   2.118   4.074   3.493 -0.0517 -1.0177  0.2679
  239MOL0     C31429   2.044   3.948   3.561  1.1927  0.3379 -0.1517
  239MOL0     C31430   1.992   3.979   3.691 -0.0209  0.3132 -0.8639
  239MOL0     C31431   1.893   3.875   3.751  0.2389  0.0479 -0.0668
  239MOL0     C31432   1.887   3.896   3.907  0.4231 -0.1178  0.5668
  239MOL0     N31433   1.827   4.023   3.943 -0.3369 -0.7193 -0.9263
  239MOL0     C31434   1.699   4.056   3.937  0.3647 -0.2609  0.0337
  239MOL0     C31435   1.683   4.176   3.993 -0.1084 -0.4646  0.8772
  239MOL0     C31436   1.548   4.248   3.997 -1.3335  0.2187 -0.2489
  239MOL0     C31437   1.523   4.319   4.133  0.0282  0.9288  0.2506
  239MOL0     C31438   1.461   4.210   4.236 -0.1331 -0.3701 -0.4547
  239MOL0     C31439   1.418   4.264   4.372 -0.8372  0.8131  0.6234
  239MOL0     O31440   1.309   4.351   4.347 -0.6281 -0.4857 -0.5359
  239MOL0     C31441   1.252   4.412   4.456 -0.4353 -0.6144 -0.2022
  239MOL0     C31442   1.311   4.421   4.585  0.5624 -0.2825  0.0424
  239MOL0     C31443   1.256   4.497   4.688 -1.1887 -0.6842 -0.0342
  239MOL0     C31444   1.134   4.563   4.667 -0.3367 -0.1834 -0.3049
  239MOL0     C31445   1.080   4.655   4.778 -0.4152  0.2108 -0.3008
  239MOL0     O31446   0.976   4.735   4.741 -0.1273 -0.1967 -0.0133
  239MOL0     C31447   0.941   4.846   4.816  0.2292  0.5562 -0.1230
  239MOL0     C31448   0.824   4.838   4.890  0.5324  0.3775  0.1511
  239MOL0     C31449   0.779   4.951   4.967  0.4396  0.3832  0.2786
  239MOL0     C31450   0.847   5.066   4.966 -0.2742 -0.6528  0.3751
  239MOL0     O31451   0.816   5.180   5.038 -0.1846 -0.8542 -0.1986
  239MOL0     C31452   0.700   5.190   5.120  0.6449 -0.5191 -0.1282
  239MOL0     C31453   0.646   5.334   5.141  0.6162  0.3115 -0.3729
  239MOL0     C31454   0.505   5.324   5.209  0.7276 -1.0556  0.5717
  239MOL0     C31455   0.391   5.262   5.127 -0.2291  0.0092 -1.2853
  239MOL0     C31456   0.270   5.228   5.215 -0.5386 -0.9466  0.4829
  239MOL0     C31457   0.161   5.173   5.121  0.3156  0.8189  0.9969
  239MOL0     C31458   0.048   5.133   5.202  0.3997 -0.6525  0.4279
  239MOL0     C31459   0.006   5.210   5.334 -0.0272  0.5888  0.2638
  239MOL0    Cl31460  -0.146   5.133   5.388 -0.1241 -0.4392  0.2550
  239MOL0     C31461   0.960   5.073   4.886 -0.8302 -0.2835 -0.2827
  239MOL0     C31462   1.008   4.967   4.817 -0.7171  0.1044  0.4545
  239MOL0     O31463   1.128   4.654   4.892 -0.4134  0.7685 -0.8302
  239MOL0     C31464   1.064   4.545   4.541 -0.5223 -0.3382 -0.4266
  239MOL0     C31465   1.126   4.478   4.437 -0.7565 -0.0042 -0.8398
  239MOL0     N31466   1.812   4.211   4.044  0.5654 -0.6959  0.3750
  239MOL0     N31467   1.893   4.122   4.012 -1.1544 -0.1418 -0.6942
  239MOL0     C31468   2.675   3.836   3.345  0.0998  0.2856  0.8085
  239MOL0     C31469   2.791   3.784   3.404 -0.3179 -1.2707 -0.0126
  239MOL0     C31470   3.188   3.599   3.449  0.5389 -0.2879  0.1777
  239MOL0     C31471   3.312   3.586   3.377 -0.4285  1.0328 -0.0847
  239MOL0     C31472   3.431   3.577   3.448  0.3515  0.4815  0.2495
  239MOL0     C31473   3.444   3.544   3.581 -0.2440 -0.9222  0.3259
  239MOL0     O31474   3.562   3.517   3.639 -0.1407  0.5483  0.1281
  239MOL0     C31475   3.690   3.533   3.567  0.1009 -0.5311  1.0971
  239MOL0     C31476   3.715   3.437   3.450  0.0178  0.3655  0.1197
  239MOL0     C31477   3.848   3.461   3.380  0.0784  0.5124  0.2178
  239MOL0     C31478   3.967   3.389   3.443 -0.4052  0.6000  0.9604
  239MOL0     C31479   4.028   3.476   3.535 -0.2428  0.0056  0.4102
  239MOL0     C31480   4.089   3.538   3.620 -0.9320  0.4708  0.1927
  239MOL0     C31481   3.318   3.551   3.649  0.1205  0.5061 -0.0269
  239MOL0     C31482   3.194   3.575   3.592 -0.1798 -1.1182 -0.4323
  239MOL0     H31483   2.780   3.474   3.304 -1.5697  0.1296  2.2987
  239MOL0     H31484   2.559   3.531   3.246 -0.3221 -0.5089  0.4130
  239MOL0     H31485   2.345   3.924   3.166 -0.2385  0.0336  0.7132
  239MOL0     H31486   2.493   3.990   3.240 -0.0327 -0.0760  0.6701
  239MOL0     H31487   2.382   4.012   3.449 -0.0436 -1.6080  1.7808
  239MOL0     H31488   2.316   3.852   3.436  3.3479 -0.6802  0.9610
  239MOL0     H31489   2.128   3.983   3.296  0.4119  0.7409 -0.3147
  239MOL0     H31490   2.228   4.126   3.314  1.0385 -0.0052  1.8532
  239MOL0     H31491   2.184   4.107   3.574  1.8177  0.1057 -1.6026
  239MOL0     H31492   2.040   4.148   3.475  0.5540 -0.9878 -2.7596
  239MOL0     H31493   2.109   3.863   3.584 -0.1685 -0.3983  1.1160
  239MOL0     H31494   1.961   3.901   3.507  1.1657 -2.8371  2.3652
  239MOL0     H31495   1.935   4.072   3.690 -1.2888 -0.3228  1.9526
  239MOL0     H31496   2.079   4.004   3.753  0.1482  2.6025 -1.9025
  239MOL0     H31497   1.790   3.863   3.718 -0.0282 -0.9917  1.0790
  239MOL0     H31498   1.939   3.778   3.731 -1.4140 -0.8431  0.3178
  239MOL0     H31499   1.988   3.898   3.947  0.9932 -2.7760 -0.4682
  239MOL0     H31500   1.832   3.815   3.958 -1.2132  0.4381 -0.2439
  239MOL0     H31501   1.617   4.010   3.883 -0.8763  2.0952 -0.2249
  239MOL0     H31502   1.467   4.181   3.969  1.0899 -2.2779 -1.7796
  239MOL0     H31503   1.558   4.314   3.911 -0.1052 -0.7864 -0.9055
  239MOL0     H31504   1.457   4.405   4.118 -0.6568 -0.0507 -3.1867
  239MOL0     H31505   1.621   4.356   4.165 -0.0398  3.3358 -1.9347
  239MOL0     H31506   1.365   4.179   4.195 -1.2225  0.6423  1.2580
  239MOL0     H31507   1.534   4.130   4.257 -1.4411 -1.5783 -0.3784
  239MOL0     H31508   1.498   4.307   4.434 -0.5971 -0.0722  0.9343
  239MOL0     H31509   1.363   4.186   4.425  0.2931 -0.8227 -0.5153
  239MOL0     H31510   1.405   4.372   4.608 -0.0436 -1.5173  0.0190
  239MOL0     H31511   1.315   4.505   4.779  0.8783  0.1348 -1.3920
  239MOL0     H31512   0.753   4.756   4.884  1.0131 -0.0920  0.7397
  239MOL0     H31513   0.679   4.942   5.008 -2.0272 -3.5411 -5.2177
  239MOL0     H31514   0.723   5.155   5.221 -3.8672 -1.5204  0.8056
  239MOL0     H31515   0.619   5.131   5.077 -2.5370  1.6441  2.3443
  239MOL0     H31516   0.640   5.384   5.044  1.3314 -0.3820 -0.7879
  239MOL0     H31517   0.715   5.389   5.205 -2.1842  1.3473  1.9977
  239MOL0     H31518   0.463   5.421   5.238 -0.7532 -1.3169 -0.5458
  239MOL0     H31519   0.512   5.269   5.303  0.2576 -1.0223  0.6256
  239MOL0     H31520   0.364   5.326   5.043 -2.1545 -2.1093 -2.4114
  239MOL0     H31521   0.430   5.165   5.095  1.1119  1.0335 -2.8847
  239MOL0     H31522   0.231   5.318   5.263 -0.6316  0.5310 -2.1279
  239MOL0     H31523   0.296   5.154   5.290 -2.9924 -0.3804  1.9837
  239MOL0     H31524   0.191   5.092   5.054 -2.9160  1.4711 -1.4411
  239MOL0     H31525   0.132   5.259   5.061  1.2839  2.5820  2.9117
  239MOL0     H31526  -0.044   5.128   5.142 -0.1007 -2.5730  1.2591
  239MOL0     H31527   0.072   5.029   5.228 -0.1204 -0.7007  0.7303
  239MOL0     H31528   0.002   5.318   5.321  0.3857  0.4652 -0.9926
  239MOL0     H31529   0.075   5.189   5.416 -2.6370  0.4144  2.5716
  239MOL0     H31530   1.013   5.168   4.879  1.8780 -1.6876 -0.3294
  239MOL0     H31531   1.098   4.971   4.756 -1.2931  0.4340 -0.3862
  239MOL0     H31532   0.984   4.613   4.512 -0.4110  0.8901  1.8264
  239MOL0     H31533   1.084   4.483   4.337 -1.1137  1.7237 -0.6340
  239MOL0     H31534   2.653   3.942   3.348 -1.1959  0.0209  3.4980
  239MOL0     H31535   2.861   3.856   3.443 -0.8937 -1.2640  1.0285
  239MOL0     H31536   3.321   3.591   3.269  1.2673  3.3119  0.0871
  239MOL0     H31537   3.518   3.603   3.388  0.4281 -1.0232 -0.3122
  239MOL0     H31538   3.773   3.523   3.637  2.1438 -0.1127 -1.1291
  239MOL0     H31539   3.686   3.632   3.522  1.9131 -1.6127 -1.7492
  239MOL0     H31540   3.704   3.335   3.490 -1.2131  0.8234  1.0116
  239MOL0     H31541   3.641   3.443   3.371 -0.3872  3.7884  0.6206
  239MOL0     H31542   3.864   3.568   3.366 -2.7085  0.7864 -1.9637
  239MOL0     H31543   3.831   3.412   3.284 -0.6533 -1.3532  1.2294
  239MOL0     H31544   3.944   3.290   3.485 -1.0461 -0.3438 -1.4139
  239MOL0     H31545   4.035   3.364   3.361  1.1425  0.1754  2.3467
  239MOL0     H31546   4.147   3.592   3.691  0.3699 -1.2639  0.5350
  239MOL0     H31547   3.312   3.538   3.757 -1.5622  3.3221  0.3279
  239MOL0     H31548   3.107   3.585   3.656 -0.1237 -2.5963 -0.0886
  240MOL0     O31549   1.188   5.090   5.796 -0.3376 -0.2373 -0.3431
  240MOL0     C31550   1.143   5.199   5.842  0.5034 -0.5406 -0.1698
  240MOL0     O31551   1.014   5.223   5.877 -0.2526  0.9107 -0.4734
  240MOL0     C31552   0.909   5.141   5.865  0.9088  0.6966  0.5058
  240MOL0     C31553   0.802   5.160   5.957  0.2997  0.6770 -0.2126
  240MOL0     C31554   0.695   5.075   5.967  0.3844  0.6445  0.2426
  240MOL0     C31555   0.691   4.958   5.885 -0.6172  0.1840  0.0215
  240MOL0     O31556   0.597   4.860   5.889 -0.0926  0.9480  0.8604
  240MOL0     C31557   0.455   4.906   5.884 -0.2939 -0.2683 -0.5331
  240MOL0     C31558   0.389   4.885   6.028  0.1721 -0.6215  0.7380
  240MOL0     C31559   0.251   4.952   6.057 -0.5547  0.4094  0.9405
  240MOL0     C31560   0.244   5.102   6.014  0.0155 -0.8329  0.4874
  240MOL0     C31561   0.101   5.162   6.037  0.5734  0.4657  0.2797
  240MOL0     C31562   0.044   5.190   5.894  0.1627  0.8395  0.2459
  240MOL0     C31563  -0.102   5.228   5.888 -0.0945 -0.5277  0.0708
  240MOL0     C31564  -0.130   5.286   5.753 -0.2523  0.3164 -0.3392
  240MOL0     N31565  -0.274   5.297   5.728 -0.0168  0.4452  0.0088
  240MOL0     C31566  -0.349   5.187   5.679  1.1505 -0.1506 -0.8152
  240MOL0     C31567  -0.471   5.248   5.674  0.7210 -0.4534  1.1986
  240MOL0     C31568  -0.599   5.173   5.629 -0.4324  0.0741 -0.3024
  240MOL0     C31569  -0.585   5.081   5.501  0.5384  0.7550 -0.1361
  240MOL0     C31570  -0.598   5.172   5.372  0.1192 -1.4253 -1.3508
  240MOL0     C31571  -0.570   5.091   5.257  0.3234 -0.6753  0.8542
  240MOL0     O31572  -0.613   5.160   5.136 -0.0084  0.0400 -0.6422
  240MOL0     C31573  -0.514   5.231   5.075  0.7153  1.0773 -0.6617
  240MOL0     C31574  -0.535   5.363   5.061 -0.0199 -0.1203 -0.7173
  240MOL0     C31575  -0.439   5.453   5.004 -0.7205 -1.0748  1.5080
  240MOL0     C31576  -0.311   5.403   4.972  0.8912  0.6907  0.0503
  240MOL0     C31577  -0.199   5.484   4.927 -0.3529  0.0838 -0.1292
  240MOL0     O31578  -0.228   5.613   4.884  0.3044  0.2540  0.0997
  240MOL0     C31579  -0.126   5.697   4.848  0.0418 -0.1055  0.9339
  240MOL0     C31580  -0.127   5.833   4.881 -0.1614  0.2344  0.2273
  240MOL0     C31581  -0.024   5.916   4.838 -0.7315  0.3122  1.4053
  240MOL0     C31582   0.072   5.873   4.750 -0.5540 -0.1934  0.0082
  240MOL0     O31583   0.159   5.961   4.687  0.2464 -0.4084 -0.4257
  240MOL0     C31584   0.291   5.933   4.642  0.4755  0.1815  0.2671
  240MOL0     C31585   0.391   5.886   4.749  0.2849 -0.3654  1.2177
  240MOL0     C31586   0.408   5.980   4.858  0.1068  1.2467 -0.0463
  240MOL0     C31587   0.479   6.106   4.816  0.2729  0.3490 -0.9454
  240MOL0     C31588   0.502   6.196   4.943  1.3040 -0.2899 -0.3740
  240MOL0     C31589   0.568   6.329   4.897 -0.1066  0.4290  0.8006
  240MOL0     C31590   0.643   6.398   5.011  0.4284 -0.0454 -0.3668
  240MOL0     C31591   0.780   6.348   5.029  1.5059 -0.3602 -0.1944
  240MOL0    Cl31592   0.879   6.375   4.877 -0.2279 -0.2359 -0.5118
  240MOL0     C31593   0.068   5.737   4.704 -0.2520  0.2931  0.2379
  240MOL0     C31594  -0.040   5.656   4.749 -0.7076  0.2853 -0.5813
  240MOL0     O31595  -0.089   5.429   4.938  0.2333 -0.0372 -0.7821
  240MOL0     C31596  -0.293   5.259   4.981 -0.6041  0.5466 -1.0873
  240MOL0     C31597  -0.397   5.175   5.027 -0.2818  0.4277  0.7793
  240MOL0     N31598  -0.475   5.374   5.733  0.0529 -0.1713  0.0684
  240MOL0     N31599  -0.353   5.398   5.769 -0.0519  0.0957 -0.4958
  240MOL0     C31600   0.796   4.930   5.802  0.8350  0.2717 -0.2976
  240MOL0     C31601   0.897   5.025   5.786 -0.0293  0.8350 -0.6932
  240MOL0     C31602   1.241   5.313   5.849  0.4753 -0.5410 -0.0105
  240MOL0     C31603   1.385   5.302   5.827  0.4625  0.3787  0.0996
  240MOL0     C31604   1.469   5.418   5.828 -0.0875 -0.1402  0.7439
  240MOL0     C31605   1.412   5.547   5.862 -0.5352  1.4118  0.5018
  240MOL0     O31606   1.506   5.649   5.863 -0.6494  0.4461 -0.0887
  240MOL0     C31607   1.456   5.780   5.901 -0.7907  0.0829 -0.1159
  240MOL0     C31608   1.578   5.871   5.917 -0.1280  0.4608  0.0359
  240MOL0     C31609   1.536   6.015   5.929 -0.5620  0.1396  0.2666
  240MOL0     C31610   1.650   6.116   5.946 -0.3211 -0.7343  0.4804
  240MOL0     C31611   1.578   6.249   5.941 -0.8089  0.7504 -0.4946
  240MOL0     C31612   1.517   6.357   5.966 -1.1586  0.4579  0.4821
  240MOL0     C31613   1.275   5.556   5.904 -0.3134 -0.3858 -0.2463
  240MOL0     C31614   1.195   5.443   5.892  0.3516  0.6275  0.4766
  240MOL0     H31615   0.797   5.245   6.025 -1.2411  0.3729  0.0905
  240MOL0     H31616   0.620   5.099   6.041 -1.9886 -1.5108 -1.2784
  240MOL0     H31617   0.403   4.839   5.815 -1.4837 -0.0641  0.1463
  240MOL0     H31618   0.443   5.008   5.845  3.4731 -0.0562 -1.5600
  240MOL0     H31619   0.463   4.915   6.103  1.2005 -2.1463  0.3844
  240MOL0     H31620   0.367   4.777   6.032  0.3166 -0.6445  0.9753
  240MOL0     H31621   0.245   4.937   6.165 -5.1363 -1.9942  0.5865
  240MOL0     H31622   0.168   4.904   6.004 -1.1912  2.1297  0.2893
  240MOL0     H31623   0.312   5.154   6.082 -0.5971  0.5110  0.1105
  240MOL0     H31624   0.287   5.118   5.914  0.8827 -0.4297  0.9148
  240MOL0     H31625   0.097   5.247   6.105 -2.6184  0.0662  0.7244
  240MOL0     H31626   0.043   5.090   6.095 -1.1854  0.0741 -1.8532
  240MOL0     H31627   0.054   5.098   5.836 -1.9015  0.6101  0.1702
  240MOL0     H31628   0.110   5.272   5.864 -0.2638  1.4440  0.9101
  240MOL0     H31629  -0.177   5.152   5.909 -0.4516  0.3775  2.4534
  240MOL0     H31630  -0.118   5.296   5.972 -1.6702  0.1588 -0.7430
  240MOL0     H31631  -0.100   5.216   5.675  1.2712  0.4072  0.1380
  240MOL0     H31632  -0.077   5.379   5.730 -1.4959  1.9911  2.8908
  240MOL0     H31633  -0.314   5.097   5.631 -0.5963 -0.2246 -2.0559
  240MOL0     H31634  -0.674   5.253   5.622 -0.0971  0.4446  0.2936
  240MOL0     H31635  -0.628   5.114   5.716 -0.5140 -0.1366 -0.4723
  240MOL0     H31636  -0.664   5.006   5.505  0.9187  0.3923  1.3865
  240MOL0     H31637  -0.495   5.019   5.495  0.5972  0.8521 -0.2666
  240MOL0     H31638  -0.702   5.201   5.353 -0.7544 -4.7370 -2.4811
  240MOL0     H31639  -0.535   5.260   5.373 -0.0801 -1.2594 -2.3155
  240MOL0     H31640  -0.626   4.998   5.267 -2.1618  0.1921 -3.0445
  240MOL0     H31641  -0.463   5.069   5.256  0.2552 -1.1729 -2.0190
  240MOL0     H31642  -0.634   5.404   5.079  0.1897  0.8298 -1.6614
  240MOL0     H31643  -0.478   5.551   4.977 -2.3503 -2.3703 -1.4150
  240MOL0     H31644  -0.207   5.862   4.948  0.6358  3.2169  0.0344
  240MOL0     H31645  -0.018   6.007   4.897 -3.4196  0.7894  1.0837
  240MOL0     H31646   0.312   6.035   4.607 -1.8259  0.5627 -0.1915
  240MOL0     H31647   0.284   5.858   4.563 -1.5730 -1.5754  1.9791
  240MOL0     H31648   0.486   5.872   4.697  0.0719 -1.3835  1.0754
  240MOL0     H31649   0.371   5.781   4.773 -0.9377 -0.2010  1.0283
  240MOL0     H31650   0.469   5.939   4.939 -1.6021 -1.0817  0.1675
  240MOL0     H31651   0.307   6.007   4.893  0.1928  1.6700 -0.1115
  240MOL0     H31652   0.580   6.081   4.783  1.9563  0.9374  3.1398
  240MOL0     H31653   0.415   6.152   4.741 -0.9461 -3.7931 -2.7325
  240MOL0     H31654   0.567   6.149   5.017  0.8430  0.8849  0.8384
  240MOL0     H31655   0.402   6.204   4.988  0.0451 -1.1030 -2.8434
  240MOL0     H31656   0.491   6.397   4.861 -0.3963  0.4065  1.3848
  240MOL0     H31657   0.629   6.296   4.811 -3.1294 -4.5389  0.1711
  240MOL0     H31658   0.660   6.500   4.974 -3.9056  0.9214 -0.2698
  240MOL0     H31659   0.583   6.409   5.102 -0.7672 -1.4602 -0.9401
  240MOL0     H31660   0.769   6.239   5.039 -4.3015 -0.0897 -0.0426
  240MOL0     H31661   0.837   6.394   5.109 -0.7421  0.0634  1.2567
  240MOL0     H31662   0.130   5.691   4.629 -4.3879 -0.8431 -2.8449
  240MOL0     H31663  -0.038   5.551   4.722  2.1648  0.0956  0.0121
  240MOL0     H31664  -0.191   5.228   4.961 -0.6669  0.4382 -1.2463
  240MOL0     H31665  -0.382   5.069   5.011  2.6331  0.9503 -0.4954
  240MOL0     H31666   0.793   4.845   5.734 -2.3883  0.9473 -1.1793
  240MOL0     H31667   0.975   4.998   5.716  0.3629  0.8096 -0.2567
  240MOL0     H31668   1.422   5.207   5.788 -2.7835 -1.7054  1.7090
  240MOL0     H31669   1.575   5.419   5.804 -0.5450  1.7835 -1.6641
  240MOL0     H31670   1.412   5.765   6.000 -0.4240 -0.4342 -0.0246
  240MOL0     H31671   1.380   5.823   5.836 -2.2765 -0.1411  1.4134
  240MOL0     H31672   1.653   5.840   5.990  1.4903 -0.2434 -1.8445
  240MOL0     H31673   1.642   5.845   5.832  1.5604 -3.6799  2.2523
  240MOL0     H31674   1.466   6.024   6.013 -0.8483 -2.6770  0.4269
  240MOL0     H31675   1.476   6.022   5.838 -0.9437 -2.7293  0.1827
  240MOL0     H31676   1.699   6.104   6.043 -0.1646 -0.0739  0.4846
  240MOL0     H31677   1.727   6.101   5.871 -0.0866 -0.2548  0.6253
  240MOL0     H31678   1.458   6.436   6.007 -2.0040  0.2533 -0.3322
  240MOL0     H31679   1.228   5.650   5.932  2.4491  0.4778  1.8954
  240MOL0     H31680   1.087   5.452   5.904 -0.1631 -0.5575 -2.3518
  241MOL0     O31681   8.188   6.634   3.439 -0.5509  0.5476 -0.1846
  241MOL0     C31682   8.293   6.622   3.382 -0.8596  0.3433  0.6021
  241MOL0     O31683   8.317   6.637   3.255  0.1364 -0.0526  1.1343
  241MOL0     C31684   8.229   6.682   3.162  0.5061 -0.1260  0.4477
  241MOL0     C31685   8.247   6.804   3.090  0.0892 -0.0076  0.7375
  241MOL0     C31686   8.151   6.829   2.991  0.5339 -0.3288  0.1612
  241MOL0     C31687   8.036   6.747   2.970 -0.2691  0.1955 -0.0357
  241MOL0     O31688   7.962   6.774   2.855 -0.2389 -0.2716  0.3413
  241MOL0     C31689   7.820   6.792   2.857 -0.4596  0.5467  0.3329
  241MOL0     C31690   7.786   6.923   2.793  1.2688  0.4562 -0.4707
  241MOL0     C31691   7.639   6.945   2.787  0.5861  0.8693  0.5100
  241MOL0     C31692   7.599   7.055   2.697 -0.4657  0.5621 -0.2301
  241MOL0     C31693   7.452   7.067   2.703  0.1607 -0.1885 -0.3035
  241MOL0     C31694   7.400   7.194   2.638 -0.5380 -0.3875  0.1468
  241MOL0     C31695   7.260   7.218   2.657  0.2648 -0.1060  0.8410
  241MOL0     C31696   7.223   7.285   2.789 -0.2617  0.2066 -0.3849
  241MOL0     N31697   7.208   7.200   2.905 -0.0691  0.6076 -0.4373
  241MOL0     C31698   7.120   7.094   2.924  0.8625 -1.0439  0.1871
  241MOL0     C31699   7.151   7.043   3.043  0.8725 -0.4032  0.1966
  241MOL0     C31700   7.109   6.916   3.098  0.5767 -0.2520  0.1365
  241MOL0     C31701   7.220   6.812   3.137 -0.0964  0.6304 -0.8152
  241MOL0     C31702   7.238   6.809   3.288 -0.4040 -0.8865  0.3438
  241MOL0     C31703   7.273   6.942   3.344 -0.1745 -1.2112 -0.0018
  241MOL0     O31704   7.292   6.917   3.489  0.2405  0.2798 -0.4544
  241MOL0     C31705   7.329   7.016   3.573  0.3611 -0.1456  0.3670
  241MOL0     C31706   7.398   6.984   3.694  0.9757  0.3672 -1.0240
  241MOL0     C31707   7.462   7.085   3.768  1.0125 -0.0096  0.0446
  241MOL0     C31708   7.461   7.217   3.729  0.3971  0.3776  0.4258
  241MOL0     C31709   7.554   7.311   3.801  0.0099 -0.2709  0.1114
  241MOL0     O31710   7.642   7.256   3.893 -0.3833  0.1388  0.4685
  241MOL0     C31711   7.704   7.338   3.980 -0.1726  0.2208  0.1504
  241MOL0     C31712   7.810   7.417   3.938 -0.1933 -0.8167 -0.1335
  241MOL0     C31713   7.889   7.500   4.019 -0.4477  0.0228 -0.1077
  241MOL0     C31714   7.862   7.490   4.156 -1.2556 -1.4524  1.0808
  241MOL0     O31715   7.938   7.586   4.226 -0.4605  0.0374 -0.1038
  241MOL0     C31716   7.932   7.575   4.369  0.7105 -0.6719 -0.3825
  241MOL0     C31717   8.007   7.692   4.427  0.1146 -0.5469 -0.3840
  241MOL0     C31718   8.149   7.708   4.367 -1.1855 -0.1446  0.2089
  241MOL0     C31719   8.240   7.597   4.423 -0.3958 -0.0592  0.9330
  241MOL0     C31720   8.385   7.645   4.419  0.7712 -1.1400  0.2992
  241MOL0     C31721   8.422   7.740   4.540  0.4814  0.2670 -0.4910
  241MOL0     C31722   8.567   7.795   4.512  0.1688  0.1099 -0.9473
  241MOL0     C31723   8.610   7.904   4.611  0.0704 -1.2147  0.3406
  241MOL0    Cl31724   8.768   7.973   4.556 -0.3818  0.1931  0.5263
  241MOL0     C31725   7.754   7.411   4.201 -0.8600 -1.3401 -0.1279
  241MOL0     C31726   7.673   7.342   4.116  0.1397 -0.5455 -0.0085
  241MOL0     O31727   7.535   7.430   3.782  0.7568 -0.4903  0.0816
  241MOL0     C31728   7.383   7.254   3.618 -0.4505  0.4049 -0.1621
  241MOL0     C31729   7.322   7.156   3.535 -0.0090 -0.3587 -1.1327
  241MOL0     N31730   7.261   7.112   3.100 -0.7633  0.0603 -0.3831
  241MOL0     N31731   7.286   7.206   3.012 -0.1367 -0.1258 -0.0240
  241MOL0     C31732   8.016   6.634   3.050 -1.0082 -0.4825 -0.0323
  241MOL0     C31733   8.109   6.612   3.148 -0.7264  0.1578 -0.8944
  241MOL0     C31734   8.410   6.585   3.463 -0.2887  0.6056  0.2856
  241MOL0     C31735   8.411   6.554   3.605  0.4594 -0.0067 -0.0106
  241MOL0     C31736   8.531   6.534   3.683 -0.9799  0.2314 -0.1356
  241MOL0     C31737   8.661   6.558   3.624  0.9880  0.1122 -0.1091
  241MOL0     O31738   8.781   6.547   3.678  0.2420  0.3345 -0.2111
  241MOL0     C31739   8.793   6.514   3.816 -0.1944  0.7961  0.3921
  241MOL0     C31740   8.934   6.534   3.871  0.8108  0.7770  0.2400
  241MOL0     C31741   9.027   6.423   3.819 -0.5820 -0.5757 -0.0055
  241MOL0     C31742   9.173   6.454   3.825 -0.2020  0.1726  0.0925
  241MOL0     C31743   9.212   6.537   3.706 -0.5749  0.0923  0.2237
  241MOL0     C31744   9.241   6.594   3.604 -1.1817 -0.8071  0.1992
  241MOL0     C31745   8.660   6.577   3.484 -0.3568 -0.6453 -0.1045
  241MOL0     C31746   8.538   6.593   3.406  0.5915  0.0261  0.0105
  241MOL0     H31747   8.314   6.886   3.114 -3.0406  2.7286  0.7539
  241MOL0     H31748   8.169   6.913   2.926  2.5741 -2.1732 -1.8345
  241MOL0     H31749   7.779   6.784   2.958 -2.8758  0.3364 -0.5992
  241MOL0     H31750   7.786   6.707   2.797  0.2319  0.2520  0.3498
  241MOL0     H31751   7.837   6.935   2.696  1.6510  1.5699 -0.1498
  241MOL0     H31752   7.830   6.998   2.860  1.5358  0.5443 -0.7380
  241MOL0     H31753   7.606   6.961   2.890 -1.6299  0.4240 -0.0850
  241MOL0     H31754   7.589   6.855   2.749 -0.2245  2.6612 -3.1756
  241MOL0     H31755   7.629   7.152   2.737 -2.9596  1.2819  0.0630
  241MOL0     H31756   7.648   7.041   2.600 -1.9379 -1.2177 -0.7543
  241MOL0     H31757   7.443   7.079   2.812  2.4193  0.8328 -0.1631
  241MOL0     H31758   7.403   6.974   2.674  1.4321  0.0579 -3.7018
  241MOL0     H31759   7.425   7.188   2.532  1.8670 -0.9191  0.6907
  241MOL0     H31760   7.452   7.278   2.685  3.0194 -4.3875  4.2505
  241MOL0     H31761   7.229   7.293   2.583 -1.0442  0.6277  2.0988
  241MOL0     H31762   7.200   7.130   2.634  0.0779 -1.3199  5.2499
  241MOL0     H31763   7.129   7.335   2.765 -0.3694 -0.8310 -2.3156
  241MOL0     H31764   7.303   7.355   2.815  0.1488 -0.8717  1.4093
  241MOL0     H31765   7.042   7.065   2.854  2.0155 -0.8753 -1.2365
  241MOL0     H31766   7.040   6.868   3.028 -0.6718  0.7927  0.6193
  241MOL0     H31767   7.049   6.936   3.187 -1.8434  0.2193 -1.5171
  241MOL0     H31768   7.309   6.826   3.076 -0.1709  3.5100 -0.4124
  241MOL0     H31769   7.186   6.711   3.114  0.5272  0.4429 -0.9276
  241MOL0     H31770   7.146   6.767   3.331 -0.2984  0.0078  1.4988
  241MOL0     H31771   7.320   6.746   3.325 -0.2852  0.3895  2.4293
  241MOL0     H31772   7.184   7.003   3.324 -1.6909 -2.5933  2.0700
  241MOL0     H31773   7.365   6.977   3.296 -3.1885  3.2788 -3.2755
  241MOL0     H31774   7.402   6.880   3.726  0.7749  0.7399  0.2772
  241MOL0     H31775   7.520   7.055   3.854  0.9602 -1.2519 -0.3293
  241MOL0     H31776   7.859   7.417   3.841  1.3362 -2.8367  0.5759
  241MOL0     H31777   7.965   7.558   3.969  0.6166  2.2232  3.6904
  241MOL0     H31778   7.989   7.488   4.403 -0.7601 -0.6590  2.3811
  241MOL0     H31779   7.831   7.567   4.411  0.7221 -1.7057 -0.5267
  241MOL0     H31780   8.012   7.686   4.536 -0.5810  2.1731 -0.1217
  241MOL0     H31781   7.943   7.779   4.410  0.4781 -0.4464 -1.2777
  241MOL0     H31782   8.191   7.804   4.395  0.6073 -0.7508 -0.2795
  241MOL0     H31783   8.144   7.702   4.257  1.4256 -0.1310  0.0411
  241MOL0     H31784   8.208   7.564   4.522 -0.1712  1.0322  1.3798
  241MOL0     H31785   8.240   7.511   4.355 -3.3803  0.3715  0.2458
  241MOL0     H31786   8.391   7.698   4.324  0.5456 -1.4846  0.0922
  241MOL0     H31787   8.462   7.569   4.410  2.4897  0.2685  2.0263
  241MOL0     H31788   8.413   7.695   4.640 -0.0183 -0.2522 -0.7580
  241MOL0     H31789   8.358   7.826   4.559 -1.4372 -1.4576  1.5395
  241MOL0     H31790   8.642   7.716   4.512 -1.3024 -1.4593 -3.6519
  241MOL0     H31791   8.567   7.843   4.414 -1.5047  0.7148 -0.6828
  241MOL0     H31792   8.616   7.879   4.717  2.5565  2.7866  1.3424
  241MOL0     H31793   8.533   7.981   4.602  1.1747 -0.1499 -0.3818
  241MOL0     H31794   7.734   7.413   4.308  1.4687 -0.7607  0.3419
  241MOL0     H31795   7.578   7.303   4.150 -1.7722  2.2658 -1.6440
  241MOL0     H31796   7.361   7.357   3.591  3.0432  1.2241 -0.3426
  241MOL0     H31797   7.278   7.178   3.439  0.9445 -1.6360 -1.8974
  241MOL0     H31798   7.937   6.564   3.026 -1.8706  1.2509 -2.6916
  241MOL0     H31799   8.089   6.528   3.215  0.5078  1.0409  0.6494
  241MOL0     H31800   8.315   6.534   3.651  0.1026 -1.6967 -1.3596
  241MOL0     H31801   8.521   6.509   3.788 -1.7977  0.6043 -0.1203
  241MOL0     H31802   8.756   6.412   3.827  0.0444  0.5801 -0.7118
  241MOL0     H31803   8.729   6.586   3.867  1.8289  1.3976  2.2406
  241MOL0     H31804   8.964   6.633   3.836 -2.2509  1.4526 -0.7702
  241MOL0     H31805   8.919   6.530   3.980 -0.3622  0.4979  0.0860
  241MOL0     H31806   8.992   6.386   3.722  1.5118 -0.3751 -0.9018
  241MOL0     H31807   9.008   6.340   3.888  2.2419 -0.6184  0.8660
  241MOL0     H31808   9.187   6.496   3.925 -0.5894  3.0892 -0.9728
  241MOL0     H31809   9.219   6.357   3.802 -0.0187 -0.1008  1.5204
  241MOL0     H31810   9.249   6.641   3.508 -0.3440  0.8306  1.0328
  241MOL0     H31811   8.758   6.596   3.439 -0.9100  1.8498 -0.3988
  241MOL0     H31812   8.555   6.609   3.300 -2.9696 -2.7791 -1.1751
  242MOL0     O31813   0.876   1.044   6.414  0.1775 -0.2486  0.0094
  242MOL0     C31814   0.964   1.018   6.336 -0.6944 -0.2027  0.7449
  242MOL0     O31815   0.948   0.984   6.198  0.3574  0.5503 -0.5892
  242MOL0     C31816   0.823   0.969   6.167  0.7731  0.8850  0.5979
  242MOL0     C31817   0.737   1.071   6.120  0.5322  0.1089  0.3782
  242MOL0     C31818   0.605   1.047   6.071  0.5858 -0.8170 -1.1953
  242MOL0     C31819   0.571   0.914   6.058  0.1382  0.3595 -0.3735
  242MOL0     O31820   0.442   0.875   6.029 -0.2295 -0.5626 -0.5807
  242MOL0     C31821   0.346   0.972   5.980  0.2629  0.7440  0.9664
  242MOL0     C31822   0.224   0.887   5.929 -0.3468  0.4733 -0.0995
  242MOL0     C31823   0.096   0.975   5.915  0.9717  0.3789 -0.5994
  242MOL0     C31824   0.122   1.074   5.798 -0.3086  0.3552 -0.5301
  242MOL0     C31825  -0.007   1.154   5.763 -0.4393  0.0886 -0.2942
  242MOL0     C31826  -0.118   1.060   5.712  0.0936 -1.1017  0.2519
  242MOL0     C31827  -0.257   1.116   5.675 -0.1007 -0.8563 -0.1847
  242MOL0     C31828  -0.314   1.204   5.791  0.0140 -0.0493  0.0705
  242MOL0     N31829  -0.337   1.119   5.905 -0.5877  0.2908 -0.0671
  242MOL0     C31830  -0.450   1.047   5.928 -0.4689 -0.3733 -0.9059
  242MOL0     C31831  -0.420   0.981   6.041  0.5414  1.0110  0.1457
  242MOL0     C31832  -0.510   0.895   6.118 -0.3460  0.1052 -0.0047
  242MOL0     C31833  -0.544   0.974   6.243  0.1770 -0.4102  0.7190
  242MOL0     C31834  -0.659   0.911   6.311  1.0947 -0.2296 -0.1954
  242MOL0     C31835  -0.796   0.942   6.255  0.9903  0.7555  0.1045
  242MOL0     O31836  -0.814   0.884   6.123  0.6771  0.1718 -0.5691
  242MOL0     C31837  -0.936   0.860   6.064 -0.0004  0.2883  0.0569
  242MOL0     C31838  -1.055   0.908   6.120  0.9342 -0.5256 -0.2190
  242MOL0     C31839  -1.171   0.902   6.038 -0.5965  0.1280  0.7491
  242MOL0     C31840  -1.168   0.858   5.903 -0.1905 -0.4615 -0.3214
  242MOL0     C31841  -1.299   0.837   5.829 -0.8948  0.9200 -0.3256
  242MOL0     O31842  -1.292   0.758   5.719  0.9601  0.1782  0.0832
  242MOL0     C31843  -1.391   0.769   5.622 -0.0472 -0.0948  0.7073
  242MOL0     C31844  -1.491   0.670   5.617 -0.4398 -0.6649 -0.4794
  242MOL0     C31845  -1.600   0.677   5.530 -1.2896  0.1310  0.6913
  242MOL0     C31846  -1.601   0.782   5.443 -0.1822  0.8939 -0.2012
  242MOL0     O31847  -1.717   0.795   5.368  0.2871 -0.3613  0.6450
  242MOL0     C31848  -1.742   0.920   5.302  0.1294 -0.0661 -1.0081
  242MOL0     C31849  -1.846   0.901   5.198 -0.2761  0.5118 -0.1163
  242MOL0     C31850  -1.806   0.809   5.078 -0.6275  0.1905  0.4064
  242MOL0     C31851  -1.716   0.879   4.983  0.0870  0.0281  0.3693
  242MOL0     C31852  -1.674   0.811   4.855 -0.3171  0.2001 -0.2537
  242MOL0     C31853  -1.780   0.777   4.757  0.3214  1.3416  0.3596
  242MOL0     C31854  -1.736   0.683   4.656 -0.2981 -0.3990  0.6670
  242MOL0     C31855  -1.637   0.732   4.562  0.3954 -0.6570 -0.1802
  242MOL0    Cl31856  -1.710   0.847   4.447 -0.0894  0.0515 -0.2001
  242MOL0     C31857  -1.497   0.888   5.454  0.1624  0.0696 -0.3524
  242MOL0     C31858  -1.390   0.883   5.542 -0.3000 -0.3495  0.2264
  242MOL0     O31859  -1.398   0.901   5.871 -0.1630  0.8175  0.3726
  242MOL0     C31860  -1.046   0.812   5.849 -0.1071  0.0672 -0.3656
  242MOL0     C31861  -0.929   0.821   5.928  0.1324  0.1691 -0.0554
  242MOL0     N31862  -0.287   1.008   6.081  0.3538  0.6233  0.2947
  242MOL0     N31863  -0.238   1.096   6.000  0.8167  0.5388 -0.6920
  242MOL0     C31864   0.655   0.811   6.119  0.4274  0.3990 -0.2787
  242MOL0     C31865   0.782   0.841   6.164  0.3610  0.2701  0.5276
  242MOL0     C31866   1.104   1.001   6.385 -0.3378 -0.8000  0.5593
  242MOL0     C31867   1.128   0.989   6.522  0.1774 -0.1525 -0.1879
  242MOL0     C31868   1.257   1.006   6.571 -0.5698  0.0136 -0.0812
  242MOL0     C31869   1.369   1.014   6.478 -0.2982  0.4094 -1.3470
  242MOL0     O31870   1.502   0.998   6.522  1.0201  0.2989  0.2695
  242MOL0     C31871   1.538   1.046   6.647 -0.2219 -0.1679 -0.1815
  242MOL0     C31872   1.537   1.193   6.661  0.2185 -0.8549 -0.5618
  242MOL0     C31873   1.628   1.254   6.559 -0.5280 -0.7153  0.1996
  242MOL0     C31874   1.645   1.407   6.560  1.5002 -0.5524  0.2940
  242MOL0     C31875   1.714   1.452   6.683 -0.2636 -0.6467  0.0248
  242MOL0     C31876   1.770   1.467   6.789 -0.4164 -0.3617 -0.6351
  242MOL0     C31877   1.339   1.013   6.346  0.7181 -1.4850  0.7726
  242MOL0     C31878   1.214   1.015   6.300  0.0438  0.3235 -0.1447
  242MOL0     H31879   0.786   1.165   6.144  1.1227 -0.5241  1.7297
  242MOL0     H31880   0.551   1.136   6.039  1.9634  0.1734 -0.8847
  242MOL0     H31881   0.371   1.035   5.895 -2.8110 -1.9226 -2.2348
  242MOL0     H31882   0.311   1.038   6.060 -1.9131  0.4543  0.3161
  242MOL0     H31883   0.209   0.800   5.993  1.1247 -0.3286 -0.8138
  242MOL0     H31884   0.240   0.855   5.825  1.0900  0.4170  0.1211
  242MOL0     H31885   0.077   1.031   6.007  0.0465 -3.1511  1.5606
  242MOL0     H31886   0.026   0.897   5.885  0.8252  0.4750 -0.5047
  242MOL0     H31887   0.198   1.145   5.832 -0.4264 -0.6228  2.0029
  242MOL0     H31888   0.163   1.029   5.708  1.0770 -0.4170  0.4500
  242MOL0     H31889   0.011   1.215   5.674  1.3474 -0.2381 -0.1964
  242MOL0     H31890  -0.037   1.231   5.834 -0.5884  3.2085 -3.5003
  242MOL0     H31891  -0.144   0.983   5.785  0.0075 -1.3133  0.0024
  242MOL0     H31892  -0.074   1.004   5.629  1.0159  1.9046 -1.4181
  242MOL0     H31893  -0.260   1.181   5.587 -0.0739  2.0808  1.8530
  242MOL0     H31894  -0.326   1.035   5.651 -2.6910  1.2736 -0.3946
  242MOL0     H31895  -0.408   1.256   5.769  0.0430 -0.6543 -1.6667
  242MOL0     H31896  -0.254   1.289   5.825 -0.4101  0.7229 -1.0560
  242MOL0     H31897  -0.548   1.061   5.882 -0.1701 -2.6379 -2.4292
  242MOL0     H31898  -0.480   0.793   6.142 -1.4104  0.1341  1.5657
  242MOL0     H31899  -0.597   0.876   6.054  0.5405 -0.8118 -0.9790
  242MOL0     H31900  -0.578   1.077   6.231 -2.7332 -1.4223 -0.4439
  242MOL0     H31901  -0.457   0.961   6.309  0.8204  0.2930  0.0328
  242MOL0     H31902  -0.625   0.808   6.326 -1.3715 -0.6667  3.6182
  242MOL0     H31903  -0.667   0.949   6.413 -0.5934 -2.2060  0.4570
  242MOL0     H31904  -0.818   1.048   6.273  0.6359  0.6174  0.4847
  242MOL0     H31905  -0.874   0.898   6.317  1.8115  1.0692  1.4126
  242MOL0     H31906  -1.054   0.948   6.221  2.0944  1.6493 -1.0264
  242MOL0     H31907  -1.267   0.936   6.077 -1.4683 -2.2182  0.8630
  242MOL0     H31908  -1.480   0.584   5.683  0.5232 -0.2057 -0.0113
  242MOL0     H31909  -1.664   0.590   5.528  1.5925 -2.1512 -1.7419
  242MOL0     H31910  -1.657   0.962   5.247  0.4762 -1.3300 -1.4843
  242MOL0     H31911  -1.773   0.989   5.381 -0.6563 -0.2916 -1.1173
  242MOL0     H31912  -1.883   0.999   5.167 -1.3589 -0.4646 -2.0451
  242MOL0     H31913  -1.929   0.858   5.255  0.9058  1.3597  2.4155
  242MOL0     H31914  -1.905   0.782   5.040 -0.6284  0.7944 -0.0339
  242MOL0     H31915  -1.753   0.720   5.113  3.5650  1.6418 -1.6081
  242MOL0     H31916  -1.762   0.975   4.959  1.4428  0.4182 -0.8560
  242MOL0     H31917  -1.621   0.907   5.029 -0.0046 -1.0858  1.2743
  242MOL0     H31918  -1.616   0.723   4.883 -0.3829  0.2339 -0.0131
  242MOL0     H31919  -1.603   0.875   4.800  1.5356 -1.3452  0.2177
  242MOL0     H31920  -1.835   0.857   4.707 -3.2896 -1.2919 -0.2738
  242MOL0     H31921  -1.853   0.720   4.815  1.2982 -2.7428 -2.0232
  242MOL0     H31922  -1.683   0.606   4.714  2.2606  0.0397 -0.9133
  242MOL0     H31923  -1.818   0.632   4.604  1.1436 -0.2546 -1.9473
  242MOL0     H31924  -1.602   0.646   4.504  3.9019  1.9057 -2.2413
  242MOL0     H31925  -1.548   0.774   4.611  0.6671  1.9884 -2.6616
  242MOL0     H31926  -1.491   0.958   5.371 -2.0177  0.5455 -0.1623
  242MOL0     H31927  -1.311   0.954   5.562 -0.5885  0.4734 -1.3954
  242MOL0     H31928  -1.045   0.759   5.754 -1.1734 -1.4407  0.4137
  242MOL0     H31929  -0.828   0.798   5.896  0.3725  0.2173  0.6576
  242MOL0     H31930   0.613   0.711   6.128  3.5161 -0.9041  1.2632
  242MOL0     H31931   0.848   0.760   6.193  0.7230 -0.0327 -1.0593
  242MOL0     H31932   1.046   0.967   6.589  1.9942  1.3591  2.7277
  242MOL0     H31933   1.271   0.998   6.678  0.9220 -0.2342 -0.2712
  242MOL0     H31934   1.637   1.005   6.670  0.6962 -0.1594 -3.5325
  242MOL0     H31935   1.476   0.992   6.720  2.5756 -1.1284  1.6414
  242MOL0     H31936   1.441   1.241   6.644  0.5909 -0.7788 -2.8613
  242MOL0     H31937   1.583   1.221   6.756  0.1439  0.8150 -0.9874
  242MOL0     H31938   1.595   1.235   6.457 -1.7410  3.2542 -0.3075
  242MOL0     H31939   1.730   1.218   6.572  0.7053  2.3290 -0.1802
  242MOL0     H31940   1.702   1.439   6.472  1.4882  0.5004  0.6597
  242MOL0     H31941   1.543   1.444   6.548  0.5964 -3.6346 -4.5543
  242MOL0     H31942   1.811   1.481   6.886 -2.3434  1.9530 -0.0511
  242MOL0     H31943   1.412   1.024   6.267 -0.9872  1.7045 -0.5382
  242MOL0     H31944   1.197   1.045   6.198  0.8570  0.5098 -0.2318
  243MOL0     O31945   3.331   2.393   0.594 -0.2657 -0.0888  0.0547
  243MOL0     C31946   3.267   2.296   0.563  0.0031  0.1022 -0.5409
  243MOL0     O31947   3.248   2.185   0.644 -0.1226  0.0076  0.0896
  243MOL0     C31948   3.299   2.160   0.769 -0.3046  0.6580 -0.6853
  243MOL0     C31949   3.438   2.168   0.787  0.6319  0.2712 -0.5317
  243MOL0     C31950   3.499   2.157   0.912  0.5415 -0.1195 -0.6263
  243MOL0     C31951   3.417   2.130   1.030 -0.2619 -0.2009 -0.2410
  243MOL0     O31952   3.470   2.118   1.157 -0.6440 -0.1190  0.2877
  243MOL0     C31953   3.599   2.178   1.195  0.1015 -0.4235 -0.8169
  243MOL0     C31954   3.574   2.280   1.310  0.6718  0.3332  0.4703
  243MOL0     C31955   3.531   2.215   1.449 -0.3752  0.5384  0.7265
  243MOL0     C31956   3.379   2.183   1.466  1.2324  0.0670 -0.1267
  243MOL0     C31957   3.285   2.314   1.480 -0.0474  0.2291  0.2296
  243MOL0     C31958   3.163   2.313   1.381  0.4607 -0.1872 -0.3575
  243MOL0     C31959   3.061   2.204   1.416 -0.2993  0.4729 -0.4338
  243MOL0     C31960   3.027   2.203   1.568 -0.0317 -0.3503 -1.0489
  243MOL0     N31961   2.893   2.141   1.606 -0.0423 -0.9568 -0.3602
  243MOL0     C31962   2.805   2.077   1.523 -0.0889 -0.6014  0.1148
  243MOL0     C31963   2.700   2.043   1.605 -0.0243 -0.2018  0.3292
  243MOL0     C31964   2.563   1.982   1.575  0.5853  0.2423 -1.1745
  243MOL0     C31965   2.442   2.076   1.619  0.0969  0.5832  0.0364
  243MOL0     C31966   2.318   2.003   1.660  0.3991 -0.1677  0.6937
  243MOL0     C31967   2.288   1.879   1.577  0.2985  0.5895  0.0872
  243MOL0     O31968   2.347   1.752   1.614  0.4368  0.2705  0.1038
  243MOL0     C31969   2.255   1.676   1.668  0.4839 -1.1059  0.1101
  243MOL0     C31970   2.235   1.684   1.809  0.3858 -0.0503 -0.4456
  243MOL0     C31971   2.155   1.596   1.887 -0.4188 -0.4151 -0.6374
  243MOL0     C31972   2.099   1.481   1.822 -0.4705 -0.5989 -0.1632
  243MOL0     C31973   2.032   1.377   1.904 -0.0752  0.0292  0.1567
  243MOL0     O31974   1.954   1.419   2.011 -0.6536  0.3319  0.8682
  243MOL0     C31975   1.876   1.324   2.067  0.5792 -0.0370  0.1444
  243MOL0     C31976   1.921   1.222   2.153 -0.5384  0.0588 -0.5449
  243MOL0     C31977   1.837   1.126   2.194 -0.9487 -0.6240 -0.8017
  243MOL0     C31978   1.702   1.125   2.157 -0.0937  0.2669 -0.0185
  243MOL0     O31979   1.621   1.021   2.184 -0.5437 -0.3468  0.2602
  243MOL0     C31980   1.608   1.010   2.321  0.2286 -0.7859 -1.1551
  243MOL0     C31981   1.577   0.869   2.365 -0.2912  0.8301 -0.1101
  243MOL0     C31982   1.451   0.803   2.305  0.0510  0.2102 -0.6048
  243MOL0     C31983   1.459   0.646   2.290 -0.4436 -0.4762 -0.0220
  243MOL0     C31984   1.450   0.584   2.424 -1.0796  0.6374 -0.3355
  243MOL0     C31985   1.458   0.430   2.410 -0.2675  1.0445  0.0790
  243MOL0     C31986   1.500   0.378   2.553 -0.2362  0.2751 -0.0219
  243MOL0     C31987   1.449   0.244   2.587  0.1738 -0.0824  1.1611
  243MOL0    Cl31988   1.280   0.219   2.571 -0.4581  0.2584  0.1453
  243MOL0     C31989   1.650   1.232   2.085  0.5362  0.8974  0.5486
  243MOL0     C31990   1.737   1.335   2.047  0.2951  0.7209 -0.8104
  243MOL0     O31991   2.021   1.269   1.854 -0.4723 -0.4720  0.0633
  243MOL0     C31992   2.122   1.472   1.680 -0.1553  0.7814  1.0060
  243MOL0     C31993   2.202   1.570   1.608 -0.4137  0.2474  0.4014
  243MOL0     N31994   2.738   2.060   1.732 -0.2594 -0.5117  0.0662
  243MOL0     N31995   2.851   2.125   1.735  0.0897 -0.7504 -1.1480
  243MOL0     C31996   3.281   2.101   1.004  0.2405  0.6697  0.6335
  243MOL0     C31997   3.219   2.120   0.877  0.4596 -0.3085 -0.0239
  243MOL0     C31998   3.182   2.304   0.445 -0.3287  0.7753 -0.5910
  243MOL0     C31999   3.197   2.412   0.357  0.0944  0.0358  0.5931
  243MOL0     C32000   3.112   2.431   0.242 -0.3022 -0.2542 -0.9152
  243MOL0     C32001   3.015   2.332   0.210  0.5351 -1.0105  0.0547
  243MOL0     O32002   2.947   2.336   0.092  0.3836  0.3283 -0.2750
  243MOL0     C32003   2.873   2.450   0.054 -0.5525 -0.4788 -0.6649
  243MOL0     C32004   2.731   2.460   0.117  0.4635  0.7423  0.7073
  243MOL0     C32005   2.654   2.335   0.082  0.2660 -0.0697  0.1751
  243MOL0     C32006   2.499   2.372   0.085 -0.5499  0.5414 -0.2060
  243MOL0     C32007   2.452   2.440  -0.037  0.4407 -0.2934 -0.0272
  243MOL0     C32008   2.424   2.469  -0.153  0.0276  0.6128 -0.8376
  243MOL0     C32009   2.999   2.231   0.295  0.2006  0.3620  0.3223
  243MOL0     C32010   3.079   2.217   0.403  0.0739 -0.3834 -0.8148
  243MOL0     H32011   3.491   2.191   0.695 -0.6755 -1.1597 -1.7129
  243MOL0     H32012   3.606   2.170   0.918  0.6453 -0.8340 -0.8049
  243MOL0     H32013   3.656   2.233   1.120  0.4748  1.3050  0.6690
  243MOL0     H32014   3.650   2.088   1.229  0.4618 -1.1904 -3.2089
  243MOL0     H32015   3.507   2.365   1.292  0.8486  0.0294 -1.9988
  243MOL0     H32016   3.674   2.319   1.329  0.3673 -0.2077  3.5656
  243MOL0     H32017   3.560   2.275   1.535  4.5874  1.7189 -1.4273
  243MOL0     H32018   3.598   2.128   1.454 -0.3243  0.1325 -3.4162
  243MOL0     H32019   3.337   2.124   1.384  1.1579  1.1995 -0.9146
  243MOL0     H32020   3.355   2.122   1.553  0.0210  2.3659  1.2447
  243MOL0     H32021   3.339   2.404   1.448 -1.8541  0.8461 -1.3014
  243MOL0     H32022   3.250   2.325   1.583 -0.9905 -0.9303  0.0551
  243MOL0     H32023   3.210   2.301   1.284  1.3527  0.3657 -0.0008
  243MOL0     H32024   3.116   2.411   1.371  0.0974 -0.1389  1.4718
  243MOL0     H32025   2.978   2.219   1.347 -1.3884 -1.1209  0.4420
  243MOL0     H32026   3.109   2.109   1.391  0.8677  1.2467 -1.2147
  243MOL0     H32027   3.011   2.307   1.598  0.8111 -0.9256  1.6680
  243MOL0     H32028   3.095   2.141   1.627 -1.9807 -2.4776 -0.9250
  243MOL0     H32029   2.807   2.057   1.417  0.2890 -0.8705  0.1713
  243MOL0     H32030   2.558   1.887   1.628 -0.3080  0.7449 -0.3389
  243MOL0     H32031   2.536   1.967   1.470  0.8263 -2.6480 -0.9105
  243MOL0     H32032   2.414   2.147   1.541 -0.1117 -0.3987 -0.8063
  243MOL0     H32033   2.475   2.128   1.709 -2.1224 -0.5917  1.6239
  243MOL0     H32034   2.307   2.000   1.769 -1.5850  1.6000  0.6024
  243MOL0     H32035   2.238   2.069   1.628  1.7035  1.0142 -0.2761
  243MOL0     H32036   2.320   1.885   1.473  0.5379 -2.2367 -0.0865
  243MOL0     H32037   2.181   1.864   1.561  0.3722 -0.4244  0.4602
  243MOL0     H32038   2.283   1.761   1.870 -0.4580  2.0057 -2.2434
  243MOL0     H32039   2.134   1.617   1.991  0.6125  0.9780 -0.6900
  243MOL0     H32040   2.025   1.211   2.183 -1.0020 -1.4697  0.6587
  243MOL0     H32041   1.874   1.035   2.241 -0.6042  0.9677  2.2270
  243MOL0     H32042   1.538   1.092   2.339 -2.3652 -2.4383 -2.9599
  243MOL0     H32043   1.696   1.023   2.384  0.9534 -0.7537 -2.1370
  243MOL0     H32044   1.553   0.868   2.472  1.0273  0.9518  0.1968
  243MOL0     H32045   1.663   0.805   2.345 -2.1732 -1.3553 -1.7254
  243MOL0     H32046   1.434   0.853   2.209  0.2943  2.9268  0.6644
  243MOL0     H32047   1.358   0.832   2.355 -1.3348 -2.2573 -1.5764
  243MOL0     H32048   1.383   0.599   2.227 -1.4675 -0.4940  1.1788
  243MOL0     H32049   1.561   0.637   2.251 -0.1417  0.5581  0.4822
  243MOL0     H32050   1.356   0.617   2.470 -0.1302  0.7023  1.6617
  243MOL0     H32051   1.526   0.624   2.492 -0.8086  1.4960 -1.1235
  243MOL0     H32052   1.542   0.401   2.347  1.5630  0.4573  2.6011
  243MOL0     H32053   1.370   0.373   2.380 -0.8946  1.8830  0.3028
  243MOL0     H32054   1.609   0.378   2.562 -0.2183 -1.1375  0.0541
  243MOL0     H32055   1.448   0.443   2.625 -2.4437  0.9296 -2.0900
  243MOL0     H32056   1.475   0.219   2.690 -0.4066  1.3974  1.7001
  243MOL0     H32057   1.481   0.173   2.510  0.3693  1.3039 -0.0798
  243MOL0     H32058   1.544   1.226   2.065  0.5080 -0.9303  1.0418
  243MOL0     H32059   1.688   1.420   2.001 -1.0087  1.0208  1.0407
  243MOL0     H32060   2.110   1.386   1.614  0.4848  1.3607  0.1004
  243MOL0     H32061   2.225   1.562   1.502 -1.8975 -1.9252  0.1655
  243MOL0     H32062   3.220   2.072   1.090 -0.0884  0.3488  0.2927
  243MOL0     H32063   3.119   2.088   0.852  2.1291 -4.1654 -2.6927
  243MOL0     H32064   3.268   2.493   0.370  0.3226  0.4063 -2.2850
  243MOL0     H32065   3.121   2.519   0.179 -1.5896 -1.7220 -3.2645
  243MOL0     H32066   2.875   2.457  -0.055  0.3386 -0.7289 -0.6718
  243MOL0     H32067   2.917   2.543   0.090  1.3644 -2.0342  1.3298
  243MOL0     H32068   2.748   2.467   0.225  0.8195  0.4011  0.6746
  243MOL0     H32069   2.682   2.549   0.078 -0.6031 -0.8733 -1.9069
  243MOL0     H32070   2.679   2.255   0.153 -3.2078 -2.5922 -1.1601
  243MOL0     H32071   2.671   2.292  -0.017 -3.0155 -1.4276  0.0651
  243MOL0     H32072   2.437   2.283   0.099 -0.5100 -0.2340 -3.8842
  243MOL0     H32073   2.486   2.430   0.177 -1.8098 -0.3756  0.2119
  243MOL0     H32074   2.381   2.482  -0.250 -0.3811  1.2822 -0.5674
  243MOL0     H32075   2.922   2.157   0.274 -0.6982  1.7041 -1.4324
  243MOL0     H32076   3.048   2.139   0.472 -2.4471  2.7163  1.9046
  244MOL0     O32077   1.916   0.297   2.146 -0.2379 -0.4930 -0.1781
  244MOL0     C32078   1.892   0.413   2.194 -0.8790 -0.0387 -0.3594
  244MOL0     O32079   1.891   0.443   2.328 -0.6738 -0.3106 -0.3039
  244MOL0     C32080   1.912   0.335   2.412  0.8104 -0.7830 -0.2574
  244MOL0     C32081   2.005   0.348   2.515  0.2589 -0.4217 -0.2065
  244MOL0     C32082   2.017   0.256   2.614  0.2021  0.4474 -0.8517
  244MOL0     C32083   1.946   0.137   2.611 -0.7100  0.5434 -0.8454
  244MOL0     O32084   1.959   0.037   2.704  0.0572  0.2333  0.2359
  244MOL0     C32085   2.046  -0.063   2.668 -0.0684  1.1544 -0.5072
  244MOL0     C32086   2.086  -0.159   2.785 -0.0334  1.0617  0.3399
  244MOL0     C32087   2.194  -0.263   2.740  0.8173 -0.9639 -0.4236
  244MOL0     C32088   2.342  -0.202   2.734  0.1858  0.0810 -0.1579
  244MOL0     C32089   2.453  -0.304   2.707  0.7108  0.8826  0.1262
  244MOL0     C32090   2.580  -0.234   2.657  0.5147 -0.7714 -0.0658
  244MOL0     C32091   2.686  -0.315   2.596 -0.2971 -0.6662  0.5824
  244MOL0     C32092   2.677  -0.353   2.452  0.3061 -0.2919 -0.6505
  244MOL0     N32093   2.773  -0.456   2.413 -0.1334  0.6478 -0.2336
  244MOL0     C32094   2.912  -0.453   2.424  0.2049 -1.2372 -0.5112
  244MOL0     C32095   2.949  -0.561   2.356  0.5978 -0.2054 -0.3277
  244MOL0     C32096   3.090  -0.612   2.318 -0.1626 -0.0466 -0.3336
  244MOL0     C32097   3.182  -0.488   2.326 -0.2906 -0.9257  0.1148
  244MOL0     C32098   3.331  -0.510   2.290  0.1265 -0.0604 -0.1440
  244MOL0     C32099   3.369  -0.523   2.147  0.5073 -0.3095  0.6700
  244MOL0     O32100   3.331  -0.410   2.076 -0.6616 -0.1538 -0.4289
  244MOL0     C32101   3.401  -0.295   2.073  0.4791  0.2020 -0.3843
  244MOL0     C32102   3.544  -0.299   2.071  0.8322 -0.2669 -0.9222
  244MOL0     C32103   3.613  -0.179   2.067  0.5571  0.0401  0.5285
  244MOL0     C32104   3.550  -0.057   2.039  1.6616 -0.2075 -0.8636
  244MOL0     C32105   3.613   0.074   2.034  0.0011  0.3714  0.6859
  244MOL0     O32106   3.548   0.185   1.990 -0.2948 -0.5313  0.8434
  244MOL0     C32107   3.606   0.308   2.010 -0.1495 -2.0501  0.6592
  244MOL0     C32108   3.703   0.370   1.924 -0.5233  0.3705 -1.2497
  244MOL0     C32109   3.749   0.504   1.952 -0.6182 -0.0936 -0.1247
  244MOL0     C32110   3.706   0.576   2.066  0.1620 -0.1535 -0.5436
  244MOL0     O32111   3.741   0.703   2.093 -0.4034  0.0555 -1.1261
  244MOL0     C32112   3.877   0.744   2.058  1.0632 -0.4422 -0.7019
  244MOL0     C32113   3.884   0.889   2.103  0.2745  0.4365  0.1453
  244MOL0     C32114   3.890   0.907   2.255  0.5464  0.1036 -0.4349
  244MOL0     C32115   3.882   1.043   2.311 -0.0685  0.1276 -0.3949
  244MOL0     C32116   3.978   1.055   2.429 -0.1010 -0.3896 -0.5203
  244MOL0     C32117   3.954   1.183   2.519 -0.0885  1.9008 -0.0032
  244MOL0     C32118   4.060   1.205   2.626  0.1697 -0.2557  0.7390
  244MOL0     C32119   4.061   1.336   2.711 -0.9759  0.6934 -0.0200
  244MOL0    Cl32120   4.055   1.480   2.601 -0.1626  0.4828  0.2394
  244MOL0     C32121   3.618   0.513   2.152  0.8031 -0.2844 -0.3672
  244MOL0     C32122   3.565   0.382   2.121  0.3722 -0.9305  0.6176
  244MOL0     O32123   3.721   0.080   2.085 -0.7971 -0.1915 -0.1848
  244MOL0     C32124   3.406  -0.061   2.032 -0.4881  0.1640 -1.0257
  244MOL0     C32125   3.333  -0.173   2.038  0.2671 -0.5737  0.1430
  244MOL0     N32126   2.838  -0.623   2.298  0.9408  0.7334  0.1736
  244MOL0     N32127   2.735  -0.569   2.353 -0.2059  0.2966  0.3532
  244MOL0     C32128   1.845   0.128   2.519 -0.4452 -0.0095  0.0448
  244MOL0     C32129   1.826   0.223   2.425 -0.1332 -0.9191  0.2522
  244MOL0     C32130   1.877   0.530   2.104  0.1493  0.3472  0.4475
  244MOL0     C32131   1.909   0.502   1.968  0.2103  0.0078  0.1615
  244MOL0     C32132   1.892   0.605   1.880 -0.2245  0.3293 -0.5558
  244MOL0     C32133   1.841   0.728   1.919 -0.1875 -0.2038 -0.4990
  244MOL0     O32134   1.821   0.816   1.816  0.9836 -0.7782  0.1043
  244MOL0     C32135   1.886   0.939   1.819  0.2406 -0.0437  0.7607
  244MOL0     C32136   1.922   0.999   1.687 -0.1944  0.3470  0.6799
  244MOL0     C32137   1.793   1.041   1.609  0.2371  0.1899 -0.5650
  244MOL0     C32138   1.828   1.109   1.473 -0.6208 -0.1184 -0.0150
  244MOL0     C32139   1.899   1.027   1.375  0.1617 -0.4965 -0.1017
  244MOL0     C32140   1.973   0.976   1.294 -0.3636  0.0203 -0.3496
  244MOL0     C32141   1.808   0.762   2.056  0.4668  0.3208 -0.2052
  244MOL0     C32142   1.832   0.658   2.150  0.1821 -0.2894 -0.4945
  244MOL0     H32143   2.064   0.439   2.529 -1.4555  0.9711 -1.5201
  244MOL0     H32144   2.085   0.258   2.698  0.6395 -2.4001 -1.0523
  244MOL0     H32145   2.133  -0.006   2.634  0.3777  1.1080  0.5306
  244MOL0     H32146   2.007  -0.113   2.578  0.6407  0.5434 -0.4829
  244MOL0     H32147   2.000  -0.218   2.820 -0.0304  0.1767 -1.0265
  244MOL0     H32148   2.131  -0.106   2.869  1.8217  0.4673 -0.2437
  244MOL0     H32149   2.176  -0.299   2.638  1.0768 -1.7385 -0.2060
  244MOL0     H32150   2.186  -0.349   2.808 -0.1391 -0.3955  0.2181
  244MOL0     H32151   2.335  -0.139   2.645  0.4250  0.6726  0.2335
  244MOL0     H32152   2.365  -0.124   2.807  0.8614  0.5962 -0.9007
  244MOL0     H32153   2.400  -0.375   2.643 -1.8323  3.2610 -0.6018
  244MOL0     H32154   2.494  -0.358   2.794  1.7015  0.3516 -0.6475
  244MOL0     H32155   2.610  -0.170   2.740 -2.5012  0.2478  0.3699
  244MOL0     H32156   2.554  -0.165   2.576  1.5559 -1.6323 -1.1697
  244MOL0     H32157   2.781  -0.267   2.621  0.2482 -2.9282  3.5376
  244MOL0     H32158   2.686  -0.403   2.662  0.4445 -0.1281  1.3167
  244MOL0     H32159   2.702  -0.274   2.382 -1.3511 -1.3656 -2.5797
  244MOL0     H32160   2.574  -0.378   2.426 -0.0755  1.2552 -0.6799
  244MOL0     H32161   2.972  -0.369   2.459 -0.7249 -1.6207  2.1830
  244MOL0     H32162   3.088  -0.656   2.219 -1.9893 -1.0097  0.0941
  244MOL0     H32163   3.128  -0.683   2.392 -0.8839  2.0839  2.2495
  244MOL0     H32164   3.178  -0.464   2.433 -0.5660  2.2263 -0.5052
  244MOL0     H32165   3.131  -0.398   2.292 -0.3627  0.3693  3.2953
  244MOL0     H32166   3.372  -0.413   2.321 -1.5769  0.3619  0.9567
  244MOL0     H32167   3.379  -0.585   2.353  0.2278  1.7197  2.0279
  244MOL0     H32168   3.329  -0.615   2.105  1.7502 -2.9170  4.6356
  244MOL0     H32169   3.477  -0.540   2.149  0.8073  1.4635  1.4430
  244MOL0     H32170   3.602  -0.391   2.073  3.2307  1.1430  2.1236
  244MOL0     H32171   3.719  -0.202   2.075  0.4280 -0.2037  1.7890
  244MOL0     H32172   3.738   0.310   1.842 -1.3906 -0.8852 -0.7328
  244MOL0     H32173   3.817   0.547   1.879 -0.4644  3.5577  1.8752
  244MOL0     H32174   3.898   0.735   1.951 -0.0194 -1.1113 -0.8762
  244MOL0     H32175   3.953   0.696   2.120 -1.0353 -1.3423  1.3083
  244MOL0     H32176   3.793   0.941   2.072 -0.1846  1.1954  2.6383
  244MOL0     H32177   3.975   0.931   2.059  0.7056  0.9104  1.4451
  244MOL0     H32178   3.994   0.883   2.280  1.3200 -1.2714 -4.2884
  244MOL0     H32179   3.818   0.841   2.303 -1.6441  1.4951 -1.6189
  244MOL0     H32180   3.905   1.111   2.228  1.7911  0.6555  0.4965
  244MOL0     H32181   3.778   1.064   2.336 -0.6923 -0.2264 -2.4590
  244MOL0     H32182   4.078   1.059   2.384  0.8237 -3.3922  0.9544
  244MOL0     H32183   3.975   0.961   2.486  0.1444 -1.1260 -1.6908
  244MOL0     H32184   3.862   1.156   2.571  0.9030 -2.9941 -0.3263
  244MOL0     H32185   3.945   1.264   2.446 -0.3464  0.0137 -2.1934
  244MOL0     H32186   4.046   1.130   2.704  0.8036  0.6313  1.7345
  244MOL0     H32187   4.157   1.187   2.577 -0.3000 -0.2746 -0.2029
  244MOL0     H32188   4.154   1.328   2.768  0.3412  2.8537 -1.7122
  244MOL0     H32189   3.982   1.350   2.786  1.6744 -2.1530  3.7334
  244MOL0     H32190   3.580   0.570   2.236 -0.4558 -1.4583 -0.1073
  244MOL0     H32191   3.488   0.350   2.191  0.2264 -0.5069  0.6575
  244MOL0     H32192   3.356   0.035   2.018  2.8244  2.1829 -0.0082
  244MOL0     H32193   3.227  -0.169   2.012  0.4153 -0.7811 -0.5190
  244MOL0     H32194   1.787   0.037   2.522 -1.3696  0.6002  2.0631
  244MOL0     H32195   1.752   0.211   2.347  0.3512 -2.0320 -0.0643
  244MOL0     H32196   1.965   0.416   1.933 -0.6144 -0.0263 -1.1517
  244MOL0     H32197   1.929   0.588   1.779 -0.9344 -1.0517 -0.6007
  244MOL0     H32198   1.978   0.931   1.878  0.2617  3.1390  1.3470
  244MOL0     H32199   1.817   1.005   1.872 -1.9304 -2.5309  1.1801
  244MOL0     H32200   1.984   1.087   1.708 -0.9615  1.0364  0.1229
  244MOL0     H32201   1.981   0.924   1.633 -1.5414  1.1543 -2.1061
  244MOL0     H32202   1.742   1.111   1.676  2.4030 -2.2276  4.1200
  244MOL0     H32203   1.737   0.949   1.589  0.7275 -0.8724  2.4456
  244MOL0     H32204   1.741   1.154   1.422  1.4640 -0.7348 -4.6191
  244MOL0     H32205   1.888   1.194   1.507 -0.3802 -0.2062 -0.2269
  244MOL0     H32206   2.039   0.952   1.213  1.0856  0.6826  0.5818
  244MOL0     H32207   1.775   0.863   2.075 -2.5096 -1.0183  2.7928
  244MOL0     H32208   1.822   0.683   2.255  2.1930 -2.0338  0.1769
  245MOL0     O32209   3.716   9.225   5.709 -0.6594 -0.4479 -1.0486
  245MOL0     C32210   3.646   9.273   5.619  0.2831  0.7149 -0.8145
  245MOL0     O32211   3.665   9.389   5.554 -0.0552  0.0707 -0.3467
  245MOL0     C32212   3.758   9.482   5.582 -0.3408 -0.5458 -0.2862
  245MOL0     C32213   3.871   9.475   5.673  0.8999  0.1014  0.4981
  245MOL0     C32214   3.950   9.582   5.698 -0.0368 -0.5669 -1.0357
  245MOL0     C32215   3.929   9.707   5.645  0.1443  0.3030 -0.6495
  245MOL0     O32216   4.015   9.816   5.662 -0.4812  0.2936  0.1158
  245MOL0     C32217   3.952   9.936   5.710 -0.1821  0.6441  0.3142
  245MOL0     C32218   4.057  10.041   5.682 -0.5511  0.5009 -0.1047
  245MOL0     C32219   4.006  10.169   5.754 -0.1333  0.1192  0.6293
  245MOL0     C32220   4.104  10.289   5.732 -1.0852  0.7132  0.0704
  245MOL0     C32221   4.086  10.398   5.847  0.1589 -0.7528 -0.2418
  245MOL0     C32222   4.131  10.528   5.782  0.0645 -0.7597 -0.1203
  245MOL0     C32223   4.142  10.640   5.877  0.5087  0.0065  0.4011
  245MOL0     C32224   4.199  10.763   5.818  0.2786  0.1429 -0.1938
  245MOL0     N32225   4.218  10.875   5.893 -0.6762 -0.1530 -0.1380
  245MOL0     C32226   4.149  10.913   6.005  0.2126 -0.1961 -0.3012
  245MOL0     C32227   4.212  11.034   6.034  0.2641 -0.3119 -1.3433
  245MOL0     C32228   4.180  11.126   6.146  0.4245  0.4550  0.3130
  245MOL0     C32229   4.291  11.135   6.249 -0.9115  0.0270 -1.0473
  245MOL0     C32230   4.242  11.242   6.348 -0.0336  0.1325  0.1131
  245MOL0     C32231   4.237  11.387   6.302 -0.3139  0.7062 -0.4513
  245MOL0     O32232   4.358  11.428   6.237 -0.0136  0.2462  0.0762
  245MOL0     C32233   4.445  11.502   6.315  1.1783 -0.4384 -0.5455
  245MOL0     C32234   4.483  11.629   6.274 -0.8491 -0.0812  0.4716
  245MOL0     C32235   4.590  11.707   6.343 -1.0901  0.2235  0.2925
  245MOL0     C32236   4.657  11.652   6.454  1.3308  0.0358  0.4686
  245MOL0     C32237   4.763  11.725   6.512 -0.7032 -0.2864  0.6844
  245MOL0     O32238   4.826  11.665   6.616 -0.8440 -0.2780  1.0103
  245MOL0     C32239   4.935  11.732   6.671 -0.0340  0.3257 -0.0048
  245MOL0     C32240   5.073  11.688   6.651 -0.6330  1.1469  0.0926
  245MOL0     C32241   5.174  11.768   6.694  0.2307 -0.8513 -1.1813
  245MOL0     C32242   5.150  11.894   6.748  0.1747 -0.1130  0.1782
  245MOL0     O32243   5.245  11.970   6.800  0.4854 -0.0891 -0.2395
  245MOL0     C32244   5.382  11.973   6.741 -0.0343  0.5706  0.3847
  245MOL0     C32245   5.455  12.104   6.750  0.2653 -0.6301 -0.3238
  245MOL0     C32246   5.473  12.141   6.901 -0.1719 -0.6979 -0.1371
  245MOL0     C32247   5.569  12.260   6.916  0.5000 -0.1660  0.1384
  245MOL0     C32248   5.603  12.277   7.067  0.8458 -0.3847  0.1954
  245MOL0     C32249   5.738  12.354   7.073 -0.1005 -1.2785 -0.0961
  245MOL0     C32250   5.776  12.417   7.200 -0.5344  0.2229 -0.0397
  245MOL0     C32251   5.728  12.339   7.325 -0.4263 -0.5785 -0.5471
  245MOL0    Cl32252   5.766  12.411   7.481  0.2064  0.1594  0.0958
  245MOL0     C32253   5.021  11.928   6.780  0.3363  0.5154 -0.3628
  245MOL0     C32254   4.912  11.856   6.735  0.0224  0.7618  0.1303
  245MOL0     O32255   4.774  11.848   6.481 -0.1256  0.1041  0.7511
  245MOL0     C32256   4.605  11.524   6.503 -0.7710 -0.1692  0.9358
  245MOL0     C32257   4.500  11.453   6.431  0.1811 -0.4340  0.1261
  245MOL0     N32258   4.327  11.052   5.965  0.2599  0.9533  0.4967
  245MOL0     N32259   4.321  10.956   5.873  0.4404  0.3614 -0.7102
  245MOL0     C32260   3.818   9.713   5.560 -0.9793  0.0247 -0.4833
  245MOL0     C32261   3.725   9.609   5.535 -0.0112 -0.6669  0.5217
  245MOL0     C32262   3.539   9.184   5.569 -0.6256 -0.4637 -0.1628
  245MOL0     C32263   3.523   9.047   5.612 -0.1044  0.2515  0.0781
  245MOL0     C32264   3.410   8.972   5.580 -0.5359 -0.2879  0.0940
  245MOL0     C32265   3.312   9.020   5.494 -0.5549  0.3666  0.6008
  245MOL0     O32266   3.203   8.946   5.454  0.1702 -0.2527  0.3943
  245MOL0     C32267   3.209   8.803   5.469 -0.3731  0.2487 -0.1430
  245MOL0     C32268   3.065   8.756   5.448  0.6262  0.7211  0.2806
  245MOL0     C32269   3.032   8.732   5.295  0.7244 -0.2054  0.3311
  245MOL0     C32270   2.882   8.743   5.264  0.7123  0.9100  0.6333
  245MOL0     C32271   2.863   8.709   5.123 -0.4339 -0.3422 -0.7256
  245MOL0     C32272   2.841   8.669   5.016 -1.0150 -0.6033  0.2522
  245MOL0     C32273   3.336   9.159   5.456  0.1758  1.0767  0.5053
  245MOL0     C32274   3.441   9.239   5.493 -0.5064  0.9403 -0.1712
  245MOL0     H32275   3.891   9.384   5.728  1.5651  0.1938  0.4196
  245MOL0     H32276   4.034   9.590   5.766  0.9999  2.7093 -2.5218
  245MOL0     H32277   3.943   9.919   5.818  2.5879  0.6771  0.6103
  245MOL0     H32278   3.854   9.960   5.668  0.4860  1.3016 -0.9347
  245MOL0     H32279   4.057  10.061   5.574  0.9996  0.6512 -0.1072
  245MOL0     H32280   4.158  10.017   5.716 -0.8714  0.7823  1.0952
  245MOL0     H32281   3.984  10.156   5.860 -2.0255 -1.0896  0.1421
  245MOL0     H32282   3.909  10.190   5.706 -0.1323 -1.3461 -0.0700
  245MOL0     H32283   4.202  10.242   5.746 -0.6296  0.4830 -3.1012
  245MOL0     H32284   4.106  10.329   5.630  5.5393  0.3194 -0.3656
  245MOL0     H32285   4.139  10.373   5.939  0.7131  0.1970 -0.2886
  245MOL0     H32286   3.979  10.414   5.865 -0.2462 -0.4573 -2.5699
  245MOL0     H32287   4.060  10.548   5.701 -0.9261  2.6281  1.4107
  245MOL0     H32288   4.231  10.509   5.742  0.7145  1.0379  0.5428
  245MOL0     H32289   4.045  10.650   5.927 -0.1156 -3.1308  0.0865
  245MOL0     H32290   4.210  10.609   5.957  2.7408  1.0098 -1.0220
  245MOL0     H32291   4.127  10.785   5.738 -1.8943 -3.1427  0.6423
  245MOL0     H32292   4.298  10.741   5.777 -0.1450  0.2703 -1.3300
  245MOL0     H32293   4.058  10.880   6.054 -0.0930 -2.3251 -2.1281
  245MOL0     H32294   4.094  11.082   6.198  1.3842 -1.6318  0.2486
  245MOL0     H32295   4.161  11.224   6.102  4.5932  0.7702 -1.2371
  245MOL0     H32296   4.384  11.160   6.198  0.3112 -1.7918  0.1710
  245MOL0     H32297   4.318  11.043   6.302  1.7851  0.9832 -0.6086
  245MOL0     H32298   4.143  11.213   6.385 -0.3788  0.4738 -0.5313
  245MOL0     H32299   4.310  11.236   6.434 -0.4889 -2.6537  0.3626
  245MOL0     H32300   4.221  11.461   6.380 -0.0520 -1.0817  1.3805
  245MOL0     H32301   4.147  11.396   6.240  0.4125 -0.3687 -1.7225
  245MOL0     H32302   4.442  11.684   6.190  2.1464  0.4345 -0.7826
  245MOL0     H32303   4.610  11.804   6.301 -2.9285 -0.4171 -2.2884
  245MOL0     H32304   5.096  11.591   6.609 -1.8255  0.1817  1.5238
  245MOL0     H32305   5.278  11.744   6.678  0.8597  2.3734 -2.6851
  245MOL0     H32306   5.368  11.945   6.636 -2.0083 -0.8141  0.9524
  245MOL0     H32307   5.447  11.899   6.790  0.0541  2.5550  3.5501
  245MOL0     H32308   5.385  12.179   6.714 -1.3191 -2.1567 -0.5529
  245MOL0     H32309   5.552  12.088   6.701 -0.1406 -1.2284 -0.9468
  245MOL0     H32310   5.518  12.053   6.948 -1.7358 -1.2200  0.4144
  245MOL0     H32311   5.370  12.154   6.933 -2.4184  0.1476 -6.4352
  245MOL0     H32312   5.654  12.219   6.861 -1.2654 -0.9170 -2.2385
  245MOL0     H32313   5.533  12.352   6.868 -1.0983 -1.0164 -0.4010
  245MOL0     H32314   5.616  12.180   7.116 -1.6536 -0.2824  1.1817
  245MOL0     H32315   5.516  12.325   7.111 -0.2722 -1.4841 -0.7274
  245MOL0     H32316   5.739  12.432   6.996  1.1384 -0.8372  0.3404
  245MOL0     H32317   5.808  12.272   7.051  0.7980 -0.2643 -1.1150
  245MOL0     H32318   5.883  12.438   7.207 -0.8354  1.8015  0.3030
  245MOL0     H32319   5.728  12.516   7.198 -0.2421  0.3660  0.1028
  245MOL0     H32320   5.776  12.241   7.320 -0.8095 -0.7165 -1.8059
  245MOL0     H32321   5.621  12.317   7.325 -0.8045  1.0381  0.6513
  245MOL0     H32322   5.000  12.023   6.828 -2.5211  0.4408 -1.2542
  245MOL0     H32323   4.815  11.900   6.751 -0.6075 -0.6789  0.4279
  245MOL0     H32324   4.651  11.480   6.591 -2.0870 -0.6104  1.4307
  245MOL0     H32325   4.474  11.354   6.466 -1.5868  0.0457  0.2917
  245MOL0     H32326   3.804   9.816   5.527 -0.4280  0.5539  0.8452
  245MOL0     H32327   3.634   9.625   5.477  1.3415 -0.3890 -1.6288
  245MOL0     H32328   3.597   8.998   5.676  2.5041 -0.5455 -3.2200
  245MOL0     H32329   3.408   8.868   5.613 -2.0637 -0.6862 -1.1465
  245MOL0     H32330   3.231   8.785   5.575 -0.4202  3.8168  0.5990
  245MOL0     H32331   3.282   8.760   5.401 -0.0465  0.8480 -0.1722
  245MOL0     H32332   3.059   8.656   5.491 -2.4807  0.6655 -0.0429
  245MOL0     H32333   2.994   8.824   5.496  1.4843  2.5671 -0.9507
  245MOL0     H32334   3.073   8.633   5.274 -1.0914 -0.7238 -1.0532
  245MOL0     H32335   3.082   8.811   5.238  2.2285  0.0826  1.9934
  245MOL0     H32336   2.821   8.673   5.322 -3.7501  1.6780 -2.5787
  245MOL0     H32337   2.845   8.843   5.285  0.6149  1.0194 -0.0163
  245MOL0     H32338   2.798   8.627   4.928  1.3427 -3.6763  0.3984
  245MOL0     H32339   3.270   9.208   5.385 -0.4321 -0.0785  0.2400
  245MOL0     H32340   3.447   9.342   5.460 -0.6393  0.9944 -0.0281
  246MOL0     O32341   2.452   9.600   0.898  0.3245 -0.1237  1.0311
  246MOL0     C32342   2.394   9.508   0.836 -0.6729  0.7011  0.7453
  246MOL0     O32343   2.438   9.471   0.705  0.3031  0.0135  0.1976
  246MOL0     C32344   2.542   9.542   0.657 -0.0762 -0.4875 -1.1115
  246MOL0     C32345   2.678   9.498   0.683 -0.9696  1.4251  0.5361
  246MOL0     C32346   2.788   9.574   0.647  0.4179 -0.2557  0.3769
  246MOL0     C32347   2.767   9.705   0.593  0.3621  0.5035  0.3450
  246MOL0     O32348   2.868   9.791   0.561  0.1068  0.0639  0.6086
  246MOL0     C32349   2.997   9.736   0.546  0.7452 -1.0941 -0.0861
  246MOL0     C32350   3.027   9.694   0.403  0.1049 -0.0102 -1.2813
  246MOL0     C32351   3.174   9.652   0.386  0.6753  0.6206 -0.1280
  246MOL0     C32352   3.222   9.611   0.239  0.4054  0.2738  0.0434
  246MOL0     C32353   3.370   9.637   0.198  0.5519  0.2458  0.1646
  246MOL0     C32354   3.450   9.548   0.288 -0.2713  1.0772  0.1062
  246MOL0     C32355   3.593   9.545   0.254  0.2303  0.6646 -0.0853
  246MOL0     C32356   3.692   9.510   0.361  0.4918  0.6657  0.1005
  246MOL0     N32357   3.825   9.513   0.314 -0.0131  0.4970  0.1994
  246MOL0     C32358   3.894   9.401   0.287 -0.5047  0.1061 -0.2183
  246MOL0     C32359   4.013   9.442   0.227 -0.3522 -0.2506 -0.6019
  246MOL0     C32360   4.139   9.369   0.203  0.5221  0.2618  0.6211
  246MOL0     C32361   4.240   9.379   0.304 -0.1423  0.0389 -0.6864
  246MOL0     C32362   4.207   9.287   0.433  0.1257  0.6955 -0.1934
  246MOL0     C32363   4.278   9.333   0.559  0.1910 -0.1292 -0.4395
  246MOL0     O32364   4.235   9.457   0.615 -0.1550  0.2976 -0.2022
  246MOL0     C32365   4.097   9.464   0.646  0.0846 -0.0972 -0.5916
  246MOL0     C32366   4.033   9.579   0.609  0.0855 -1.3809  0.7902
  246MOL0     C32367   3.905   9.602   0.642  0.3361  0.9404  0.1395
  246MOL0     C32368   3.837   9.511   0.727  0.0897 -0.5875  0.2610
  246MOL0     C32369   3.705   9.548   0.779  0.2520  0.1644 -0.3812
  246MOL0     O32370   3.635   9.655   0.732  0.9252  0.0982 -0.4549
  246MOL0     C32371   3.515   9.695   0.793 -0.2456  0.3451  0.7806
  246MOL0     C32372   3.478   9.667   0.926  0.1022  0.8032 -0.1076
  246MOL0     C32373   3.351   9.704   0.971 -0.1679 -0.1368  0.6968
  246MOL0     C32374   3.279   9.794   0.890 -0.2919  0.0482 -0.6526
  246MOL0     O32375   3.160   9.831   0.952 -0.0376 -0.0202  0.4940
  246MOL0     C32376   3.044   9.887   0.883 -0.4346 -0.1258  0.3593
  246MOL0     C32377   2.918   9.800   0.922 -0.0190 -0.8658  0.7223
  246MOL0     C32378   2.873   9.853   1.063  0.0456 -0.3497  0.2659
  246MOL0     C32379   2.757   9.772   1.121 -0.2776 -0.8993  1.1359
  246MOL0     C32380   2.679   9.856   1.214  0.5918 -0.2507 -0.0765
  246MOL0     C32381   2.523   9.826   1.237 -0.3684  0.5256  0.1376
  246MOL0     C32382   2.471   9.680   1.240 -0.5569 -0.4922  0.6929
  246MOL0     C32383   2.504   9.606   1.372  0.7678  0.6291  0.5642
  246MOL0    Cl32384   2.361   9.600   1.488 -0.9964  0.4300 -0.4353
  246MOL0     C32385   3.319   9.821   0.759 -0.0487 -0.0740  0.5688
  246MOL0     C32386   3.428   9.761   0.707 -0.1769  0.3739 -0.0262
  246MOL0     O32387   3.660   9.473   0.863 -0.5581 -0.2329  1.0147
  246MOL0     C32388   3.903   9.394   0.767 -0.5620 -0.6660 -1.1758
  246MOL0     C32389   4.032   9.363   0.725 -0.5700 -0.3330 -0.7830
  246MOL0     N32390   3.999   9.577   0.199  0.3012 -0.4164  0.0388
  246MOL0     N32391   3.885   9.616   0.249 -0.3988  0.2687  0.6069
  246MOL0     C32392   2.630   9.744   0.560 -0.2941  0.1145  0.4018
  246MOL0     C32393   2.516   9.654   0.584  0.5291 -0.5991 -0.3184
  246MOL0     C32394   2.265   9.454   0.885  0.2664 -0.0277 -0.9960
  246MOL0     C32395   2.191   9.363   0.817  0.6462 -0.1472 -0.0573
  246MOL0     C32396   2.069   9.301   0.866 -0.6251  1.4123  0.1752
  246MOL0     C32397   2.031   9.328   1.001  0.1544 -0.4696 -0.3162
  246MOL0     O32398   1.915   9.286   1.065 -0.6825 -0.4991 -0.0572
  246MOL0     C32399   1.819   9.214   0.993 -0.2058 -0.4185  0.8599
  246MOL0     C32400   1.698   9.186   1.074 -0.0335 -0.0999  1.3626
  246MOL0     C32401   1.592   9.095   1.007 -0.2365  0.3557  0.3965
  246MOL0     C32402   1.457   9.105   1.071  0.7119  1.2974  0.8247
  246MOL0     C32403   1.371   8.995   1.014  0.0724  0.7872  0.3623
  246MOL0     C32404   1.315   8.899   0.972  0.3613 -0.0138 -0.7557
  246MOL0     C32405   2.110   9.415   1.076 -0.9753  0.7288 -0.3521
  246MOL0     C32406   2.220   9.476   1.022 -0.3677 -0.2469  0.4329
  246MOL0     H32407   2.699   9.405   0.735 -0.2499  0.9199 -0.6197
  246MOL0     H32408   2.880   9.527   0.678 -0.3112 -2.1464 -0.1819
  246MOL0     H32409   3.021   9.653   0.613 -2.4211 -1.5154  0.6685
  246MOL0     H32410   3.056   9.826   0.562 -2.2702  0.6655  2.0827
  246MOL0     H32411   3.000   9.778   0.340 -1.9485  0.2976 -0.0798
  246MOL0     H32412   2.963   9.609   0.377  1.9908 -2.0253  0.1717
  246MOL0     H32413   3.196   9.573   0.458 -0.5989  1.7823  1.6112
  246MOL0     H32414   3.243   9.729   0.418  1.7054  0.3644 -1.6109
  246MOL0     H32415   3.194   9.507   0.218 -3.2614  0.5935  2.2925
  246MOL0     H32416   3.156   9.670   0.175 -1.5780 -1.3046  0.4842
  246MOL0     H32417   3.395   9.744   0.205 -3.8535  1.5677 -1.1353
  246MOL0     H32418   3.391   9.604   0.096  1.4760 -3.8724  1.5029
  246MOL0     H32419   3.420   9.442   0.284  1.0838  0.6212  1.2693
  246MOL0     H32420   3.448   9.577   0.394 -0.8457  2.7711 -0.3331
  246MOL0     H32421   3.610   9.481   0.167  0.3958 -0.3316  0.6663
  246MOL0     H32422   3.623   9.647   0.226 -1.9019  2.5164  3.5294
  246MOL0     H32423   3.654   9.418   0.405 -1.0242 -0.2828 -2.8872
  246MOL0     H32424   3.696   9.576   0.448  2.7341 -0.8584  1.2501
  246MOL0     H32425   3.865   9.301   0.320 -1.1793 -0.3144 -1.9850
  246MOL0     H32426   4.193   9.395   0.111 -0.3310 -1.2491 -0.3634
  246MOL0     H32427   4.107   9.267   0.182 -0.0241  0.4135  0.6909
  246MOL0     H32428   4.252   9.485   0.330  0.4766 -0.2321  0.1667
  246MOL0     H32429   4.330   9.353   0.249 -1.5133 -1.2607 -2.4500
  246MOL0     H32430   4.099   9.294   0.448  0.0787 -0.5358  0.1561
  246MOL0     H32431   4.234   9.187   0.397  1.5118  0.8616  0.3252
  246MOL0     H32432   4.381   9.338   0.525 -0.3638  1.7764 -2.0389
  246MOL0     H32433   4.260   9.257   0.636  2.7035  2.1566  2.6643
  246MOL0     H32434   4.085   9.646   0.540 -1.0366  0.1415  1.3604
  246MOL0     H32435   3.849   9.678   0.588 -3.1742 -2.7623 -2.0101
  246MOL0     H32436   3.536   9.605   0.992 -0.6616  0.9312  0.7023
  246MOL0     H32437   3.310   9.687   1.071 -1.6690  1.6960  0.4620
  246MOL0     H32438   3.037   9.887   0.774 -1.3876  2.7469  0.3361
  246MOL0     H32439   3.021   9.987   0.921  2.1478  0.4532  0.5514
  246MOL0     H32440   2.923   9.691   0.922  1.0957 -0.8487  2.1112
  246MOL0     H32441   2.842   9.838   0.854  2.5815  0.2671 -1.7834
  246MOL0     H32442   2.842   9.957   1.054 -1.7556 -0.3001  4.6251
  246MOL0     H32443   2.951   9.840   1.138  0.2204 -3.1010 -0.2980
  246MOL0     H32444   2.691   9.732   1.043 -3.1301  0.4033  2.7552
  246MOL0     H32445   2.801   9.686   1.173  1.6685 -0.4691  0.3094
  246MOL0     H32446   2.685   9.961   1.185  1.1863 -0.3485 -0.3240
  246MOL0     H32447   2.725   9.864   1.313 -0.7279 -0.3299  0.5652
  246MOL0     H32448   2.484   9.868   1.144  1.7663 -3.0415 -2.6371
  246MOL0     H32449   2.488   9.879   1.326 -0.7027 -2.0209  1.6172
  246MOL0     H32450   2.362   9.681   1.225 -0.3788  0.1609 -0.7070
  246MOL0     H32451   2.505   9.621   1.154 -1.1622  1.5397 -1.0244
  246MOL0     H32452   2.586   9.665   1.414 -0.9277  2.9956  0.7643
  246MOL0     H32453   2.522   9.502   1.344 -2.6053 -0.4313  1.8920
  246MOL0     H32454   3.253   9.879   0.696  0.1361  0.2489  0.6709
  246MOL0     H32455   3.453   9.785   0.604  0.4681  0.5531  0.1655
  246MOL0     H32456   3.849   9.319   0.824  1.1268 -0.1388  1.2795
  246MOL0     H32457   4.080   9.274   0.764  0.6409  0.6180 -0.0087
  246MOL0     H32458   2.605   9.841   0.518 -1.6144  0.1347  1.1767
  246MOL0     H32459   2.420   9.702   0.568  1.3842  1.0521 -0.7334
  246MOL0     H32460   2.213   9.339   0.713  0.1076  0.0854 -0.2307
  246MOL0     H32461   2.019   9.220   0.815 -0.2221 -0.3618  2.4184
  246MOL0     H32462   1.863   9.120   0.956  0.7849  0.2104  0.4098
  246MOL0     H32463   1.785   9.276   0.909 -1.7598  0.7160  2.2733
  246MOL0     H32464   1.726   9.154   1.175  2.8426  0.5410  0.8458
  246MOL0     H32465   1.638   9.278   1.078  0.7823  0.5665 -0.4656
  246MOL0     H32466   1.620   8.990   1.011 -2.9509 -0.3952  1.1474
  246MOL0     H32467   1.582   9.121   0.901 -0.3869  0.8984  0.5407
  246MOL0     H32468   1.464   9.087   1.179 -0.6961 -1.3396  0.5753
  246MOL0     H32469   1.411   9.199   1.039  2.4301  0.4728 -5.3459
  246MOL0     H32470   1.261   8.819   0.926 -0.6174  1.1931 -1.7999
  246MOL0     H32471   2.071   9.429   1.177  0.3355  1.1574  0.1156
  246MOL0     H32472   2.264   9.544   1.094 -3.7242 -0.1895  2.6860
  247MOL0     O32473  10.551   1.657   4.961  0.3707  0.5510 -0.1826
  247MOL0     C32474  10.552   1.687   5.082  0.4361  0.5349 -0.0858
  247MOL0     O32475  10.477   1.622   5.179 -0.3191 -0.0436 -0.0198
  247MOL0     C32476  10.381   1.525   5.146 -0.4297  0.1935 -0.5810
  247MOL0     C32477  10.356   1.421   5.232 -0.6602 -0.5465 -0.0512
  247MOL0     C32478  10.249   1.338   5.209 -0.6371  0.9705  0.0343
  247MOL0     C32479  10.174   1.347   5.094 -0.1972  0.3040  0.3809
  247MOL0     O32480  10.066   1.271   5.063  0.1340  0.1156  0.3605
  247MOL0     C32481  10.062   1.127   5.087 -0.0699 -0.9024  0.2843
  247MOL0     C32482  10.135   1.046   4.979 -0.4870 -0.0001  1.2664
  247MOL0     C32483  10.113   0.901   5.007 -0.5537  0.4573  0.5816
  247MOL0     C32484  10.216   0.831   4.915  0.2795 -0.5879  0.7477
  247MOL0     C32485  10.284   0.710   4.986  0.0903 -1.2091  0.4299
  247MOL0     C32486  10.198   0.590   5.029 -0.4150  0.1442  0.6137
  247MOL0     C32487  10.168   0.486   4.914  0.4278 -0.2403 -0.7473
  247MOL0     C32488  10.115   0.355   4.972  0.0455  0.1081 -0.2826
  247MOL0     N32489   9.989   0.364   5.046  0.4159 -0.0966  0.2188
  247MOL0     C32490   9.965   0.322   5.173  0.1670  0.5580  0.1481
  247MOL0     C32491   9.830   0.297   5.180 -0.5853  0.8606  0.0721
  247MOL0     C32492   9.771   0.243   5.306  0.4931 -0.6071  0.9064
  247MOL0     C32493   9.639   0.317   5.335  0.0960  0.3857 -0.2531
  247MOL0     C32494   9.545   0.218   5.410  1.1771 -0.1248 -0.5800
  247MOL0     C32495   9.415   0.291   5.449 -0.2685 -0.1663 -0.0187
  247MOL0     O32496   9.434   0.396   5.541  0.0069 -0.3967 -0.1495
  247MOL0     C32497   9.337   0.441   5.613 -0.3923 -0.6755  0.1137
  247MOL0     C32498   9.361   0.519   5.719  0.0438 -0.5679 -0.0054
  247MOL0     C32499   9.259   0.569   5.806 -1.1328  0.3080 -0.1480
  247MOL0     C32500   9.125   0.542   5.778  0.3864  0.3513 -0.8275
  247MOL0     C32501   9.013   0.610   5.851 -0.3283  0.2108  0.0165
  247MOL0     O32502   8.886   0.605   5.802 -0.6282  0.0083 -0.7086
  247MOL0     C32503   8.783   0.668   5.868 -0.1055  0.5327  0.2232
  247MOL0     C32504   8.797   0.793   5.935 -0.2498 -0.4965 -0.2529
  247MOL0     C32505   8.684   0.863   5.980  1.0370  0.9281 -0.5911
  247MOL0     C32506   8.553   0.812   5.960 -0.7319 -0.3284 -0.5934
  247MOL0     O32507   8.432   0.873   5.985  0.3420 -0.1477  0.2668
  247MOL0     C32508   8.439   1.011   6.019 -0.2817 -0.5728 -0.4781
  247MOL0     C32509   8.309   1.091   6.001 -0.1528 -0.3964  0.6510
  247MOL0     C32510   8.342   1.234   6.038  0.9946  0.1723 -0.4434
  247MOL0     C32511   8.214   1.311   6.056 -0.0009 -0.6783  0.1437
  247MOL0     C32512   8.246   1.455   6.100 -0.5377  0.0118  0.3320
  247MOL0     C32513   8.351   1.529   6.007  0.3669 -0.0838 -0.2273
  247MOL0     C32514   8.390   1.671   6.058 -1.4354  1.0879  0.0881
  247MOL0     C32515   8.467   1.736   5.945 -0.0990 -1.3479  0.5397
  247MOL0    Cl32516   8.347   1.768   5.809 -0.1790 -0.1767 -0.0957
  247MOL0     C32517   8.546   0.689   5.903 -0.7480  0.3944  0.4227
  247MOL0     C32518   8.652   0.610   5.853 -0.6817  0.4172 -0.1563
  247MOL0     O32519   9.045   0.654   5.960 -0.8824  0.5571 -0.3887
  247MOL0     C32520   9.091   0.463   5.667  0.2482  0.2290 -0.5218
  247MOL0     C32521   9.200   0.410   5.592 -0.1708  0.6535 -0.8719
  247MOL0     N32522   9.775   0.349   5.070 -0.0193 -0.6151 -0.3870
  247MOL0     N32523   9.867   0.386   4.992 -0.2963 -0.5536 -0.6818
  247MOL0     C32524  10.206   1.445   4.999 -0.2470  0.0456 -0.5030
  247MOL0     C32525  10.310   1.534   5.023  0.9397 -0.6725 -0.1364
  247MOL0     C32526  10.659   1.789   5.121  0.4939 -0.6126 -0.2818
  247MOL0     C32527  10.786   1.787   5.060 -0.1979 -0.2972 -0.0145
  247MOL0     C32528  10.887   1.866   5.115  0.0005  0.3957  0.0812
  247MOL0     C32529  10.859   1.953   5.223  0.2610 -0.8080  0.1119
  247MOL0     O32530  10.944   2.044   5.274 -0.5590  0.0382 -1.1832
  247MOL0     C32531  11.077   2.064   5.222 -0.6251 -0.6906  0.0612
  247MOL0     C32532  11.088   2.207   5.161 -0.5601  0.9201 -0.1081
  247MOL0     C32533  11.230   2.235   5.118 -0.1515 -0.7839  0.1097
  247MOL0     C32534  11.292   2.141   5.013 -0.0841 -0.2382 -0.1663
  247MOL0     C32535  11.423   2.196   4.968  0.1802  0.3731 -0.2841
  247MOL0     C32536  11.535   2.250   4.945  0.6705  1.0227  0.3643
  247MOL0     C32537  10.735   1.957   5.275 -0.2140  0.2429 -0.5557
  247MOL0     C32538  10.636   1.876   5.229  0.1169 -0.4112 -0.5158
  247MOL0     H32539  10.418   1.419   5.321  0.3781 -0.9087 -0.7668
  247MOL0     H32540  10.213   1.264   5.279  0.9129  0.2311  0.1119
  247MOL0     H32541   9.956   1.101   5.093  0.0626 -1.3347  0.7542
  247MOL0     H32542  10.100   1.092   5.183 -2.1916 -0.7431  1.2429
  247MOL0     H32543  10.239   1.081   4.984 -0.8905  1.2328  1.6175
  247MOL0     H32544  10.100   1.090   4.885  4.6616 -1.0104 -1.5046
  247MOL0     H32545  10.012   0.871   4.977  0.5308 -0.2294 -2.9201
  247MOL0     H32546  10.130   0.862   5.108  2.1012  0.1896  0.1045
  247MOL0     H32547  10.178   0.793   4.820  0.3231  1.3616 -0.1107
  247MOL0     H32548  10.298   0.901   4.895 -0.2450 -0.4855 -1.2663
  247MOL0     H32549  10.332   0.749   5.077  0.4886 -0.5618 -0.0525
  247MOL0     H32550  10.366   0.684   4.918  0.1560  0.8026 -0.3125
  247MOL0     H32551  10.115   0.623   5.091  1.0579  0.1474  2.6910
  247MOL0     H32552  10.266   0.535   5.095  0.3724 -0.2320 -0.4866
  247MOL0     H32553  10.096   0.530   4.844 -0.5072  3.4546  2.2105
  247MOL0     H32554  10.263   0.462   4.866  2.7686  0.3369  3.1444
  247MOL0     H32555  10.194   0.325   5.041 -0.7590  0.7185  0.9369
  247MOL0     H32556  10.100   0.281   4.893 -1.3244  3.9967 -4.0519
  247MOL0     H32557  10.042   0.304   5.246 -1.5195  0.8176  2.0849
  247MOL0     H32558   9.846   0.256   5.385  1.6926  0.3693 -0.3573
  247MOL0     H32559   9.744   0.139   5.287 -4.4038  0.5782 -0.0374
  247MOL0     H32560   9.594   0.349   5.240  1.4840  0.2312 -0.9868
  247MOL0     H32561   9.672   0.395   5.404  4.1955 -2.9814  2.0325
  247MOL0     H32562   9.511   0.142   5.340 -2.4887 -0.0127  0.8604
  247MOL0     H32563   9.573   0.160   5.499  2.7956  1.9890  0.3831
  247MOL0     H32564   9.342   0.218   5.483  0.6340 -0.8448  0.5214
  247MOL0     H32565   9.373   0.334   5.358 -1.5559  0.5397  0.8807
  247MOL0     H32566   9.462   0.553   5.739  1.1237 -1.8359 -2.7759
  247MOL0     H32567   9.280   0.645   5.880 -0.8104  1.8200 -1.7294
  247MOL0     H32568   8.892   0.846   5.940 -2.3154  3.8721 -1.8422
  247MOL0     H32569   8.697   0.953   6.038  1.2374  0.5146  0.0195
  247MOL0     H32570   8.514   1.058   5.953 -1.3342  0.5619 -0.9054
  247MOL0     H32571   8.472   1.027   6.122  0.4851  0.7532 -0.9007
  247MOL0     H32572   8.229   1.039   6.054  0.5022 -2.5133 -0.3119
  247MOL0     H32573   8.282   1.088   5.895 -0.1841 -2.7950  0.6660
  247MOL0     H32574   8.391   1.279   5.950  0.1121 -0.2481 -1.1643
  247MOL0     H32575   8.407   1.247   6.125 -0.3566  0.2122  0.5967
  247MOL0     H32576   8.156   1.332   5.965 -0.7713  0.6025  0.8955
  247MOL0     H32577   8.155   1.263   6.134 -0.0802  2.7313  2.3822
  247MOL0     H32578   8.285   1.453   6.203  0.3945  0.1299 -0.0083
  247MOL0     H32579   8.153   1.513   6.097 -2.0423 -2.3112 -1.0424
  247MOL0     H32580   8.314   1.515   5.905 -1.1659 -2.7379  0.6049
  247MOL0     H32581   8.445   1.473   6.011 -0.0400 -0.6917  1.9294
  247MOL0     H32582   8.307   1.737   6.083 -1.1612  2.2082 -1.7601
  247MOL0     H32583   8.451   1.671   6.149 -0.3352  0.1072 -0.6157
  247MOL0     H32584   8.545   1.670   5.905  4.6701  3.3235  0.9264
  247MOL0     H32585   8.510   1.825   5.993 -0.3044 -1.1998  0.4466
  247MOL0     H32586   8.453   0.634   5.912 -0.0588 -1.0893 -1.0605
  247MOL0     H32587   8.633   0.507   5.825 -1.3856  1.2159 -2.9230
  247MOL0     H32588   8.990   0.427   5.650  1.0558 -3.6929  1.7575
  247MOL0     H32589   9.167   0.357   5.503 -0.0120  0.9679 -1.1210
  247MOL0     H32590  10.157   1.454   4.903 -0.3935  3.2639 -0.2119
  247MOL0     H32591  10.329   1.607   4.945  1.4680  0.4950  1.0480
  247MOL0     H32592  10.814   1.724   4.976 -0.2509 -1.6598  0.9605
  247MOL0     H32593  10.987   1.854   5.076 -1.1802 -5.0772 -2.1473
  247MOL0     H32594  11.113   1.992   5.148  1.2391 -0.5130  0.7404
  247MOL0     H32595  11.132   2.046   5.315 -2.5990  2.7185  2.0969
  247MOL0     H32596  11.021   2.195   5.075  2.3566 -2.1337 -2.2221
  247MOL0     H32597  11.050   2.279   5.234 -0.3172 -0.1189  1.0753
  247MOL0     H32598  11.287   2.247   5.210  0.6293  0.3420 -0.4993
  247MOL0     H32599  11.230   2.333   5.070  1.0171 -1.3101 -1.0177
  247MOL0     H32600  11.308   2.043   5.058  5.6394  1.5310  2.5610
  247MOL0     H32601  11.228   2.126   4.925  1.1366  1.8797 -1.5172
  247MOL0     H32602  11.632   2.295   4.940  0.9981  0.1890 -1.4207
  247MOL0     H32603  10.722   2.032   5.352  2.8565 -0.5058  0.8578
  247MOL0     H32604  10.545   1.870   5.288  3.1615 -1.9548  4.7432
  248MOL0     O32605   1.928   6.865   7.235  0.2860 -0.3755 -0.8695
  248MOL0     C32606   1.887   6.967   7.178 -0.9545  0.6556  0.4146
  248MOL0     O32607   1.821   6.981   7.063 -0.3781 -0.4272  0.6774
  248MOL0     C32608   1.774   6.875   6.992  0.6762  0.1610  0.6233
  248MOL0     C32609   1.638   6.837   6.995 -0.3687 -0.4953 -0.1687
  248MOL0     C32610   1.584   6.754   6.890 -0.1927  0.1831 -0.8672
  248MOL0     C32611   1.657   6.699   6.782  0.1662 -0.9638  0.2039
  248MOL0     O32612   1.613   6.637   6.665  0.2142 -0.0383 -0.6167
  248MOL0     C32613   1.476   6.582   6.669  0.0783  1.1409  0.0365
  248MOL0     C32614   1.461   6.454   6.754 -0.3771 -0.6749  0.4344
  248MOL0     C32615   1.535   6.333   6.708  1.0731 -0.5053 -0.7548
  248MOL0     C32616   1.492   6.207   6.784 -0.4408 -0.6618  0.1469
  248MOL0     C32617   1.383   6.139   6.707 -0.9487  0.9556 -0.2435
  248MOL0     C32618   1.366   6.000   6.756  0.1352  0.5021  0.1671
  248MOL0     C32619   1.246   5.932   6.692 -0.2007  0.5426  0.2602
  248MOL0     C32620   1.219   5.796   6.747 -0.2209  0.3253  0.1877
  248MOL0     N32621   1.086   5.751   6.705  0.3274 -0.1419 -0.7539
  248MOL0     C32622   1.053   5.656   6.608  0.2131  0.6368 -1.0930
  248MOL0     C32623   0.918   5.646   6.617  0.2988  0.0566  0.0717
  248MOL0     C32624   0.840   5.560   6.519  0.6380  0.0199  0.2982
  248MOL0     C32625   0.803   5.631   6.392 -0.1355  0.4017 -0.3677
  248MOL0     C32626   0.680   5.716   6.401  0.1763 -0.0375  0.4537
  248MOL0     C32627   0.547   5.657   6.438  0.4960  0.4886 -0.2916
  248MOL0     O32628   0.446   5.714   6.360  0.1910  0.2284 -0.2020
  248MOL0     C32629   0.416   5.849   6.391 -0.2623  0.4441 -1.0670
  248MOL0     C32630   0.336   5.907   6.298 -0.2209  0.0998  1.0659
  248MOL0     C32631   0.291   6.031   6.302  0.1547  0.3406 -0.3804
  248MOL0     C32632   0.313   6.109   6.418  0.5259  0.5305  0.4699
  248MOL0     C32633   0.249   6.242   6.427 -0.7559  0.6535  0.0656
  248MOL0     O32634   0.226   6.286   6.554 -0.0799 -0.6686  0.1775
  248MOL0     C32635   0.191   6.422   6.562 -0.4795  0.1556  0.4132
  248MOL0     C32636   0.287   6.513   6.598  0.2056  0.7332 -0.3984
  248MOL0     C32637   0.263   6.649   6.614  0.5142  0.8397  0.6669
  248MOL0     C32638   0.151   6.708   6.552 -0.8407  0.1885 -0.9217
  248MOL0     O32639   0.109   6.834   6.556  0.4512  0.1308 -0.2224
  248MOL0     C32640   0.220   6.933   6.571  1.1219 -0.3377 -1.3459
  248MOL0     C32641   0.240   6.963   6.726  0.2072 -0.9559 -0.4457
  248MOL0     C32642   0.150   7.073   6.781 -0.4595  0.0951  0.2420
  248MOL0     C32643   0.205   7.158   6.895 -0.6239  0.3113  0.1760
  248MOL0     C32644   0.226   7.073   7.022  0.0990  0.0319 -0.0797
  248MOL0     C32645   0.264   7.171   7.135 -0.0676  0.2789  0.5003
  248MOL0     C32646   0.338   7.095   7.250 -0.0366 -0.0112  0.6654
  248MOL0     C32647   0.261   6.997   7.334 -0.1066 -0.3947 -0.3294
  248MOL0    Cl32648   0.374   6.893   7.423  0.1096  0.2468  0.0420
  248MOL0     C32649   0.052   6.608   6.521  0.7398  0.1905  1.5802
  248MOL0     C32650   0.066   6.468   6.540 -0.3596  0.0012 -0.7200
  248MOL0     O32651   0.234   6.303   6.323  0.8187 -0.6099  0.0637
  248MOL0     C32652   0.391   6.054   6.527  0.4102  0.2028 -0.3963
  248MOL0     C32653   0.444   5.924   6.507 -0.0129 -0.0842  0.3099
  248MOL0     N32654   0.879   5.741   6.711  0.1745  0.6098 -0.2120
  248MOL0     N32655   0.972   5.809   6.759  1.0216  0.2349 -1.1277
  248MOL0     C32656   1.798   6.715   6.794  0.6860 -0.4735  0.2887
  248MOL0     C32657   1.851   6.797   6.898  0.2070  0.0052  0.1019
  248MOL0     C32658   1.951   7.092   7.237  0.6284  0.2269  0.4418
  248MOL0     C32659   1.927   7.226   7.184  0.3765  0.6726  0.0416
  248MOL0     C32660   1.991   7.337   7.245 -0.2863  0.8264 -0.4049
  248MOL0     C32661   2.100   7.323   7.337  0.5746 -0.6429 -0.6052
  248MOL0     O32662   2.166   7.440   7.385  0.4288  0.0880  0.5286
  248MOL0     C32663   2.309   7.442   7.347  0.0052 -0.3708 -0.5602
  248MOL0     C32664   2.395   7.450   7.470  0.2215  0.3095  0.1600
  248MOL0     C32665   2.543   7.451   7.421 -0.3657 -0.5762 -0.4022
  248MOL0     C32666   2.645   7.510   7.524 -0.2360 -0.2589 -0.4778
  248MOL0     C32667   2.785   7.459   7.499  0.5096 -0.0137 -0.3975
  248MOL0     C32668   2.888   7.398   7.479 -0.6540 -1.2131  0.7240
  248MOL0     C32669   2.129   7.192   7.376  0.4563 -0.7738 -1.1386
  248MOL0     C32670   2.066   7.076   7.326  0.8364  0.0543 -0.3578
  248MOL0     H32671   1.583   6.874   7.081  4.1975  1.5428  2.1714
  248MOL0     H32672   1.485   6.710   6.897  0.3703 -1.5097 -2.6784
  248MOL0     H32673   1.446   6.551   6.569 -3.1054  1.7439  0.6943
  248MOL0     H32674   1.405   6.657   6.705 -0.7022  1.0081 -1.1739
  248MOL0     H32675   1.356   6.425   6.757 -0.2767 -0.9783  1.6794
  248MOL0     H32676   1.490   6.482   6.856 -0.6207  2.9443 -0.3599
  248MOL0     H32677   1.641   6.342   6.734  1.3660 -3.2251 -0.7161
  248MOL0     H32678   1.531   6.320   6.599 -1.4171 -1.6713 -0.5860
  248MOL0     H32679   1.577   6.141   6.797  3.8793  4.5934  2.2842
  248MOL0     H32680   1.448   6.233   6.881 -1.6512 -0.7751 -0.3428
  248MOL0     H32681   1.411   6.130   6.601 -1.1324  0.2886 -0.2458
  248MOL0     H32682   1.288   6.193   6.720 -2.5327 -0.6531 -3.6848
  248MOL0     H32683   1.347   6.006   6.863 -2.4169  1.9086 -0.2689
  248MOL0     H32684   1.454   5.942   6.729 -0.9010 -0.0578 -2.2857
  248MOL0     H32685   1.158   5.994   6.712  0.6753  0.8848  3.6635
  248MOL0     H32686   1.268   5.921   6.585  1.2705 -1.6741  0.7243
  248MOL0     H32687   1.225   5.802   6.856  0.9614  3.4903  0.0636
  248MOL0     H32688   1.286   5.713   6.724  2.3761  2.4635 -0.4281
  248MOL0     H32689   1.115   5.582   6.559  0.6299  1.1638 -1.3623
  248MOL0     H32690   0.756   5.501   6.559  3.2310 -2.0591  3.1373
  248MOL0     H32691   0.909   5.482   6.486  0.7847  0.3834 -0.2662
  248MOL0     H32692   0.791   5.552   6.317 -1.3929 -0.0070  0.2444
  248MOL0     H32693   0.887   5.695   6.363  2.7977 -1.3915  3.2876
  248MOL0     H32694   0.705   5.798   6.469 -0.3294 -0.2692  0.9221
  248MOL0     H32695   0.659   5.763   6.304  0.6196 -0.0560  0.3457
  248MOL0     H32696   0.527   5.667   6.545  1.6594  0.9315 -0.1048
  248MOL0     H32697   0.554   5.549   6.419  1.3478  0.5180 -0.1846
  248MOL0     H32698   0.313   5.840   6.215 -2.1439  1.6914  0.2103
  248MOL0     H32699   0.232   6.070   6.220  1.2489  0.2591 -1.2402
  248MOL0     H32700   0.389   6.481   6.617 -1.2670 -3.6842  1.3552
  248MOL0     H32701   0.337   6.716   6.658  1.2204 -1.6135  3.5522
  248MOL0     H32702   0.189   7.023   6.518  3.0830  2.2110  1.5234
  248MOL0     H32703   0.309   6.898   6.518  1.1552  0.8934 -2.1469
  248MOL0     H32704   0.338   7.010   6.713  0.0355 -0.8671 -1.5360
  248MOL0     H32705   0.243   6.873   6.788 -0.0578  0.1549  1.2498
  248MOL0     H32706   0.062   7.023   6.824 -1.7142  1.4561 -0.6447
  248MOL0     H32707   0.107   7.134   6.701  0.0253  1.1415  0.7690
  248MOL0     H32708   0.303   7.198   6.865  0.4402 -1.5078  0.9929
  248MOL0     H32709   0.138   7.242   6.913 -3.4198 -1.3831 -1.5030
  248MOL0     H32710   0.300   6.993   7.025  1.2853  1.1158  0.4687
  248MOL0     H32711   0.135   7.015   7.036  1.5990 -2.3850  0.1173
  248MOL0     H32712   0.176   7.232   7.155  0.6724  2.3700 -2.0698
  248MOL0     H32713   0.343   7.239   7.101 -0.3971  0.0371 -0.7784
  248MOL0     H32714   0.425   7.051   7.200  1.0239  4.7627 -2.2792
  248MOL0     H32715   0.387   7.166   7.318  3.2647 -1.0384 -0.4575
  248MOL0     H32716   0.184   6.947   7.274 -1.1687 -0.4198  1.0010
  248MOL0     H32717   0.202   7.043   7.414  0.8915 -0.7228  0.6209
  248MOL0     H32718  -0.044   6.639   6.480 -1.6625 -1.7553  5.2066
  248MOL0     H32719  -0.011   6.396   6.512  0.2902 -1.1954  0.4082
  248MOL0     H32720   0.398   6.099   6.626  1.1773 -3.1718  1.2410
  248MOL0     H32721   0.496   5.876   6.589  0.7641  2.2914  1.2841
  248MOL0     H32722   1.861   6.675   6.715 -0.1513  2.3379 -1.9746
  248MOL0     H32723   1.955   6.824   6.879 -0.3675  1.3995 -1.3167
  248MOL0     H32724   1.854   7.243   7.105  0.5927 -2.2600 -0.9395
  248MOL0     H32725   1.977   7.435   7.201 -0.8762  0.0919 -1.8989
  248MOL0     H32726   2.332   7.524   7.277 -1.1788 -1.6857 -2.5886
  248MOL0     H32727   2.343   7.353   7.294  2.4817 -0.9649  1.7790
  248MOL0     H32728   2.366   7.541   7.525  0.1719  0.4608 -0.1138
  248MOL0     H32729   2.385   7.364   7.537 -0.2344 -2.0269 -2.6749
  248MOL0     H32730   2.536   7.516   7.333  2.0134 -1.0216 -0.9889
  248MOL0     H32731   2.572   7.351   7.387  3.3626  0.1450  0.1883
  248MOL0     H32732   2.639   7.619   7.535 -0.4290 -0.4286  1.2939
  248MOL0     H32733   2.617   7.467   7.620  0.6468  0.4858  0.1273
  248MOL0     H32734   2.987   7.359   7.464 -0.0494 -0.4739  2.5230
  248MOL0     H32735   2.212   7.172   7.443  1.1118 -0.1675 -1.7605
  248MOL0     H32736   2.102   6.975   7.341 -0.1624 -0.2072  0.3917
  249MOL0     O32737   0.274  10.897   8.341 -0.6084  0.3485 -0.3744
  249MOL0     C32738   0.280  10.964   8.440  0.9708 -0.4127  0.7494
  249MOL0     O32739   0.173  11.027   8.499 -0.2695  1.2761  0.2311
  249MOL0     C32740   0.044  11.030   8.439 -1.1806 -0.2442 -0.5991
  249MOL0     C32741  -0.050  11.094   8.514  0.5547 -0.1837 -1.3136
  249MOL0     C32742  -0.175  11.112   8.465  0.0258 -0.3858  0.4952
  249MOL0     C32743  -0.215  11.075   8.331 -0.2542  1.1307 -0.1799
  249MOL0     O32744  -0.334  11.083   8.275  0.4882 -0.8041  0.6253
  249MOL0     C32745  -0.438  11.172   8.333 -0.3324  0.2840 -0.6550
  249MOL0     C32746  -0.558  11.168   8.241  0.7148 -0.5289  0.6459
  249MOL0     C32747  -0.512  11.236   8.107 -0.2414 -0.4525  0.2053
  249MOL0     C32748  -0.545  11.391   8.099 -0.8226  0.7669 -0.3154
  249MOL0     C32749  -0.519  11.460   7.966  0.8745 -1.3048 -1.1069
  249MOL0     C32750  -0.558  11.610   7.984  0.1086 -0.0097  0.0110
  249MOL0     C32751  -0.541  11.696   7.853 -0.1536 -0.2703 -0.2055
  249MOL0     C32752  -0.509  11.841   7.901  0.6066 -0.9298 -0.6452
  249MOL0     N32753  -0.519  11.940   7.791  0.5751 -0.4093  0.3530
  249MOL0     C32754  -0.630  11.970   7.717 -0.4051 -0.0339  0.8740
  249MOL0     C32755  -0.594  12.047   7.622  0.3113 -0.9603  0.4929
  249MOL0     C32756  -0.694  12.111   7.536  0.8129 -0.4729  0.6275
  249MOL0     C32757  -0.757  12.005   7.445  0.7921  0.1453 -0.2068
  249MOL0     C32758  -0.649  11.941   7.359 -0.5163  0.6083 -0.2936
  249MOL0     C32759  -0.717  11.833   7.273 -0.0037 -0.4542 -0.0415
  249MOL0     O32760  -0.775  11.731   7.352  0.3442 -0.4079 -0.4880
  249MOL0     C32761  -0.905  11.708   7.337 -0.1350  1.7384 -0.1400
  249MOL0     C32762  -0.988  11.649   7.438 -0.7996 -1.1820 -0.2723
  249MOL0     C32763  -1.123  11.608   7.423  0.5260 -0.9575  0.6183
  249MOL0     C32764  -1.179  11.608   7.294  0.0570 -0.0454 -0.2580
  249MOL0     C32765  -1.321  11.557   7.278 -0.0093  0.1216 -0.3535
  249MOL0     O32766  -1.357  11.547   7.152 -0.9647 -0.9249 -0.3695
  249MOL0     C32767  -1.473  11.493   7.106  0.5819  0.4424  0.5813
  249MOL0     C32768  -1.461  11.379   7.021  1.0291 -0.7763 -0.5609
  249MOL0     C32769  -1.578  11.327   6.957 -0.3610  0.0937 -1.1217
  249MOL0     C32770  -1.707  11.358   7.003  0.1079 -0.2620  0.7742
  249MOL0     O32771  -1.813  11.314   6.923  0.4623  0.5075 -0.0682
  249MOL0     C32772  -1.939  11.308   6.996  0.4235 -0.1921  0.4134
  249MOL0     C32773  -2.048  11.230   6.915 -0.5215 -0.5031 -0.6537
  249MOL0     C32774  -1.986  11.147   6.799 -0.3788 -0.3824  0.5763
  249MOL0     C32775  -2.081  11.048   6.732  0.6556  0.4782 -0.8174
  249MOL0     C32776  -2.094  10.913   6.807  0.5520 -0.3341 -0.0359
  249MOL0     C32777  -1.980  10.813   6.821  0.2549 -0.8142 -0.8371
  249MOL0     C32778  -1.894  10.797   6.684  0.1468 -0.6039  0.0537
  249MOL0     C32779  -1.789  10.692   6.689 -0.0826 -0.1983 -0.4949
  249MOL0    Cl32780  -1.839  10.529   6.700  0.0352 -0.5132 -0.1420
  249MOL0     C32781  -1.713  11.458   7.098  0.8730 -0.6799 -0.8718
  249MOL0     C32782  -1.607  11.531   7.143 -0.3510  0.5990  0.1179
  249MOL0     O32783  -1.377  11.509   7.374 -0.0359  0.0662 -0.3152
  249MOL0     C32784  -1.109  11.678   7.189 -0.1591 -0.3127 -0.1302
  249MOL0     C32785  -0.977  11.728   7.212  0.3903 -0.3000 -0.6836
  249MOL0     N32786  -0.458  12.067   7.627  0.4402 -0.1724  0.8288
  249MOL0     N32787  -0.417  11.995   7.727 -0.1706 -0.3606  0.4928
  249MOL0     C32788  -0.125  10.992   8.267  0.6988 -0.1011  0.4413
  249MOL0     C32789   0.008  10.978   8.319 -0.2266  1.3254  0.1614
  249MOL0     C32790   0.408  10.979   8.511  0.4156  0.3498 -0.8571
  249MOL0     C32791   0.530  10.955   8.448  0.1481  0.6199 -0.4828
  249MOL0     C32792   0.648  10.962   8.524  0.0711  0.1361  1.3556
  249MOL0     C32793   0.644  10.996   8.658 -0.8104 -0.9061 -0.9296
  249MOL0     O32794   0.757  10.998   8.735 -0.3286 -0.3608 -0.7123
  249MOL0     C32795   0.801  11.132   8.761 -0.4192  0.0461 -0.6830
  249MOL0     C32796   0.743  11.205   8.883  0.4571 -0.7570 -1.0917
  249MOL0     C32797   0.859  11.285   8.931 -1.0672  0.0274 -0.2418
  249MOL0     C32798   0.817  11.366   9.057  0.4624  0.2517  0.2819
  249MOL0     C32799   0.774  11.288   9.178  0.7561  0.4997  0.4900
  249MOL0     C32800   0.734  11.216   9.266 -0.3563 -0.5944 -1.0496
  249MOL0     C32801   0.520  11.024   8.722 -0.3725 -0.4623 -0.2885
  249MOL0     C32802   0.400  11.026   8.649 -0.5129  0.4303 -0.1340
  249MOL0     H32803  -0.017  11.138   8.608 -0.3801  1.8409 -1.8765
  249MOL0     H32804  -0.239  11.174   8.529 -0.5810 -1.1961  0.6916
  249MOL0     H32805  -0.396  11.273   8.344  3.0078 -1.0277 -0.2396
  249MOL0     H32806  -0.467  11.152   8.436  0.2743  3.9613  0.3691
  249MOL0     H32807  -0.640  11.229   8.280 -0.1237  0.0579 -1.8798
  249MOL0     H32808  -0.599  11.068   8.226 -2.2460  0.7077 -0.2813
  249MOL0     H32809  -0.572  11.197   8.024  3.2992 -1.1164 -2.2461
  249MOL0     H32810  -0.408  11.209   8.088 -0.6071 -0.6863 -1.7043
  249MOL0     H32811  -0.649  11.404   8.132 -0.1687  4.0455  0.7937
  249MOL0     H32812  -0.490  11.437   8.181 -1.2416  1.5472 -0.4611
  249MOL0     H32813  -0.578  11.419   7.884 -0.0889 -1.8560 -0.1594
  249MOL0     H32814  -0.413  11.453   7.939  0.8045  0.1809 -1.8565
  249MOL0     H32815  -0.490  11.653   8.058  0.7104 -0.1082 -0.4817
  249MOL0     H32816  -0.659  11.621   8.026  1.3471 -1.3645  3.7926
  249MOL0     H32817  -0.458  11.657   7.793  0.7024  2.5670 -1.0275
  249MOL0     H32818  -0.630  11.693   7.790  1.0149 -1.8834 -1.8921
  249MOL0     H32819  -0.405  11.833   7.934  0.2138 -4.2909  0.1266
  249MOL0     H32820  -0.584  11.864   7.976 -1.3012 -1.2426 -2.3593
  249MOL0     H32821  -0.735  11.954   7.742 -0.7810  1.4773  0.3805
  249MOL0     H32822  -0.657  12.195   7.476 -0.3581 -2.2707 -2.9369
  249MOL0     H32823  -0.773  12.153   7.597  1.5105  1.0005  0.5577
  249MOL0     H32824  -0.835  12.043   7.378  1.8327 -2.0714 -2.8832
  249MOL0     H32825  -0.808  11.934   7.511 -1.9508  2.3959  0.3261
  249MOL0     H32826  -0.602  12.014   7.293 -1.2401 -0.9739 -2.7003
  249MOL0     H32827  -0.570  11.897   7.419  1.9522  3.2703 -1.3732
  249MOL0     H32828  -0.632  11.799   7.213  1.8390  2.4948  0.6395
  249MOL0     H32829  -0.779  11.880   7.196 -4.2132 -0.1684  3.1483
  249MOL0     H32830  -0.947  11.640   7.539 -3.5844 -0.9971  0.9648
  249MOL0     H32831  -1.185  11.562   7.500 -0.4157 -1.5110 -0.4319
  249MOL0     H32832  -1.357  11.355   7.002  1.7875  2.0131 -0.3847
  249MOL0     H32833  -1.563  11.242   6.891 -1.1847  0.5117 -1.8764
  249MOL0     H32834  -1.961  11.412   7.024  0.0610 -0.9336  3.2223
  249MOL0     H32835  -1.924  11.253   7.089 -0.4334 -1.7990 -0.3555
  249MOL0     H32836  -2.126  11.292   6.870  0.8840  2.2307  0.4598
  249MOL0     H32837  -2.109  11.172   6.986  0.4183 -1.4917 -0.6263
  249MOL0     H32838  -1.903  11.082   6.829  0.2129  0.1696  0.1551
  249MOL0     H32839  -1.946  11.216   6.725  0.1985 -1.7871 -0.4647
  249MOL0     H32840  -2.174  11.105   6.718  1.1060  0.9743 -1.8662
  249MOL0     H32841  -2.052  11.025   6.630  1.8314 -1.0580 -0.1800
  249MOL0     H32842  -2.166  10.858   6.747  1.4220 -0.5910 -0.8702
  249MOL0     H32843  -2.136  10.937   6.906  0.0984 -0.4141 -0.2099
  249MOL0     H32844  -2.010  10.711   6.848  2.1927 -0.9986  0.8361
  249MOL0     H32845  -1.919  10.842   6.907 -0.9435 -1.2119  0.1785
  249MOL0     H32846  -1.967  10.774   6.606 -0.8639  1.5998  0.2662
  249MOL0     H32847  -1.870  10.902   6.662 -2.0592 -0.2503 -0.9914
  249MOL0     H32848  -1.717  10.717   6.768  1.6325  2.4608 -2.7123
  249MOL0     H32849  -1.719  10.701   6.605 -0.3813  1.3755 -0.6017
  249MOL0     H32850  -1.808  11.502   7.127  1.0613 -0.8876  0.1187
  249MOL0     H32851  -1.619  11.616   7.209 -4.2348  1.0991 -0.9686
  249MOL0     H32852  -1.145  11.687   7.087  2.0999 -2.9611 -1.2934
  249MOL0     H32853  -0.928  11.780   7.131 -2.8731  1.6859 -1.5846
  249MOL0     H32854  -0.171  10.938   8.185  0.3546 -1.2153  1.3643
  249MOL0     H32855   0.067  10.926   8.244 -3.8260 -3.4825  0.1782
  249MOL0     H32856   0.534  10.924   8.344 -0.7280 -2.5546  0.3366
  249MOL0     H32857   0.749  10.939   8.492  0.7255  3.1761  0.9535
  249MOL0     H32858   0.793  11.196   8.673  1.7949  0.5434 -0.5767
  249MOL0     H32859   0.907  11.119   8.784 -0.5209 -0.7498 -0.6456
  249MOL0     H32860   0.667  11.282   8.869  1.4137  1.2982  3.2007
  249MOL0     H32861   0.712  11.132   8.959  3.1825 -0.5656  0.3493
  249MOL0     H32862   0.895  11.342   8.845  2.4042 -0.4044  0.7692
  249MOL0     H32863   0.952  11.243   8.969  0.3727  2.8371 -0.4090
  249MOL0     H32864   0.891  11.436   9.096  1.9297 -2.3994  2.5456
  249MOL0     H32865   0.737  11.438   9.036  0.6741 -0.1599 -2.2111
  249MOL0     H32866   0.700  11.159   9.350 -0.0612  1.4835  0.5664
  249MOL0     H32867   0.525  11.074   8.818 -3.4332  3.0729 -1.7089
  249MOL0     H32868   0.303  11.044   8.694 -1.7390 -2.4087 -1.3805
  250MOL0     O32869  11.348   8.821   8.611  0.7046 -0.2389  1.2902
  250MOL0     C32870  11.441   8.898   8.591 -0.1416 -0.3609  0.4078
  250MOL0     O32871  11.493   8.987   8.687  0.5020  0.6271  0.1973
  250MOL0     C32872  11.445   9.019   8.810  1.5793 -0.1321 -0.4763
  250MOL0     C32873  11.510   9.121   8.874  0.4492  0.2504 -0.2933
  250MOL0     C32874  11.483   9.166   8.995 -0.5908  0.3692 -0.3266
  250MOL0     C32875  11.392   9.092   9.063  1.0277 -0.6004 -1.1049
  250MOL0     O32876  11.367   9.119   9.195  0.2123 -0.9667 -0.5576
  250MOL0     C32877  11.461   9.192   9.269  0.1333 -0.1145 -0.2292
  250MOL0     C32878  11.443   9.161   9.417 -0.3339  0.2237 -0.0144
  250MOL0     C32879  11.551   9.232   9.502 -0.2249 -0.0077 -0.2169
  250MOL0     C32880  11.546   9.191   9.643  0.4305 -0.2173 -0.4736
  250MOL0     C32881  11.432   9.254   9.727  0.0145  0.8593 -0.1020
  250MOL0     C32882  11.474   9.399   9.760 -0.3087 -0.7354  0.0154
  250MOL0     C32883  11.393   9.444   9.884 -0.0999  0.2352 -0.4354
  250MOL0     C32884  11.243   9.464   9.859 -0.2417  0.3953 -0.5020
  250MOL0     N32885  11.216   9.571   9.760 -0.0318 -1.2166 -0.5604
  250MOL0     C32886  11.189   9.704   9.796  0.8185  0.5962  0.7051
  250MOL0     C32887  11.167   9.772   9.683 -1.1729 -0.6234 -1.0464
  250MOL0     C32888  11.164   9.918   9.643 -0.0944  0.0527 -0.4883
  250MOL0     C32889  11.298   9.979   9.700  0.0577 -0.3092 -0.1403
  250MOL0     C32890  11.317  10.120   9.635  0.1284  0.1879 -0.3422
  250MOL0     C32891  11.454  10.184   9.662  0.3344  0.6227 -0.5356
  250MOL0     O32892  11.512  10.166   9.794 -0.4953 -0.0916  0.2438
  250MOL0     C32893  11.458  10.241   9.894  0.3961 -0.4918  0.9091
  250MOL0     C32894  11.466  10.185  10.018  1.1817 -0.0372  0.1666
  250MOL0     C32895  11.445  10.254  10.136 -0.1448 -0.4436  0.8522
  250MOL0     C32896  11.391  10.383  10.134  0.3895  0.4747 -0.8944
  250MOL0     C32897  11.363  10.459  10.254  0.3006  0.2719 -0.4605
  250MOL0     O32898  11.376  10.400  10.376  0.1366  0.1056  0.1315
  250MOL0     C32899  11.307  10.441  10.487  0.2683  0.4649  0.7638
  250MOL0     C32900  11.371  10.413  10.607  0.9464 -0.2608 -0.5182
  250MOL0     C32901  11.305  10.443  10.728  1.0769 -0.7634 -0.2110
  250MOL0     C32902  11.168  10.484  10.728 -0.2124 -0.6390 -0.4115
  250MOL0     O32903  11.119  10.502  10.853  0.3403  0.6118  0.0870
  250MOL0     C32904  10.980  10.539  10.862 -0.4921 -0.8318 -0.4742
  250MOL0     C32905  10.954  10.692  10.845  0.4332  0.2225  0.6789
  250MOL0     C32906  10.845  10.734  10.941 -0.0431 -0.2387  0.1938
  250MOL0     C32907  10.701  10.710  10.906  0.6513  0.3829 -0.0026
  250MOL0     C32908  10.613  10.791  11.003  0.4534 -0.9993  0.0803
  250MOL0     C32909  10.590  10.725  11.140 -0.5257  0.3166  0.2028
  250MOL0     C32910  10.484  10.623  11.124 -0.1525  0.6990 -0.6132
  250MOL0     C32911  10.429  10.582  11.258 -0.4068 -0.2398 -0.7388
  250MOL0    Cl32912  10.535  10.606  11.406 -0.0060  0.0496 -0.1330
  250MOL0     C32913  11.105  10.508  10.608 -0.0054  0.7335  0.1772
  250MOL0     C32914  11.174  10.490  10.489 -1.1869  0.1199  0.6728
  250MOL0     O32915  11.317  10.569  10.238 -1.1462  0.0027 -0.2420
  250MOL0     C32916  11.374  10.441  10.002 -0.7771  0.5298 -0.1764
  250MOL0     C32917  11.412  10.372   9.883  0.4403  0.3387 -0.1245
  250MOL0     N32918  11.168   9.676   9.584 -0.3706 -0.8336  0.5908
  250MOL0     N32919  11.212   9.563   9.625  0.0626 -0.4524  0.1679
  250MOL0     C32920  11.315   8.985   9.013 -0.4047 -0.3282  0.2785
  250MOL0     C32921  11.346   8.946   8.877  0.0956  0.1619 -0.6230
  250MOL0     C32922  11.502   8.885   8.464  0.3087  0.2452 -0.0152
  250MOL0     C32923  11.555   8.995   8.409  0.2358  0.7765 -0.3231
  250MOL0     C32924  11.611   8.991   8.276 -0.2163 -0.9341  0.5514
  250MOL0     C32925  11.627   8.868   8.206  0.4777  0.7780 -0.9212
  250MOL0     O32926  11.707   8.862   8.094  0.7899 -0.7854 -0.4373
  250MOL0     C32927  11.696   8.752   8.006  0.3626  0.6365  0.9154
  250MOL0     C32928  11.810   8.753   7.905 -0.5609  0.4064  0.0003
  250MOL0     C32929  11.786   8.653   7.795  0.4482 -0.0964  0.1068
  250MOL0     C32930  11.905   8.659   7.690 -0.3915 -1.0869  0.2915
  250MOL0     C32931  11.875   8.565   7.583  0.4221  0.6096 -0.0802
  250MOL0     C32932  11.834   8.487   7.499  0.1592  0.1911  1.0832
  250MOL0     C32933  11.568   8.747   8.271  0.2896 -0.4617  0.4583
  250MOL0     C32934  11.503   8.766   8.393  0.2562  1.0352  0.5734
  250MOL0     H32935  11.574   9.169   8.800  1.4709 -1.8233 -0.8246
  250MOL0     H32936  11.523   9.257   9.038 -0.1773  0.3572 -0.6749
  250MOL0     H32937  11.457   9.300   9.254  1.2134 -0.0431 -0.1172
  250MOL0     H32938  11.562   9.160   9.241 -0.7197 -0.5115 -3.2081
  250MOL0     H32939  11.440   9.053   9.432  0.5393  0.2227  0.1862
  250MOL0     H32940  11.347   9.202   9.451  0.4166  1.4855  0.6524
  250MOL0     H32941  11.541   9.340   9.489  0.4249 -0.0093 -0.7417
  250MOL0     H32942  11.649   9.200   9.466 -0.5321 -0.5617 -0.5729
  250MOL0     H32943  11.531   9.083   9.632  1.2642 -0.4829  0.8141
  250MOL0     H32944  11.642   9.201   9.694  0.2938 -3.1030  0.5190
  250MOL0     H32945  11.428   9.192   9.817  0.9383  0.3460 -0.4031
  250MOL0     H32946  11.340   9.255   9.668 -1.1886 -0.7994  1.6239
  250MOL0     H32947  11.464   9.466   9.674  0.8707 -0.9333 -0.2980
  250MOL0     H32948  11.580   9.405   9.784 -0.0262  2.6116 -1.5019
  250MOL0     H32949  11.419   9.391   9.976 -1.6547  2.5577  1.4639
  250MOL0     H32950  11.439   9.542   9.898 -0.1015  0.2073 -0.2355
  250MOL0     H32951  11.191   9.482   9.953 -1.8047 -1.1509 -1.0181
  250MOL0     H32952  11.214   9.364   9.826  0.1453  0.6764 -1.7919
  250MOL0     H32953  11.194   9.762   9.888 -0.9307  1.3405  0.3599
  250MOL0     H32954  11.076   9.971   9.682  0.9390  1.7793 -0.4272
  250MOL0     H32955  11.156   9.932   9.535 -1.0380  4.6224 -0.0269
  250MOL0     H32956  11.377   9.911   9.670 -1.5838 -3.2632  1.7613
  250MOL0     H32957  11.306   9.982   9.809 -1.5911  0.8990 -0.0166
  250MOL0     H32958  11.310  10.106   9.527  0.8093 -0.7103 -0.2817
  250MOL0     H32959  11.246  10.189   9.681 -0.0611 -1.5165  2.1330
  250MOL0     H32960  11.458  10.288   9.628  1.0820  0.2665 -1.5885
  250MOL0     H32961  11.514  10.122   9.595  1.0623 -1.7263  2.0820
  250MOL0     H32962  11.509  10.086  10.028  1.5186  0.0158 -0.6284
  250MOL0     H32963  11.436  10.204  10.232 -0.1613 -3.5885 -0.6399
  250MOL0     H32964  11.469  10.371  10.622  0.3210 -0.9186  2.2744
  250MOL0     H32965  11.360  10.411  10.816  2.3337  2.2164  0.2180
  250MOL0     H32966  10.953  10.502  10.962 -0.7319 -1.6970 -0.8462
  250MOL0     H32967  10.912  10.484  10.796 -2.2083  0.6786 -0.0415
  250MOL0     H32968  10.911  10.713  10.746 -0.3832 -2.5485  0.3517
  250MOL0     H32969  11.034  10.764  10.859 -1.8469  3.1807 -0.4929
  250MOL0     H32970  10.854  10.841  10.961  0.4740 -0.1729 -0.3654
  250MOL0     H32971  10.866  10.683  11.035  0.7016  0.8415  0.6259
  250MOL0     H32972  10.685  10.760  10.810 -0.0912  2.1979  1.0041
  250MOL0     H32973  10.672  10.606  10.889  0.6165  0.5084 -0.7332
  250MOL0     H32974  10.516  10.807  10.956 -0.1622  1.3629  1.9699
  250MOL0     H32975  10.659  10.889  11.019 -4.2433  1.6639 -0.7489
  250MOL0     H32976  10.556  10.796  11.217  0.9813  2.7501 -1.2165
  250MOL0     H32977  10.681  10.674  11.173 -1.4517 -1.1680  0.5251
  250MOL0     H32978  10.404  10.642  11.052  0.1638  0.4858 -1.0241
  250MOL0     H32979  10.540  10.531  11.102 -0.6971 -0.9613  3.8881
  250MOL0     H32980  10.403  10.475  11.253  0.9080 -0.5658 -0.8692
  250MOL0     H32981  10.331  10.626  11.280 -1.8500 -4.5639  3.5095
  250MOL0     H32982  11.003  10.547  10.611 -0.7168 -0.7645 -2.0736
  250MOL0     H32983  11.130  10.511  10.392  0.0709  3.9456  0.7748
  250MOL0     H32984  11.340  10.544   9.992 -1.0936  0.1923 -3.3545
  250MOL0     H32985  11.407  10.428   9.789  2.5624 -1.6187 -1.5170
  250MOL0     H32986  11.236   8.930   9.063 -0.0473 -2.2987 -1.1826
  250MOL0     H32987  11.282   8.868   8.837 -1.2976  0.7613  0.3366
  250MOL0     H32988  11.554   9.091   8.459  3.0094 -1.3952  4.7730
  250MOL0     H32989  11.636   9.084   8.226  1.2761 -3.1853 -3.2574
  250MOL0     H32990  11.598   8.761   7.957 -0.7289  1.2066  3.0791
  250MOL0     H32991  11.698   8.654   8.055 -1.2552  1.0486  1.8733
  250MOL0     H32992  11.822   8.857   7.873 -1.1678 -0.3548 -3.0606
  250MOL0     H32993  11.907   8.732   7.953 -0.4967  3.1569  1.2830
  250MOL0     H32994  11.699   8.681   7.735  1.0424 -2.3399 -1.9771
  250MOL0     H32995  11.778   8.551   7.834  0.1283  0.5286  1.7464
  250MOL0     H32996  11.908   8.756   7.641 -0.3577 -0.1717  2.0199
  250MOL0     H32997  11.995   8.636   7.747 -1.9880  1.6068  4.3644
  250MOL0     H32998  11.814   8.423   7.415  0.2856  0.6554  0.6911
  250MOL0     H32999  11.571   8.646   8.230  0.3376 -0.2787  0.0049
  250MOL0     H33000  11.450   8.681   8.434 -1.1415  0.3643 -2.4246
  251MOL0     O33001   9.024   2.500   8.673  0.0156  0.4764  0.2015
  251MOL0     C33002   8.908   2.541   8.665  0.3458  0.5395 -0.3040
  251MOL0     O33003   8.869   2.675   8.671 -0.1121 -0.2301 -0.6600
  251MOL0     C33004   8.966   2.770   8.678 -0.6291  1.6644 -0.1144
  251MOL0     C33005   9.019   2.829   8.565 -0.0227  0.0496  0.0474
  251MOL0     C33006   9.126   2.919   8.578  0.0384  0.5541  0.5140
  251MOL0     C33007   9.175   2.961   8.701 -0.1473 -1.1535  0.6119
  251MOL0     O33008   9.272   3.065   8.724 -0.6765  0.1531  0.5199
  251MOL0     C33009   9.327   3.139   8.611 -0.9707  0.6128  0.5789
  251MOL0     C33010   9.396   3.263   8.671 -0.2112 -0.2689  0.2268
  251MOL0     C33011   9.325   3.335   8.785  0.1189 -0.4466 -0.1654
  251MOL0     C33012   9.179   3.369   8.758 -0.0650  0.2512  0.2760
  251MOL0     C33013   9.114   3.477   8.857 -0.4285  0.3875  0.0504
  251MOL0     C33014   9.165   3.615   8.859  0.1672  0.6496 -0.2594
  251MOL0     C33015   9.095   3.714   8.956  0.4396  0.5247  0.9699
  251MOL0     C33016   8.952   3.746   8.921 -0.1409 -0.0460 -0.4318
  251MOL0     N33017   8.946   3.795   8.776  0.8748 -1.8914  1.1404
  251MOL0     C33018   9.002   3.909   8.721 -0.0789 -0.2211  0.7789
  251MOL0     C33019   8.982   3.890   8.590  0.1561 -0.4781 -0.1928
  251MOL0     C33020   9.037   3.962   8.463  0.5736  0.7103  0.1437
  251MOL0     C33021   9.081   4.099   8.486  0.3439 -0.3184  0.4803
  251MOL0     C33022   9.084   4.178   8.355 -0.0471 -0.1704 -0.4945
  251MOL0     C33023   9.106   4.320   8.396 -0.0436 -0.0832  0.0152
  251MOL0     O33024   9.235   4.344   8.449 -0.0124  1.3856 -0.1901
  251MOL0     C33025   9.255   4.466   8.510 -0.9695 -0.5903 -0.2151
  251MOL0     C33026   9.162   4.565   8.544 -0.1317 -0.3538 -1.4693
  251MOL0     C33027   9.169   4.670   8.636 -0.1456  0.7774 -0.3113
  251MOL0     C33028   9.299   4.704   8.678  0.6681 -0.2821 -0.2378
  251MOL0     C33029   9.331   4.821   8.768 -0.5223 -0.7094  0.7967
  251MOL0     O33030   9.224   4.877   8.817  0.0666 -0.1072  0.2839
  251MOL0     C33031   9.247   4.977   8.908 -0.3051 -0.8438  0.4047
  251MOL0     C33032   9.281   4.947   9.046  0.6526 -0.1929  0.4845
  251MOL0     C33033   9.296   5.049   9.134 -0.0962 -1.1623 -1.1578
  251MOL0     C33034   9.272   5.189   9.114  0.6643  1.6646  0.1299
  251MOL0     O33035   9.276   5.282   9.216 -0.8917 -0.6770 -0.4643
  251MOL0     C33036   9.285   5.419   9.193 -0.3677 -0.3200  0.0029
  251MOL0     C33037   9.141   5.481   9.203 -0.2990  0.1900 -0.0512
  251MOL0     C33038   9.110   5.501   9.353  0.8017  0.1208 -0.0798
  251MOL0     C33039   8.974   5.576   9.353 -0.1635  0.7534 -0.2714
  251MOL0     C33040   8.929   5.614   9.496 -0.0564 -0.5709  0.1133
  251MOL0     C33041   8.781   5.657   9.496  0.1459  0.4107 -0.2209
  251MOL0     C33042   8.714   5.652   9.629 -0.5065  0.1153 -0.0026
  251MOL0     C33043   8.558   5.682   9.623  0.1308 -0.6506  0.9486
  251MOL0    Cl33044   8.469   5.565   9.520  0.0492  0.5127 -0.0974
  251MOL0     C33045   9.222   5.211   8.981 -0.2239 -0.0533  0.6290
  251MOL0     C33046   9.207   5.113   8.873  0.1333  0.5412 -0.3381
  251MOL0     O33047   9.448   4.859   8.791 -0.3099 -0.5305  0.2670
  251MOL0     C33048   9.404   4.609   8.650 -0.3532  0.2943 -0.2526
  251MOL0     C33049   9.377   4.499   8.567 -0.4110 -0.1944 -0.0879
  251MOL0     N33050   8.896   3.782   8.562 -0.0890  1.3831 -0.8028
  251MOL0     N33051   8.882   3.732   8.679  0.3753  0.1604  0.5365
  251MOL0     C33052   9.121   2.907   8.815  0.1724 -0.2261 -0.8787
  251MOL0     C33053   9.023   2.806   8.805  0.3154 -1.3473  0.6473
  251MOL0     C33054   8.791   2.450   8.660  0.3744  0.5136  0.0591
  251MOL0     C33055   8.808   2.306   8.661 -0.8421 -0.0441  0.0217
  251MOL0     C33056   8.703   2.223   8.658 -0.5050 -0.5303 -0.0477
  251MOL0     C33057   8.568   2.269   8.648  0.1843 -0.6169  0.6450
  251MOL0     O33058   8.459   2.186   8.636  0.5401 -0.4690  0.3626
  251MOL0     C33059   8.379   2.181   8.756 -0.6404 -0.3655 -0.0572
  251MOL0     C33060   8.349   2.029   8.769  0.1130  0.4394 -0.8266
  251MOL0     C33061   8.479   1.948   8.802 -0.3867  1.2552  0.3095
  251MOL0     C33062   8.450   1.813   8.847 -0.6138 -0.2567  0.2333
  251MOL0     C33063   8.434   1.713   8.731 -0.5497  0.0283  0.7630
  251MOL0     C33064   8.424   1.633   8.640 -0.7635  0.3820 -0.2569
  251MOL0     C33065   8.545   2.406   8.638 -1.2864 -0.9412 -0.2704
  251MOL0     C33066   8.661   2.495   8.651 -0.1765 -0.1563  0.4358
  251MOL0     H33067   8.969   2.803   8.472 -0.6296  0.6023  0.2137
  251MOL0     H33068   9.165   2.972   8.491  0.6314  1.7703  1.4924
  251MOL0     H33069   9.247   3.165   8.540 -5.5102 -2.2277  4.1011
  251MOL0     H33070   9.404   3.072   8.573  0.7522  3.1252 -0.6406
  251MOL0     H33071   9.406   3.327   8.583 -0.8392 -1.2358 -0.5621
  251MOL0     H33072   9.502   3.237   8.685  0.2671 -0.0049 -2.3629
  251MOL0     H33073   9.386   3.421   8.814  2.2099 -1.6700 -0.7344
  251MOL0     H33074   9.332   3.267   8.870 -3.1917  0.6045  1.0765
  251MOL0     H33075   9.172   3.397   8.652  1.9233  1.2022  0.3327
  251MOL0     H33076   9.107   3.289   8.775 -4.8745  3.9259 -0.5716
  251MOL0     H33077   9.123   3.450   8.963 -1.2854  2.2544  0.6419
  251MOL0     H33078   9.008   3.468   8.835 -0.7135 -1.8548  1.8785
  251MOL0     H33079   9.162   3.666   8.762 -3.3227  1.7980  0.3073
  251MOL0     H33080   9.266   3.606   8.899 -0.5476  1.7909  1.9861
  251MOL0     H33081   9.091   3.670   9.056 -0.5810 -2.0965 -0.1210
  251MOL0     H33082   9.153   3.806   8.953 -2.2859  2.3457 -1.2213
  251MOL0     H33083   8.931   3.831   8.986 -1.4316  0.0723 -0.9738
  251MOL0     H33084   8.887   3.659   8.936 -0.6453  0.3189 -0.4911
  251MOL0     H33085   9.052   3.994   8.768 -2.3677  1.1111  0.9634
  251MOL0     H33086   8.957   3.964   8.389 -0.1962 -4.1437  0.5180
  251MOL0     H33087   9.128   3.916   8.424  2.1832  2.7216  1.2860
  251MOL0     H33088   9.179   4.105   8.535  0.8422 -1.3043 -0.3626
  251MOL0     H33089   8.999   4.137   8.548 -0.6327 -0.9189 -0.4148
  251MOL0     H33090   9.161   4.153   8.282 -1.1034 -1.2622 -1.2687
  251MOL0     H33091   8.979   4.176   8.327 -0.6903  2.2265  1.4382
  251MOL0     H33092   9.029   4.348   8.468 -0.4276 -1.3283  0.1117
  251MOL0     H33093   9.098   4.382   8.306 -0.5363  1.9327  1.3905
  251MOL0     H33094   9.061   4.536   8.517 -1.0696  1.6651 -0.3544
  251MOL0     H33095   9.076   4.714   8.670 -2.4084 -2.4945 -1.7387
  251MOL0     H33096   9.299   4.843   9.072  0.1088  0.0429  1.9040
  251MOL0     H33097   9.336   5.034   9.234 -3.6477  1.2171  0.8511
  251MOL0     H33098   9.332   5.437   9.096 -1.2193 -2.8311 -0.9694
  251MOL0     H33099   9.350   5.452   9.274  0.2474 -3.6692  1.0106
  251MOL0     H33100   9.065   5.418   9.156 -0.1410  0.3070 -0.4617
  251MOL0     H33101   9.128   5.573   9.145  1.0529  0.7335  0.4784
  251MOL0     H33102   9.188   5.561   9.400  2.0068 -0.6178 -1.0906
  251MOL0     H33103   9.098   5.409   9.411 -1.2934  2.7894  4.3205
  251MOL0     H33104   8.972   5.669   9.296 -0.3081  0.5407 -0.6118
  251MOL0     H33105   8.899   5.509   9.310  0.8271 -0.0667 -0.7712
  251MOL0     H33106   8.980   5.703   9.535  1.6360 -0.7692 -1.5025
  251MOL0     H33107   8.941   5.538   9.574  2.8435  2.5123  3.0270
  251MOL0     H33108   8.730   5.599   9.418  0.7066 -0.1446 -0.1827
  251MOL0     H33109   8.782   5.758   9.455  2.8034  0.3208 -0.5191
  251MOL0     H33110   8.716   5.545   9.655  0.1136 -0.0739 -0.7626
  251MOL0     H33111   8.772   5.710   9.701  3.6049 -1.5727 -1.6420
  251MOL0     H33112   8.550   5.785   9.586  1.6442 -1.6632 -2.6126
  251MOL0     H33113   8.524   5.679   9.727  0.1450 -1.7604  0.9357
  251MOL0     H33114   9.180   5.309   8.960  1.7637  0.2539 -2.6687
  251MOL0     H33115   9.161   5.152   8.783  0.8481  0.4863 -0.7304
  251MOL0     H33116   9.506   4.620   8.686  0.7549 -2.4208 -2.2003
  251MOL0     H33117   9.459   4.428   8.562 -1.2127 -1.5235  3.2533
  251MOL0     H33118   9.131   2.976   8.898 -2.4639  1.3382 -1.7379
  251MOL0     H33119   8.981   2.748   8.886 -2.3568 -1.8822 -1.0039
  251MOL0     H33120   8.904   2.258   8.669 -1.8751 -2.4814 -1.0717
  251MOL0     H33121   8.708   2.114   8.653 -0.0155 -0.4632 -1.5241
  251MOL0     H33122   8.288   2.235   8.733  0.4917 -0.2276 -5.3316
  251MOL0     H33123   8.438   2.209   8.844  1.0602  0.6555 -1.4575
  251MOL0     H33124   8.275   2.020   8.848  1.7208 -2.0649  0.5107
  251MOL0     H33125   8.305   1.989   8.677 -2.3306 -0.1552  0.5381
  251MOL0     H33126   8.522   2.011   8.880 -1.2144  2.3352 -0.0840
  251MOL0     H33127   8.527   1.954   8.703 -2.1380 -1.5417 -0.8257
  251MOL0     H33128   8.523   1.772   8.918  0.0557 -0.4064 -0.5226
  251MOL0     H33129   8.360   1.812   8.908  0.1830 -3.3019  1.5935
  251MOL0     H33130   8.410   1.542   8.586 -1.8762 -0.3534  1.1824
  251MOL0     H33131   8.445   2.448   8.631 -0.5186  0.8751 -0.9274
  251MOL0     H33132   8.631   2.599   8.646 -0.5963  0.1287  5.0222
  252MOL0     O33133   1.891   9.557  11.128  0.3668 -0.0470  0.1142
  252MOL0     C33134   1.898   9.506  11.017  0.1569  0.2783  0.6616
  252MOL0     O33135   1.797   9.493  10.932  0.0804 -0.7986  0.4631
  252MOL0     C33136   1.671   9.534  10.972  0.2837  0.2836  0.1213
  252MOL0     C33137   1.616   9.472  11.074  0.4204  0.9898 -0.6963
  252MOL0     C33138   1.483   9.491  11.111 -0.5173  0.4742 -0.8430
  252MOL0     C33139   1.412   9.584  11.035  0.1588  0.7450  0.1397
  252MOL0     O33140   1.288   9.600  11.052 -0.2512  0.4439  0.9779
  252MOL0     C33141   1.263   9.695  11.157  0.1121  0.1176  0.5251
  252MOL0     C33142   1.132   9.668  11.225 -0.0204  0.0307 -0.5939
  252MOL0     C33143   1.117   9.534  11.303  0.4461  0.3003  1.0415
  252MOL0     C33144   1.056   9.421  11.214  0.3535 -1.0502  0.5721
  252MOL0     C33145   1.023   9.301  11.299  0.6411  0.4668 -0.7812
  252MOL0     C33146   0.944   9.214  11.208 -0.2138 -0.4465 -0.7666
  252MOL0     C33147   0.890   9.106  11.300  0.2366  0.3553  0.7892
  252MOL0     C33148   0.829   8.976  11.238 -1.3733  0.0457  0.2562
  252MOL0     N33149   0.716   9.020  11.148 -0.3360 -0.5946  0.0510
  252MOL0     C33150   0.589   9.040  11.182  0.4742 -0.2573  0.1712
  252MOL0     C33151   0.532   9.101  11.073 -0.4779  0.1429  0.0886
  252MOL0     C33152   0.395   9.157  11.046 -0.3366  0.0965  0.4384
  252MOL0     C33153   0.299   9.053  10.992  0.3780 -0.1733  1.3374
  252MOL0     C33154   0.158   9.092  11.008  0.5183 -0.3029 -0.8049
  252MOL0     C33155   0.075   8.974  10.990  0.6989  0.0731  0.3995
  252MOL0     O33156  -0.058   8.991  11.049  0.8503 -0.2797 -0.0656
  252MOL0     C33157  -0.165   8.903  11.034 -0.5676 -0.2144 -0.1422
  252MOL0     C33158  -0.167   8.793  10.953  0.5875  0.5215  0.2784
  252MOL0     C33159  -0.286   8.719  10.921  0.3572 -0.0800  0.7094
  252MOL0     C33160  -0.414   8.751  10.977  0.6180 -0.2548  0.8997
  252MOL0     C33161  -0.528   8.659  10.961 -0.1406 -0.5812 -0.2749
  252MOL0     O33162  -0.599   8.655  11.082  0.1769  0.5577  0.0589
  252MOL0     C33163  -0.724   8.604  11.082  0.0857  0.0223  0.1218
  252MOL0     C33164  -0.840   8.682  11.112  0.2029  0.3106 -0.5101
  252MOL0     C33165  -0.962   8.622  11.097  0.8594 -0.0911 -1.2084
  252MOL0     C33166  -0.979   8.489  11.079  0.0932 -0.1443  0.2077
  252MOL0     O33167  -1.115   8.448  11.065 -0.1270 -0.2590 -0.0647
  252MOL0     C33168  -1.133   8.311  11.035 -0.4810  0.2486  0.0839
  252MOL0     C33169  -1.273   8.275  11.011  0.4207 -1.0789  0.7229
  252MOL0     C33170  -1.346   8.213  11.124  1.2835  0.3656 -0.3676
  252MOL0     C33171  -1.487   8.171  11.085  0.2273 -0.4076 -0.2365
  252MOL0     C33172  -1.488   8.039  11.006  0.3240 -0.2104  0.1362
  252MOL0     C33173  -1.629   7.984  10.980  0.6838 -0.4955  0.1553
  252MOL0     C33174  -1.682   7.916  11.109 -0.2460  0.4325  0.9198
  252MOL0     C33175  -1.825   7.892  11.088  0.5596  0.0751 -0.0201
  252MOL0    Cl33176  -1.898   7.767  11.211  0.0968 -0.1040  0.3970
  252MOL0     C33177  -0.866   8.414  11.078  0.7356 -0.5007 -0.3867
  252MOL0     C33178  -0.734   8.460  11.070 -0.3676  0.1560 -0.0423
  252MOL0     O33179  -0.573   8.628  10.850  0.2521  0.1080 -0.4315
  252MOL0     C33180  -0.416   8.867  11.059  0.6908 -0.3107  0.3307
  252MOL0     C33181  -0.295   8.940  11.085  1.2281  0.1262  0.5850
  252MOL0     N33182   0.623   9.112  10.970 -0.7317  0.8829 -0.8191
  252MOL0     N33183   0.736   9.068  11.023  0.2881 -0.5182  0.3512
  252MOL0     C33184   1.476   9.663  10.930  1.4143 -0.3306 -0.8669
  252MOL0     C33185   1.608   9.645  10.909 -0.2824 -0.1727  0.7882
  252MOL0     C33186   2.025   9.474  10.962 -0.4246  0.6388  0.1215
  252MOL0     C33187   2.052   9.455  10.819  0.2063  0.1648 -0.2106
  252MOL0     C33188   2.190   9.428  10.779  0.7918  0.0452  0.5717
  252MOL0     C33189   2.291   9.411  10.876 -0.6332  0.0312 -0.3479
  252MOL0     O33190   2.396   9.345  10.818  0.2843 -0.6924  0.7390
  252MOL0     C33191   2.504   9.298  10.895  0.0981  0.1255  0.0067
  252MOL0     C33192   2.638   9.283  10.822  0.2505  0.2805  1.5095
  252MOL0     C33193   2.625   9.191  10.689  1.0782  0.5479  0.8786
  252MOL0     C33194   2.752   9.167  10.615 -0.7480  0.5164  0.0777
  252MOL0     C33195   2.816   9.299  10.590 -0.2668 -0.3128 -0.2012
  252MOL0     C33196   2.870   9.403  10.573  0.9798  0.0854 -0.2088
  252MOL0     C33197   2.261   9.435  11.005 -0.4327 -0.5423 -0.1019
  252MOL0     C33198   2.131   9.468  11.050  0.2371  0.1035  0.1519
  252MOL0     H33199   1.684   9.398  11.117  0.5384 -0.0675 -2.6062
  252MOL0     H33200   1.434   9.435  11.189 -0.6977 -0.1872 -1.4212
  252MOL0     H33201   1.257   9.795  11.113 -1.1691 -0.0725  0.2436
  252MOL0     H33202   1.339   9.691  11.236 -0.1382 -0.0446  0.7583
  252MOL0     H33203   1.057   9.688  11.148 -1.9635  2.4589  1.7118
  252MOL0     H33204   1.110   9.748  11.296  0.8697 -0.1521 -0.0996
  252MOL0     H33205   1.052   9.559  11.387 -1.1147  1.4932 -0.4429
  252MOL0     H33206   1.215   9.505  11.342 -0.8815 -3.0147  2.2225
  252MOL0     H33207   0.968   9.450  11.154 -0.2598 -2.1735  0.9097
  252MOL0     H33208   1.134   9.412  11.138  1.3032  4.0581  0.5324
  252MOL0     H33209   0.956   9.331  11.379 -0.9825 -1.9945 -1.1207
  252MOL0     H33210   1.110   9.249  11.340 -1.0943 -1.7956  0.2581
  252MOL0     H33211   0.997   9.169  11.124 -2.6861 -4.3116 -0.5022
  252MOL0     H33212   0.859   9.263  11.158 -0.7696 -0.1217  0.4721
  252MOL0     H33213   0.974   9.074  11.363  1.5464  0.9796 -0.5788
  252MOL0     H33214   0.814   9.151  11.364  0.0995  1.1819  0.0610
  252MOL0     H33215   0.788   8.910  11.315 -1.0526  0.5279  0.8483
  252MOL0     H33216   0.910   8.931  11.179  0.0188  3.2710 -0.5441
  252MOL0     H33217   0.540   9.015  11.276  1.1576  0.2496  0.6684
  252MOL0     H33218   0.380   9.234  10.970 -1.8939 -0.0322  0.5836
  252MOL0     H33219   0.372   9.208  11.140  3.3326  2.6962  0.1057
  252MOL0     H33220   0.311   8.956  11.041 -0.0044 -0.3216  1.1464
  252MOL0     H33221   0.302   9.038  10.884 -2.3474 -0.2021  1.1949
  252MOL0     H33222   0.140   9.133  11.108 -4.2152 -0.9933 -1.1077
  252MOL0     H33223   0.130   9.168  10.935 -2.2378 -2.2752 -2.0036
  252MOL0     H33224   0.124   8.894  11.046  1.0659 -0.1094 -0.1736
  252MOL0     H33225   0.060   8.942  10.886 -0.2840  2.1093 -0.1415
  252MOL0     H33226  -0.076   8.768  10.900  1.1866  0.7243  1.1927
  252MOL0     H33227  -0.269   8.637  10.852  2.1260 -0.5669  1.6425
  252MOL0     H33228  -0.834   8.790  11.125 -1.3774  0.1534  2.2316
  252MOL0     H33229  -1.049   8.685  11.112  1.6018  0.2492  2.7179
  252MOL0     H33230  -1.094   8.254  11.120 -0.6648 -1.0315 -0.6539
  252MOL0     H33231  -1.068   8.290  10.949  1.2150 -0.9987  1.6031
  252MOL0     H33232  -1.271   8.199  10.932  0.8033 -1.7243  1.3469
  252MOL0     H33233  -1.332   8.354  10.963 -0.9068 -1.9621  0.8556
  252MOL0     H33234  -1.360   8.284  11.206 -0.0292 -1.3686  0.9868
  252MOL0     H33235  -1.291   8.130  11.170  0.7892 -0.0303 -0.4866
  252MOL0     H33236  -1.553   8.158  11.171 -0.1998  0.1833 -0.4666
  252MOL0     H33237  -1.544   8.245  11.028  1.8750 -1.2525 -3.2542
  252MOL0     H33238  -1.436   7.963  11.065 -1.0279 -0.5541  0.9229
  252MOL0     H33239  -1.436   8.043  10.910 -0.7898 -1.3319 -0.5410
  252MOL0     H33240  -1.636   7.911  10.899  2.9811  0.6853 -1.2287
  252MOL0     H33241  -1.694   8.066  10.948 -2.9580 -2.1826  2.5364
  252MOL0     H33242  -1.633   7.820  11.129 -1.2829 -0.2389  0.3481
  252MOL0     H33243  -1.666   7.978  11.197 -0.2341  2.8751 -0.7166
  252MOL0     H33244  -1.844   7.859  10.986  0.9765  1.2425 -0.4929
  252MOL0     H33245  -1.889   7.980  11.096 -2.4795 -2.0174  0.4801
  252MOL0     H33246  -0.885   8.308  11.090 -4.3786 -0.0747 -2.0805
  252MOL0     H33247  -0.651   8.392  11.056 -0.4393  0.2611 -1.1426
  252MOL0     H33248  -0.509   8.909  11.094  0.4184 -0.3516 -0.3293
  252MOL0     H33249  -0.304   9.029  11.147  1.9959  4.0645 -4.2495
  252MOL0     H33250   1.413   9.738  10.883 -1.4317 -0.9187  1.6071
  252MOL0     H33251   1.659   9.701  10.831  0.4297 -2.1884 -0.2569
  252MOL0     H33252   1.963   9.465  10.757 -0.0246  1.8677  0.3578
  252MOL0     H33253   2.216   9.409  10.675 -1.0690 -0.1484  0.1104
  252MOL0     H33254   2.479   9.194  10.918  2.9191 -0.1938  2.0879
  252MOL0     H33255   2.499   9.357  10.987  0.8602  1.5448 -0.8248
  252MOL0     H33256   2.676   9.378  10.784 -1.8120  0.4116 -0.4628
  252MOL0     H33257   2.716   9.231  10.878  0.1152 -1.4974  0.1622
  252MOL0     H33258   2.541   9.223  10.627 -0.1883  1.1140  2.8084
  252MOL0     H33259   2.596   9.089  10.715 -1.3700  0.2661 -2.4202
  252MOL0     H33260   2.812   9.098  10.675  0.9501  1.5307 -0.3635
  252MOL0     H33261   2.728   9.108  10.526 -1.3340 -1.7077  1.6251
  252MOL0     H33262   2.903   9.505  10.572 -0.2471  0.4975 -0.0330
  252MOL0     H33263   2.333   9.413  11.083  0.1874 -3.3939 -1.3250
  252MOL0     H33264   2.111   9.496  11.153 -1.0707 -0.0401 -0.0429
  253MOL0     O33265   4.168   7.701  10.459 -0.1564 -0.3557 -0.2978
  253MOL0     C33266   4.247   7.761  10.523 -0.1258 -1.1917  0.7134
  253MOL0     O33267   4.243   7.897  10.547  0.1828  0.1470  0.4987
  253MOL0     C33268   4.137   7.952  10.486  0.2606 -1.4244 -0.7632
  253MOL0     C33269   4.134   7.957  10.344 -0.3209  0.6166 -0.2242
  253MOL0     C33270   4.030   8.007  10.274 -0.0872 -1.1987  0.2841
  253MOL0     C33271   3.923   8.055  10.345 -0.3391 -0.4237 -0.1394
  253MOL0     O33272   3.814   8.095  10.280  0.7662 -0.1211  0.6587
  253MOL0     C33273   3.789   8.057  10.140  0.2527  0.0668 -0.3460
  253MOL0     C33274   3.843   8.171  10.039  0.2237 -0.8521 -0.4569
  253MOL0     C33275   3.813   8.151   9.898 -1.0507  0.3650  0.3110
  253MOL0     C33276   3.886   8.030   9.833  0.8352  1.1092  0.2612
  253MOL0     C33277   4.038   8.035   9.828  0.5048 -0.2411 -0.6408
  253MOL0     C33278   4.097   7.927   9.746  0.2190 -0.5672 -0.1302
  253MOL0     C33279   4.247   7.931   9.733  0.0660  0.1264  0.5199
  253MOL0     C33280   4.298   7.846   9.858 -0.3457  0.6326  0.0155
  253MOL0     N33281   4.441   7.845   9.851 -0.4905  0.1086  0.9236
  253MOL0     C33282   4.529   7.951   9.905 -0.6535 -0.1653 -0.0181
  253MOL0     C33283   4.651   7.929   9.846 -0.7346 -0.2344  0.5976
  253MOL0     C33284   4.775   8.010   9.855  0.4352  0.6237  0.1793
  253MOL0     C33285   4.880   7.931   9.936 -0.0591 -1.3689 -0.5866
  253MOL0     C33286   5.017   7.986   9.895 -0.1770  0.4492 -0.3292
  253MOL0     C33287   5.142   7.914   9.963 -0.6950 -0.4149 -0.2161
  253MOL0     O33288   5.264   7.993   9.960 -0.4859  0.1477  0.3553
  253MOL0     C33289   5.383   7.921   9.985 -0.0151  0.6600  0.1191
  253MOL0     C33290   5.478   7.947  10.087  0.6746  0.7387 -0.4575
  253MOL0     C33291   5.595   7.874  10.111  0.5660  0.5702  0.5198
  253MOL0     C33292   5.633   7.777  10.027  0.3959  0.0699 -0.7350
  253MOL0     C33293   5.760   7.701  10.055  1.5750  0.6702 -0.3019
  253MOL0     O33294   5.835   7.683   9.944 -0.0005 -0.5844 -0.2201
  253MOL0     C33295   5.938   7.597   9.954  0.7458 -0.3813  0.3584
  253MOL0     C33296   6.052   7.648  10.000 -0.0225  0.1245 -0.2773
  253MOL0     C33297   6.171   7.572  10.009 -0.3615  0.0761 -0.7009
  253MOL0     C33298   6.162   7.440   9.970 -0.4944  0.4327  0.6100
  253MOL0     O33299   6.274   7.370   9.973 -0.6247 -0.4413  0.2393
  253MOL0     C33300   6.380   7.390  10.066 -0.3651  0.9111 -0.1435
  253MOL0     C33301   6.333   7.395  10.214 -1.2588  0.3059  0.3707
  253MOL0     C33302   6.445   7.406  10.312  0.0455 -0.5988 -0.6896
  253MOL0     C33303   6.395   7.377  10.454  0.2237 -0.1397  0.4660
  253MOL0     C33304   6.509   7.372  10.547  0.9636 -0.2683  0.0701
  253MOL0     C33305   6.476   7.281  10.672  0.3103 -0.1045  0.0298
  253MOL0     C33306   6.606   7.274  10.750 -0.6362  0.6092 -0.7287
  253MOL0     C33307   6.707   7.161  10.722  0.0306 -0.5787  0.5836
  253MOL0    Cl33308   6.860   7.191  10.809 -0.1994 -0.4595 -0.1797
  253MOL0     C33309   6.046   7.372   9.939 -0.1884 -0.3895  0.1275
  253MOL0     C33310   5.934   7.457   9.932  0.5737 -0.1295 -0.2881
  253MOL0     O33311   5.772   7.637  10.158  0.2134 -0.4146 -0.3946
  253MOL0     C33312   5.557   7.756   9.914  0.2768 -0.5083 -0.1391
  253MOL0     C33313   5.436   7.821   9.891 -0.0593  0.3193 -0.0678
  253MOL0     N33314   4.636   7.829   9.758  0.9853  0.6486 -0.2443
  253MOL0     N33315   4.517   7.762   9.773 -0.1389 -0.5175  0.8134
  253MOL0     C33316   3.923   8.070  10.484 -0.5085  0.3652 -0.3658
  253MOL0     C33317   4.029   8.016  10.556  0.2532 -0.0735 -0.5004
  253MOL0     C33318   4.375   7.698  10.575  0.8154  0.0480  0.6930
  253MOL0     C33319   4.485   7.772  10.621 -0.2188  0.1466 -0.1428
  253MOL0     C33320   4.604   7.704  10.648 -0.7286 -0.1834 -0.5941
  253MOL0     C33321   4.614   7.567  10.658 -1.0174  0.1579 -0.0130
  253MOL0     O33322   4.731   7.503  10.691  0.0732 -0.0094  0.0374
  253MOL0     C33323   4.719   7.428  10.815  0.1942  0.7094 -0.9085
  253MOL0     C33324   4.859   7.416  10.873 -0.3547  0.2974  0.2075
  253MOL0     C33325   4.928   7.548  10.899 -0.3976  0.0332 -1.0907
  253MOL0     C33326   5.048   7.539  10.991 -0.0868 -0.1557 -0.8022
  253MOL0     C33327   5.017   7.497  11.129 -0.5314  0.0116 -0.0583
  253MOL0     C33328   4.989   7.439  11.234 -0.4739 -1.0475 -0.1583
  253MOL0     C33329   4.501   7.491  10.634 -0.0246 -0.4364  0.3704
  253MOL0     C33330   4.387   7.555  10.582  0.1742  0.6801  0.4326
  253MOL0     H33331   4.213   7.905  10.290  0.2807  0.7406  0.5182
  253MOL0     H33332   4.031   8.005  10.166  1.1191 -3.1568  0.2745
  253MOL0     H33333   3.682   8.039  10.124 -0.0998  0.2306  1.5931
  253MOL0     H33334   3.846   7.966  10.118 -2.2587 -1.0318 -2.9108
  253MOL0     H33335   3.952   8.164  10.045  0.2543 -6.3833 -2.0612
  253MOL0     H33336   3.818   8.272  10.075 -1.2321 -1.6826  1.0340
  253MOL0     H33337   3.842   8.241   9.843  1.8247 -0.7917 -0.2435
  253MOL0     H33338   3.709   8.141   9.866 -0.1460  1.0736 -3.3624
  253MOL0     H33339   3.854   7.944   9.893 -1.0710  3.2610  2.5479
  253MOL0     H33340   3.836   8.005   9.740 -4.0763  0.9697  2.6264
  253MOL0     H33341   4.081   8.020   9.928 -1.4561  0.5002  0.3695
  253MOL0     H33342   4.067   8.127   9.776 -0.4582 -0.6356 -1.9196
  253MOL0     H33343   4.066   7.942   9.643  0.2893 -0.7796 -0.1832
  253MOL0     H33344   4.075   7.827   9.786  1.4903 -1.2686 -1.0864
  253MOL0     H33345   4.278   7.901   9.633 -2.9423  1.8441 -1.0553
  253MOL0     H33346   4.271   8.036   9.752  1.2934  0.3552 -1.9060
  253MOL0     H33347   4.255   7.746   9.848 -0.6743  0.8436 -0.7204
  253MOL0     H33348   4.276   7.888   9.956 -1.6141 -2.2218  1.0697
  253MOL0     H33349   4.502   8.022   9.982  0.9190 -1.4883  1.8618
  253MOL0     H33350   4.761   8.112   9.891 -0.0381  1.4874 -2.2776
  253MOL0     H33351   4.800   8.029   9.750  0.2520  0.7484  0.1576
  253MOL0     H33352   4.869   7.825   9.912  2.4056 -1.2422 -2.7125
  253MOL0     H33353   4.859   7.942  10.043  0.2201  1.7587 -0.7728
  253MOL0     H33354   5.023   7.964   9.788 -1.1712  1.0828 -0.5336
  253MOL0     H33355   5.016   8.096   9.901 -1.2675  0.5137 -1.3130
  253MOL0     H33356   5.174   7.816   9.925  0.7629 -1.0833  2.4896
  253MOL0     H33357   5.106   7.895  10.064 -1.0507  1.0963 -0.0342
  253MOL0     H33358   5.461   8.029  10.156 -0.7047 -0.9020  1.2636
  253MOL0     H33359   5.644   7.896  10.205 -0.1362  1.4061  0.7075
  253MOL0     H33360   6.051   7.748  10.043 -2.2442 -0.2268  0.6128
  253MOL0     H33361   6.260   7.626  10.040  0.7622 -0.9793 -1.9585
  253MOL0     H33362   6.430   7.486  10.051 -0.8397  1.5837  2.1610
  253MOL0     H33363   6.460   7.319  10.044 -0.3395  0.4757  1.2242
  253MOL0     H33364   6.260   7.318  10.241 -2.9927  0.9175 -2.2379
  253MOL0     H33365   6.282   7.491  10.219 -1.7676  0.1670 -1.5049
  253MOL0     H33366   6.487   7.507  10.310 -2.0544  0.8001  4.9558
  253MOL0     H33367   6.514   7.324  10.292  1.9868  1.1503 -1.4135
  253MOL0     H33368   6.331   7.456  10.495 -0.4298 -0.1860 -0.4343
  253MOL0     H33369   6.340   7.283  10.443 -3.3430  1.6577  1.2574
  253MOL0     H33370   6.540   7.465  10.597 -1.9635 -0.3432  2.2677
  253MOL0     H33371   6.591   7.334  10.486  1.1533  1.6129 -0.9198
  253MOL0     H33372   6.445   7.187  10.626  1.0747  0.1457 -1.0462
  253MOL0     H33373   6.398   7.316  10.739  0.4368 -1.5651  0.9970
  253MOL0     H33374   6.650   7.373  10.737  2.5884 -0.6684 -0.3454
  253MOL0     H33375   6.580   7.268  10.856  2.9117 -2.2855  0.1713
  253MOL0     H33376   6.719   7.143  10.615 -0.3935  0.8623  0.2680
  253MOL0     H33377   6.670   7.068  10.766  0.6303 -0.7830  0.6742
  253MOL0     H33378   6.035   7.264   9.938  2.5154 -0.7953  1.9693
  253MOL0     H33379   5.842   7.401   9.922  0.7257 -1.0503  2.4872
  253MOL0     H33380   5.593   7.681   9.844  2.5919 -0.0050  0.4212
  253MOL0     H33381   5.377   7.791   9.804 -1.6243  0.6380  0.8429
  253MOL0     H33382   3.840   8.118  10.534  0.9804  0.4775  2.1675
  253MOL0     H33383   4.045   8.024  10.663  0.9663 -1.9300 -0.4409
  253MOL0     H33384   4.486   7.879  10.642  0.9112 -0.2534  2.1745
  253MOL0     H33385   4.689   7.771  10.655 -2.3021  2.0094 -1.1665
  253MOL0     H33386   4.691   7.332  10.771  1.6973 -0.3593  0.3897
  253MOL0     H33387   4.648   7.462  10.890  0.8960 -1.6874  0.9483
  253MOL0     H33388   4.851   7.359  10.966 -2.3670  0.8728  0.4278
  253MOL0     H33389   4.923   7.370  10.796  0.9981  0.9206  0.9154
  253MOL0     H33390   4.857   7.614  10.950 -0.5994 -0.3735 -0.8372
  253MOL0     H33391   4.961   7.600  10.809  2.6437 -1.0494 -0.7211
  253MOL0     H33392   5.119   7.468  10.947  0.6508  2.4300 -4.1559
  253MOL0     H33393   5.093   7.639  10.989 -0.0032 -0.1483  0.3707
  253MOL0     H33394   4.972   7.396  11.331  0.0051 -0.0877  0.3637
  253MOL0     H33395   4.510   7.385  10.656  7.2886 -0.1016  1.2903
  253MOL0     H33396   4.299   7.497  10.556 -0.6221  1.4985  1.1978
  254MOL0     O33397   5.264   3.285   5.341 -0.8286  0.8641 -0.4839
  254MOL0     C33398   5.288   3.341   5.446  0.6315 -0.7301 -0.0255
  254MOL0     O33399   5.198   3.354   5.556  0.0507  0.3012  0.6114
  254MOL0     C33400   5.072   3.306   5.547 -0.2248  0.4426  0.5195
  254MOL0     C33401   4.968   3.370   5.607 -0.0901 -0.2407 -0.3172
  254MOL0     C33402   4.838   3.322   5.613 -0.6193 -0.1599  0.5064
  254MOL0     C33403   4.811   3.198   5.547 -0.0179  0.2989  0.1561
  254MOL0     O33404   4.695   3.126   5.558 -1.0023 -0.0554  0.7527
  254MOL0     C33405   4.626   3.155   5.677 -0.1161  1.3780 -0.4387
  254MOL0     C33406   4.505   3.064   5.688  1.8961 -0.1471  0.1098
  254MOL0     C33407   4.407   3.111   5.801 -0.0630 -0.6856  0.0274
  254MOL0     C33408   4.275   3.039   5.777  0.3480  0.4041 -0.9276
  254MOL0     C33409   4.156   3.088   5.853  0.3558  1.2544  0.0557
  254MOL0     C33410   4.019   3.024   5.808  0.1000  0.9285  0.4299
  254MOL0     C33411   3.921   3.087   5.912  0.2543  0.1861 -0.8248
  254MOL0     C33412   3.774   3.033   5.889 -0.0175 -0.0123 -0.1648
  254MOL0     N33413   3.728   3.100   5.765  0.0948 -0.1316  0.7540
  254MOL0     C33414   3.732   3.052   5.641 -0.3775 -0.2707  0.4092
  254MOL0     C33415   3.629   3.111   5.572 -0.4707 -0.0212  0.2502
  254MOL0     C33416   3.592   3.087   5.422 -0.5477  0.5108  0.1078
  254MOL0     C33417   3.444   3.081   5.389  0.6138  0.8484  0.3041
  254MOL0     C33418   3.361   2.968   5.458 -0.4677  0.2289 -0.3517
  254MOL0     C33419   3.216   2.976   5.421 -0.1022 -0.4268  0.0044
  254MOL0     O33420   3.152   2.865   5.478 -0.2226 -1.0081  0.8617
  254MOL0     C33421   3.015   2.857   5.457  0.4842 -0.2675 -1.0605
  254MOL0     C33422   2.920   2.954   5.436 -0.1878 -0.1378  0.3249
  254MOL0     C33423   2.789   2.930   5.435 -0.1063  0.4967 -0.8330
  254MOL0     C33424   2.738   2.797   5.432  0.3650 -1.6054 -1.1665
  254MOL0     C33425   2.596   2.774   5.402 -0.3580  0.0437 -1.0565
  254MOL0     O33426   2.507   2.877   5.386  0.0646 -0.2075  0.1442
  254MOL0     C33427   2.377   2.864   5.354 -0.0424 -0.1669  0.1303
  254MOL0     C33428   2.290   2.760   5.393 -0.5571 -0.0016  0.2190
  254MOL0     C33429   2.157   2.748   5.360 -0.6947 -0.3354 -0.0547
  254MOL0     C33430   2.100   2.855   5.285 -0.5308  0.1555 -0.5673
  254MOL0     O33431   1.961   2.857   5.264  0.1791  0.5044  0.4237
  254MOL0     C33432   1.882   2.742   5.257  0.5377  0.7072  0.1940
  254MOL0     C33433   1.736   2.771   5.240 -0.3908 -0.1379 -1.0509
  254MOL0     C33434   1.700   2.802   5.100  0.1389  0.4747  0.4548
  254MOL0     C33435   1.548   2.832   5.113  0.2268  0.0164  0.7779
  254MOL0     C33436   1.487   2.869   4.984  0.8573 -0.0795 -0.3770
  254MOL0     C33437   1.341   2.848   4.982  0.7668  0.7243 -0.8043
  254MOL0     C33438   1.256   2.940   5.068 -0.1528 -0.4349 -1.0015
  254MOL0     C33439   1.110   2.964   5.036 -0.3677  0.3531  0.2049
  254MOL0    Cl33440   1.028   2.808   5.006 -0.2539 -0.0126 -0.2332
  254MOL0     C33441   2.187   2.950   5.233  1.1459  0.6121  1.2317
  254MOL0     C33442   2.319   2.957   5.270  0.5071 -1.3850 -0.2981
  254MOL0     O33443   2.570   2.656   5.392 -0.4726 -0.0691 -0.2672
  254MOL0     C33444   2.831   2.701   5.468 -0.4773 -0.1194  0.5594
  254MOL0     C33445   2.967   2.725   5.471 -0.4080 -0.0163  0.0526
  254MOL0     N33446   3.576   3.201   5.660 -0.0739  0.2254  0.6679
  254MOL0     N33447   3.633   3.189   5.772 -0.0245 -0.1086 -0.2064
  254MOL0     C33448   4.911   3.131   5.486 -0.8663  0.2358 -0.0617
  254MOL0     C33449   5.043   3.185   5.487  0.1069 -0.8669  0.0998
  254MOL0     C33450   5.430   3.383   5.454  0.7881  0.0927 -0.9613
  254MOL0     C33451   5.532   3.289   5.455 -0.5761  0.3221  0.3803
  254MOL0     C33452   5.661   3.319   5.490  0.2211  0.1816 -0.3638
  254MOL0     C33453   5.690   3.452   5.536  0.4232 -0.9108 -0.4261
  254MOL0     O33454   5.806   3.495   5.589 -0.3481 -0.5941 -0.0688
  254MOL0     C33455   5.919   3.403   5.589  0.8813  0.0602  0.3663
  254MOL0     C33456   6.034   3.448   5.669 -0.5515  0.3278  0.4601
  254MOL0     C33457   6.144   3.524   5.586 -0.3270  0.2221  0.0442
  254MOL0     C33458   6.238   3.432   5.495  0.6871  0.5177 -0.3914
  254MOL0     C33459   6.300   3.521   5.397 -0.1099  0.2898  1.4170
  254MOL0     C33460   6.346   3.606   5.328 -0.2767  0.4801 -0.7962
  254MOL0     C33461   5.584   3.549   5.547  0.2212 -0.2735 -0.7241
  254MOL0     C33462   5.462   3.507   5.505 -0.0181  0.6210  0.2796
  254MOL0     H33463   4.982   3.465   5.658  0.5769 -1.7320  2.4981
  254MOL0     H33464   4.758   3.369   5.670  1.2365 -0.0278  3.2237
  254MOL0     H33465   4.595   3.260   5.681 -1.4732  0.9818  0.2136
  254MOL0     H33466   4.691   3.138   5.764 -0.4290  2.8711  0.1237
  254MOL0     H33467   4.546   2.966   5.713  3.3139  0.0332 -1.3460
  254MOL0     H33468   4.457   3.064   5.589  1.3597  1.9236  0.3186
  254MOL0     H33469   4.388   3.219   5.800  1.3269 -0.4136  0.5849
  254MOL0     H33470   4.459   3.094   5.896  2.2708 -1.1041 -1.2484
  254MOL0     H33471   4.244   3.050   5.673  1.4375  1.2364 -1.1799
  254MOL0     H33472   4.287   2.931   5.788  0.8950  0.6517  1.6973
  254MOL0     H33473   4.143   3.197   5.849  0.2986  1.2380 -0.1945
  254MOL0     H33474   4.182   3.065   5.957  0.2545 -1.1092 -0.4099
  254MOL0     H33475   4.016   2.915   5.803 -3.4401  0.9563 -0.5932
  254MOL0     H33476   3.983   3.073   5.717  2.1532 -0.4339 -1.1955
  254MOL0     H33477   3.948   3.049   6.011  0.1357 -1.6221 -1.4387
  254MOL0     H33478   3.922   3.196   5.905  0.6070  0.0985 -2.5896
  254MOL0     H33479   3.713   3.061   5.975  1.7405  1.0049  0.8095
  254MOL0     H33480   3.771   2.925   5.874 -1.3323  0.2086 -1.6843
  254MOL0     H33481   3.804   2.985   5.595  2.1744  1.0652  2.2462
  254MOL0     H33482   3.644   2.996   5.390  1.2815  1.5344  0.0385
  254MOL0     H33483   3.636   3.167   5.361 -0.3948  1.8090  1.8578
  254MOL0     H33484   3.417   3.069   5.284 -3.8683  1.7512  1.1288
  254MOL0     H33485   3.397   3.169   5.435  0.8170  0.0516  2.1101
  254MOL0     H33486   3.388   2.867   5.428 -1.4357 -0.9953  2.4751
  254MOL0     H33487   3.371   2.967   5.567 -5.7296  0.0709  0.3887
  254MOL0     H33488   3.204   2.978   5.312  0.4294 -0.6191 -0.0609
  254MOL0     H33489   3.174   3.069   5.458  1.1232 -0.5706  1.8881
  254MOL0     H33490   2.958   3.054   5.454 -0.3969 -0.0064  0.0440
  254MOL0     H33491   2.715   3.009   5.443 -3.1567 -2.0143 -1.7818
  254MOL0     H33492   2.338   2.685   5.455  1.3158  0.5586 -0.4886
  254MOL0     H33493   2.110   2.667   5.413  0.4187 -1.9928 -1.5049
  254MOL0     H33494   1.888   2.671   5.340 -0.2138 -2.1389 -1.9941
  254MOL0     H33495   1.922   2.686   5.172  0.0480 -0.0136  0.4284
  254MOL0     H33496   1.708   2.854   5.304  1.1237  0.7544 -1.4894
  254MOL0     H33497   1.671   2.687   5.267 -1.3335  1.1881  1.0656
  254MOL0     H33498   1.702   2.720   5.028  2.6979  1.1938 -0.4205
  254MOL0     H33499   1.762   2.888   5.072  1.1582 -0.1766  0.6812
  254MOL0     H33500   1.497   2.744   5.152  0.8284 -0.4065  0.6213
  254MOL0     H33501   1.547   2.921   5.177 -0.8920 -0.3461  1.2784
  254MOL0     H33502   1.541   2.832   4.897  2.5363 -2.2013  1.4516
  254MOL0     H33503   1.511   2.975   4.972  0.8089  0.0489  0.5768
  254MOL0     H33504   1.322   2.746   5.017  0.4012  0.6802 -1.1195
  254MOL0     H33505   1.304   2.853   4.879  0.6155  2.6671 -0.6970
  254MOL0     H33506   1.262   2.909   5.173 -0.0193  0.9579 -0.5782
  254MOL0     H33507   1.300   3.039   5.064 -2.3856  0.5858 -3.1171
  254MOL0     H33508   1.105   3.022   4.943  0.8982  0.4785  0.1917
  254MOL0     H33509   1.062   3.015   5.120 -1.6637 -0.3458 -0.0798
  254MOL0     H33510   2.142   3.026   5.170 -0.4129 -0.5065  0.9568
  254MOL0     H33511   2.361   3.049   5.232 -3.2199 -0.5106 -2.9701
  254MOL0     H33512   2.803   2.600   5.497  1.3404 -1.0388 -0.6128
  254MOL0     H33513   3.045   2.659   5.507  0.4992  2.2596  2.6276
  254MOL0     H33514   4.901   3.031   5.445  2.7469  0.2964 -1.4897
  254MOL0     H33515   5.112   3.115   5.442  0.4461 -1.6214  1.7236
  254MOL0     H33516   5.491   3.191   5.432 -3.3847  1.6193 -0.5818
  254MOL0     H33517   5.737   3.242   5.492 -1.3887 -1.5205 -0.9758
  254MOL0     H33518   5.950   3.394   5.484 -1.6667 -1.9119 -0.2980
  254MOL0     H33519   5.882   3.305   5.619 -0.3114  0.4086  0.0793
  254MOL0     H33520   5.988   3.520   5.737 -1.6414  0.1186 -0.0287
  254MOL0     H33521   6.073   3.365   5.729 -2.9968 -2.4975 -1.5689
  254MOL0     H33522   6.214   3.575   5.653  0.3337  1.2874 -1.3964
  254MOL0     H33523   6.101   3.601   5.522 -0.3583  0.4761  0.3718
  254MOL0     H33524   6.321   3.380   5.542  1.9077  0.9942 -1.9074
  254MOL0     H33525   6.162   3.363   5.456 -3.2545  4.4741 -0.5666
  254MOL0     H33526   6.392   3.686   5.274 -0.0803  0.8089 -0.1487
  254MOL0     H33527   5.607   3.645   5.593  2.6725 -1.0897 -0.0597
  254MOL0     H33528   5.376   3.572   5.512  0.6085  1.4362  0.6773
  255MOL0     O33529  10.548   0.325   8.134  0.4976  0.4553  0.6127
  255MOL0     C33530  10.585   0.437   8.153  0.0749 -0.0791  0.8346
  255MOL0     O33531  10.655   0.486   8.256  0.5738  0.7601 -1.0063
  255MOL0     C33532  10.697   0.389   8.349 -0.3987 -0.7891 -1.2282
  255MOL0     C33533  10.823   0.325   8.322 -0.9687 -0.5049 -0.4339
  255MOL0     C33534  10.880   0.229   8.405  0.3337 -0.0992 -0.3630
  255MOL0     C33535  10.817   0.199   8.529  0.9057 -1.0654  0.0778
  255MOL0     O33536  10.867   0.112   8.616 -0.0532 -0.1166 -0.1912
  255MOL0     C33537  10.995   0.130   8.670 -0.1322 -0.9638  0.2202
  255MOL0     C33538  10.987   0.247   8.771  0.5743 -0.3566 -0.9223
  255MOL0     C33539  11.120   0.281   8.838 -0.3768  0.8875 -0.0502
  255MOL0     C33540  11.116   0.400   8.940 -0.6850 -0.0465 -0.0502
  255MOL0     C33541  11.257   0.444   8.989  1.0496  0.6758 -0.3672
  255MOL0     C33542  11.349   0.487   8.871 -0.0722 -0.6625  0.3709
  255MOL0     C33543  11.483   0.536   8.924 -0.7658 -0.0390 -0.2770
  255MOL0     C33544  11.586   0.538   8.812  0.1410 -0.3475 -0.1990
  255MOL0     N33545  11.709   0.603   8.857 -0.3146 -0.9036 -0.2979
  255MOL0     C33546  11.767   0.717   8.813  0.2708 -1.6182 -0.2513
  255MOL0     C33547  11.885   0.726   8.874  0.3937  0.7947  0.2733
  255MOL0     C33548  11.977   0.843   8.839  0.2530  0.3791  0.3980
  255MOL0     C33549  12.130   0.822   8.881  0.1989 -0.6671 -0.4780
  255MOL0     C33550  12.125   0.828   9.043  0.6549  0.7542  1.5968
  255MOL0     C33551  12.260   0.830   9.107 -0.2267 -0.1240 -0.3576
  255MOL0     O33552  12.353   0.925   9.053  1.1074  0.6967  0.1050
  255MOL0     C33553  12.476   0.914   9.108 -0.1121  0.4216  0.6910
  255MOL0     C33554  12.579   0.974   9.036 -0.7211  0.3173 -0.5162
  255MOL0     C33555  12.712   0.977   9.088  1.5117  0.4786 -0.2630
  255MOL0     C33556  12.745   0.921   9.208  0.5053 -0.1813 -0.4243
  255MOL0     C33557  12.888   0.932   9.254  0.3585 -0.4785  0.4528
  255MOL0     O33558  12.961   1.000   9.160 -0.5793 -0.4288  0.0102
  255MOL0     C33559  13.093   1.000   9.184 -0.2180  0.1086 -0.4334
  255MOL0     C33560  13.170   0.899   9.126  0.8611  0.7198  0.7612
  255MOL0     C33561  13.308   0.896   9.154 -0.5345 -0.2759  0.1759
  255MOL0     C33562  13.367   0.986   9.245  0.2977 -0.5402  0.7948
  255MOL0     O33563  13.498   0.996   9.258 -0.3950 -0.2067 -0.2208
  255MOL0     C33564  13.555   1.066   9.366  0.2109 -0.2267 -0.1139
  255MOL0     C33565  13.524   0.988   9.500 -0.0359  0.8686 -0.3617
  255MOL0     C33566  13.627   0.875   9.512  0.7099  0.0685 -0.2217
  255MOL0     C33567  13.602   0.818   9.653 -0.2653  0.3100 -0.4630
  255MOL0     C33568  13.702   0.711   9.686 -0.9251 -0.4097  0.0930
  255MOL0     C33569  13.686   0.575   9.611  0.5755  0.0376  0.0876
  255MOL0     C33570  13.767   0.464   9.667  1.2723  0.1744  0.0320
  255MOL0     C33571  13.752   0.329   9.595  0.1251  0.5097  0.5048
  255MOL0    Cl33572  13.758   0.331   9.415  0.4013 -0.8114 -0.3495
  255MOL0     C33573  13.284   1.090   9.289 -0.0511  0.0579 -0.5265
  255MOL0     C33574  13.151   1.092   9.262  0.7606  0.1916  0.1248
  255MOL0     O33575  12.932   0.864   9.351 -0.6338  0.5236  0.1247
  255MOL0     C33576  12.644   0.865   9.287  0.7757  0.5271  0.6678
  255MOL0     C33577  12.511   0.859   9.238  0.6788 -0.1852 -0.0126
  255MOL0     N33578  11.906   0.601   8.928  0.3452  0.7596 -0.4040
  255MOL0     N33579  11.804   0.527   8.917  0.2564  0.4447 -0.0762
  255MOL0     C33580  10.686   0.263   8.547  1.1828  0.5442 -0.5737
  255MOL0     C33581  10.620   0.346   8.454  0.2455  0.2408 -1.1294
  255MOL0     C33582  10.539   0.545   8.053 -0.1025 -0.6924  0.3170
  255MOL0     C33583  10.466   0.500   7.942  1.0708  0.0013  1.0920
  255MOL0     C33584  10.424   0.598   7.846  0.5467  0.0971  0.7179
  255MOL0     C33585  10.460   0.727   7.860 -1.3204 -0.6699 -0.1222
  255MOL0     O33586  10.420   0.818   7.769 -0.2208  0.1174  0.1994
  255MOL0     C33587  10.289   0.863   7.788 -0.5374  0.0288 -0.0044
  255MOL0     C33588  10.285   0.999   7.728 -1.1093 -1.1421  0.3890
  255MOL0     C33589  10.143   1.057   7.704  0.0187 -0.0352  0.7335
  255MOL0     C33590  10.133   1.158   7.591  0.0328  0.2130 -0.0916
  255MOL0     C33591  10.055   1.125   7.469  0.1365  1.0639  0.7472
  255MOL0     C33592   9.985   1.100   7.373 -0.3515 -0.4728 -0.0022
  255MOL0     C33593  10.539   0.773   7.971  0.5210  0.5977 -0.1529
  255MOL0     C33594  10.574   0.675   8.071  0.5296 -0.5015 -0.1463
  255MOL0     H33595  10.856   0.362   8.225 -0.3789  2.9108  0.9223
  255MOL0     H33596  10.960   0.166   8.367  0.4974 -1.3775  1.9144
  255MOL0     H33597  11.069   0.150   8.592  0.4076 -1.7087  0.5205
  255MOL0     H33598  11.020   0.033   8.713  0.4833 -0.5605  0.7901
  255MOL0     H33599  10.922   0.210   8.851  2.4005 -0.5844  0.5197
  255MOL0     H33600  10.939   0.334   8.724  0.9751  0.0269 -0.6173
  255MOL0     H33601  11.181   0.327   8.759  0.1457  2.0096  0.9685
  255MOL0     H33602  11.179   0.194   8.869  0.8858  0.4738 -3.2381
  255MOL0     H33603  11.075   0.487   8.888 -1.1776 -1.2161 -1.7181
  255MOL0     H33604  11.048   0.392   9.025  1.5390  2.4780  2.1502
  255MOL0     H33605  11.304   0.350   9.018 -0.9310 -2.0668 -4.9436
  255MOL0     H33606  11.252   0.522   9.065 -0.5442  1.7508 -1.5025
  255MOL0     H33607  11.296   0.558   8.806  1.6062  2.1535  1.8697
  255MOL0     H33608  11.359   0.395   8.814 -3.1065 -2.0409  1.8398
  255MOL0     H33609  11.488   0.622   8.991 -1.0745 -2.0887  2.5633
  255MOL0     H33610  11.509   0.459   8.998 -2.4734 -1.1025 -0.7314
  255MOL0     H33611  11.544   0.606   8.737 -3.1269 -0.6043  1.2309
  255MOL0     H33612  11.598   0.443   8.760 -0.8948  0.4333 -1.9662
  255MOL0     H33613  11.712   0.780   8.744  2.7634  1.2888  0.1946
  255MOL0     H33614  11.936   0.942   8.863 -0.5613  0.6529 -1.8539
  255MOL0     H33615  11.975   0.844   8.729 -1.7510  3.3709  0.3411
  255MOL0     H33616  12.203   0.898   8.852 -2.4671  4.3797  4.0602
  255MOL0     H33617  12.155   0.720   8.849  0.7873 -0.5275 -0.4708
  255MOL0     H33618  12.063   0.913   9.075  0.5122  1.6786 -0.9044
  255MOL0     H33619  12.080   0.735   9.077  2.8275 -0.0240  2.4835
  255MOL0     H33620  12.297   0.728   9.094  0.1475  0.1514 -1.5642
  255MOL0     H33621  12.245   0.836   9.215 -1.8073 -0.2138 -0.5564
  255MOL0     H33622  12.561   1.020   8.939 -1.1404  0.3846 -0.4101
  255MOL0     H33623  12.781   1.043   9.038 -1.2887  3.7495 -0.1623
  255MOL0     H33624  13.124   0.819   9.070  1.0562  1.2193 -0.1252
  255MOL0     H33625  13.360   0.821   9.095  0.0057 -0.1527  0.4943
  255MOL0     H33626  13.515   1.168   9.370 -2.3287 -1.0939 -1.1327
  255MOL0     H33627  13.662   1.072   9.345  0.0546 -0.1756 -0.9260
  255MOL0     H33628  13.427   0.937   9.498 -1.2348  3.0003 -3.0959
  255MOL0     H33629  13.541   1.066   9.575 -2.8062  1.2910 -0.0618
  255MOL0     H33630  13.724   0.920   9.488 -0.7906  1.7746 -3.7771
  255MOL0     H33631  13.605   0.807   9.430  0.9049  0.0015 -0.2197
  255MOL0     H33632  13.633   0.902   9.716  0.1406  0.1352 -0.4243
  255MOL0     H33633  13.499   0.785   9.669  0.5915 -2.4722 -0.0445
  255MOL0     H33634  13.706   0.689   9.793  4.9576 -0.7272  0.1104
  255MOL0     H33635  13.801   0.748   9.658 -1.2893  0.9258  0.5156
  255MOL0     H33636  13.720   0.589   9.508 -0.3065  1.2109 -0.0628
  255MOL0     H33637  13.577   0.563   9.610  0.0248  3.6838  0.6791
  255MOL0     H33638  13.869   0.503   9.676  0.5708  1.6186  2.8499
  255MOL0     H33639  13.741   0.447   9.771 -0.9994  1.3672 -0.2823
  255MOL0     H33640  13.652   0.287   9.609 -0.7005  1.7879 -1.1754
  255MOL0     H33641  13.822   0.255   9.637  0.0925 -0.5614 -1.1810
  255MOL0     H33642  13.318   1.174   9.348  0.4584 -1.2991  1.2114
  255MOL0     H33643  13.092   1.174   9.302 -1.5359 -0.4278 -1.7479
  255MOL0     H33644  12.664   0.835   9.390 -1.0520  0.9219  1.1765
  255MOL0     H33645  12.433   0.827   9.306  1.9282  0.9847  2.0911
  255MOL0     H33646  10.642   0.242   8.644 -2.3384  0.1406 -2.1281
  255MOL0     H33647  10.520   0.380   8.481  2.0318  3.7753  1.9893
  255MOL0     H33648  10.444   0.396   7.920  0.8480  0.7061 -2.7887
  255MOL0     H33649  10.362   0.573   7.761 -2.7077  2.8595  2.0394
  255MOL0     H33650  10.258   0.864   7.893 -1.3665 -0.1941 -0.2385
  255MOL0     H33651  10.226   0.795   7.730 -1.3805 -1.5768  2.6260
  255MOL0     H33652  10.345   1.058   7.797 -0.6008 -2.4095  1.0677
  255MOL0     H33653  10.334   0.993   7.630  0.2143 -1.3602  1.0491
  255MOL0     H33654  10.115   1.120   7.789 -2.8387  0.7434 -0.6526
  255MOL0     H33655  10.068   0.978   7.693 -0.6940  0.4934  1.6354
  255MOL0     H33656  10.086   1.249   7.628  3.1122  2.0014 -0.1855
  255MOL0     H33657  10.236   1.192   7.572  0.4740  0.1420  1.8795
  255MOL0     H33658   9.924   1.058   7.296 -0.5216  1.4711 -0.9979
  255MOL0     H33659  10.579   0.874   7.974  0.8814  0.5645 -2.4225
  255MOL0     H33660  10.628   0.704   8.161  0.0195 -3.0119  1.0665
  256MOL0     O33661   3.286   3.045   4.613 -0.9296 -0.0689 -0.4353
  256MOL0     C33662   3.281   3.165   4.612 -0.3246 -0.2786  0.3296
  256MOL0     O33663   3.187   3.239   4.547 -0.0292 -0.8158  0.2071
  256MOL0     C33664   3.077   3.193   4.480  0.6483  0.6726  0.5058
  256MOL0     C33665   3.082   3.103   4.377  0.6035  0.4473 -0.5757
  256MOL0     C33666   2.961   3.071   4.305 -0.1038  1.0441  0.2002
  256MOL0     C33667   2.829   3.117   4.333 -0.8448 -0.0168 -0.2618
  256MOL0     O33668   2.715   3.087   4.264  0.4742  0.1517 -0.2066
  256MOL0     C33669   2.708   3.135   4.135 -0.6726  0.1094  0.6849
  256MOL0     C33670   2.561   3.154   4.102  0.0328 -0.5605 -0.2804
  256MOL0     C33671   2.523   3.204   3.960  0.3016 -0.0200 -0.8316
  256MOL0     C33672   2.369   3.213   3.964  0.7521 -0.3497  1.0803
  256MOL0     C33673   2.328   3.325   4.061  0.8836  0.8943  0.4936
  256MOL0     C33674   2.210   3.400   4.003 -0.6522  0.0191 -0.7040
  256MOL0     C33675   2.267   3.525   3.939 -0.5049 -0.0429 -0.2809
  256MOL0     C33676   2.152   3.612   3.884  0.5533 -0.4287  0.7521
  256MOL0     N33677   2.127   3.588   3.739 -0.3142 -0.4395 -0.0799
  256MOL0     C33678   2.216   3.625   3.641 -0.7841 -0.4235  0.3705
  256MOL0     C33679   2.174   3.563   3.529  0.4230 -0.2709 -0.3980
  256MOL0     C33680   2.217   3.570   3.391  0.3516 -0.6486 -0.3379
  256MOL0     C33681   2.133   3.647   3.292  0.0357 -0.2678  0.6816
  256MOL0     C33682   1.999   3.568   3.253  0.7678 -0.4762 -0.1128
  256MOL0     C33683   1.920   3.634   3.125 -0.1491  0.6385 -0.2217
  256MOL0     O33684   1.915   3.780   3.131  0.1372 -0.3771 -0.0638
  256MOL0     C33685   1.829   3.853   3.221  0.2758 -0.6255  0.8156
  256MOL0     C33686   1.730   3.789   3.296  0.1552  0.4308 -0.0888
  256MOL0     C33687   1.656   3.844   3.395  0.7116 -0.1651 -0.9486
  256MOL0     C33688   1.661   3.983   3.425 -0.2433  0.5070  0.0751
  256MOL0     C33689   1.587   4.053   3.534 -0.6151  0.1477 -0.7419
  256MOL0     O33690   1.514   3.981   3.621 -0.0844 -0.9390 -0.6409
  256MOL0     C33691   1.399   4.046   3.679 -0.8669 -0.3617  0.4384
  256MOL0     C33692   1.348   3.976   3.781  0.8611  0.3023  0.3495
  256MOL0     C33693   1.216   3.994   3.820  0.3052 -0.3711 -1.0456
  256MOL0     C33694   1.154   4.118   3.785 -0.1123 -0.0335  0.3489
  256MOL0     O33695   1.044   4.165   3.846 -0.2054  0.3054 -0.5222
  256MOL0     C33696   1.034   4.186   3.996  0.6081  1.0775  0.2423
  256MOL0     C33697   1.148   4.272   4.056  0.5730 -0.3215 -0.2663
  256MOL0     C33698   1.138   4.420   4.018 -0.6182  0.7841  0.1617
  256MOL0     C33699   1.198   4.462   3.878  0.2400  0.4557  0.2794
  256MOL0     C33700   1.225   4.612   3.863  0.9838 -0.2472 -0.4799
  256MOL0     C33701   1.097   4.685   3.883  0.9989  0.2127 -0.0712
  256MOL0     C33702   1.015   4.678   3.749  0.3165 -0.4905 -0.9267
  256MOL0     C33703   0.918   4.793   3.759 -0.1056 -0.5540 -0.3349
  256MOL0    Cl33704   0.803   4.778   3.622 -0.1675  0.4093  0.2436
  256MOL0     C33705   1.217   4.197   3.684  0.4969  0.0611 -1.1253
  256MOL0     C33706   1.332   4.155   3.626 -0.0229 -1.4418 -0.2776
  256MOL0     O33707   1.612   4.173   3.541 -0.5396 -0.2027  1.0682
  256MOL0     C33708   1.752   4.052   3.343  0.4778 -0.3507 -0.7189
  256MOL0     C33709   1.832   3.993   3.246 -0.2811 -0.6118 -1.2867
  256MOL0     N33710   2.059   3.482   3.566 -0.0930 -0.2129  1.0989
  256MOL0     N33711   2.035   3.506   3.683  0.4512 -0.1830 -0.5777
  256MOL0     C33712   2.825   3.210   4.442 -0.7330  0.2485  0.4116
  256MOL0     C33713   2.949   3.250   4.507  1.0227 -0.3928  0.0406
  256MOL0     C33714   3.381   3.232   4.691  0.6725 -0.1667 -0.4584
  256MOL0     C33715   3.438   3.354   4.647 -0.2336  1.2418  0.0751
  256MOL0     C33716   3.546   3.416   4.726  1.0560 -0.2229 -0.1260
  256MOL0     C33717   3.578   3.355   4.847 -0.3517 -0.4283  0.0839
  256MOL0     O33718   3.657   3.427   4.931  0.1276  0.6941 -0.0512
  256MOL0     C33719   3.785   3.458   4.885 -0.9957  1.0108 -0.1817
  256MOL0     C33720   3.861   3.554   4.981 -0.5457  0.8015 -0.6520
  256MOL0     C33721   3.843   3.512   5.134 -0.7094  0.1710  1.0405
  256MOL0     C33722   3.915   3.601   5.235  0.1058 -0.3555  0.4411
  256MOL0     C33723   4.060   3.606   5.217  0.6615 -1.0442  0.5457
  256MOL0     C33724   4.176   3.631   5.189 -0.7366  1.2896  0.0161
  256MOL0     C33725   3.516   3.239   4.890 -0.4845 -0.5969 -0.2609
  256MOL0     C33726   3.416   3.179   4.814 -0.5618 -0.1467 -0.7124
  256MOL0     H33727   3.180   3.069   4.344  0.0940 -2.0266  0.3103
  256MOL0     H33728   2.971   3.003   4.221  0.0664  1.9537 -0.5302
  256MOL0     H33729   2.741   3.058   4.063 -1.2691 -2.0522  2.6001
  256MOL0     H33730   2.768   3.226   4.126  0.6198 -0.8113 -0.5569
  256MOL0     H33731   2.529   3.229   4.176  3.0277  0.2760  0.3019
  256MOL0     H33732   2.509   3.059   4.118 -1.9046  0.2572 -1.3943
  256MOL0     H33733   2.571   3.138   3.887 -0.0207  1.4267 -2.4269
  256MOL0     H33734   2.569   3.302   3.947 -1.7686  1.0351 -0.5552
  256MOL0     H33735   2.335   3.244   3.865  1.2505  0.9865  1.2978
  256MOL0     H33736   2.306   3.125   3.984 -1.9058  1.0386 -0.5745
  256MOL0     H33737   2.419   3.381   4.083  1.2968  1.7182 -2.7822
  256MOL0     H33738   2.285   3.292   4.157  0.1645  2.2449  0.6665
  256MOL0     H33739   2.138   3.429   4.079  2.0517  0.8639  1.6791
  256MOL0     H33740   2.144   3.340   3.939 -0.9020 -1.8290  1.1897
  256MOL0     H33741   2.313   3.587   4.017 -3.0677  2.6107 -0.6622
  256MOL0     H33742   2.348   3.507   3.868 -2.1609  1.0570 -2.6026
  256MOL0     H33743   2.182   3.717   3.880 -0.7128 -0.0181 -3.7082
  256MOL0     H33744   2.062   3.603   3.945 -1.7683  0.3149 -2.3070
  256MOL0     H33745   2.302   3.692   3.646 -1.4289  0.4905 -0.4812
  256MOL0     H33746   2.246   3.471   3.355  2.2411 -1.4385  2.9444
  256MOL0     H33747   2.315   3.619   3.387 -0.5062  1.1334 -0.4246
  256MOL0     H33748   2.198   3.674   3.208  1.2571 -1.0787  1.3298
  256MOL0     H33749   2.096   3.740   3.335 -2.2748 -1.0039  0.4413
  256MOL0     H33750   2.030   3.467   3.225  1.1389  0.2759 -2.6515
  256MOL0     H33751   1.923   3.566   3.332 -1.0604  3.3729 -1.5339
  256MOL0     H33752   1.825   3.585   3.099 -0.6566  2.4915 -2.1465
  256MOL0     H33753   1.976   3.616   3.033 -1.9925  0.8303 -1.4495
  256MOL0     H33754   1.714   3.683   3.279 -0.6839  0.7030 -1.1408
  256MOL0     H33755   1.591   3.777   3.450  0.0171  2.2089  1.3351
  256MOL0     H33756   1.400   3.889   3.821  1.4109  0.4565 -0.0201
  256MOL0     H33757   1.170   3.924   3.890  0.7776 -0.1367 -0.4940
  256MOL0     H33758   1.038   4.084   4.035  2.0840  0.1063 -2.2513
  256MOL0     H33759   0.939   4.230   4.027  1.6498  3.3191  0.4772
  256MOL0     H33760   1.246   4.226   4.038  0.4747 -1.1586  1.1585
  256MOL0     H33761   1.149   4.268   4.166  3.5648 -2.1291 -0.2518
  256MOL0     H33762   1.193   4.484   4.088  0.2175 -0.3184  0.5510
  256MOL0     H33763   1.034   4.450   4.030  0.1398  3.0967  1.7340
  256MOL0     H33764   1.289   4.405   3.858  1.2940  2.0418  0.3895
  256MOL0     H33765   1.127   4.419   3.807 -0.2785 -2.3298  2.3028
  256MOL0     H33766   1.264   4.628   3.762 -2.5673 -1.9047 -2.2891
  256MOL0     H33767   1.303   4.643   3.934  2.2034 -0.4202 -1.7030
  256MOL0     H33768   1.115   4.789   3.912 -2.1242  0.6201  0.8504
  256MOL0     H33769   1.024   4.651   3.957  0.0288  4.1501  1.0028
  256MOL0     H33770   1.075   4.696   3.660  0.8870 -0.3960 -0.5254
  256MOL0     H33771   0.966   4.581   3.738  1.9974 -1.2746 -1.7424
  256MOL0     H33772   0.974   4.887   3.750  1.9010 -1.8111 -1.5201
  256MOL0     H33773   0.869   4.806   3.856  0.3023  2.2080 -0.4008
  256MOL0     H33774   1.172   4.291   3.655  1.3129  0.8554  0.1117
  256MOL0     H33775   1.376   4.222   3.554 -2.4006  0.6958  0.1221
  256MOL0     H33776   1.765   4.159   3.352  0.2424 -0.3803  0.0763
  256MOL0     H33777   1.904   4.055   3.193  1.8562 -2.0703 -0.2651
  256MOL0     H33778   2.740   3.258   4.491 -0.0823  1.3545  0.4870
  256MOL0     H33779   2.940   3.323   4.587 -0.2033  1.4616 -1.7108
  256MOL0     H33780   3.417   3.399   4.550  2.0662 -0.1011 -1.1408
  256MOL0     H33781   3.598   3.504   4.691 -1.7103  0.6958 -2.2706
  256MOL0     H33782   3.775   3.507   4.788 -3.2415 -1.3308 -1.2713
  256MOL0     H33783   3.858   3.378   4.864 -2.7528 -0.2962 -1.6986
  256MOL0     H33784   3.968   3.545   4.963 -0.5638 -0.4232 -0.2273
  256MOL0     H33785   3.823   3.656   4.973  0.3542  1.3998  1.7439
  256MOL0     H33786   3.885   3.413   5.151  0.3682  0.3983 -0.0912
  256MOL0     H33787   3.738   3.514   5.163 -1.2239  1.9211 -0.7123
  256MOL0     H33788   3.865   3.698   5.241 -0.4972 -0.7124  1.4631
  256MOL0     H33789   3.885   3.556   5.330 -0.2175 -0.5847  0.2305
  256MOL0     H33790   4.273   3.649   5.147 -1.4421  0.9263 -1.8627
  256MOL0     H33791   3.541   3.188   4.983 -1.2962 -4.9239 -2.2050
  256MOL0     H33792   3.374   3.086   4.853 -0.2881  0.0052 -0.0403
  257MOL0     O33793   1.701   0.605   5.925  0.5851  0.1214  0.8934
  257MOL0     C33794   1.635   0.559   5.834 -0.2959 -1.2734  0.4414
  257MOL0     O33795   1.671   0.482   5.732 -0.5209 -0.3549 -0.1148
  257MOL0     C33796   1.804   0.459   5.721  0.8667  0.2290 -0.8125
  257MOL0     C33797   1.865   0.494   5.604 -0.5605 -0.1608  0.0514
  257MOL0     C33798   2.004   0.474   5.593 -0.1527 -0.1566 -0.3783
  257MOL0     C33799   2.068   0.405   5.694 -0.4155  0.0618 -0.4763
  257MOL0     O33800   2.201   0.392   5.706 -0.4533  0.8311 -0.3592
  257MOL0     C33801   2.274   0.358   5.579  0.0086 -0.0508 -0.4782
  257MOL0     C33802   2.414   0.314   5.606 -0.7080  0.0496 -0.0173
  257MOL0     C33803   2.406   0.184   5.682 -0.3201  0.8016 -0.2303
  257MOL0     C33804   2.544   0.120   5.651 -0.0010 -0.4797 -0.7083
  257MOL0     C33805   2.560  -0.025   5.718  0.9868  0.0236  0.7671
  257MOL0     C33806   2.693  -0.036   5.793  0.8653  0.0094  0.2251
  257MOL0     C33807   2.706   0.058   5.918  0.2820  0.2619 -0.2454
  257MOL0     C33808   2.830   0.033   6.004  0.8369  0.7357  0.2508
  257MOL0     N33809   2.954   0.051   5.931  0.1044 -0.2174  0.0708
  257MOL0     C33810   3.012   0.158   5.872  0.2483  1.0750  0.8239
  257MOL0     C33811   3.132   0.116   5.824 -0.3969  1.3774  1.1422
  257MOL0     C33812   3.226   0.207   5.758  0.8562  0.0115  0.4309
  257MOL0     C33813   3.293   0.309   5.845  0.2046 -0.7022  0.2379
  257MOL0     C33814   3.376   0.246   5.955 -1.0969 -0.3587  0.0145
  257MOL0     C33815   3.464   0.348   6.033 -0.3568  0.0755  0.6022
  257MOL0     O33816   3.378   0.426   6.121 -0.4028 -0.8631  0.5183
  257MOL0     C33817   3.445   0.522   6.185  0.0518  0.5943  0.4299
  257MOL0     C33818   3.500   0.630   6.119 -0.6835  0.4693 -0.1091
  257MOL0     C33819   3.559   0.734   6.187  0.1076 -0.5233 -0.4636
  257MOL0     C33820   3.557   0.733   6.326  0.0131 -0.2143 -0.8695
  257MOL0     C33821   3.637   0.837   6.404  0.3981 -0.1814  0.0330
  257MOL0     O33822   3.674   0.949   6.335  0.4975  0.2453  0.2466
  257MOL0     C33823   3.745   1.037   6.417  0.2345  0.1349  0.3569
  257MOL0     C33824   3.878   1.064   6.387  0.0602  0.2215 -0.5242
  257MOL0     C33825   3.956   1.160   6.466 -0.5727  0.3846 -0.3797
  257MOL0     C33826   3.888   1.232   6.568 -0.2654  0.0091  0.1747
  257MOL0     O33827   3.945   1.328   6.646 -0.1267  0.1750 -1.0356
  257MOL0     C33828   4.089   1.318   6.678  0.4933 -0.6719 -0.2205
  257MOL0     C33829   4.119   1.423   6.786  0.2717  0.1014  0.4767
  257MOL0     C33830   4.080   1.376   6.920  0.5410  0.4016  0.6102
  257MOL0     C33831   4.096   1.487   7.029  0.0292 -0.5190 -0.2334
  257MOL0     C33832   4.027   1.474   7.164 -0.0509  0.2914  0.1405
  257MOL0     C33833   4.054   1.589   7.262 -0.9373  0.2531  0.0918
  257MOL0     C33834   4.000   1.555   7.409 -0.1860 -0.8167 -0.8408
  257MOL0     C33835   4.101   1.460   7.478 -0.4714 -1.1324  0.6315
  257MOL0    Cl33836   4.231   1.564   7.553  0.0567 -0.1758  0.3864
  257MOL0     C33837   3.752   1.212   6.594  0.8804  0.5005 -0.4692
  257MOL0     C33838   3.684   1.117   6.512  0.3359  0.0272  0.2953
  257MOL0     O33839   3.651   0.816   6.528 -0.4006  0.6930 -0.2976
  257MOL0     C33840   3.490   0.627   6.395 -0.0847  0.4939  0.8647
  257MOL0     C33841   3.439   0.524   6.325  0.3794 -0.2714  0.2652
  257MOL0     N33842   3.141  -0.024   5.836 -0.0514 -0.2481  0.3196
  257MOL0     N33843   3.037  -0.056   5.918 -0.3203  0.3515  0.6498
  257MOL0     C33844   2.009   0.365   5.810  0.1657 -0.9388  0.8430
  257MOL0     C33845   1.873   0.388   5.822 -0.9941 -0.0701 -0.0286
  257MOL0     C33846   1.491   0.598   5.844  0.0290  0.3689  0.1934
  257MOL0     C33847   1.397   0.542   5.751 -0.3142 -0.4444 -0.8945
  257MOL0     C33848   1.258   0.563   5.761 -0.0136  0.0599  0.6494
  257MOL0     C33849   1.219   0.641   5.874  0.5619 -0.7043 -0.3962
  257MOL0     O33850   1.087   0.656   5.891 -0.2819 -0.7531 -0.3309
  257MOL0     C33851   1.039   0.789   5.861  0.3102  0.6584 -0.2524
  257MOL0     C33852   0.892   0.781   5.800 -0.9146  0.4163 -1.0552
  257MOL0     C33853   0.843   0.643   5.735 -0.1054  0.1686  0.9534
  257MOL0     C33854   0.707   0.661   5.679  0.2770 -0.7605 -0.5196
  257MOL0     C33855   0.710   0.692   5.536 -0.4066  0.5756 -0.1671
  257MOL0     C33856   0.706   0.715   5.417 -0.3534  0.2893  0.6825
  257MOL0     C33857   1.316   0.710   5.949  0.5558  0.0033 -0.6872
  257MOL0     C33858   1.449   0.692   5.940 -0.1669 -0.2809 -0.3016
  257MOL0     H33859   1.807   0.546   5.528 -0.8904  0.2303  0.5641
  257MOL0     H33860   2.050   0.520   5.506  0.2320  1.3039  0.5610
  257MOL0     H33861   2.272   0.453   5.524 -0.8464  0.6962  0.7799
  257MOL0     H33862   2.235   0.272   5.524  0.0201 -2.1399  2.5449
  257MOL0     H33863   2.482   0.383   5.656 -2.8140  0.9482  1.7784
  257MOL0     H33864   2.460   0.301   5.508 -2.5291  0.7824 -1.0239
  257MOL0     H33865   2.321   0.122   5.653  0.2941  0.7470 -2.0346
  257MOL0     H33866   2.386   0.205   5.788 -3.9340 -0.2777 -0.5687
  257MOL0     H33867   2.568   0.113   5.544 -0.1269  1.7873 -0.9387
  257MOL0     H33868   2.622   0.183   5.692  0.8025 -1.5806 -0.5092
  257MOL0     H33869   2.554  -0.104   5.643 -2.4262  0.1994  0.7062
  257MOL0     H33870   2.479  -0.036   5.791  1.3830 -0.5860  1.1265
  257MOL0     H33871   2.773  -0.010   5.723  1.7927 -2.5342  0.2209
  257MOL0     H33872   2.711  -0.139   5.826  1.0636  0.2258  0.7896
  257MOL0     H33873   2.709   0.162   5.884 -0.7892 -0.1067 -1.5528
  257MOL0     H33874   2.624   0.049   5.989  0.0121  3.8777  0.0720
  257MOL0     H33875   2.818  -0.072   6.032 -3.2645  0.4266 -1.8542
  257MOL0     H33876   2.826   0.090   6.098  1.6716  2.4480 -0.7064
  257MOL0     H33877   2.972   0.259   5.865  2.2031  2.1084  3.0880
  257MOL0     H33878   3.186   0.249   5.665  3.6683  0.9326 -0.4457
  257MOL0     H33879   3.309   0.147   5.720  0.1751  0.6862 -2.3622
  257MOL0     H33880   3.218   0.373   5.891  2.6988  0.6339  2.7951
  257MOL0     H33881   3.357   0.381   5.793 -1.2400  0.2017 -0.3139
  257MOL0     H33882   3.300   0.209   6.024  1.0304 -0.6701  2.3197
  257MOL0     H33883   3.420   0.151   5.926 -1.1426 -0.7549  1.2043
  257MOL0     H33884   3.519   0.399   5.953  0.6822  1.2984  2.0513
  257MOL0     H33885   3.539   0.303   6.098  2.0751 -0.1072 -2.1323
  257MOL0     H33886   3.506   0.627   6.011 -2.5059 -0.3526 -0.2227
  257MOL0     H33887   3.623   0.795   6.124 -0.2564 -0.3002 -0.6190
  257MOL0     H33888   3.923   1.015   6.301 -0.2603 -0.2752 -0.4160
  257MOL0     H33889   4.061   1.175   6.445 -0.3431 -0.7275 -0.1236
  257MOL0     H33890   4.146   1.353   6.592  3.8255 -1.1353  1.6346
  257MOL0     H33891   4.111   1.214   6.703 -1.7385 -1.7630 -2.4229
  257MOL0     H33892   4.068   1.514   6.753 -3.2597 -1.3173  1.5726
  257MOL0     H33893   4.227   1.421   6.802  0.0078 -2.4900  2.5543
  257MOL0     H33894   4.134   1.285   6.948  2.3287  0.9402 -0.8735
  257MOL0     H33895   3.979   1.335   6.920  1.6711 -2.7453  2.5026
  257MOL0     H33896   4.205   1.486   7.038 -0.0402 -2.9529  1.3700
  257MOL0     H33897   4.065   1.581   6.984  0.7718  0.4619  1.2263
  257MOL0     H33898   4.065   1.379   7.203  2.0938 -0.2141 -2.8373
  257MOL0     H33899   3.918   1.470   7.151  0.1583 -2.8904 -1.7284
  257MOL0     H33900   4.010   1.680   7.220  0.9511  0.1690 -2.2905
  257MOL0     H33901   4.160   1.612   7.272 -1.3924  2.2070  0.8540
  257MOL0     H33902   3.982   1.645   7.469 -0.4761 -1.7911  0.5839
  257MOL0     H33903   3.904   1.502   7.407 -1.2563  1.0282 -0.7293
  257MOL0     H33904   4.145   1.394   7.403  1.3760  2.0061 -1.2589
  257MOL0     H33905   4.047   1.399   7.552 -1.1532 -3.6961 -1.7648
  257MOL0     H33906   3.710   1.269   6.676  0.7218  3.3859 -2.4303
  257MOL0     H33907   3.582   1.097   6.542  1.2166 -1.0451  2.8507
  257MOL0     H33908   3.490   0.626   6.504  1.1037 -3.9605  1.0161
  257MOL0     H33909   3.382   0.461   6.392 -1.2248  0.4272 -0.4071
  257MOL0     H33910   2.073   0.318   5.884  4.2253  1.2268 -0.9629
  257MOL0     H33911   1.814   0.355   5.906 -0.6361 -0.5227  0.0496
  257MOL0     H33912   1.424   0.478   5.667 -0.0376 -0.7597 -0.5730
  257MOL0     H33913   1.195   0.513   5.688  1.7838  1.6027 -2.1406
  257MOL0     H33914   1.098   0.837   5.781 -0.0722 -0.5089 -1.2633
  257MOL0     H33915   1.042   0.854   5.949  1.4832  0.9125 -0.4600
  257MOL0     H33916   0.823   0.812   5.878  0.8420  2.3858 -0.1814
  257MOL0     H33917   0.875   0.858   5.724  0.3760  0.4297 -1.3545
  257MOL0     H33918   0.843   0.570   5.817  5.6871 -0.7699  0.5388
  257MOL0     H33919   0.921   0.605   5.668 -0.7653  2.6155 -1.3717
  257MOL0     H33920   0.651   0.575   5.716 -1.1901  1.7261  3.8216
  257MOL0     H33921   0.657   0.746   5.727 -0.8426 -0.2503 -2.4704
  257MOL0     H33922   0.699   0.742   5.314 -1.6877 -2.8320 -0.1744
  257MOL0     H33923   1.276   0.786   6.016 -0.4620  0.2845 -1.5767
  257MOL0     H33924   1.512   0.749   6.008  2.3048 -0.5686 -2.1965
  258MOL0     O33925   1.028   4.207   9.612  0.2318  0.4092  0.3509
  258MOL0     C33926   0.960   4.288   9.547  0.9140  0.4941 -0.3427
  258MOL0     O33927   1.001   4.389   9.471  0.3076  0.2358 -0.5643
  258MOL0     C33928   1.132   4.430   9.455  0.8193  0.6440  0.0944
  258MOL0     C33929   1.211   4.439   9.573 -0.0507 -0.2522 -0.7067
  258MOL0     C33930   1.336   4.502   9.577  0.0997 -0.2218 -0.6458
  258MOL0     C33931   1.391   4.539   9.449 -0.1519  0.2471 -0.8948
  258MOL0     O33932   1.508   4.611   9.434 -0.5519  0.6154  0.2224
  258MOL0     C33933   1.583   4.650   9.551  0.3805 -0.6475 -1.1346
  258MOL0     C33934   1.700   4.732   9.528  0.1060  1.3308  0.1272
  258MOL0     C33935   1.706   4.823   9.402  1.2356 -0.9017 -0.6066
  258MOL0     C33936   1.826   4.918   9.407 -0.9151  0.8329  1.0242
  258MOL0     C33937   1.829   4.999   9.275 -0.2530 -0.8220  0.8578
  258MOL0     C33938   1.957   5.085   9.262  0.6297 -0.4210 -0.0715
  258MOL0     C33939   1.967   5.161   9.137  0.9620  0.4543  0.5419
  258MOL0     C33940   2.107   5.210   9.087  0.2599 -0.5566 -0.0827
  258MOL0     N33941   2.148   5.325   9.171 -0.2692  0.4912 -0.4619
  258MOL0     C33942   2.225   5.294   9.277  0.2907 -0.3482 -0.5061
  258MOL0     C33943   2.277   5.415   9.308 -1.1985 -1.6703  0.4067
  258MOL0     C33944   2.378   5.441   9.418 -0.6202  0.2493 -0.2699
  258MOL0     C33945   2.334   5.417   9.558  0.9388  0.6517  0.1158
  258MOL0     C33946   2.224   5.513   9.612  0.5453 -0.5631  0.0413
  258MOL0     C33947   2.084   5.464   9.591  0.0236  0.7970  0.6256
  258MOL0     O33948   2.059   5.349   9.669 -0.0038 -0.5979  0.2585
  258MOL0     C33949   1.931   5.299   9.677 -0.2427  0.7373  0.7253
  258MOL0     C33950   1.827   5.330   9.600  0.7112  0.2535  0.3135
  258MOL0     C33951   1.701   5.265   9.598  0.4137  0.3439  0.1040
  258MOL0     C33952   1.685   5.160   9.688  0.4851  0.6915 -0.4521
  258MOL0     C33953   1.555   5.090   9.708 -0.5338 -0.9740 -0.1585
  258MOL0     O33954   1.457   5.101   9.605  0.2993  0.0358  0.1731
  258MOL0     C33955   1.332   5.044   9.629  0.4172  0.5705 -0.5200
  258MOL0     C33956   1.300   4.945   9.548 -0.2255  0.0729 -0.1342
  258MOL0     C33957   1.185   4.872   9.559 -0.4918 -0.0808  0.2096
  258MOL0     C33958   1.103   4.889   9.672  0.0866  0.7459  0.6675
  258MOL0     O33959   0.984   4.831   9.701  0.3763  0.0855 -0.0330
  258MOL0     C33960   0.969   4.688   9.677  0.0030 -0.2045 -0.1221
  258MOL0     C33961   0.852   4.627   9.758  0.0059  0.0800 -0.0253
  258MOL0     C33962   0.730   4.710   9.751  1.1435  1.0909 -0.1342
  258MOL0     C33963   0.607   4.635   9.816  0.3263 -0.5777 -0.4630
  258MOL0     C33964   0.613   4.595   9.968 -0.2190  0.2121  0.6317
  258MOL0     C33965   0.634   4.704  10.075 -0.4169 -0.7120  0.0926
  258MOL0     C33966   0.658   4.645  10.216 -0.0872  0.0192  0.1731
  258MOL0     C33967   0.797   4.578  10.218  0.2757 -0.7613  1.0201
  258MOL0    Cl33968   0.857   4.585  10.382  0.1741  0.4483  0.2315
  258MOL0     C33969   1.147   4.982   9.764 -0.1845  0.4015  0.9903
  258MOL0     C33970   1.258   5.054   9.746 -0.5391 -0.1232 -0.0574
  258MOL0     O33971   1.541   5.030   9.812 -0.6554 -0.6791 -0.2948
  258MOL0     C33972   1.789   5.125   9.772  0.0735 -0.2051  0.3935
  258MOL0     C33973   1.911   5.199   9.765  0.6818 -0.4261 -0.2090
  258MOL0     N33974   2.219   5.511   9.229 -0.5225 -0.5103  0.5044
  258MOL0     N33975   2.151   5.457   9.134 -0.2670  0.0384  0.5007
  258MOL0     C33976   1.301   4.539   9.339  0.0319  0.9081 -0.5233
  258MOL0     C33977   1.175   4.491   9.342  0.2951  0.4387  0.3999
  258MOL0     C33978   0.811   4.260   9.562 -0.7218  0.6005 -0.0832
  258MOL0     C33979   0.727   4.358   9.540  0.1080  0.4071  0.4160
  258MOL0     C33980   0.592   4.341   9.554  0.5554  0.4026 -0.1184
  258MOL0     C33981   0.538   4.228   9.628  0.2779  0.1656 -0.1808
  258MOL0     O33982   0.401   4.222   9.639 -0.0048  0.0424 -0.3989
  258MOL0     C33983   0.344   4.090   9.657 -0.2669 -0.6947 -0.1747
  258MOL0     C33984   0.200   4.097   9.698  0.9300 -0.4390 -0.3960
  258MOL0     C33985   0.155   3.960   9.730  0.9922  0.4873 -0.5249
  258MOL0     C33986   0.002   3.959   9.710 -0.6525 -0.3540 -0.2839
  258MOL0     C33987  -0.038   3.963   9.567 -0.7142  0.0717  0.3370
  258MOL0     C33988  -0.070   3.961   9.449  0.4072  0.9949 -0.7116
  258MOL0     C33989   0.628   4.123   9.662 -0.0156 -0.4781 -0.7778
  258MOL0     C33990   0.760   4.136   9.610 -0.1399 -0.8495 -0.3485
  258MOL0     H33991   1.183   4.408   9.674  0.4629 -0.9670 -0.7699
  258MOL0     H33992   1.391   4.516   9.669  2.0005  1.1478 -1.8995
  258MOL0     H33993   1.610   4.566   9.616  0.1106  0.6630  0.7724
  258MOL0     H33994   1.511   4.697   9.618  1.9667 -0.6133  0.6239
  258MOL0     H33995   1.792   4.674   9.513 -0.8533 -0.0151 -0.7239
  258MOL0     H33996   1.710   4.793   9.618 -1.3687  1.7024  0.0630
  258MOL0     H33997   1.618   4.884   9.382  2.8238  0.8903 -2.5609
  258MOL0     H33998   1.714   4.747   9.324  1.3337 -0.6597 -0.8348
  258MOL0     H33999   1.803   4.989   9.487 -1.8798  1.3449  0.3154
  258MOL0     H34000   1.920   4.863   9.418 -2.5578 -2.4229  0.1769
  258MOL0     H34001   1.737   5.058   9.270  0.6076  0.4562 -0.9016
  258MOL0     H34002   1.823   4.940   9.184  0.5437  1.0579 -0.4771
  258MOL0     H34003   2.045   5.020   9.269  1.5784  0.9583  2.8234
  258MOL0     H34004   1.971   5.154   9.346  2.4365 -1.6744  0.7208
  258MOL0     H34005   1.929   5.098   9.056 -0.7673  1.2675  0.6823
  258MOL0     H34006   1.890   5.238   9.137  0.1016 -0.3509  2.1430
  258MOL0     H34007   2.102   5.239   8.982 -2.4091 -1.3433 -0.2545
  258MOL0     H34008   2.171   5.122   9.101 -1.3275 -1.4138  2.4495
  258MOL0     H34009   2.255   5.198   9.319 -1.1515 -1.4348 -1.8488
  258MOL0     H34010   2.398   5.548   9.409  0.1704  0.1855  0.6220
  258MOL0     H34011   2.468   5.380   9.402 -0.8592  0.5326 -3.3952
  258MOL0     H34012   2.425   5.433   9.618 -0.2512 -0.8481  2.4365
  258MOL0     H34013   2.314   5.311   9.573  0.7409  1.0253  2.9821
  258MOL0     H34014   2.246   5.523   9.719  0.9764  1.4618 -0.1940
  258MOL0     H34015   2.236   5.615   9.573  0.7068 -1.0657 -1.2556
  258MOL0     H34016   2.065   5.443   9.485  1.2231 -2.5986  0.9449
  258MOL0     H34017   2.008   5.537   9.618 -0.1659  0.9259 -0.2325
  258MOL0     H34018   1.841   5.410   9.528  1.7748  1.0342  1.3533
  258MOL0     H34019   1.629   5.299   9.525 -0.5754  0.8908  1.3026
  258MOL0     H34020   1.366   4.916   9.468 -0.3495  0.1366 -0.2607
  258MOL0     H34021   1.155   4.808   9.476 -1.8535  0.9203 -0.1020
  258MOL0     H34022   1.067   4.654   9.713  0.4255  2.5090  1.5497
  258MOL0     H34023   0.949   4.660   9.573 -0.8509 -0.3930  0.0851
  258MOL0     H34024   0.891   4.612   9.859  0.4837  0.3921 -0.1562
  258MOL0     H34025   0.822   4.529   9.720 -1.8016  0.2053  0.9899
  258MOL0     H34026   0.727   4.730   9.644  0.4725 -2.9404 -1.0336
  258MOL0     H34027   0.748   4.797   9.814  0.6111 -2.0130  4.8867
  258MOL0     H34028   0.520   4.702   9.812  2.1696  1.9727  0.0327
  258MOL0     H34029   0.582   4.545   9.759  0.0062 -0.8913  0.1540
  258MOL0     H34030   0.684   4.513   9.978 -1.0218 -0.8160 -1.5025
  258MOL0     H34031   0.515   4.547   9.979  0.1930 -0.2998  2.4626
  258MOL0     H34032   0.551   4.775  10.074  1.2193  1.2888  0.2725
  258MOL0     H34033   0.722   4.768  10.063 -0.3149 -0.9542 -0.4774
  258MOL0     H34034   0.653   4.718  10.296  2.3653 -2.2965  2.6668
  258MOL0     H34035   0.571   4.580  10.230  1.0900 -1.9232 -1.0035
  258MOL0     H34036   0.862   4.625  10.144  1.9805 -2.6503  1.2358
  258MOL0     H34037   0.774   4.481  10.175 -1.9933  1.7982 -4.3651
  258MOL0     H34038   1.085   4.990   9.853 -2.4062  0.3667 -0.4899
  258MOL0     H34039   1.294   5.117   9.826  2.8494  1.1796 -2.3660
  258MOL0     H34040   1.777   5.051   9.850  1.6796  0.8365  1.7049
  258MOL0     H34041   1.984   5.179   9.843 -1.8062  0.2269  2.4558
  258MOL0     H34042   1.329   4.579   9.242 -1.2266 -0.7414 -1.6179
  258MOL0     H34043   1.110   4.481   9.255  2.0174 -1.6154 -0.7669
  258MOL0     H34044   0.763   4.452   9.500 -2.2956 -0.1978 -3.7787
  258MOL0     H34045   0.521   4.417   9.524 -1.5296 -1.3911  0.0169
  258MOL0     H34046   0.379   4.036   9.745 -1.4832 -1.0448  0.1016
  258MOL0     H34047   0.360   4.033   9.565  2.1115  1.3217 -1.1537
  258MOL0     H34048   0.185   4.165   9.782  3.4426 -1.5930  1.1142
  258MOL0     H34049   0.140   4.133   9.614  2.1909  2.3694 -0.2153
  258MOL0     H34050   0.156   3.933   9.836  1.9220  4.1160  0.5213
  258MOL0     H34051   0.207   3.881   9.675  0.5641  0.0147 -0.2584
  258MOL0     H34052  -0.039   3.866   9.751 -1.5454  0.3721  0.5299
  258MOL0     H34053  -0.033   4.049   9.760 -2.7802 -0.6498 -1.1306
  258MOL0     H34054  -0.079   3.964   9.342  0.3668 -2.2286 -0.8913
  258MOL0     H34055   0.599   4.037   9.722  2.3176 -0.9693 -0.2201
  258MOL0     H34056   0.825   4.050   9.617 -0.0418 -1.2132 -4.0331
  259MOL0     O34057   5.933  10.670   2.025  0.3466  0.0978  0.4498
  259MOL0     C34058   5.864  10.578   2.074 -0.0789  0.8655 -0.4936
  259MOL0     O34059   5.733  10.574   2.115  0.0486  1.0989  0.2625
  259MOL0     C34060   5.670  10.695   2.127  0.3960 -0.2402  1.2273
  259MOL0     C34061   5.541  10.691   2.083 -0.0419 -0.3871 -0.3632
  259MOL0     C34062   5.457  10.801   2.091  0.4492 -0.2548 -1.2186
  259MOL0     C34063   5.489  10.914   2.166 -0.2931 -0.1388  0.3554
  259MOL0     O34064   5.414  11.027   2.184  0.3942  0.2279  0.4289
  259MOL0     C34065   5.295  11.043   2.102 -0.0725 -0.8843  0.8117
  259MOL0     C34066   5.164  11.000   2.174 -0.4472 -0.4099 -0.4986
  259MOL0     C34067   5.028  11.013   2.106 -0.0631  1.0556  0.8880
  259MOL0     C34068   5.032  10.913   1.983 -0.2059 -0.0589  0.1178
  259MOL0     C34069   4.915  10.956   1.896 -0.1145 -0.4364 -0.9878
  259MOL0     C34070   4.777  10.974   1.965  0.2855  0.2956  0.4013
  259MOL0     C34071   4.729  10.854   2.064 -0.2270  0.1100 -0.7024
  259MOL0     C34072   4.702  10.723   2.000  0.4485  0.0824 -0.0035
  259MOL0     N34073   4.585  10.706   1.912  0.2615 -0.3363 -0.0345
  259MOL0     C34074   4.572  10.718   1.779 -0.1950 -0.7777 -0.1623
  259MOL0     C34075   4.455  10.674   1.739  0.9228  0.9641 -0.2630
  259MOL0     C34076   4.418  10.659   1.596 -0.8550  0.6339 -1.4040
  259MOL0     C34077   4.278  10.682   1.565  0.0534 -1.2178  0.0606
  259MOL0     C34078   4.257  10.675   1.419  0.3918  0.2365 -1.0668
  259MOL0     C34079   4.107  10.723   1.390 -0.9732 -0.3070 -0.1611
  259MOL0     O34080   4.101  10.866   1.384 -0.6059  0.5912  0.2655
  259MOL0     C34081   3.983  10.932   1.365  0.6379  0.4745 -0.0937
  259MOL0     C34082   3.864  10.866   1.336  0.5860  0.3311  0.5359
  259MOL0     C34083   3.745  10.932   1.340  0.7009  0.3730 -0.0961
  259MOL0     C34084   3.739  11.069   1.347 -0.3530  0.3624  0.2091
  259MOL0     C34085   3.610  11.132   1.327  0.1428 -0.0309 -1.1715
  259MOL0     O34086   3.495  11.065   1.300  0.2847 -0.1920 -0.5186
  259MOL0     C34087   3.401  11.123   1.214  1.1447  0.8178  0.2392
  259MOL0     C34088   3.421  11.167   1.085 -0.2969 -0.0188 -0.4060
  259MOL0     C34089   3.314  11.231   1.024 -0.6564 -1.2431  0.0705
  259MOL0     C34090   3.202  11.268   1.095  0.6899 -0.0347 -0.4752
  259MOL0     O34091   3.099  11.329   1.027 -0.4638 -0.1209 -0.0026
  259MOL0     C34092   3.022  11.250   0.938  0.4030  0.8073  0.3865
  259MOL0     C34093   2.902  11.327   0.885 -0.1584 -0.2832 -1.0286
  259MOL0     C34094   2.816  11.245   0.796 -0.7253  0.1564 -0.4573
  259MOL0     C34095   2.724  11.328   0.716  0.4996 -0.4297 -0.0725
  259MOL0     C34096   2.631  11.249   0.619 -0.1171 -0.8118  0.0663
  259MOL0     C34097   2.579  11.117   0.673  0.3199  0.6622 -0.8197
  259MOL0     C34098   2.463  11.054   0.594 -0.5552 -0.6242  0.1252
  259MOL0     C34099   2.437  10.912   0.647 -0.8238  0.4195  0.3680
  259MOL0    Cl34100   2.407  10.911   0.819 -0.0953 -0.0012 -0.0182
  259MOL0     C34101   3.190  11.242   1.224  0.1399  0.1654  0.1428
  259MOL0     C34102   3.287  11.170   1.291 -1.3416  1.2421  0.4402
  259MOL0     O34103   3.612  11.259   1.343 -0.4511  0.1240  1.2371
  259MOL0     C34104   3.853  11.138   1.358  0.6548 -0.3754  0.1902
  259MOL0     C34105   3.980  11.070   1.367  0.0945 -0.1406 -0.3109
  259MOL0     N34106   4.396  10.624   1.852 -0.2203  0.1720  0.1554
  259MOL0     N34107   4.467  10.658   1.959 -0.1662  0.2374 -0.1468
  259MOL0     C34108   5.628  10.910   2.213  0.1068  0.5574  0.4853
  259MOL0     C34109   5.717  10.812   2.184  0.3941  0.6743  0.8358
  259MOL0     C34110   5.936  10.449   2.092  0.0391 -0.3770 -0.5031
  259MOL0     C34111   6.048  10.424   2.020 -1.1449 -0.1356  0.9408
  259MOL0     C34112   6.130  10.313   2.046  0.0699 -0.1082 -0.7219
  259MOL0     C34113   6.086  10.214   2.145  0.1457 -0.4606 -0.8265
  259MOL0     O34114   6.167  10.114   2.170  0.4330  0.5716  0.0081
  259MOL0     C34115   6.116   9.999   2.246  0.2050 -0.7458  0.5900
  259MOL0     C34116   6.148  10.028   2.384 -0.0332  0.5431 -0.2914
  259MOL0     C34117   6.131   9.897   2.474  0.7389 -0.2388  1.5024
  259MOL0     C34118   6.233   9.784   2.469  0.5723 -0.6305  0.4182
  259MOL0     C34119   6.371   9.832   2.501  0.2699  0.0372  0.3985
  259MOL0     C34120   6.482   9.879   2.526 -0.5895  0.5976  0.0478
  259MOL0     C34121   5.956  10.233   2.203 -0.8829 -0.3336 -0.4101
  259MOL0     C34122   5.885  10.348   2.175 -0.2414 -0.2487  1.1259
  259MOL0     H34123   5.499  10.600   2.043  1.8808 -2.4542  1.9937
  259MOL0     H34124   5.357  10.780   2.053 -0.2429 -0.5415  0.6541
  259MOL0     H34125   5.295  10.996   2.003 -1.6930  1.9052 -0.6146
  259MOL0     H34126   5.294  11.151   2.085  1.5786 -1.1918 -1.9360
  259MOL0     H34127   5.170  11.063   2.263  2.6713 -0.6385 -0.4311
  259MOL0     H34128   5.181  10.902   2.220 -0.9077  0.0342  0.6654
  259MOL0     H34129   5.015  11.115   2.068 -0.1647  0.4945 -0.6468
  259MOL0     H34130   4.946  10.988   2.174  2.6191 -0.6029  3.7963
  259MOL0     H34131   5.121  10.932   1.923  1.6252  1.4878  3.1267
  259MOL0     H34132   5.027  10.807   2.012  1.6435 -0.3863 -0.6159
  259MOL0     H34133   4.908  10.882   1.815 -0.2067 -0.2801 -1.1218
  259MOL0     H34134   4.936  11.052   1.848 -0.5595  2.5601  4.1316
  259MOL0     H34135   4.716  10.987   1.876  1.0224 -2.0831 -0.5138
  259MOL0     H34136   4.775  11.065   2.025  1.6162  0.0811  0.8150
  259MOL0     H34137   4.799  10.832   2.146 -0.9403 -1.3644 -0.4625
  259MOL0     H34138   4.635  10.870   2.118 -0.1344  0.1664 -0.5545
  259MOL0     H34139   4.675  10.657   2.082 -1.0846  1.2234  0.4524
  259MOL0     H34140   4.795  10.681   1.960  0.4215  0.9542 -1.0479
  259MOL0     H34141   4.649  10.758   1.714 -0.5843 -0.1719 -0.2586
  259MOL0     H34142   4.448  10.557   1.573 -2.4460 -1.0471  2.8580
  259MOL0     H34143   4.481  10.723   1.533  1.9932 -0.7661 -0.1485
  259MOL0     H34144   4.259  10.788   1.586  3.9645 -0.1507 -1.0484
  259MOL0     H34145   4.208  10.616   1.618  0.5632 -1.7141  0.1242
  259MOL0     H34146   4.327  10.737   1.361  3.6994 -1.9949  0.2100
  259MOL0     H34147   4.277  10.570   1.396  0.0767 -0.0192 -0.1917
  259MOL0     H34148   4.031  10.684   1.458 -2.7807 -1.9621 -2.9520
  259MOL0     H34149   4.085  10.692   1.288 -0.5223  1.4256 -0.8234
  259MOL0     H34150   3.862  10.758   1.334  2.3307  0.2814 -0.6783
  259MOL0     H34151   3.650  10.879   1.334  0.8143  0.2590 -1.1074
  259MOL0     H34152   3.510  11.148   1.027  1.3712  3.3440  0.7906
  259MOL0     H34153   3.303  11.257   0.919  2.1057  0.2319  0.0406
  259MOL0     H34154   2.997  11.153   0.983 -0.3793  0.7465 -0.1592
  259MOL0     H34155   3.087  11.220   0.855  0.6277 -3.4362  1.8632
  259MOL0     H34156   2.947  11.414   0.837  0.8738 -0.0507  0.3234
  259MOL0     H34157   2.837  11.368   0.962  1.3446 -1.1408  0.7716
  259MOL0     H34158   2.762  11.177   0.862  0.6804 -1.4404 -0.8816
  259MOL0     H34159   2.876  11.194   0.720  0.8692  1.0277  0.1712
  259MOL0     H34160   2.669  11.391   0.787 -2.0733 -2.8169  0.2227
  259MOL0     H34161   2.784  11.392   0.651 -2.2033  1.4034 -0.9342
  259MOL0     H34162   2.692  11.211   0.536  0.1022 -2.6629  1.0208
  259MOL0     H34163   2.561  11.318   0.571  1.1344 -0.3028 -1.1148
  259MOL0     H34164   2.533  11.146   0.768 -1.7413 -2.7936 -0.6231
  259MOL0     H34165   2.661  11.045   0.684  0.4563  0.6630 -1.7823
  259MOL0     H34166   2.369  11.103   0.569 -1.3794 -2.5098 -0.6843
  259MOL0     H34167   2.501  11.044   0.492 -1.4802  3.4464 -0.8065
  259MOL0     H34168   2.522  10.844   0.636 -1.6029 -0.5711  0.4177
  259MOL0     H34169   2.366  10.863   0.581 -0.7918  1.6713 -0.6360
  259MOL0     H34170   3.113  11.282   1.290  1.4798 -0.5217  2.2208
  259MOL0     H34171   3.290  11.152   1.398  3.8596 -2.8059  0.0557
  259MOL0     H34172   3.849  11.246   1.349 -1.0451 -0.4145  0.1671
  259MOL0     H34173   4.073  11.125   1.381  0.1498 -0.2075 -0.4196
  259MOL0     H34174   5.661  10.982   2.287  1.3869  0.7567 -0.2561
  259MOL0     H34175   5.819  10.815   2.221  0.5638 -1.6883  0.7518
  259MOL0     H34176   6.084  10.500   1.951 -0.0190 -2.4108 -1.1699
  259MOL0     H34177   6.226  10.308   1.997  0.9185  0.7388  0.7945
  259MOL0     H34178   6.167   9.912   2.204  1.8676  0.6231 -0.3423
  259MOL0     H34179   6.008   9.981   2.242 -0.1537  1.3682 -0.6746
  259MOL0     H34180   6.243  10.083   2.391 -0.5222  1.3302  0.4325
  259MOL0     H34181   6.070  10.099   2.412 -1.7176 -1.5741  0.7159
  259MOL0     H34182   6.039   9.843   2.447  2.8586 -2.5794 -1.7957
  259MOL0     H34183   6.128   9.935   2.576  4.1669 -1.0703  2.0350
  259MOL0     H34184   6.204   9.702   2.535  0.6167  0.1578  1.4370
  259MOL0     H34185   6.231   9.740   2.369  0.8653 -0.9001  0.5300
  259MOL0     H34186   6.583   9.912   2.539  0.0468 -1.1273 -0.2971
  259MOL0     H34187   5.905  10.155   2.260 -0.3051 -0.9994 -0.7877
  259MOL0     H34188   5.791  10.359   2.227  0.4385  0.2547  2.2925
  260MOL0     O34189   3.037   3.248   1.912  0.7033  0.4523 -0.4699
  260MOL0     C34190   3.061   3.277   1.797  0.7578  0.3689 -0.5320
  260MOL0     O34191   2.982   3.249   1.685 -0.3012 -0.6658 -0.0462
  260MOL0     C34192   2.867   3.182   1.691 -1.1066 -0.6184 -1.1235
  260MOL0     C34193   2.842   3.053   1.711  1.3147  1.3212 -0.7987
  260MOL0     C34194   2.708   2.996   1.703 -0.1756 -0.3379  0.2708
  260MOL0     C34195   2.595   3.078   1.676  0.2346 -0.3793 -0.5237
  260MOL0     O34196   2.468   3.044   1.646  0.6900  0.6187 -0.1921
  260MOL0     C34197   2.454   2.902   1.620  1.1388  0.6498  0.6011
  260MOL0     C34198   2.307   2.869   1.564 -1.5433  0.1895  0.5782
  260MOL0     C34199   2.256   2.952   1.442 -1.0458  0.9555  0.3593
  260MOL0     C34200   2.353   2.916   1.322  0.4375  0.6343  0.0831
  260MOL0     C34201   2.310   2.793   1.239 -0.3185 -0.5797 -0.5298
  260MOL0     C34202   2.184   2.800   1.160 -0.8978  0.7196  0.8417
  260MOL0     C34203   2.151   2.680   1.073  0.1542  0.2237 -0.4271
  260MOL0     C34204   2.009   2.669   1.019 -0.4022  0.4980  0.1284
  260MOL0     N34205   1.905   2.757   1.069 -0.5915 -0.9691  0.0504
  260MOL0     C34206   1.840   2.750   1.190 -0.9223 -1.0526 -0.9869
  260MOL0     C34207   1.735   2.843   1.173  0.0816  0.2169 -0.2380
  260MOL0     C34208   1.634   2.886   1.272 -0.1259  0.0939 -0.1108
  260MOL0     C34209   1.665   2.822   1.413 -0.9566 -0.5693  0.0272
  260MOL0     C34210   1.624   2.672   1.425 -0.5165  0.0505 -0.5610
  260MOL0     C34211   1.714   2.617   1.531 -0.8990  1.0352 -0.5189
  260MOL0     O34212   1.710   2.472   1.544  0.2948  0.0993  0.0208
  260MOL0     C34213   1.597   2.433   1.594  0.1232  0.1405  0.7845
  260MOL0     C34214   1.502   2.371   1.503  0.1328 -0.0997 -0.0310
  260MOL0     C34215   1.387   2.338   1.560 -0.3374  0.6880 -0.4196
  260MOL0     C34216   1.354   2.376   1.695 -0.6093 -0.2821 -0.2988
  260MOL0     C34217   1.222   2.340   1.754  0.4451 -0.1111 -0.3906
  260MOL0     O34218   1.153   2.238   1.697  0.1373  0.0995  0.1647
  260MOL0     C34219   1.029   2.210   1.733 -0.2513 -0.3331  0.7506
  260MOL0     C34220   0.934   2.180   1.634 -1.3041 -0.2177  0.1128
  260MOL0     C34221   0.812   2.128   1.663  0.3719 -0.3591  0.2176
  260MOL0     C34222   0.778   2.098   1.797  0.0101 -0.7319 -0.8612
  260MOL0     O34223   0.651   2.056   1.851 -0.5738 -0.0086  0.3282
  260MOL0     C34224   0.569   2.007   1.756  0.3706  0.4784  0.5831
  260MOL0     C34225   0.438   1.931   1.797  0.4853 -1.1311 -0.0098
  260MOL0     C34226   0.357   1.857   1.689 -0.0482 -0.1630  0.2999
  260MOL0     C34227   0.302   1.961   1.585 -0.2841  0.3387 -0.9309
  260MOL0     C34228   0.174   1.897   1.514  1.0291 -1.6511 -0.0431
  260MOL0     C34229   0.203   1.775   1.426 -0.2613  0.2492 -0.0605
  260MOL0     C34230   0.085   1.705   1.351  0.2958  0.0076  0.1460
  260MOL0     C34231   0.010   1.608   1.450  0.4549  1.1539  0.1927
  260MOL0    Cl34232   0.104   1.469   1.477  0.1749  0.1954 -0.0630
  260MOL0     C34233   0.880   2.118   1.901  0.0371  0.0156 -0.2610
  260MOL0     C34234   0.999   2.176   1.867  0.2632 -0.2438 -1.0890
  260MOL0     O34235   1.183   2.395   1.860 -0.1403 -0.7425 -0.1306
  260MOL0     C34236   1.450   2.425   1.787 -0.2192  0.0512  0.0019
  260MOL0     C34237   1.568   2.465   1.729  0.6014 -0.2973  0.6693
  260MOL0     N34238   1.744   2.892   1.041  0.3985 -1.0034  1.0051
  260MOL0     N34239   1.837   2.839   0.983  0.0227  0.3621  0.2425
  260MOL0     C34240   2.622   3.210   1.663 -0.3535  0.1270 -0.9946
  260MOL0     C34241   2.758   3.260   1.664  0.9960  0.1976 -0.4142
  260MOL0     C34242   3.176   3.363   1.765 -0.0254  0.4485  0.5513
  260MOL0     C34243   3.203   3.389   1.622  0.0625 -0.5140 -0.3185
  260MOL0     C34244   3.319   3.467   1.588  0.2154 -0.4522 -0.7208
  260MOL0     C34245   3.404   3.509   1.686 -1.0191 -0.0465  0.5616
  260MOL0     O34246   3.519   3.580   1.656 -0.7106  0.1896  0.0938
  260MOL0     C34247   3.504   3.720   1.664  1.0276  0.3321 -0.1442
  260MOL0     C34248   3.500   3.779   1.524 -1.0287  0.2166 -0.1036
  260MOL0     C34249   3.600   3.718   1.416 -0.2766 -0.8987 -0.5939
  260MOL0     C34250   3.584   3.781   1.285 -0.3999 -0.1805  0.8306
  260MOL0     C34251   3.627   3.921   1.267  0.6793  0.0285  0.6389
  260MOL0     C34252   3.669   4.029   1.253  0.2132 -0.0620  0.5381
  260MOL0     C34253   3.381   3.483   1.821 -0.0943  0.1174 -0.0592
  260MOL0     C34254   3.257   3.409   1.858  0.3377  0.8178  0.4712
  260MOL0     H34255   2.914   2.973   1.729 -0.8797 -1.1431 -2.1895
  260MOL0     H34256   2.695   2.891   1.727 -1.0700 -0.1917  0.4670
  260MOL0     H34257   2.465   2.849   1.714 -1.4910 -0.2183  0.5094
  260MOL0     H34258   2.531   2.860   1.554  0.8695  0.4802  0.3927
  260MOL0     H34259   2.238   2.885   1.647 -0.1309 -1.4682  2.1707
  260MOL0     H34260   2.312   2.763   1.537 -1.5905 -0.0201  1.3732
  260MOL0     H34261   2.249   3.058   1.468  0.1607  0.8976  0.9631
  260MOL0     H34262   2.154   2.932   1.408 -0.7637  0.4184 -0.1934
  260MOL0     H34263   2.354   3.009   1.263 -2.4455  1.8475  1.7173
  260MOL0     H34264   2.453   2.909   1.365 -1.0517 -1.6901  3.6129
  260MOL0     H34265   2.301   2.709   1.309 -2.4675  0.0133 -0.0415
  260MOL0     H34266   2.389   2.779   1.165  0.9046  2.9157 -0.0629
  260MOL0     H34267   2.181   2.883   1.090 -1.0259 -1.5753 -2.0894
  260MOL0     H34268   2.107   2.798   1.238 -1.6354 -1.2627  0.1371
  260MOL0     H34269   2.219   2.674   0.988 -1.0939  2.2842 -1.6513
  260MOL0     H34270   2.174   2.592   1.134 -3.9648 -1.4999 -1.0126
  260MOL0     H34271   1.973   2.565   1.016  0.3309  0.1534  1.8703
  260MOL0     H34272   2.023   2.684   0.912  2.2824 -1.8319  0.0211
  260MOL0     H34273   1.867   2.700   1.283 -1.1531 -0.1577 -0.4326
  260MOL0     H34274   1.530   2.869   1.241  0.1930 -1.9335 -0.1803
  260MOL0     H34275   1.649   2.993   1.289 -2.4016  0.5610 -0.6535
  260MOL0     H34276   1.614   2.873   1.495  0.5633  1.1979 -0.0656
  260MOL0     H34277   1.771   2.830   1.440 -1.3388 -0.9381  1.7321
  260MOL0     H34278   1.518   2.661   1.447 -0.5624  2.2529  0.7009
  260MOL0     H34279   1.644   2.631   1.326  1.3525 -0.9632  0.1935
  260MOL0     H34280   1.683   2.655   1.628 -3.7549 -2.2607  0.0619
  260MOL0     H34281   1.817   2.654   1.517 -0.6080  0.7105  0.6511
  260MOL0     H34282   1.513   2.373   1.395 -1.7794 -0.2826 -0.2653
  260MOL0     H34283   1.309   2.280   1.513 -1.9590  0.4474  2.3160
  260MOL0     H34284   0.945   2.206   1.530 -0.0274 -0.8964  0.0626
  260MOL0     H34285   0.755   2.088   1.580 -1.7124  1.9032  0.4659
  260MOL0     H34286   0.631   1.936   1.700  0.4040 -1.0586  2.4741
  260MOL0     H34287   0.530   2.090   1.696 -2.1914 -1.5464 -0.7626
  260MOL0     H34288   0.369   2.003   1.841 -1.7783 -3.4446  0.4493
  260MOL0     H34289   0.472   1.855   1.868 -0.0131 -0.6282  0.7675
  260MOL0     H34290   0.276   1.812   1.747  0.4212  0.0388  1.1226
  260MOL0     H34291   0.410   1.776   1.636 -3.8892 -0.5276 -3.5211
  260MOL0     H34292   0.266   2.049   1.639  0.6169 -0.0876  0.4105
  260MOL0     H34293   0.377   1.991   1.511  0.1704 -0.6794 -0.8935
  260MOL0     H34294   0.135   1.978   1.452 -0.8370 -3.1751 -0.9908
  260MOL0     H34295   0.100   1.868   1.589 -0.4058 -0.1210 -0.8062
  260MOL0     H34296   0.253   1.697   1.484  0.7015 -0.3089 -1.5812
  260MOL0     H34297   0.281   1.792   1.352  0.8935 -1.4458  0.7123
  260MOL0     H34298   0.012   1.778   1.314 -0.0539  0.3415  1.4347
  260MOL0     H34299   0.120   1.645   1.267 -1.8449 -0.6663 -0.3370
  260MOL0     H34300  -0.086   1.573   1.412  1.4279  0.2504 -1.5462
  260MOL0     H34301  -0.020   1.646   1.549 -4.5455 -1.1664 -0.1320
  260MOL0     H34302   0.853   2.089   2.003 -2.1348  0.5287 -0.6311
  260MOL0     H34303   1.079   2.189   1.939 -0.7202  0.7618 -0.1475
  260MOL0     H34304   1.439   2.447   1.893  0.5287  2.4173 -0.3609
  260MOL0     H34305   1.639   2.518   1.792  0.6558 -0.3827  0.6807
  260MOL0     H34306   2.541   3.263   1.613 -1.3203  0.7575  1.1486
  260MOL0     H34307   2.771   3.362   1.631 -0.8015  1.0644  1.4124
  260MOL0     H34308   3.142   3.346   1.543 -0.0295 -0.0440 -0.5101
  260MOL0     H34309   3.337   3.501   1.486  2.1633  0.6855 -0.0405
  260MOL0     H34310   3.594   3.759   1.711  2.5617 -3.1988  0.1960
  260MOL0     H34311   3.417   3.749   1.723  0.2871 -0.3481 -0.8654
  260MOL0     H34312   3.400   3.772   1.480 -0.4976  1.3369 -1.5611
  260MOL0     H34313   3.516   3.887   1.528 -0.3967  0.0842  1.5499
  260MOL0     H34314   3.572   3.614   1.401 -1.2963 -0.4645 -1.8379
  260MOL0     H34315   3.707   3.719   1.441  0.0435  2.3249 -1.6376
  260MOL0     H34316   3.654   3.729   1.220  0.6420  1.9515  0.1619
  260MOL0     H34317   3.485   3.760   1.243 -0.2862 -1.4770  1.1734
  260MOL0     H34318   3.724   4.120   1.240 -0.2422 -0.0050 -1.2421
  260MOL0     H34319   3.433   3.531   1.904  0.0905  2.9268 -1.6794
  260MOL0     H34320   3.225   3.394   1.961  1.5784 -0.6256  0.6835
  261MOL0     O34321   5.299   8.628   0.941  0.0235 -0.1771 -0.2160
  261MOL0     C34322   5.346   8.738   0.910  0.6117 -0.0150  0.4527
  261MOL0     O34323   5.291   8.823   0.818  0.4410 -0.3371  0.3485
  261MOL0     C34324   5.157   8.801   0.790 -0.7666  0.1366  1.1079
  261MOL0     C34325   5.057   8.850   0.872 -0.1802  0.2208  0.9111
  261MOL0     C34326   4.919   8.846   0.833 -0.1978  0.3049 -0.4291
  261MOL0     C34327   4.885   8.774   0.715 -0.4780  0.6925  0.3511
  261MOL0     O34328   4.755   8.764   0.693 -0.3140  0.0854  0.1968
  261MOL0     C34329   4.689   8.641   0.668  0.8343 -0.6437  0.4649
  261MOL0     C34330   4.677   8.570   0.798  0.0101  0.5789  0.7968
  261MOL0     C34331   4.788   8.465   0.837  1.1848 -0.1551 -1.1580
  261MOL0     C34332   4.793   8.422   0.984  0.7231  0.5748  0.4337
  261MOL0     C34333   4.915   8.334   1.024  1.1047 -0.4158 -0.2626
  261MOL0     C34334   4.931   8.191   0.956 -0.2379  0.0918  0.5927
  261MOL0     C34335   5.064   8.115   0.994 -0.0325 -0.6362  0.3185
  261MOL0     C34336   5.039   8.033   1.119 -0.0264  0.6332  0.8863
  261MOL0     N34337   5.162   7.999   1.194 -0.3510 -0.7176 -0.1123
  261MOL0     C34338   5.289   7.983   1.139 -0.8857  0.0495 -0.2704
  261MOL0     C34339   5.372   7.988   1.247  0.0783 -0.3893  0.2961
  261MOL0     C34340   5.523   7.968   1.255  0.2536  0.6448  0.0331
  261MOL0     C34341   5.579   8.003   1.397 -0.4785 -0.6510 -0.1166
  261MOL0     C34342   5.731   7.996   1.386 -0.3054 -0.1916 -0.7212
  261MOL0     C34343   5.786   7.985   1.530 -0.2884  0.2047  1.0246
  261MOL0     O34344   5.784   7.845   1.568  0.3377 -0.2156 -0.3373
  261MOL0     C34345   5.901   7.787   1.559 -0.3033 -1.2463 -0.1314
  261MOL0     C34346   5.968   7.748   1.677  0.0208 -0.4251 -0.1849
  261MOL0     C34347   6.090   7.692   1.688  0.6049 -0.4157  0.1477
  261MOL0     C34348   6.162   7.679   1.564  0.2784 -0.2809 -0.0171
  261MOL0     C34349   6.294   7.615   1.562 -0.3112 -0.8422  0.2942
  261MOL0     O34350   6.355   7.594   1.683 -0.1000  0.2203  0.0607
  261MOL0     C34351   6.478   7.533   1.672  0.3064 -0.7468 -0.5264
  261MOL0     C34352   6.590   7.609   1.629  1.1631  0.3316  0.4459
  261MOL0     C34353   6.718   7.550   1.647  0.4246  0.7307 -0.1994
  261MOL0     C34354   6.728   7.414   1.692 -0.4273 -0.3651  0.2003
  261MOL0     O34355   6.855   7.371   1.723 -0.0277  0.8734 -0.1641
  261MOL0     C34356   6.868   7.233   1.755 -0.1296 -0.1076 -0.4091
  261MOL0     C34357   7.007   7.191   1.810  0.0405  0.1377  0.3350
  261MOL0     C34358   7.044   7.269   1.943  0.1623 -0.2634 -0.6674
  261MOL0     C34359   7.086   7.417   1.922 -0.2324  0.1683  0.3124
  261MOL0     C34360   7.115   7.486   2.063  0.3496 -1.0527  0.1408
  261MOL0     C34361   7.139   7.638   2.047 -0.6755  0.1186 -0.0366
  261MOL0     C34362   7.270   7.688   1.979 -0.0950 -0.0641 -0.4091
  261MOL0     C34363   7.392   7.649   2.057 -0.3155  0.0315 -0.5207
  261MOL0    Cl34364   7.518   7.779   2.063  0.3706  0.2310  0.0553
  261MOL0     C34365   6.616   7.340   1.728  0.0457 -0.8893 -0.0752
  261MOL0     C34366   6.492   7.407   1.723  0.5537  0.4883  0.7127
  261MOL0     O34367   6.335   7.576   1.452  0.0551  0.0365 -0.3081
  261MOL0     C34368   6.106   7.726   1.439 -0.0973 -0.3612 -0.6847
  261MOL0     C34369   5.978   7.780   1.434  0.0666 -0.6511  0.7037
  261MOL0     N34370   5.294   7.993   1.360 -0.3744 -0.2560  1.2145
  261MOL0     N34371   5.162   7.997   1.327  0.6662 -0.8987 -0.2129
  261MOL0     C34372   4.983   8.729   0.628 -0.9679 -0.0990  0.5265
  261MOL0     C34373   5.120   8.746   0.665 -0.0360 -0.9356  0.4859
  261MOL0     C34374   5.474   8.774   0.959  0.4032 -0.8783 -0.4621
  261MOL0     C34375   5.522   8.902   0.918  0.3297  0.5066  0.1787
  261MOL0     C34376   5.651   8.941   0.947  0.0225 -0.1406  0.3021
  261MOL0     C34377   5.737   8.867   1.024 -0.4390  0.8683  0.4424
  261MOL0     O34378   5.861   8.926   1.050  0.7436  0.0088 -0.1287
  261MOL0     C34379   5.941   8.868   1.152 -0.0697  0.1347 -0.1492
  261MOL0     C34380   6.072   8.953   1.174 -0.0006  0.8572  1.2571
  261MOL0     C34381   6.032   9.055   1.274 -0.0810  0.3097  0.2657
  261MOL0     C34382   6.148   9.149   1.278 -0.7700 -0.3972  0.3785
  261MOL0     C34383   6.132   9.244   1.384 -0.2202  0.0545 -1.1568
  261MOL0     C34384   6.137   9.336   1.472  0.0805  0.4251 -0.4512
  261MOL0     C34385   5.699   8.739   1.051  0.0167 -0.3514 -0.5179
  261MOL0     C34386   5.564   8.695   1.027  0.3363  0.0807 -0.3148
  261MOL0     H34387   5.073   8.913   0.959 -0.6790  0.3978  0.8808
  261MOL0     H34388   4.837   8.871   0.899  0.9581  0.8226  0.8535
  261MOL0     H34389   4.732   8.575   0.592  0.1887  0.4949 -0.9594
  261MOL0     H34390   4.584   8.657   0.640  0.4759  2.1761  2.8763
  261MOL0     H34391   4.580   8.522   0.813 -0.5679  1.5455  0.2446
  261MOL0     H34392   4.691   8.637   0.884 -0.1224  3.2981 -1.1701
  261MOL0     H34393   4.882   8.512   0.808  1.0326 -0.3533 -2.0100
  261MOL0     H34394   4.778   8.378   0.771  0.8134 -1.4992  0.5712
  261MOL0     H34395   4.766   8.503   1.052 -1.1713 -1.5234  2.3195
  261MOL0     H34396   4.715   8.350   1.009 -1.3105  2.5512  0.0895
  261MOL0     H34397   4.903   8.314   1.130 -1.3009  0.1312 -0.3679
  261MOL0     H34398   5.010   8.388   1.018  2.0325 -1.8667  0.9002
  261MOL0     H34399   4.929   8.199   0.847  3.6298 -4.0294 -0.0561
  261MOL0     H34400   4.841   8.138   0.990 -0.9636  1.6363  1.1938
  261MOL0     H34401   5.116   8.058   0.917  1.8215  2.2334 -0.7083
  261MOL0     H34402   5.143   8.188   1.016 -0.6220  0.6284 -1.5329
  261MOL0     H34403   4.978   7.946   1.093 -1.9988  2.6158 -1.7698
  261MOL0     H34404   4.981   8.095   1.187 -2.6009  1.0300 -1.4776
  261MOL0     H34405   5.322   7.975   1.036  0.1574  2.2523 -0.1659
  261MOL0     H34406   5.568   8.038   1.185 -1.0841 -1.8563 -3.6055
  261MOL0     H34407   5.558   7.869   1.225  0.7401  0.6855  0.4516
  261MOL0     H34408   5.541   7.929   1.468  1.0965 -0.5001  0.9380
  261MOL0     H34409   5.552   8.104   1.428  0.0074  0.0258 -1.8041
  261MOL0     H34410   5.764   7.911   1.326 -0.6725 -0.7529 -0.1561
  261MOL0     H34411   5.776   8.082   1.337 -0.7740  1.0768  0.9900
  261MOL0     H34412   5.730   8.044   1.603 -1.1320 -0.2427  0.7577
  261MOL0     H34413   5.892   8.012   1.530  0.3529 -1.5260 -2.8687
  261MOL0     H34414   5.932   7.771   1.777 -0.1989 -0.8925 -0.1514
  261MOL0     H34415   6.135   7.665   1.783 -0.6868 -3.7796 -0.0347
  261MOL0     H34416   6.578   7.708   1.587 -1.4929  0.3581  1.1026
  261MOL0     H34417   6.808   7.606   1.626  1.9786 -1.3047  0.7239
  261MOL0     H34418   6.853   7.166   1.670 -0.9963 -0.7748  0.2457
  261MOL0     H34419   6.802   7.209   1.839 -1.3823  0.8406 -1.0844
  261MOL0     H34420   7.091   7.213   1.745 -0.3200 -0.1470 -0.2350
  261MOL0     H34421   7.007   7.082   1.824 -1.4885 -0.3806 -2.7534
  261MOL0     H34422   7.131   7.216   1.982 -0.0554  0.5942  1.1153
  261MOL0     H34423   6.966   7.262   2.020 -2.1087  2.7303 -2.5015
  261MOL0     H34424   7.179   7.419   1.864 -1.0552 -0.6057 -1.0870
  261MOL0     H34425   7.004   7.465   1.867 -1.2099  0.3808  1.8945
  261MOL0     H34426   7.191   7.433   2.121  0.0754  0.4792  2.0066
  261MOL0     H34427   7.037   7.473   2.138 -0.1943  1.6622  0.1513
  261MOL0     H34428   7.129   7.690   2.143  1.4345  0.9293 -0.1948
  261MOL0     H34429   7.062   7.682   1.984 -1.3380 -1.4246 -0.3619
  261MOL0     H34430   7.263   7.636   1.883 -1.0938 -0.8259  0.0536
  261MOL0     H34431   7.277   7.797   1.987  1.1233 -0.1027 -0.8137
  261MOL0     H34432   7.440   7.567   2.002  1.3673  1.1753 -0.8450
  261MOL0     H34433   7.377   7.631   2.164 -0.7880 -2.9234 -1.0027
  261MOL0     H34434   6.609   7.238   1.764 -1.8590 -1.6473 -2.3401
  261MOL0     H34435   6.401   7.351   1.738  0.6060  0.2584  0.2064
  261MOL0     H34436   6.151   7.720   1.341 -1.8037 -1.1529 -1.4498
  261MOL0     H34437   5.946   7.824   1.340 -0.7283  1.8541  2.0301
  261MOL0     H34438   4.967   8.678   0.534 -1.0254 -0.9024  0.9611
  261MOL0     H34439   5.207   8.727   0.603  0.0068  1.9723 -0.5090
  261MOL0     H34440   5.457   8.976   0.872 -0.9714  0.6849  2.1601
  261MOL0     H34441   5.675   9.045   0.931  1.0689 -0.4247 -0.0289
  261MOL0     H34442   5.967   8.767   1.121 -0.9985 -0.0349 -0.3878
  261MOL0     H34443   5.878   8.873   1.241  1.8291  1.4872  1.2214
  261MOL0     H34444   6.146   8.882   1.212 -0.7376  0.4334  1.9301
  261MOL0     H34445   6.107   8.985   1.076 -1.0747 -2.1021 -0.2419
  261MOL0     H34446   6.030   9.002   1.370  1.8244  1.8400  1.2038
  261MOL0     H34447   5.937   9.104   1.252 -1.1981 -1.1093  1.6734
  261MOL0     H34448   6.250   9.112   1.293 -0.4619  1.4549  4.0282
  261MOL0     H34449   6.150   9.209   1.186 -0.2304  0.5967  1.0151
  261MOL0     H34450   6.132   9.420   1.538 -2.3517 -0.0076  0.0135
  261MOL0     H34451   5.777   8.678   1.096  0.5973 -0.5849 -1.7931
  261MOL0     H34452   5.528   8.601   1.068 -2.6848  1.6807  0.9881
  262MOL0     O34453   4.504   9.079   4.596  0.9674  0.3329 -0.4098
  262MOL0     C34454   4.484   8.994   4.680 -1.3615  0.7773 -0.0983
  262MOL0     O34455   4.580   8.934   4.742  0.4784 -0.0850 -0.1684
  262MOL0     C34456   4.708   8.942   4.696 -1.1537 -0.4737  0.2337
  262MOL0     C34457   4.780   8.820   4.673 -0.2793 -0.1618  0.8626
  262MOL0     C34458   4.915   8.813   4.629  0.5545  0.4395 -0.0534
  262MOL0     C34459   4.984   8.931   4.592  0.1460 -0.3090 -0.6834
  262MOL0     O34460   5.115   8.904   4.556 -0.1125 -0.1280 -0.3882
  262MOL0     C34461   5.188   9.024   4.569 -0.8819 -0.0491  0.1262
  262MOL0     C34462   5.331   9.002   4.518  0.2766 -0.6996  0.2052
  262MOL0     C34463   5.403   8.909   4.611 -0.8867 -0.9457 -0.5523
  262MOL0     C34464   5.372   8.763   4.593 -0.1731  0.1629 -0.4030
  262MOL0     C34465   5.384   8.691   4.452 -0.1191 -0.0479  1.0347
  262MOL0     C34466   5.508   8.736   4.367 -0.7079 -0.6900 -0.5894
  262MOL0     C34467   5.508   8.701   4.214  0.4608 -0.1481  0.3422
  262MOL0     C34468   5.460   8.554   4.200 -0.1466  0.2494  0.4111
  262MOL0     N34469   5.521   8.505   4.080 -0.8305  0.3108 -0.1289
  262MOL0     C34470   5.660   8.504   4.061 -0.1032 -0.3246 -0.3823
  262MOL0     C34471   5.674   8.435   3.948 -0.4247  0.0898 -0.0325
  262MOL0     C34472   5.797   8.375   3.897  0.2424  0.5947 -1.1844
  262MOL0     C34473   5.815   8.416   3.753  1.0219 -0.0717  0.1074
  262MOL0     C34474   5.950   8.398   3.707 -0.8088  0.1616  0.2939
  262MOL0     C34475   5.999   8.252   3.682  0.9146  0.5802  0.1665
  262MOL0     O34476   5.926   8.203   3.563  0.4007 -0.2758  0.8660
  262MOL0     C34477   6.001   8.105   3.508 -0.2833  0.5232  0.2147
  262MOL0     C34478   6.085   8.120   3.398 -0.3141 -0.1545  0.1721
  262MOL0     C34479   6.142   8.006   3.332  0.4442 -0.1009 -0.7332
  262MOL0     C34480   6.116   7.882   3.382 -0.8544  0.4664 -0.2363
  262MOL0     C34481   6.168   7.757   3.313 -0.5668  0.4941 -0.3970
  262MOL0     O34482   6.123   7.630   3.360  0.4212 -0.6323 -0.1305
  262MOL0     C34483   6.164   7.507   3.300 -0.3675 -1.1299 -0.1178
  262MOL0     C34484   6.301   7.480   3.286  0.4884 -0.0556 -0.2622
  262MOL0     C34485   6.346   7.362   3.231 -0.5840  0.7806  0.5884
  262MOL0     C34486   6.257   7.254   3.207  0.3056 -0.0310  0.3501
  262MOL0     O34487   6.313   7.143   3.169  0.2983  0.6400  0.0372
  262MOL0     C34488   6.235   7.035   3.116 -0.6399 -1.6333 -0.0489
  262MOL0     C34489   6.338   6.928   3.081  0.6058  0.2505 -0.7728
  262MOL0     C34490   6.376   6.851   3.211  0.3159 -0.2149 -0.0394
  262MOL0     C34491   6.534   6.822   3.221 -0.9624  1.0610 -0.1508
  262MOL0     C34492   6.572   6.694   3.133  0.2155 -0.3845 -0.0777
  262MOL0     C34493   6.708   6.631   3.155  0.4646  0.4068 -0.1263
  262MOL0     C34494   6.724   6.491   3.078 -0.7666  0.3605 -0.3644
  262MOL0     C34495   6.730   6.528   2.924 -0.5334  0.4429  0.0840
  262MOL0    Cl34496   6.736   6.383   2.813  0.0167 -0.5129 -0.1674
  262MOL0     C34497   6.114   7.274   3.234 -0.6625 -0.4638 -0.1121
  262MOL0     C34498   6.079   7.402   3.278  0.2434 -0.7293 -0.3248
  262MOL0     O34499   6.264   7.772   3.235  0.2243  0.6336 -0.1022
  262MOL0     C34500   6.020   7.863   3.484 -0.9034 -0.0026  0.1352
  262MOL0     C34501   5.965   7.976   3.542  0.4426  0.0469 -0.3625
  262MOL0     N34502   5.546   8.401   3.897 -0.1910 -0.0741  0.0607
  262MOL0     N34503   5.458   8.439   3.976 -0.4601  0.2395 -0.6240
  262MOL0     C34504   4.906   9.051   4.605 -0.5187 -0.0227  0.3219
  262MOL0     C34505   4.780   9.053   4.663  0.9282  0.1561 -0.4774
  262MOL0     C34506   4.342   8.988   4.726 -0.3738 -1.0657  0.8962
  262MOL0     C34507   4.307   8.901   4.828  0.4196  0.6852  0.5553
  262MOL0     C34508   4.176   8.892   4.864 -0.4169  0.6478  0.0571
  262MOL0     C34509   4.075   8.956   4.795  0.2817 -0.2422  0.1371
  262MOL0     O34510   3.943   8.954   4.851  0.0771 -0.0465  0.0885
  262MOL0     C34511   3.843   9.038   4.796 -0.4555  0.7925  0.2254
  262MOL0     C34512   3.731   9.039   4.898  0.4965 -0.2695 -0.0446
  262MOL0     C34513   3.663   8.897   4.919  0.0492 -0.5714  0.5993
  262MOL0     C34514   3.527   8.917   4.995  0.0732  0.7239 -0.1122
  262MOL0     C34515   3.474   8.793   5.056  0.4070 -0.0653  0.7172
  262MOL0     C34516   3.426   8.694   5.113  0.6367  0.5029 -0.7460
  262MOL0     C34517   4.111   9.038   4.696  1.7189 -0.2466 -0.2083
  262MOL0     C34518   4.239   9.064   4.666 -0.3095  0.0221  0.4707
  262MOL0     H34519   4.726   8.730   4.700  0.5819 -0.4699  1.5902
  262MOL0     H34520   4.952   8.711   4.632 -3.0702 -1.0239 -0.3259
  262MOL0     H34521   5.200   9.066   4.669  2.0575  1.2334 -0.6528
  262MOL0     H34522   5.158   9.098   4.494 -1.1543 -1.7261 -1.5040
  262MOL0     H34523   5.387   9.094   4.500 -0.1736 -0.2218  1.1877
  262MOL0     H34524   5.331   8.946   4.424 -0.1128  0.2003 -0.3514
  262MOL0     H34525   5.385   8.936   4.715  2.1355 -0.6530  0.0020
  262MOL0     H34526   5.512   8.920   4.607 -0.7157 -2.2432 -0.1652
  262MOL0     H34527   5.438   8.698   4.651 -0.2701  0.6078  0.2151
  262MOL0     H34528   5.273   8.740   4.633  0.4657  1.0323  1.7893
  262MOL0     H34529   5.291   8.709   4.397  0.0490  0.2915  0.8580
  262MOL0     H34530   5.390   8.582   4.459  2.2194 -0.0704 -0.4206
  262MOL0     H34531   5.602   8.699   4.409 -0.1141 -0.6118 -1.8122
  262MOL0     H34532   5.507   8.845   4.371  1.4401 -0.5425 -2.3237
  262MOL0     H34533   5.432   8.767   4.170 -1.5701 -0.6020  2.9119
  262MOL0     H34534   5.600   8.723   4.160  0.1898 -1.6979 -0.8126
  262MOL0     H34535   5.351   8.542   4.199 -0.0641 -0.5909 -0.3114
  262MOL0     H34536   5.484   8.494   4.288 -2.4738 -0.7521  0.4354
  262MOL0     H34537   5.742   8.533   4.127 -0.3261  1.4963 -0.8422
  262MOL0     H34538   5.793   8.268   3.919  2.5111  0.7567  0.3741
  262MOL0     H34539   5.874   8.427   3.955 -1.7315 -0.4259  2.7064
  262MOL0     H34540   5.783   8.520   3.740  1.5536  0.0351 -0.4153
  262MOL0     H34541   5.738   8.374   3.687  4.2548 -1.2567 -3.2803
  262MOL0     H34542   5.950   8.450   3.611 -2.3522 -2.0376 -0.9889
  262MOL0     H34543   6.028   8.443   3.769 -0.2236 -1.5923  0.8776
  262MOL0     H34544   5.982   8.190   3.770  1.1563 -0.1939 -0.3174
  262MOL0     H34545   6.105   8.260   3.657  1.1217 -0.1659  0.7603
  262MOL0     H34546   6.108   8.221   3.363 -2.4207 -0.1953 -1.5810
  262MOL0     H34547   6.205   8.019   3.244  0.0964  1.7782 -0.7393
  262MOL0     H34548   6.372   7.558   3.314  1.2661 -0.5066 -0.9361
  262MOL0     H34549   6.451   7.339   3.214 -1.0652  0.5101 -2.6566
  262MOL0     H34550   6.187   7.053   3.019  0.6192 -0.4633 -0.4785
  262MOL0     H34551   6.163   6.989   3.184 -1.4427  2.0218  1.8158
  262MOL0     H34552   6.424   6.980   3.039  0.6834  1.3597  0.6928
  262MOL0     H34553   6.304   6.863   2.999  1.8422 -1.7045  0.1819
  262MOL0     H34554   6.310   6.764   3.215 -0.4992  0.3846 -0.1958
  262MOL0     H34555   6.345   6.912   3.297 -0.1141  2.2970 -1.8615
  262MOL0     H34556   6.582   6.914   3.185  1.9450  0.0965  0.9422
  262MOL0     H34557   6.563   6.800   3.324  1.9698  1.1182 -0.8570
  262MOL0     H34558   6.575   6.741   3.035 -0.2286  2.8995  1.3444
  262MOL0     H34559   6.498   6.614   3.136  1.9716 -2.0878  2.2543
  262MOL0     H34560   6.728   6.591   3.255  4.0945 -1.8069 -1.5638
  262MOL0     H34561   6.790   6.695   3.122 -0.5814  2.6906  1.5082
  262MOL0     H34562   6.819   6.439   3.097  1.0118  3.1052 -1.2535
  262MOL0     H34563   6.639   6.428   3.107  0.6148 -0.7432  1.6007
  262MOL0     H34564   6.824   6.579   2.901 -1.3228  2.0791  0.3916
  262MOL0     H34565   6.645   6.593   2.902 -1.2917 -0.1906  1.0389
  262MOL0     H34566   6.046   7.190   3.225 -1.6299  0.2471  0.2861
  262MOL0     H34567   5.976   7.431   3.298 -0.2662 -0.1437 -3.2232
  262MOL0     H34568   5.984   7.765   3.514 -2.5874 -0.5597 -3.1567
  262MOL0     H34569   5.880   7.958   3.607  0.2968 -1.6321 -0.9900
  262MOL0     H34570   4.946   9.148   4.575  1.9385 -0.9258  0.4679
  262MOL0     H34571   4.735   9.152   4.664 -0.4168 -0.2770 -4.1150
  262MOL0     H34572   4.383   8.842   4.878  0.4625  0.5539  0.3385
  262MOL0     H34573   4.144   8.817   4.936 -0.5502 -0.1398 -0.8091
  262MOL0     H34574   3.808   8.998   4.700  0.1288  0.7383  0.0241
  262MOL0     H34575   3.872   9.143   4.787 -3.1710  1.5754 -0.2238
  262MOL0     H34576   3.767   9.091   4.988 -0.9443  3.2435 -1.3308
  262MOL0     H34577   3.653   9.104   4.857  0.8612  0.7974  0.8997
  262MOL0     H34578   3.719   8.818   4.970  0.4461  0.7060  2.2003
  262MOL0     H34579   3.643   8.851   4.821  2.6773 -1.4517  0.4098
  262MOL0     H34580   3.533   8.992   5.074 -4.1556  4.1700 -2.6143
  262MOL0     H34581   3.454   8.960   4.927 -1.8079 -3.6174 -1.1743
  262MOL0     H34582   3.379   8.616   5.169  1.9935  1.3756  1.7451
  262MOL0     H34583   4.041   9.100   4.640 -0.7810 -1.5301  1.2832
  262MOL0     H34584   4.251   9.136   4.585  1.0169 -0.3678  0.2893
  263MOL0     O34585   4.425   9.269   9.704  0.6665  0.0468 -0.6206
  263MOL0     C34586   4.343   9.217   9.780 -0.4772 -0.7873  0.1201
  263MOL0     O34587   4.373   9.158   9.895  0.4238  0.1016  0.3534
  263MOL0     C34588   4.499   9.105   9.910 -0.6229 -0.8544  0.3058
  263MOL0     C34589   4.523   8.968   9.878  0.5688  0.0016  1.1474
  263MOL0     C34590   4.635   8.904   9.922 -0.3809  0.3779 -0.9045
  263MOL0     C34591   4.728   8.968   9.995 -0.8003 -0.9693  0.3499
  263MOL0     O34592   4.827   8.879  10.024 -0.2846 -0.5933  0.3522
  263MOL0     C34593   4.935   8.941  10.101 -0.3171  0.3592  0.7400
  263MOL0     C34594   5.054   8.849  10.104  0.1705  0.2831  0.1491
  263MOL0     C34595   5.173   8.908  10.184 -0.2628  0.8573  0.1277
  263MOL0     C34596   5.289   8.809  10.225 -0.5194 -1.3937 -0.2059
  263MOL0     C34597   5.409   8.879  10.296  0.3960 -0.3836  1.1241
  263MOL0     C34598   5.352   8.924  10.435 -0.9440 -0.4565  0.4533
  263MOL0     C34599   5.477   8.980  10.503  0.5046 -0.8195  0.2837
  263MOL0     C34600   5.424   9.001  10.637  0.4482  0.2272 -1.3612
  263MOL0     N34601   5.535   9.055  10.717  0.1962 -0.0012 -0.0495
  263MOL0     C34602   5.608   9.165  10.683  0.0730 -0.0017  0.7915
  263MOL0     C34603   5.683   9.190  10.790 -0.5163 -0.5723  0.2747
  263MOL0     C34604   5.774   9.312  10.792  0.2769  0.5164 -0.3288
  263MOL0     C34605   5.890   9.297  10.709 -0.1026  0.2814 -0.2036
  263MOL0     C34606   5.969   9.172  10.742  0.4519  0.1585 -0.6241
  263MOL0     C34607   6.117   9.197  10.699  0.5909  0.4962 -0.3306
  263MOL0     O34608   6.119   9.208  10.554 -0.2610 -0.1996  0.4215
  263MOL0     C34609   6.237   9.244  10.499 -0.3326 -0.0101 -0.2826
  263MOL0     C34610   6.351   9.273  10.572  0.0376  0.4188 -0.8719
  263MOL0     C34611   6.471   9.314  10.511 -0.6758 -0.6459  1.1477
  263MOL0     C34612   6.476   9.309  10.372 -0.4592  0.3257  0.4105
  263MOL0     C34613   6.610   9.321  10.311 -0.9328  0.6965  0.5109
  263MOL0     O34614   6.613   9.326  10.174 -0.3054 -0.3635  0.5135
  263MOL0     C34615   6.728   9.349  10.111  0.2587  0.8716  0.2538
  263MOL0     C34616   6.748   9.264  10.000 -0.5088  1.1576 -0.2374
  263MOL0     C34617   6.853   9.283   9.915  0.1050 -0.9258 -0.0041
  263MOL0     C34618   6.948   9.381   9.944 -0.7327  1.1064 -1.1034
  263MOL0     O34619   7.053   9.369   9.857 -0.1994  0.3997  0.8257
  263MOL0     C34620   7.186   9.430   9.897 -0.7475 -0.4732  0.0524
  263MOL0     C34621   7.305   9.338   9.830  0.3468 -0.1108  0.1335
  263MOL0     C34622   7.441   9.399   9.840 -0.3040  0.4894 -0.1135
  263MOL0     C34623   7.555   9.326   9.770 -0.4651 -0.7720  0.4043
  263MOL0     C34624   7.695   9.375   9.814  0.0037 -0.5340 -0.1094
  263MOL0     C34625   7.807   9.316   9.722 -0.3395 -0.0891 -0.0983
  263MOL0     C34626   7.943   9.369   9.769  0.0628 -0.0394 -0.4447
  263MOL0     C34627   8.031   9.280   9.849 -0.6854  0.0943  0.0548
  263MOL0    Cl34628   8.073   9.135   9.742  0.0094 -0.2403  0.0532
  263MOL0     C34629   6.947   9.449  10.068 -0.1961 -0.7490  0.5285
  263MOL0     C34630   6.826   9.448  10.140  0.1350 -0.6985 -0.1480
  263MOL0     O34631   6.707   9.352  10.384  0.0852  0.0045  0.2625
  263MOL0     C34632   6.369   9.272  10.296 -0.0435 -0.1189 -0.1918
  263MOL0     C34633   6.247   9.239  10.357  0.7169  0.5527 -0.3338
  263MOL0     N34634   5.658   9.105  10.887 -0.1504  0.3379 -0.3109
  263MOL0     N34635   5.567   9.025  10.847 -0.1857 -0.0244 -0.0667
  263MOL0     C34636   4.706   9.103  10.025  0.2399  0.2518  0.0200
  263MOL0     C34637   4.591   9.172   9.984  1.2164 -0.0727 -1.3040
  263MOL0     C34638   4.201   9.228   9.749 -0.6652 -0.5862  1.5024
  263MOL0     C34639   4.160   9.298   9.632 -0.6945  0.2271  0.9679
  263MOL0     C34640   4.025   9.307   9.579 -0.2565  0.2418 -0.0965
  263MOL0     C34641   3.924   9.231   9.649  0.2844 -0.5888  0.7058
  263MOL0     O34642   3.785   9.235   9.603 -0.3240  1.1806 -0.6313
  263MOL0     C34643   3.689   9.261   9.714 -0.2444 -0.6157  0.3669
  263MOL0     C34644   3.608   9.141   9.757 -0.2818  0.6980  0.6281
  263MOL0     C34645   3.511   9.172   9.869  0.3242  0.7299  0.2025
  263MOL0     C34646   3.407   9.280   9.852 -0.7175  0.4575  0.3964
  263MOL0     C34647   3.327   9.282   9.725  0.9069  0.8913  0.0085
  263MOL0     C34648   3.238   9.267   9.645 -0.9135  1.0456  0.4497
  263MOL0     C34649   3.968   9.156   9.765  0.1154  0.0770  0.6100
  263MOL0     C34650   4.101   9.159   9.810  0.3723  0.9344  0.1257
  263MOL0     H34651   4.445   8.919   9.820  0.4348  0.4467  0.9486
  263MOL0     H34652   4.664   8.803   9.892  1.8479  1.9553 -4.6866
  263MOL0     H34653   4.918   8.943  10.209  1.6976 -3.5752  1.3310
  263MOL0     H34654   4.956   9.038  10.056 -0.5108 -0.4284 -1.1770
  263MOL0     H34655   5.086   8.828  10.001  2.5135 -0.5673  0.9946
  263MOL0     H34656   5.013   8.758  10.148  1.3881 -1.0815 -1.3865
  263MOL0     H34657   5.134   8.952  10.276 -1.7974 -0.8351  0.3536
  263MOL0     H34658   5.216   8.987  10.122  2.8173 -0.4079  0.4763
  263MOL0     H34659   5.246   8.731  10.288 -2.2752  0.9899  1.7503
  263MOL0     H34660   5.332   8.776  10.129  1.0596  2.7659 -1.1493
  263MOL0     H34661   5.453   8.954  10.230  1.3601 -0.2929  1.8388
  263MOL0     H34662   5.490   8.808  10.315  2.1545  1.0052 -0.8049
  263MOL0     H34663   5.313   8.833  10.482 -1.5549 -1.2095 -1.4165
  263MOL0     H34664   5.279   9.004  10.417  1.8572  1.8079 -1.8948
  263MOL0     H34665   5.565   8.916  10.504 -0.0056 -1.8073 -3.5343
  263MOL0     H34666   5.492   9.083  10.468  0.3923 -1.1918 -0.9176
  263MOL0     H34667   5.372   8.922  10.690 -0.4897  0.8429 -1.3459
  263MOL0     H34668   5.350   9.081  10.627  0.8931  0.7761 -0.4884
  263MOL0     H34669   5.605   9.214  10.586 -3.8805  1.1536  1.3221
  263MOL0     H34670   5.801   9.332  10.896  0.7944 -1.2215 -0.0990
  263MOL0     H34671   5.710   9.397  10.767 -2.5789 -0.6543  2.3580
  263MOL0     H34672   5.954   9.385  10.722 -3.4226  2.7079  1.2908
  263MOL0     H34673   5.866   9.280  10.603  0.3514 -0.2183 -0.2308
  263MOL0     H34674   5.947   9.157  10.849  1.5185  1.2002 -0.2338
  263MOL0     H34675   5.942   9.078  10.694 -1.3785 -0.3456  1.2391
  263MOL0     H34676   6.176   9.115  10.740  0.5643 -0.7758 -2.6932
  263MOL0     H34677   6.154   9.290  10.744  0.3358  0.3888  0.1029
  263MOL0     H34678   6.357   9.267  10.680 -0.4133 -1.3441 -0.9122
  263MOL0     H34679   6.561   9.336  10.567  0.4194 -1.2181 -0.3461
  263MOL0     H34680   6.674   9.189   9.972  0.4527  0.4230 -0.8778
  263MOL0     H34681   6.866   9.218   9.829  4.6195  0.3367 -0.5302
  263MOL0     H34682   7.214   9.427  10.002  0.2068  1.6670 -0.0912
  263MOL0     H34683   7.191   9.534   9.866  0.4738 -0.9899 -1.6474
  263MOL0     H34684   7.290   9.305   9.727  2.3506 -1.2937  0.1753
  263MOL0     H34685   7.311   9.237   9.871  1.9614 -1.3575 -2.8424
  263MOL0     H34686   7.464   9.405   9.947  2.3522  1.1848 -0.6643
  263MOL0     H34687   7.417   9.500   9.805 -0.4359  2.0806  4.0287
  263MOL0     H34688   7.553   9.221   9.801  3.4368 -1.7060 -1.8126
  263MOL0     H34689   7.540   9.334   9.662  0.3807  0.2060  0.3461
  263MOL0     H34690   7.720   9.338   9.914 -0.8374 -0.0062  0.3162
  263MOL0     H34691   7.703   9.484   9.813  3.0185 -0.6658 -2.4432
  263MOL0     H34692   7.785   9.374   9.632  0.8024  1.8119  0.7890
  263MOL0     H34693   7.798   9.208   9.711  1.4543 -0.3420  0.6036
  263MOL0     H34694   7.998   9.401   9.681 -0.1014  0.4973 -0.3507
  263MOL0     H34695   7.916   9.456   9.829 -2.4691 -1.0421  0.0060
  263MOL0     H34696   7.971   9.237   9.929 -3.3720 -0.1299 -1.9618
  263MOL0     H34697   8.123   9.332   9.876 -0.1639 -0.2624 -0.9713
  263MOL0     H34698   7.028   9.508  10.108 -0.5314 -0.5393  0.9063
  263MOL0     H34699   6.801   9.518  10.218 -0.2355  2.2385 -2.6909
  263MOL0     H34700   6.370   9.264  10.188  3.0248  2.6392 -0.5194
  263MOL0     H34701   6.156   9.219  10.302  0.6016  1.3072 -0.4343
  263MOL0     H34702   4.779   9.163  10.078  1.1346 -0.1272 -0.7777
  263MOL0     H34703   4.566   9.271  10.021 -0.6936 -1.8153  2.6666
  263MOL0     H34704   4.239   9.358   9.588 -0.0641  0.0992  1.9017
  263MOL0     H34705   4.005   9.370   9.493 -0.4397 -0.0468 -0.2665
  263MOL0     H34706   3.618   9.336   9.676 -1.5156 -2.0350 -0.1641
  263MOL0     H34707   3.736   9.311   9.799 -1.7965  1.7173 -0.0399
  263MOL0     H34708   3.556   9.094   9.672  1.6203 -2.7272  1.1592
  263MOL0     H34709   3.678   9.067   9.796 -3.9126 -2.7544  1.3209
  263MOL0     H34710   3.568   9.196   9.960  0.0180 -1.6882  1.0958
  263MOL0     H34711   3.460   9.078   9.890  1.0809  0.4841  0.9918
  263MOL0     H34712   3.353   9.277   9.947  0.8838 -3.2327  1.3557
  263MOL0     H34713   3.465   9.373   9.847  1.7596 -0.9890  0.4450
  263MOL0     H34714   3.150   9.265   9.584 -0.3967  1.1348 -0.3120
  263MOL0     H34715   3.882   9.098   9.799 -3.1331  2.2996 -2.9420
  263MOL0     H34716   4.128   9.096   9.895 -0.1923  0.9514  0.3212
  264MOL0     O34717   1.608  11.408   9.415 -0.6387  0.2110 -0.1688
  264MOL0     C34718   1.688  11.501   9.388 -0.9841 -0.5504 -0.8194
  264MOL0     O34719   1.689  11.632   9.437  0.1773 -0.8483 -0.0010
  264MOL0     C34720   1.579  11.683   9.499 -0.3154 -0.4279  0.2765
  264MOL0     C34721   1.558  11.812   9.475  0.3234 -0.2020 -0.5189
  264MOL0     C34722   1.449  11.881   9.534  0.6441 -0.1286  0.0551
  264MOL0     C34723   1.354  11.818   9.610 -0.5375  1.0284  0.2151
  264MOL0     O34724   1.239  11.875   9.661 -1.2140  0.2636 -0.8106
  264MOL0     C34725   1.268  11.989   9.746 -0.1467  0.1552 -0.3249
  264MOL0     C34726   1.124  12.033   9.799  0.0005  0.6048  0.0841
  264MOL0     C34727   1.138  12.115   9.925 -0.0310  0.8396  0.9127
  264MOL0     C34728   1.199  12.256   9.909  0.4402 -0.0860  0.2691
  264MOL0     C34729   1.132  12.347  10.014 -1.2513 -0.0813  0.3680
  264MOL0     C34730   1.224  12.470  10.048 -0.2984 -0.1817 -0.4449
  264MOL0     C34731   1.146  12.549  10.154  0.1552 -0.9852 -0.0670
  264MOL0     C34732   1.250  12.647  10.196 -0.0863 -0.2313  0.8279
  264MOL0     N34733   1.292  12.748  10.097 -0.0620 -0.4620  0.0316
  264MOL0     C34734   1.206  12.836  10.032 -0.4353 -0.3422  0.1200
  264MOL0     C34735   1.284  12.898   9.949  0.0254  0.6627  1.6261
  264MOL0     C34736   1.249  13.020   9.865  0.6395  0.3968 -0.0484
  264MOL0     C34737   1.109  13.025   9.793  0.2846  0.6963 -0.8001
  264MOL0     C34738   1.081  12.930   9.678 -0.1817  0.7731  0.5872
  264MOL0     C34739   1.065  12.777   9.713  0.1598 -0.0167 -0.1763
  264MOL0     O34740   0.979  12.767   9.832 -0.9030 -0.2675  0.2379
  264MOL0     C34741   0.842  12.738   9.818 -0.4911 -0.0616  0.4741
  264MOL0     C34742   0.770  12.756   9.688 -0.7232 -0.4745  0.0113
  264MOL0     C34743   0.638  12.719   9.676  0.2717  0.2601  1.1132
  264MOL0     C34744   0.575  12.664   9.790  0.0431  0.0753 -0.3557
  264MOL0     C34745   0.431  12.633   9.779  0.2377  0.4345 -0.5631
  264MOL0     O34746   0.368  12.608   9.892  0.0869 -0.6016 -0.7396
  264MOL0     C34747   0.248  12.543   9.886 -0.1799  0.3265  0.0343
  264MOL0     C34748   0.237  12.412   9.834 -0.0153 -0.1254 -0.3325
  264MOL0     C34749   0.107  12.354   9.811 -0.8035  0.2820 -0.4813
  264MOL0     C34750  -0.010  12.421   9.866 -0.8124  0.1696 -0.0433
  264MOL0     O34751  -0.129  12.366   9.839 -0.3867  0.0141 -0.1482
  264MOL0     C34752  -0.218  12.334   9.950  0.2422  1.2075  0.5213
  264MOL0     C34753  -0.343  12.256   9.914  0.7298 -0.1145  0.6129
  264MOL0     C34754  -0.316  12.135   9.822  0.0251  0.1117  0.3317
  264MOL0     C34755  -0.449  12.067   9.771 -1.2080  0.2001  0.6868
  264MOL0     C34756  -0.436  11.947   9.676  0.8534  0.2337  1.3967
  264MOL0     C34757  -0.431  11.984   9.522  0.0303  0.2312 -0.5443
  264MOL0     C34758  -0.446  11.862   9.430  0.3719  0.4253  0.5214
  264MOL0     C34759  -0.391  11.908   9.298 -0.0220 -0.6214 -0.0732
  264MOL0    Cl34760  -0.470  12.054   9.226 -0.2444 -0.4376 -0.2400
  264MOL0     C34761   0.007  12.545   9.917 -0.5536 -0.2348 -1.3530
  264MOL0     C34762   0.134  12.612   9.920  0.5613 -0.4303  0.2125
  264MOL0     O34763   0.376  12.646   9.664 -0.6289  0.3776 -0.7283
  264MOL0     C34764   0.645  12.642   9.912 -0.2469  0.0366  0.2231
  264MOL0     C34765   0.775  12.689   9.928 -1.1584  0.4627  0.5346
  264MOL0     N34766   1.413  12.846   9.949  1.0490  0.6248 -0.4144
  264MOL0     N34767   1.412  12.752  10.037  0.9491  0.5073  0.0894
  264MOL0     C34768   1.371  11.680   9.621  0.5820 -0.2537  0.2077
  264MOL0     C34769   1.485  11.614   9.575 -0.6059 -0.3514  0.2280
  264MOL0     C34770   1.805  11.461   9.304 -0.3884 -0.4860  0.6438
  264MOL0     C34771   1.815  11.335   9.238 -0.1442  0.5863 -0.5655
  264MOL0     C34772   1.919  11.303   9.154 -0.6754  0.6694 -0.6938
  264MOL0     C34773   2.037  11.385   9.161 -0.3648 -0.2439 -0.0155
  264MOL0     O34774   2.155  11.353   9.098  0.5408  0.2991  0.1317
  264MOL0     C34775   2.218  11.224   9.148  0.0096 -0.8981  0.9832
  264MOL0     C34776   2.342  11.268   9.215 -0.5332  0.2363  1.1642
  264MOL0     C34777   2.339  11.308   9.368  0.0473 -0.2538  0.6532
  264MOL0     C34778   2.483  11.348   9.427 -0.3318  0.7025  0.2626
  264MOL0     C34779   2.538  11.464   9.357 -0.0854 -0.3382  1.0118
  264MOL0     C34780   2.585  11.570   9.309  0.6008 -0.0006 -0.0519
  264MOL0     C34781   2.032  11.510   9.229 -0.0504 -0.8121 -0.8334
  264MOL0     C34782   1.920  11.548   9.303  1.1393 -0.1352 -0.5582
  264MOL0     H34783   1.632  11.863   9.415 -0.3290 -0.7381 -1.8119
  264MOL0     H34784   1.434  11.986   9.513  0.6392 -0.5506 -2.2578
  264MOL0     H34785   1.318  12.060   9.680 -1.5955  0.5297 -1.0630
  264MOL0     H34786   1.318  11.955   9.837  0.1458  0.9567 -0.1854
  264MOL0     H34787   1.076  11.938   9.824 -0.9325  1.5371  2.0365
  264MOL0     H34788   1.067  12.082   9.719 -1.7079  0.5545  1.2126
  264MOL0     H34789   1.205  12.065   9.995  1.7934  3.1303  0.9134
  264MOL0     H34790   1.040  12.122   9.973  0.1273 -0.3632  1.4221
  264MOL0     H34791   1.308  12.246   9.915  0.6075  1.8405  1.4408
  264MOL0     H34792   1.181  12.295   9.808 -1.5438  1.6837  1.2478
  264MOL0     H34793   1.109  12.305  10.112 -0.1627 -1.6020  0.0233
  264MOL0     H34794   1.038  12.391   9.981 -1.8664 -2.0260 -0.6759
  264MOL0     H34795   1.254  12.525   9.958  1.9605 -0.4655  0.0616
  264MOL0     H34796   1.321  12.435  10.085 -0.3992 -1.7683 -1.5908
  264MOL0     H34797   1.053  12.594  10.117  0.5064 -0.4264 -0.2900
  264MOL0     H34798   1.110  12.490  10.239 -4.2416  3.3525  1.6021
  264MOL0     H34799   1.328  12.584  10.240  1.4992  1.7967  1.0475
  264MOL0     H34800   1.207  12.716  10.270 -0.4784  0.3436  0.0730
  264MOL0     H34801   1.103  12.854  10.064 -0.3411 -0.9075  0.7826
  264MOL0     H34802   1.325  13.031   9.788 -0.0536 -0.4268 -0.8684
  264MOL0     H34803   1.254  13.110   9.928  2.2344 -0.3922  1.0199
  264MOL0     H34804   1.106  13.124   9.745 -0.5406 -0.5183 -3.4207
  264MOL0     H34805   1.022  13.014   9.859 -1.2265  0.8865 -2.6678
  264MOL0     H34806   0.987  12.964   9.635 -0.8584 -0.0708  1.3461
  264MOL0     H34807   1.150  12.931   9.593 -0.0654  1.1817  0.6861
  264MOL0     H34808   1.165  12.734   9.725  0.1393  0.3019  1.3237
  264MOL0     H34809   1.014  12.720   9.635 -3.8910  3.4042 -0.3577
  264MOL0     H34810   0.811  12.805   9.600 -1.0389  3.2221  1.7420
  264MOL0     H34811   0.582  12.743   9.586  0.2205 -3.1132  0.0881
  264MOL0     H34812   0.327  12.357   9.809  0.8456  1.1336 -0.0768
  264MOL0     H34813   0.109  12.265   9.748 -3.9357 -0.5570  0.4682
  264MOL0     H34814  -0.254  12.425   9.999 -2.7507  2.2553 -3.1163
  264MOL0     H34815  -0.165  12.261  10.012  2.9170  0.9650 -1.8477
  264MOL0     H34816  -0.400  12.325   9.850  1.0602  0.5617  1.0356
  264MOL0     H34817  -0.396  12.215  10.000 -0.5137 -0.0682 -0.1024
  264MOL0     H34818  -0.267  12.054   9.877  1.6559 -0.4416 -1.7978
  264MOL0     H34819  -0.249  12.161   9.739 -1.7420  0.2727 -1.0934
  264MOL0     H34820  -0.506  12.036   9.860 -2.4272  0.9402  0.1760
  264MOL0     H34821  -0.512  12.138   9.718 -0.5104  1.1062  1.0562
  264MOL0     H34822  -0.530  11.894   9.692  1.9675 -3.4711 -2.5548
  264MOL0     H34823  -0.349  11.886   9.702  0.4310 -1.6385 -1.2324
  264MOL0     H34824  -0.333  12.029   9.500 -0.7232  0.6725 -3.3936
  264MOL0     H34825  -0.503  12.062   9.496  0.0132  0.9528  1.4657
  264MOL0     H34826  -0.382  11.781   9.466  0.4923 -0.6091 -1.7965
  264MOL0     H34827  -0.552  11.832   9.428 -0.2752  2.5943 -0.4588
  264MOL0     H34828  -0.417  11.819   9.240 -0.2382 -2.0470  2.0836
  264MOL0     H34829  -0.282  11.909   9.301 -0.0391 -0.2802  0.9532
  264MOL0     H34830  -0.082  12.605   9.931 -1.4990 -1.9771  0.5001
  264MOL0     H34831   0.139  12.716   9.951  2.3528 -0.5860  0.5840
  264MOL0     H34832   0.584  12.602   9.993  0.7955 -0.4268  0.7922
  264MOL0     H34833   0.833  12.666  10.017 -1.2818 -0.0732  0.4801
  264MOL0     H34834   1.290  11.621   9.664 -2.5250  2.6640 -1.1690
  264MOL0     H34835   1.491  11.506   9.578  3.5216 -0.2888  0.9618
  264MOL0     H34836   1.732  11.265   9.243 -2.3028  2.9701  4.2702
  264MOL0     H34837   1.921  11.204   9.111  1.0629  1.1685 -1.8999
  264MOL0     H34838   2.243  11.181   9.050  0.7486  0.4200  0.5743
  264MOL0     H34839   2.157  11.149   9.199 -0.3340 -1.5047 -0.2612
  264MOL0     H34840   2.410  11.182   9.216  1.0968  1.3427 -1.5447
  264MOL0     H34841   2.394  11.340   9.152  2.1813 -1.2635  1.5313
  264MOL0     H34842   2.304  11.218   9.418 -2.5718  0.5126  0.3217
  264MOL0     H34843   2.272  11.392   9.389  1.9947  1.0410  2.0714
  264MOL0     H34844   2.484  11.380   9.532 -0.8429 -1.7001  1.0690
  264MOL0     H34845   2.554  11.266   9.414 -1.3824  0.2242 -4.0118
  264MOL0     H34846   2.625  11.659   9.265  0.2202  0.4172  0.4297
  264MOL0     H34847   2.123  11.568   9.222  0.6663 -1.4349  2.0798
  264MOL0     H34848   1.915  11.643   9.354  1.1042 -0.9373  0.9824
  265MOL0     O34849   3.723   5.031   9.952 -0.5526 -0.1260  0.1242
  265MOL0     C34850   3.732   4.980   9.840 -0.0080  0.3926 -0.3765
  265MOL0     O34851   3.820   4.878   9.814 -0.2154 -0.3205  0.5173
  265MOL0     C34852   3.906   4.851   9.918  0.6656 -0.3179  0.4566
  265MOL0     C34853   3.886   4.730   9.984 -0.0237 -0.4333  1.2692
  265MOL0     C34854   3.975   4.703  10.090 -0.5153  0.7304  0.4662
  265MOL0     C34855   4.078   4.786  10.120  1.2564 -0.0518  1.7500
  265MOL0     O34856   4.162   4.755  10.219 -0.3532 -0.4395  0.1855
  265MOL0     C34857   4.174   4.835  10.340  0.0451 -0.7141  1.3674
  265MOL0     C34858   4.322   4.855  10.402  1.0461  0.1275 -0.0980
  265MOL0     C34859   4.390   4.973  10.334  0.6368  0.5139 -0.7951
  265MOL0     C34860   4.520   5.007  10.403 -0.4766 -0.0398 -0.6832
  265MOL0     C34861   4.585   5.133  10.344  0.9561  0.2810 -0.6458
  265MOL0     C34862   4.707   5.178  10.417 -0.3394  0.4147 -1.0653
  265MOL0     C34863   4.834   5.091  10.398  0.1412  0.0068 -0.3237
  265MOL0     C34864   4.963   5.167  10.433 -0.9976  0.1003  0.2548
  265MOL0     N34865   4.999   5.165  10.574 -0.1704  0.1553  0.6136
  265MOL0     C34866   5.005   5.049  10.641 -1.3013 -0.6416  0.5708
  265MOL0     C34867   5.030   5.075  10.773  0.3183 -0.8194 -0.7744
  265MOL0     C34868   5.057   4.962  10.864 -0.6198  0.3994 -0.6390
  265MOL0     C34869   4.985   4.831  10.831 -0.4228  0.8653  0.7195
  265MOL0     C34870   4.834   4.839  10.818 -0.0073 -0.6876  0.4807
  265MOL0     C34871   4.776   4.702  10.783 -0.1282 -0.0326  0.6012
  265MOL0     O34872   4.790   4.604  10.891  0.9945 -0.4288 -0.8316
  265MOL0     C34873   4.688   4.571  10.975  0.1942 -0.5100 -0.0010
  265MOL0     C34874   4.668   4.666  11.076 -0.3135  0.0489  0.2878
  265MOL0     C34875   4.586   4.631  11.183  0.0720 -0.0151 -0.2758
  265MOL0     C34876   4.518   4.502  11.181 -0.3487 -0.2052  0.5268
  265MOL0     C34877   4.419   4.466  11.287 -0.2844 -0.7100  0.6526
  265MOL0     O34878   4.402   4.575  11.369 -0.0950 -0.1991 -0.0910
  265MOL0     C34879   4.326   4.568  11.477 -0.0428 -0.2967 -0.4057
  265MOL0     C34880   4.193   4.507  11.487 -0.1102 -0.0803 -0.0867
  265MOL0     C34881   4.131   4.507  11.614  0.2081  0.0745  0.8733
  265MOL0     C34882   4.185   4.547  11.731 -1.3952  0.5065 -1.0998
  265MOL0     O34883   4.114   4.548  11.854  0.3361 -0.5895 -0.2938
  265MOL0     C34884   4.191   4.522  11.979 -0.3152  0.8235 -0.0881
  265MOL0     C34885   4.234   4.371  11.984  1.4023  0.2610 -0.8536
  265MOL0     C34886   4.331   4.347  12.101  0.1172 -0.2240 -0.0794
  265MOL0     C34887   4.397   4.208  12.081  0.4823 -0.2837  0.5853
  265MOL0     C34888   4.320   4.090  12.136  0.6745  0.1311  0.3817
  265MOL0     C34889   4.319   4.080  12.293 -0.0906 -0.5437  0.5144
  265MOL0     C34890   4.453   4.072  12.358 -0.0961  1.4360  0.7273
  265MOL0     C34891   4.495   4.205  12.417  0.2289 -0.3023  0.9720
  265MOL0    Cl34892   4.372   4.271  12.518 -0.6818 -0.2379  0.3900
  265MOL0     C34893   4.316   4.592  11.721  0.5865 -0.7756  0.4542
  265MOL0     C34894   4.385   4.615  11.598  0.0568  0.2584  0.8006
  265MOL0     O34895   4.363   4.356  11.295  0.5464 -0.3587  0.2179
  265MOL0     C34896   4.545   4.404  11.086  1.2863 -0.2017  0.0358
  265MOL0     C34897   4.628   4.439  10.984 -0.5783 -0.2356 -0.7765
  265MOL0     N34898   5.062   5.208  10.778  0.1494  0.5579 -0.5044
  265MOL0     N34899   5.021   5.261  10.665 -0.7472  0.6201 -0.2896
  265MOL0     C34900   4.104   4.898  10.049  1.2095  0.7539 -0.0920
  265MOL0     C34901   4.015   4.932   9.946 -0.0427  0.2712 -0.7552
  265MOL0     C34902   3.637   5.001   9.726 -0.4427 -0.4983  0.1906
  265MOL0     C34903   3.662   4.949   9.595  0.0347  0.5403 -0.2230
  265MOL0     C34904   3.591   4.989   9.482 -0.0059  0.2230  0.2336
  265MOL0     C34905   3.476   5.069   9.510 -0.3092  0.6990  0.8351
  265MOL0     O34906   3.421   5.124   9.400 -0.3821 -0.0987 -0.4822
  265MOL0     C34907   3.293   5.193   9.405 -0.2875  0.2934  0.8368
  265MOL0     C34908   3.277   5.294   9.290  0.8086  0.6683 -0.1264
  265MOL0     C34909   3.363   5.416   9.300 -0.1418  0.0663 -0.2182
  265MOL0     C34910   3.297   5.532   9.375  0.3698 -0.3206 -0.3164
  265MOL0     C34911   3.313   5.530   9.519 -0.5763  1.0880  0.6972
  265MOL0     C34912   3.328   5.524   9.645 -0.2633  0.7300  0.7525
  265MOL0     C34913   3.450   5.110   9.638 -0.3176  0.3023  0.1782
  265MOL0     C34914   3.536   5.089   9.750  0.6715 -0.5770 -0.7612
  265MOL0     H34915   3.796   4.673   9.962  0.4459 -0.1826 -1.7111
  265MOL0     H34916   3.954   4.613  10.146 -1.2188  1.5466  1.5704
  265MOL0     H34917   4.108   4.789  10.415  0.6564 -0.9499  1.7645
  265MOL0     H34918   4.134   4.934  10.318  0.4580 -0.7383  0.4451
  265MOL0     H34919   4.382   4.769  10.373  3.2303  1.5943 -0.2287
  265MOL0     H34920   4.309   4.861  10.510 -0.9356  0.1584 -0.3091
  265MOL0     H34921   4.329   5.064  10.330  2.5957  1.9930  1.0377
  265MOL0     H34922   4.403   4.951  10.228  0.0132  3.5744 -1.6265
  265MOL0     H34923   4.509   5.007  10.512  2.4309  0.0642 -0.3065
  265MOL0     H34924   4.592   4.926  10.386  1.5201  1.7108 -0.9809
  265MOL0     H34925   4.515   5.215  10.361  1.6696  0.4299  2.0256
  265MOL0     H34926   4.599   5.118  10.237 -0.5334  1.1825 -0.9889
  265MOL0     H34927   4.690   5.185  10.525  1.6927 -1.3340 -0.5558
  265MOL0     H34928   4.742   5.273  10.378  1.9319 -0.9005 -2.4188
  265MOL0     H34929   4.822   4.994  10.448  0.6834  0.0285 -0.1459
  265MOL0     H34930   4.841   5.075  10.290 -2.9207 -1.0268 -0.4657
  265MOL0     H34931   4.966   5.267  10.390 -0.8279 -0.6555 -1.5975
  265MOL0     H34932   5.038   5.124  10.366 -1.7682  1.0857 -1.2628
  265MOL0     H34933   4.996   4.953  10.591  2.9178 -0.4185 -1.0030
  265MOL0     H34934   5.036   4.991  10.967  0.2635  3.1511 -1.1687
  265MOL0     H34935   5.164   4.936  10.865 -0.5259  0.8091 -0.2169
  265MOL0     H34936   5.003   4.757  10.910  2.4146  0.9760  0.2846
  265MOL0     H34937   5.018   4.786  10.737  0.6780  2.1306  0.4709
  265MOL0     H34938   4.786   4.879  10.907 -0.9399  4.1448 -1.8974
  265MOL0     H34939   4.798   4.911  10.744 -1.7468 -0.0052  1.9448
  265MOL0     H34940   4.827   4.667  10.693  1.1312 -2.7644  2.2309
  265MOL0     H34941   4.670   4.706  10.758  0.0361 -1.7253 -0.5388
  265MOL0     H34942   4.707   4.767  11.070 -0.6649  0.0823 -2.1585
  265MOL0     H34943   4.569   4.710  11.256  1.8982  1.5887 -1.4650
  265MOL0     H34944   4.135   4.470  11.402  1.6438  1.7845 -2.2355
  265MOL0     H34945   4.030   4.467  11.604  0.6695 -0.5648 -5.9334
  265MOL0     H34946   4.122   4.536  12.063 -0.2035 -0.7083  0.2816
  265MOL0     H34947   4.280   4.582  11.998  0.6270 -0.5527 -0.0088
  265MOL0     H34948   4.287   4.340  11.894  3.9638 -1.1868  1.0045
  265MOL0     H34949   4.145   4.309  12.000  1.1656  1.0592  1.3096
  265MOL0     H34950   4.287   4.351  12.202  1.3334  1.1045  0.4272
  265MOL0     H34951   4.418   4.413  12.102 -1.5616  2.1267 -1.4426
  265MOL0     H34952   4.409   4.198  11.973 -2.1367 -0.9025  0.2780
  265MOL0     H34953   4.493   4.203  12.132  0.9157 -0.5349 -0.2448
  265MOL0     H34954   4.361   4.002  12.086 -0.9130  2.4665 -5.9768
  265MOL0     H34955   4.222   4.084  12.087  1.2801  1.4836 -1.0834
  265MOL0     H34956   4.265   3.989  12.319 -4.3631  1.1990 -1.3557
  265MOL0     H34957   4.256   4.153  12.345  1.1103  2.0788 -1.4927
  265MOL0     H34958   4.445   3.990  12.430 -0.7063  1.7069  0.9707
  265MOL0     H34959   4.526   4.050  12.280 -1.8369 -2.0013 -0.1035
  265MOL0     H34960   4.511   4.287  12.345  1.8224 -1.4322 -0.0284
  265MOL0     H34961   4.582   4.192  12.482 -0.8171 -2.4535  2.0335
  265MOL0     H34962   4.367   4.613  11.814  1.6968 -2.3215  0.2452
  265MOL0     H34963   4.487   4.650  11.606  0.1148  0.1286  0.6246
  265MOL0     H34964   4.512   4.302  11.096 -3.6536  1.0627 -0.8763
  265MOL0     H34965   4.664   4.355  10.924 -1.2713 -1.5726  0.6075
  265MOL0     H34966   4.190   4.961  10.068  2.5584 -0.6665 -1.1999
  265MOL0     H34967   4.029   5.021   9.886 -1.2398  1.7142  0.9734
  265MOL0     H34968   3.740   4.876   9.581  0.7637  1.4398 -0.9225
  265MOL0     H34969   3.623   4.961   9.382  2.2944 -0.6613  1.1517
  265MOL0     H34970   3.281   5.244   9.501 -0.3711 -3.3292  2.9174
  265MOL0     H34971   3.215   5.118   9.387 -0.5412  0.2890  1.8881
  265MOL0     H34972   3.308   5.241   9.199  0.6257  1.7379 -0.8235
  265MOL0     H34973   3.172   5.324   9.298  1.0627  1.2742  1.2897
  265MOL0     H34974   3.399   5.442   9.201  1.0912 -1.4016 -0.1878
  265MOL0     H34975   3.453   5.391   9.357 -0.4333  0.8261  0.6143
  265MOL0     H34976   3.330   5.625   9.329 -1.5358 -0.4430 -2.0854
  265MOL0     H34977   3.192   5.535   9.346  0.0061  1.6228  1.0458
  265MOL0     H34978   3.337   5.518   9.751  0.3901  2.7126  0.8481
  265MOL0     H34979   3.361   5.170   9.654 -0.9529 -0.9590  1.7006
  265MOL0     H34980   3.519   5.131   9.848  0.1988  1.8509 -1.8039
  266MOL0     O34981   8.744   8.445   5.894  0.7708 -0.2715 -0.2428
  266MOL0     C34982   8.825   8.345   5.898  0.5606  0.8656  0.2569
  266MOL0     O34983   8.796   8.209   5.869  0.1300 -0.1245  0.0857
  266MOL0     C34984   8.663   8.175   5.851  0.2263 -0.1919  0.2632
  266MOL0     C34985   8.627   8.163   5.716  0.6988 -0.1463 -0.4283
  266MOL0     C34986   8.499   8.104   5.687  0.2929 -0.0181  0.0475
  266MOL0     C34987   8.404   8.079   5.791 -0.6654  0.0773  0.3739
  266MOL0     O34988   8.281   8.018   5.762 -0.1662 -0.3556 -0.5770
  266MOL0     C34989   8.159   8.065   5.833 -1.3528 -0.1136  0.9585
  266MOL0     C34990   8.114   8.194   5.763  0.6380  0.0614  0.6766
  266MOL0     C34991   8.197   8.315   5.786  0.4904  0.5733  0.6476
  266MOL0     C34992   8.117   8.438   5.763  0.5611 -0.6149  0.1368
  266MOL0     C34993   8.205   8.565   5.759  0.0765 -0.1107  0.0130
  266MOL0     C34994   8.264   8.607   5.892 -0.7105  0.4623 -0.0441
  266MOL0     C34995   8.355   8.723   5.865 -0.2285  0.0271 -0.5965
  266MOL0     C34996   8.438   8.774   5.981 -0.3633 -0.5309  0.3636
  266MOL0     N34997   8.553   8.859   5.946  0.4045 -0.0813 -0.5300
  266MOL0     C34998   8.681   8.845   5.999  0.4897 -0.2939 -0.2966
  266MOL0     C34999   8.734   8.963   5.988 -0.1233  0.6628 -0.0662
  266MOL0     C35000   8.851   9.018   6.057  0.2096 -0.8852 -0.1407
  266MOL0     C35001   8.974   8.954   6.007 -0.4856  0.4133 -0.8815
  266MOL0     C35002   9.103   9.005   6.081  0.1975  0.7935  0.5321
  266MOL0     C35003   9.231   9.003   5.997  0.1258  0.0391  0.6424
  266MOL0     O35004   9.275   8.860   5.982  0.5503  0.4798  0.5745
  266MOL0     C35005   9.402   8.836   6.023 -1.2120 -0.0219  0.1393
  266MOL0     C35006   9.517   8.893   5.961  1.0952 -0.0817  0.3111
  266MOL0     C35007   9.645   8.877   6.005 -0.4672  0.4329 -0.1300
  266MOL0     C35008   9.662   8.783   6.110  0.2448  0.6217 -0.3450
  266MOL0     C35009   9.800   8.757   6.168 -0.6369 -0.0785  1.1240
  266MOL0     O35010   9.902   8.825   6.113  0.9367  0.3234  0.0924
  266MOL0     C35011  10.027   8.802   6.165  0.0760 -1.5083  0.8886
  266MOL0     C35012  10.055   8.891   6.263 -0.2121 -0.6770  0.5645
  266MOL0     C35013  10.171   8.878   6.339  0.8783  0.8521 -0.0407
  266MOL0     C35014  10.252   8.773   6.318  0.9729 -0.1785  0.1081
  266MOL0     O35015  10.363   8.745   6.394 -0.3964  0.3985 -0.0163
  266MOL0     C35016  10.394   8.797   6.530  0.7990  0.7511 -0.2429
  266MOL0     C35017  10.466   8.922   6.540  0.3118 -0.3187  0.5232
  266MOL0     C35018  10.528   8.945   6.681  0.2186 -0.5511  0.7879
  266MOL0     C35019  10.652   8.857   6.707 -0.0817 -0.2516  0.7596
  266MOL0     C35020  10.767   8.894   6.610  0.2912  0.0468  0.0871
  266MOL0     C35021  10.908   8.886   6.667 -0.6592 -0.0302 -2.1984
  266MOL0     C35022  11.010   8.951   6.567  0.5986 -0.1300  0.3088
  266MOL0     C35023  11.121   9.017   6.646  0.8261  0.5580  0.0441
  266MOL0    Cl35024  11.063   9.166   6.722 -0.2293 -0.3792  0.3624
  266MOL0     C35025  10.229   8.676   6.214 -0.4620 -0.3461 -0.7168
  266MOL0     C35026  10.110   8.692   6.137 -0.6353  0.4358  0.2934
  266MOL0     O35027   9.820   8.675   6.254  0.5906  1.3682 -0.1627
  266MOL0     C35028   9.549   8.729   6.178  0.0247  0.2841  0.0606
  266MOL0     C35029   9.423   8.760   6.141 -0.1686 -0.2967 -1.1839
  266MOL0     N35030   8.639   9.052   5.932  0.1982 -0.0101 -0.2939
  266MOL0     N35031   8.532   8.982   5.904 -0.7097 -0.9229 -0.6663
  266MOL0     C35032   8.453   8.088   5.922  1.3253  0.0524  0.9620
  266MOL0     C35033   8.580   8.129   5.957  0.1801 -0.1882 -0.1929
  266MOL0     C35034   8.957   8.371   5.938 -0.5707  0.7811  0.6821
  266MOL0     C35035   9.023   8.493   5.969  0.1528 -0.8036  0.8214
  266MOL0     C35036   9.157   8.511   6.002  0.8251 -0.1108  1.0273
  266MOL0     C35037   9.242   8.414   5.995 -0.3030  0.9187  0.9564
  266MOL0     O35038   9.372   8.448   6.029  0.8263  0.0882 -0.0645
  266MOL0     C35039   9.452   8.354   6.098  0.4883  0.8468  0.9217
  266MOL0     C35040   9.543   8.280   6.007 -0.4899 -0.3191  0.6308
  266MOL0     C35041   9.672   8.362   5.978  0.8329 -0.4114 -0.3576
  266MOL0     C35042   9.702   8.362   5.828 -0.4725  0.1267  0.7300
  266MOL0     C35043   9.827   8.439   5.801  0.4534  0.3599  0.1846
  266MOL0     C35044   9.933   8.496   5.790  0.9210 -0.6186  0.5293
  266MOL0     C35045   9.192   8.284   5.972 -0.4407 -0.4301  0.0723
  266MOL0     C35046   9.055   8.268   5.937 -0.6671  0.1344  0.0408
  266MOL0     H35047   8.681   8.192   5.627  0.6832  0.0236 -0.3844
  266MOL0     H35048   8.474   8.078   5.585  1.3186 -0.4260 -0.1177
  266MOL0     H35049   8.179   8.076   5.940  0.7589  4.0785  0.3219
  266MOL0     H35050   8.086   7.984   5.828 -0.8401 -0.8314  3.4030
  266MOL0     H35051   8.016   8.208   5.810  0.1861 -1.7125  0.3178
  266MOL0     H35052   8.083   8.175   5.660 -0.6552  0.1061  1.0310
  266MOL0     H35053   8.263   8.321   5.699 -0.8979 -0.0519 -0.4805
  266MOL0     H35054   8.250   8.303   5.881  1.4632 -1.5323 -0.1040
  266MOL0     H35055   8.061   8.435   5.669  0.4385 -0.9760  0.2208
  266MOL0     H35056   8.046   8.443   5.845 -1.6074  1.8875 -1.7103
  266MOL0     H35057   8.146   8.648   5.719  2.3793  1.7084  0.2121
  266MOL0     H35058   8.285   8.570   5.684 -1.4895  2.3849 -1.6491
  266MOL0     H35059   8.330   8.528   5.930  0.4745  2.4375  2.2122
  266MOL0     H35060   8.184   8.617   5.966 -0.8062  0.5914 -0.1637
  266MOL0     H35061   8.436   8.705   5.793 -0.8450 -0.7228 -1.1164
  266MOL0     H35062   8.302   8.807   5.821  2.5476  0.8875 -2.5901
  266MOL0     H35063   8.477   8.688   6.037  2.0097 -0.1375 -0.5431
  266MOL0     H35064   8.371   8.827   6.050 -2.2321 -1.4508 -0.6626
  266MOL0     H35065   8.716   8.756   6.050 -0.7644 -2.2440 -2.6293
  266MOL0     H35066   8.837   8.997   6.163  2.6816  0.7721  0.6050
  266MOL0     H35067   8.863   9.126   6.042 -0.5802 -0.3059  2.7683
  266MOL0     H35068   8.979   8.962   5.898  1.1097  0.8209 -0.8070
  266MOL0     H35069   8.976   8.845   6.022 -1.6145  0.4451 -0.3453
  266MOL0     H35070   9.091   9.112   6.101 -0.0657  0.6929  0.9164
  266MOL0     H35071   9.125   8.941   6.166  0.5648  1.1927  0.7414
  266MOL0     H35072   9.309   9.063   6.044  2.3319 -2.2575  0.1429
  266MOL0     H35073   9.226   9.050   5.898  1.4913  1.3235  1.1520
  266MOL0     H35074   9.514   8.958   5.874  2.2445 -1.0158 -0.4662
  266MOL0     H35075   9.726   8.930   5.956  0.1356  1.2075  1.6465
  266MOL0     H35076   9.990   8.977   6.281  2.7968  1.1570  4.2518
  266MOL0     H35077  10.183   8.946   6.423 -0.1820  0.6817  0.2744
  266MOL0     H35078  10.447   8.716   6.582  0.0000  0.8361  0.7530
  266MOL0     H35079  10.301   8.800   6.588  0.0780 -3.4581 -0.8274
  266MOL0     H35080  10.397   9.003   6.514  2.5485  0.7452 -2.7392
  266MOL0     H35081  10.546   8.933   6.465 -0.4019  1.3682 -0.0248
  266MOL0     H35082  10.469   8.915   6.768 -0.3554 -3.1438 -0.3880
  266MOL0     H35083  10.541   9.053   6.687 -0.3204 -0.4287 -0.0665
  266MOL0     H35084  10.662   8.887   6.811 -0.5782 -0.8318  0.9769
  266MOL0     H35085  10.626   8.751   6.703 -0.4451 -0.1366 -1.1060
  266MOL0     H35086  10.753   9.000   6.586 -1.2471  0.3490  2.0079
  266MOL0     H35087  10.750   8.821   6.530  0.2176 -1.0285  1.0558
  266MOL0     H35088  10.943   8.785   6.692  0.2541  0.6704 -0.5244
  266MOL0     H35089  10.917   8.938   6.763 -4.3971 -1.1769 -1.0414
  266MOL0     H35090  11.052   8.865   6.514  1.4804 -0.0607  0.8689
  266MOL0     H35091  10.970   9.029   6.502 -1.0813  0.5963  2.1142
  266MOL0     H35092  11.194   9.045   6.569 -2.2397  1.7684 -2.6212
  266MOL0     H35093  11.159   8.936   6.710  0.8603  0.0253 -0.6334
  266MOL0     H35094  10.306   8.601   6.202 -1.2028 -1.2516  0.0689
  266MOL0     H35095  10.087   8.624   6.055 -1.5256  0.8307  0.2077
  266MOL0     H35096   9.560   8.661   6.262  0.3412  0.4970  0.1928
  266MOL0     H35097   9.332   8.715   6.179 -0.7772  1.7082 -0.1552
  266MOL0     H35098   8.383   8.046   5.993 -1.5051  0.9981 -1.0714
  266MOL0     H35099   8.628   8.104   6.051  3.2060 -1.1998 -1.8712
  266MOL0     H35100   8.949   8.572   5.969 -0.6955 -1.4019 -2.9671
  266MOL0     H35101   9.199   8.606   6.032 -0.1209  0.5174  0.4105
  266MOL0     H35102   9.381   8.288   6.149 -0.3483 -0.1204 -1.3660
  266MOL0     H35103   9.508   8.416   6.169 -0.9566 -1.5420  4.4074
  266MOL0     H35104   9.567   8.191   6.066 -2.8884 -2.4813 -1.4440
  266MOL0     H35105   9.477   8.257   5.923 -0.1783 -2.1011  0.8370
  266MOL0     H35106   9.750   8.322   6.044 -0.1517  0.9433  1.7601
  266MOL0     H35107   9.661   8.465   6.013  1.3933 -1.3468  2.9662
  266MOL0     H35108   9.713   8.260   5.788 -0.5006  1.4388 -3.0632
  266MOL0     H35109   9.621   8.413   5.775  2.2480  1.9154 -2.0433
  266MOL0     H35110  10.023   8.555   5.794  1.0296 -0.5608 -1.5827
  266MOL0     H35111   9.258   8.198   5.977 -1.3207 -1.0336  1.8103
  266MOL0     H35112   9.027   8.165   5.915 -1.4285 -0.5158  3.3767
  267MOL0     O35113   7.586   6.551   6.337 -0.1469 -0.5218 -1.2946
  267MOL0     C35114   7.622   6.475   6.247  0.1061 -0.2229 -0.1358
  267MOL0     O35115   7.661   6.344   6.262  0.0590  0.7143 -0.4116
  267MOL0     C35116   7.674   6.274   6.384  0.2677 -0.0310 -0.3183
  267MOL0     C35117   7.711   6.330   6.500  0.6168  0.1823  0.4181
  267MOL0     C35118   7.721   6.251   6.615 -0.4714  0.2849  0.1234
  267MOL0     C35119   7.707   6.111   6.618  1.5099  0.1856  0.5509
  267MOL0     O35120   7.714   6.042   6.731 -0.1421  0.4126  0.1981
  267MOL0     C35121   7.638   6.083   6.841  0.4026 -0.4841 -0.5664
  267MOL0     C35122   7.610   5.952   6.923 -0.2571  0.3706  0.6487
  267MOL0     C35123   7.536   5.972   7.056 -0.9248  0.0121  0.8322
  267MOL0     C35124   7.507   5.835   7.125  0.2454 -0.2875 -0.2949
  267MOL0     C35125   7.399   5.846   7.238  0.7984  0.1854  0.5037
  267MOL0     C35126   7.435   5.947   7.343  0.6626 -0.7450  0.2933
  267MOL0     C35127   7.335   5.930   7.458  0.2132 -0.5515  0.3389
  267MOL0     C35128   7.340   6.048   7.558  0.3488 -0.8286  0.3277
  267MOL0     N35129   7.218   6.060   7.637  0.0334 -0.4949 -0.8476
  267MOL0     C35130   7.161   5.957   7.712 -0.8824 -0.4607 -0.1466
  267MOL0     C35131   7.089   6.012   7.806 -0.0965 -0.8152  0.2804
  267MOL0     C35132   6.995   5.937   7.886 -0.0577 -0.2325 -0.3498
  267MOL0     C35133   6.883   6.012   7.948  0.2880 -0.0209  0.0365
  267MOL0     C35134   6.780   5.936   8.016  0.1162  0.6455 -0.3779
  267MOL0     C35135   6.655   6.018   8.030  0.4331 -0.4532 -0.8535
  267MOL0     O35136   6.559   5.912   8.047  0.8442 -0.3861 -0.5156
  267MOL0     C35137   6.431   5.928   8.015  0.3013  0.6820 -0.4524
  267MOL0     C35138   6.398   5.993   7.892 -0.1275  0.0261  0.6355
  267MOL0     C35139   6.262   5.988   7.851 -1.3549 -0.7317  0.2298
  267MOL0     C35140   6.166   5.939   7.933  0.8283  0.2994 -0.5101
  267MOL0     C35141   6.027   5.965   7.902  0.5252  0.4554 -0.1776
  267MOL0     O35142   5.993   6.015   7.785 -0.0842 -0.4303 -0.1213
  267MOL0     C35143   5.863   6.011   7.734 -0.2897 -0.5650 -0.5904
  267MOL0     C35144   5.761   5.924   7.768 -0.1081  0.1135 -0.4148
  267MOL0     C35145   5.638   5.934   7.698  0.1659  0.1085 -0.0915
  267MOL0     C35146   5.618   6.032   7.602 -0.2795 -1.2738 -0.8679
  267MOL0     O35147   5.495   6.029   7.541  0.0336 -0.1509 -0.1889
  267MOL0     C35148   5.378   6.074   7.614  0.4446  0.4074  0.4770
  267MOL0     C35149   5.255   6.094   7.522  0.1065  0.8532 -0.2087
  267MOL0     C35150   5.150   6.205   7.559  0.9310 -0.2675 -0.5938
  267MOL0     C35151   5.031   6.195   7.467 -0.5246 -0.1127  0.3758
  267MOL0     C35152   5.057   6.189   7.324  0.1154  0.8875  0.2091
  267MOL0     C35153   4.932   6.211   7.247  1.0745  0.7255  0.1359
  267MOL0     C35154   4.941   6.169   7.097  0.9195  0.0088  0.5303
  267MOL0     C35155   4.858   6.264   7.006  1.0298 -0.6362  0.6260
  267MOL0    Cl35156   4.689   6.277   7.076  0.1481 -0.2274  0.2724
  267MOL0     C35157   5.723   6.120   7.567  0.3527  0.2243  1.1092
  267MOL0     C35158   5.843   6.109   7.628 -0.0727 -0.3996  0.6383
  267MOL0     O35159   5.945   5.939   7.992 -0.5103 -0.1572 -0.2499
  267MOL0     C35160   6.199   5.879   8.050 -0.6219  0.8493  0.4270
  267MOL0     C35161   6.327   5.869   8.097  0.0771  0.4800  0.6029
  267MOL0     N35162   7.093   6.152   7.783  0.5571 -0.1189  0.2040
  267MOL0     N35163   7.188   6.173   7.705 -0.3679  0.3331  0.3116
  267MOL0     C35164   7.700   6.045   6.489  1.0211  0.2359 -0.7832
  267MOL0     C35165   7.672   6.127   6.379 -0.0542  0.2177  0.6388
  267MOL0     C35166   7.637   6.528   6.105  0.0010 -0.5387 -0.9719
  267MOL0     C35167   7.693   6.440   6.011  0.0949  0.1254  0.9873
  267MOL0     C35168   7.707   6.471   5.880  0.9222 -0.3153  0.2617
  267MOL0     C35169   7.668   6.597   5.835  0.2158 -0.5990  0.2455
  267MOL0     O35170   7.692   6.643   5.709  0.0209  0.1967  0.5383
  267MOL0     C35171   7.724   6.546   5.609 -0.1241 -0.8445 -0.3825
  267MOL0     C35172   7.744   6.621   5.480 -0.5124 -1.0120  0.2471
  267MOL0     C35173   7.622   6.711   5.445 -0.9682  0.8561 -1.3231
  267MOL0     C35174   7.583   6.700   5.301 -0.1011  0.1339  0.3996
  267MOL0     C35175   7.460   6.767   5.276  0.3721 -0.2750 -0.7582
  267MOL0     C35176   7.350   6.818   5.277  0.7040 -0.3006  0.3978
  267MOL0     C35177   7.597   6.681   5.923 -0.3020 -0.2615  0.5957
  267MOL0     C35178   7.589   6.656   6.065 -0.1316  0.2765  0.3879
  267MOL0     H35179   7.724   6.437   6.513  0.1034  0.1218  1.5291
  267MOL0     H35180   7.751   6.307   6.703 -3.5948  1.5082  0.5324
  267MOL0     H35181   7.540   6.126   6.821 -1.3164 -1.5857  4.1932
  267MOL0     H35182   7.696   6.151   6.904 -2.0663 -0.4051  1.7911
  267MOL0     H35183   7.709   5.909   6.943 -0.2581 -1.2688 -2.3595
  267MOL0     H35184   7.540   5.885   6.874  0.9381 -1.2057  0.9965
  267MOL0     H35185   7.442   6.026   7.040 -1.1115  0.0930  2.0707
  267MOL0     H35186   7.593   6.032   7.128  1.3183  0.3289 -1.0869
  267MOL0     H35187   7.458   5.777   7.046 -2.2550 -0.9137  1.5814
  267MOL0     H35188   7.599   5.781   7.149 -0.2083 -2.2029 -2.4827
  267MOL0     H35189   7.395   5.745   7.278  4.0839  0.3028  1.4216
  267MOL0     H35190   7.309   5.868   7.180  2.0940 -1.9029 -2.5932
  267MOL0     H35191   7.413   6.045   7.298  1.9411 -1.2242 -1.5251
  267MOL0     H35192   7.541   5.951   7.369  1.4020  1.4056 -2.4972
  267MOL0     H35193   7.237   5.919   7.409  0.9491  0.2544 -1.3998
  267MOL0     H35194   7.342   5.828   7.496  0.1372 -1.3437 -1.6149
  267MOL0     H35195   7.351   6.137   7.495  0.9660  1.0815  2.9481
  267MOL0     H35196   7.426   6.055   7.626  2.3688 -1.5855 -2.0307
  267MOL0     H35197   7.161   5.850   7.695  1.3583 -0.1156 -2.9750
  267MOL0     H35198   7.050   5.894   7.970 -4.2679  1.5038  3.7391
  267MOL0     H35199   6.947   5.854   7.834 -2.0032 -1.3678  2.9660
  267MOL0     H35200   6.832   6.066   7.868  0.7393 -1.8805 -1.5686
  267MOL0     H35201   6.929   6.079   8.022  2.4936 -1.1644 -0.2175
  267MOL0     H35202   6.762   5.853   7.946  3.8516 -0.0137 -0.7934
  267MOL0     H35203   6.823   5.901   8.110  2.0813  3.9719  0.1015
  267MOL0     H35204   6.635   6.088   7.948  2.9108  0.8344 -0.4791
  267MOL0     H35205   6.644   6.074   8.124 -1.2074 -0.3391 -1.0856
  267MOL0     H35206   6.459   6.056   7.828  1.4024 -0.8922  1.1139
  267MOL0     H35207   6.232   6.040   7.761  1.6567  0.8458  0.0250
  267MOL0     H35208   5.779   5.854   7.849  1.3929  1.9625  0.9400
  267MOL0     H35209   5.574   5.849   7.722  1.6130 -1.0985 -0.3440
  267MOL0     H35210   5.390   6.159   7.682  1.6120 -0.6973  1.6952
  267MOL0     H35211   5.346   5.992   7.680  0.3359 -0.9905 -1.2376
  267MOL0     H35212   5.209   5.996   7.507  0.1919  0.7328  0.3125
  267MOL0     H35213   5.293   6.117   7.422 -2.2395  1.0478 -1.1214
  267MOL0     H35214   5.202   6.300   7.544 -1.5836  1.4579  0.9792
  267MOL0     H35215   5.141   6.195   7.667  2.3221  1.0311 -0.3224
  267MOL0     H35216   4.969   6.107   7.489 -0.6163 -0.6402 -1.7977
  267MOL0     H35217   4.970   6.282   7.492 -1.2188 -0.7236  0.8554
  267MOL0     H35218   5.091   6.092   7.287 -1.0844  0.8753 -0.9409
  267MOL0     H35219   5.136   6.263   7.306  2.1933 -1.1246  0.5810
  267MOL0     H35220   4.906   6.316   7.262 -0.7148  0.5001 -1.0898
  267MOL0     H35221   4.849   6.146   7.278  0.7700 -0.5372 -2.9867
  267MOL0     H35222   5.043   6.165   7.057  0.3600 -2.1621 -0.8892
  267MOL0     H35223   4.904   6.066   7.103  3.4608 -0.9250  3.0828
  267MOL0     H35224   4.841   6.221   6.906  2.8149 -0.1571  0.0767
  267MOL0     H35225   4.910   6.359   6.990  1.0029 -0.3286  2.2494
  267MOL0     H35226   5.711   6.193   7.487 -1.4632  0.7922  1.8439
  267MOL0     H35227   5.920   6.172   7.585  0.9037 -3.3737 -2.3610
  267MOL0     H35228   6.126   5.839   8.121 -1.2732  2.8143  0.9491
  267MOL0     H35229   6.347   5.806   8.183  0.3224  0.6154  0.6486
  267MOL0     H35230   7.700   5.938   6.473  2.1089  0.2971 -1.2510
  267MOL0     H35231   7.679   6.081   6.281 -1.2617  3.1086 -0.9115
  267MOL0     H35232   7.728   6.339   6.033 -0.0753 -0.1723 -0.0686
  267MOL0     H35233   7.752   6.402   5.810 -1.2334  0.0554 -1.6023
  267MOL0     H35234   7.640   6.477   5.612  0.1210 -1.1003  2.3243
  267MOL0     H35235   7.817   6.496   5.637 -1.3049 -2.4102  0.8522
  267MOL0     H35236   7.832   6.685   5.473  2.2380 -4.4185  0.7018
  267MOL0     H35237   7.757   6.546   5.402  0.9254 -0.6706  0.1366
  267MOL0     H35238   7.645   6.815   5.472 -0.0044  1.1342 -3.0430
  267MOL0     H35239   7.530   6.686   5.498  1.2357 -1.1184  1.8546
  267MOL0     H35240   7.660   6.754   5.246 -0.2379  0.7341  0.7842
  267MOL0     H35241   7.580   6.598   5.263  1.1152  0.2218  0.0394
  267MOL0     H35242   7.250   6.858   5.275 -0.1417 -2.2712  0.3565
  267MOL0     H35243   7.555   6.774   5.887  1.8818  0.4997 -0.1546
  267MOL0     H35244   7.538   6.727   6.128  1.4798  2.6151 -0.7924
  268MOL0     O35245   3.893   6.806   4.022 -0.5168 -0.0917  0.1775
  268MOL0     C35246   3.894   6.712   3.952 -1.1513 -0.1627 -0.8757
  268MOL0     O35247   3.844   6.695   3.830  0.2735 -0.5676  0.5766
  268MOL0     C35248   3.768   6.802   3.787 -0.9079 -0.6615 -0.0964
  268MOL0     C35249   3.683   6.890   3.864  0.1624  0.3218 -0.3254
  268MOL0     C35250   3.608   6.996   3.803 -0.0187  0.7008 -0.6191
  268MOL0     C35251   3.595   6.996   3.667 -1.6905  0.7196  0.1721
  268MOL0     O35252   3.516   7.081   3.609  0.8351 -0.2599 -0.0075
  268MOL0     C35253   3.549   7.219   3.634  1.5660  0.3537  0.6553
  268MOL0     C35254   3.584   7.285   3.498  0.2671 -0.4133  1.5050
  268MOL0     C35255   3.477   7.256   3.396  0.1853  0.9878 -0.1508
  268MOL0     C35256   3.468   7.361   3.283 -0.7066  0.5387  0.1537
  268MOL0     C35257   3.348   7.325   3.184 -0.1227 -0.4951 -0.1108
  268MOL0     C35258   3.322   7.444   3.089 -0.0637 -0.0303 -1.2651
  268MOL0     C35259   3.222   7.420   2.975 -0.6639  0.0538 -0.0446
  268MOL0     C35260   3.171   7.550   2.924 -0.7054 -0.1992  0.1677
  268MOL0     N35261   3.066   7.529   2.819 -0.4744  1.1751  0.4466
  268MOL0     C35262   3.080   7.457   2.693  0.1202 -0.4561 -0.5548
  268MOL0     C35263   2.985   7.485   2.609  0.5931 -0.4645  0.3537
  268MOL0     C35264   2.964   7.457   2.466 -0.1957  0.5169  0.1488
  268MOL0     C35265   2.829   7.374   2.458  1.7736  0.2270  0.2903
  268MOL0     C35266   2.858   7.221   2.474  0.2973 -0.3254  0.6001
  268MOL0     C35267   2.739   7.133   2.428 -1.4417 -0.3558  0.3408
  268MOL0     O35268   2.622   7.127   2.515 -0.0390 -0.2238  0.7781
  268MOL0     C35269   2.512   7.200   2.490 -0.3165  0.1628  0.3792
  268MOL0     C35270   2.399   7.163   2.562 -0.5668 -0.1940 -0.3659
  268MOL0     C35271   2.266   7.167   2.514  0.0887 -0.0905  0.6178
  268MOL0     C35272   2.243   7.226   2.388 -0.0158  0.2182  0.7580
  268MOL0     C35273   2.114   7.230   2.326 -0.1273  0.0555 -0.9589
  268MOL0     O35274   2.088   7.338   2.231 -0.1012  1.4798  0.3446
  268MOL0     C35275   1.962   7.367   2.176  0.7447 -0.8994 -0.1092
  268MOL0     C35276   1.953   7.480   2.086  0.7120  0.0986 -0.8181
  268MOL0     C35277   1.835   7.526   2.030  0.8191 -0.4690 -0.1361
  268MOL0     C35278   1.706   7.467   2.060 -0.7007 -0.4252  0.5654
  268MOL0     O35279   1.589   7.519   2.008  0.1210 -0.5107 -0.4094
  268MOL0     C35280   1.490   7.421   1.972 -0.5898  0.8700  0.2286
  268MOL0     C35281   1.378   7.505   1.895  0.1282 -0.2658  0.2652
  268MOL0     C35282   1.333   7.400   1.783  0.4556 -0.4491 -0.0243
  268MOL0     C35283   1.221   7.468   1.697  0.3479 -0.4723 -0.6409
  268MOL0     C35284   1.133   7.358   1.625 -0.4543  0.4367 -0.3914
  268MOL0     C35285   1.042   7.412   1.517  0.0188  1.2481 -0.2307
  268MOL0     C35286   0.973   7.309   1.429 -0.1074  0.0120 -0.0345
  268MOL0     C35287   0.907   7.197   1.503  0.7419  0.0146 -0.7907
  268MOL0    Cl35288   0.838   7.075   1.412  0.2770  0.5176 -0.2028
  268MOL0     C35289   1.705   7.358   2.156 -0.3951 -0.3495 -0.1056
  268MOL0     C35290   1.837   7.303   2.198  0.8812  0.3073  0.5450
  268MOL0     O35291   2.035   7.146   2.371 -0.4277 -0.1413 -0.2127
  268MOL0     C35292   2.352   7.291   2.332 -0.3262  0.1408 -0.1230
  268MOL0     C35293   2.486   7.277   2.373  0.5656 -0.8104  0.5781
  268MOL0     N35294   2.890   7.555   2.683 -0.0126 -0.2982  0.4640
  268MOL0     N35295   2.940   7.585   2.802  0.0566 -0.3685  0.0519
  268MOL0     C35296   3.661   6.906   3.583  0.6629  0.8160  0.4754
  268MOL0     C35297   3.743   6.815   3.649 -0.1146 -0.0062 -0.4388
  268MOL0     C35298   3.971   6.600   4.007 -0.1340 -0.0211 -0.0960
  268MOL0     C35299   3.988   6.587   4.146 -0.1785  0.3023 -0.7841
  268MOL0     C35300   4.059   6.480   4.195  0.1179  1.1860 -0.3623
  268MOL0     C35301   4.109   6.372   4.114  0.1259 -0.5702 -0.5652
  268MOL0     O35302   4.188   6.264   4.150  0.3224  0.0468  0.2077
  268MOL0     C35303   4.185   6.219   4.291 -0.4943 -0.1152  0.1375
  268MOL0     C35304   4.048   6.156   4.327  0.7383 -1.0511 -0.4291
  268MOL0     C35305   3.963   6.104   4.218  0.0594 -0.8607  1.6603
  268MOL0     C35306   4.022   6.004   4.119  0.0977 -0.0053  0.4777
  268MOL0     C35307   4.051   5.867   4.168 -0.3601  0.1103  0.0569
  268MOL0     C35308   4.078   5.750   4.192  0.4602  0.6995 -0.3841
  268MOL0     C35309   4.081   6.379   3.981  0.9954  0.0841 -0.2883
  268MOL0     C35310   4.017   6.494   3.924 -0.3848  0.6079 -0.4041
  268MOL0     H35311   3.676   6.880   3.972  0.6581  1.9348 -0.1297
  268MOL0     H35312   3.547   7.072   3.851 -1.4135 -0.6324 -0.2020
  268MOL0     H35313   3.628   7.236   3.707  2.1865 -0.9389  0.3094
  268MOL0     H35314   3.462   7.271   3.675  1.3802  0.8363 -0.3077
  268MOL0     H35315   3.679   7.246   3.461 -2.5130 -1.3206 -6.5772
  268MOL0     H35316   3.600   7.392   3.513  1.4658 -0.0859 -1.4254
  268MOL0     H35317   3.382   7.248   3.451  1.1829 -0.0717  1.5389
  268MOL0     H35318   3.488   7.156   3.354 -1.2848  0.9285 -0.4521
  268MOL0     H35319   3.439   7.453   3.333 -2.7133 -0.5396  1.1272
  268MOL0     H35320   3.565   7.362   3.231 -0.8964 -2.9178 -0.5217
  268MOL0     H35321   3.254   7.305   3.237  0.9725 -0.5504  1.9160
  268MOL0     H35322   3.386   7.236   3.134  1.1428  1.0276 -1.9530
  268MOL0     H35323   3.411   7.479   3.035  0.1757  1.0839 -0.1860
  268MOL0     H35324   3.291   7.535   3.142 -1.2107  0.2162 -2.3241
  268MOL0     H35325   3.274   7.358   2.901  1.5186 -0.0506  1.4987
  268MOL0     H35326   3.135   7.370   3.019  1.2940 -0.9109  3.0359
  268MOL0     H35327   3.250   7.603   2.871 -0.7946  1.8964  1.9847
  268MOL0     H35328   3.134   7.620   3.000 -0.0704  1.5862 -1.0978
  268MOL0     H35329   3.170   7.400   2.675 -0.8602 -2.0873 -0.4645
  268MOL0     H35330   3.049   7.402   2.424  2.2058  1.6788  3.1105
  268MOL0     H35331   2.951   7.548   2.407  0.9921 -0.2122 -1.2998
  268MOL0     H35332   2.780   7.402   2.364  0.4777  4.3104  1.9311
  268MOL0     H35333   2.755   7.410   2.529 -0.5776 -2.2136 -0.7672
  268MOL0     H35334   2.948   7.208   2.414  0.5729  0.9508  0.7011
  268MOL0     H35335   2.888   7.189   2.574 -2.9741  0.1696  1.8873
  268MOL0     H35336   2.766   7.027   2.426 -4.4725 -1.2832  1.9029
  268MOL0     H35337   2.706   7.154   2.326 -3.4595  0.8687  1.1757
  268MOL0     H35338   2.414   7.119   2.660 -2.4289 -5.3553 -2.0528
  268MOL0     H35339   2.193   7.140   2.589  1.4989  1.5482  2.7469
  268MOL0     H35340   2.044   7.540   2.084 -0.3723  1.8293 -0.3775
  268MOL0     H35341   1.827   7.615   1.968 -1.7984  0.2567  1.1224
  268MOL0     H35342   1.437   7.368   2.052 -4.0549  1.3063 -1.5583
  268MOL0     H35343   1.536   7.350   1.903 -2.4081 -0.6949  0.5312
  268MOL0     H35344   1.414   7.594   1.843  0.8095 -0.1519  0.9014
  268MOL0     H35345   1.292   7.540   1.952 -2.7471 -2.3028 -2.5366
  268MOL0     H35346   1.288   7.317   1.839  1.2239  0.0587  1.3954
  268MOL0     H35347   1.420   7.369   1.724 -1.0895 -4.1423 -0.6758
  268MOL0     H35348   1.157   7.540   1.750  3.6992  1.2838  1.3398
  268MOL0     H35349   1.285   7.515   1.623  0.7713 -2.6324 -1.7356
  268MOL0     H35350   1.082   7.299   1.702  1.5090 -1.2973 -0.3314
  268MOL0     H35351   1.203   7.289   1.578  0.7657  1.0791  0.4163
  268MOL0     H35352   1.088   7.492   1.459 -1.9090  3.3925  1.0269
  268MOL0     H35353   0.970   7.469   1.576  0.9039 -0.0008  2.1751
  268MOL0     H35354   0.905   7.359   1.358  0.2186  2.1015  1.0407
  268MOL0     H35355   1.044   7.255   1.366 -2.5786 -3.7004  0.0179
  268MOL0     H35356   0.822   7.251   1.546  1.0113  0.9386 -1.3996
  268MOL0     H35357   0.971   7.150   1.578 -0.8679  0.1331  0.7410
  268MOL0     H35358   1.609   7.313   2.178 -0.3170 -1.0822 -1.1676
  268MOL0     H35359   1.833   7.206   2.246 -1.2114  0.1103  0.0712
  268MOL0     H35360   2.339   7.353   2.244 -4.2626 -0.4474 -0.1233
  268MOL0     H35361   2.567   7.310   2.309 -0.1992 -0.1456 -0.0638
  268MOL0     H35362   3.634   6.897   3.479 -1.1600  0.3957  0.9536
  268MOL0     H35363   3.782   6.737   3.584 -0.9041 -0.7175 -0.0777
  268MOL0     H35364   3.945   6.655   4.219  0.0004  1.0591 -1.3803
  268MOL0     H35365   4.066   6.469   4.303  0.4644 -0.3093 -0.5217
  268MOL0     H35366   4.213   6.300   4.360 -1.8804 -1.4350  2.3386
  268MOL0     H35367   4.260   6.139   4.293  0.2406  0.5534 -0.2084
  268MOL0     H35368   4.053   6.083   4.408  1.8306 -2.2623 -1.5415
  268MOL0     H35369   3.994   6.244   4.365 -0.6937 -1.3435 -1.6860
  268MOL0     H35370   3.938   6.187   4.151 -0.4227 -1.6647  0.8218
  268MOL0     H35371   3.867   6.080   4.264 -0.9756  3.4569  2.2201
  268MOL0     H35372   3.945   5.999   4.042 -0.0413  2.4032  0.3695
  268MOL0     H35373   4.117   6.044   4.081 -0.0409  0.8039  0.9423
  268MOL0     H35374   4.087   5.645   4.212  0.2096  1.0010  1.5780
  268MOL0     H35375   4.135   6.301   3.929  2.2152  1.1389 -0.6639
  268MOL0     H35376   4.011   6.511   3.817  2.5418  0.0193 -0.7419
  269MOL0     O35377   8.232   5.621   0.446  0.3195  0.9655 -0.5278
  269MOL0     C35378   8.351   5.623   0.480 -0.1401 -1.3220 -1.0315
  269MOL0     O35379   8.460   5.657   0.399  0.0762 -0.2238 -0.2414
  269MOL0     C35380   8.434   5.661   0.268 -0.4058 -0.8831 -0.6069
  269MOL0     C35381   8.519   5.746   0.207 -0.6229  0.2230  0.9702
  269MOL0     C35382   8.501   5.775   0.070 -0.0850  0.1086 -0.1394
  269MOL0     C35383   8.400   5.722  -0.008  0.1511 -0.9029 -0.5990
  269MOL0     O35384   8.391   5.770  -0.144  0.3398 -0.6298 -0.6529
  269MOL0     C35385   8.274   5.842  -0.172  0.0296 -0.1139  0.1126
  269MOL0     C35386   8.185   5.750  -0.244  0.3663  0.0850  0.0882
  269MOL0     C35387   8.031   5.772  -0.224 -0.2958 -0.0986  1.1326
  269MOL0     C35388   7.943   5.703  -0.334 -0.8303 -0.3489  0.3600
  269MOL0     C35389   7.791   5.742  -0.332  1.1228 -0.2786  0.6801
  269MOL0     C35390   7.711   5.705  -0.464 -0.3762 -0.0362 -0.0551
  269MOL0     C35391   7.563   5.736  -0.468  0.5627  0.7877 -0.5500
  269MOL0     C35392   7.476   5.624  -0.398  0.1018 -0.2739  0.4079
  269MOL0     N35393   7.484   5.497  -0.462  0.1703  0.1389  0.2161
  269MOL0     C35394   7.404   5.457  -0.564 -0.4577  0.9447 -0.0902
  269MOL0     C35395   7.421   5.321  -0.563  0.2674 -0.3252 -0.4115
  269MOL0     C35396   7.349   5.235  -0.653  0.6369  1.2547  1.7350
  269MOL0     C35397   7.196   5.236  -0.614 -1.0374 -1.1428 -0.2149
  269MOL0     C35398   7.145   5.105  -0.661 -0.5607  0.1324 -1.0768
  269MOL0     C35399   7.148   5.071  -0.805 -0.1571  0.6248 -0.1515
  269MOL0     O35400   7.102   4.941  -0.819  0.1728  0.4089 -0.5260
  269MOL0     C35401   6.995   4.928  -0.902 -0.2043 -0.2679  0.3674
  269MOL0     C35402   6.860   4.929  -0.862  0.0066  0.0456  0.1611
  269MOL0     C35403   6.751   4.908  -0.956  0.5924 -0.3098  0.0399
  269MOL0     C35404   6.775   4.905  -1.094  0.2289  0.1695  0.1200
  269MOL0     C35405   6.665   4.896  -1.199 -0.2249  0.5136  0.0645
  269MOL0     O35406   6.702   4.893  -1.331 -0.9017  0.9789 -0.4175
  269MOL0     C35407   6.617   4.863  -1.437 -0.0762 -0.2408  0.6135
  269MOL0     C35408   6.672   4.902  -1.560 -0.1512 -0.3416 -0.0321
  269MOL0     C35409   6.608   4.872  -1.679 -0.1003 -0.5283 -0.8301
  269MOL0     C35410   6.476   4.822  -1.678 -0.2353  0.2199 -0.0236
  269MOL0     O35411   6.401   4.802  -1.788  0.2844  0.3690 -0.3226
  269MOL0     C35412   6.449   4.710  -1.894  0.8937  0.5024 -0.1613
  269MOL0     C35413   6.329   4.696  -1.990  1.3547 -0.1672 -1.1651
  269MOL0     C35414   6.304   4.825  -2.068  0.5125 -0.0087  0.3260
  269MOL0     C35415   6.218   4.789  -2.197 -0.7662 -0.4883 -0.6774
  269MOL0     C35416   6.201   4.904  -2.299  0.5509  0.3740 -0.6542
  269MOL0     C35417   6.153   4.860  -2.438  0.0178  0.0162 -0.5585
  269MOL0     C35418   6.005   4.811  -2.439  0.6558  0.2305 -0.0718
  269MOL0     C35419   5.906   4.928  -2.413  0.0052  0.0193 -0.3158
  269MOL0    Cl35420   5.751   4.880  -2.337 -0.0880 -0.5274  0.3849
  269MOL0     C35421   6.426   4.780  -1.552  0.0242 -0.0199  0.6695
  269MOL0     C35422   6.495   4.799  -1.438 -0.3396  0.0760  0.1121
  269MOL0     O35423   6.552   4.887  -1.161  0.5793  0.5058 -0.5379
  269MOL0     C35424   6.909   4.909  -1.131  0.3012  0.1618 -0.2461
  269MOL0     C35425   7.010   4.913  -1.042  0.4019 -0.9503 -0.2285
  269MOL0     N35426   7.510   5.290  -0.461 -0.5712  0.1513  0.1928
  269MOL0     N35427   7.550   5.392  -0.404 -0.2878  0.1967 -0.1960
  269MOL0     C35428   8.310   5.640   0.055 -0.3022 -0.1343  1.0427
  269MOL0     C35429   8.327   5.605   0.193 -0.3465  0.1236 -0.3656
  269MOL0     C35430   8.377   5.583   0.618  0.2299  0.9325  0.8182
  269MOL0     C35431   8.276   5.603   0.717  0.1981  0.4386  0.2634
  269MOL0     C35432   8.294   5.573   0.851 -0.2237  0.8048  0.5382
  269MOL0     C35433   8.421   5.516   0.884  0.3761  0.2850  0.1734
  269MOL0     O35434   8.432   5.494   1.018 -0.1756  0.6104 -0.3991
  269MOL0     C35435   8.531   5.409   1.086 -0.1355 -0.3308 -0.8931
  269MOL0     C35436   8.661   5.491   1.092 -0.3653  0.0376  0.2320
  269MOL0     C35437   8.781   5.423   1.172  0.1593 -1.0125 -0.2216
  269MOL0     C35438   8.825   5.295   1.117 -0.4038  0.2257  0.2365
  269MOL0     C35439   8.924   5.302   1.005 -0.0814 -0.5110 -0.4648
  269MOL0     C35440   8.985   5.297   0.900  0.1789  0.9972  0.1166
  269MOL0     C35441   8.518   5.486   0.791  0.9967 -0.7786  0.5378
  269MOL0     C35442   8.499   5.521   0.655 -0.9680  1.6752 -0.6166
  269MOL0     H35443   8.597   5.795   0.264  0.0575  1.3969 -0.8705
  269MOL0     H35444   8.578   5.821   0.009  0.2984 -0.3916 -0.0378
  269MOL0     H35445   8.288   5.930  -0.235  2.1312 -0.4628  0.0416
  269MOL0     H35446   8.230   5.871  -0.076  4.3019 -0.1271  2.2765
  269MOL0     H35447   8.197   5.643  -0.228 -2.9669 -0.4462 -0.2223
  269MOL0     H35448   8.217   5.773  -0.346 -1.6423 -2.1267 -1.1369
  269MOL0     H35449   8.015   5.880  -0.235  0.3282 -0.1662 -1.0963
  269MOL0     H35450   8.000   5.737  -0.125 -0.0908  0.9146  1.5660
  269MOL0     H35451   7.983   5.742  -0.428 -3.6023  1.5958 -0.1623
  269MOL0     H35452   7.963   5.596  -0.337  1.7430  0.0928 -0.0391
  269MOL0     H35453   7.778   5.848  -0.307 -1.4701 -1.1478  3.6865
  269MOL0     H35454   7.733   5.686  -0.258  0.2798  0.3940  0.5484
  269MOL0     H35455   7.729   5.602  -0.494 -0.3261  0.2604 -1.0736
  269MOL0     H35456   7.762   5.776  -0.529 -1.4371  0.5201 -0.3155
  269MOL0     H35457   7.555   5.832  -0.417  0.3586  0.4097  0.1455
  269MOL0     H35458   7.530   5.743  -0.573  3.8422  0.5888 -1.7225
  269MOL0     H35459   7.376   5.667  -0.394  1.1045  2.3024 -0.3207
  269MOL0     H35460   7.513   5.627  -0.296  1.3086 -2.8505  0.1302
  269MOL0     H35461   7.327   5.510  -0.620  1.2241  0.0688 -3.4650
  269MOL0     H35462   7.380   5.131  -0.648 -3.8882 -0.6486 -2.3228
  269MOL0     H35463   7.358   5.281  -0.751 -2.1033  0.9470  1.2506
  269MOL0     H35464   7.142   5.326  -0.644 -1.0636 -0.2007  2.3426
  269MOL0     H35465   7.188   5.226  -0.505 -0.4482 -2.8860 -0.3052
  269MOL0     H35466   7.195   5.024  -0.607 -0.8417  1.2868  1.0133
  269MOL0     H35467   7.041   5.092  -0.629 -0.5669 -1.3071 -1.5996
  269MOL0     H35468   7.252   5.071  -0.838 -0.1355 -1.4593 -0.2363
  269MOL0     H35469   7.086   5.144  -0.857  0.9027  1.5134 -0.1955
  269MOL0     H35470   6.845   4.956  -0.758 -2.5879 -1.6793  0.3094
  269MOL0     H35471   6.648   4.901  -0.924  0.5423  2.3733  0.7353
  269MOL0     H35472   6.765   4.957  -1.553 -3.1479  5.3559  4.2339
  269MOL0     H35473   6.635   4.898  -1.781 -4.2790 -0.0769 -2.0052
  269MOL0     H35474   6.477   4.614  -1.850  1.7156  0.0939 -1.5382
  269MOL0     H35475   6.537   4.752  -1.943  0.1901  0.8322 -1.1790
  269MOL0     H35476   6.244   4.666  -1.928  0.3919  1.5069 -1.6324
  269MOL0     H35477   6.371   4.612  -2.047  0.8173 -1.2796  0.0285
  269MOL0     H35478   6.394   4.870  -2.112 -0.7484 -0.0742 -2.5029
  269MOL0     H35479   6.241   4.900  -2.019 -2.2089 -2.0657  0.1678
  269MOL0     H35480   6.273   4.704  -2.237  0.1398 -1.6616  2.7677
  269MOL0     H35481   6.121   4.743  -2.178 -0.8590 -1.8920 -3.9146
  269MOL0     H35482   6.297   4.954  -2.316  0.5023  1.1581  1.2217
  269MOL0     H35483   6.134   4.979  -2.256  0.7186 -0.5999  1.4139
  269MOL0     H35484   6.214   4.773  -2.465 -1.0028 -1.9607  2.9304
  269MOL0     H35485   6.161   4.941  -2.511 -3.0328  1.1277  0.1878
  269MOL0     H35486   5.984   4.760  -2.533  2.5898 -0.4205 -0.1984
  269MOL0     H35487   5.993   4.747  -2.352  2.0632 -0.2645 -0.2001
  269MOL0     H35488   5.881   4.980  -2.506 -0.5772  0.4343  0.0680
  269MOL0     H35489   5.946   5.003  -2.344 -2.3061 -1.0684  2.3964
  269MOL0     H35490   6.321   4.752  -1.554  0.5485 -2.1775 -1.9972
  269MOL0     H35491   6.440   4.779  -1.347 -0.1337  3.0858  1.0273
  269MOL0     H35492   6.932   4.918  -1.237 -2.6815  1.4608 -0.8770
  269MOL0     H35493   7.113   4.931  -1.072  0.4400  1.2999  1.0603
  269MOL0     H35494   8.231   5.598  -0.007 -1.6615  0.3800  2.3675
  269MOL0     H35495   8.254   5.535   0.231  0.3315 -0.1169  0.5232
  269MOL0     H35496   8.184   5.647   0.678  0.3597 -2.4394 -4.1054
  269MOL0     H35497   8.221   5.584   0.930  0.6602 -1.8569  1.8476
  269MOL0     H35498   8.545   5.310   1.041 -0.3295 -0.5937 -0.3748
  269MOL0     H35499   8.494   5.386   1.186  0.6394 -1.4768 -0.8486
  269MOL0     H35500   8.707   5.520   0.997  0.2238  0.0160  0.5111
  269MOL0     H35501   8.629   5.585   1.136  0.2997  0.2505  0.2675
  269MOL0     H35502   8.756   5.416   1.278  2.3162  1.4848  0.5457
  269MOL0     H35503   8.870   5.485   1.173 -0.2336 -0.3474  2.5494
  269MOL0     H35504   8.875   5.239   1.196 -1.8204 -2.3149 -0.5412
  269MOL0     H35505   8.734   5.243   1.085 -0.6992  1.6514 -1.4115
  269MOL0     H35506   9.052   5.270   0.821 -1.6664  0.9787 -1.5069
  269MOL0     H35507   8.613   5.443   0.822  2.8576 -0.0901 -3.5666
  269MOL0     H35508   8.564   5.487   0.575 -2.5321 -3.4555 -0.0888
  270MOL0     O35509   6.750  10.091   1.483 -0.0455 -0.3607  0.6590
  270MOL0     C35510   6.679  10.078   1.581  0.6592 -0.1742  0.7712
  270MOL0     O35511   6.720  10.035   1.700  0.3937 -0.0570 -0.1625
  270MOL0     C35512   6.849   9.993   1.714  0.2792 -0.7079 -0.7253
  270MOL0     C35513   6.927  10.063   1.797 -0.8065 -0.4802 -0.2797
  270MOL0     C35514   7.061  10.027   1.830  0.7367  0.2134  0.1619
  270MOL0     C35515   7.118   9.916   1.761  0.2328 -0.5965  0.2287
  270MOL0     O35516   7.247   9.884   1.793  0.2492 -0.1279 -1.2660
  270MOL0     C35517   7.320   9.791   1.715  0.1197  0.2196 -0.3011
  270MOL0     C35518   7.453   9.767   1.778 -0.1621  0.9079  0.3438
  270MOL0     C35519   7.464   9.631   1.853 -0.9502  0.5208 -0.0393
  270MOL0     C35520   7.577   9.615   1.964  0.2522 -0.2255  1.1116
  270MOL0     C35521   7.707   9.580   1.889  0.6257  0.3895 -0.3468
  270MOL0     C35522   7.823   9.598   1.982 -0.1513 -1.2713  0.5011
  270MOL0     C35523   7.963   9.574   1.922 -0.6728 -0.6285  0.5590
  270MOL0     C35524   7.996   9.432   1.905 -0.5012  0.4327 -0.4055
  270MOL0     N35525   7.992   9.353   2.035 -0.2771 -0.4193  0.0471
  270MOL0     C35526   8.050   9.399   2.153  0.2720 -0.3032  0.7645
  270MOL0     C35527   7.991   9.320   2.252 -0.0485 -0.2376 -0.4080
  270MOL0     C35528   8.009   9.333   2.406 -0.4892  1.1028 -0.8532
  270MOL0     C35529   8.029   9.470   2.477 -0.0120 -0.2363 -1.0278
  270MOL0     C35530   7.943   9.584   2.418  0.5305 -1.5292 -0.0332
  270MOL0     C35531   7.994   9.709   2.481 -0.3061 -0.0683 -0.1515
  270MOL0     O35532   7.911   9.823   2.418 -0.9813  1.0061  1.0910
  270MOL0     C35533   7.819   9.890   2.489  0.5556  0.5862 -0.2919
  270MOL0     C35534   7.682   9.906   2.445 -0.4753  0.4835 -0.2209
  270MOL0     C35535   7.592   9.977   2.526  0.7237  0.7840 -0.6178
  270MOL0     C35536   7.632  10.046   2.641 -0.4094 -0.7130  0.6981
  270MOL0     C35537   7.523  10.100   2.732  0.1995 -0.9370  0.7049
  270MOL0     O35538   7.407  10.130   2.671 -0.0284 -1.2443 -0.1212
  270MOL0     C35539   7.301  10.206   2.737 -0.0165 -0.5880 -0.3651
  270MOL0     C35540   7.177  10.224   2.679  0.0708  0.2228  0.1017
  270MOL0     C35541   7.066  10.298   2.734 -0.3704  2.0584 -0.9394
  270MOL0     C35542   7.084  10.353   2.857  0.1904  0.2021 -0.8458
  270MOL0     O35543   6.984  10.410   2.926 -0.4318 -1.0804 -0.0034
  270MOL0     C35544   6.872  10.468   2.852 -0.0057  0.1371  0.1571
  270MOL0     C35545   6.767  10.521   2.943 -0.2592  0.8952  0.0195
  270MOL0     C35546   6.636  10.548   2.861 -0.1871  0.0539 -0.5459
  270MOL0     C35547   6.527  10.599   2.954 -1.5179  0.0109 -1.2342
  270MOL0     C35548   6.389  10.590   2.895 -0.3592 -0.4219 -0.4830
  270MOL0     C35549   6.281  10.654   2.984 -0.6534  0.5834 -0.8032
  270MOL0     C35550   6.179  10.715   2.887  0.6862 -0.4270  0.1900
  270MOL0     C35551   6.065  10.784   2.975  0.3787  0.7270 -0.0075
  270MOL0    Cl35552   5.978  10.642   3.061 -0.0002 -0.2573  0.3477
  270MOL0     C35553   7.215  10.367   2.903 -0.9609  0.4277 -0.3461
  270MOL0     C35554   7.324  10.299   2.849 -0.1787  1.1481  0.3826
  270MOL0     O35555   7.545  10.106   2.854 -0.1764  0.3197  0.3461
  270MOL0     C35556   7.770  10.048   2.676 -0.1627  0.6398  0.4997
  270MOL0     C35557   7.857   9.962   2.602  0.0846  0.2205  0.8311
  270MOL0     N35558   7.897   9.246   2.188 -1.2539  0.7371  0.5699
  270MOL0     N35559   7.888   9.278   2.064 -0.8108 -0.6586  0.5923
  270MOL0     C35560   7.036   9.847   1.666 -0.6536  0.1772  0.1031
  270MOL0     C35561   6.907   9.884   1.649  0.3167  0.5027  0.2506
  270MOL0     C35562   6.538  10.118   1.557 -0.3491  0.2204 -1.3157
  270MOL0     C35563   6.471  10.156   1.678 -0.8890  0.8488 -0.7417
  270MOL0     C35564   6.341  10.207   1.672 -0.0222 -0.0127  0.6812
  270MOL0     C35565   6.276  10.216   1.544  0.0371 -1.0396  1.6836
  270MOL0     O35566   6.151  10.263   1.552 -0.0735 -0.7745 -0.2488
  270MOL0     C35567   6.073  10.287   1.438  0.2768  0.2818  0.0947
  270MOL0     C35568   5.942  10.361   1.472 -0.2166  0.9206 -0.7784
  270MOL0     C35569   5.962  10.512   1.490 -0.0122  1.1592 -0.4855
  270MOL0     C35570   5.825  10.572   1.508 -0.5276  0.5894 -0.4493
  270MOL0     C35571   5.757  10.540   1.633  0.2071 -0.4629 -1.0065
  270MOL0     C35572   5.691  10.523   1.739 -0.1661 -0.5247 -0.4976
  270MOL0     C35573   6.344  10.172   1.420  0.1633  0.7840  0.1310
  270MOL0     C35574   6.470  10.121   1.433  0.7184 -0.6006  0.0143
  270MOL0     H35575   6.887  10.150   1.849  1.6173 -1.2021  3.2074
  270MOL0     H35576   7.123  10.087   1.897  0.8803  0.5536 -0.2719
  270MOL0     H35577   7.337   9.838   1.618  1.7959  2.7188  1.0974
  270MOL0     H35578   7.271   9.693   1.708  0.3404  0.1400 -0.7762
  270MOL0     H35579   7.497   9.844   1.842  2.9236  0.0061 -0.5051
  270MOL0     H35580   7.534   9.764   1.705  1.4644  2.6370  1.9286
  270MOL0     H35581   7.481   9.544   1.789  0.3540 -0.2140  1.2372
  270MOL0     H35582   7.372   9.614   1.910 -1.2738  2.8881  0.2430
  270MOL0     H35583   7.584   9.709   2.020  1.4142  1.2831 -1.3978
  270MOL0     H35584   7.550   9.529   2.026 -0.1163 -1.9408 -1.2957
  270MOL0     H35585   7.713   9.653   1.808 -0.4345 -0.8511 -1.5837
  270MOL0     H35586   7.700   9.488   1.830  2.6303 -0.0941  0.1115
  270MOL0     H35587   7.815   9.536   2.072 -1.6469 -1.3329  0.3514
  270MOL0     H35588   7.822   9.705   2.006  0.7236 -1.0506 -0.3923
  270MOL0     H35589   7.959   9.623   1.824 -1.9844  0.9776  1.3728
  270MOL0     H35590   8.034   9.624   1.989  0.9435 -1.1158 -0.7172
  270MOL0     H35591   8.101   9.440   1.874 -0.5624  0.9970 -0.4769
  270MOL0     H35592   7.945   9.383   1.821  1.8065 -1.3973 -0.8546
  270MOL0     H35593   8.125   9.476   2.168  0.3640 -0.2902  0.2468
  270MOL0     H35594   8.094   9.268   2.427  0.8967  3.6328  2.1225
  270MOL0     H35595   7.926   9.282   2.456 -0.7071 -0.0903 -2.3687
  270MOL0     H35596   8.131   9.506   2.465 -1.1519  3.8503 -0.1783
  270MOL0     H35597   8.024   9.456   2.586 -2.8113  1.0022 -0.8913
  270MOL0     H35598   7.968   9.595   2.312 -2.3326  1.0949 -0.5787
  270MOL0     H35599   7.834   9.579   2.431  0.5819 -3.1329 -0.0127
  270MOL0     H35600   8.101   9.725   2.467 -0.6566  0.6741 -2.2209
  270MOL0     H35601   7.979   9.696   2.589  2.2262  0.5392  0.3366
  270MOL0     H35602   7.646   9.847   2.361 -0.1199  0.8048 -0.6064
  270MOL0     H35603   7.485   9.982   2.513  0.9452  2.4333 -2.3862
  270MOL0     H35604   7.160  10.175   2.584  1.2903  0.5740 -0.3082
  270MOL0     H35605   6.967  10.290   2.689 -0.0923 -0.8200 -1.2717
  270MOL0     H35606   6.827  10.395   2.784  1.9012  0.3094 -1.3730
  270MOL0     H35607   6.913  10.547   2.789 -2.0955  1.2539  0.1216
  270MOL0     H35608   6.816  10.605   2.993  0.4221  1.1643 -1.0743
  270MOL0     H35609   6.742  10.451   3.023  1.6009  1.3973  1.0986
  270MOL0     H35610   6.597  10.449   2.837 -1.8768  0.0720  1.7287
  270MOL0     H35611   6.653  10.597   2.765  0.1193 -2.1948 -1.7054
  270MOL0     H35612   6.539  10.542   3.047  0.0382  4.1393  1.3859
  270MOL0     H35613   6.563  10.698   2.984  0.4185 -1.6762  2.8871
  270MOL0     H35614   6.366  10.487   2.867 -0.6425 -0.7630  0.9113
  270MOL0     H35615   6.396  10.640   2.798  2.1189 -0.2970 -0.2872
  270MOL0     H35616   6.329  10.742   3.029 -0.2309  0.0010 -0.1067
  270MOL0     H35617   6.241  10.588   3.061  0.8596 -1.7870 -1.9480
  270MOL0     H35618   6.224  10.778   2.810 -0.8380 -0.4561 -0.7759
  270MOL0     H35619   6.133  10.640   2.822  2.6294 -1.3966 -0.1526
  270MOL0     H35620   5.997  10.817   2.896 -1.9469 -5.0498 -0.9420
  270MOL0     H35621   6.107  10.859   3.041  0.8169 -0.0006  0.5549
  270MOL0     H35622   7.227  10.442   2.981 -1.1945  3.2307 -2.8445
  270MOL0     H35623   7.420  10.314   2.897  0.8497 -1.0547 -0.8443
  270MOL0     H35624   7.797  10.120   2.753  0.7603  0.5349  0.2825
  270MOL0     H35625   7.962   9.953   2.629  1.0320 -0.3303 -2.5488
  270MOL0     H35626   7.076   9.754   1.628  2.2818  1.7881 -1.1077
  270MOL0     H35627   6.847   9.823   1.582  1.0725 -0.8885  0.7971
  270MOL0     H35628   6.528  10.160   1.771 -0.5022 -1.1034 -0.8629
  270MOL0     H35629   6.290  10.257   1.754  0.1348  2.8078 -0.8226
  270MOL0     H35630   6.045  10.200   1.378  0.1557  1.0661 -1.0146
  270MOL0     H35631   6.125  10.348   1.363  1.7232 -0.8082  0.1644
  270MOL0     H35632   5.868  10.339   1.394  1.3332  0.7392 -2.2511
  270MOL0     H35633   5.902  10.308   1.559  0.0663  0.3963 -0.9687
  270MOL0     H35634   6.009  10.542   1.396  1.7434  2.2255  0.6852
  270MOL0     H35635   6.027  10.534   1.574  2.5631  2.2305 -2.6095
  270MOL0     H35636   5.830  10.681   1.498 -4.3764  0.8761 -1.0140
  270MOL0     H35637   5.770  10.534   1.421  1.4757 -3.1433 -0.3087
  270MOL0     H35638   5.649  10.488   1.831 -1.0905  1.0244 -0.2900
  270MOL0     H35639   6.306  10.192   1.320 -2.2058  1.2897  1.0500
  270MOL0     H35640   6.520  10.097   1.339 -0.8036  1.3554 -1.4018
  271MOL0     O35641   1.584   9.184   8.686  0.0994 -0.5052  0.5597
  271MOL0     C35642   1.632   9.213   8.795  0.7103 -0.2577 -0.0207
  271MOL0     O35643   1.576   9.288   8.899  0.0505 -0.1577  0.3824
  271MOL0     C35644   1.462   9.353   8.876 -0.3181  0.1726 -0.3604
  271MOL0     C35645   1.341   9.289   8.842  0.0271  0.6857 -0.1473
  271MOL0     C35646   1.228   9.362   8.815  0.3946 -0.7216 -0.1612
  271MOL0     C35647   1.229   9.504   8.821  0.3291 -0.1309 -0.3232
  271MOL0     O35648   1.126   9.587   8.791 -0.2058 -0.6405  0.3097
  271MOL0     C35649   1.140   9.661   8.662  0.0035  0.7816  0.4995
  271MOL0     C35650   1.043   9.776   8.664  1.4196  0.7751  0.5052
  271MOL0     C35651   1.061   9.877   8.779 -0.6180  0.2163 -0.2966
  271MOL0     C35652   0.941   9.967   8.788  1.1062 -0.7555  0.3336
  271MOL0     C35653   0.939  10.052   8.923 -0.7035  0.6321  0.2047
  271MOL0     C35654   0.815  10.141   8.960  0.1226  0.4455  0.6267
  271MOL0     C35655   0.680  10.092   8.898  0.0778  0.0174  0.3298
  271MOL0     C35656   0.563  10.186   8.931 -0.2135 -0.9510  0.8169
  271MOL0     N35657   0.442  10.132   8.874 -0.1611 -0.7460 -1.3903
  271MOL0     C35658   0.341  10.077   8.944  0.3028  0.6208 -0.4411
  271MOL0     C35659   0.263  10.028   8.848 -0.8124  0.9124 -0.8782
  271MOL0     C35660   0.156   9.924   8.855 -0.2292  0.1517  0.9191
  271MOL0     C35661   0.045   9.934   8.961 -0.1481 -0.6207 -0.1301
  271MOL0     C35662  -0.020  10.070   8.961  0.7239  1.1304 -0.0802
  271MOL0     C35663  -0.125  10.074   9.066 -0.0672 -0.2741 -0.5320
  271MOL0     O35664  -0.188  10.206   9.073  0.2379  0.1269  0.4828
  271MOL0     C35665  -0.312  10.204   9.122  0.5496  0.0076 -0.3388
  271MOL0     C35666  -0.340  10.180   9.259 -0.3865 -0.4180  0.5036
  271MOL0     C35667  -0.467  10.200   9.314  1.0323 -0.2517  0.1731
  271MOL0     C35668  -0.577  10.229   9.233  0.7221  0.1269  0.0534
  271MOL0     C35669  -0.708  10.210   9.289 -1.1282  0.7559  0.3107
  271MOL0     O35670  -0.717  10.170   9.424 -0.5236 -0.0146  0.6901
  271MOL0     C35671  -0.848  10.180   9.474  0.4857 -0.0836  0.3809
  271MOL0     C35672  -0.957  10.106   9.418 -0.2141  0.7677 -0.3336
  271MOL0     C35673  -1.083  10.130   9.475  0.1058 -0.6706  0.0320
  271MOL0     C35674  -1.098  10.217   9.589  0.2159  0.9642  0.6818
  271MOL0     O35675  -1.222  10.259   9.624 -0.0080 -0.0842 -0.0386
  271MOL0     C35676  -1.240  10.247   9.765 -0.1730  0.4425  0.3899
  271MOL0     C35677  -1.386  10.284   9.804 -1.1038  0.3516  0.1954
  271MOL0     C35678  -1.377  10.319   9.950  0.7659 -0.1448 -0.0284
  271MOL0     C35679  -1.512  10.379  10.012  0.1996  0.1471  0.1163
  271MOL0     C35680  -1.473  10.421  10.159 -0.2746 -0.7050  0.1466
  271MOL0     C35681  -1.597  10.487  10.216 -0.6905  0.4616  0.2394
  271MOL0     C35682  -1.587  10.505  10.363  1.0720  0.6652  0.2541
  271MOL0     C35683  -1.503  10.629  10.402  0.0857 -0.0093 -0.0019
  271MOL0    Cl35684  -1.481  10.637  10.580  0.1627 -0.5000 -0.3709
  271MOL0     C35685  -0.987  10.280   9.635  0.3528  0.0815  0.2849
  271MOL0     C35686  -0.861  10.256   9.590 -0.1190 -0.9781  0.1727
  271MOL0     O35687  -0.805  10.246   9.219  0.3998  0.7811  0.0582
  271MOL0     C35688  -0.553  10.251   9.101 -0.8954  0.0170 -0.6871
  271MOL0     C35689  -0.418  10.249   9.049  0.8851  0.2337 -0.0413
  271MOL0     N35690   0.315  10.060   8.723  0.7258  0.6383 -0.1120
  271MOL0     N35691   0.420  10.127   8.744 -0.7392  0.2749 -0.4380
  271MOL0     C35692   1.350   9.562   8.865  0.6363  0.4340 -0.1132
  271MOL0     C35693   1.459   9.488   8.889 -0.2488  0.8833  0.1235
  271MOL0     C35694   1.767   9.166   8.830  0.1582 -0.6190  0.0938
  271MOL0     C35695   1.853   9.239   8.910 -0.2216 -0.1404  0.2511
  271MOL0     C35696   1.977   9.179   8.925  0.1167 -0.2349  0.2114
  271MOL0     C35697   2.011   9.052   8.883  0.1909 -0.2188 -0.0895
  271MOL0     O35698   2.126   8.996   8.922  0.3899 -0.5873 -0.3162
  271MOL0     C35699   2.127   8.884   9.005 -0.0302 -0.6767  0.4524
  271MOL0     C35700   2.263   8.846   9.066  0.7982  0.1034  0.8244
  271MOL0     C35701   2.363   8.815   8.954 -0.3977 -0.2156 -0.6221
  271MOL0     C35702   2.489   8.756   9.015 -0.5106 -0.7644  0.3648
  271MOL0     C35703   2.542   8.817   9.141  0.2960 -1.0076  0.3286
  271MOL0     C35704   2.585   8.856   9.251 -0.1721  0.8290 -0.5292
  271MOL0     C35705   1.917   8.987   8.802 -0.5009  0.3298 -1.4044
  271MOL0     C35706   1.797   9.043   8.773 -0.1314  0.0013 -0.2459
  271MOL0     H35707   1.338   9.181   8.835  3.0627  0.4833  0.4462
  271MOL0     H35708   1.142   9.300   8.795  1.8451 -2.8179 -0.1797
  271MOL0     H35709   1.102   9.604   8.576  0.4536  2.2725 -0.7406
  271MOL0     H35710   1.238   9.703   8.638 -0.7824  1.9040 -0.9262
  271MOL0     H35711   0.941   9.736   8.668  0.5111  2.5889 -1.7445
  271MOL0     H35712   1.045   9.827   8.567  0.0814 -1.2522 -0.6476
  271MOL0     H35713   1.148   9.939   8.758 -0.4148  1.2534  2.9793
  271MOL0     H35714   1.084   9.827   8.874  0.8942 -1.1460 -1.3248
  271MOL0     H35715   0.930  10.036   8.704 -0.4194  0.5749  1.5435
  271MOL0     H35716   0.848   9.909   8.794 -1.9006  3.7163  3.1231
  271MOL0     H35717   1.024  10.121   8.921 -0.8954  0.8774  0.4702
  271MOL0     H35718   0.957   9.985   9.007  4.6403  0.4182 -0.7635
  271MOL0     H35719   0.821  10.236   8.906  1.2498  0.3469  0.5715
  271MOL0     H35720   0.822  10.158   9.068  0.6877  0.7527  0.5458
  271MOL0     H35721   0.677  10.078   8.789 -3.6960 -0.9530  0.4133
  271MOL0     H35722   0.650   9.990   8.924 -0.5418 -0.0225 -0.4861
  271MOL0     H35723   0.587  10.280   8.881  0.5718 -0.1318  2.6084
  271MOL0     H35724   0.570  10.201   9.040  1.2926 -0.7790  0.7247
  271MOL0     H35725   0.333  10.061   9.051 -0.3354  2.6845 -0.1340
  271MOL0     H35726   0.206   9.826   8.853  0.9479  0.6501 -3.4110
  271MOL0     H35727   0.101   9.928   8.761  0.3409 -2.1458  0.4147
  271MOL0     H35728   0.090   9.915   9.059  4.4403  4.0681 -0.9249
  271MOL0     H35729  -0.026   9.856   8.931  0.8249 -1.3740 -0.5393
  271MOL0     H35730   0.052  10.150   8.979  0.5616  1.8569 -2.3218
  271MOL0     H35731  -0.066  10.095   8.865  1.0506  2.6997  0.1576
  271MOL0     H35732  -0.085  10.041   9.162  1.0433  2.9473  0.2305
  271MOL0     H35733  -0.194   9.995   9.034  0.5136 -0.1289 -2.2418
  271MOL0     H35734  -0.263  10.144   9.326  0.5267  1.0710  0.2878
  271MOL0     H35735  -0.481  10.188   9.421 -0.1097  0.1524  0.0885
  271MOL0     H35736  -0.953  10.035   9.336 -1.2004  1.6861 -1.2067
  271MOL0     H35737  -1.176  10.090   9.439 -2.8599  2.7121  3.1019
  271MOL0     H35738  -1.175  10.313   9.823  0.1912 -1.1430  1.8887
  271MOL0     H35739  -1.208  10.150   9.805 -0.5254  0.5849  1.0208
  271MOL0     H35740  -1.452  10.201   9.776 -0.4641  0.0868 -0.5966
  271MOL0     H35741  -1.415  10.370   9.743 -0.6138  0.2576 -0.1808
  271MOL0     H35742  -1.299  10.388   9.981 -1.5516  2.2419  0.8670
  271MOL0     H35743  -1.352  10.229  10.008  2.6465  1.1247  1.2333
  271MOL0     H35744  -1.531  10.470   9.955  1.1324  2.0923  2.7391
  271MOL0     H35745  -1.598  10.313  10.000 -0.3684  0.0945  3.5498
  271MOL0     H35746  -1.395  10.497  10.154 -0.6911 -0.3168 -0.6300
  271MOL0     H35747  -1.443  10.337  10.223 -1.0257 -0.4915  0.7919
  271MOL0     H35748  -1.682  10.420  10.202  0.1834 -0.2322 -2.4214
  271MOL0     H35749  -1.605  10.581  10.161  1.4891  0.7331  0.3173
  271MOL0     H35750  -1.688  10.508  10.405 -0.5974  2.9897 -3.3845
  271MOL0     H35751  -1.541  10.415  10.405  2.6135 -0.6796 -3.7558
  271MOL0     H35752  -1.564  10.713  10.368 -1.3995 -0.0518  2.3056
  271MOL0     H35753  -1.404  10.619  10.356 -0.2586  0.9422 -0.9978
  271MOL0     H35754  -1.012  10.371   9.689 -1.7856 -0.8739  1.0069
  271MOL0     H35755  -0.774  10.312   9.623 -1.0187  0.0354  0.9078
  271MOL0     H35756  -0.638  10.258   9.034 -1.6741  0.4709  0.3035
  271MOL0     H35757  -0.416  10.267   8.942 -1.5563 -2.5741 -0.6899
  271MOL0     H35758   1.363   9.669   8.878 -2.8530  1.0373 -0.6953
  271MOL0     H35759   1.559   9.529   8.902  1.3607 -3.2250  2.7497
  271MOL0     H35760   1.823   9.333   8.955 -1.8382 -1.5395  2.2421
  271MOL0     H35761   2.057   9.236   8.971  0.0973  0.4177 -0.5307
  271MOL0     H35762   2.088   8.796   8.953  0.2724 -0.8440  0.5072
  271MOL0     H35763   2.059   8.906   9.089 -1.6018 -2.6542 -0.2119
  271MOL0     H35764   2.299   8.926   9.132  1.2385  0.3895  0.2507
  271MOL0     H35765   2.254   8.759   9.131  0.5669  2.1098  3.6843
  271MOL0     H35766   2.406   8.909   8.916 -1.0731  1.2578  1.9887
  271MOL0     H35767   2.322   8.757   8.871  1.4929  1.0512 -2.5374
  271MOL0     H35768   2.471   8.649   9.033  0.6711 -1.3485 -1.6410
  271MOL0     H35769   2.561   8.761   8.933 -1.9045  3.4896 -0.8747
  271MOL0     H35770   2.620   8.889   9.346 -3.7043  0.8250  0.9130
  271MOL0     H35771   1.951   8.888   8.772  0.3241  0.7542 -1.8859
  271MOL0     H35772   1.723   8.988   8.716 -0.7303 -2.9907  3.0727
  272MOL0     O35773   6.931   4.234  10.836 -0.0646  0.2991  0.7727
  272MOL0     C35774   6.942   4.343  10.786 -0.1521 -0.9769  0.1416
  272MOL0     O35775   6.861   4.402  10.684 -0.7857  0.0116  0.0584
  272MOL0     C35776   6.734   4.359  10.651  0.4378 -0.1129 -0.5917
  272MOL0     C35777   6.658   4.432  10.554  0.9158 -0.3054 -0.5678
  272MOL0     C35778   6.529   4.398  10.523 -0.0098  0.3177 -0.1211
  272MOL0     C35779   6.457   4.298  10.598  0.5790  0.0575 -0.7108
  272MOL0     O35780   6.319   4.288  10.570 -0.3694  0.1772 -0.8255
  272MOL0     C35781   6.245   4.187  10.640 -0.1357  0.6276 -0.5999
  272MOL0     C35782   6.104   4.184  10.602  0.0019 -0.6849 -0.4232
  272MOL0     C35783   6.033   4.076  10.686 -0.0652  0.2143 -0.9298
  272MOL0     C35784   5.887   4.104  10.703  0.6797  0.7829 -0.6606
  272MOL0     C35785   5.796   3.976  10.735 -0.1285  0.0514  0.0681
  272MOL0     C35786   5.829   3.925  10.880  0.9579 -0.2436 -0.9916
  272MOL0     C35787   5.722   3.840  10.939  0.2720 -0.3935  0.3635
  272MOL0     C35788   5.582   3.893  10.950 -0.2835 -0.6992 -0.5215
  272MOL0     N35789   5.576   4.025  11.021 -0.3452 -0.0866  0.6392
  272MOL0     C35790   5.570   4.053  11.154 -0.1092  0.1905  0.0252
  272MOL0     C35791   5.567   4.191  11.166 -0.0069 -0.1607  0.9587
  272MOL0     C35792   5.570   4.274  11.286 -0.1193 -0.5439 -0.1585
  272MOL0     C35793   5.546   4.196  11.416  0.7929  1.1994 -0.2293
  272MOL0     C35794   5.671   4.139  11.479 -0.2710  0.3540  0.3138
  272MOL0     C35795   5.639   4.060  11.603  0.3210  0.7798 -0.2053
  272MOL0     O35796   5.567   3.938  11.578  0.3248 -0.2656  0.4259
  272MOL0     C35797   5.537   3.861  11.688 -0.1960  0.1434 -0.0821
  272MOL0     C35798   5.558   3.902  11.826 -0.2245  1.0023 -1.0123
  272MOL0     C35799   5.506   3.814  11.931  0.4097  0.3919  0.2885
  272MOL0     C35800   5.449   3.693  11.895 -0.9514  0.2360 -0.4907
  272MOL0     C35801   5.409   3.603  11.995 -0.0764 -0.0958 -0.7060
  272MOL0     O35802   5.395   3.648  12.116  0.2037  0.2954  0.1723
  272MOL0     C35803   5.373   3.556  12.222 -0.7414  0.6321  0.2440
  272MOL0     C35804   5.480   3.547  12.310  0.0968  0.6983  0.2364
  272MOL0     C35805   5.475   3.483  12.437 -0.6343  1.0440  0.1596
  272MOL0     C35806   5.354   3.413  12.468 -1.2344 -0.1717 -1.1346
  272MOL0     O35807   5.336   3.332  12.576 -1.0450 -0.6459 -0.0373
  272MOL0     C35808   5.439   3.240  12.599  0.3356  0.3970 -0.1005
  272MOL0     C35809   5.385   3.094  12.620  1.1299  0.1421  0.0637
  272MOL0     C35810   5.261   3.114  12.708  0.7371  0.4191 -0.0441
  272MOL0     C35811   5.224   2.990  12.795  0.7072 -0.0491  0.0910
  272MOL0     C35812   5.185   2.866  12.716  0.5394  0.7629 -0.5929
  272MOL0     C35813   5.175   2.746  12.808  0.4222 -0.2389  0.3014
  272MOL0     C35814   5.195   2.608  12.728  0.2263  0.0773 -0.1306
  272MOL0     C35815   5.292   2.513  12.789 -0.0177  0.6119 -0.1883
  272MOL0    Cl35816   5.263   2.355  12.705  0.0245 -0.1500 -0.0079
  272MOL0     C35817   5.251   3.410  12.368 -0.1423  0.0316 -0.7898
  272MOL0     C35818   5.258   3.477  12.247 -0.2774 -1.1087  0.3190
  272MOL0     O35819   5.405   3.489  11.964  0.3042  0.6510 -0.1927
  272MOL0     C35820   5.440   3.655  11.762  0.0054 -0.1081  0.6053
  272MOL0     C35821   5.473   3.742  11.658 -0.2747  0.6020 -0.1972
  272MOL0     N35822   5.570   4.235  11.033 -0.7021 -0.1452 -0.7115
  272MOL0     N35823   5.577   4.142  10.951  0.5438 -0.2650  0.4112
  272MOL0     C35824   6.529   4.229  10.689 -0.5201  0.4363 -0.0211
  272MOL0     C35825   6.662   4.257  10.716  0.1601 -0.7258 -0.3299
  272MOL0     C35826   7.062   4.421  10.821 -0.7751 -0.2259  0.5669
  272MOL0     C35827   7.162   4.364  10.906 -1.0580 -0.2856  0.8931
  272MOL0     C35828   7.281   4.445  10.932  0.7734  0.3524  0.0999
  272MOL0     C35829   7.296   4.574  10.881  0.5943 -0.6466 -0.4539
  272MOL0     O35830   7.399   4.657  10.922 -0.6520 -0.0826  0.5913
  272MOL0     C35831   7.509   4.659  10.837  0.2631 -0.9829 -0.6243
  272MOL0     C35832   7.515   4.793  10.775  0.0612  0.4260  0.0253
  272MOL0     C35833   7.627   4.826  10.670  0.0967  0.1715  0.2820
  272MOL0     C35834   7.617   4.740  10.545  0.1102  0.2980  0.1713
  272MOL0     C35835   7.504   4.772  10.453 -0.5818 -0.2283 -0.4873
  272MOL0     C35836   7.424   4.793  10.366 -1.8912  0.8275 -0.3538
  272MOL0     C35837   7.205   4.625  10.787 -0.7859 -0.4103  0.2117
  272MOL0     C35838   7.081   4.550  10.767 -0.5394  0.4378  1.0593
  272MOL0     H35839   6.708   4.509  10.496 -0.8604  3.0848  2.0988
  272MOL0     H35840   6.472   4.459  10.453 -1.9172  2.0812  2.7388
  272MOL0     H35841   6.246   4.223  10.743 -0.4755 -0.6651 -0.1320
  272MOL0     H35842   6.294   4.091  10.624 -1.5237 -0.0862 -0.6858
  272MOL0     H35843   6.096   4.169  10.494  1.5862  1.7916 -0.9593
  272MOL0     H35844   6.066   4.283  10.625  2.4413  0.4831 -1.0605
  272MOL0     H35845   6.060   4.081  10.792 -0.7539 -0.1373 -0.7308
  272MOL0     H35846   6.063   3.985  10.633  2.9505 -0.5423  1.7445
  272MOL0     H35847   5.857   4.182  10.773 -0.4233  0.5947 -0.9018
  272MOL0     H35848   5.861   4.140  10.603  2.7745 -0.2695 -1.6690
  272MOL0     H35849   5.822   3.896  10.665 -0.5571  0.3237 -0.4070
  272MOL0     H35850   5.689   3.996  10.725  0.2228  1.0852 -2.2534
  272MOL0     H35851   5.842   4.005  10.954  0.0329 -0.6291 -0.3970
  272MOL0     H35852   5.923   3.870  10.876  1.2627  0.2966 -1.4334
  272MOL0     H35853   5.739   3.738  10.904  1.3768  0.6171 -2.2791
  272MOL0     H35854   5.752   3.813  11.041 -0.9008 -0.5713  0.6784
  272MOL0     H35855   5.509   3.829  11.001 -1.9908 -0.3710 -2.3925
  272MOL0     H35856   5.538   3.900  10.850  0.0646 -0.9300 -0.6934
  272MOL0     H35857   5.567   3.979  11.233 -1.2235 -0.3469 -0.5080
  272MOL0     H35858   5.499   4.355  11.268  1.4740  0.4073 -2.5781
  272MOL0     H35859   5.670   4.319  11.282  0.4053 -1.6769 -0.2191
  272MOL0     H35860   5.467   4.120  11.406 -0.1925  1.5674  3.2430
  272MOL0     H35861   5.502   4.266  11.488 -0.4822 -2.0053  2.3478
  272MOL0     H35862   5.715   4.071  11.406 -2.6831 -0.3311 -0.5977
  272MOL0     H35863   5.747   4.210  11.514  0.3079  0.3588 -0.8886
  272MOL0     H35864   5.581   4.128  11.666  4.2120  3.8005  0.5178
  272MOL0     H35865   5.735   4.023  11.642 -0.6933 -4.1053 -1.6040
  272MOL0     H35866   5.606   3.996  11.851  0.4950  1.5543 -4.0346
  272MOL0     H35867   5.527   3.838  12.035 -0.1323  3.0388 -0.1568
  272MOL0     H35868   5.570   3.603  12.289  0.6542 -0.0755  0.4883
  272MOL0     H35869   5.551   3.473  12.514 -1.6745 -3.1856  0.8663
  272MOL0     H35870   5.496   3.268  12.688  0.1222 -3.6084  1.5072
  272MOL0     H35871   5.507   3.226  12.514 -0.7842 -2.5735 -0.6193
  272MOL0     H35872   5.456   3.024  12.665  0.9648 -0.3753 -0.4630
  272MOL0     H35873   5.352   3.056  12.523  0.4407 -1.8170  1.0168
  272MOL0     H35874   5.177   3.149  12.647  1.0350  0.0970 -0.6540
  272MOL0     H35875   5.283   3.201  12.769 -2.0693  0.3254  1.2929
  272MOL0     H35876   5.301   2.981  12.872  1.7433  1.3921 -0.7204
  272MOL0     H35877   5.128   3.027  12.833  0.6571  0.0325 -0.1127
  272MOL0     H35878   5.268   2.855  12.645 -1.0263  0.2121 -2.4523
  272MOL0     H35879   5.090   2.876  12.662 -0.6990 -1.4666  1.0193
  272MOL0     H35880   5.075   2.742  12.853 -0.9428 -3.9783 -2.5108
  272MOL0     H35881   5.242   2.745  12.894  1.3526 -0.8415 -0.4133
  272MOL0     H35882   5.101   2.563  12.697  1.8732 -1.4683 -3.3555
  272MOL0     H35883   5.235   2.632  12.629  2.1823  0.3821  0.6814
  272MOL0     H35884   5.269   2.486  12.893  0.3636 -2.0439 -0.7177
  272MOL0     H35885   5.394   2.551  12.782 -0.2667  1.0115 -2.2882
  272MOL0     H35886   5.157   3.362  12.396 -0.8151  1.9909  0.5203
  272MOL0     H35887   5.173   3.482  12.180  0.5934 -1.7759 -0.8632
  272MOL0     H35888   5.391   3.560  11.742 -0.0273 -0.6773  3.1132
  272MOL0     H35889   5.448   3.701  11.560  1.5157 -0.4416 -0.2758
  272MOL0     H35890   6.472   4.154  10.745 -1.2411  0.8627 -0.1706
  272MOL0     H35891   6.699   4.222  10.812 -2.5498 -0.3569  0.9542
  272MOL0     H35892   7.151   4.274  10.965  1.9055  0.5455  2.9324
  272MOL0     H35893   7.354   4.429  11.010  1.7357 -0.2736 -0.9140
  272MOL0     H35894   7.489   4.586  10.758 -0.6814 -2.0318  0.5460
  272MOL0     H35895   7.607   4.639  10.882  0.9930  0.5500 -1.4799
  272MOL0     H35896   7.424   4.813  10.716  1.0609  1.4554 -1.2450
  272MOL0     H35897   7.522   4.861  10.861  0.6324 -1.6434  1.6847
  272MOL0     H35898   7.728   4.813  10.711  0.7781  1.7415 -0.8288
  272MOL0     H35899   7.613   4.934  10.660  2.2883  0.7412  2.4167
  272MOL0     H35900   7.709   4.756  10.488  0.8824 -2.7788  0.4025
  272MOL0     H35901   7.620   4.634  10.571  1.3663  0.6122  1.4043
  272MOL0     H35902   7.363   4.810  10.280 -1.4737  3.5802 -0.2113
  272MOL0     H35903   7.217   4.722  10.741  3.7458 -0.2613  1.1694
  272MOL0     H35904   7.005   4.595  10.705  0.3118 -0.2452 -0.5492
  273MOL0     O35905   0.908   3.956   7.310 -0.1598  0.2932  0.6198
  273MOL0     C35906   1.011   4.021   7.271  1.3554 -0.0901  0.2142
  273MOL0     O35907   1.021   4.157   7.269 -0.7186  0.1333  0.0252
  273MOL0     C35908   0.909   4.233   7.275 -0.0333 -0.5522 -0.7520
  273MOL0     C35909   0.916   4.338   7.374 -0.0615  0.5046  0.2251
  273MOL0     C35910   0.805   4.422   7.384  0.4181 -0.2820 -0.2422
  273MOL0     C35911   0.694   4.407   7.295  0.5490  0.5496  0.2938
  273MOL0     O35912   0.586   4.497   7.313 -0.9897  0.3232  0.9411
  273MOL0     C35913   0.448   4.481   7.267 -0.4660 -0.6351  0.6457
  273MOL0     C35914   0.346   4.451   7.377  0.4832  0.4066  0.5299
  273MOL0     C35915   0.254   4.338   7.333 -0.6411 -0.5407 -0.3326
  273MOL0     C35916   0.331   4.206   7.323  0.0087  0.1830 -1.3676
  273MOL0     C35917   0.248   4.104   7.249  0.4854 -0.0346 -0.6267
  273MOL0     C35918   0.299   3.953   7.252  0.5392 -0.7646  0.0799
  273MOL0     C35919   0.444   3.925   7.284 -0.0574 -0.3205  0.6696
  273MOL0     C35920   0.534   3.961   7.175  0.0609  0.4464 -0.3921
  273MOL0     N35921   0.512   3.857   7.069 -0.6437  0.1709 -0.1665
  273MOL0     C35922   0.564   3.730   7.066 -0.8746 -0.0892  0.0699
  273MOL0     C35923   0.525   3.677   6.942  0.2239 -0.0424 -0.8202
  273MOL0     C35924   0.585   3.555   6.872  0.0215 -0.5521 -0.7839
  273MOL0     C35925   0.723   3.510   6.917 -0.6196  0.3529 -0.5467
  273MOL0     C35926   0.847   3.594   6.874 -0.1086 -0.3932  0.7920
  273MOL0     C35927   0.986   3.545   6.930  0.1702 -0.4793  0.3066
  273MOL0     O35928   1.008   3.407   6.913  0.4814  0.1802  1.2912
  273MOL0     C35929   1.089   3.367   6.803  0.9574 -0.4270 -0.3549
  273MOL0     C35930   1.140   3.444   6.698  0.5444  0.1210  0.0996
  273MOL0     C35931   1.228   3.395   6.608 -0.0837  0.3720 -0.2209
  273MOL0     C35932   1.267   3.261   6.609 -0.9247  0.8332 -0.0839
  273MOL0     C35933   1.343   3.206   6.499  0.4485 -0.3868 -0.7382
  273MOL0     O35934   1.320   3.267   6.374  0.0555  0.7295  0.1423
  273MOL0     C35935   1.400   3.239   6.262 -0.4991  0.7394  0.2543
  273MOL0     C35936   1.358   3.279   6.134 -0.3628 -0.4318  0.3612
  273MOL0     C35937   1.431   3.282   6.021 -0.3918 -0.2659  0.6865
  273MOL0     C35938   1.559   3.244   6.023 -0.5583 -0.2865 -0.1653
  273MOL0     O35939   1.618   3.254   5.904  0.1714  0.7343 -0.3607
  273MOL0     C35940   1.763   3.242   5.898 -0.0091 -0.0269 -0.9358
  273MOL0     C35941   1.839   3.380   5.909  0.2455 -0.0122 -0.0544
  273MOL0     C35942   1.992   3.346   5.882 -0.1869  0.3935  0.0584
  273MOL0     C35943   2.075   3.471   5.862 -0.8894 -0.0312  0.1338
  273MOL0     C35944   2.201   3.438   5.781 -0.0245  0.1757 -0.1789
  273MOL0     C35945   2.310   3.540   5.826  0.7226  0.4252  0.6877
  273MOL0     C35946   2.441   3.511   5.760 -0.9818 -0.8577  0.3482
  273MOL0     C35947   2.502   3.635   5.698  0.5010 -0.6407  1.2553
  273MOL0    Cl35948   2.414   3.668   5.557 -0.3764 -0.3810 -0.3887
  273MOL0     C35949   1.608   3.191   6.143 -0.0105 -0.0933  0.1096
  273MOL0     C35950   1.523   3.173   6.256 -0.3942 -0.3137  0.7893
  273MOL0     O35951   1.410   3.110   6.525  0.1763  0.3959  0.1835
  273MOL0     C35952   1.210   3.170   6.706 -0.1026 -0.4982  0.1354
  273MOL0     C35953   1.127   3.227   6.809 -0.3804 -1.0403  0.0670
  273MOL0     N35954   0.466   3.784   6.880 -1.2998  0.0119  0.6555
  273MOL0     N35955   0.447   3.891   6.951  0.0114  0.0398  0.2514
  273MOL0     C35956   0.711   4.315   7.188  0.0118  0.3017 -0.2405
  273MOL0     C35957   0.813   4.230   7.182  0.3061  0.9864 -0.4658
  273MOL0     C35958   1.129   3.942   7.246 -0.2264 -0.7494 -0.7335
  273MOL0     C35959   1.127   3.813   7.191 -0.4132 -1.0491  0.0447
  273MOL0     C35960   1.249   3.750   7.151 -0.2749  0.9209 -0.6308
  273MOL0     C35961   1.374   3.812   7.173  0.1476 -0.9366  0.6200
  273MOL0     O35962   1.499   3.755   7.153 -0.0152 -0.9527 -0.1299
  273MOL0     C35963   1.499   3.622   7.102  0.4801  0.7716 -0.8013
  273MOL0     C35964   1.465   3.617   6.955  0.0346  0.4652 -0.2770
  273MOL0     C35965   1.582   3.653   6.862  0.1288 -0.3314 -0.1581
  273MOL0     C35966   1.610   3.553   6.749  0.2217 -0.0711  0.0685
  273MOL0     C35967   1.724   3.591   6.669 -1.2162  0.7344  0.6612
  273MOL0     C35968   1.796   3.618   6.570 -0.0986 -0.9057  0.4232
  273MOL0     C35969   1.370   3.940   7.220 -0.3073 -0.7190 -0.1274
  273MOL0     C35970   1.251   4.003   7.255 -0.7450 -0.2575  0.0436
  273MOL0     H35971   1.007   4.344   7.433  0.9013 -2.0173 -0.8463
  273MOL0     H35972   0.811   4.502   7.458  1.6906 -0.3745 -0.2305
  273MOL0     H35973   0.442   4.424   7.174  2.1840  0.1340 -0.0760
  273MOL0     H35974   0.431   4.581   7.227  1.0898 -1.2366 -1.7232
  273MOL0     H35975   0.278   4.535   7.395 -0.7497 -0.5696  0.5484
  273MOL0     H35976   0.413   4.425   7.459  1.4241  0.6414 -0.1446
  273MOL0     H35977   0.204   4.347   7.236 -1.8076 -0.7880  0.2256
  273MOL0     H35978   0.175   4.339   7.408 -0.3933  0.3814 -0.0728
  273MOL0     H35979   0.428   4.218   7.274  0.4902  2.6572  0.0514
  273MOL0     H35980   0.347   4.172   7.426 -0.4993 -1.6295 -1.8412
  273MOL0     H35981   0.237   4.130   7.143 -0.3995 -1.4339 -0.9145
  273MOL0     H35982   0.148   4.105   7.292  0.9687  2.6402  0.6104
  273MOL0     H35983   0.269   3.906   7.158 -0.6193 -1.0845  0.5902
  273MOL0     H35984   0.244   3.906   7.335 -0.5386  0.0435 -0.1547
  273MOL0     H35985   0.476   3.976   7.375 -4.0446 -0.0194  2.0955
  273MOL0     H35986   0.449   3.818   7.306 -1.8412  0.1722  4.1049
  273MOL0     H35987   0.639   3.975   7.201  0.1943  2.6364 -1.8186
  273MOL0     H35988   0.498   4.049   7.121 -0.6934 -0.9988 -2.3663
  273MOL0     H35989   0.621   3.679   7.144  0.4946 -2.3860 -2.2947
  273MOL0     H35990   0.588   3.583   6.767 -0.2903  0.9706 -0.4164
  273MOL0     H35991   0.515   3.472   6.878  0.3262 -0.7520  0.2709
  273MOL0     H35992   0.740   3.409   6.876 -1.7929 -0.1256  0.1090
  273MOL0     H35993   0.741   3.506   7.025 -1.3822  3.3131 -0.2397
  273MOL0     H35994   0.856   3.596   6.765 -3.7815  0.5563  0.3811
  273MOL0     H35995   0.823   3.699   6.893  0.7458 -0.5087  2.6577
  273MOL0     H35996   0.980   3.558   7.039 -3.7804 -0.8299  0.2655
  273MOL0     H35997   1.062   3.607   6.881 -0.3434 -2.4798 -3.3642
  273MOL0     H35998   1.116   3.548   6.685  2.7165  0.8308  1.1961
  273MOL0     H35999   1.274   3.463   6.537  1.5876 -1.3019 -0.8122
  273MOL0     H36000   1.258   3.321   6.143 -0.5846 -1.1891  1.7271
  273MOL0     H36001   1.388   3.344   5.943  0.6136 -0.9701 -0.4718
  273MOL0     H36002   1.779   3.199   5.798 -1.9313  0.8112 -1.6530
  273MOL0     H36003   1.798   3.171   5.974 -1.0946  1.3020  0.8598
  273MOL0     H36004   1.829   3.421   6.010 -1.6459 -0.7465  0.0944
  273MOL0     H36005   1.798   3.450   5.835  0.1314  2.5529  2.2818
  273MOL0     H36006   2.007   3.276   5.798  4.9074 -2.8053  3.0782
  273MOL0     H36007   2.037   3.284   5.960 -1.3946 -0.0799  0.4055
  273MOL0     H36008   2.016   3.545   5.807 -1.3612  0.3834  1.1884
  273MOL0     H36009   2.098   3.511   5.961 -1.1485  2.6038 -0.7768
  273MOL0     H36010   2.167   3.449   5.678 -1.8962  3.2402  0.6294
  273MOL0     H36011   2.237   3.340   5.814 -0.0245  0.2323 -0.0095
  273MOL0     H36012   2.321   3.533   5.934 -1.8147  0.6957  1.0368
  273MOL0     H36013   2.283   3.645   5.809 -0.6383 -0.3572 -2.9740
  273MOL0     H36014   2.504   3.481   5.844 -0.1621  1.4405  0.6334
  273MOL0     H36015   2.438   3.437   5.680  0.6736  0.9141 -1.4887
  273MOL0     H36016   2.607   3.625   5.670  0.1036 -0.3094 -0.4743
  273MOL0     H36017   2.481   3.710   5.774 -4.2757 -0.3296 -0.0534
  273MOL0     H36018   1.713   3.167   6.156  0.0536  0.5039  0.7903
  273MOL0     H36019   1.573   3.151   6.350 -1.8193  0.2625  1.7214
  273MOL0     H36020   1.226   3.063   6.713 -0.7267 -0.4898  4.5358
  273MOL0     H36021   1.084   3.169   6.890 -0.2025 -2.3650 -0.7480
  273MOL0     H36022   0.632   4.283   7.121  1.9289 -3.3153 -1.0441
  273MOL0     H36023   0.819   4.155   7.104 -0.0382  1.0034 -0.5100
  273MOL0     H36024   1.034   3.763   7.165 -2.0147  1.8269 -0.2396
  273MOL0     H36025   1.250   3.647   7.118  1.6619 -0.3873  2.9359
  273MOL0     H36026   1.434   3.554   7.158 -1.1796  1.1789 -2.1803
  273MOL0     H36027   1.605   3.597   7.112  0.5179  1.8248  2.7458
  273MOL0     H36028   1.436   3.515   6.931 -0.7726  0.6819 -0.2673
  273MOL0     H36029   1.369   3.662   6.928 -0.4388 -1.1456 -1.3845
  273MOL0     H36030   1.679   3.650   6.912  0.4636 -1.8018 -0.8588
  273MOL0     H36031   1.572   3.753   6.819  1.3786 -0.5724 -1.0715
  273MOL0     H36032   1.630   3.456   6.795  1.9559  0.8176  1.2400
  273MOL0     H36033   1.524   3.563   6.681  1.7621 -1.1503 -2.1480
  273MOL0     H36034   1.875   3.633   6.500  0.7336  1.8261  1.7965
  273MOL0     H36035   1.470   3.979   7.238 -0.7395 -0.8533  3.2802
  273MOL0     H36036   1.260   4.106   7.289 -0.2731 -0.2615 -0.0609
  274MOL0     O36037   8.765  11.320   2.148 -0.5768 -0.2225 -0.2450
  274MOL0     C36038   8.860  11.398   2.131  0.2653  0.1808  0.4095
  274MOL0     O36039   8.861  11.528   2.119  0.1895  0.4002 -0.7347
  274MOL0     C36040   8.753  11.603   2.140 -0.0779  1.1547 -0.1732
  274MOL0     C36041   8.765  11.721   2.219  0.1736  0.9328  0.4382
  274MOL0     C36042   8.661  11.817   2.222  0.1797  0.0637  0.5268
  274MOL0     C36043   8.533  11.790   2.165 -0.3498 -0.2998 -0.8047
  274MOL0     O36044   8.442  11.894   2.172  0.2399  0.9931 -0.4809
  274MOL0     C36045   8.311  11.886   2.113 -0.1507 -0.0895 -0.0677
  274MOL0     C36046   8.222  11.986   2.186  0.9448 -0.7406 -0.6377
  274MOL0     C36047   8.085  11.968   2.131  1.1255  0.6916  1.0927
  274MOL0     C36048   7.976  12.049   2.197 -0.7543 -1.3838 -0.2211
  274MOL0     C36049   7.846  12.059   2.128  0.4191  0.1836 -0.4882
  274MOL0     C36050   7.741  12.144   2.202 -0.3675 -0.5190 -0.1764
  274MOL0     C36051   7.617  12.156   2.115  0.0583  1.5706  0.8033
  274MOL0     C36052   7.554  12.017   2.074 -0.6804 -0.2336  0.2198
  274MOL0     N36053   7.482  11.955   2.181  0.3375  0.1483 -0.3426
  274MOL0     C36054   7.539  11.881   2.284 -0.0026 -0.3440  0.5514
  274MOL0     C36055   7.441  11.840   2.368 -0.2227 -0.0007 -0.2683
  274MOL0     C36056   7.451  11.769   2.506 -0.3047  0.9744 -0.7107
  274MOL0     C36057   7.377  11.843   2.617  0.1890  0.2412  0.2709
  274MOL0     C36058   7.472  11.870   2.737  0.4678  0.3333  0.5291
  274MOL0     C36059   7.425  12.003   2.792 -0.6744 -0.3241 -1.3390
  274MOL0     O36060   7.518  12.056   2.896  0.3890 -0.1028  0.1780
  274MOL0     C36061   7.538  12.005   3.022  0.4154  0.1420  0.3165
  274MOL0     C36062   7.451  11.906   3.072 -0.2266  0.0761 -0.5954
  274MOL0     C36063   7.460  11.862   3.206 -0.2669 -0.0687  0.3205
  274MOL0     C36064   7.560  11.914   3.284  0.4585  0.4312 -0.0408
  274MOL0     C36065   7.580  11.849   3.420 -0.0854  0.6108  0.1948
  274MOL0     O36066   7.506  11.734   3.456 -0.5291  0.3552  0.5404
  274MOL0     C36067   7.503  11.685   3.585 -0.1773  0.0940 -0.3802
  274MOL0     C36068   7.492  11.543   3.597  0.5764  0.0235 -0.4331
  274MOL0     C36069   7.464  11.482   3.714 -0.1575 -0.1315  0.0239
  274MOL0     C36070   7.448  11.560   3.827 -0.5760 -0.4930 -0.3124
  274MOL0     O36071   7.413  11.497   3.953 -0.4877 -0.4195 -0.1342
  274MOL0     C36072   7.498  11.389   3.988  0.5734  0.1375 -0.3246
  274MOL0     C36073   7.401  11.275   3.987 -0.0494  1.1623 -0.1055
  274MOL0     C36074   7.472  11.153   4.046 -0.5073 -0.8214  0.2681
  274MOL0     C36075   7.397  11.025   4.024  0.1669 -0.6334  0.1603
  274MOL0     C36076   7.472  10.934   4.122 -0.2657  0.6028 -0.0392
  274MOL0     C36077   7.380  10.814   4.163 -0.4708  0.6397 -0.7371
  274MOL0     C36078   7.425  10.701   4.252  0.5300 -0.0666  0.3823
  274MOL0     C36079   7.303  10.639   4.317 -0.5841 -0.0148  0.3654
  274MOL0    Cl36080   7.361  10.485   4.406 -0.4514  0.0681 -0.4681
  274MOL0     C36081   7.458  11.698   3.814  0.9410 -0.4309 -0.7945
  274MOL0     C36082   7.488  11.766   3.698  0.5191  1.2988 -0.3429
  274MOL0     O36083   7.654  11.910   3.496  0.2315 -0.0806 -1.2592
  274MOL0     C36084   7.640  12.012   3.237 -0.4809  0.0941 -0.1469
  274MOL0     C36085   7.630  12.067   3.108 -0.1060 -0.1407 -0.3270
  274MOL0     N36086   7.329  11.883   2.308 -0.5159  0.0434  0.3876
  274MOL0     N36087   7.350  11.958   2.206  0.9872 -0.4353  0.1327
  274MOL0     C36088   8.512  11.664   2.110  1.0698  0.7557 -0.1564
  274MOL0     C36089   8.612  11.575   2.089 -0.3001 -0.0152  0.1692
  274MOL0     C36090   8.996  11.333   2.118 -0.1818  0.5753  0.3850
  274MOL0     C36091   9.018  11.209   2.184 -0.9467  0.4337 -1.7622
  274MOL0     C36092   9.144  11.146   2.181  0.1408 -0.9217 -0.1831
  274MOL0     C36093   9.257  11.207   2.120 -1.3801 -0.3510 -0.0302
  274MOL0     O36094   9.386  11.158   2.137  0.0726 -0.3479  0.7907
  274MOL0     C36095   9.426  11.038   2.205 -0.0650 -0.4137  1.1340
  274MOL0     C36096   9.578  11.016   2.179 -0.3608  0.3824 -0.0223
  274MOL0     C36097   9.613  10.998   2.037 -0.1212  0.2683 -0.1655
  274MOL0     C36098   9.759  10.952   2.033 -0.1221  0.1913 -0.8931
  274MOL0     C36099   9.806  10.817   2.065  0.5687 -0.3052 -0.2625
  274MOL0     C36100   9.843  10.706   2.113 -0.0737  0.1256 -0.3640
  274MOL0     C36101   9.235  11.328   2.063 -0.4123  0.0169  0.1689
  274MOL0     C36102   9.110  11.389   2.051  0.7203  0.1303  0.4043
  274MOL0     H36103   8.858  11.761   2.256  0.3053 -0.3688  1.6097
  274MOL0     H36104   8.685  11.908   2.276  2.5361  1.0127 -1.8620
  274MOL0     H36105   8.260  11.790   2.127  0.8137 -0.4881  0.8236
  274MOL0     H36106   8.306  11.918   2.008  1.2233  1.2515  0.2462
  274MOL0     H36107   8.254  12.089   2.168 -0.6995  0.1601  1.1477
  274MOL0     H36108   8.226  11.962   2.293 -0.9785  2.9953  0.4539
  274MOL0     H36109   8.067  11.860   2.133 -1.1383  1.0228  2.2816
  274MOL0     H36110   8.081  11.995   2.025  2.9139 -2.6239  0.0563
  274MOL0     H36111   7.961  11.999   2.293 -1.0251 -0.2554  0.3309
  274MOL0     H36112   8.006  12.150   2.225  1.7343 -2.5029  1.5577
  274MOL0     H36113   7.802  11.960   2.139 -1.1692  1.0332  1.5985
  274MOL0     H36114   7.853  12.096   2.025 -0.0505 -3.7792 -2.1382
  274MOL0     H36115   7.769  12.245   2.232  0.3975 -1.1542  1.3899
  274MOL0     H36116   7.713  12.086   2.290 -0.2907  0.9938  0.8816
  274MOL0     H36117   7.545  12.222   2.163 -0.5096  0.8820  0.9169
  274MOL0     H36118   7.647  12.214   2.028 -3.2259  1.9494 -0.1751
  274MOL0     H36119   7.613  11.948   2.012 -1.7815 -1.3424  0.3662
  274MOL0     H36120   7.484  12.051   1.997 -0.8877  0.7835  0.8369
  274MOL0     H36121   7.647  11.873   2.293  0.4151  1.7502 -1.7032
  274MOL0     H36122   7.557  11.752   2.528 -0.3022 -0.6845 -1.8372
  274MOL0     H36123   7.415  11.666   2.503  1.9803  0.0655  0.1305
  274MOL0     H36124   7.287  11.794   2.654 -0.2471 -2.2070 -3.5356
  274MOL0     H36125   7.339  11.937   2.574 -1.7425 -1.5671 -2.2650
  274MOL0     H36126   7.459  11.789   2.808 -3.4608 -1.3445 -1.8310
  274MOL0     H36127   7.576  11.878   2.701  0.0201 -1.1583 -1.2547
  274MOL0     H36128   7.327  11.977   2.833  1.0832 -0.4331  3.3308
  274MOL0     H36129   7.429  12.078   2.712  0.7161 -1.6976 -2.6180
  274MOL0     H36130   7.373  11.864   3.008 -0.6742  0.2120 -0.1523
  274MOL0     H36131   7.385  11.788   3.231 -0.6120  0.7057  1.6295
  274MOL0     H36132   7.503  11.493   3.501  2.0478 -0.4902 -0.0246
  274MOL0     H36133   7.458  11.374   3.724  0.8975 -0.2760 -0.7638
  274MOL0     H36134   7.539  11.401   4.089 -0.6348 -0.3343  0.2396
  274MOL0     H36135   7.581  11.368   3.920  0.3830  1.3795 -0.9656
  274MOL0     H36136   7.361  11.258   3.887  0.3791  0.0875 -0.1094
  274MOL0     H36137   7.313  11.300   4.047  0.5221  0.9515  0.8490
  274MOL0     H36138   7.484  11.193   4.147  0.4364 -2.0056  0.6472
  274MOL0     H36139   7.572  11.144   4.003 -0.9633  0.9327 -1.3234
  274MOL0     H36140   7.294  11.036   4.060  1.2929  0.1314  3.4968
  274MOL0     H36141   7.400  11.000   3.918  2.5496 -1.0076  0.2525
  274MOL0     H36142   7.506  10.987   4.212  0.6950 -2.6981  1.6772
  274MOL0     H36143   7.564  10.897   4.076 -0.8460 -0.5924 -0.2675
  274MOL0     H36144   7.369  10.762   4.067 -0.7236 -0.5446 -0.0806
  274MOL0     H36145   7.289  10.860   4.201  0.5751  0.7372  1.8862
  274MOL0     H36146   7.477  10.622   4.196  0.2778  0.3960 -0.5217
  274MOL0     H36147   7.491  10.745   4.327  0.0018 -0.8024  1.2994
  274MOL0     H36148   7.239  10.602   4.236  0.8785 -3.9189  0.7940
  274MOL0     H36149   7.251  10.710   4.382  2.4118  1.3381  1.4317
  274MOL0     H36150   7.442  11.757   3.904  0.3110 -2.7305  0.6739
  274MOL0     H36151   7.504  11.868   3.665 -0.1383  0.6237 -2.9288
  274MOL0     H36152   7.720  12.045   3.303 -0.3494  2.7526 -1.4887
  274MOL0     H36153   7.693  12.150   3.077  0.1224  0.1221  0.7830
  274MOL0     H36154   8.410  11.648   2.077  0.5303  1.1502  1.2366
  274MOL0     H36155   8.606  11.482   2.033 -1.7144  0.4561 -0.5077
  274MOL0     H36156   8.934  11.153   2.224  1.0535 -1.1430  0.5619
  274MOL0     H36157   9.154  11.044   2.216 -1.8582 -0.5142  1.8467
  274MOL0     H36158   9.368  10.954   2.164  1.9602 -0.8899 -0.9643
  274MOL0     H36159   9.413  11.048   2.313  4.9948 -0.6993  2.0342
  274MOL0     H36160   9.633  11.105   2.212  1.0493 -0.4990  0.0735
  274MOL0     H36161   9.599  10.932   2.245 -0.6534  0.6420  0.4114
  274MOL0     H36162   9.604  11.088   1.975 -1.1781  0.6601  0.5284
  274MOL0     H36163   9.553  10.920   1.987 -1.6188  1.7343 -0.7582
  274MOL0     H36164   9.785  10.967   1.928  1.1175 -0.4144 -0.6943
  274MOL0     H36165   9.829  11.023   2.078 -0.1152  0.2647 -1.0192
  274MOL0     H36166   9.875  10.620   2.167 -4.1207 -1.0972  0.3686
  274MOL0     H36167   9.325  11.375   2.024  1.1386 -1.9658  1.1789
  274MOL0     H36168   9.107  11.480   1.991 -1.0271 -1.8919 -2.8911
  275MOL0     O36169   5.579   5.033   5.778 -0.1485 -0.5072  0.4396
  275MOL0     C36170   5.662   5.125   5.762 -0.3503 -0.6852 -0.7570
  275MOL0     O36171   5.632   5.249   5.711 -0.6311 -0.8422 -0.7247
  275MOL0     C36172   5.496   5.281   5.696  0.0459  0.5057  0.8203
  275MOL0     C36173   5.412   5.316   5.798  0.2835 -0.2475 -0.9391
  275MOL0     C36174   5.281   5.353   5.773 -0.2474  0.7669  0.0589
  275MOL0     C36175   5.230   5.347   5.647  0.0383  0.1027 -0.2092
  275MOL0     O36176   5.098   5.372   5.634  0.3051  0.5309 -0.1426
  275MOL0     C36177   5.043   5.435   5.515 -0.7377 -0.5306  0.2439
  275MOL0     C36178   4.912   5.373   5.492 -0.7608  0.1138 -0.4349
  275MOL0     C36179   4.917   5.227   5.460  0.1942  0.4230 -0.3423
  275MOL0     C36180   4.897   5.184   5.317 -0.2784  0.2723  0.9413
  275MOL0     C36181   4.889   5.033   5.310 -0.2461  0.4057 -0.0336
  275MOL0     C36182   4.924   4.997   5.164  0.2381  0.1438 -0.0890
  275MOL0     C36183   4.986   4.863   5.140 -0.2850 -0.8055  0.3506
  275MOL0     C36184   4.927   4.747   5.211 -0.2653  0.1065  0.2734
  275MOL0     N36185   4.895   4.642   5.110 -0.7804 -0.0731 -0.7121
  275MOL0     C36186   4.793   4.648   5.020 -0.1156 -0.2254  0.3971
  275MOL0     C36187   4.791   4.525   4.962  0.7755 -0.2669  0.5071
  275MOL0     C36188   4.697   4.455   4.868  0.3622  0.0820 -0.9036
  275MOL0     C36189   4.614   4.365   4.952  0.6106 -0.1745  0.2738
  275MOL0     C36190   4.491   4.456   5.003 -0.3939 -0.3331  0.6909
  275MOL0     C36191   4.384   4.494   4.901  0.1392  0.1064  0.1989
  275MOL0     O36192   4.312   4.382   4.853 -0.0381  0.1308 -0.4853
  275MOL0     C36193   4.213   4.394   4.758  0.7261 -0.6192 -0.4438
  275MOL0     C36194   4.196   4.515   4.694  0.5164 -0.3459 -0.0189
  275MOL0     C36195   4.113   4.531   4.591 -0.2718  0.1831  0.0147
  275MOL0     C36196   4.059   4.419   4.529  0.6577 -0.3506  0.6517
  275MOL0     C36197   3.978   4.445   4.407  0.4239  0.3353  0.9011
  275MOL0     O36198   3.959   4.580   4.381  0.2014 -0.0933  0.1041
  275MOL0     C36199   3.897   4.632   4.268 -0.7810  0.8338  0.3262
  275MOL0     C36200   3.862   4.556   4.149 -1.1836 -0.0725 -0.1121
  275MOL0     C36201   3.815   4.620   4.024  0.2731  0.2588  0.3962
  275MOL0     C36202   3.803   4.757   4.018 -0.5021  0.7397 -0.3048
  275MOL0     O36203   3.744   4.837   3.926 -0.1729  0.1694 -0.3536
  275MOL0     C36204   3.720   4.770   3.801  0.9586 -0.9782  0.1081
  275MOL0     C36205   3.673   4.873   3.705  0.0302  0.1505 -0.9610
  275MOL0     C36206   3.762   4.998   3.682 -0.0294 -0.7501  0.0464
  275MOL0     C36207   3.693   5.095   3.583 -0.4416  0.6746  0.7596
  275MOL0     C36208   3.772   5.219   3.540  0.0586  0.2676 -0.0114
  275MOL0     C36209   3.705   5.278   3.417 -0.2958  0.2515 -0.1460
  275MOL0     C36210   3.771   5.398   3.350 -0.2690 -0.5496 -0.5228
  275MOL0     C36211   3.759   5.513   3.445  0.2031 -0.5173 -0.0825
  275MOL0    Cl36212   3.591   5.558   3.465  0.3358 -0.6041  0.0633
  275MOL0     C36213   3.829   4.826   4.143 -1.3558  0.1579 -0.9092
  275MOL0     C36214   3.881   4.769   4.259  0.3326  0.1897 -0.0976
  275MOL0     O36215   3.928   4.349   4.336  0.5174  0.0760 -0.2059
  275MOL0     C36216   4.079   4.288   4.592  0.3169 -0.6166  0.4716
  275MOL0     C36217   4.161   4.280   4.706 -1.0095 -0.1358  0.2501
  275MOL0     N36218   4.908   4.463   4.999  0.9163 -0.2967 -0.2243
  275MOL0     N36219   4.955   4.524   5.101 -0.0096  0.6355 -0.4676
  275MOL0     C36220   5.312   5.308   5.535 -0.1810 -0.5350  0.4387
  275MOL0     C36221   5.448   5.285   5.560 -0.8782  1.2846  0.6757
  275MOL0     C36222   5.808   5.101   5.758 -0.4126  0.3350  0.0479
  275MOL0     C36223   5.850   4.966   5.784  0.4267 -0.2357  0.4657
  275MOL0     C36224   5.989   4.940   5.796  0.1593  0.0954  0.8369
  275MOL0     C36225   6.083   5.030   5.759 -0.1731  0.3871 -0.9533
  275MOL0     O36226   6.220   4.999   5.756  0.2813 -0.1175 -0.0246
  275MOL0     C36227   6.312   5.070   5.840  0.9273 -0.0967  0.5495
  275MOL0     C36228   6.439   5.069   5.763  0.1488  0.1601 -0.2871
  275MOL0     C36229   6.501   4.928   5.734 -0.2654  0.1534  0.1820
  275MOL0     C36230   6.621   4.937   5.634  0.5005 -0.4612  0.3224
  275MOL0     C36231   6.588   5.003   5.501  0.2345 -0.3307  0.1891
  275MOL0     C36232   6.581   5.078   5.400 -0.2262 -0.1896  0.2593
  275MOL0     C36233   6.034   5.162   5.726  0.4740 -0.0125 -1.0538
  275MOL0     C36234   5.899   5.199   5.718 -0.7070 -0.3294 -0.5490
  275MOL0     H36235   5.457   5.326   5.896  0.2006 -0.0742 -0.9178
  275MOL0     H36236   5.217   5.372   5.858 -2.1258 -0.3128 -1.0504
  275MOL0     H36237   5.108   5.417   5.428 -0.3699 -3.7496  1.0284
  275MOL0     H36238   5.038   5.544   5.516 -0.5465 -0.5220  1.2698
  275MOL0     H36239   4.851   5.430   5.421 -1.8817  1.4398  1.4947
  275MOL0     H36240   4.860   5.395   5.586 -1.2875  0.7218 -0.8583
  275MOL0     H36241   4.839   5.178   5.518  1.6565  0.5611  1.8260
  275MOL0     H36242   5.012   5.196   5.505  0.3213  0.0962 -0.8189
  275MOL0     H36243   4.805   5.226   5.275 -0.1263 -0.5821 -0.2850
  275MOL0     H36244   4.982   5.218   5.257 -0.8384  0.7883  0.4267
  275MOL0     H36245   4.799   4.987   5.351 -0.7909  0.1203 -1.4916
  275MOL0     H36246   4.968   4.990   5.372 -0.0124  1.3790  0.3757
  275MOL0     H36247   4.984   5.071   5.110 -2.0059  2.5707  0.5249
  275MOL0     H36248   4.827   4.989   5.114  0.5958 -0.1916 -0.7427
  275MOL0     H36249   4.974   4.838   5.034  1.2699 -4.1772  0.8346
  275MOL0     H36250   5.087   4.866   5.182 -0.7600  1.5605  1.4757
  275MOL0     H36251   4.833   4.766   5.265 -0.2536 -0.9275  0.6746
  275MOL0     H36252   4.989   4.711   5.293 -0.6578  0.0383  0.5440
  275MOL0     H36253   4.726   4.731   5.005 -1.3407 -1.2220  0.1670
  275MOL0     H36254   4.769   4.399   4.808  2.7652  1.4007  0.5714
  275MOL0     H36255   4.643   4.518   4.798  0.0970  0.6649 -0.1820
  275MOL0     H36256   4.676   4.331   5.036 -0.2208  2.5315  2.0886
  275MOL0     H36257   4.573   4.278   4.900 -1.1493  1.5415 -1.3445
  275MOL0     H36258   4.436   4.395   5.075  1.3021 -2.8007  0.0353
  275MOL0     H36259   4.519   4.543   5.064 -4.5810 -0.1174  2.6483
  275MOL0     H36260   4.431   4.540   4.813 -1.6227 -0.2308 -0.9530
  275MOL0     H36261   4.306   4.557   4.943  0.0133 -1.1916  2.0096
  275MOL0     H36262   4.246   4.611   4.709 -2.9710  1.7510 -0.5756
  275MOL0     H36263   4.125   4.634   4.560  2.3638  0.0302  0.3302
  275MOL0     H36264   3.855   4.448   4.143  0.7362 -0.3245  1.3179
  275MOL0     H36265   3.781   4.556   3.943  1.4596 -2.4728  1.9352
  275MOL0     H36266   3.644   4.692   3.810 -0.6522  0.6316  0.9803
  275MOL0     H36267   3.808   4.717   3.762  1.6915  0.1760  0.1484
  275MOL0     H36268   3.580   4.908   3.751 -1.0838 -2.6862 -0.8794
  275MOL0     H36269   3.638   4.838   3.608 -0.7027  2.8918 -1.7836
  275MOL0     H36270   3.862   4.971   3.645  0.0146  2.0474 -2.1412
  275MOL0     H36271   3.771   5.052   3.777 -3.4241 -1.1571  0.7125
  275MOL0     H36272   3.662   5.040   3.493 -1.6906  1.4556  0.6895
  275MOL0     H36273   3.602   5.128   3.633 -0.3967  1.3994  0.3662
  275MOL0     H36274   3.872   5.189   3.511  1.4664  3.1652  1.3874
  275MOL0     H36275   3.778   5.288   3.625 -2.1558  1.2782 -0.5912
  275MOL0     H36276   3.602   5.307   3.442 -0.4886  0.3796 -1.0444
  275MOL0     H36277   3.707   5.189   3.352 -1.4689 -1.8185  2.4632
  275MOL0     H36278   3.877   5.375   3.335  0.0800  0.0052  0.9705
  275MOL0     H36279   3.719   5.419   3.256 -1.5398 -1.1370  0.0150
  275MOL0     H36280   3.813   5.606   3.424 -0.6248  1.2890  4.4420
  275MOL0     H36281   3.795   5.484   3.545 -0.1490 -1.2125 -0.1511
  275MOL0     H36282   3.818   4.934   4.143 -1.4822  0.1553 -1.9372
  275MOL0     H36283   3.891   4.831   4.347  0.5545  1.7694 -1.1987
  275MOL0     H36284   4.050   4.201   4.533  0.2407 -0.8840  0.9000
  275MOL0     H36285   4.181   4.189   4.762 -3.1904  1.0197  3.1630
  275MOL0     H36286   5.284   5.309   5.430  0.7904 -0.9729  0.1644
  275MOL0     H36287   5.528   5.272   5.488 -2.2518  0.7751 -0.8145
  275MOL0     H36288   5.778   4.896   5.825  0.6376  0.4143  2.0093
  275MOL0     H36289   6.025   4.841   5.822 -1.4255 -0.4363  1.1170
  275MOL0     H36290   6.329   5.031   5.941 -2.0924 -0.8363  0.8676
  275MOL0     H36291   6.281   5.174   5.857  2.2574  0.0668  2.2710
  275MOL0     H36292   6.419   5.115   5.666 -1.9696 -2.4699 -1.2216
  275MOL0     H36293   6.509   5.127   5.823  1.2832 -0.0679 -1.3450
  275MOL0     H36294   6.431   4.858   5.688  0.5755 -0.8843  0.4291
  275MOL0     H36295   6.532   4.888   5.831  1.7981  1.5098  0.1602
  275MOL0     H36296   6.706   4.983   5.684  0.6258 -1.3991  1.0069
  275MOL0     H36297   6.660   4.840   5.602  0.2680 -0.5914  0.4297
  275MOL0     H36298   6.571   5.145   5.317 -0.4046  0.7125  0.9918
  275MOL0     H36299   6.107   5.239   5.703  1.5913 -1.2249 -1.7005
  275MOL0     H36300   5.860   5.297   5.693  1.5734  0.2405 -2.1477
  276MOL0     O36301   5.199   4.274   7.831  0.5335 -0.4103  0.0005
  276MOL0     C36302   5.296   4.228   7.887 -0.1301 -0.1839 -0.7947
  276MOL0     O36303   5.310   4.107   7.947 -0.0638  0.1643  0.1753
  276MOL0     C36304   5.211   4.019   7.938 -0.1618  0.1498  0.3035
  276MOL0     C36305   5.108   4.012   8.028 -0.2505  0.1474  0.3803
  276MOL0     C36306   5.020   3.904   8.024  0.4508 -0.0240  0.0087
  276MOL0     C36307   5.031   3.804   7.932 -0.0474  0.0784  0.2077
  276MOL0     O36308   4.932   3.703   7.934  0.7088  0.2918 -0.5814
  276MOL0     C36309   4.891   3.671   7.801 -0.1032 -0.8297  0.4835
  276MOL0     C36310   4.851   3.788   7.701  0.2460  0.3462  0.4785
  276MOL0     C36311   4.742   3.883   7.754  0.6426  0.7621 -1.1514
  276MOL0     C36312   4.680   3.965   7.648  0.0865 -1.2249  1.1473
  276MOL0     C36313   4.612   4.090   7.698  0.3301 -0.3655  0.2749
  276MOL0     C36314   4.688   4.196   7.770  0.7769  0.8647 -0.4358
  276MOL0     C36315   4.813   4.234   7.697 -0.8032  0.0603  0.3260
  276MOL0     C36316   4.874   4.366   7.755 -0.1999  1.0652  0.2227
  276MOL0     N36317   4.800   4.493   7.738  0.0727  0.5011  1.0462
  276MOL0     C36318   4.756   4.532   7.615 -0.4512  0.2809 -0.1139
  276MOL0     C36319   4.704   4.649   7.636 -0.4571  0.2694 -0.3393
  276MOL0     C36320   4.642   4.762   7.559 -0.7128 -0.7951  0.3905
  276MOL0     C36321   4.534   4.723   7.459 -0.1347  0.2746  0.7969
  276MOL0     C36322   4.532   4.844   7.353 -0.5753  0.1024  0.0818
  276MOL0     C36323   4.424   4.828   7.251 -0.2822  0.0254  0.5440
  276MOL0     O36324   4.300   4.855   7.318  0.3462  0.0034  0.3670
  276MOL0     C36325   4.186   4.860   7.246  0.0539  0.0300  0.1693
  276MOL0     C36326   4.176   4.824   7.109 -0.0527 -0.0163  0.4263
  276MOL0     C36327   4.059   4.857   7.033 -0.1609 -0.8699 -0.1122
  276MOL0     C36328   3.950   4.918   7.097 -0.3444 -0.4727  0.4955
  276MOL0     C36329   3.832   4.969   7.010 -0.1672 -0.1617 -0.4081
  276MOL0     O36330   3.847   4.990   6.877  0.0870 -0.0621 -0.3041
  276MOL0     C36331   3.736   5.010   6.802 -0.5281  1.2836  0.6981
  276MOL0     C36332   3.652   4.895   6.777 -0.8181 -0.2893  0.5087
  276MOL0     C36333   3.529   4.904   6.711 -0.2285  0.1589 -0.0554
  276MOL0     C36334   3.498   5.022   6.644  0.6570  0.3315  0.2156
  276MOL0     O36335   3.382   5.049   6.575 -0.3629 -0.1370 -0.1649
  276MOL0     C36336   3.275   4.960   6.595  1.4944  0.6370  0.9137
  276MOL0     C36337   3.290   4.842   6.487  0.6848 -0.2135  0.7552
  276MOL0     C36338   3.155   4.787   6.444 -0.6539 -0.8690  0.3500
  276MOL0     C36339   3.073   4.873   6.359  0.3672  0.1981  0.7399
  276MOL0     C36340   2.958   4.797   6.302  0.3798 -0.2845  0.3795
  276MOL0     C36341   2.995   4.720   6.177  0.3951 -0.6876  0.8086
  276MOL0     C36342   2.889   4.625   6.126 -0.3780  0.3731  0.0231
  276MOL0     C36343   2.938   4.546   6.006  0.2796 -0.8037  0.4256
  276MOL0    Cl36344   2.818   4.435   5.935  0.1176  0.3551 -0.1713
  276MOL0     C36345   3.599   5.125   6.643  0.2161  1.6202 -0.1949
  276MOL0     C36346   3.722   5.120   6.724  0.0836  0.2948 -0.5924
  276MOL0     O36347   3.726   4.971   7.072  0.0262  0.2591 -0.1246
  276MOL0     C36348   3.961   4.955   7.231 -0.7672 -0.2791 -0.2047
  276MOL0     C36349   4.079   4.933   7.298  0.6297  0.3724  0.4717
  276MOL0     N36350   4.705   4.678   7.775 -0.0544  0.1440 -1.4770
  276MOL0     N36351   4.762   4.579   7.832  0.3088  0.7563 -1.3752
  276MOL0     C36352   5.130   3.818   7.832  0.1556 -0.0085  0.4504
  276MOL0     C36353   5.221   3.923   7.839  0.7733  0.5631 -0.4666
  276MOL0     C36354   5.412   4.314   7.891 -0.6605  0.1362  0.4428
  276MOL0     C36355   5.539   4.254   7.905  0.4454  1.0312 -0.1163
  276MOL0     C36356   5.658   4.328   7.909 -0.0341  0.6300  0.0643
  276MOL0     C36357   5.653   4.467   7.894 -0.6634 -0.1755 -0.6804
  276MOL0     O36358   5.776   4.531   7.888 -0.2901 -0.8919  0.7962
  276MOL0     C36359   5.794   4.667   7.885 -0.0752 -0.0153 -0.3959
  276MOL0     C36360   5.929   4.699   7.947 -0.0755 -0.0443  0.3847
  276MOL0     C36361   6.047   4.718   7.860  0.6769 -0.1869 -0.6766
  276MOL0     C36362   6.151   4.803   7.941 -0.1480 -0.0550 -0.6430
  276MOL0     C36363   6.213   4.738   8.057 -0.4690  0.7254 -0.4107
  276MOL0     C36364   6.267   4.697   8.157  0.3227 -0.4509  0.8199
  276MOL0     C36365   5.528   4.531   7.895 -0.5109 -0.6147  0.6137
  276MOL0     C36366   5.406   4.458   7.888 -0.1046  0.4570 -0.6498
  276MOL0     H36367   5.108   4.066   8.122  1.8731 -2.6279  2.1591
  276MOL0     H36368   4.944   3.886   8.099  2.4445 -4.9758  1.2813
  276MOL0     H36369   4.793   3.623   7.807 -1.1271  0.6330 -2.3970
  276MOL0     H36370   4.955   3.601   7.747  1.0083  1.3961 -1.2228
  276MOL0     H36371   4.814   3.733   7.614  2.7390 -1.7915  0.6265
  276MOL0     H36372   4.936   3.852   7.674 -2.0359  3.0166 -0.7908
  276MOL0     H36373   4.790   3.945   7.831 -1.1139 -0.4154  1.0116
  276MOL0     H36374   4.659   3.824   7.794  0.1708 -0.1922 -3.3925
  276MOL0     H36375   4.753   3.992   7.570 -1.7007 -3.0652 -1.3319
  276MOL0     H36376   4.618   3.894   7.593  3.3051 -3.5755  0.2033
  276MOL0     H36377   4.527   4.056   7.757 -1.2686  2.9603  0.1085
  276MOL0     H36378   4.585   4.131   7.600  0.6012  1.4109  0.8971
  276MOL0     H36379   4.722   4.162   7.869  1.5946 -0.7658 -1.2316
  276MOL0     H36380   4.613   4.275   7.778 -1.3749 -0.9980 -1.2838
  276MOL0     H36381   4.882   4.149   7.693 -0.7873  0.0234 -4.1086
  276MOL0     H36382   4.807   4.260   7.591 -0.8355 -0.4191  0.2054
  276MOL0     H36383   4.965   4.377   7.695 -1.2993 -2.4479 -2.4722
  276MOL0     H36384   4.906   4.358   7.860  1.9820  2.0491 -0.3177
  276MOL0     H36385   4.784   4.496   7.517 -0.9518  2.3348 -1.0459
  276MOL0     H36386   4.722   4.811   7.502 -2.0689 -1.2900 -2.0680
  276MOL0     H36387   4.607   4.836   7.631 -0.8692 -1.1150  0.6463
  276MOL0     H36388   4.449   4.696   7.521 -1.8919  0.0155 -1.5985
  276MOL0     H36389   4.547   4.635   7.395  0.0624  1.2201 -0.4892
  276MOL0     H36390   4.513   4.939   7.402 -3.7270 -1.2636  1.7932
  276MOL0     H36391   4.630   4.845   7.305  0.0986 -1.0525  1.3621
  276MOL0     H36392   4.423   4.725   7.216  4.7237  0.1444 -0.8729
  276MOL0     H36393   4.445   4.896   7.167 -0.2299  2.1138  2.1632
  276MOL0     H36394   4.260   4.795   7.046 -0.1797  3.5520 -1.6750
  276MOL0     H36395   4.070   4.834   6.927  1.7530  1.1795 -0.4403
  276MOL0     H36396   3.661   4.808   6.842  2.9744  1.1322  2.1732
  276MOL0     H36397   3.460   4.820   6.719  0.2167 -0.1223  0.9789
  276MOL0     H36398   3.183   5.015   6.574  0.9616 -1.2180 -2.4154
  276MOL0     H36399   3.266   4.934   6.701  1.6973  0.9967  1.0184
  276MOL0     H36400   3.348   4.758   6.527  0.2204 -1.8686 -1.8186
  276MOL0     H36401   3.335   4.875   6.394 -1.4258  0.6614 -0.0231
  276MOL0     H36402   3.106   4.754   6.535 -2.6069  0.1052 -0.2978
  276MOL0     H36403   3.177   4.700   6.382 -2.1472  0.1589 -1.7498
  276MOL0     H36404   3.043   4.963   6.412  0.8479  0.6224  0.3072
  276MOL0     H36405   3.138   4.903   6.276 -0.1341  1.8062  0.8926
  276MOL0     H36406   2.877   4.867   6.276 -0.0933 -1.3252 -1.1127
  276MOL0     H36407   2.913   4.737   6.381 -0.5685 -0.4894 -0.2820
  276MOL0     H36408   3.085   4.662   6.202  1.6967  1.7356  2.0482
  276MOL0     H36409   3.012   4.796   6.100 -3.7377  2.0422  2.2378
  276MOL0     H36410   2.873   4.554   6.208 -1.1669  1.0402  0.4702
  276MOL0     H36411   2.794   4.667   6.091  0.6792  1.7722 -1.2600
  276MOL0     H36412   3.028   4.488   6.029  1.1429  0.0571 -0.6125
  276MOL0     H36413   2.977   4.609   5.924 -0.1931 -0.9130  0.1143
  276MOL0     H36414   3.588   5.224   6.600  0.4351  2.2243  1.0950
  276MOL0     H36415   3.789   5.205   6.715 -0.6212  0.9151 -0.1488
  276MOL0     H36416   3.882   5.016   7.275  0.2920  0.7450  0.3233
  276MOL0     H36417   4.094   4.970   7.399 -0.9172  1.3424  0.3766
  276MOL0     H36418   5.143   3.750   7.749  0.1360  0.2785  0.2110
  276MOL0     H36419   5.291   3.939   7.758  0.7770  0.6350 -0.4497
  276MOL0     H36420   5.557   4.149   7.926  0.6074  1.6090  3.1985
  276MOL0     H36421   5.746   4.268   7.926 -1.5857 -1.2219  2.1441
  276MOL0     H36422   5.721   4.729   7.937  0.9680  2.2000 -1.4180
  276MOL0     H36423   5.798   4.710   7.784  1.8788 -1.3363 -0.9386
  276MOL0     H36424   5.925   4.786   8.013 -0.2803  1.4403 -1.4723
  276MOL0     H36425   5.956   4.609   8.003  0.7724 -1.4692 -2.1543
  276MOL0     H36426   6.016   4.772   7.770  1.3822  0.7472 -0.3764
  276MOL0     H36427   6.084   4.621   7.827 -1.3164 -2.1755  2.4104
  276MOL0     H36428   6.220   4.839   7.864  0.4443 -0.9034 -0.5123
  276MOL0     H36429   6.111   4.899   7.977  5.6925  2.2940  0.6205
  276MOL0     H36430   6.323   4.650   8.235 -0.2657  0.4351  1.7957
  276MOL0     H36431   5.525   4.637   7.919 -0.2971 -0.7014  1.0488
  276MOL0     H36432   5.309   4.505   7.895 -3.0378 -4.9343 -0.1984
  277MOL0     O36433  10.466   9.564   5.362  0.9209  0.7797 -0.0738
  277MOL0     C36434  10.510   9.666   5.312 -0.1360  0.0126 -1.0942
  277MOL0     O36435  10.631   9.684   5.264 -0.3210  0.5470  0.7205
  277MOL0     C36436  10.716   9.570   5.267  0.7964  1.1929 -0.5115
  277MOL0     C36437  10.701   9.454   5.187  0.3495  0.2777 -0.2242
  277MOL0     C36438  10.779   9.341   5.202  0.4961  0.5208 -1.0532
  277MOL0     C36439  10.890   9.342   5.293 -0.2692 -0.8062 -0.1569
  277MOL0     O36440  10.971   9.236   5.316  0.1657 -0.9352 -0.7093
  277MOL0     C36441  10.950   9.112   5.256 -0.2561  0.0586  0.1532
  277MOL0     C36442  11.057   9.002   5.287 -0.0823 -0.3296  0.9513
  277MOL0     C36443  11.184   9.027   5.195  0.4253  0.7361 -0.1278
  277MOL0     C36444  11.269   8.907   5.153  0.0587  0.8934 -0.1424
  277MOL0     C36445  11.348   8.937   5.024  0.7729 -0.2976  0.3544
  277MOL0     C36446  11.461   9.034   5.043 -0.4881  0.1925 -0.4848
  277MOL0     C36447  11.579   8.981   5.134  0.9079  0.3194 -0.6521
  277MOL0     C36448  11.709   9.058   5.113  0.3755 -0.1623  0.0058
  277MOL0     N36449  11.808   9.009   5.210 -1.3345  0.2564  0.2134
  277MOL0     C36450  11.857   9.085   5.318  0.4327  1.0461  0.4417
  277MOL0     C36451  11.972   9.024   5.349 -0.8342 -0.5707 -0.1628
  277MOL0     C36452  12.061   9.061   5.468 -0.3588  0.3196 -0.9211
  277MOL0     C36453  12.202   9.100   5.416  1.0456 -0.1070  0.4278
  277MOL0     C36454  12.207   9.239   5.332  1.2096 -0.0594  0.4587
  277MOL0     C36455  12.211   9.375   5.406  0.4119 -0.4202  0.1625
  277MOL0     O36456  12.098   9.393   5.484  0.3383  0.5008  0.3290
  277MOL0     C36457  11.976   9.412   5.420 -0.3777 -0.8373 -0.4038
  277MOL0     C36458  11.959   9.457   5.287 -0.3500 -1.1293 -0.0035
  277MOL0     C36459  11.834   9.480   5.237  0.2823  0.5110 -0.3900
  277MOL0     C36460  11.723   9.457   5.327  0.3049 -0.7829 -0.4277
  277MOL0     C36461  11.579   9.496   5.281  0.5650 -0.6977 -0.1908
  277MOL0     O36462  11.561   9.596   5.179 -0.4916  0.4162 -0.1204
  277MOL0     C36463  11.445   9.646   5.135 -1.2713  0.5394 -1.0653
  277MOL0     C36464  11.464   9.755   5.047 -0.4197 -0.7824  0.1083
  277MOL0     C36465  11.360   9.825   4.999 -0.4520  0.5094  0.2668
  277MOL0     C36466  11.224   9.782   5.028  0.3273 -0.7300  0.1509
  277MOL0     O36467  11.118   9.851   4.963 -0.4251 -0.0583  0.2625
  277MOL0     C36468  10.992   9.855   5.039  1.0073  0.4529 -0.6805
  277MOL0     C36469  10.924   9.985   4.995  0.9066 -0.5182  0.1075
  277MOL0     C36470  10.811  10.026   5.089  0.0756 -0.1765 -0.2282
  277MOL0     C36471  10.777  10.170   5.048 -0.0906 -0.1202 -0.2179
  277MOL0     C36472  10.726  10.251   5.172 -0.3178 -0.5595 -0.6198
  277MOL0     C36473  10.682  10.397   5.121 -0.1905  1.6222 -0.0514
  277MOL0     C36474  10.608  10.465   5.233 -0.7907  1.0028 -1.4674
  277MOL0     C36475  10.585  10.616   5.195 -0.5506  0.3722  0.4455
  277MOL0    Cl36476  10.633  10.724   5.327  0.4053 -0.0336  0.2089
  277MOL0     C36477  11.204   9.679   5.116 -0.3729  0.9127 -0.6446
  277MOL0     C36478  11.313   9.610   5.174 -0.0242  0.2314 -0.9628
  277MOL0     O36479  11.487   9.435   5.336  0.2329 -0.6967 -0.2658
  277MOL0     C36480  11.747   9.428   5.461 -0.4998  0.3603  0.0907
  277MOL0     C36481  11.874   9.396   5.511 -0.3804 -0.4460  0.1605
  277MOL0     N36482  11.989   8.917   5.254 -0.2269  0.2030 -0.3874
  277MOL0     N36483  11.893   8.908   5.173  0.0929 -0.0610  0.3671
  277MOL0     C36484  10.907   9.458   5.377 -0.3227  0.0813 -0.5704
  277MOL0     C36485  10.820   9.569   5.364  0.1091 -0.5940  0.6404
  277MOL0     C36486  10.419   9.775   5.300  0.9115 -0.5757 -0.0709
  277MOL0     C36487  10.284   9.765   5.323 -0.1336 -0.4711  0.0257
  277MOL0     C36488  10.195   9.871   5.334 -0.1097 -0.3937  0.4395
  277MOL0     C36489  10.246   9.996   5.311 -0.3497 -0.9206 -0.0696
  277MOL0     O36490  10.152  10.098   5.285  0.2708 -0.0140 -0.2672
  277MOL0     C36491  10.192  10.234   5.283 -0.0828  0.2193  0.7087
  277MOL0     C36492  10.079  10.334   5.300 -0.5381 -0.6592 -0.3162
  277MOL0     C36493  10.108  10.487   5.290 -0.6234  0.3739 -1.2494
  277MOL0     C36494  10.125  10.526   5.142  1.0349  1.0241  0.1430
  277MOL0     C36495  10.153  10.668   5.146 -0.0176 -1.2486 -0.5733
  277MOL0     C36496  10.187  10.785   5.140 -1.2656 -0.8379 -0.3980
  277MOL0     C36497  10.379  10.020   5.290 -0.3035  0.3417  0.3228
  277MOL0     C36498  10.468   9.904   5.276  0.2658 -0.9531 -0.4958
  277MOL0     H36499  10.615   9.458   5.121  2.2330 -0.4282 -2.9162
  277MOL0     H36500  10.757   9.255   5.139  0.6670  0.6710 -1.3193
  277MOL0     H36501  10.938   9.111   5.147 -1.0744 -0.2284  0.2381
  277MOL0     H36502  10.856   9.082   5.303 -0.6958  2.2803  0.7723
  277MOL0     H36503  11.015   8.906   5.255  1.5580 -0.8417  0.2513
  277MOL0     H36504  11.083   9.004   5.394  0.3591 -2.3851  0.9296
  277MOL0     H36505  11.252   9.095   5.247  1.1663  0.6081 -0.9138
  277MOL0     H36506  11.146   9.084   5.110 -0.0899  0.3298 -0.1763
  277MOL0     H36507  11.328   8.898   5.245 -0.5596  2.2560  0.4122
  277MOL0     H36508  11.208   8.818   5.136  0.4163  1.3512 -5.2526
  277MOL0     H36509  11.283   8.980   4.947 -1.2258 -3.6324 -0.0222
  277MOL0     H36510  11.377   8.838   4.989 -0.8070 -0.4149 -0.7029
  277MOL0     H36511  11.432   9.133   5.079 -0.1679  0.4114 -0.8203
  277MOL0     H36512  11.509   9.049   4.946  1.0400 -2.1671 -0.1839
  277MOL0     H36513  11.557   9.010   5.237  0.4078  0.6783 -0.8561
  277MOL0     H36514  11.594   8.876   5.106 -1.0527  0.1396 -1.1398
  277MOL0     H36515  11.677   9.162   5.114 -0.1000 -0.3101  0.7549
  277MOL0     H36516  11.746   9.040   5.011  0.7079  1.1215 -0.1138
  277MOL0     H36517  11.796   9.166   5.357 -0.7145 -0.0011  0.9007
  277MOL0     H36518  12.077   8.979   5.538  0.5700 -0.5544 -2.1148
  277MOL0     H36519  12.017   9.144   5.525 -2.9724 -0.2060 -2.0071
  277MOL0     H36520  12.242   9.022   5.352  2.9242 -0.6004  2.0782
  277MOL0     H36521  12.276   9.111   5.496 -0.8587  0.8416  2.1835
  277MOL0     H36522  12.299   9.235   5.273  2.0670  1.4045  1.6500
  277MOL0     H36523  12.125   9.240   5.260  1.1285 -1.0253  0.5132
  277MOL0     H36524  12.219   9.459   5.336  3.5768 -1.7938 -1.3530
  277MOL0     H36525  12.301   9.374   5.468  0.8502  1.3202 -0.4067
  277MOL0     H36526  12.045   9.468   5.221 -1.0835  0.1568 -0.7758
  277MOL0     H36527  11.820   9.504   5.132  1.2554  2.5458 -0.1104
  277MOL0     H36528  11.563   9.783   5.014 -1.9390  3.4322 -1.5376
  277MOL0     H36529  11.366   9.915   4.940  3.3236  0.2210 -0.0369
  277MOL0     H36530  11.002   9.843   5.147 -1.3056  0.0800 -0.4683
  277MOL0     H36531  10.936   9.763   5.022 -0.3943  1.4806 -1.8920
  277MOL0     H36532  10.884   9.985   4.893 -0.5722  5.0514  0.3163
  277MOL0     H36533  10.999  10.065   4.995  2.8247 -2.2197 -1.3486
  277MOL0     H36534  10.850  10.034   5.191  0.1727 -0.9031 -0.2054
  277MOL0     H36535  10.739   9.944   5.087 -0.6376  0.4524 -0.7173
  277MOL0     H36536  10.861  10.225   5.005  0.3998 -2.6984 -2.8519
  277MOL0     H36537  10.696  10.175   4.975 -0.3410 -0.0221  0.0614
  277MOL0     H36538  10.811  10.251   5.241 -0.3301 -3.0591 -0.5343
  277MOL0     H36539  10.639  10.199   5.214 -0.8135 -0.3648 -1.3816
  277MOL0     H36540  10.603  10.382   5.048 -0.7706  0.2851  0.8153
  277MOL0     H36541  10.768  10.437   5.065 -0.9123  2.4327 -0.6010
  277MOL0     H36542  10.515  10.418   5.263 -1.2320  1.6476 -1.7884
  277MOL0     H36543  10.682  10.459   5.314 -1.7239 -1.3885 -0.7238
  277MOL0     H36544  10.477  10.612   5.177 -0.2440 -0.2251 -1.5918
  277MOL0     H36545  10.629  10.640   5.098 -3.3630  1.3769 -0.6796
  277MOL0     H36546  11.103   9.641   5.124 -0.3245 -0.1200 -3.6933
  277MOL0     H36547  11.300   9.543   5.258 -1.8667  1.1393 -0.4814
  277MOL0     H36548  11.672   9.401   5.533 -0.6200 -2.5599 -1.0051
  277MOL0     H36549  11.891   9.366   5.614  0.2024  1.4865  0.6698
  277MOL0     H36550  10.986   9.465   5.451  1.2101  1.7822 -2.2635
  277MOL0     H36551  10.848   9.649   5.432 -0.2617 -0.9224  1.1934
  277MOL0     H36552  10.231   9.673   5.343  2.5579 -2.0443  0.4159
  277MOL0     H36553  10.088   9.854   5.332  0.0818 -1.7956 -1.9939
  277MOL0     H36554  10.234  10.262   5.186 -1.2245  0.7443  0.3530
  277MOL0     H36555  10.266  10.262   5.359  2.5082 -1.1350 -1.1683
  277MOL0     H36556   9.998  10.295   5.237 -1.9825 -0.1554  1.1823
  277MOL0     H36557  10.035  10.328   5.400 -3.7322  2.1469 -1.3730
  277MOL0     H36558  10.203  10.506   5.341 -1.1294  1.0827 -0.5377
  277MOL0     H36559  10.037  10.552   5.342  0.7694  1.5615 -0.7366
  277MOL0     H36560  10.213  10.478   5.098  1.2413  0.3821  1.2289
  277MOL0     H36561  10.033  10.501   5.088  1.4557  2.0278 -1.0925
  277MOL0     H36562  10.210  10.889   5.149 -3.0478 -0.5429  2.0711
  277MOL0     H36563  10.422  10.116   5.262  0.0558 -0.3634 -1.6686
  277MOL0     H36564  10.568   9.928   5.241 -0.0798  1.7427  0.1833
  278MOL0     O36565   6.061   3.601  10.675  0.1368  0.2387  0.1572
  278MOL0     C36566   6.121   3.611  10.779  0.3603 -0.2028  1.3561
  278MOL0     O36567   6.078   3.546  10.891  0.1184 -0.4075  0.6765
  278MOL0     C36568   5.985   3.446  10.909 -0.3286 -1.1147  0.3650
  278MOL0     C36569   5.992   3.390  11.039  0.0483 -0.2788  0.3450
  278MOL0     C36570   5.905   3.292  11.076  0.4562 -0.8279 -1.1392
  278MOL0     C36571   5.809   3.249  10.991 -0.0199 -0.1612  1.3123
  278MOL0     O36572   5.722   3.149  11.029 -0.1815  0.1897 -0.0381
  278MOL0     C36573   5.605   3.201  11.078 -0.9964 -0.1848 -0.5011
  278MOL0     C36574   5.505   3.090  11.091  0.9388  0.8413  0.6775
  278MOL0     C36575   5.386   3.132  11.172  0.0665  0.0268  0.3395
  278MOL0     C36576   5.297   3.021  11.214  0.0510 -0.2156  0.2941
  278MOL0     C36577   5.166   3.070  11.272 -0.3137 -1.0507 -0.0211
  278MOL0     C36578   5.079   2.952  11.322  0.2838 -0.1674  0.9793
  278MOL0     C36579   4.957   3.018  11.385  1.0323 -0.0533  0.3035
  278MOL0     C36580   4.975   3.019  11.541 -0.6476  0.1301 -0.1903
  278MOL0     N36581   4.863   3.095  11.593  0.4431 -0.4172  0.2843
  278MOL0     C36582   4.730   3.062  11.586 -0.6837  0.1760 -1.0875
  278MOL0     C36583   4.665   3.169  11.636  0.3111 -0.7782  0.8349
  278MOL0     C36584   4.517   3.158  11.659  0.0682  0.1974 -0.5830
  278MOL0     C36585   4.454   3.295  11.707  0.4896 -0.6955 -0.6540
  278MOL0     C36586   4.495   3.415  11.608 -1.2507 -0.1299  0.6293
  278MOL0     C36587   4.473   3.376  11.467 -0.0704  0.3462  0.0118
  278MOL0     O36588   4.330   3.331  11.454 -0.6701 -0.2725 -0.9529
  278MOL0     C36589   4.312   3.260  11.342 -0.4360  0.2131  0.1618
  278MOL0     C36590   4.400   3.265  11.226  0.4014  0.0375  0.7367
  278MOL0     C36591   4.370   3.183  11.116  0.0158  0.6040 -0.0646
  278MOL0     C36592   4.251   3.101  11.120 -0.0012 -0.4225  0.7583
  278MOL0     C36593   4.223   3.006  11.011 -0.0785  0.0357  0.4641
  278MOL0     O36594   4.096   2.961  11.015 -0.5212  0.2305 -0.6572
  278MOL0     C36595   4.051   2.867  10.923  0.4066 -0.8027  0.3028
  278MOL0     C36596   3.932   2.891  10.852 -0.4470  0.0404  0.0771
  278MOL0     C36597   3.910   2.811  10.743 -0.1348 -0.1340 -1.1357
  278MOL0     C36598   3.989   2.688  10.726 -0.1665  0.7265  1.2039
  278MOL0     O36599   3.970   2.595  10.624 -0.6226 -0.2745 -0.0489
  278MOL0     C36600   3.878   2.625  10.512  0.4160  0.5352 -0.1427
  278MOL0     C36601   3.897   2.536  10.395 -0.2564  0.7207 -1.1298
  278MOL0     C36602   3.865   2.386  10.438 -0.4444 -0.4516 -0.6971
  278MOL0     C36603   3.934   2.267  10.374 -0.3804  0.5319 -0.7947
  278MOL0     C36604   3.902   2.254  10.225 -0.0361 -0.3981 -0.4114
  278MOL0     C36605   3.923   2.379  10.136  0.4974  0.4935 -0.5391
  278MOL0     C36606   3.926   2.351   9.983  0.1793  0.2969 -0.3636
  278MOL0     C36607   3.789   2.313   9.923 -0.3211  0.4354  0.2760
  278MOL0    Cl36608   3.741   2.147   9.957  0.2385 -0.0883  0.4332
  278MOL0     C36609   4.093   2.658  10.805  0.3158  0.7669 -0.6734
  278MOL0     C36610   4.125   2.748  10.903 -0.5828  0.6154  0.5817
  278MOL0     O36611   4.300   2.990  10.925 -0.2210  0.9546  0.3285
  278MOL0     C36612   4.154   3.116  11.228 -1.1128  0.1544  0.7727
  278MOL0     C36613   4.192   3.192  11.334  1.5091  0.1680  0.0043
  278MOL0     N36614   4.768   3.263  11.676 -0.3451  0.3258 -0.0117
  278MOL0     N36615   4.882   3.210  11.657 -0.0665  0.5466  0.8961
  278MOL0     C36616   5.790   3.304  10.861 -0.6141  0.0075 -0.1944
  278MOL0     C36617   5.881   3.394  10.824  0.4384 -0.3650  0.4036
  278MOL0     C36618   6.242   3.702  10.775 -0.2031  0.3805 -0.5278
  278MOL0     C36619   6.272   3.780  10.659  0.5358  0.4381  0.3970
  278MOL0     C36620   6.388   3.859  10.660  0.5452 -0.2283 -0.2606
  278MOL0     C36621   6.475   3.843  10.774  1.0261 -0.2840  0.4351
  278MOL0     O36622   6.598   3.899  10.768 -0.0734  0.5620 -0.5963
  278MOL0     C36623   6.694   3.841  10.672 -0.5371  0.2937  0.1357
  278MOL0     C36624   6.689   3.919  10.544  0.1073 -0.0960  0.4300
  278MOL0     C36625   6.830   3.943  10.485  0.2068  0.0389 -0.0994
  278MOL0     C36626   6.926   4.031  10.567  0.4129  0.5668  0.0190
  278MOL0     C36627   7.062   4.023  10.513 -0.1096 -0.2141 -0.2958
  278MOL0     C36628   7.181   4.018  10.473 -0.4016 -0.1412 -0.2874
  278MOL0     C36629   6.450   3.768  10.888 -1.0917  0.6147 -0.1027
  278MOL0     C36630   6.327   3.705  10.896  0.2160 -0.3383  0.9690
  278MOL0     H36631   6.056   3.425  11.120  4.1354 -1.3231 -2.1302
  278MOL0     H36632   5.906   3.251  11.177 -2.2274  0.6229 -0.4217
  278MOL0     H36633   5.569   3.284  11.017  0.9993  0.6553 -0.6087
  278MOL0     H36634   5.627   3.239  11.178 -1.1815 -2.6013  0.5337
  278MOL0     H36635   5.549   3.009  11.150 -3.0316 -2.2836 -0.1580
  278MOL0     H36636   5.482   3.049  10.992  0.1039 -0.1213  1.2432
  278MOL0     H36637   5.329   3.207  11.116 -0.0950 -0.3548 -0.0051
  278MOL0     H36638   5.437   3.170  11.261 -1.0281 -1.3950  1.6161
  278MOL0     H36639   5.273   2.967  11.122 -0.7888 -0.6632  0.7677
  278MOL0     H36640   5.343   2.948  11.281 -0.8521 -1.1557 -0.0780
  278MOL0     H36641   5.106   3.134  11.206 -1.7631 -3.5827 -1.3007
  278MOL0     H36642   5.194   3.134  11.357  1.6542 -1.8374 -0.0160
  278MOL0     H36643   5.129   2.884  11.391 -0.6502 -3.2194 -1.1696
  278MOL0     H36644   5.055   2.887  11.237  2.0885  1.6080 -1.0039
  278MOL0     H36645   4.931   3.115  11.341  0.7124 -0.7491 -1.1046
  278MOL0     H36646   4.872   2.952  11.364 -0.7579  1.6143  1.8240
  278MOL0     H36647   5.070   3.066  11.569  0.2868 -1.2771 -0.8803
  278MOL0     H36648   4.971   2.919  11.585  0.9329  0.3106  0.4291
  278MOL0     H36649   4.681   2.970  11.558 -0.4138 -0.1988 -0.3623
  278MOL0     H36650   4.513   3.084  11.740 -0.7613  0.6331 -0.2099
  278MOL0     H36651   4.461   3.112  11.577  1.8636 -4.7210  0.5940
  278MOL0     H36652   4.483   3.306  11.812  0.7128  0.7147 -0.8471
  278MOL0     H36653   4.345   3.293  11.701  0.1474  3.4619  0.7016
  278MOL0     H36654   4.434   3.502  11.638 -0.2745  1.1677 -0.9903
  278MOL0     H36655   4.597   3.452  11.623 -0.8717 -1.3300  1.0723
  278MOL0     H36656   4.539   3.295  11.436  0.4085  0.8784 -0.3845
  278MOL0     H36657   4.488   3.469  11.410 -1.7961  1.3286  1.0459
  278MOL0     H36658   4.481   3.336  11.230 -1.4644  2.2107  3.4792
  278MOL0     H36659   4.447   3.173  11.040  0.7001  1.0431  0.5515
  278MOL0     H36660   3.871   2.979  10.870 -2.1526 -1.5507  2.6643
  278MOL0     H36661   3.843   2.849  10.666  0.4959  1.1653 -1.0726
  278MOL0     H36662   3.879   2.727  10.473 -0.0285  0.0787 -1.3867
  278MOL0     H36663   3.782   2.595  10.556 -0.2528  2.2647 -0.3418
  278MOL0     H36664   3.994   2.542  10.345 -0.6722  3.5094 -1.7403
  278MOL0     H36665   3.822   2.554  10.318  0.3707 -3.1584 -2.8966
  278MOL0     H36666   3.756   2.378  10.435 -0.6209  1.2437 -0.0808
  278MOL0     H36667   3.885   2.374  10.544 -1.2744 -1.6273 -0.6506
  278MOL0     H36668   4.041   2.271  10.397 -0.4924 -0.9767  0.1203
  278MOL0     H36669   3.896   2.176  10.422 -2.2670  0.6104 -2.0297
  278MOL0     H36670   3.798   2.222  10.230 -0.0828 -0.1181  0.7041
  278MOL0     H36671   3.957   2.166  10.191  2.8282  0.7088  1.0128
  278MOL0     H36672   4.024   2.421  10.146  0.3174  0.9905 -0.7657
  278MOL0     H36673   3.848   2.458  10.138  0.0184  0.1542 -2.7659
  278MOL0     H36674   3.972   2.428   9.919  3.5617 -1.9609 -0.9406
  278MOL0     H36675   3.987   2.261   9.970  0.4561  0.3034  0.7961
  278MOL0     H36676   3.805   2.317   9.815  1.7242  1.3057  0.5536
  278MOL0     H36677   3.710   2.381   9.956 -0.7816  0.0574 -0.0522
  278MOL0     H36678   4.148   2.566  10.787  0.3272  0.9273 -1.4653
  278MOL0     H36679   4.218   2.729  10.954  0.2867 -1.0637 -1.4964
  278MOL0     H36680   4.064   3.056  11.226 -0.1308 -1.3425 -0.8200
  278MOL0     H36681   4.129   3.200  11.422  2.3012 -0.3637  0.6298
  278MOL0     H36682   5.711   3.266  10.796  2.2801 -4.7910 -1.4543
  278MOL0     H36683   5.877   3.410  10.716 -1.3775  1.5733  0.6901
  278MOL0     H36684   6.215   3.769  10.568  0.8673  0.2172  0.2133
  278MOL0     H36685   6.423   3.915  10.574 -0.5729 -0.3027 -0.7844
  278MOL0     H36686   6.668   3.736  10.657 -1.6678  0.3718  1.3365
  278MOL0     H36687   6.796   3.851  10.709 -0.6244 -0.5815  0.6417
  278MOL0     H36688   6.643   3.848  10.474 -0.5756 -0.7750  1.5440
  278MOL0     H36689   6.635   4.014  10.541  2.9438  1.6664  1.4482
  278MOL0     H36690   6.822   4.009  10.398  2.6996  1.1078  0.3920
  278MOL0     H36691   6.871   3.850  10.445 -0.2848  0.5397 -1.8666
  278MOL0     H36692   6.881   4.130  10.574 -1.2458 -0.1861  0.3970
  278MOL0     H36693   6.935   3.991  10.669  0.1080 -1.7847 -0.8075
  278MOL0     H36694   7.287   4.004  10.461 -0.6241 -0.4760 -2.1078
  278MOL0     H36695   6.521   3.764  10.970 -4.3272  1.0835  2.9709
  278MOL0     H36696   6.299   3.636  10.975 -2.2403  0.4616  0.8559
  279MOL0     O36697   2.694   5.044   4.420 -0.0866 -1.0519 -0.2719
  279MOL0     C36698   2.767   5.129   4.465  0.1704  0.4304 -0.2097
  279MOL0     O36699   2.750   5.184   4.600 -0.6954 -0.2654  0.6600
  279MOL0     C36700   2.642   5.144   4.668 -0.0846  0.1296 -0.3881
  279MOL0     C36701   2.644   5.021   4.735  0.3282 -0.0730  0.1469
  279MOL0     C36702   2.543   4.997   4.831 -1.1196  0.3853  0.2030
  279MOL0     C36703   2.435   5.083   4.840 -0.3537  0.2501  0.4448
  279MOL0     O36704   2.330   5.078   4.926  0.4152 -0.8061 -0.1170
  279MOL0     C36705   2.348   4.998   5.043 -0.1177 -0.2231  0.6830
  279MOL0     C36706   2.296   5.091   5.161 -0.3448  0.5348 -0.5012
  279MOL0     C36707   2.152   5.085   5.179 -0.6902 -0.7886 -0.3380
  279MOL0     C36708   2.108   5.172   5.305 -0.2033  0.6808  0.7586
  279MOL0     C36709   1.959   5.182   5.308  0.8661 -0.5221 -0.3350
  279MOL0     C36710   1.902   5.056   5.375  0.3018  0.8334 -0.1311
  279MOL0     C36711   1.742   5.046   5.368  0.2288  0.2229  0.1202
  279MOL0     C36712   1.667   5.144   5.456  0.1478 -0.6075 -0.1672
  279MOL0     N36713   1.703   5.126   5.595  0.3622 -0.6449  0.1176
  279MOL0     C36714   1.710   5.010   5.662 -0.0600  0.2752 -0.7959
  279MOL0     C36715   1.732   5.036   5.792  0.0138 -0.5276  0.2339
  279MOL0     C36716   1.727   4.946   5.912 -0.0597  0.6950 -0.1891
  279MOL0     C36717   1.585   4.951   5.983 -0.1520  0.0984  0.0152
  279MOL0     C36718   1.595   4.885   6.118 -0.3294 -0.6759  0.1845
  279MOL0     C36719   1.456   4.874   6.175 -0.1096  0.8755  0.7130
  279MOL0     O36720   1.488   4.881   6.315  0.3098  0.3577 -0.3718
  279MOL0     C36721   1.398   4.817   6.398  0.0620  0.2030 -0.3998
  279MOL0     C36722   1.272   4.872   6.413 -0.1207  0.1612 -0.8927
  279MOL0     C36723   1.169   4.812   6.492 -0.1728  0.8163  0.1140
  279MOL0     C36724   1.200   4.694   6.557  0.4170 -0.5827 -0.6305
  279MOL0     C36725   1.093   4.634   6.647  0.2108  0.0369  0.6515
  279MOL0     O36726   1.121   4.503   6.678  0.1118 -1.0349  0.2741
  279MOL0     C36727   1.018   4.424   6.721  1.1203  1.0661 -0.5726
  279MOL0     C36728   0.925   4.451   6.821 -1.3953 -0.6714  0.2855
  279MOL0     C36729   0.825   4.364   6.851  0.0939 -0.0971  0.0625
  279MOL0     C36730   0.797   4.256   6.758 -0.5004  0.2291  0.0990
  279MOL0     O36731   0.690   4.176   6.772 -0.2461  0.0675 -0.1117
  279MOL0     C36732   0.562   4.233   6.748 -1.2982  0.4011  0.4066
  279MOL0     C36733   0.518   4.214   6.606 -0.5371  0.0672 -0.1320
  279MOL0     C36734   0.496   4.071   6.550  0.1325 -0.4610  0.9417
  279MOL0     C36735   0.476   4.080   6.396  0.1613 -0.0585 -0.1825
  279MOL0     C36736   0.595   4.125   6.313  0.7136 -0.4888 -0.0075
  279MOL0     C36737   0.718   4.043   6.345 -0.9355  0.4321  0.1445
  279MOL0     C36738   0.843   4.073   6.266  0.7132  0.5267 -0.0755
  279MOL0     C36739   0.805   4.040   6.120 -0.3983 -0.0522  0.2248
  279MOL0    Cl36740   0.958   4.031   6.031  0.0023 -0.2180  0.2857
  279MOL0     C36741   0.894   4.229   6.656  0.1718  0.1610 -0.7276
  279MOL0     C36742   0.997   4.309   6.637  0.9411 -0.7776 -0.2408
  279MOL0     O36743   0.991   4.698   6.660 -1.1998 -0.1559 -0.0469
  279MOL0     C36744   1.322   4.629   6.545  0.5107  0.2308  0.0145
  279MOL0     C36745   1.414   4.694   6.474 -1.3512 -0.5468  1.6431
  279MOL0     N36746   1.754   5.179   5.799  0.0389  0.1028  0.0026
  279MOL0     N36747   1.735   5.227   5.683  0.1281  0.1727 -0.2799
  279MOL0     C36748   2.429   5.193   4.754 -0.0144  0.0069 -1.0381
  279MOL0     C36749   2.531   5.232   4.679 -1.0733  0.6321  0.3851
  279MOL0     C36750   2.906   5.135   4.403  0.4757  0.0580  0.8503
  279MOL0     C36751   2.940   5.101   4.264 -0.1446  1.1796  0.2103
  279MOL0     C36752   3.066   5.115   4.202 -0.0976 -0.6997 -0.2264
  279MOL0     C36753   3.168   5.146   4.295 -0.3082 -0.0987 -0.0991
  279MOL0     O36754   3.300   5.146   4.243 -0.0894 -0.1465 -0.2148
  279MOL0     C36755   3.415   5.177   4.329  0.2564 -0.0478  0.1591
  279MOL0     C36756   3.524   5.224   4.242  0.0139 -1.0413 -0.6705
  279MOL0     C36757   3.573   5.145   4.127  0.2679 -0.0077 -0.0611
  279MOL0     C36758   3.687   5.221   4.053  0.7272 -1.0137  1.1455
  279MOL0     C36759   3.623   5.321   3.966 -0.2324  0.6737  0.5121
  279MOL0     C36760   3.571   5.401   3.895 -1.0745  0.3857  0.4898
  279MOL0     C36761   3.141   5.177   4.433  0.3745  0.1293  0.1469
  279MOL0     C36762   3.005   5.178   4.481 -0.8915 -0.4243  0.9151
  279MOL0     H36763   2.730   4.955   4.724  0.4857  0.1596 -0.0303
  279MOL0     H36764   2.542   4.906   4.891 -0.6139  0.9489  1.0953
  279MOL0     H36765   2.453   4.980   5.069  0.2533 -1.4223 -1.4025
  279MOL0     H36766   2.288   4.907   5.028  1.6138 -1.3197  0.0337
  279MOL0     H36767   2.328   5.194   5.143 -0.0795  1.6281  4.6807
  279MOL0     H36768   2.342   5.057   5.254 -3.3047 -1.9403  0.2021
  279MOL0     H36769   2.131   4.978   5.189  0.1743 -0.7378  3.5864
  279MOL0     H36770   2.102   5.122   5.089  0.6243  0.9060 -0.4227
  279MOL0     H36771   2.164   5.130   5.388  2.4868  1.6700 -0.4326
  279MOL0     H36772   2.146   5.274   5.295 -0.1765  0.7476  1.5128
  279MOL0     H36773   1.908   5.179   5.211 -1.2687 -1.2902  0.7378
  279MOL0     H36774   1.927   5.271   5.364 -0.7621 -1.8138  0.9027
  279MOL0     H36775   1.915   5.060   5.483 -0.2895 -1.5960  0.0728
  279MOL0     H36776   1.948   4.962   5.346 -2.2623 -1.0410  1.4741
  279MOL0     H36777   1.717   5.064   5.263 -0.8330  0.0286  0.3253
  279MOL0     H36778   1.713   4.943   5.392  0.4404  0.5006  1.7047
  279MOL0     H36779   1.558   5.138   5.441 -0.0810 -1.4692  1.5263
  279MOL0     H36780   1.691   5.244   5.420  4.9342 -1.9581 -1.3254
  279MOL0     H36781   1.686   4.912   5.624  0.5060 -0.2873  0.2693
  279MOL0     H36782   1.816   4.962   5.974  1.9364 -2.9928 -1.7585
  279MOL0     H36783   1.750   4.844   5.880 -0.6773  0.7185 -0.7234
  279MOL0     H36784   1.514   4.898   5.919  0.6179 -3.1786  1.6632
  279MOL0     H36785   1.552   5.053   6.005  1.0025  0.0349  2.3833
  279MOL0     H36786   1.633   4.783   6.107  1.7277  0.1578 -1.1071
  279MOL0     H36787   1.664   4.938   6.185  0.1923  1.1213 -1.6504
  279MOL0     H36788   1.412   4.780   6.137  1.8069 -0.0514  0.6871
  279MOL0     H36789   1.386   4.953   6.147  1.0833  2.4143  1.9138
  279MOL0     H36790   1.235   4.955   6.352 -1.6085  0.3944  0.2617
  279MOL0     H36791   1.065   4.841   6.480 -0.0235  1.0708 -0.6312
  279MOL0     H36792   0.938   4.529   6.896  0.6775 -0.3192 -0.3757
  279MOL0     H36793   0.758   4.396   6.931 -0.4994  0.8104 -0.7793
  279MOL0     H36794   0.566   4.340   6.774  0.1757  0.6927 -0.8856
  279MOL0     H36795   0.486   4.198   6.819 -0.8376 -1.1219  0.1702
  279MOL0     H36796   0.598   4.270   6.557  0.8065  1.1172  2.9769
  279MOL0     H36797   0.435   4.285   6.591  0.1784  1.2658  1.2748
  279MOL0     H36798   0.407   4.035   6.601 -0.4807 -0.0237  0.1982
  279MOL0     H36799   0.583   4.012   6.581 -3.4760 -6.1366  1.5489
  279MOL0     H36800   0.453   3.975   6.373 -2.0978  0.0888  1.1437
  279MOL0     H36801   0.393   4.147   6.372  1.4193  2.1689  1.3335
  279MOL0     H36802   0.606   4.232   6.329 -0.4175 -0.3636  0.0552
  279MOL0     H36803   0.567   4.109   6.208 -1.4959 -0.8832  0.5827
  279MOL0     H36804   0.692   3.937   6.336  0.7816 -0.1360  1.4215
  279MOL0     H36805   0.755   4.064   6.445  0.7181 -0.7580 -0.1700
  279MOL0     H36806   0.866   4.180   6.279 -0.3154  0.6080  1.2679
  279MOL0     H36807   0.920   4.004   6.300 -2.4149 -1.7484  3.0776
  279MOL0     H36808   0.748   4.128   6.089  0.3139  1.4547  2.8450
  279MOL0     H36809   0.746   3.948   6.116 -1.4793  0.5832  0.9635
  279MOL0     H36810   0.878   4.145   6.590 -1.6966  1.1025 -1.5609
  279MOL0     H36811   1.064   4.271   6.561  0.0457 -2.7480 -0.1096
  279MOL0     H36812   1.351   4.529   6.574  1.1791  1.3240  3.6530
  279MOL0     H36813   1.513   4.650   6.466 -1.5905 -1.4234  3.2755
  279MOL0     H36814   2.340   5.252   4.773  0.5307  0.5551 -0.1044
  279MOL0     H36815   2.528   5.320   4.617 -2.8392 -0.9293 -1.9094
  279MOL0     H36816   2.854   5.074   4.202  0.2119  1.0675 -0.2390
  279MOL0     H36817   3.070   5.086   4.097 -3.4289  1.4669 -1.0976
  279MOL0     H36818   3.439   5.086   4.385  0.7801  1.2226  2.1139
  279MOL0     H36819   3.390   5.255   4.401 -1.3194 -1.7242  1.5321
  279MOL0     H36820   3.509   5.326   4.205 -1.7392 -1.1105 -0.2337
  279MOL0     H36821   3.609   5.227   4.311  1.1400 -1.6255 -1.9948
  279MOL0     H36822   3.490   5.121   4.059 -0.4073  0.0948  0.7103
  279MOL0     H36823   3.608   5.045   4.155  1.7064 -0.1113 -1.9879
  279MOL0     H36824   3.754   5.277   4.119  0.1940  1.2357 -0.1209
  279MOL0     H36825   3.737   5.151   3.985 -1.6785 -1.1038 -0.6369
  279MOL0     H36826   3.517   5.474   3.838  0.7406  0.1534 -1.7025
  279MOL0     H36827   3.224   5.194   4.501  1.0608 -0.8795 -0.4314
  279MOL0     H36828   2.983   5.212   4.581  0.5151  0.0665  1.0885
  280MOL0     O36829   2.369   2.452   9.461  0.8612 -1.2397 -0.3689
  280MOL0     C36830   2.475   2.454   9.403 -0.6191  0.2817  0.6894
  280MOL0     O36831   2.501   2.486   9.274  0.0801 -0.9045  0.0843
  280MOL0     C36832   2.405   2.554   9.219  0.9859  0.4225  0.0361
  280MOL0     C36833   2.412   2.686   9.195  0.2956  0.3969 -0.9072
  280MOL0     C36834   2.313   2.765   9.128 -0.1427  0.2948  0.7733
  280MOL0     C36835   2.199   2.702   9.085  0.1564 -0.3016  0.2661
  280MOL0     O36836   2.092   2.761   9.023  0.1485 -0.2205  0.1166
  280MOL0     C36837   2.031   2.841   9.122 -0.1184  0.1428  0.1099
  280MOL0     C36838   1.900   2.776   9.140 -0.0443 -0.2121 -1.0484
  280MOL0     C36839   1.792   2.812   9.035  1.4236  0.2653  0.5948
  280MOL0     C36840   1.679   2.703   9.040  0.8687  0.0623 -0.4349
  280MOL0     C36841   1.615   2.693   8.904  0.0329  0.2186 -0.9555
  280MOL0     C36842   1.500   2.586   8.920 -0.5111 -0.0359  0.0414
  280MOL0     C36843   1.408   2.597   8.797  0.1323  0.7510  0.6113
  280MOL0     C36844   1.274   2.520   8.816 -0.5450 -0.5278  0.9947
  280MOL0     N36845   1.199   2.541   8.691  1.1573  0.0896 -0.5234
  280MOL0     C36846   1.225   2.472   8.577  0.1519 -0.2915  0.4826
  280MOL0     C36847   1.123   2.509   8.495 -1.1596  0.9068  0.1465
  280MOL0     C36848   1.105   2.457   8.352  0.5279 -0.1211 -0.9939
  280MOL0     C36849   1.228   2.469   8.271 -0.3708 -0.4343 -0.0312
  280MOL0     C36850   1.268   2.617   8.267 -0.9777  0.7493  0.3201
  280MOL0     C36851   1.391   2.637   8.174  0.6518 -0.2338  0.4427
  280MOL0     O36852   1.487   2.541   8.218  0.2504 -0.7357  0.1278
  280MOL0     C36853   1.602   2.591   8.263  0.7455  0.5452  0.8738
  280MOL0     C36854   1.670   2.698   8.199  0.9080  0.0240  0.2282
  280MOL0     C36855   1.800   2.740   8.231 -0.6905 -0.3221 -0.2228
  280MOL0     C36856   1.874   2.665   8.322  0.6812 -0.5879  0.4902
  280MOL0     C36857   2.021   2.688   8.349  0.0678  0.2160 -0.6188
  280MOL0     O36858   2.088   2.598   8.438 -0.7284  1.1159  0.8313
  280MOL0     C36859   2.216   2.618   8.482 -0.4176 -0.0129 -0.2183
  280MOL0     C36860   2.231   2.607   8.618 -0.1132  0.5173 -0.2410
  280MOL0     C36861   2.351   2.646   8.675 -0.1226 -0.0760  0.1192
  280MOL0     C36862   2.459   2.673   8.591 -0.5687 -0.3395  0.6940
  280MOL0     O36863   2.580   2.699   8.649  0.5795 -0.4462 -1.0135
  280MOL0     C36864   2.693   2.607   8.617 -0.1013 -0.1008 -0.1555
  280MOL0     C36865   2.816   2.693   8.581  0.9196  0.5125  0.0667
  280MOL0     C36866   2.873   2.772   8.692 -0.5571 -0.3481  0.0851
  280MOL0     C36867   2.948   2.889   8.629 -0.2668 -1.0293  0.7861
  280MOL0     C36868   3.054   2.954   8.722 -0.7550  1.2052 -0.0946
  280MOL0     C36869   3.021   2.981   8.874  0.4320 -0.1482  0.5861
  280MOL0     C36870   3.135   3.008   8.969 -0.7727  0.0312  0.0572
  280MOL0     C36871   3.275   2.978   8.918 -0.5426  0.1470 -0.6838
  280MOL0    Cl36872   3.327   3.088   8.800  0.1768  0.3697  0.2209
  280MOL0     C36873   2.444   2.681   8.454  0.0123  0.3036  0.1422
  280MOL0     C36874   2.322   2.649   8.394  0.5384 -0.8124  0.0892
  280MOL0     O36875   2.069   2.790   8.296  0.2251  1.1049 -0.8567
  280MOL0     C36876   1.805   2.561   8.389 -0.1774  0.1044  0.3774
  280MOL0     C36877   1.679   2.518   8.359  1.1416 -0.4314  0.2579
  280MOL0     N36878   1.042   2.593   8.565  0.8033  0.1483  0.7396
  280MOL0     N36879   1.081   2.607   8.686  0.6909 -0.4540  0.7557
  280MOL0     C36880   2.195   2.563   9.109  0.2967  0.1671 -1.0908
  280MOL0     C36881   2.294   2.492   9.171 -0.8432  0.0712  0.0404
  280MOL0     C36882   2.589   2.430   9.497 -0.6746  0.4633  0.8003
  280MOL0     C36883   2.564   2.386   9.628 -0.7845  0.9478  0.3733
  280MOL0     C36884   2.680   2.373   9.716  0.6723  1.1071  0.5287
  280MOL0     C36885   2.815   2.376   9.663 -0.5843  0.1466 -0.3999
  280MOL0     O36886   2.925   2.344   9.742  0.4961 -0.2745 -0.3556
  280MOL0     C36887   2.907   2.270   9.862 -0.1484 -0.3386  0.6057
  280MOL0     C36888   3.044   2.274   9.931  0.4437  0.1519 -0.7204
  280MOL0     C36889   3.084   2.415   9.980  0.3520  0.1984 -0.0926
  280MOL0     C36890   3.214   2.411  10.059  0.2095 -0.2557 -0.2885
  280MOL0     C36891   3.332   2.355   9.987  0.5777  0.1911  0.1863
  280MOL0     C36892   3.437   2.312   9.941 -0.0897  0.1009  0.0129
  280MOL0     C36893   2.829   2.428   9.535 -0.4962  0.3893  0.0940
  280MOL0     C36894   2.720   2.459   9.454 -0.7406  0.2992  0.8258
  280MOL0     H36895   2.495   2.743   9.235  1.1617 -1.9719  0.8734
  280MOL0     H36896   2.314   2.872   9.110  0.4664  0.3592  1.1595
  280MOL0     H36897   2.019   2.946   9.094 -0.0456 -0.1023 -0.9111
  280MOL0     H36898   2.069   2.841   9.224 -2.8930  0.9864  1.2190
  280MOL0     H36899   1.867   2.821   9.235  2.6894  5.1330 -2.2248
  280MOL0     H36900   1.922   2.669   9.148  0.7430 -0.0068 -0.3545
  280MOL0     H36901   1.838   2.816   8.936  2.5617 -1.0247  1.0427
  280MOL0     H36902   1.746   2.907   9.064  0.5175 -0.5642  1.9831
  280MOL0     H36903   1.727   2.607   9.065  1.1278 -0.4223 -2.5920
  280MOL0     H36904   1.612   2.734   9.121 -0.3112 -1.0850 -0.9340
  280MOL0     H36905   1.695   2.675   8.832 -0.0445  1.0719 -1.2613
  280MOL0     H36906   1.573   2.789   8.873  0.2484 -0.2265 -2.7029
  280MOL0     H36907   1.455   2.600   9.019 -1.0106 -2.1089  0.1493
  280MOL0     H36908   1.552   2.490   8.912 -1.4196 -0.4493 -1.2752
  280MOL0     H36909   1.395   2.702   8.766  1.6117  0.6196 -0.5685
  280MOL0     H36910   1.451   2.564   8.702  0.6797 -0.0744  1.1337
  280MOL0     H36911   1.210   2.567   8.892 -2.5015  2.5988 -2.2454
  280MOL0     H36912   1.291   2.415   8.839  4.0499 -0.2882 -0.3106
  280MOL0     H36913   1.287   2.387   8.550 -0.6178 -1.0699  1.1364
  280MOL0     H36914   1.024   2.517   8.308 -0.9593 -1.3123  0.0118
  280MOL0     H36915   1.064   2.356   8.351  1.0190 -0.3924  1.4254
  280MOL0     H36916   1.217   2.427   8.170  2.5962 -0.3430 -0.4829
  280MOL0     H36917   1.310   2.416   8.322 -1.3419 -2.2681 -0.2996
  280MOL0     H36918   1.178   2.678   8.259 -1.7885 -0.3851  0.4616
  280MOL0     H36919   1.303   2.640   8.368  2.7676  3.5759 -1.3611
  280MOL0     H36920   1.415   2.743   8.184 -0.7488  0.3873 -1.8925
  280MOL0     H36921   1.370   2.597   8.074 -1.7392 -0.6479  1.0497
  280MOL0     H36922   1.627   2.757   8.118  4.1990  3.8275  0.9203
  280MOL0     H36923   1.832   2.836   8.193 -0.1409  1.1451  3.4698
  280MOL0     H36924   2.145   2.589   8.682  0.0017  2.2499  0.4498
  280MOL0     H36925   2.363   2.658   8.783  1.3293 -0.8260  0.0628
  280MOL0     H36926   2.669   2.540   8.534  0.9757 -0.6449 -0.0463
  280MOL0     H36927   2.712   2.546   8.705  0.0180  0.4367  0.1952
  280MOL0     H36928   2.782   2.758   8.501 -0.7108  1.8379  1.7498
  280MOL0     H36929   2.882   2.629   8.521 -0.1863 -0.9584  0.3711
  280MOL0     H36930   2.938   2.699   8.741  2.0579  0.9396 -1.2741
  280MOL0     H36931   2.806   2.814   8.768 -0.6030 -0.4012  0.0742
  280MOL0     H36932   3.000   2.862   8.536  0.0041  2.0801 -0.0921
  280MOL0     H36933   2.876   2.968   8.607  1.9111  0.5172 -1.3629
  280MOL0     H36934   3.103   3.041   8.679  2.2600  1.1134  2.7129
  280MOL0     H36935   3.127   2.872   8.728 -1.6030  0.3666 -0.9602
  280MOL0     H36936   2.950   2.906   8.909 -1.6999  0.0024 -3.0081
  280MOL0     H36937   2.963   3.073   8.868  1.2003  0.3750  0.8977
  280MOL0     H36938   3.138   3.110   9.007 -2.0516 -1.0755  3.4855
  280MOL0     H36939   3.113   2.957   9.063  1.6332  0.2767  0.7937
  280MOL0     H36940   3.269   2.877   8.877 -3.4765  1.0463 -2.8629
  280MOL0     H36941   3.342   2.980   9.004 -1.3478  1.2269 -0.0587
  280MOL0     H36942   2.528   2.696   8.388  0.7864 -0.3028  0.9677
  280MOL0     H36943   2.300   2.654   8.288 -0.1195  3.5594  0.2222
  280MOL0     H36944   1.846   2.503   8.470  0.3360  2.0798  1.6146
  280MOL0     H36945   1.636   2.427   8.400 -2.4762  2.0393  2.4722
  280MOL0     H36946   2.122   2.502   9.057  1.8003 -0.1744 -2.9099
  280MOL0     H36947   2.288   2.383   9.170  4.5798 -0.5080  1.0168
  280MOL0     H36948   2.470   2.368   9.679  0.7046 -1.4424  2.5397
  280MOL0     H36949   2.642   2.348   9.815 -0.2273  1.5396  0.3060
  280MOL0     H36950   2.886   2.167   9.831 -2.3356  0.3955 -0.6202
  280MOL0     H36951   2.834   2.324   9.923 -0.7577  1.6168 -1.7061
  280MOL0     H36952   3.031   2.206  10.016 -2.1430  2.5606  1.0005
  280MOL0     H36953   3.127   2.239   9.869  2.3750  2.2002  0.5340
  280MOL0     H36954   3.010   2.456  10.049  1.6763  0.0390  1.4666
  280MOL0     H36955   3.085   2.492   9.902 -0.0302  0.4305  0.1286
  280MOL0     H36956   3.240   2.513  10.088  1.2779 -0.0634 -1.8031
  280MOL0     H36957   3.194   2.356  10.152  0.2282 -0.1473 -0.2202
  280MOL0     H36958   3.521   2.256   9.904  1.9932  3.2300 -0.3988
  280MOL0     H36959   2.932   2.445   9.505 -0.7180 -0.6452 -1.3484
  280MOL0     H36960   2.742   2.490   9.352  0.8683 -2.7290  0.1318
  281MOL0     O36961   1.225   3.869   8.596 -0.5933 -0.3391 -0.1332
  281MOL0     C36962   1.293   3.841   8.697 -0.2320 -0.1688 -0.7287
  281MOL0     O36963   1.255   3.748   8.791  0.7430  0.0401  0.4186
  281MOL0     C36964   1.124   3.693   8.775 -0.1440  0.2922 -0.5421
  281MOL0     C36965   1.108   3.581   8.693  0.9869  0.4595  0.5959
  281MOL0     C36966   0.978   3.519   8.693  0.0296 -0.4428  0.4722
  281MOL0     C36967   0.870   3.583   8.761 -0.2215  0.7078 -0.7050
  281MOL0     O36968   0.747   3.532   8.760  0.7486  0.1147 -0.2586
  281MOL0     C36969   0.721   3.400   8.800  0.1710 -0.1353  0.8649
  281MOL0     C36970   0.724   3.383   8.951  0.4329  0.5310 -0.0595
  281MOL0     C36971   0.626   3.273   9.001  0.4512 -0.2054 -0.4466
  281MOL0     C36972   0.638   3.261   9.155 -0.7996 -0.7356  0.4489
  281MOL0     C36973   0.529   3.171   9.210 -0.5644 -0.2014 -0.1925
  281MOL0     C36974   0.538   3.152   9.365 -0.7534  0.5806 -0.0742
  281MOL0     C36975   0.394   3.136   9.420 -0.2549  0.4175 -0.9905
  281MOL0     C36976   0.399   3.136   9.572 -0.7985 -0.6021 -0.3538
  281MOL0     N36977   0.465   3.023   9.631 -0.2866 -0.9958 -0.2134
  281MOL0     C36978   0.596   3.009   9.650 -0.2665  0.2591 -1.1844
  281MOL0     C36979   0.607   2.891   9.719 -1.0144 -0.9441 -0.0697
  281MOL0     C36980   0.738   2.854   9.784 -0.1356 -0.0223  0.0221
  281MOL0     C36981   0.719   2.738   9.876 -0.4706  0.3498 -0.1743
  281MOL0     C36982   0.865   2.702   9.924  0.4396  0.4861 -0.7420
  281MOL0     C36983   0.851   2.644  10.063 -0.6154  0.0752 -0.3830
  281MOL0     O36984   0.972   2.589  10.109 -0.6358  0.1484 -0.3907
  281MOL0     C36985   0.980   2.544  10.238  0.1086 -0.2673  0.4471
  281MOL0     C36986   0.867   2.511  10.318  0.0322  0.2495  0.2458
  281MOL0     C36987   0.885   2.462  10.446 -1.4007 -0.1783 -0.3519
  281MOL0     C36988   1.011   2.445  10.501 -0.2549 -0.4668 -0.0039
  281MOL0     C36989   1.040   2.407  10.639  0.5599 -0.2875  1.1674
  281MOL0     O36990   0.936   2.440  10.720 -0.2199  0.2927 -0.1603
  281MOL0     C36991   0.926   2.396  10.847  1.8621 -0.5393  0.4015
  281MOL0     C36992   0.954   2.266  10.885 -0.1606 -0.4452  0.8258
  281MOL0     C36993   0.938   2.230  11.016 -0.3890  0.3211  0.8521
  281MOL0     C36994   0.916   2.320  11.115  0.5366 -0.8926 -0.0131
  281MOL0     O36995   0.900   2.285  11.248 -0.0947 -0.0355  0.0392
  281MOL0     C36996   0.922   2.150  11.273  0.3535  0.6495 -0.1932
  281MOL0     C36997   0.881   2.125  11.419 -0.2648  0.7381  0.9338
  281MOL0     C36998   0.938   1.992  11.462 -0.0556  0.2304  0.6453
  281MOL0     C36999   1.058   2.010  11.555 -0.0389  0.0872  0.7549
  281MOL0     C37000   1.105   1.874  11.611 -0.8584  0.9086 -0.5960
  281MOL0     C37001   1.225   1.901  11.707 -0.6167  0.3526 -0.0572
  281MOL0     C37002   1.277   1.780  11.776  0.1877 -0.1990 -1.1609
  281MOL0     C37003   1.410   1.810  11.834  0.1533 -0.4234 -0.1574
  281MOL0    Cl37004   1.479   1.697  11.947 -0.4297  0.2697  0.1722
  281MOL0     C37005   0.873   2.453  11.073  0.2438 -0.4537 -0.1488
  281MOL0     C37006   0.892   2.494  10.940  0.0854  0.9223  0.2942
  281MOL0     O37007   1.147   2.359  10.671 -0.1614 -0.4814  0.6239
  281MOL0     C37008   1.120   2.499  10.424 -0.4948  0.1206 -0.3644
  281MOL0     C37009   1.108   2.535  10.296 -0.1925 -0.6175  2.2262
  281MOL0     N37010   0.478   2.855   9.747  0.4186 -0.4213 -0.4409
  281MOL0     N37011   0.392   2.919   9.685  0.6734 -0.6772  0.6764
  281MOL0     C37012   0.893   3.694   8.840 -0.1164 -0.2476 -0.7614
  281MOL0     C37013   1.020   3.747   8.844 -0.5260 -0.0277 -0.3993
  281MOL0     C37014   1.419   3.899   8.712 -0.4425 -0.8167 -0.1345
  281MOL0     C37015   1.496   3.892   8.834  0.4719 -0.9503  0.4047
  281MOL0     C37016   1.632   3.932   8.834  0.0982 -1.0123 -0.1051
  281MOL0     C37017   1.701   3.971   8.719  0.8562 -0.5617  0.4765
  281MOL0     O37018   1.833   3.981   8.715  0.0221 -0.4592 -0.3885
  281MOL0     C37019   1.889   4.116   8.694  0.4205 -0.0486  0.7787
  281MOL0     C37020   1.914   4.127   8.548 -0.1404 -0.2992 -0.2408
  281MOL0     C37021   2.020   4.235   8.533  0.2250  0.6973 -0.2223
  281MOL0     C37022   2.061   4.284   8.395  0.2919 -0.8077  0.3312
  281MOL0     C37023   1.959   4.360   8.323  0.8235  0.1002  0.3882
  281MOL0     C37024   1.854   4.401   8.279  0.7409  0.3768  0.0895
  281MOL0     C37025   1.617   3.996   8.613 -0.4384 -0.7043 -0.6385
  281MOL0     C37026   1.481   3.965   8.604  0.3711  0.4378 -0.1651
  281MOL0     H37027   1.177   3.523   8.631  0.6253  1.9624 -1.3197
  281MOL0     H37028   0.947   3.444   8.621 -2.2093 -1.2017  2.1089
  281MOL0     H37029   0.794   3.334   8.751  1.6341  1.2641  1.0533
  281MOL0     H37030   0.620   3.372   8.771  0.0334 -0.4518  1.6253
  281MOL0     H37031   0.695   3.481   8.988 -4.3481 -1.0292  0.9413
  281MOL0     H37032   0.822   3.348   8.988 -0.2211 -1.5483 -0.1439
  281MOL0     H37033   0.647   3.176   8.954 -1.6284 -0.6796 -0.5098
  281MOL0     H37034   0.522   3.296   8.975  1.3169  1.7668 -2.3586
  281MOL0     H37035   0.736   3.222   9.183 -0.5751  1.6248  3.4651
  281MOL0     H37036   0.620   3.355   9.207 -0.0403 -2.3230  3.8820
  281MOL0     H37037   0.534   3.078   9.153 -1.0599  0.8515 -2.0588
  281MOL0     H37038   0.431   3.212   9.181 -1.6279 -1.1644  1.8269
  281MOL0     H37039   0.588   3.238   9.412 -2.8387  2.1671 -0.5912
  281MOL0     H37040   0.594   3.063   9.395 -1.8125 -0.2409 -0.4618
  281MOL0     H37041   0.328   3.219   9.392 -1.2437 -0.4705 -1.3637
  281MOL0     H37042   0.348   3.045   9.380  0.0363  1.3122 -3.5904
  281MOL0     H37043   0.295   3.139   9.607 -2.1871 -3.4784 -3.6043
  281MOL0     H37044   0.459   3.219   9.610 -1.8554  1.1490 -2.3160
  281MOL0     H37045   0.671   3.082   9.626 -0.9595  1.0279 -1.0500
  281MOL0     H37046   0.786   2.940   9.831 -1.6252  0.5609  0.5675
  281MOL0     H37047   0.796   2.808   9.704  1.3978 -3.8088  3.0195
  281MOL0     H37048   0.670   2.651   9.830  5.1151 -3.0262 -0.6069
  281MOL0     H37049   0.653   2.772   9.956 -3.1498 -0.5281 -1.8478
  281MOL0     H37050   0.911   2.622   9.866  0.7776  0.7427 -0.8319
  281MOL0     H37051   0.924   2.794   9.928 -2.1261  2.2941 -1.7335
  281MOL0     H37052   0.780   2.560  10.064  1.5392 -2.1554  4.7947
  281MOL0     H37053   0.830   2.732  10.125  3.6752  0.9071  0.1995
  281MOL0     H37054   0.767   2.512  10.274  0.0073  0.5976  0.3031
  281MOL0     H37055   0.796   2.437  10.502 -3.3215  1.6589 -2.3957
  281MOL0     H37056   0.990   2.193  10.813  1.0220 -1.2932  2.2024
  281MOL0     H37057   0.981   2.130  11.023  1.9391  1.1035 -0.9710
  281MOL0     H37058   1.024   2.116  11.253  0.5188  0.7920  0.3841
  281MOL0     H37059   0.848   2.098  11.211 -1.7983  0.5343  2.3149
  281MOL0     H37060   0.773   2.126  11.436 -0.5544 -1.5691 -0.3217
  281MOL0     H37061   0.929   2.205  11.476 -1.5279  0.2620  2.7718
  281MOL0     H37062   0.954   1.923  11.378  1.3080  1.8151 -0.4610
  281MOL0     H37063   0.864   1.954  11.533 -0.7069  2.3228  1.1382
  281MOL0     H37064   1.144   2.040  11.495  0.3980 -1.2060  0.7001
  281MOL0     H37065   1.026   2.068  11.642 -3.7178 -0.7132  0.0946
  281MOL0     H37066   1.133   1.805  11.530  0.6914 -0.7756  1.2519
  281MOL0     H37067   1.030   1.814  11.663  1.1696 -0.7636  0.5872
  281MOL0     H37068   1.207   1.983  11.777 -1.8979  1.3023 -1.4240
  281MOL0     H37069   1.311   1.920  11.641  0.3591 -2.6835  0.1852
  281MOL0     H37070   1.213   1.769  11.864  2.5141 -1.9841  0.4144
  281MOL0     H37071   1.280   1.685  11.722 -2.8870 -1.5636  0.7744
  281MOL0     H37072   1.404   1.913  11.871 -0.6167  0.9977 -3.7864
  281MOL0     H37073   1.474   1.829  11.748  2.5993  0.5004  1.7380
  281MOL0     H37074   0.811   2.497  11.151 -3.1802 -1.4763 -2.0822
  281MOL0     H37075   0.866   2.594  10.909 -1.0155  0.0712 -1.7002
  281MOL0     H37076   1.222   2.509  10.459 -0.7757  0.1996  0.4533
  281MOL0     H37077   1.200   2.563  10.246  0.3388 -1.6357  2.6045
  281MOL0     H37078   0.816   3.739   8.901  1.2631 -1.8242  2.3748
  281MOL0     H37079   1.045   3.834   8.905  0.3207  0.2284 -1.0884
  281MOL0     H37080   1.449   3.857   8.925  0.1233 -1.3793  0.0681
  281MOL0     H37081   1.671   3.913   8.933  0.9259 -1.7730 -0.5588
  281MOL0     H37082   1.979   4.123   8.757  1.6372  0.4871 -0.9443
  281MOL0     H37083   1.813   4.192   8.714 -0.9992 -1.5583  1.3015
  281MOL0     H37084   1.933   4.031   8.500  3.2853 -0.0480  0.3504
  281MOL0     H37085   1.820   4.168   8.510 -0.7167 -1.5672 -0.2350
  281MOL0     H37086   2.113   4.189   8.566  1.6275  3.1403 -0.5552
  281MOL0     H37087   1.995   4.315   8.603  2.1149  1.6984 -0.6367
  281MOL0     H37088   2.146   4.353   8.405 -0.8451  0.7411 -0.2927
  281MOL0     H37089   2.103   4.200   8.339  1.3047  0.4056 -0.8045
  281MOL0     H37090   1.760   4.439   8.246  0.1453 -0.5940  0.6374
  281MOL0     H37091   1.672   4.028   8.525  0.1564  1.1403  0.3608
  281MOL0     H37092   1.431   3.988   8.510 -3.6269 -1.7741  1.1795
  282MOL0     O37093   0.303  11.317  11.321 -0.7528 -0.6028 -0.3488
  282MOL0     C37094   0.186  11.295  11.353 -0.1211 -0.6410  1.1203
  282MOL0     O37095   0.101  11.209  11.298  0.4837 -0.1259  0.4429
  282MOL0     C37096   0.133  11.146  11.177 -0.2847 -0.4996  0.2197
  282MOL0     C37097   0.198  11.209  11.065 -0.4999  1.1772 -0.3559
  282MOL0     C37098   0.218  11.133  10.948  0.6481  0.3558  0.4321
  282MOL0     C37099   0.173  11.001  10.931  0.1049 -0.8837 -0.6973
  282MOL0     O37100   0.209  10.933  10.813  0.3574 -0.2653 -0.0314
  282MOL0     C37101   0.101  10.859  10.750  1.0295  0.5462  0.1715
  282MOL0     C37102   0.129  10.704  10.771  0.2705  0.4628  0.0307
  282MOL0     C37103   0.266  10.676  10.729  0.4079  0.4344 -0.2597
  282MOL0     C37104   0.295  10.668  10.574  0.3425 -1.0852 -0.0783
  282MOL0     C37105   0.441  10.641  10.547 -0.7088 -0.0903  0.5357
  282MOL0     C37106   0.464  10.589  10.407 -0.6807 -0.4372  0.0936
  282MOL0     C37107   0.448  10.437  10.387  0.7150  0.0517 -0.1606
  282MOL0     C37108   0.498  10.387  10.247 -1.0236 -0.4065 -1.3750
  282MOL0     N37109   0.466  10.243  10.225  0.1070  0.1168  1.1556
  282MOL0     C37110   0.472  10.139  10.313  0.6891 -0.0139 -0.1120
  282MOL0     C37111   0.430  10.030  10.245 -0.1760 -0.0963 -0.7053
  282MOL0     C37112   0.425   9.885  10.294  0.2003  0.8920  0.1223
  282MOL0     C37113   0.569   9.847  10.288 -0.2513 -0.9054  0.3298
  282MOL0     C37114   0.579   9.693  10.304 -0.5715 -0.0736 -0.0279
  282MOL0     C37115   0.706   9.643  10.374  1.7791 -1.1042  0.1517
  282MOL0     O37116   0.826   9.693  10.304 -0.0486 -0.2833  0.3983
  282MOL0     C37117   0.936   9.607  10.296  0.1538 -0.4214 -0.7322
  282MOL0     C37118   1.018   9.625  10.189 -0.5503  0.4063  0.3636
  282MOL0     C37119   1.140   9.554  10.172  0.5178  0.1310 -0.1297
  282MOL0     C37120   1.168   9.447  10.260 -0.3898  1.0519 -0.0074
  282MOL0     C37121   1.285   9.361  10.218  0.5743 -0.2846  0.4658
  282MOL0     O37122   1.383   9.421  10.136 -0.4879  0.2662  0.0849
  282MOL0     C37123   1.491   9.362  10.086  0.6688 -0.2745  0.4853
  282MOL0     C37124   1.560   9.454  10.007  1.6805 -0.0191 -0.5126
  282MOL0     C37125   1.668   9.406   9.930  1.1248 -0.1443  0.1506
  282MOL0     C37126   1.710   9.271   9.939 -0.3806  0.2588  1.4033
  282MOL0     O37127   1.832   9.255   9.878  0.0193 -0.0880  0.2030
  282MOL0     C37128   1.932   9.159   9.937  0.4641 -0.2637  0.6173
  282MOL0     C37129   2.064   9.168   9.850  0.3927  1.0679  0.8356
  282MOL0     C37130   2.149   9.043   9.851  0.0959 -0.0727 -2.1289
  282MOL0     C37131   2.277   9.058   9.757 -0.2028 -0.5672 -0.4267
  282MOL0     C37132   2.401   9.118   9.838  0.6385 -1.0101 -0.4809
  282MOL0     C37133   2.531   9.045   9.790  0.2803  0.3157 -0.4487
  282MOL0     C37134   2.553   9.059   9.637 -0.6232 -0.7362  1.0238
  282MOL0     C37135   2.543   9.201   9.585  0.2577 -0.3655 -0.5429
  282MOL0    Cl37136   2.652   9.308   9.666 -0.1035  0.3137 -0.5746
  282MOL0     C37137   1.630   9.178  10.009 -0.0828 -0.7036  0.2920
  282MOL0     C37138   1.522   9.228  10.088  0.0531  1.2090  0.3910
  282MOL0     O37139   1.280   9.247  10.249  0.4484 -0.0670  0.2737
  282MOL0     C37140   1.072   9.422  10.359  0.4582  0.0119 -0.3824
  282MOL0     C37141   0.964   9.504  10.382  0.9251 -0.0387  0.0626
  282MOL0     N37142   0.390  10.072  10.115  0.4360 -0.0610  0.8071
  282MOL0     N37143   0.415  10.202  10.105 -0.7705 -0.0690  0.5673
  282MOL0     C37144   0.109  10.945  11.039 -0.7093  1.2820 -0.4353
  282MOL0     C37145   0.086  11.017  11.161 -0.8391 -0.6301  0.4594
  282MOL0     C37146   0.131  11.403  11.443  0.5921  0.8086 -0.6616
  282MOL0     C37147   0.210  11.511  11.476  0.2929 -0.3525 -0.2508
  282MOL0     C37148   0.169  11.603  11.571  0.9516  0.3733 -0.4056
  282MOL0     C37149   0.033  11.609  11.610 -0.0511 -0.1243  0.3369
  282MOL0     O37150  -0.014  11.713  11.681  0.3581 -0.4028  0.6793
  282MOL0     C37151  -0.016  11.846  11.626 -0.2160 -0.5493 -0.2240
  282MOL0     C37152   0.065  11.945  11.697 -1.3477 -1.0605 -0.5306
  282MOL0     C37153   0.116  12.079  11.624  0.2912  0.0417  0.1970
  282MOL0     C37154   0.162  12.177  11.734 -1.2820 -0.6918 -0.2556
  282MOL0     C37155   0.233  12.306  11.684 -0.1003  0.5060 -0.4604
  282MOL0     C37156   0.281  12.411  11.652 -1.3780 -0.1517  0.3190
  282MOL0     C37157  -0.054  11.508  11.566  0.4720  0.3147 -0.6965
  282MOL0     C37158  -0.002  11.406  11.495 -0.0733  0.2155  0.6699
  282MOL0     H37159   0.229  11.313  11.070  1.1846  1.0480 -4.2135
  282MOL0     H37160   0.276  11.160  10.860 -0.2484  0.5174 -0.1212
  282MOL0     H37161   0.106  10.887  10.644 -2.1023  0.7301 -0.0184
  282MOL0     H37162  -0.001  10.879  10.781  0.0966 -1.9682 -0.9539
  282MOL0     H37163   0.060  10.638  10.718 -1.3480  0.0723  2.4212
  282MOL0     H37164   0.128  10.683  10.879  4.0465 -0.0185  0.1037
  282MOL0     H37165   0.289  10.575  10.763  4.5135  1.4016  0.3552
  282MOL0     H37166   0.348  10.733  10.773  1.0512 -1.1095  0.6154
  282MOL0     H37167   0.231  10.600  10.517  0.1293 -0.0503 -1.1253
  282MOL0     H37168   0.273  10.767  10.532 -0.0884 -1.4908 -0.8547
  282MOL0     H37169   0.480  10.562  10.612 -3.7767 -3.1090 -0.9709
  282MOL0     H37170   0.497  10.734  10.555  0.3151  0.0570 -4.5012
  282MOL0     H37171   0.571  10.606  10.389 -1.0365 -0.0946 -2.0591
  282MOL0     H37172   0.396  10.637  10.336  0.5653 -3.3039 -3.3590
  282MOL0     H37173   0.501  10.390  10.471  1.3378 -1.3365 -1.2829
  282MOL0     H37174   0.342  10.412  10.399  1.0952 -1.6785 -0.1186
  282MOL0     H37175   0.606  10.405  10.238 -1.0355 -0.5078 -1.7619
  282MOL0     H37176   0.465  10.446  10.160  1.4204 -1.8183 -3.4116
  282MOL0     H37177   0.509  10.154  10.414  0.4131 -1.7405  0.2772
  282MOL0     H37178   0.369   9.825  10.222 -0.7541  1.0537  0.7083
  282MOL0     H37179   0.377   9.881  10.392 -0.4545 -0.5350 -0.2376
  282MOL0     H37180   0.621   9.900  10.369  0.5954  1.3253 -1.5341
  282MOL0     H37181   0.603   9.878  10.189  1.6472  0.0984  1.2366
  282MOL0     H37182   0.501   9.645  10.363 -2.4445 -0.1161 -2.3835
  282MOL0     H37183   0.573   9.647  10.205  0.5404 -0.8260  0.2322
  282MOL0     H37184   0.703   9.535  10.385  0.5961 -0.8286  3.9033
  282MOL0     H37185   0.700   9.680  10.477  1.4673  0.1903 -0.3056
  282MOL0     H37186   0.987   9.702  10.119 -2.1100 -1.8242 -1.5579
  282MOL0     H37187   1.212   9.567  10.092 -0.1189  0.7426 -0.6185
  282MOL0     H37188   1.539   9.561  10.005 -0.2876 -0.3727 -0.7300
  282MOL0     H37189   1.718   9.476   9.863  0.0835 -0.9616 -1.5286
  282MOL0     H37190   1.898   9.056   9.927  0.8541 -0.3714  0.4197
  282MOL0     H37191   1.965   9.188  10.037 -3.2112 -0.6909  2.1311
  282MOL0     H37192   2.120   9.260   9.866  4.1145 -0.8546  0.1278
  282MOL0     H37193   2.041   9.176   9.743  4.2693  0.6230 -0.2021
  282MOL0     H37194   2.082   8.965   9.812  0.6471 -2.3427  1.0552
  282MOL0     H37195   2.182   9.017   9.952 -1.8622  0.0544 -1.4138
  282MOL0     H37196   2.291   8.956   9.718  1.4502 -0.1990 -0.8589
  282MOL0     H37197   2.270   9.113   9.663 -0.5962 -1.7079 -1.0971
  282MOL0     H37198   2.386   9.098   9.945  1.5584 -2.2532 -0.5584
  282MOL0     H37199   2.398   9.227   9.827  1.6665 -0.8443  0.5905
  282MOL0     H37200   2.524   8.938   9.809  0.2466  0.3727 -0.1339
  282MOL0     H37201   2.625   9.070   9.839  2.2793 -2.8263 -2.3810
  282MOL0     H37202   2.652   9.029   9.600  0.0188  3.4566 -1.2864
  282MOL0     H37203   2.481   8.995   9.585 -0.6246  0.4654 -0.5294
  282MOL0     H37204   2.445   9.248   9.575  0.0453 -0.0871  1.9957
  282MOL0     H37205   2.580   9.195   9.483 -1.6265 -3.4619 -1.1667
  282MOL0     H37206   1.656   9.073  10.014  0.9927 -0.4129  1.2019
  282MOL0     H37207   1.450   9.165  10.139 -0.1902  1.2750  0.1324
  282MOL0     H37208   1.074   9.334  10.422 -0.0161  1.1872  1.3311
  282MOL0     H37209   0.890   9.479  10.458  0.4126  1.5335  0.1217
  282MOL0     H37210   0.091  10.838  11.036  1.1000  0.9459 -0.6390
  282MOL0     H37211   0.024  10.985  11.244 -1.4865  0.3445  0.3696
  282MOL0     H37212   0.308  11.538  11.437 -0.1898  1.9486 -0.0321
  282MOL0     H37213   0.240  11.680  11.600  0.8158  0.8991 -1.4227
  282MOL0     H37214  -0.120  11.881  11.624  0.4680  1.6538  0.2481
  282MOL0     H37215   0.018  11.845  11.523 -1.9264 -4.2385 -0.9236
  282MOL0     H37216   0.011  11.974  11.787  1.9232 -0.1206  1.3185
  282MOL0     H37217   0.149  11.891  11.741  0.7946  3.1453  1.0550
  282MOL0     H37218   0.043  12.116  11.552  0.2526 -0.3388  0.0362
  282MOL0     H37219   0.206  12.040  11.574  2.3403  2.0601  2.0695
  282MOL0     H37220   0.074  12.214  11.787  0.2147  1.7914  0.6334
  282MOL0     H37221   0.232  12.131  11.804  0.9696 -0.7717 -2.4302
  282MOL0     H37222   0.323  12.508  11.630  0.3022  0.1515  3.9327
  282MOL0     H37223  -0.150  11.505  11.617  0.7740  1.2920 -0.0625
  282MOL0     H37224  -0.067  11.321  11.481 -0.1116  0.2268  0.7809
  283MOL0     O37225   8.619   7.997   0.665 -1.0416 -0.3067  0.4408
  283MOL0     C37226   8.566   8.042   0.766 -0.2632  0.3008 -0.4730
  283MOL0     O37227   8.630   8.069   0.889 -0.1747  0.7071 -0.3326
  283MOL0     C37228   8.751   8.010   0.910 -0.2239  0.3504 -0.1357
  283MOL0     C37229   8.765   7.876   0.933 -0.7408 -0.4410 -0.7020
  283MOL0     C37230   8.883   7.811   0.972  0.0111  0.2711 -0.2192
  283MOL0     C37231   9.000   7.884   0.994  0.3865  0.3043  0.4338
  283MOL0     O37232   9.122   7.814   1.014 -0.0559 -1.0661  0.1889
  283MOL0     C37233   9.128   7.702   1.103  0.1810  0.4133 -0.4185
  283MOL0     C37234   9.083   7.738   1.250  0.0393 -0.6132 -0.4963
  283MOL0     C37235   9.170   7.857   1.309  0.2091 -0.7980 -0.8937
  283MOL0     C37236   9.149   7.864   1.469 -0.2375  0.2715  0.4285
  283MOL0     C37237   9.194   8.006   1.533  0.4850  0.7198  0.3105
  283MOL0     C37238   9.127   8.131   1.464 -0.0533 -0.0169 -0.5419
  283MOL0     C37239   9.122   8.249   1.559 -0.4648  0.4894 -0.4296
  283MOL0     C37240   9.209   8.367   1.506  0.2321 -1.0385  0.4882
  283MOL0     N37241   9.181   8.493   1.581 -0.6526 -0.2556 -0.3097
  283MOL0     C37242   9.181   8.504   1.721 -0.4323  0.2326 -0.3969
  283MOL0     C37243   9.116   8.618   1.750 -0.3439  0.1486  0.5474
  283MOL0     C37244   9.069   8.654   1.890  0.3213  0.6132  0.4126
  283MOL0     C37245   8.917   8.642   1.895  0.6994  0.2544  0.1148
  283MOL0     C37246   8.846   8.684   2.024  0.0764  0.1099  0.8286
  283MOL0     C37247   8.861   8.834   2.069  0.7411  1.3487  0.2226
  283MOL0     O37248   8.769   8.867   2.165  1.0414  0.2021 -0.3132
  283MOL0     C37249   8.791   8.806   2.283 -0.5433 -0.6468 -0.0946
  283MOL0     C37250   8.696   8.715   2.335  0.3046 -0.2362 -0.0026
  283MOL0     C37251   8.729   8.638   2.454 -1.5866  0.0379  0.0418
  283MOL0     C37252   8.852   8.663   2.515  0.1245 -0.6861 -1.0596
  283MOL0     C37253   8.889   8.586   2.637  0.8723 -0.6135  0.0011
  283MOL0     O37254   8.783   8.528   2.705  0.0152 -0.4863  0.4070
  283MOL0     C37255   8.787   8.493   2.829  0.4797 -0.1330 -0.4773
  283MOL0     C37256   8.742   8.364   2.861 -0.1724  0.1764 -0.5507
  283MOL0     C37257   8.767   8.311   2.993 -0.5756 -0.1269 -0.4992
  283MOL0     C37258   8.835   8.391   3.086  0.3701  0.6790  0.7492
  283MOL0     O37259   8.855   8.362   3.221  0.0099 -0.7047  0.9527
  283MOL0     C37260   8.745   8.338   3.298 -0.8387  1.1734 -0.1255
  283MOL0     C37261   8.672   8.468   3.335 -0.6300 -0.9556  0.8051
  283MOL0     C37262   8.755   8.560   3.419  0.1262 -0.8510 -0.1598
  283MOL0     C37263   8.680   8.698   3.434  0.8900  0.5919 -0.3233
  283MOL0     C37264   8.775   8.793   3.516  0.1281 -0.1816  0.0349
  283MOL0     C37265   8.712   8.907   3.587 -0.8446 -0.5554  0.5826
  283MOL0     C37266   8.636   8.864   3.709  0.7497  0.5398 -0.9268
  283MOL0     C37267   8.583   8.982   3.791 -0.0375 -0.6924 -0.6112
  283MOL0    Cl37268   8.726   9.038   3.905 -0.2347  0.4657  0.4725
  283MOL0     C37269   8.880   8.512   3.052 -0.2803 -0.6081  0.1154
  283MOL0     C37270   8.862   8.564   2.921  0.3495  0.0380 -0.8207
  283MOL0     O37271   9.002   8.591   2.689 -0.1485 -0.0372  1.3537
  283MOL0     C37272   8.944   8.750   2.462  0.5088  0.4372 -0.1388
  283MOL0     C37273   8.916   8.821   2.349  0.2724  0.1598 -0.0163
  283MOL0     N37274   9.099   8.688   1.628 -0.4224 -0.3268 -0.3592
  283MOL0     N37275   9.136   8.612   1.531 -0.2498 -0.2574  1.8688
  283MOL0     C37276   8.991   8.024   0.992  0.6399 -0.6105  0.7633
  283MOL0     C37277   8.867   8.082   0.948  1.0952  0.4385  0.3869
  283MOL0     C37278   8.426   8.053   0.770 -0.0268 -0.6471  0.0134
  283MOL0     C37279   8.367   8.147   0.861  0.1821 -0.1515  0.6251
  283MOL0     C37280   8.236   8.187   0.848 -0.4146  0.4047 -0.1172
  283MOL0     C37281   8.156   8.137   0.750 -0.4343 -0.0118 -0.1987
  283MOL0     O37282   8.030   8.179   0.726 -0.0489 -0.1934 -0.3125
  283MOL0     C37283   7.941   8.186   0.840  0.1750  0.5264  0.0835
  283MOL0     C37284   7.927   8.050   0.905  0.1538 -0.8574  0.1588
  283MOL0     C37285   7.868   7.960   0.812 -0.3227 -0.3028 -0.5530
  283MOL0     C37286   7.790   7.855   0.882  1.0240 -0.2278 -0.0831
  283MOL0     C37287   7.721   7.768   0.785 -0.8092  0.2595 -0.6798
  283MOL0     C37288   7.678   7.695   0.704  0.1530 -0.1856 -0.2134
  283MOL0     C37289   8.210   8.049   0.659  0.4206  1.1240 -0.6136
  283MOL0     C37290   8.345   8.008   0.675  0.5370  0.8953 -0.1988
  283MOL0     H37291   8.680   7.809   0.927 -1.1501  0.0530 -0.4644
  283MOL0     H37292   8.889   7.703   0.967 -0.2821  0.2256  0.3532
  283MOL0     H37293   9.226   7.657   1.118 -0.3078 -0.4779  0.2065
  283MOL0     H37294   9.077   7.621   1.051 -0.0171  1.0624 -1.2603
  283MOL0     H37295   9.091   7.648   1.311  0.4648 -0.3860 -0.2081
  283MOL0     H37296   8.978   7.766   1.240 -0.8779 -2.6662  2.1613
  283MOL0     H37297   9.119   7.945   1.269 -2.3913 -0.5124  2.5592
  283MOL0     H37298   9.274   7.853   1.275 -0.6601 -0.3993 -3.9137
  283MOL0     H37299   9.042   7.851   1.483 -0.6326  3.6809  1.4587
  283MOL0     H37300   9.195   7.777   1.516  0.3090 -0.5642 -1.5270
  283MOL0     H37301   9.301   8.025   1.528  1.0831 -1.1939  3.3741
  283MOL0     H37302   9.173   7.999   1.640  4.2567 -1.7516  1.1101
  283MOL0     H37303   9.021   8.114   1.445 -0.1485 -1.2824  0.8917
  283MOL0     H37304   9.176   8.158   1.370 -0.4478 -1.1565 -1.0928
  283MOL0     H37305   9.017   8.275   1.573 -0.6477 -0.0354 -0.8069
  283MOL0     H37306   9.153   8.225   1.661 -3.8906 -0.4869  0.5290
  283MOL0     H37307   9.179   8.388   1.403  1.3838  0.5458  0.4355
  283MOL0     H37308   9.316   8.344   1.509  0.2834 -2.5338 -4.4795
  283MOL0     H37309   9.203   8.419   1.786 -0.1045 -2.5040 -3.7938
  283MOL0     H37310   9.084   8.758   1.918 -0.6012  1.3428 -1.5996
  283MOL0     H37311   9.121   8.585   1.957 -2.5364 -2.0982  0.0775
  283MOL0     H37312   8.882   8.538   1.885 -3.0079  1.2731  0.9037
  283MOL0     H37313   8.875   8.692   1.808 -0.4895 -0.9648 -0.0515
  283MOL0     H37314   8.739   8.684   2.001  0.0417 -1.1138  0.9200
  283MOL0     H37315   8.863   8.609   2.102  1.5273 -1.6170 -1.0192
  283MOL0     H37316   8.865   8.903   1.984  1.0152  1.9073  0.6775
  283MOL0     H37317   8.961   8.826   2.113  1.0801  3.5088 -0.0450
  283MOL0     H37318   8.609   8.701   2.272  1.1667  0.2979 -1.3686
  283MOL0     H37319   8.654   8.568   2.489  0.7861 -2.9674 -0.4595
  283MOL0     H37320   8.701   8.296   2.787 -2.0049  2.1263 -1.4414
  283MOL0     H37321   8.724   8.215   3.016 -0.1304  0.0752  1.2835
  283MOL0     H37322   8.751   8.290   3.396  0.4993 -0.7198 -1.0704
  283MOL0     H37323   8.673   8.276   3.243 -0.7965 -0.7229  1.8452
  283MOL0     H37324   8.575   8.447   3.381  0.1110 -4.8763  0.9193
  283MOL0     H37325   8.650   8.529   3.247  4.4208  1.9125  1.1123
  283MOL0     H37326   8.857   8.573   3.379  0.1417  0.2787  0.2059
  283MOL0     H37327   8.749   8.511   3.516 -2.8998 -4.8263 -2.1023
  283MOL0     H37328   8.656   8.742   3.336  0.1899  1.1489  0.0850
  283MOL0     H37329   8.585   8.687   3.488 -0.6237  0.6289 -2.8079
  283MOL0     H37330   8.861   8.821   3.454 -1.4166  1.6474 -1.4306
  283MOL0     H37331   8.834   8.739   3.591  0.9074 -5.2101 -3.6932
  283MOL0     H37332   8.639   8.952   3.519  1.3003  0.7191 -1.0374
  283MOL0     H37333   8.776   8.989   3.622 -1.1299 -1.6690  4.0509
  283MOL0     H37334   8.551   8.799   3.688 -1.3764  2.9146 -0.2404
  283MOL0     H37335   8.705   8.808   3.772  0.3677  1.5799  0.4695
  283MOL0     H37336   8.499   8.943   3.848 -2.4734  2.7750 -1.5202
  283MOL0     H37337   8.550   9.061   3.722  2.9606  2.0005  0.7943
  283MOL0     H37338   8.926   8.567   3.133 -1.1006  0.0198  0.1600
  283MOL0     H37339   8.898   8.664   2.899 -3.3013  1.6322 -0.2829
  283MOL0     H37340   9.043   8.772   2.502  0.9055  0.2674 -0.9983
  283MOL0     H37341   8.999   8.880   2.313 -1.3638  0.9274 -2.8053
  283MOL0     H37342   9.061   8.079   1.053  1.1833 -0.8209  0.3382
  283MOL0     H37343   8.850   8.189   0.938  0.2207  0.3395  0.7320
  283MOL0     H37344   8.430   8.203   0.929  0.8813 -1.3492  1.0014
  283MOL0     H37345   8.206   8.271   0.911  1.3120 -0.3585  1.8378
  283MOL0     H37346   7.843   8.225   0.811  0.1332 -0.2792 -0.8970
  283MOL0     H37347   7.995   8.259   0.902  0.0000  0.1346  0.7052
  283MOL0     H37348   8.028   8.013   0.927 -0.4321 -2.1217  0.7627
  283MOL0     H37349   7.872   8.061   0.999 -0.5412 -0.4077 -0.2958
  283MOL0     H37350   7.952   7.905   0.767 -0.3749  1.0130 -2.3317
  283MOL0     H37351   7.797   8.009   0.746 -0.8812 -2.4267 -1.6371
  283MOL0     H37352   7.844   7.784   0.946 -0.1047  0.0143  1.1907
  283MOL0     H37353   7.722   7.912   0.946  0.9530  2.9465 -2.7264
  283MOL0     H37354   7.650   7.616   0.637 -0.6043 -2.1098  2.2039
  283MOL0     H37355   8.151   8.005   0.579  1.5825  1.0913 -1.4698
  283MOL0     H37356   8.370   7.943   0.592 -0.1142  0.6064 -0.1795
  284MOL0     O37357   7.328   2.200   0.569  0.8715 -0.1905  0.1354
  284MOL0     C37358   7.297   2.312   0.530 -0.2767 -0.3941  0.3325
  284MOL0     O37359   7.306   2.366   0.404 -0.0061 -0.1449  0.7880
  284MOL0     C37360   7.309   2.265   0.309 -1.5135 -0.4319  0.4898
  284MOL0     C37361   7.441   2.237   0.252  0.0211 -0.0084 -0.4123
  284MOL0     C37362   7.463   2.121   0.183 -0.1147 -0.1438 -0.4004
  284MOL0     C37363   7.360   2.028   0.155  0.2120 -1.3717 -0.1404
  284MOL0     O37364   7.369   1.916   0.079 -0.4886 -0.4341  0.5184
  284MOL0     C37365   7.498   1.890   0.031 -0.2206  0.0250 -0.2114
  284MOL0     C37366   7.530   1.965  -0.101  0.9418  0.1056  0.3373
  284MOL0     C37367   7.415   1.963  -0.203 -0.6340 -0.6786  0.2169
  284MOL0     C37368   7.460   2.056  -0.321  0.4981 -0.6233 -0.1508
  284MOL0     C37369   7.352   2.045  -0.434  0.1971  0.6805 -1.3488
  284MOL0     C37370   7.351   2.167  -0.526  0.3726  0.8468  1.3523
  284MOL0     C37371   7.299   2.300  -0.466  0.7632  0.4074  0.3612
  284MOL0     C37372   7.166   2.292  -0.389 -1.1666 -0.4646 -0.0842
  284MOL0     N37373   7.071   2.219  -0.473 -0.8146 -0.6993  1.2975
  284MOL0     C37374   7.012   2.101  -0.445  0.4200 -1.0241  0.4644
  284MOL0     C37375   6.913   2.094  -0.540 -0.1119  0.4257  0.7907
  284MOL0     C37376   6.805   1.990  -0.558  1.1780  0.3605  0.2840
  284MOL0     C37377   6.732   1.954  -0.428  0.6208  0.1086  0.7949
  284MOL0     C37378   6.605   2.026  -0.407 -0.3209  0.1976  0.3064
  284MOL0     C37379   6.620   2.179  -0.384  0.0951  0.5779 -0.3641
  284MOL0     O37380   6.511   2.217  -0.303 -0.0758  0.6270 -0.4908
  284MOL0     C37381   6.502   2.350  -0.265 -0.1121  0.7233 -0.4797
  284MOL0     C37382   6.429   2.367  -0.142  0.0900  0.2285 -0.4954
  284MOL0     C37383   6.408   2.502  -0.093 -0.1866  0.5924 -0.5149
  284MOL0     C37384   6.465   2.610  -0.157  0.4583  0.1300  0.8128
  284MOL0     C37385   6.446   2.750  -0.113  0.2664  0.3917  0.0433
  284MOL0     O37386   6.529   2.830  -0.166 -0.6675 -0.2533 -0.5711
  284MOL0     C37387   6.520   2.964  -0.148 -1.1287  0.2375  0.5711
  284MOL0     C37388   6.529   3.050  -0.257  0.3857 -0.6785  0.2360
  284MOL0     C37389   6.509   3.188  -0.239 -0.2018 -0.9336  0.2458
  284MOL0     C37390   6.483   3.246  -0.113 -0.3934  0.1819 -0.5183
  284MOL0     O37391   6.483   3.382  -0.098  0.6796  0.2260  0.7990
  284MOL0     C37392   6.377   3.431  -0.010 -1.1457  0.5822  0.4382
  284MOL0     C37393   6.355   3.575  -0.036  0.2258 -0.3909 -0.1761
  284MOL0     C37394   6.482   3.661  -0.015  0.5392  0.3345  0.7352
  284MOL0     C37395   6.469   3.815  -0.034  0.5033 -0.6546  0.6577
  284MOL0     C37396   6.437   3.862  -0.180  0.0612 -0.6079 -0.2318
  284MOL0     C37397   6.453   4.016  -0.192  0.2609  0.0474  0.4789
  284MOL0     C37398   6.598   4.047  -0.215 -0.0655 -0.7373 -0.1552
  284MOL0     C37399   6.627   4.181  -0.284  1.5441  0.2060  0.0693
  284MOL0    Cl37400   6.531   4.321  -0.249  0.2900  0.1991  0.2506
  284MOL0     C37401   6.485   3.158  -0.007 -0.5990  0.1213  0.5105
  284MOL0     C37402   6.498   3.018  -0.017 -0.3593 -0.7825  0.5868
  284MOL0     O37403   6.361   2.774  -0.037 -0.1254  0.3823 -0.4548
  284MOL0     C37404   6.555   2.586  -0.267 -0.4651 -0.3734  0.6492
  284MOL0     C37405   6.588   2.456  -0.315  0.4302  0.9178 -0.3054
  284MOL0     N37406   6.923   2.200  -0.626 -0.2981  0.7021 -0.2448
  284MOL0     N37407   7.005   2.279  -0.583  0.5220  0.0040 -0.5980
  284MOL0     C37408   7.238   2.057   0.210  0.2096  0.3036 -0.5072
  284MOL0     C37409   7.209   2.182   0.276 -0.2647  0.0619 -0.1965
  284MOL0     C37410   7.270   2.417   0.630 -0.1405 -0.6376 -0.5577
  284MOL0     C37411   7.320   2.546   0.609  1.0638 -0.5990  0.2647
  284MOL0     C37412   7.295   2.649   0.702  0.5118 -0.7285 -0.6133
  284MOL0     C37413   7.221   2.626   0.818  0.2074 -0.0024 -0.3581
  284MOL0     O37414   7.203   2.718   0.925 -0.1694  0.6117  0.2629
  284MOL0     C37415   7.193   2.858   0.893  0.8665 -0.2804 -0.1937
  284MOL0     C37416   7.121   2.957   0.999  0.8346  0.2149  0.2663
  284MOL0     C37417   7.175   2.982   1.137 -0.3123 -0.3783  0.5353
  284MOL0     C37418   7.176   2.858   1.231 -0.3087  0.0452 -0.3486
  284MOL0     C37419   7.234   2.871   1.366 -0.0720 -1.1424  0.6624
  284MOL0     C37420   7.310   2.892   1.457  0.0110  1.0374  0.0860
  284MOL0     C37421   7.169   2.497   0.838 -1.0204 -0.6882 -0.2440
  284MOL0     C37422   7.195   2.395   0.747  1.0557  0.8192  0.4013
  284MOL0     H37423   7.520   2.311   0.256 -0.1251  0.1351 -0.1382
  284MOL0     H37424   7.563   2.106   0.142 -0.7398  0.1725 -2.1303
  284MOL0     H37425   7.492   1.781   0.021 -1.6120  0.1374 -0.8681
  284MOL0     H37426   7.573   1.911   0.107 -1.7159  2.0479  0.7908
  284MOL0     H37427   7.616   1.914  -0.145  3.1036  2.0936  2.0137
  284MOL0     H37428   7.555   2.070  -0.087  1.1676  0.5395 -2.7005
  284MOL0     H37429   7.323   2.001  -0.156  1.3538 -0.2319  4.1870
  284MOL0     H37430   7.406   1.860  -0.239  2.4430 -1.0078  0.1774
  284MOL0     H37431   7.458   2.159  -0.282 -1.7478 -0.9574  0.7873
  284MOL0     H37432   7.555   2.046  -0.373  0.6234  0.2271 -0.0968
  284MOL0     H37433   7.254   2.024  -0.388  0.5266  1.0982 -0.4364
  284MOL0     H37434   7.376   1.951  -0.484  2.8045 -0.5991  1.8814
  284MOL0     H37435   7.301   2.137  -0.619 -0.5380  2.4091  1.2950
  284MOL0     H37436   7.449   2.192  -0.566  0.3961 -0.9161  0.1999
  284MOL0     H37437   7.376   2.325  -0.392 -1.0370  2.2976  1.7451
  284MOL0     H37438   7.286   2.380  -0.539 -0.9145 -1.3355 -1.3703
  284MOL0     H37439   7.126   2.388  -0.355 -0.9076  0.0158 -1.0919
  284MOL0     H37440   7.193   2.249  -0.293 -3.4863 -0.5524  0.5944
  284MOL0     H37441   7.015   2.039  -0.356  0.6546  1.5670  2.3631
  284MOL0     H37442   6.852   1.900  -0.600 -2.0117 -1.9785  1.3083
  284MOL0     H37443   6.727   2.025  -0.625  1.9250 -0.2224 -0.9205
  284MOL0     H37444   6.802   1.959  -0.344 -2.2960 -0.2376  3.4447
  284MOL0     H37445   6.703   1.848  -0.431  1.5072 -0.1191 -0.4096
  284MOL0     H37446   6.538   2.000  -0.489  1.3101 -0.9939 -0.7150
  284MOL0     H37447   6.551   1.984  -0.321  2.2374 -0.3580  1.7563
  284MOL0     H37448   6.615   2.230  -0.481 -1.2378  0.1786 -0.5328
  284MOL0     H37449   6.717   2.195  -0.338 -0.3402 -3.2268  2.3144
  284MOL0     H37450   6.379   2.283  -0.095  0.5600  0.9871  1.4646
  284MOL0     H37451   6.347   2.526  -0.006 -1.5785 -0.4851 -1.1619
  284MOL0     H37452   6.535   3.001  -0.353  0.1609 -1.2024  0.4839
  284MOL0     H37453   6.514   3.263  -0.317  2.8943 -1.1134  0.1508
  284MOL0     H37454   6.410   3.413   0.092 -1.0297  0.7196  0.4273
  284MOL0     H37455   6.301   3.354  -0.025  2.3890 -3.2405  0.3456
  284MOL0     H37456   6.267   3.610   0.018 -1.0637 -0.1508 -2.3103
  284MOL0     H37457   6.322   3.579  -0.140  0.2794 -0.1431 -0.1844
  284MOL0     H37458   6.561   3.630  -0.084  1.2632  2.5748  0.4768
  284MOL0     H37459   6.525   3.654   0.086  2.6826  1.7157 -0.0095
  284MOL0     H37460   6.395   3.859   0.034  0.8357  1.0409 -0.0229
  284MOL0     H37461   6.562   3.859   0.004  1.2360  0.5443 -2.2186
  284MOL0     H37462   6.330   3.842  -0.176 -0.6588  2.6401 -0.8577
  284MOL0     H37463   6.484   3.799  -0.256 -2.3699 -1.6332 -0.9825
  284MOL0     H37464   6.425   4.071  -0.102 -2.0695  0.1543 -0.2676
  284MOL0     H37465   6.388   4.051  -0.272  1.1528  1.0499  0.1749
  284MOL0     H37466   6.652   4.044  -0.120  1.6366  0.0316 -1.0638
  284MOL0     H37467   6.643   3.977  -0.287 -2.2538 -1.5362 -0.8407
  284MOL0     H37468   6.594   4.171  -0.388  0.1975 -1.9856  0.6433
  284MOL0     H37469   6.734   4.200  -0.300  1.7989 -2.2778 -1.9098
  284MOL0     H37470   6.476   3.198   0.094  3.4854  0.6932  0.8170
  284MOL0     H37471   6.486   2.962   0.075 -2.6035  0.2010  0.9853
  284MOL0     H37472   6.605   2.672  -0.310  1.9170 -0.5017  2.8945
  284MOL0     H37473   6.675   2.428  -0.374  1.2440 -3.7459  2.6297
  284MOL0     H37474   7.169   1.976   0.189  1.6152 -0.6378 -1.7126
  284MOL0     H37475   7.115   2.189   0.330  0.6909 -0.2438  1.5580
  284MOL0     H37476   7.377   2.571   0.520 -1.1701 -5.1782 -2.8512
  284MOL0     H37477   7.336   2.747   0.680 -1.0436  0.3770  1.1192
  284MOL0     H37478   7.133   2.863   0.802  1.3757 -3.0474 -0.7497
  284MOL0     H37479   7.289   2.907   0.875  0.3418  0.8778  0.0005
  284MOL0     H37480   7.112   3.054   0.951 -2.9934 -1.2411 -2.4164
  284MOL0     H37481   7.020   2.920   1.016  0.4333  1.9730  2.0665
  284MOL0     H37482   7.126   3.067   1.184 -0.1293  0.5165 -0.8525
  284MOL0     H37483   7.279   3.015   1.125 -1.1851  2.3242 -0.3436
  284MOL0     H37484   7.072   2.831   1.252  0.5593 -2.4598  1.1611
  284MOL0     H37485   7.228   2.776   1.180  0.0173  0.8882 -1.4263
  284MOL0     H37486   7.383   2.911   1.533  1.6107  1.2589 -1.4633
  284MOL0     H37487   7.109   2.472   0.925  1.4183  0.0759  1.7776
  284MOL0     H37488   7.151   2.297   0.764 -1.6652  1.7702 -0.6864
  285MOL0     O37489   2.626   8.030   1.533  0.5390 -0.2979  0.8387
  285MOL0     C37490   2.684   7.951   1.455 -0.1104  0.3128 -0.7112
  285MOL0     O37491   2.814   7.971   1.411  0.6975 -0.1246  0.1943
  285MOL0     C37492   2.898   8.073   1.450 -0.0347  0.4116  1.0743
  285MOL0     C37493   3.022   8.097   1.383  0.7374  0.1375  0.3269
  285MOL0     C37494   3.117   8.194   1.412 -0.2709 -0.2993 -0.1879
  285MOL0     C37495   3.072   8.294   1.509 -0.5683 -0.8866 -0.3978
  285MOL0     O37496   3.161   8.394   1.539 -0.1997 -0.3288 -0.0100
  285MOL0     C37497   3.121   8.518   1.585 -0.7652  1.0458 -0.0797
  285MOL0     C37498   3.244   8.613   1.578  0.6539  0.2729  0.5740
  285MOL0     C37499   3.299   8.621   1.426  0.2767 -1.0563  0.3127
  285MOL0     C37500   3.417   8.725   1.429  0.2724  0.4189  1.0505
  285MOL0     C37501   3.475   8.741   1.290  0.4293 -0.2272  0.8674
  285MOL0     C37502   3.545   8.610   1.254 -0.2209 -0.8135 -1.1863
  285MOL0     C37503   3.626   8.611   1.123  0.0238 -0.4730  0.8779
  285MOL0     C37504   3.698   8.744   1.097  0.5466  1.0318  0.5071
  285MOL0     N37505   3.816   8.740   1.184  0.1816 -0.0228 -0.0457
  285MOL0     C37506   3.923   8.655   1.181 -0.2279 -0.5695  0.0403
  285MOL0     C37507   3.990   8.679   1.302  0.5011 -0.3579 -1.0954
  285MOL0     C37508   4.116   8.610   1.342  0.9372  0.3793 -0.0664
  285MOL0     C37509   4.106   8.513   1.451  0.0771 -1.7557  0.7251
  285MOL0     C37510   4.248   8.460   1.491 -0.0039  0.1701 -0.1421
  285MOL0     C37511   4.232   8.368   1.610 -0.1266  0.0927 -0.4883
  285MOL0     O37512   4.152   8.255   1.581  0.3419  0.1479 -0.4694
  285MOL0     C37513   4.052   8.217   1.661  0.0491  0.3152 -1.4591
  285MOL0     C37514   3.949   8.147   1.594  0.0331 -0.4583 -0.3034
  285MOL0     C37515   3.853   8.071   1.677 -0.2225 -0.0643  0.5934
  285MOL0     C37516   3.840   8.086   1.814  0.1978  0.7489  0.3062
  285MOL0     C37517   3.733   8.015   1.903 -0.9470 -0.9767  0.2376
  285MOL0     O37518   3.762   8.010   2.040 -0.9485 -0.1160  0.9206
  285MOL0     C37519   3.656   7.958   2.111  0.7339  0.4573 -0.2357
  285MOL0     C37520   3.672   7.821   2.164 -0.3324 -0.5399 -0.8253
  285MOL0     C37521   3.561   7.768   2.228 -0.3456  1.0694 -0.6540
  285MOL0     C37522   3.440   7.833   2.244  0.1890 -0.0154 -0.8412
  285MOL0     O37523   3.334   7.794   2.326 -0.3340  0.5215  0.6316
  285MOL0     C37524   3.311   7.658   2.352 -0.2061  0.4061  1.0085
  285MOL0     C37525   3.364   7.623   2.483  0.0871 -0.0865  0.3942
  285MOL0     C37526   3.389   7.466   2.483 -0.6696  0.6275  1.2722
  285MOL0     C37527   3.454   7.403   2.609  0.0774 -0.9186  0.1266
  285MOL0     C37528   3.604   7.423   2.622  0.8157 -0.0551  0.6403
  285MOL0     C37529   3.653   7.357   2.759  0.9996 -0.1756 -0.2251
  285MOL0     C37530   3.805   7.350   2.788  0.7997  0.6349 -0.1415
  285MOL0     C37531   3.825   7.245   2.895 -0.3174 -0.6916  0.5125
  285MOL0    Cl37532   3.774   7.292   3.059  0.4811 -0.1802 -0.1512
  285MOL0     C37533   3.418   7.956   2.180  0.1725 -0.0528  0.3768
  285MOL0     C37534   3.525   8.020   2.114 -0.5809 -0.8541 -0.2909
  285MOL0     O37535   3.654   7.938   1.850  0.1576 -0.5532  0.9410
  285MOL0     C37536   3.945   8.163   1.878 -0.3640 -0.7332  0.0010
  285MOL0     C37537   4.044   8.224   1.803 -0.0785 -0.2623  0.9364
  285MOL0     N37538   3.917   8.775   1.373 -0.3351  0.3798  0.4571
  285MOL0     N37539   3.826   8.827   1.294 -0.3705  0.5358 -0.3798
  285MOL0     C37540   2.961   8.270   1.587 -0.3460 -0.6009  0.6772
  285MOL0     C37541   2.872   8.165   1.555  0.6710  0.0357 -0.5541
  285MOL0     C37542   2.610   7.824   1.427  0.6031  0.1677 -0.3312
  285MOL0     C37543   2.472   7.813   1.450  0.2195 -0.5232 -0.0726
  285MOL0     C37544   2.408   7.700   1.405  0.6750  0.2963  0.2978
  285MOL0     C37545   2.469   7.589   1.359  0.6516  0.2523 -0.2331
  285MOL0     O37546   2.409   7.466   1.337 -0.1732  0.9082  0.5695
  285MOL0     C37547   2.268   7.474   1.316  0.0971 -1.2184 -0.8803
  285MOL0     C37548   2.208   7.325   1.291  0.1864 -0.0234 -1.3867
  285MOL0     C37549   2.217   7.239   1.413 -0.8152  0.2902 -0.3836
  285MOL0     C37550   2.164   7.096   1.387  0.2014 -0.1417 -0.0853
  285MOL0     C37551   2.221   7.000   1.484  0.9490 -0.9848  0.9571
  285MOL0     C37552   2.279   6.921   1.560 -0.2621 -0.4522 -0.4411
  285MOL0     C37553   2.607   7.596   1.344 -0.1727  0.3262 -0.9553
  285MOL0     C37554   2.679   7.710   1.373 -0.4029  0.0173 -0.7427
  285MOL0     H37555   3.036   8.021   1.306 -0.6779 -0.9571  1.1051
  285MOL0     H37556   3.208   8.206   1.354 -1.1457  0.3810 -1.4781
  285MOL0     H37557   3.087   8.505   1.689  0.3264  1.8599  0.3922
  285MOL0     H37558   3.034   8.551   1.528 -1.7835 -2.9515 -1.1605
  285MOL0     H37559   3.328   8.589   1.644  1.1407 -0.5440 -0.3216
  285MOL0     H37560   3.210   8.711   1.614 -1.8105 -1.0222  2.0490
  285MOL0     H37561   3.218   8.643   1.356  1.7289  0.5698 -0.9457
  285MOL0     H37562   3.329   8.520   1.398 -0.4371 -0.7276 -1.7895
  285MOL0     H37563   3.384   8.824   1.461  2.7907  1.4927  0.5954
  285MOL0     H37564   3.500   8.695   1.495 -0.6081 -2.8590  0.8527
  285MOL0     H37565   3.546   8.822   1.307 -0.8197  0.6281  2.1808
  285MOL0     H37566   3.407   8.775   1.211  1.1565 -0.3695  0.1664
  285MOL0     H37567   3.472   8.529   1.238  1.3513 -1.8952 -3.2995
  285MOL0     H37568   3.603   8.576   1.341 -0.9529  0.2016 -0.2772
  285MOL0     H37569   3.692   8.524   1.123  1.6839  0.6898  3.1020
  285MOL0     H37570   3.551   8.620   1.044 -2.4281  0.5190  3.1630
  285MOL0     H37571   3.640   8.836   1.100  0.3012  0.9342 -0.8179
  285MOL0     H37572   3.746   8.735   0.999 -0.6731 -1.2561  0.0330
  285MOL0     H37573   3.955   8.581   1.109 -1.0829 -0.9240  0.0220
  285MOL0     H37574   4.190   8.684   1.375  0.3033 -0.3899  3.4526
  285MOL0     H37575   4.148   8.546   1.259 -0.6919 -1.0863  0.3754
  285MOL0     H37576   4.043   8.429   1.419  2.3982 -2.1322 -3.5508
  285MOL0     H37577   4.059   8.560   1.538 -5.1204  0.6216 -2.8157
  285MOL0     H37578   4.286   8.402   1.406  1.9035  0.6695  0.3279
  285MOL0     H37579   4.318   8.541   1.513 -2.4148  1.8102  2.2796
  285MOL0     H37580   4.184   8.428   1.688  0.3529 -0.9664  0.6585
  285MOL0     H37581   4.330   8.346   1.653 -1.7545 -0.4546  3.3968
  285MOL0     H37582   3.934   8.141   1.487 -2.7108 -0.8009  0.0275
  285MOL0     H37583   3.774   8.015   1.628  0.1323  0.2854 -0.4130
  285MOL0     H37584   3.771   7.780   2.183 -0.2775 -0.3152 -0.6272
  285MOL0     H37585   3.575   7.679   2.290 -2.6777  0.5941 -0.7055
  285MOL0     H37586   3.361   7.603   2.271 -0.4254  0.4767  0.8252
  285MOL0     H37587   3.204   7.641   2.339 -0.6792  2.3101  2.0949
  285MOL0     H37588   3.294   7.653   2.561 -1.3054 -1.3824 -0.2997
  285MOL0     H37589   3.457   7.679   2.489 -1.4472  2.4608  2.8030
  285MOL0     H37590   3.435   7.429   2.391 -0.5279  0.3558  1.4492
  285MOL0     H37591   3.288   7.423   2.485  0.1210 -1.6495 -1.7261
  285MOL0     H37592   3.401   7.444   2.696  2.1674 -1.4347  1.7204
  285MOL0     H37593   3.437   7.295   2.602  4.3310 -1.6948 -0.6131
  285MOL0     H37594   3.633   7.527   2.610 -0.1571  0.0738 -0.8570
  285MOL0     H37595   3.649   7.367   2.540  1.0354 -0.8802  1.3109
  285MOL0     H37596   3.599   7.263   2.773 -1.1915  0.4382 -3.3976
  285MOL0     H37597   3.615   7.421   2.839  3.5851  0.9858  0.1790
  285MOL0     H37598   3.863   7.314   2.702  1.0815 -0.0447  0.3304
  285MOL0     H37599   3.838   7.453   2.804  1.5366  0.6547 -1.5685
  285MOL0     H37600   3.929   7.211   2.894 -0.3385 -0.7524 -0.0139
  285MOL0     H37601   3.765   7.157   2.869 -0.4413 -0.3623 -0.3775
  285MOL0     H37602   3.322   8.007   2.182 -0.2526 -0.8568  1.2027
  285MOL0     H37603   3.513   8.112   2.060  1.8511 -1.1565 -1.4795
  285MOL0     H37604   3.935   8.184   1.984 -1.8622  0.3451 -0.3329
  285MOL0     H37605   4.132   8.266   1.852 -0.0236 -1.2669  1.7164
  285MOL0     H37606   2.937   8.343   1.664 -3.7890  0.5085 -1.2165
  285MOL0     H37607   2.788   8.153   1.622  2.3120  1.2357  1.8778
  285MOL0     H37608   2.420   7.890   1.505  0.4923 -0.2682 -0.1690
  285MOL0     H37609   2.302   7.698   1.427  0.4640 -4.3780 -0.1388
  285MOL0     H37610   2.253   7.530   1.224  2.1311  0.0024 -0.5385
  285MOL0     H37611   2.205   7.524   1.391  1.9069  3.1370 -1.9795
  285MOL0     H37612   2.103   7.335   1.262 -0.3142 -2.0397 -0.4767
  285MOL0     H37613   2.258   7.275   1.207  0.5912 -0.0553 -1.1288
  285MOL0     H37614   2.168   7.278   1.502  0.6403 -3.2955  2.2444
  285MOL0     H37615   2.321   7.237   1.445 -0.8217  1.7873 -0.1935
  285MOL0     H37616   2.055   7.097   1.399  0.0547  1.1923 -1.3575
  285MOL0     H37617   2.186   7.070   1.283  1.1152 -0.4071  0.1687
  285MOL0     H37618   2.336   6.865   1.631 -4.3274  0.3293  3.9109
  285MOL0     H37619   2.660   7.507   1.311  0.6212  0.7982 -0.9897
  285MOL0     H37620   2.786   7.721   1.361 -0.2580 -1.0510 -0.5041
  286MOL0     O37621   9.007  11.208   0.303 -0.4263 -0.6898  0.0105
  286MOL0     C37622   8.958  11.125   0.375  0.9425  0.5770  0.4025
  286MOL0     O37623   9.029  11.047   0.453 -0.4130  0.5730  0.8861
  286MOL0     C37624   9.160  11.071   0.484 -0.4780 -0.4153  0.3411
  286MOL0     C37625   9.198  11.080   0.617  0.4143 -0.5745  0.0323
  286MOL0     C37626   9.328  11.110   0.655 -0.2045 -0.2142  0.1991
  286MOL0     C37627   9.422  11.140   0.556 -0.9380 -0.3849  0.3773
  286MOL0     O37628   9.533  11.210   0.600 -0.1532  0.0461 -0.2984
  286MOL0     C37629   9.618  11.255   0.500  0.4462  0.8528 -0.2888
  286MOL0     C37630   9.706  11.356   0.573 -0.2230 -0.5291  0.6532
  286MOL0     C37631   9.834  11.381   0.484  0.2689 -0.0846 -0.0917
  286MOL0     C37632   9.924  11.493   0.557  0.6948  0.2538 -0.5032
  286MOL0     C37633  10.040  11.542   0.449  0.3965  1.4271 -0.6799
  286MOL0     C37634  10.092  11.429   0.362 -1.4156  0.2740  0.0396
  286MOL0     C37635  10.232  11.465   0.290  0.4272  0.3664 -0.7637
  286MOL0     C37636  10.286  11.344   0.206 -0.1495  0.2367 -0.0677
  286MOL0     N37637  10.428  11.360   0.159  0.1035 -1.0556  0.2412
  286MOL0     C37638  10.548  11.308   0.215  0.9902 -1.0123  0.3966
  286MOL0     C37639  10.651  11.382   0.174  0.8795  0.3859  1.4485
  286MOL0     C37640  10.790  11.355   0.209 -0.6515  0.5181  0.3337
  286MOL0     C37641  10.898  11.421   0.117  0.0658 -1.0945 -0.1258
  286MOL0     C37642  10.910  11.571   0.141 -0.0189  0.6126 -0.6219
  286MOL0     C37643  11.000  11.623   0.031  0.0453 -0.0395  0.0420
  286MOL0     O37644  11.094  11.528  -0.015  0.3863  0.5053  0.1178
  286MOL0     C37645  11.179  11.570  -0.110  0.8152  0.3150  0.1369
  286MOL0     C37646  11.221  11.698  -0.130  0.6350 -0.0775 -0.1256
  286MOL0     C37647  11.328  11.731  -0.213  0.1420  0.2917 -0.0116
  286MOL0     C37648  11.391  11.637  -0.294  0.5662 -0.2671  0.4615
  286MOL0     C37649  11.488  11.674  -0.395 -0.8027  0.2317  0.2529
  286MOL0     O37650  11.526  11.585  -0.492  0.3551  0.7646 -0.8005
  286MOL0     C37651  11.630  11.601  -0.585 -0.0979 -0.7625  0.1172
  286MOL0     C37652  11.727  11.504  -0.610 -0.0306 -0.1177  0.0520
  286MOL0     C37653  11.824  11.527  -0.708  0.0963  0.2517  0.1772
  286MOL0     C37654  11.834  11.653  -0.790  0.5065  0.2498  0.0052
  286MOL0     O37655  11.943  11.672  -0.874  0.1140  0.2597 -0.4670
  286MOL0     C37656  11.954  11.799  -0.946 -0.4719  1.0342  0.4774
  286MOL0     C37657  11.893  11.793  -1.084  0.6566  0.1296  0.8138
  286MOL0     C37658  11.933  11.695  -1.184 -0.2858  0.9870  0.1623
  286MOL0     C37659  11.836  11.673  -1.298  0.0027 -0.8855  0.4717
  286MOL0     C37660  11.896  11.571  -1.399  0.0083  0.2780  0.5626
  286MOL0     C37661  11.804  11.522  -1.511 -0.3915  0.5590  0.6863
  286MOL0     C37662  11.781  11.635  -1.604  0.2119 -0.2349 -0.4043
  286MOL0     C37663  11.732  11.589  -1.740  0.5777 -0.1283 -0.2728
  286MOL0    Cl37664  11.864  11.518  -1.849  0.0547 -0.2812  0.1407
  286MOL0     C37665  11.736  11.743  -0.753 -0.2865  0.2055  1.0548
  286MOL0     C37666  11.636  11.722  -0.661  0.8963  0.2762 -0.1094
  286MOL0     O37667  11.529  11.792  -0.385 -0.0585  0.3860  0.3218
  286MOL0     C37668  11.344  11.501  -0.272  0.7113  0.0036  0.3779
  286MOL0     C37669  11.243  11.466  -0.183 -0.3458  0.3283  0.1759
  286MOL0     N37670  10.594  11.480   0.094 -0.9931  0.4232  0.3401
  286MOL0     N37671  10.466  11.471   0.093  0.4144  0.0410 -0.5484
  286MOL0     C37672   9.386  11.121   0.420 -0.7834 -0.3369  0.1298
  286MOL0     C37673   9.260  11.085   0.385 -0.1640  0.8698 -1.4757
  286MOL0     C37674   8.813  11.103   0.358  0.1388  0.3710  0.5164
  286MOL0     C37675   8.741  11.197   0.288 -0.5122  0.1689  0.0066
  286MOL0     C37676   8.609  11.179   0.263 -0.5510  0.3604  1.2792
  286MOL0     C37677   8.543  11.072   0.318 -0.5042 -0.1732 -0.1470
  286MOL0     O37678   8.405  11.055   0.317  0.2162 -0.0440  0.3382
  286MOL0     C37679   8.335  11.132   0.219 -0.2799  0.7750 -0.8953
  286MOL0     C37680   8.204  11.071   0.177 -0.0922  0.1483 -0.5867
  286MOL0     C37681   8.115  11.060   0.297 -0.2872  0.3494 -0.5532
  286MOL0     C37682   7.964  11.027   0.258 -0.5794  0.1535  0.7135
  286MOL0     C37683   7.871  10.973   0.363 -0.3653 -0.0490  0.8815
  286MOL0     C37684   7.797  10.932   0.445  0.2742 -0.3303  0.0631
  286MOL0     C37685   8.607  10.982   0.404  0.0377  0.4282 -0.2408
  286MOL0     C37686   8.750  10.996   0.418  1.5366  0.6742  0.0555
  286MOL0     H37687   9.119  11.081   0.691 -1.0967 -0.9140 -1.5118
  286MOL0     H37688   9.360  11.111   0.759 -2.6394 -1.0650  1.0275
  286MOL0     H37689   9.565  11.313   0.424 -0.1096  0.4926 -0.1877
  286MOL0     H37690   9.676  11.170   0.463 -0.6091 -0.6651  1.3700
  286MOL0     H37691   9.735  11.327   0.674 -0.7517 -0.6178  0.7855
  286MOL0     H37692   9.642  11.443   0.591  1.8592  0.7202  2.4455
  286MOL0     H37693   9.814  11.400   0.378  0.2792 -3.6590 -0.8623
  286MOL0     H37694   9.885  11.284   0.484 -1.6404 -1.1912  2.3540
  286MOL0     H37695   9.865  11.569   0.609  2.0322  0.9262  0.0982
  286MOL0     H37696   9.980  11.452   0.642 -0.1825 -0.4553 -0.2481
  286MOL0     H37697  10.115  11.597   0.505  1.5976 -3.0781  2.7084
  286MOL0     H37698   9.989  11.606   0.376 -2.5138 -2.3690 -2.3270
  286MOL0     H37699  10.018  11.407   0.285 -2.7440 -0.8815  1.5639
  286MOL0     H37700  10.109  11.342   0.427  0.4195  1.1514  0.8128
  286MOL0     H37701  10.216  11.556   0.233  0.0951  0.4120 -0.5982
  286MOL0     H37702  10.306  11.480   0.370 -0.1359 -0.9824  0.0352
  286MOL0     H37703  10.230  11.343   0.112 -0.3100  0.1070  0.0293
  286MOL0     H37704  10.272  11.249   0.259 -0.4865  0.9459  1.1479
  286MOL0     H37705  10.561  11.224   0.282  1.5855 -0.4100  1.0411
  286MOL0     H37706  10.803  11.248   0.188  1.0241  0.7523  0.0537
  286MOL0     H37707  10.797  11.370   0.317 -0.7864  0.5922  0.3329
  286MOL0     H37708  10.862  11.396   0.017 -2.1979  0.1129  0.3037
  286MOL0     H37709  10.998  11.384   0.138  0.8846 -0.2423 -2.2734
  286MOL0     H37710  10.813  11.621   0.138 -1.8584 -2.6421 -0.2367
  286MOL0     H37711  10.947  11.603   0.239 -1.0517 -1.0941  0.3771
  286MOL0     H37712  11.039  11.718   0.068 -2.3657  2.8236 -3.8752
  286MOL0     H37713  10.939  11.656  -0.054 -1.6361  3.5659  2.3758
  286MOL0     H37714  11.185  11.780  -0.068 -1.3956 -1.2987  0.4114
  286MOL0     H37715  11.351  11.837  -0.216 -3.1912  1.2166  2.2906
  286MOL0     H37716  11.732  11.412  -0.553 -1.1080  0.5688  1.3328
  286MOL0     H37717  11.894  11.447  -0.732 -0.5098 -0.3375  0.3366
  286MOL0     H37718  12.059  11.823  -0.967  0.1968 -2.0322 -0.1403
  286MOL0     H37719  11.925  11.884  -0.883  1.1077  1.6207  0.4491
  286MOL0     H37720  11.897  11.894  -1.126 -1.4344  0.1476  0.5618
  286MOL0     H37721  11.788  11.779  -1.057  0.6260 -0.0149  0.6177
  286MOL0     H37722  11.946  11.600  -1.130 -1.6912  1.7572  1.9574
  286MOL0     H37723  12.026  11.726  -1.232 -0.2360  1.0643  0.3093
  286MOL0     H37724  11.740  11.644  -1.255 -0.7298  1.5118  0.6095
  286MOL0     H37725  11.814  11.765  -1.353 -0.0867 -2.3194 -2.0170
  286MOL0     H37726  11.902  11.478  -1.342  2.4361 -1.1517 -1.7690
  286MOL0     H37727  11.992  11.610  -1.437 -0.5967  1.4249  0.1548
  286MOL0     H37728  11.710  11.483  -1.471 -0.5240  0.5461  0.3601
  286MOL0     H37729  11.848  11.442  -1.571 -1.8722  1.8366 -2.2963
  286MOL0     H37730  11.713  11.708  -1.559  0.8563 -1.7019  3.2853
  286MOL0     H37731  11.880  11.681  -1.613  1.2909 -2.3985 -0.2525
  286MOL0     H37732  11.684  11.670  -1.795  1.5573  3.3914  3.5794
  286MOL0     H37733  11.654  11.512  -1.735 -0.6473  1.0551 -0.5631
  286MOL0     H37734  11.723  11.838  -0.804 -1.9794 -1.3997 -1.7493
  286MOL0     H37735  11.558  11.796  -0.647  1.0060  0.8611 -2.1700
  286MOL0     H37736  11.401  11.421  -0.318 -0.9567 -2.1846  1.9490
  286MOL0     H37737  11.236  11.360  -0.159  1.5793  0.7778  3.2192
  286MOL0     H37738   9.464  11.134   0.346 -0.0942  0.6692  0.9936
  286MOL0     H37739   9.239  11.065   0.280 -1.4567  1.7809 -1.4199
  286MOL0     H37740   8.797  11.278   0.242  1.5289 -1.0888  0.1481
  286MOL0     H37741   8.560  11.250   0.197  1.3609  0.1821 -0.4497
  286MOL0     H37742   8.403  11.134   0.133  2.2613  0.1209  0.9948
  286MOL0     H37743   8.332  11.233   0.261  0.2163 -0.1994  1.6681
  286MOL0     H37744   8.154  11.143   0.112 -1.3786 -1.3550 -1.3247
  286MOL0     H37745   8.220  10.970   0.138 -1.1752 -0.5747  0.7331
  286MOL0     H37746   8.115  11.143   0.369  1.2768 -2.1769  2.6275
  286MOL0     H37747   8.149  10.974   0.355 -0.7567  0.6379  0.1587
  286MOL0     H37748   7.916  11.121   0.230  0.2214 -0.1621 -2.0324
  286MOL0     H37749   7.971  10.972   0.163  3.8469 -0.2699  1.0743
  286MOL0     H37750   7.725  10.897   0.517  1.3181 -1.0942  0.7700
  286MOL0     H37751   8.561  10.897   0.455  1.3277 -0.6781 -0.8679
  286MOL0     H37752   8.806  10.920   0.473  0.3992 -0.5541 -0.4038
  287MOL0     O37753   2.510   9.195   3.151  0.2630 -0.4467  0.1099
  287MOL0     C37754   2.437   9.104   3.110  0.3572 -0.2200 -0.3085
  287MOL0     O37755   2.481   8.988   3.057  0.0233 -0.1482 -0.4587
  287MOL0     C37756   2.614   8.980   3.019 -0.1971 -0.5074  0.2190
  287MOL0     C37757   2.662   9.047   2.904 -0.4869  0.1117  1.0645
  287MOL0     C37758   2.785   9.027   2.852  0.7365 -0.1184  0.0356
  287MOL0     C37759   2.872   8.929   2.908 -0.9981 -0.1920  0.0623
  287MOL0     O37760   2.993   8.873   2.861 -0.5819 -0.5449  0.5891
  287MOL0     C37761   3.040   8.910   2.727 -0.4322 -0.7333 -0.4026
  287MOL0     C37762   3.177   8.834   2.711 -0.7867 -0.7728  0.6720
  287MOL0     C37763   3.245   8.881   2.582 -0.1723 -0.8987  0.1653
  287MOL0     C37764   3.174   8.851   2.449  0.4391  0.5515  0.5329
  287MOL0     C37765   3.274   8.795   2.341 -0.6060  0.3000 -0.8187
  287MOL0     C37766   3.372   8.908   2.307 -0.1981  1.4022 -0.5116
  287MOL0     C37767   3.305   9.027   2.233  0.3677 -0.1407  0.0049
  287MOL0     C37768   3.405   9.149   2.214  0.3880  1.0092  0.1004
  287MOL0     N37769   3.378   9.219   2.087  0.4988 -0.1342  0.3865
  287MOL0     C37770   3.468   9.302   2.041 -0.6483  0.4037 -0.5029
  287MOL0     C37771   3.418   9.366   1.942 -0.5385  0.0058  0.3667
  287MOL0     C37772   3.471   9.491   1.887 -1.2555 -0.0467 -0.0346
  287MOL0     C37773   3.625   9.465   1.840  0.3119 -0.0244 -0.8116
  287MOL0     C37774   3.678   9.594   1.785  0.4412 -0.7298  0.0408
  287MOL0     C37775   3.835   9.587   1.768 -0.4291 -1.3403 -0.8722
  287MOL0     O37776   3.892   9.718   1.743 -0.1129  0.2557 -0.2092
  287MOL0     C37777   4.012   9.728   1.675  0.9866  0.1290 -0.4573
  287MOL0     C37778   4.123   9.639   1.672  0.0618 -0.0619  0.4870
  287MOL0     C37779   4.243   9.674   1.603  0.0872  0.3198 -0.2596
  287MOL0     C37780   4.244   9.783   1.520 -0.5415 -0.1759 -0.7074
  287MOL0     C37781   4.370   9.799   1.443  0.0486 -0.5521  0.6930
  287MOL0     O37782   4.438   9.687   1.408 -0.3434 -0.3067 -0.6919
  287MOL0     C37783   4.548   9.697   1.315  1.5556  0.6082 -0.7497
  287MOL0     C37784   4.538   9.662   1.176 -0.1557  0.7547  0.0438
  287MOL0     C37785   4.656   9.657   1.096  0.4935  0.4054 -0.3324
  287MOL0     C37786   4.781   9.704   1.140  0.6956 -0.3449  1.0762
  287MOL0     O37787   4.883   9.715   1.042  0.1615 -0.6582  0.1072
  287MOL0     C37788   4.999   9.806   1.057  0.3800  1.1227  0.4968
  287MOL0     C37789   5.125   9.717   1.029 -0.2056 -0.9209  1.3484
  287MOL0     C37790   5.242   9.817   1.038 -0.3629 -0.3880  0.9168
  287MOL0     C37791   5.364   9.765   1.121 -0.1500 -0.7957  0.4667
  287MOL0     C37792   5.319   9.719   1.263  0.1184 -0.0241 -0.2271
  287MOL0     C37793   5.442   9.713   1.360 -0.6026  0.6950  0.3197
  287MOL0     C37794   5.553   9.620   1.312 -0.5517 -0.1033 -0.0134
  287MOL0     C37795   5.649   9.613   1.432  0.2509  0.3508 -0.2270
  287MOL0    Cl37796   5.801   9.522   1.373  0.0223  0.0832  0.4618
  287MOL0     C37797   4.781   9.754   1.272  0.0660  0.2214 -0.0508
  287MOL0     C37798   4.671   9.744   1.358  0.5394 -0.1876  0.1878
  287MOL0     O37799   4.403   9.918   1.417 -0.0516  0.2991  0.4432
  287MOL0     C37800   4.137   9.871   1.521 -0.9731 -0.2124  0.2459
  287MOL0     C37801   4.032   9.852   1.602  0.0577  0.6559 -0.2100
  287MOL0     N37802   3.286   9.316   1.915 -0.1353  0.4586 -0.8612
  287MOL0     N37803   3.266   9.227   2.007 -0.2181  0.1525 -0.5681
  287MOL0     C37804   2.821   8.864   3.021 -0.0880  0.2986 -0.3277
  287MOL0     C37805   2.699   8.886   3.084  0.5177  0.7812  0.6043
  287MOL0     C37806   2.289   9.105   3.119 -0.6734  0.0977 -0.7810
  287MOL0     C37807   2.231   9.230   3.117 -0.2004 -1.2025  0.4677
  287MOL0     C37808   2.092   9.249   3.109 -0.1120  0.8817 -0.1336
  287MOL0     C37809   2.006   9.140   3.107  0.8103  0.1097  0.1540
  287MOL0     O37810   1.874   9.177   3.115  0.2793  0.1436 -0.2336
  287MOL0     C37811   1.782   9.080   3.168 -0.5683 -0.2305 -0.1751
  287MOL0     C37812   1.659   9.165   3.219 -0.0991  0.1724  0.5519
  287MOL0     C37813   1.543   9.089   3.285  0.1913 -0.4051 -0.0011
  287MOL0     C37814   1.430   9.181   3.303  0.1430 -0.3600 -0.5361
  287MOL0     C37815   1.309   9.121   3.358  0.5223  0.4490  0.4416
  287MOL0     C37816   1.209   9.075   3.415  0.7304  0.1588  0.3696
  287MOL0     C37817   2.058   9.012   3.116  0.9843 -0.3996 -0.2560
  287MOL0     C37818   2.196   8.998   3.094 -0.2595 -0.5391 -0.7936
  287MOL0     H37819   2.607   9.117   2.841 -2.5104 -1.6266  0.7539
  287MOL0     H37820   2.814   9.080   2.762 -1.0959  1.7263  0.4527
  287MOL0     H37821   3.052   9.018   2.726  1.4675 -0.8975  0.3392
  287MOL0     H37822   2.975   8.873   2.647  1.7516 -4.2628 -0.7870
  287MOL0     H37823   3.158   8.727   2.712 -0.2288 -0.8714  0.8040
  287MOL0     H37824   3.234   8.861   2.800  1.1629  2.3267 -1.3104
  287MOL0     H37825   3.336   8.820   2.574 -1.6908 -3.0218 -2.4785
  287MOL0     H37826   3.287   8.982   2.577  0.3099 -1.0564  0.8724
  287MOL0     H37827   3.111   8.762   2.458 -0.6829  1.3691  0.9056
  287MOL0     H37828   3.105   8.930   2.420 -4.3241 -2.5362  2.2917
  287MOL0     H37829   3.228   8.755   2.250  2.7337 -0.7860 -2.2027
  287MOL0     H37830   3.321   8.714   2.398 -0.7060  0.0229 -1.1240
  287MOL0     H37831   3.447   8.871   2.237  0.1847 -0.9614  1.0261
  287MOL0     H37832   3.423   8.934   2.400  1.9902 -0.6094 -1.0550
  287MOL0     H37833   3.280   8.983   2.135 -1.2913  0.0888  0.2973
  287MOL0     H37834   3.214   9.055   2.287  0.6652  0.6655  0.0932
  287MOL0     H37835   3.509   9.114   2.216 -0.0958 -0.6063 -1.2273
  287MOL0     H37836   3.385   9.210   2.303  3.4589 -0.8357  2.2783
  287MOL0     H37837   3.560   9.303   2.099 -1.8991  1.5674  1.5913
  287MOL0     H37838   3.473   9.561   1.972  1.5838  0.2075 -0.2183
  287MOL0     H37839   3.403   9.541   1.817 -1.7724 -1.0613 -0.2786
  287MOL0     H37840   3.627   9.398   1.753  2.4041  1.7906 -2.2642
  287MOL0     H37841   3.693   9.426   1.916  0.4531 -0.4940 -1.1731
  287MOL0     H37842   3.625   9.603   1.690 -1.2156 -1.3185  0.8654
  287MOL0     H37843   3.640   9.670   1.853 -1.4172 -1.9297  0.4354
  287MOL0     H37844   3.861   9.515   1.690 -1.2837 -3.2281  0.5057
  287MOL0     H37845   3.873   9.550   1.863  0.3857 -2.1522 -1.5048
  287MOL0     H37846   4.122   9.548   1.731  4.5776 -0.0455  0.9224
  287MOL0     H37847   4.330   9.609   1.604  1.8224  2.5033 -0.3100
  287MOL0     H37848   4.455   9.612   1.127  0.7582 -1.4366  0.6234
  287MOL0     H37849   4.645   9.608   1.000 -1.2222 -0.8081  0.4307
  287MOL0     H37850   5.014   9.848   1.156 -0.5571  1.4945  0.4898
  287MOL0     H37851   5.000   9.901   1.002 -2.5362  1.3228  0.6145
  287MOL0     H37852   5.119   9.676   0.927 -0.8496 -3.0303  2.1730
  287MOL0     H37853   5.124   9.632   1.098 -5.9225 -1.1532  1.5078
  287MOL0     H37854   5.215   9.914   1.079  1.7897  1.2886 -1.2938
  287MOL0     H37855   5.281   9.840   0.938  1.4469  2.1889  2.1101
  287MOL0     H37856   5.403   9.678   1.068  0.9272 -0.1954  0.2400
  287MOL0     H37857   5.445   9.838   1.129  0.1922 -0.8973 -1.5237
  287MOL0     H37858   5.278   9.618   1.264 -1.5749  0.5979  1.8275
  287MOL0     H37859   5.238   9.782   1.301 -2.5601 -1.0937 -3.7028
  287MOL0     H37860   5.388   9.664   1.441 -1.5627 -3.2227 -2.3936
  287MOL0     H37861   5.482   9.810   1.389  0.4846  0.2715  0.3271
  287MOL0     H37862   5.504   9.526   1.286 -2.9704  1.5753 -1.9267
  287MOL0     H37863   5.601   9.640   1.216  0.6178 -2.6699 -0.0596
  287MOL0     H37864   5.606   9.570   1.523  1.4249 -3.2398 -1.1836
  287MOL0     H37865   5.662   9.714   1.471  3.4661 -1.0339  2.9562
  287MOL0     H37866   4.869   9.794   1.321  1.4657 -0.3451 -1.9913
  287MOL0     H37867   4.669   9.790   1.456  2.9847  0.6397 -0.0718
  287MOL0     H37868   4.131   9.955   1.453  2.2298  0.0762  0.1521
  287MOL0     H37869   3.949   9.921   1.592  1.9646  3.2007  0.4035
  287MOL0     H37870   2.879   8.778   3.052 -1.4494 -0.2327  0.8463
  287MOL0     H37871   2.663   8.843   3.176 -1.8555  3.7788  1.2551
  287MOL0     H37872   2.294   9.318   3.104 -0.7636 -0.8662 -0.0567
  287MOL0     H37873   2.057   9.351   3.099  0.1436  1.0421  0.5812
  287MOL0     H37874   1.826   9.031   3.254  0.8429  0.1791 -0.6315
  287MOL0     H37875   1.740   9.003   3.103 -1.7924  0.5335 -0.3360
  287MOL0     H37876   1.698   9.234   3.294 -0.5890  1.2484 -0.1609
  287MOL0     H37877   1.629   9.224   3.132 -0.7882  1.3865  1.5860
  287MOL0     H37878   1.558   9.046   3.384 -5.0839 -0.8847  0.9182
  287MOL0     H37879   1.511   9.005   3.223 -0.2251 -1.4439  1.5587
  287MOL0     H37880   1.456   9.266   3.366 -1.2846 -0.3687  0.1062
  287MOL0     H37881   1.403   9.228   3.208  1.6291  0.8451 -0.3971
  287MOL0     H37882   1.110   9.057   3.452 -0.3082  0.3122 -2.1383
  287MOL0     H37883   1.979   8.938   3.122 -1.5955  2.3127  2.5739
  287MOL0     H37884   2.237   8.898   3.082  1.1764 -0.0298 -0.3122
  288MOL0     O37885   7.923   7.003  11.202  0.3263  0.3926  0.2773
  288MOL0     C37886   7.910   7.116  11.249 -0.1236  0.8128 -0.0360
  288MOL0     O37887   7.990   7.177  11.336  0.4028 -0.0275 -0.2365
  288MOL0     C37888   8.111   7.123  11.372 -0.3926  0.0777  0.8119
  288MOL0     C37889   8.170   7.173  11.481  0.2165 -0.3056 -0.2086
  288MOL0     C37890   8.307   7.149  11.509  0.0458  0.6943 -0.1130
  288MOL0     C37891   8.384   7.054  11.433  0.5602 -0.7263  0.5428
  288MOL0     O37892   8.518   7.021  11.452 -0.2041  0.1428  0.9672
  288MOL0     C37893   8.588   7.097  11.549 -0.1973  0.7390 -0.6887
  288MOL0     C37894   8.740   7.083  11.517 -0.7032 -0.1528 -0.6749
  288MOL0     C37895   8.831   7.120  11.632 -0.0243 -0.0437  0.0281
  288MOL0     C37896   8.974   7.082  11.607 -0.7232  0.5589 -0.1101
  288MOL0     C37897   9.064   7.159  11.709  0.5168 -0.0472 -0.2392
  288MOL0     C37898   9.208   7.114  11.698 -0.4098  0.2340 -0.7929
  288MOL0     C37899   9.289   7.138  11.828  0.5331  0.4905  1.3023
  288MOL0     C37900   9.417   7.053  11.828 -0.0361  0.0047 -0.8044
  288MOL0     N37901   9.501   7.105  11.943  0.4996 -1.0277  0.3212
  288MOL0     C37902   9.591   7.213  11.941 -0.1592 -0.0065  0.0980
  288MOL0     C37903   9.678   7.192  12.039  0.5531  0.1468 -0.3639
  288MOL0     C37904   9.786   7.280  12.088  0.2128  0.5948  0.2539
  288MOL0     C37905   9.718   7.387  12.181 -0.0001 -0.1729  1.4458
  288MOL0     C37906   9.807   7.465  12.275  0.7359  0.8504  0.0569
  288MOL0     C37907   9.718   7.560  12.356  0.3863  0.4380  0.1257
  288MOL0     O37908   9.727   7.695  12.308  0.3681 -0.2113 -0.0314
  288MOL0     C37909   9.705   7.793  12.408  0.2507  0.3018  0.4489
  288MOL0     C37910   9.748   7.921  12.372  0.0853  0.2161 -0.0684
  288MOL0     C37911   9.727   8.033  12.456 -1.0252  0.0950  0.3463
  288MOL0     C37912   9.648   8.013  12.571 -0.1223  0.0691  0.4077
  288MOL0     C37913   9.617   8.133  12.652 -0.0664 -0.7968  0.7557
  288MOL0     O37914   9.618   8.254  12.581  0.7037  0.0376 -0.5596
  288MOL0     C37915   9.604   8.371  12.655 -0.7768  0.0836 -0.1477
  288MOL0     C37916   9.722   8.422  12.702 -0.3062  0.5806 -0.6721
  288MOL0     C37917   9.716   8.552  12.784 -0.4591  0.8921  0.8489
  288MOL0     C37918   9.587   8.611  12.808 -0.0731 -0.1123  0.7895
  288MOL0     O37919   9.604   8.703  12.908 -0.1446  0.0918 -0.0707
  288MOL0     C37920   9.491   8.786  12.952 -0.6931  0.9477 -0.7792
  288MOL0     C37921   9.463   8.759  13.098 -0.4316 -0.7312 -0.4739
  288MOL0     C37922   9.372   8.867  13.173  0.5619  0.3982 -0.7300
  288MOL0     C37923   9.437   9.007  13.175  0.0251  0.0274 -0.5539
  288MOL0     C37924   9.361   9.092  13.272  0.5861  0.4461 -0.7339
  288MOL0     C37925   9.416   9.229  13.281  0.1274 -0.3329  0.2278
  288MOL0     C37926   9.521   9.233  13.385 -0.3426  0.0957  0.4690
  288MOL0     C37927   9.532   9.365  13.456  0.4571 -0.8407 -0.3199
  288MOL0    Cl37928   9.613   9.482  13.337 -0.7023 -0.1077 -0.3485
  288MOL0     C37929   9.470   8.539  12.762  0.9690 -0.5464  0.1470
  288MOL0     C37930   9.489   8.427  12.683 -0.9155 -0.0583 -0.0777
  288MOL0     O37931   9.589   8.117  12.767 -0.8221 -0.8632  0.5791
  288MOL0     C37932   9.604   7.886  12.612  0.0399 -0.4212  0.6339
  288MOL0     C37933   9.628   7.776  12.526 -0.6415 -0.3623 -0.6431
  288MOL0     N37934   9.630   7.080  12.111  0.0622 -0.0420  0.7954
  288MOL0     N37935   9.523   7.035  12.057 -0.9483 -0.3765  0.4007
  288MOL0     C37936   8.324   7.000  11.325  0.0557 -0.9213  0.6542
  288MOL0     C37937   8.186   7.033  11.296 -0.6738  0.2905  0.8074
  288MOL0     C37938   7.763   7.176  11.229 -0.1475 -0.0536  0.4930
  288MOL0     C37939   7.723   7.292  11.300 -0.0605 -0.6814  0.6356
  288MOL0     C37940   7.603   7.363  11.282  0.0442 -0.6584 -0.3884
  288MOL0     C37941   7.512   7.315  11.191  0.3453 -0.5282 -0.2526
  288MOL0     O37942   7.404   7.398  11.172  1.0882 -0.6047 -0.1920
  288MOL0     C37943   7.286   7.361  11.085 -1.0068 -1.5987 -0.1025
  288MOL0     C37944   7.189   7.478  11.098 -0.4481 -0.3107 -0.6527
  288MOL0     C37945   7.124   7.484  11.235  0.5183 -0.1505  0.1008
  288MOL0     C37946   6.989   7.408  11.242 -0.5007  0.6545  0.3554
  288MOL0     C37947   6.902   7.441  11.358 -0.5150  0.0509 -0.0382
  288MOL0     C37948   6.844   7.474  11.461  0.4054  1.1332  0.7908
  288MOL0     C37949   7.543   7.197  11.116 -0.4753 -0.5662 -0.2130
  288MOL0     C37950   7.667   7.129  11.141  1.1442  0.0130 -0.1070
  288MOL0     H37951   8.116   7.242  11.545  0.3068 -0.2756 -0.1640
  288MOL0     H37952   8.337   7.200  11.601  3.3648  0.9045 -1.1771
  288MOL0     H37953   8.570   7.055  11.649 -0.0515  3.1757  0.4428
  288MOL0     H37954   8.558   7.202  11.558  1.9689  1.2963  1.1679
  288MOL0     H37955   8.761   7.146  11.431 -1.9407  1.1819 -0.0301
  288MOL0     H37956   8.749   6.974  11.504 -1.9566 -1.1952  4.6161
  288MOL0     H37957   8.803   7.078  11.728 -0.6553  2.3979  0.9858
  288MOL0     H37958   8.820   7.227  11.649 -2.2772  1.1207 -6.1250
  288MOL0     H37959   8.978   6.977  11.636 -0.4279  0.0018 -1.9770
  288MOL0     H37960   9.005   7.093  11.502  0.4027 -3.4003 -0.3741
  288MOL0     H37961   9.018   7.153  11.807 -0.8405 -1.8074 -0.9338
  288MOL0     H37962   9.065   7.265  11.680  0.7160  0.0922  0.2688
  288MOL0     H37963   9.257   7.146  11.606 -0.5188  0.3078 -0.8253
  288MOL0     H37964   9.214   7.005  11.692  2.4461  0.1377  1.4913
  288MOL0     H37965   9.309   7.244  11.849  2.6246  0.2301  0.8593
  288MOL0     H37966   9.230   7.099  11.911  0.9221 -2.5332  0.2799
  288MOL0     H37967   9.461   7.046  11.729 -1.3743 -0.0282 -1.4146
  288MOL0     H37968   9.394   6.950  11.855  2.5818 -0.2933  0.7177
  288MOL0     H37969   9.591   7.294  11.869  1.2009  0.0786  0.1734
  288MOL0     H37970   9.820   7.320  11.992 -1.8298 -0.9535 -1.2113
  288MOL0     H37971   9.862   7.226  12.145  1.4941 -0.7326 -2.5038
  288MOL0     H37972   9.625   7.351  12.228 -1.5771  0.4386 -1.0058
  288MOL0     H37973   9.677   7.469  12.120 -0.7178 -2.5213 -1.5085
  288MOL0     H37974   9.857   7.396  12.343 -0.5337  1.4679  1.6865
  288MOL0     H37975   9.881   7.527  12.223  1.3231  1.3819  1.4738
  288MOL0     H37976   9.746   7.563  12.462 -3.4995  1.0992  1.2936
  288MOL0     H37977   9.614   7.529  12.346 -0.2567  1.9468  1.6723
  288MOL0     H37978   9.770   7.957  12.272 -3.4377  1.8686 -0.4015
  288MOL0     H37979   9.764   8.129  12.420  1.3622 -1.6255 -2.2512
  288MOL0     H37980   9.813   8.370  12.676 -1.4608 -0.5905 -2.5490
  288MOL0     H37981   9.809   8.594  12.822  0.4333  0.5750 -0.8865
  288MOL0     H37982   9.401   8.784  12.889 -3.0000  2.3889  2.1993
  288MOL0     H37983   9.510   8.894  12.944 -2.0106  1.1852 -1.0199
  288MOL0     H37984   9.562   8.778  13.142  0.0143  1.6816 -2.2909
  288MOL0     H37985   9.430   8.656  13.110 -0.8842 -0.4092  1.3679
  288MOL0     H37986   9.360   8.843  13.278 -3.5554  1.4466 -0.8092
  288MOL0     H37987   9.273   8.861  13.128  0.0777 -1.1508  0.5032
  288MOL0     H37988   9.540   9.009  13.210 -0.8728 -0.9722  2.3988
  288MOL0     H37989   9.426   9.054  13.076 -0.7077  0.3456 -0.3251
  288MOL0     H37990   9.360   9.048  13.372 -3.3041 -0.9287 -1.2057
  288MOL0     H37991   9.253   9.090  13.255  0.0783  1.0713  1.9534
  288MOL0     H37992   9.321   9.280  13.302 -1.4206 -2.5318 -1.0334
  288MOL0     H37993   9.456   9.256  13.183 -0.6532  0.1089  0.0198
  288MOL0     H37994   9.510   9.167  13.472  0.0573  1.7324  1.8097
  288MOL0     H37995   9.620   9.218  13.342 -0.3021  0.7564  0.3255
  288MOL0     H37996   9.598   9.362  13.544 -0.3578  2.0025  0.5176
  288MOL0     H37997   9.432   9.395  13.489  0.9373 -1.7356  2.1668
  288MOL0     H37998   9.373   8.577  12.794  1.4854  0.8581  0.1548
  288MOL0     H37999   9.400   8.369  12.660 -1.6507  0.1983  1.9553
  288MOL0     H38000   9.532   7.869  12.691  1.3261 -1.8253  1.5538
  288MOL0     H38001   9.568   7.689  12.549 -1.6542  0.4412 -0.1750
  288MOL0     H38002   8.381   6.936  11.259 -2.1620 -0.2644 -2.0853
  288MOL0     H38003   8.150   6.968  11.217 -0.4348  0.4903  0.5306
  288MOL0     H38004   7.801   7.348  11.351 -1.6536  3.3321 -0.9345
  288MOL0     H38005   7.592   7.463  11.323  2.1171  0.3641 -2.0779
  288MOL0     H38006   7.226   7.275  11.119  1.4018 -3.0598  0.6672
  288MOL0     H38007   7.324   7.346  10.984  1.4798  2.6459 -0.0410
  288MOL0     H38008   7.255   7.564  11.081 -2.8600  1.5566 -1.1668
  288MOL0     H38009   7.106   7.481  11.026 -0.7023  0.3343 -0.3428
  288MOL0     H38010   7.113   7.591  11.250  0.6063 -0.0194 -0.7290
  288MOL0     H38011   7.188   7.444  11.314  1.0546 -0.0408 -0.2691
  288MOL0     H38012   6.933   7.420  11.149  0.8099 -4.6847 -1.4669
  288MOL0     H38013   7.009   7.301  11.255 -0.6198  0.9899  5.1036
  288MOL0     H38014   6.806   7.512  11.553  1.0987 -0.2852  1.7074
  288MOL0     H38015   7.475   7.171  11.035  0.6863 -3.3541 -0.4040
  288MOL0     H38016   7.680   7.044  11.074 -3.4768 -0.7712 -0.3361
  289MOL0     O38017  10.164   5.143   7.086 -0.2221 -0.2449 -0.3253
  289MOL0     C38018  10.184   5.184   7.203  0.5425  0.4490 -0.4571
  289MOL0     O38019  10.198   5.323   7.238 -0.2274  0.6672  0.2402
  289MOL0     C38020  10.194   5.418   7.136 -1.2444 -0.0230 -0.0175
  289MOL0     C38021  10.149   5.545   7.173 -0.4439 -0.4892 -0.0105
  289MOL0     C38022  10.135   5.659   7.085  0.2665 -0.4099 -0.5319
  289MOL0     C38023  10.179   5.640   6.957 -0.0049  0.2515 -0.4815
  289MOL0     O38024  10.178   5.735   6.867  0.6746 -0.3151  0.0704
  289MOL0     C38025  10.101   5.853   6.882 -0.4722  0.1997 -0.1079
  289MOL0     C38026  10.182   5.955   6.958 -0.7197  0.0206 -0.5301
  289MOL0     C38027  10.099   6.056   7.049  0.4329 -0.2537  0.7869
  289MOL0     C38028  10.021   6.155   6.971  0.9880  0.1828 -0.2214
  289MOL0     C38029   9.995   6.290   7.029 -0.7739  0.1857 -0.6780
  289MOL0     C38030   9.896   6.288   7.151  0.9626  1.0951 -0.2389
  289MOL0     C38031   9.867   6.425   7.205  0.1182 -0.3636 -0.7091
  289MOL0     C38032   9.746   6.410   7.295 -0.0308 -0.3085  0.0318
  289MOL0     N38033   9.711   6.538   7.363  0.0539 -1.3885 -0.0906
  289MOL0     C38034   9.752   6.558   7.498  0.0402 -0.2579  0.0220
  289MOL0     C38035   9.675   6.668   7.539 -0.2391  0.1811 -0.3318
  289MOL0     C38036   9.673   6.725   7.674  0.0629  0.1577  0.0462
  289MOL0     C38037   9.817   6.738   7.726 -0.1689 -0.4183  1.5755
  289MOL0     C38038   9.906   6.826   7.630  0.8038  1.0239  0.0152
  289MOL0     C38039   9.844   6.954   7.581 -0.5045 -0.3583  0.9383
  289MOL0     O38040   9.948   7.001   7.492 -0.3481 -0.2459 -0.1974
  289MOL0     C38041   9.908   7.073   7.389  0.3472 -0.5497  0.0381
  289MOL0     C38042   9.812   7.032   7.297  0.5472  0.4244 -0.6722
  289MOL0     C38043   9.781   7.099   7.177  0.4268 -0.1400  0.2359
  289MOL0     C38044   9.850   7.217   7.146  0.4325  0.2808 -0.2368
  289MOL0     C38045   9.830   7.284   7.010 -0.2277 -0.2708  1.0055
  289MOL0     O38046   9.709   7.281   6.955  1.2746  0.0764 -0.2035
  289MOL0     C38047   9.672   7.355   6.854 -0.0786  1.1792 -0.0588
  289MOL0     C38048   9.713   7.318   6.719 -0.4404 -0.0034  0.0580
  289MOL0     C38049   9.662   7.394   6.613  0.3116 -0.0506 -0.3032
  289MOL0     C38050   9.565   7.492   6.628 -0.5109  1.1317  0.3782
  289MOL0     O38051   9.497   7.553   6.532 -0.7490 -0.9383  0.7722
  289MOL0     C38052   9.446   7.487   6.418  1.2051  0.1238 -0.6098
  289MOL0     C38053   9.287   7.483   6.422 -0.2014  0.3350 -1.0337
  289MOL0     C38054   9.245   7.402   6.294  0.1447  0.7222 -0.4600
  289MOL0     C38055   9.097   7.398   6.306  0.3222 -0.2967 -0.6372
  289MOL0     C38056   9.029   7.261   6.277 -0.2350 -0.9966 -0.1234
  289MOL0     C38057   8.882   7.263   6.294  0.2736 -0.0245  0.0178
  289MOL0     C38058   8.829   7.114   6.313 -0.0060 -0.4787 -0.1768
  289MOL0     C38059   8.687   7.120   6.367 -0.7217  0.1147 -0.7045
  289MOL0    Cl38060   8.674   7.154   6.539  0.0658  0.1436 -0.3972
  289MOL0     C38061   9.532   7.531   6.755 -0.0187 -1.3479 -0.5075
  289MOL0     C38062   9.577   7.460   6.865  0.3261  0.0020  0.1694
  289MOL0     O38063   9.927   7.344   6.967 -0.4611  0.4616 -0.2573
  289MOL0     C38064   9.957   7.253   7.236 -0.4070 -0.7147 -0.5732
  289MOL0     C38065   9.982   7.184   7.358  0.7462  0.3302  0.7701
  289MOL0     N38066   9.588   6.698   7.438 -0.5404 -0.3584  0.0682
  289MOL0     N38067   9.613   6.625   7.338  1.4277  0.0693  0.5591
  289MOL0     C38068  10.233   5.514   6.910 -0.1145 -0.6227 -1.0221
  289MOL0     C38069  10.247   5.407   7.002 -0.2547  0.6462 -0.1512
  289MOL0     C38070  10.212   5.091   7.316  0.2867  0.7173  0.2654
  289MOL0     C38071  10.279   5.132   7.436 -0.5300 -0.3144 -1.3859
  289MOL0     C38072  10.313   5.034   7.537  0.9002 -0.5367  0.6036
  289MOL0     C38073  10.279   4.901   7.518 -0.1861 -0.3355 -0.5186
  289MOL0     O38074  10.306   4.813   7.626  0.0647  0.3104  0.7853
  289MOL0     C38075  10.294   4.673   7.610  1.9465  0.0768 -0.3751
  289MOL0     C38076  10.428   4.624   7.541 -0.7198  0.7188  0.3506
  289MOL0     C38077  10.430   4.478   7.487 -0.3229 -0.2803  0.0987
  289MOL0     C38078  10.450   4.375   7.594 -0.3951 -0.7983 -0.3167
  289MOL0     C38079  10.591   4.347   7.637  1.5403  0.0260  1.0733
  289MOL0     C38080  10.697   4.308   7.678 -0.0425  0.1230 -0.8916
  289MOL0     C38081  10.190   4.865   7.410 -0.5525  0.1476  0.3424
  289MOL0     C38082  10.173   4.961   7.310  0.3052  0.0216  0.3257
  289MOL0     H38083  10.112   5.546   7.275 -1.8974  3.1999 -0.4213
  289MOL0     H38084  10.083   5.750   7.115  1.9621  0.3987  0.0488
  289MOL0     H38085  10.001   5.838   6.921 -0.2737 -3.2656 -0.5986
  289MOL0     H38086  10.096   5.887   6.778  1.4322  0.7083 -0.0694
  289MOL0     H38087  10.253   6.005   6.891 -0.6161 -1.1333 -1.3099
  289MOL0     H38088  10.240   5.888   7.022 -1.1321  0.6644  0.5609
  289MOL0     H38089  10.170   6.113   7.110 -1.3145  0.6680  2.0241
  289MOL0     H38090  10.041   5.990   7.115 -1.4376 -0.7688 -1.2524
  289MOL0     H38091  10.074   6.161   6.875 -0.7976  1.3117 -1.2150
  289MOL0     H38092   9.921   6.120   6.944 -0.0791  1.8463  1.3432
  289MOL0     H38093   9.975   6.357   6.945  1.7909  0.1555 -1.4004
  289MOL0     H38094  10.098   6.311   7.061  1.4919 -2.2470 -5.2394
  289MOL0     H38095   9.932   6.213   7.222 -3.0940 -1.3237 -0.4180
  289MOL0     H38096   9.798   6.251   7.120  0.9349 -3.0779  3.7138
  289MOL0     H38097   9.944   6.473   7.267 -0.6423 -0.7610  0.5748
  289MOL0     H38098   9.850   6.488   7.117 -1.7163  0.2369  0.0469
  289MOL0     H38099   9.779   6.339   7.372 -0.8766 -1.5349 -0.7194
  289MOL0     H38100   9.665   6.368   7.235  1.2470 -1.9017 -0.6685
  289MOL0     H38101   9.819   6.496   7.557 -0.8851  0.3581  1.8108
  289MOL0     H38102   9.612   6.670   7.746 -1.1094 -0.9158 -1.6832
  289MOL0     H38103   9.625   6.824   7.674  0.8519  0.5614  1.3699
  289MOL0     H38104   9.863   6.639   7.742  0.3283 -0.1939  1.5424
  289MOL0     H38105   9.807   6.801   7.814  0.8385  1.2012  0.5702
  289MOL0     H38106   9.998   6.854   7.683  0.6092  1.0141  0.3583
  289MOL0     H38107   9.922   6.766   7.540 -1.4106  2.7627 -1.6571
  289MOL0     H38108   9.845   7.021   7.667  0.1721  0.5251  0.2563
  289MOL0     H38109   9.746   6.933   7.538 -0.3627  1.6890 -0.4964
  289MOL0     H38110   9.773   6.933   7.320 -2.1881  1.5318 -0.1982
  289MOL0     H38111   9.703   7.063   7.110  0.8354 -2.2826  0.8378
  289MOL0     H38112   9.794   7.247   6.705  2.2681  2.0335  3.5914
  289MOL0     H38113   9.699   7.361   6.517 -0.9177 -1.8899 -0.1942
  289MOL0     H38114   9.482   7.383   6.417 -2.4327 -1.4314  2.8632
  289MOL0     H38115   9.482   7.537   6.328 -0.0551  1.2937 -0.4900
  289MOL0     H38116   9.256   7.588   6.427 -1.3135 -0.0171 -0.1026
  289MOL0     H38117   9.254   7.433   6.513  0.4563  2.7979  0.6493
  289MOL0     H38118   9.293   7.304   6.293 -0.3921  0.4557 -1.6351
  289MOL0     H38119   9.279   7.455   6.204  0.4532  3.4727  1.1707
  289MOL0     H38120   9.066   7.419   6.409 -0.8470  2.8008 -1.5250
  289MOL0     H38121   9.059   7.470   6.234 -0.2231 -0.6783 -0.7394
  289MOL0     H38122   9.082   7.198   6.349  0.0671 -0.0327  0.5159
  289MOL0     H38123   9.056   7.231   6.176  3.5317  2.2378 -0.3148
  289MOL0     H38124   8.838   7.301   6.201  1.4056 -1.2926 -1.0843
  289MOL0     H38125   8.849   7.325   6.377  1.1013  2.1912 -1.2284
  289MOL0     H38126   8.818   7.055   6.222  0.4663 -2.3468  0.9358
  289MOL0     H38127   8.894   7.067   6.387  1.5418 -0.1418 -1.2708
  289MOL0     H38128   8.644   7.019   6.359 -1.5919  0.3049  1.0569
  289MOL0     H38129   8.630   7.189   6.305  0.3608  2.0489  0.3657
  289MOL0     H38130   9.462   7.612   6.774  2.3628  0.7759 -0.0854
  289MOL0     H38131   9.534   7.465   6.965  1.6885 -1.8114  0.9046
  289MOL0     H38132  10.019   7.339   7.210  1.8201 -0.9940  3.1804
  289MOL0     H38133  10.060   7.224   7.421 -0.9623  4.6296  0.4705
  289MOL0     H38134  10.267   5.506   6.807  1.4561 -0.0911 -0.5775
  289MOL0     H38135  10.316   5.326   6.982  1.1902  2.3354 -2.5922
  289MOL0     H38136  10.316   5.233   7.441 -1.2596 -0.0375 -1.4783
  289MOL0     H38137  10.366   5.062   7.627  1.8231 -0.4648  0.0546
  289MOL0     H38138  10.204   4.641   7.557  1.2151 -0.8055  1.3296
  289MOL0     H38139  10.282   4.615   7.703 -0.3878  0.5277 -0.3371
  289MOL0     H38140  10.461   4.692   7.462 -0.1714  0.5830  0.4613
  289MOL0     H38141  10.509   4.639   7.613  0.2046 -3.7892  0.5328
  289MOL0     H38142  10.511   4.472   7.414 -1.9942  2.5052 -2.2110
  289MOL0     H38143  10.336   4.470   7.431 -0.1860  0.8057 -0.3093
  289MOL0     H38144  10.397   4.405   7.685  3.8133 -1.7497  2.7516
  289MOL0     H38145  10.407   4.278   7.564 -0.5988 -1.0225  0.6712
  289MOL0     H38146  10.790   4.273   7.718  0.4711  0.3959 -1.8305
  289MOL0     H38147  10.142   4.769   7.401 -0.1261 -0.1916  1.5066
  289MOL0     H38148  10.120   4.928   7.221  0.4900 -3.4070  1.3551
  290MOL0     O38149   8.409   5.563   1.426  0.1381  0.0664  0.3713
  290MOL0     C38150   8.376   5.640   1.337  0.6572 -1.7801 -0.0354
  290MOL0     O38151   8.441   5.741   1.292 -0.6665  0.0090  0.3963
  290MOL0     C38152   8.569   5.783   1.328 -0.3300 -0.4759  0.4225
  290MOL0     C38153   8.641   5.848   1.231  0.3123  0.6994  0.3120
  290MOL0     C38154   8.773   5.878   1.253 -0.8401  0.1349  0.3192
  290MOL0     C38155   8.833   5.865   1.382 -0.0938  0.6280  0.1247
  290MOL0     O38156   8.968   5.896   1.392 -0.1082 -0.7391 -0.2049
  290MOL0     C38157   9.056   5.798   1.463  1.0346 -0.4021 -0.7467
  290MOL0     C38158   9.036   5.664   1.394  0.0316 -0.3853 -0.1002
  290MOL0     C38159   9.136   5.548   1.439  0.9183 -0.8538  0.3563
  290MOL0     C38160   9.133   5.421   1.353 -0.0731  0.0454  0.3165
  290MOL0     C38161   9.223   5.304   1.395 -0.4182  0.3324 -0.8345
  290MOL0     C38162   9.283   5.212   1.286  0.0174 -1.0293  0.4885
  290MOL0     C38163   9.405   5.132   1.339 -0.2258 -0.8770  0.3261
  290MOL0     C38164   9.423   5.013   1.242  0.4856 -0.0094  0.2167
  290MOL0     N38165   9.526   4.916   1.287  0.2439 -0.9653  0.5566
  290MOL0     C38166   9.613   4.927   1.388  0.5769  0.0753  0.8721
  290MOL0     C38167   9.685   4.815   1.395  0.1307 -1.0210 -1.0158
  290MOL0     C38168   9.794   4.776   1.490 -0.3554 -0.5211  0.3992
  290MOL0     C38169   9.922   4.866   1.492 -0.3722  0.0198  0.1808
  290MOL0     C38170   9.896   5.002   1.560  0.1502 -0.0029  0.3688
  290MOL0     C38171  10.020   5.042   1.638 -1.6657 -0.3786 -0.1059
  290MOL0     O38172  10.027   5.182   1.671  0.2019 -0.2759 -0.1809
  290MOL0     C38173  10.136   5.239   1.738  0.6266  0.6120 -0.2042
  290MOL0     C38174  10.273   5.199   1.720 -0.1992  0.2833 -0.2557
  290MOL0     C38175  10.375   5.262   1.800 -0.3784 -0.6081 -0.4369
  290MOL0     C38176  10.333   5.363   1.893  0.4342 -0.3739 -0.0675
  290MOL0     C38177  10.431   5.441   1.975  0.3245  0.0909  0.1095
  290MOL0     O38178  10.556   5.400   1.970  0.7045  0.1486  0.2535
  290MOL0     C38179  10.641   5.459   2.058  0.5678 -0.1685 -1.0568
  290MOL0     C38180  10.636   5.411   2.194  0.2448  0.4757  0.5701
  290MOL0     C38181  10.730   5.460   2.288  1.5125  0.1772  0.1346
  290MOL0     C38182  10.841   5.535   2.242  0.5744 -0.6042  0.0681
  290MOL0     O38183  10.955   5.569   2.313  0.2695  0.0072 -0.1817
  290MOL0     C38184  10.970   5.532   2.457  0.1203 -0.2311  0.2882
  290MOL0     C38185  11.117   5.552   2.489  0.8914  0.0851 -0.1691
  290MOL0     C38186  11.182   5.685   2.468  0.4915 -0.2167 -0.0829
  290MOL0     C38187  11.321   5.710   2.538  0.3293  0.1203 -1.0035
  290MOL0     C38188  11.353   5.864   2.535  1.0994  0.7354 -0.6318
  290MOL0     C38189  11.468   5.899   2.628 -0.5793 -0.0518  0.6063
  290MOL0     C38190  11.473   6.044   2.660  0.9873  0.2989  0.1637
  290MOL0     C38191  11.609   6.093   2.701 -0.1669 -0.3044  0.5287
  290MOL0    Cl38192  11.705   6.097   2.540 -0.0850  0.2550 -0.1996
  290MOL0     C38193  10.839   5.586   2.105  0.6182 -0.2741  0.2703
  290MOL0     C38194  10.732   5.556   2.019  0.3343 -0.0334  0.4476
  290MOL0     O38195  10.399   5.551   2.033  0.2536 -0.1524 -0.2198
  290MOL0     C38196  10.203   5.405   1.892  0.9466  0.2133  0.1912
  290MOL0     C38197  10.105   5.345   1.822 -0.3761 -0.4736 -0.1617
  290MOL0     N38198   9.646   4.740   1.295 -0.3966  1.2347  0.4433
  290MOL0     N38199   9.547   4.791   1.232  0.3558 -1.3506  0.0804
  290MOL0     C38200   8.757   5.814   1.484  0.3313 -0.7559 -0.1317
  290MOL0     C38201   8.633   5.768   1.459  0.6991  0.5094  0.6929
  290MOL0     C38202   8.246   5.601   1.269 -0.4284  0.2704  0.3356
  290MOL0     C38203   8.182   5.702   1.193  0.0300 -0.3147  0.3787
  290MOL0     C38204   8.073   5.669   1.107  0.8458  0.0181  0.1954
  290MOL0     C38205   8.034   5.538   1.087  0.9537  0.1733  0.3664
  290MOL0     O38206   7.925   5.505   1.009  0.9756  0.0529 -0.3694
  290MOL0     C38207   7.943   5.513   0.863  0.1266  0.2717  0.1499
  290MOL0     C38208   7.822   5.453   0.791 -0.0239  0.6683 -0.2613
  290MOL0     C38209   7.840   5.302   0.760 -0.7257 -0.1287  0.0152
  290MOL0     C38210   7.963   5.272   0.668 -0.5232 -0.8947 -0.4204
  290MOL0     C38211   7.975   5.353   0.543 -0.4002 -0.0896 -0.4455
  290MOL0     C38212   7.984   5.404   0.433 -0.0609 -0.8541 -1.1432
  290MOL0     C38213   8.091   5.437   1.173 -0.8388 -0.0070  0.1596
  290MOL0     C38214   8.207   5.467   1.249  1.0262 -0.4355  0.6046
  290MOL0     H38215   8.595   5.885   1.140 -0.8217  1.0542  1.0052
  290MOL0     H38216   8.835   5.923   1.177 -1.1397 -0.7374 -0.4607
  290MOL0     H38217   9.017   5.804   1.566  0.9341  0.2979 -0.8194
  290MOL0     H38218   9.160   5.829   1.471  1.2369 -1.3881  0.8409
  290MOL0     H38219   9.050   5.674   1.286  2.4793 -0.2444  0.1552
  290MOL0     H38220   8.930   5.639   1.401 -0.3850  0.8504 -1.4018
  290MOL0     H38221   9.113   5.522   1.543 -1.6963 -1.2506 -0.2575
  290MOL0     H38222   9.238   5.588   1.444  0.4852  0.4784 -0.8570
  290MOL0     H38223   9.033   5.381   1.364  0.4249 -1.2683  0.2180
  290MOL0     H38224   9.165   5.451   1.252 -3.8239  1.8377 -0.4908
  290MOL0     H38225   9.174   5.238   1.467  2.5615 -0.4649  0.6223
  290MOL0     H38226   9.308   5.347   1.447 -0.8465 -1.5607  1.6189
  290MOL0     H38227   9.315   5.274   1.202  2.9988 -1.6860  1.0203
  290MOL0     H38228   9.205   5.147   1.245 -0.7261  1.1393 -1.7872
  290MOL0     H38229   9.502   5.183   1.347  1.6154 -4.0080 -0.4552
  290MOL0     H38230   9.369   5.103   1.438  2.0702 -2.0717  0.8929
  290MOL0     H38231   9.462   5.049   1.147  5.1495 -2.8625  0.7495
  290MOL0     H38232   9.331   4.954   1.233  0.8671 -0.4188 -1.1742
  290MOL0     H38233   9.627   5.013   1.454 -2.4589  1.9515 -0.6906
  290MOL0     H38234   9.821   4.671   1.478  0.4287 -0.1631 -1.4997
  290MOL0     H38235   9.755   4.780   1.592  2.5999  0.4250  1.6053
  290MOL0     H38236   9.953   4.878   1.387  0.7385 -1.7185  0.2631
  290MOL0     H38237   9.998   4.803   1.539 -0.6027 -0.2958  0.1330
  290MOL0     H38238   9.858   5.080   1.494  3.7157  0.4464 -1.4333
  290MOL0     H38239   9.822   4.991   1.639  1.0221  2.0150  1.5380
  290MOL0     H38240  10.113   5.005   1.593 -0.7687 -0.2953  1.5827
  290MOL0     H38241  10.017   4.989   1.734 -0.3161 -0.4344 -0.0832
  290MOL0     H38242  10.305   5.122   1.650 -2.8695 -1.6939  0.5516
  290MOL0     H38243  10.478   5.238   1.780 -0.9348 -0.8681 -3.4076
  290MOL0     H38244  10.566   5.334   2.225  0.4195 -0.1237 -0.4704
  290MOL0     H38245  10.722   5.433   2.393  1.6135  1.4103  0.4727
  290MOL0     H38246  10.949   5.426   2.474 -1.9407 -0.2190 -1.6932
  290MOL0     H38247  10.901   5.600   2.507  1.6667  1.6265  0.0052
  290MOL0     H38248  11.176   5.479   2.432  0.8191 -1.8417  2.0701
  290MOL0     H38249  11.128   5.523   2.594 -2.9424  0.6229  0.5197
  290MOL0     H38250  11.104   5.758   2.492  0.4843 -0.1589 -0.2755
  290MOL0     H38251  11.196   5.695   2.360  1.6167  0.6942  0.1261
  290MOL0     H38252  11.320   5.675   2.641  4.0353 -1.4878 -1.3580
  290MOL0     H38253  11.394   5.658   2.475  1.2867  0.9623 -0.6156
  290MOL0     H38254  11.256   5.904   2.567  0.6361 -2.7349  3.1539
  290MOL0     H38255  11.379   5.896   2.434  1.6456  3.4227  0.2747
  290MOL0     H38256  11.564   5.866   2.587 -1.4360 -1.4002 -0.3869
  290MOL0     H38257  11.476   5.836   2.717 -1.9420  1.1465  1.6143
  290MOL0     H38258  11.441   6.100   2.572  1.5685  0.8902  0.3238
  290MOL0     H38259  11.400   6.061   2.740 -1.3717  0.5075 -1.9202
  290MOL0     H38260  11.649   6.029   2.780 -0.4627 -2.6182 -1.1282
  290MOL0     H38261  11.612   6.198   2.735  0.1217 -0.5508  1.2966
  290MOL0     H38262  10.909   5.662   2.072  0.5420 -0.2993  0.0454
  290MOL0     H38263  10.722   5.620   1.931  1.1209  3.2371  2.5536
  290MOL0     H38264  10.170   5.484   1.959 -0.0707 -0.2794  0.3004
  290MOL0     H38265  10.000   5.371   1.829 -0.3389  0.3623 -1.9904
  290MOL0     H38266   8.791   5.804   1.587  0.3463  1.7039  0.1729
  290MOL0     H38267   8.579   5.740   1.549  0.5123  3.2381  1.5069
  290MOL0     H38268   8.201   5.808   1.201 -3.6860  0.4427  1.1558
  290MOL0     H38269   8.024   5.744   1.047  1.8761  1.3522  0.9621
  290MOL0     H38270   8.041   5.481   0.826  1.8873  5.1451 -0.1466
  290MOL0     H38271   7.955   5.621   0.849 -1.0209  0.7313  2.1899
  290MOL0     H38272   7.733   5.480   0.849 -1.1671  1.5429 -2.3019
  290MOL0     H38273   7.799   5.499   0.695 -2.4759  3.2199  1.3993
  290MOL0     H38274   7.748   5.271   0.709 -1.6298  0.0585  1.4742
  290MOL0     H38275   7.853   5.251   0.857  0.2114  0.5735  0.2734
  290MOL0     H38276   8.056   5.292   0.720 -1.2862  0.4015  0.4847
  290MOL0     H38277   7.959   5.166   0.638  0.0912 -0.5444 -1.8262
  290MOL0     H38278   8.017   5.447   0.341  4.9051 -2.4842 -0.4277
  290MOL0     H38279   8.052   5.336   1.166 -1.1648  0.1805 -0.8466
  290MOL0     H38280   8.261   5.390   1.304  0.5973 -1.3925 -0.2882
  291MOL0     O38281   4.505   3.033   7.441 -0.0104 -0.1563  0.2336
  291MOL0     C38282   4.616   2.994   7.402 -0.6822 -0.8648 -0.0863
  291MOL0     O38283   4.637   2.900   7.308  0.3735  0.8179 -0.3045
  291MOL0     C38284   4.537   2.860   7.227 -0.8141  0.2869  0.6429
  291MOL0     C38285   4.534   2.722   7.207 -0.2216  0.4792 -0.0498
  291MOL0     C38286   4.427   2.668   7.128  0.5825  0.4905  0.3493
  291MOL0     C38287   4.327   2.747   7.073 -0.5110  0.7581 -0.0170
  291MOL0     O38288   4.232   2.682   7.006 -0.0361 -0.3488 -0.0474
  291MOL0     C38289   4.123   2.754   6.952  0.3860  0.4946 -1.2303
  291MOL0     C38290   4.032   2.646   6.900  0.4925 -0.1832 -0.5767
  291MOL0     C38291   3.902   2.689   6.853  0.2088 -0.3533 -0.4293
  291MOL0     C38292   3.899   2.749   6.710 -1.7991  0.3046  0.1021
  291MOL0     C38293   3.760   2.786   6.684 -0.1918 -0.3400  0.6608
  291MOL0     C38294   3.759   2.857   6.538 -0.0133  0.0473  0.0010
  291MOL0     C38295   3.633   2.940   6.530  0.1067  0.0397  0.1553
  291MOL0     C38296   3.637   3.021   6.390  0.6070  0.1730  0.0893
  291MOL0     N38297   3.579   2.953   6.281  0.3709  0.3604  1.1054
  291MOL0     C38298   3.499   3.016   6.185 -0.5729  0.1628  0.7432
  291MOL0     C38299   3.495   2.934   6.075 -0.0060  0.3536 -0.2125
  291MOL0     C38300   3.433   2.945   5.934 -0.1741 -0.1007  0.4561
  291MOL0     C38301   3.276   2.953   5.943 -1.2858 -0.3366  0.6232
  291MOL0     C38302   3.225   2.938   5.799  1.4687 -0.7372 -0.0979
  291MOL0     C38303   3.074   2.936   5.796  0.2940 -0.1833  0.1381
  291MOL0     O38304   3.032   2.810   5.848  0.0259  0.3533  0.4567
  291MOL0     C38305   2.901   2.763   5.848 -0.6263  0.0665  0.5332
  291MOL0     C38306   2.791   2.827   5.780  0.8302  0.0284 -0.2012
  291MOL0     C38307   2.666   2.762   5.776 -0.4470 -1.1055 -0.5304
  291MOL0     C38308   2.647   2.643   5.842 -0.4129 -0.4095  0.4492
  291MOL0     C38309   2.506   2.586   5.842 -0.7354  0.2758 -0.0649
  291MOL0     O38310   2.403   2.654   5.790  0.8281 -0.3867 -0.0577
  291MOL0     C38311   2.278   2.592   5.787 -0.0821  0.3768 -0.1367
  291MOL0     C38312   2.179   2.629   5.878 -0.5728  0.1377 -0.1187
  291MOL0     C38313   2.060   2.553   5.875 -0.7059  0.3163 -0.2951
  291MOL0     C38314   2.033   2.448   5.779  0.4826  0.1077  0.3144
  291MOL0     O38315   1.916   2.382   5.759  0.4642  0.5239 -0.6904
  291MOL0     C38316   1.792   2.457   5.771  0.5583 -0.2681 -0.8446
  291MOL0     C38317   1.670   2.369   5.757  1.2219  0.4215 -0.3076
  291MOL0     C38318   1.536   2.449   5.754 -0.8431 -0.5740 -0.5698
  291MOL0     C38319   1.413   2.357   5.732  0.6775 -0.2284  0.6580
  291MOL0     C38320   1.287   2.444   5.729  0.2190  0.1727 -0.2283
  291MOL0     C38321   1.160   2.366   5.731  0.5757 -0.5850  0.2060
  291MOL0     C38322   1.037   2.459   5.708 -0.2605  0.6052 -0.0302
  291MOL0     C38323   0.912   2.373   5.709 -0.6883 -0.0938 -0.5067
  291MOL0    Cl38324   0.784   2.489   5.657 -0.4108 -0.1011  0.3888
  291MOL0     C38325   2.143   2.420   5.698  0.9638 -0.0663  0.3577
  291MOL0     C38326   2.264   2.488   5.699 -0.2869  0.5004  0.1027
  291MOL0     O38327   2.497   2.473   5.891 -0.4219 -0.0079  0.2025
  291MOL0     C38328   2.754   2.583   5.922  0.7267  0.0245  0.0564
  291MOL0     C38329   2.881   2.644   5.913  0.2100  0.4973 -1.3910
  291MOL0     N38330   3.575   2.825   6.109 -0.5068 -0.9554 -0.4596
  291MOL0     N38331   3.599   2.824   6.240 -0.2074 -0.2084 -0.2408
  291MOL0     C38332   4.330   2.884   7.093  0.2071 -0.3200 -0.4587
  291MOL0     C38333   4.439   2.941   7.160  0.4570  0.4795 -0.0386
  291MOL0     C38334   4.729   3.049   7.475  0.0885 -0.1238  0.4620
  291MOL0     C38335   4.864   3.002   7.450 -0.0871  0.0370 -0.4219
  291MOL0     C38336   4.959   3.041   7.532 -0.2294 -0.4317 -0.1462
  291MOL0     C38337   4.944   3.134   7.631 -0.3221  1.6809 -0.2969
  291MOL0     O38338   5.063   3.171   7.708 -0.4803  0.9402  0.3449
  291MOL0     C38339   5.045   3.271   7.810 -0.0106  0.3510 -0.0108
  291MOL0     C38340   5.167   3.272   7.904 -0.2586 -0.9109  0.6765
  291MOL0     C38341   5.262   3.384   7.872 -0.9040 -0.0057  0.6905
  291MOL0     C38342   5.219   3.511   7.935  0.4902 -1.0726  0.2530
  291MOL0     C38343   5.329   3.604   7.962  0.1040 -0.2244 -0.1621
  291MOL0     C38344   5.413   3.690   7.992 -0.2042  0.8324 -0.3874
  291MOL0     C38345   4.816   3.177   7.659  0.7317  0.9212 -0.1518
  291MOL0     C38346   4.705   3.131   7.587 -0.2037 -0.3487  0.1775
  291MOL0     H38347   4.617   2.670   7.253  0.4718 -0.2022 -1.9476
  291MOL0     H38348   4.422   2.561   7.110 -1.4045  0.5739  0.1522
  291MOL0     H38349   4.149   2.816   6.866 -2.8502  2.4439 -0.9596
  291MOL0     H38350   4.065   2.802   7.030  2.5865 -3.1227  3.1154
  291MOL0     H38351   4.010   2.575   6.981 -0.4291  1.2329  0.4759
  291MOL0     H38352   4.078   2.580   6.827 -2.0291 -1.0366 -1.4941
  291MOL0     H38353   3.862   2.761   6.926  1.7298  0.1333 -0.0227
  291MOL0     H38354   3.834   2.604   6.862 -2.1113  1.3453 -0.8562
  291MOL0     H38355   3.974   2.828   6.705  4.2601 -4.5942  0.8492
  291MOL0     H38356   3.937   2.681   6.633  2.5374  0.0079  2.2170
  291MOL0     H38357   3.723   2.858   6.757  2.2656  2.5581 -0.7372
  291MOL0     H38358   3.696   2.698   6.678  0.6355 -0.8797 -2.9328
  291MOL0     H38359   3.761   2.768   6.474  1.0470 -1.8003  2.4849
  291MOL0     H38360   3.847   2.921   6.525 -1.8252  3.1543  1.7782
  291MOL0     H38361   3.544   2.878   6.533 -0.4128  0.7816  0.2728
  291MOL0     H38362   3.622   3.015   6.609 -0.5537  2.6295 -2.2159
  291MOL0     H38363   3.738   3.053   6.364 -0.0124  0.4818 -2.1081
  291MOL0     H38364   3.573   3.106   6.416 -0.7719 -1.4295  2.3295
  291MOL0     H38365   3.463   3.118   6.187  0.3374  0.6178 -1.7897
  291MOL0     H38366   3.456   2.853   5.880 -0.4595  0.4891 -0.7008
  291MOL0     H38367   3.473   3.030   5.878  0.2008 -0.5642  0.0190
  291MOL0     H38368   3.247   3.051   5.981 -0.2691 -0.7709  2.6338
  291MOL0     H38369   3.239   2.872   6.008  0.2935 -0.2503  1.6914
  291MOL0     H38370   3.266   3.019   5.738  2.3822 -0.8269  0.3826
  291MOL0     H38371   3.254   2.849   5.742 -0.5680 -0.0534 -2.3947
  291MOL0     H38372   3.041   2.953   5.693  0.7175 -0.7417 -0.0924
  291MOL0     H38373   3.038   3.017   5.860  2.8371  0.7735  0.4677
  291MOL0     H38374   2.800   2.923   5.729 -1.6830  0.7210  0.5066
  291MOL0     H38375   2.598   2.806   5.704  0.6135  1.0798 -0.2888
  291MOL0     H38376   2.193   2.710   5.949 -1.6594 -0.3602  0.7005
  291MOL0     H38377   1.978   2.572   5.944  0.4485 -2.0249  1.8797
  291MOL0     H38378   1.773   2.529   5.691  1.3052  0.9989  0.0765
  291MOL0     H38379   1.788   2.526   5.856  2.7196 -0.1507 -0.7970
  291MOL0     H38380   1.676   2.306   5.846  1.8667 -0.7023 -1.1157
  291MOL0     H38381   1.681   2.299   5.673 -0.6706 -1.1818  0.6890
  291MOL0     H38382   1.545   2.520   5.672  0.7669 -1.8897 -1.5903
  291MOL0     H38383   1.523   2.511   5.844 -0.5404 -1.0510 -0.1942
  291MOL0     H38384   1.423   2.298   5.641 -0.1834  0.1257  0.3244
  291MOL0     H38385   1.400   2.295   5.822 -2.1115  0.5212  0.8651
  291MOL0     H38386   1.299   2.488   5.629  1.2178 -0.0349 -0.2004
  291MOL0     H38387   1.270   2.521   5.805 -2.1056 -1.7632  1.3949
  291MOL0     H38388   1.148   2.302   5.819 -2.0711  1.0421  1.1513
  291MOL0     H38389   1.175   2.308   5.640  1.9551 -1.9538  1.2577
  291MOL0     H38390   1.021   2.537   5.784 -0.8266 -1.1172  1.7070
  291MOL0     H38391   1.046   2.510   5.612  0.9989  0.8836  0.2236
  291MOL0     H38392   0.897   2.326   5.806 -0.9619 -1.3908 -1.1510
  291MOL0     H38393   0.937   2.288   5.645  2.8922 -0.4186  1.1006
  291MOL0     H38394   2.124   2.337   5.630  0.6278 -0.9215  1.4542
  291MOL0     H38395   2.341   2.461   5.628  0.4236  2.1953  0.1851
  291MOL0     H38396   2.732   2.495   5.982 -1.0727  1.2769  1.3204
  291MOL0     H38397   2.968   2.604   5.964 -0.3160 -1.0399 -1.6387
  291MOL0     H38398   4.244   2.940   7.058 -2.0574 -1.5481  2.6661
  291MOL0     H38399   4.446   3.048   7.177 -0.3521  0.8653 -1.8834
  291MOL0     H38400   4.893   2.932   7.373  1.7590  0.0447  0.2158
  291MOL0     H38401   5.060   3.024   7.496 -0.7640 -0.0315 -1.9368
  291MOL0     H38402   4.964   3.249   7.881 -0.7323  2.7594  0.0093
  291MOL0     H38403   5.033   3.365   7.756  2.3834 -1.1490 -3.4979
  291MOL0     H38404   5.125   3.287   8.004  0.6085  4.9811  0.4613
  291MOL0     H38405   5.218   3.175   7.900  0.7762 -0.3668  0.2789
  291MOL0     H38406   5.284   3.387   7.765  2.2068 -1.4324  1.1625
  291MOL0     H38407   5.358   3.348   7.910  1.7479  3.2254 -2.2339
  291MOL0     H38408   5.157   3.554   7.856  0.9876  0.5938  0.7395
  291MOL0     H38409   5.151   3.505   8.020 -0.2967  0.0487 -0.2769
  291MOL0     H38410   5.478   3.767   8.027 -0.8569  0.9095  0.6958
  291MOL0     H38411   4.787   3.243   7.740 -0.5123 -1.4643  1.4757
  291MOL0     H38412   4.605   3.170   7.604 -0.2866  0.3801 -1.7034
  292MOL0     O38413   2.353   3.367   7.466  0.7322 -0.0530  0.4058
  292MOL0     C38414   2.390   3.254   7.497  0.2451 -0.1731 -0.8824
  292MOL0     O38415   2.510   3.218   7.544 -0.0269  0.4255 -0.1483
  292MOL0     C38416   2.608   3.308   7.537 -0.1979  0.2942  0.0486
  292MOL0     C38417   2.606   3.428   7.608 -0.0954  0.2936 -0.4010
  292MOL0     C38418   2.714   3.502   7.591 -0.8196  0.2076 -1.0383
  292MOL0     C38419   2.821   3.467   7.517 -1.7236 -0.2157 -0.8315
  292MOL0     O38420   2.936   3.551   7.512  0.4683  1.4535 -0.0957
  292MOL0     C38421   2.959   3.623   7.395  0.6601  0.8896 -0.1089
  292MOL0     C38422   3.107   3.669   7.398  0.3343  0.5789 -0.2498
  292MOL0     C38423   3.142   3.782   7.491 -0.5069  0.2380  0.3994
  292MOL0     C38424   3.289   3.796   7.533  0.2398 -0.5049 -0.5123
  292MOL0     C38425   3.376   3.832   7.415  0.4107 -1.0177  0.4559
  292MOL0     C38426   3.497   3.907   7.467 -1.3926  0.5928 -0.5791
  292MOL0     C38427   3.575   3.970   7.355 -0.1100 -0.8809 -0.5703
  292MOL0     C38428   3.687   4.068   7.394  0.5999 -0.1151  0.2781
  292MOL0     N38429   3.632   4.170   7.488 -0.0689  0.6309 -0.0640
  292MOL0     C38430   3.545   4.273   7.453  0.5471  0.2848 -0.2437
  292MOL0     C38431   3.533   4.344   7.567  0.2222 -0.1145  0.8894
  292MOL0     C38432   3.433   4.465   7.578 -0.2140  1.0567 -0.7134
  292MOL0     C38433   3.309   4.441   7.494 -0.5462 -0.3692  0.2616
  292MOL0     C38434   3.192   4.543   7.524 -0.3238  0.0083  0.1641
  292MOL0     C38435   3.224   4.690   7.490  0.9187 -0.0059  0.5455
  292MOL0     O38436   3.095   4.754   7.520  0.2499 -0.1842  0.4853
  292MOL0     C38437   3.002   4.770   7.415 -0.8576 -0.3964  0.3706
  292MOL0     C38438   2.917   4.873   7.440  0.3805  0.1404  0.0050
  292MOL0     C38439   2.805   4.894   7.356  0.2752 -0.1158  0.5287
  292MOL0     C38440   2.783   4.814   7.239  0.4724  0.2681 -1.1855
  292MOL0     C38441   2.664   4.823   7.152 -0.4098  0.2667 -0.2043
  292MOL0     O38442   2.567   4.913   7.194 -0.4830  0.5336 -0.0150
  292MOL0     C38443   2.453   4.937   7.113 -0.0381  0.1999  0.6791
  292MOL0     C38444   2.454   4.905   6.970  1.0909  0.3398  0.4302
  292MOL0     C38445   2.342   4.934   6.901  0.4850  0.3925 -0.1672
  292MOL0     C38446   2.227   4.991   6.955  0.2790  0.8230 -0.4725
  292MOL0     O38447   2.120   5.016   6.871 -1.1216  0.2198  0.2664
  292MOL0     C38448   1.997   4.980   6.924 -0.9353 -0.4147  0.5235
  292MOL0     C38449   1.891   4.961   6.824 -0.9050  0.1342  1.0432
  292MOL0     C38450   1.881   5.086   6.731  0.4592  0.0627  0.6850
  292MOL0     C38451   1.772   5.076   6.626  1.2016  0.2653 -0.0539
  292MOL0     C38452   1.634   5.113   6.688  0.1074  0.5025 -0.2625
  292MOL0     C38453   1.576   4.998   6.771  0.1187  0.3934  0.9854
  292MOL0     C38454   1.422   5.001   6.791  0.1051 -0.4700  0.2818
  292MOL0     C38455   1.372   4.865   6.855  0.2832  0.4489 -1.3832
  292MOL0    Cl38456   1.457   4.831   7.017  0.7493  0.0276 -0.4888
  292MOL0     C38457   2.224   5.019   7.092 -0.3622 -0.9882 -0.3050
  292MOL0     C38458   2.340   4.998   7.164 -0.3591  0.2016 -0.3408
  292MOL0     O38459   2.654   4.751   7.057  0.7574 -0.1277 -0.8096
  292MOL0     C38460   2.883   4.710   7.217 -0.3422  1.1136 -0.2853
  292MOL0     C38461   2.997   4.691   7.299 -0.6758 -0.3044  0.2394
  292MOL0     N38462   3.628   4.295   7.653  0.1358  0.1610  0.5654
  292MOL0     N38463   3.675   4.181   7.614 -1.2163  0.1425 -0.1476
  292MOL0     C38464   2.817   3.351   7.437  0.1768 -0.1477 -0.5739
  292MOL0     C38465   2.707   3.275   7.443 -0.3034  0.1206 -0.1539
  292MOL0     C38466   2.306   3.137   7.487  0.2226 -0.2492 -0.2221
  292MOL0     C38467   2.174   3.160   7.452  0.5779 -0.1003  0.4151
  292MOL0     C38468   2.088   3.055   7.424  0.5963 -0.3981  0.7901
  292MOL0     C38469   2.129   2.919   7.424  1.1275 -0.0911 -0.1780
  292MOL0     O38470   2.053   2.821   7.375  0.0834  0.0206 -1.0097
  292MOL0     C38471   2.110   2.718   7.302  0.3533 -0.1841 -0.3428
  292MOL0     C38472   2.148   2.757   7.160  0.3111 -0.8996  0.6554
  292MOL0     C38473   2.068   2.873   7.096 -1.0056  0.2762  0.0048
  292MOL0     C38474   2.109   2.881   6.939 -0.4607 -0.1895 -0.2577
  292MOL0     C38475   2.017   2.965   6.864 -0.4127 -0.7402  0.0668
  292MOL0     C38476   1.930   3.034   6.811  1.0761  0.6398 -0.5676
  292MOL0     C38477   2.265   2.896   7.466 -0.5105 -0.6963  0.2281
  292MOL0     C38478   2.355   3.005   7.498  0.2437  0.5176 -0.4670
  292MOL0     H38479   2.528   3.443   7.682 -0.5429  2.3297 -1.2287
  292MOL0     H38480   2.726   3.594   7.648 -0.6135 -0.1211 -0.5493
  292MOL0     H38481   2.902   3.716   7.386 -1.0062  0.1204  1.8061
  292MOL0     H38482   2.951   3.556   7.309 -1.2511 -2.2713  2.3105
  292MOL0     H38483   3.121   3.700   7.294  1.1385 -2.7264 -1.2470
  292MOL0     H38484   3.179   3.593   7.431  2.3419  2.9631  1.2810
  292MOL0     H38485   3.087   3.760   7.583  1.0765 -0.5076  1.2069
  292MOL0     H38486   3.116   3.876   7.440  2.1638  1.4123  1.0586
  292MOL0     H38487   3.310   3.865   7.616 -2.6558 -0.5221  0.3632
  292MOL0     H38488   3.324   3.698   7.567 -1.6902 -0.9484  0.3866
  292MOL0     H38489   3.326   3.902   7.347 -2.0115 -0.8174  2.3013
  292MOL0     H38490   3.402   3.745   7.355 -0.5405 -0.4903 -0.7724
  292MOL0     H38491   3.569   3.843   7.519  0.7600  2.8544 -0.5662
  292MOL0     H38492   3.469   3.982   7.541 -3.8824 -0.9483  0.1527
  292MOL0     H38493   3.613   3.893   7.287 -1.4646 -2.0951 -0.0044
  292MOL0     H38494   3.506   4.027   7.292 -0.8225  0.0804  1.0143
  292MOL0     H38495   3.724   4.121   7.305 -2.8579  0.0676 -1.2369
  292MOL0     H38496   3.773   4.019   7.440  2.8557  0.5574 -2.8810
  292MOL0     H38497   3.497   4.285   7.356  0.0490  1.3694  0.1323
  292MOL0     H38498   3.472   4.567   7.569 -1.3314  2.1714  4.1415
  292MOL0     H38499   3.404   4.471   7.683 -2.0568  0.6471 -1.1670
  292MOL0     H38500   3.274   4.338   7.508 -0.4738  0.0407  4.8709
  292MOL0     H38501   3.334   4.445   7.387  0.8357 -0.1548  0.5743
  292MOL0     H38502   3.105   4.506   7.470 -0.2994  1.0152 -0.5983
  292MOL0     H38503   3.176   4.530   7.631  2.9926  0.3512  0.8235
  292MOL0     H38504   3.260   4.717   7.391 -2.6883  0.1942 -0.8633
  292MOL0     H38505   3.296   4.721   7.566 -0.1679  2.7413  0.5806
  292MOL0     H38506   2.931   4.931   7.530 -0.5196  0.4798 -0.0587
  292MOL0     H38507   2.749   4.987   7.361  2.2788  1.1969 -0.2118
  292MOL0     H38508   2.535   4.870   6.907 -0.4638  1.4694 -2.3928
  292MOL0     H38509   2.331   4.909   6.796 -1.6070  0.7756 -0.0866
  292MOL0     H38510   1.965   5.066   6.984 -2.2800 -0.7107  0.2588
  292MOL0     H38511   2.003   4.891   6.987 -1.5447 -0.0693  1.0905
  292MOL0     H38512   1.797   4.942   6.876 -0.6885 -1.0768  1.0157
  292MOL0     H38513   1.916   4.867   6.774 -1.8400 -1.4099  3.3153
  292MOL0     H38514   1.969   5.113   6.673  0.5547 -2.0330 -0.2223
  292MOL0     H38515   1.862   5.181   6.782 -0.7060  0.6596 -0.7651
  292MOL0     H38516   1.784   5.140   6.538 -2.0847 -0.6952 -1.3727
  292MOL0     H38517   1.770   4.970   6.599 -1.1955  0.2406  0.0241
  292MOL0     H38518   1.558   5.136   6.613 -3.6093  0.1342  3.0614
  292MOL0     H38519   1.645   5.202   6.751  2.9369 -1.9873  3.1601
  292MOL0     H38520   1.619   4.992   6.871  1.9568  0.0801  0.2325
  292MOL0     H38521   1.604   4.904   6.722 -5.0690  0.6124 -3.2167
  292MOL0     H38522   1.387   5.096   6.831  1.7600  0.3631 -0.1809
  292MOL0     H38523   1.380   5.001   6.689 -1.7938  1.7348  0.9881
  292MOL0     H38524   1.399   4.778   6.795  4.2346 -0.7507  1.6607
  292MOL0     H38525   1.263   4.865   6.867  0.3692 -2.4120  0.7805
  292MOL0     H38526   2.130   5.050   7.138 -1.6037 -0.5315 -2.9481
  292MOL0     H38527   2.323   5.014   7.270 -0.0654  2.7649 -0.6062
  292MOL0     H38528   2.857   4.626   7.154 -1.3597  0.3206  1.1169
  292MOL0     H38529   3.076   4.621   7.276  1.4952  1.7628  0.9762
  292MOL0     H38530   2.904   3.351   7.372  1.5538  2.7684  1.0394
  292MOL0     H38531   2.711   3.189   7.378 -1.2801  2.6562 -3.8849
  292MOL0     H38532   2.130   3.258   7.436 -2.7923 -1.6798 -1.0872
  292MOL0     H38533   1.987   3.084   7.396  0.6941  1.2282  1.9511
  292MOL0     H38534   2.038   2.637   7.290 -2.1167  1.7324  0.8354
  292MOL0     H38535   2.203   2.681   7.347  1.8289 -0.0416 -3.0296
  292MOL0     H38536   2.252   2.790   7.157  0.2634 -0.7880 -0.7302
  292MOL0     H38537   2.129   2.664   7.105 -4.0238  1.0228 -1.6861
  292MOL0     H38538   2.091   2.971   7.139  0.7486  0.1450 -0.5231
  292MOL0     H38539   1.962   2.850   7.110 -1.1274  1.7712  1.8410
  292MOL0     H38540   2.209   2.925   6.926 -1.5728  2.1765 -1.4425
  292MOL0     H38541   2.111   2.785   6.886  1.5812  0.5007 -1.5758
  292MOL0     H38542   1.838   3.081   6.781 -0.8423 -3.3475 -1.5643
  292MOL0     H38543   2.311   2.798   7.470  0.0341 -0.3975  2.4744
  292MOL0     H38544   2.456   2.981   7.527 -0.7359 -4.9787 -0.6043
  293MOL0     O38545  10.226   4.896   0.328 -0.0151  0.2355 -0.2896
  293MOL0     C38546  10.136   4.978   0.339 -0.0856  0.0326  0.7577
  293MOL0     O38547  10.147   5.110   0.355 -0.0871  0.4713  0.3958
  293MOL0     C38548  10.252   5.191   0.323  0.7679 -1.3106  0.4471
  293MOL0     C38549  10.231   5.326   0.348  0.6493  1.0539 -0.4122
  293MOL0     C38550  10.324   5.424   0.314 -0.0376  1.3597 -0.5645
  293MOL0     C38551  10.440   5.392   0.245  0.0124  0.4010 -0.0509
  293MOL0     O38552  10.529   5.487   0.236  0.1415 -0.9245  0.2364
  293MOL0     C38553  10.612   5.486   0.116 -0.4420  0.0309  0.4757
  293MOL0     C38554  10.745   5.548   0.142  0.9556 -1.0828  0.1958
  293MOL0     C38555  10.731   5.702   0.142 -0.8581  0.1425 -0.4824
  293MOL0     C38556  10.862   5.769   0.192 -0.8460 -0.0188 -0.3094
  293MOL0     C38557  10.977   5.776   0.090  0.4021 -0.1748  1.0282
  293MOL0     C38558  11.100   5.768   0.166 -1.3736  0.1588  0.0758
  293MOL0     C38559  11.218   5.800   0.076  0.1381  0.3014  0.8156
  293MOL0     C38560  11.349   5.802   0.161 -0.1514 -0.4714 -0.0614
  293MOL0     N38561  11.464   5.799   0.069 -0.7501 -0.0934 -0.0214
  293MOL0     C38562  11.516   5.912   0.002 -0.0584  0.0587  0.7082
  293MOL0     C38563  11.621   5.862  -0.062 -0.0618  0.2033  0.7037
  293MOL0     C38564  11.704   5.951  -0.146  0.6692 -0.3131 -0.2812
  293MOL0     C38565  11.633   5.984  -0.282 -0.0310  1.0578  0.7806
  293MOL0     C38566  11.625   6.131  -0.313 -0.4616 -1.2953 -0.1174
  293MOL0     C38567  11.763   6.208  -0.314 -0.6074  0.4762  0.1154
  293MOL0     O38568  11.844   6.189  -0.429  0.0559  0.4568  0.5093
  293MOL0     C38569  11.882   6.307  -0.500 -0.1943  0.2832  0.6725
  293MOL0     C38570  11.902   6.290  -0.638 -0.6069 -0.6246 -0.0067
  293MOL0     C38571  11.949   6.397  -0.714  0.6052  0.3653  0.2109
  293MOL0     C38572  11.969   6.524  -0.665  0.0776  0.7423 -0.3673
  293MOL0     C38573  12.005   6.639  -0.754  0.8573 -0.0723  0.2321
  293MOL0     O38574  12.042   6.754  -0.690  0.7354 -0.6112 -0.9850
  293MOL0     C38575  12.046   6.871  -0.765  0.5563 -0.0256  0.1775
  293MOL0     C38576  12.155   6.956  -0.761  0.5252  0.0021 -0.8037
  293MOL0     C38577  12.143   7.078  -0.815 -0.3518 -0.0417  0.4995
  293MOL0     C38578  12.026   7.122  -0.879  0.2039 -0.7303 -0.1115
  293MOL0     O38579  12.033   7.254  -0.916  0.4043 -0.5469 -0.3423
  293MOL0     C38580  11.925   7.313  -0.993  0.0906 -0.9630  0.4049
  293MOL0     C38581  11.925   7.468  -0.987 -0.0478 -0.1250  0.0482
  293MOL0     C38582  11.800   7.533  -1.049  1.0958 -1.1236 -0.0042
  293MOL0     C38583  11.797   7.680  -1.002 -0.0286  0.2801 -0.5464
  293MOL0     C38584  11.682   7.746  -1.066 -0.6469 -1.3217  0.2648
  293MOL0     C38585  11.726   7.815  -1.204 -1.5814 -0.4575 -0.2343
  293MOL0     C38586  11.605   7.887  -1.257 -0.2245 -0.2310 -0.0220
  293MOL0     C38587  11.642   7.963  -1.384  0.7056  0.7005 -0.0092
  293MOL0    Cl38588  11.672   7.848  -1.516  0.1847 -0.1751 -0.2928
  293MOL0     C38589  11.913   7.043  -0.894 -0.2307  0.1632  0.5239
  293MOL0     C38590  11.927   6.914  -0.835  0.8015  0.2818 -0.6349
  293MOL0     O38591  11.966   6.627  -0.870 -0.3821 -0.5160  0.5447
  293MOL0     C38592  11.957   6.540  -0.526 -0.3182 -0.2864 -0.5261
  293MOL0     C38593  11.919   6.431  -0.447  1.2856  0.1081 -0.0485
  293MOL0     N38594  11.644   5.726  -0.041 -1.0802  0.0469 -0.0888
  293MOL0     N38595  11.547   5.695   0.041  0.3780  0.5010 -0.0510
  293MOL0     C38596  10.470   5.253   0.224  0.4604  0.6915  0.1844
  293MOL0     C38597  10.374   5.153   0.257 -0.3291  0.8079  0.2751
  293MOL0     C38598  10.000   4.922   0.342 -0.5331 -0.1511 -0.9501
  293MOL0     C38599   9.967   4.819   0.254  1.0421  0.5195  0.8611
  293MOL0     C38600   9.834   4.782   0.235  0.4978  0.1836 -0.6681
  293MOL0     C38601   9.742   4.818   0.332 -0.3059 -0.0124 -0.4614
  293MOL0     O38602   9.618   4.766   0.362  0.0849  0.1736 -0.2522
  293MOL0     C38603   9.573   4.645   0.297 -0.0538  1.2557 -0.1170
  293MOL0     C38604   9.420   4.637   0.322 -0.3593  0.5524  0.6007
  293MOL0     C38605   9.348   4.702   0.203 -0.7562  0.1703  0.5346
  293MOL0     C38606   9.205   4.649   0.210 -0.0056  0.5257 -1.0955
  293MOL0     C38607   9.116   4.707   0.106 -0.6489  1.2532  0.4576
  293MOL0     C38608   9.068   4.743   0.007 -0.0673 -0.5419  0.1401
  293MOL0     C38609   9.775   4.924   0.418  0.2985 -0.4596 -0.2312
  293MOL0     C38610   9.898   4.984   0.418 -0.4690 -0.2954 -0.1081
  293MOL0     H38611  10.143   5.346   0.408 -1.1207 -0.0485 -2.5324
  293MOL0     H38612  10.301   5.528   0.334  0.4280  0.7337  4.6584
  293MOL0     H38613  10.570   5.555   0.042 -1.3983  1.5932  2.3809
  293MOL0     H38614  10.629   5.389   0.069  0.0199  0.4136 -0.1576
  293MOL0     H38615  10.813   5.522   0.061  3.0349 -0.9818  1.8115
  293MOL0     H38616  10.784   5.522   0.241  1.9629  0.8167  0.3591
  293MOL0     H38617  10.663   5.740   0.218 -1.6302  1.3403 -1.7125
  293MOL0     H38618  10.697   5.743   0.046 -2.6562  2.3050  0.9852
  293MOL0     H38619  10.829   5.871   0.211 -0.0547 -0.0464  1.3566
  293MOL0     H38620  10.889   5.721   0.286 -0.5790  3.3261  1.4779
  293MOL0     H38621  10.967   5.863   0.024 -3.3323  0.5219  2.2804
  293MOL0     H38622  10.971   5.694   0.017  0.1591  1.9685 -1.5148
  293MOL0     H38623  11.109   5.678   0.228 -3.8128 -0.5020 -0.4273
  293MOL0     H38624  11.088   5.848   0.240  1.3497 -1.2136  2.2143
  293MOL0     H38625  11.229   5.724  -0.001  1.7367  0.9616  0.3524
  293MOL0     H38626  11.212   5.895   0.022 -1.4170  0.3016  0.9524
  293MOL0     H38627  11.357   5.715   0.226 -2.0538 -1.6695 -1.3170
  293MOL0     H38628  11.356   5.890   0.226  4.3307 -1.2411  0.8168
  293MOL0     H38629  11.484   6.015   0.017 -1.5090 -0.4593  1.3926
  293MOL0     H38630  11.806   5.919  -0.167  0.3333 -0.9829 -0.9212
  293MOL0     H38631  11.709   6.047  -0.093  4.1786 -0.5842  0.0972
  293MOL0     H38632  11.535   5.936  -0.274  1.5572 -2.2333  2.2143
  293MOL0     H38633  11.673   5.936  -0.372  1.4767  1.8204  1.0026
  293MOL0     H38634  11.581   6.146  -0.412  2.9154  0.8878 -1.4462
  293MOL0     H38635  11.555   6.172  -0.241 -0.4062 -0.0183 -0.7705
  293MOL0     H38636  11.820   6.177  -0.226 -4.0155 -0.1391  2.2887
  293MOL0     H38637  11.740   6.308  -0.276  0.4251 -0.0983  2.4730
  293MOL0     H38638  11.903   6.192  -0.683 -0.3397 -0.8340  0.4494
  293MOL0     H38639  11.953   6.368  -0.819 -2.2590 -2.7015  0.7771
  293MOL0     H38640  12.243   6.920  -0.708 -1.7676 -2.2776  1.7883
  293MOL0     H38641  12.232   7.140  -0.818 -1.1055  1.0479 -1.3681
  293MOL0     H38642  11.823   7.291  -0.959 -1.6513  2.5807 -1.9146
  293MOL0     H38643  11.937   7.275  -1.095 -0.0213  1.0783 -0.3985
  293MOL0     H38644  12.018   7.516  -1.019  1.2114 -0.4050  3.0073
  293MOL0     H38645  11.920   7.482  -0.879  0.8509  0.9607 -0.0336
  293MOL0     H38646  11.707   7.489  -1.013 -1.2156  0.9908 -2.9303
  293MOL0     H38647  11.800   7.538  -1.158 -1.1038  3.3166 -0.0079
  293MOL0     H38648  11.784   7.661  -0.895 -1.7315 -2.1401 -1.1011
  293MOL0     H38649  11.898   7.719  -1.021  0.6233 -1.0795 -0.0047
  293MOL0     H38650  11.644   7.822  -0.997  2.0444  0.9106 -0.5551
  293MOL0     H38651  11.586   7.701  -1.091 -1.6198  0.4332  0.6906
  293MOL0     H38652  11.753   7.740  -1.279  1.8813  0.9971 -0.6130
  293MOL0     H38653  11.814   7.876  -1.184 -0.9018 -0.8158 -1.9727
  293MOL0     H38654  11.532   7.810  -1.281 -3.2420  2.4199 -0.1307
  293MOL0     H38655  11.557   7.954  -1.185  1.3801  2.4383 -1.2726
  293MOL0     H38656  11.736   8.014  -1.361 -1.6227  4.8463  1.3629
  293MOL0     H38657  11.574   8.044  -1.415 -3.0179 -2.8189 -1.9881
  293MOL0     H38658  11.821   7.069  -0.945 -0.9049 -5.4124 -1.8533
  293MOL0     H38659  11.852   6.837  -0.846  0.7331  0.0320  1.2429
  293MOL0     H38660  11.952   6.640  -0.484  5.7379 -0.0678  0.4847
  293MOL0     H38661  11.893   6.441  -0.343  1.6963  0.8334 -0.0062
  293MOL0     H38662  10.562   5.211   0.186 -1.0958 -3.5466  0.4591
  293MOL0     H38663  10.391   5.048   0.238 -2.4644  0.4688 -0.0057
  293MOL0     H38664  10.048   4.781   0.191 -0.3749  0.8287 -1.2612
  293MOL0     H38665   9.807   4.705   0.163 -3.3289  2.7942 -2.4059
  293MOL0     H38666   9.598   4.554   0.352 -1.3327  0.8404 -0.1888
  293MOL0     H38667   9.595   4.637   0.190  1.6587 -0.0890  0.2855
  293MOL0     H38668   9.398   4.531   0.339  2.0561 -0.0187  0.5533
  293MOL0     H38669   9.401   4.688   0.417 -1.1802 -0.6697  1.1179
  293MOL0     H38670   9.387   4.677   0.103 -0.1502 -0.9331  1.0326
  293MOL0     H38671   9.352   4.811   0.213  0.1102  0.3235 -1.0404
  293MOL0     H38672   9.198   4.540   0.201 -1.6100  0.2710  1.9416
  293MOL0     H38673   9.165   4.693   0.301  0.3369  0.1655 -0.7676
  293MOL0     H38674   9.022   4.781  -0.081  0.3477 -3.9936 -1.7285
  293MOL0     H38675   9.707   4.959   0.496 -0.4650 -2.3476  0.0212
  293MOL0     H38676   9.928   5.071   0.475  4.9408  0.2578 -3.1781
  294MOL0     O38677   1.214   9.739   1.879  0.2128  0.7007  0.3377
  294MOL0     C38678   1.163   9.625   1.868 -0.2518 -0.5710 -0.2873
  294MOL0     O38679   1.240   9.508   1.870  1.1192  1.1561 -0.1180
  294MOL0     C38680   1.371   9.514   1.882 -0.1532  0.0595  0.4314
  294MOL0     C38681   1.444   9.406   1.828  0.3132  0.6011  0.1166
  294MOL0     C38682   1.583   9.393   1.839  0.2552 -0.0477 -0.2583
  294MOL0     C38683   1.646   9.483   1.923  0.4788 -0.6360 -0.8149
  294MOL0     O38684   1.776   9.452   1.947 -0.0398 -0.8773 -0.1148
  294MOL0     C38685   1.846   9.560   2.009  0.3418 -0.5160 -0.2279
  294MOL0     C38686   1.977   9.492   2.048  0.2013  0.2194  0.1368
  294MOL0     C38687   2.091   9.594   2.060  0.1353  0.4730 -0.3284
  294MOL0     C38688   2.186   9.608   1.941 -0.2041  0.4752  1.1367
  294MOL0     C38689   2.260   9.737   1.924  1.0564 -0.2848  0.0456
  294MOL0     C38690   2.393   9.729   2.004  0.1914  0.3446  0.1701
  294MOL0     C38691   2.505   9.828   1.956  0.1506  0.8165  0.4720
  294MOL0     C38692   2.596   9.871   2.069 -0.7771  0.4798 -0.3795
  294MOL0     N38693   2.705   9.768   2.082  0.5211  0.5433 -0.8105
  294MOL0     C38694   2.837   9.785   2.064 -0.3784  0.1065 -0.5248
  294MOL0     C38695   2.892   9.661   2.086 -0.5400 -0.7597 -0.5980
  294MOL0     C38696   3.031   9.610   2.070  0.8066 -0.8633  0.4589
  294MOL0     C38697   3.129   9.700   2.148  0.3831 -0.6166 -0.7234
  294MOL0     C38698   3.262   9.622   2.141 -0.4321  1.2273  0.4886
  294MOL0     C38699   3.336   9.611   2.267 -1.1803 -0.2918  0.2547
  294MOL0     O38700   3.464   9.556   2.234  0.5048  0.3884 -0.5465
  294MOL0     C38701   3.560   9.549   2.335 -0.9413 -0.3665 -0.0487
  294MOL0     C38702   3.548   9.596   2.458  0.6838 -0.1405  0.0593
  294MOL0     C38703   3.645   9.593   2.555 -0.2900  0.5563 -0.5440
  294MOL0     C38704   3.775   9.542   2.528 -0.0418 -0.6894 -0.1546
  294MOL0     C38705   3.880   9.538   2.635  0.1773 -0.2427 -0.4912
  294MOL0     O38706   3.844   9.584   2.762 -0.3031 -0.1600 -0.5904
  294MOL0     C38707   3.938   9.632   2.849 -0.2006  0.2551  0.1035
  294MOL0     C38708   3.930   9.585   2.981 -0.1139  0.6453 -0.4769
  294MOL0     C38709   4.025   9.632   3.071 -0.6907 -0.1698  0.0228
  294MOL0     C38710   4.126   9.723   3.043  0.1348 -0.4623  0.7160
  294MOL0     O38711   4.220   9.781   3.123 -0.2729 -0.2642 -0.5621
  294MOL0     C38712   4.351   9.727   3.122 -0.1329  0.1571  0.1833
  294MOL0     C38713   4.464   9.820   3.174  0.2200  0.7011 -0.3303
  294MOL0     C38714   4.470   9.853   3.321 -0.4276 -0.0788  0.3816
  294MOL0     C38715   4.610   9.901   3.367 -0.1491  0.0494  0.5777
  294MOL0     C38716   4.621   9.971   3.512  1.2715  0.4342 -0.3992
  294MOL0     C38717   4.578   9.866   3.624  0.5707 -0.3496 -0.2789
  294MOL0     C38718   4.438   9.893   3.670  0.8429 -1.2013  0.0793
  294MOL0     C38719   4.371   9.759   3.713  0.1551  0.9751 -0.7641
  294MOL0    Cl38720   4.451   9.702   3.860 -0.5337 -0.2669 -0.1813
  294MOL0     C38721   4.120   9.777   2.916 -1.1779  1.1076  0.6130
  294MOL0     C38722   4.040   9.723   2.819 -0.0093  0.0087 -0.0852
  294MOL0     O38723   3.991   9.536   2.587  0.1295  0.5262 -0.3544
  294MOL0     C38724   3.788   9.483   2.400 -0.7664  0.1217  0.4886
  294MOL0     C38725   3.684   9.489   2.303  0.2476 -1.0702 -0.1817
  294MOL0     N38726   2.794   9.572   2.126  0.4174 -0.0859  0.0890
  294MOL0     N38727   2.678   9.639   2.126  0.2415  0.5903  1.0401
  294MOL0     C38728   1.573   9.593   1.972 -0.9387  0.9811  0.0703
  294MOL0     C38729   1.443   9.608   1.950  0.0138  0.3269 -0.1520
  294MOL0     C38730   1.013   9.611   1.879  0.0244  0.4040  0.3095
  294MOL0     C38731   0.935   9.722   1.857 -0.4835  0.3868  0.0662
  294MOL0     C38732   0.793   9.720   1.844 -0.4661  0.2304  0.4178
  294MOL0     C38733   0.741   9.595   1.839 -0.4789 -0.0347 -0.2642
  294MOL0     O38734   0.611   9.586   1.815  0.5072 -0.8971  0.0298
  294MOL0     C38735   0.565   9.500   1.708 -0.1567 -0.3285  0.2115
  294MOL0     C38736   0.411   9.524   1.694 -0.0054 -0.3433  0.7770
  294MOL0     C38737   0.345   9.477   1.811  0.7145 -0.0234 -0.4353
  294MOL0     C38738   0.193   9.489   1.796 -0.1954 -0.2190 -0.2044
  294MOL0     C38739   0.125   9.408   1.700  0.7217  1.2673  0.3520
  294MOL0     C38740   0.062   9.352   1.613  0.2110  0.3538  0.1666
  294MOL0     C38741   0.817   9.482   1.859 -0.1205  0.3376  0.4691
  294MOL0     C38742   0.949   9.481   1.879  0.5267 -0.3444 -0.2146
  294MOL0     H38743   1.382   9.330   1.782  0.3625  2.2376 -2.8791
  294MOL0     H38744   1.629   9.300   1.805  0.3193 -0.4485  0.8754
  294MOL0     H38745   1.810   9.595   2.107  0.7084  1.2247 -0.6800
  294MOL0     H38746   1.856   9.649   1.946  0.0100 -0.7394 -0.5986
  294MOL0     H38747   2.011   9.416   1.976 -3.3828 -0.7918 -0.7062
  294MOL0     H38748   1.959   9.437   2.141  0.9192 -1.9385 -0.9209
  294MOL0     H38749   2.160   9.568   2.141  2.3981 -0.7164 -2.5004
  294MOL0     H38750   2.049   9.693   2.075 -1.4003 -0.1463 -0.3222
  294MOL0     H38751   2.254   9.523   1.943  1.4568  1.7205  0.4591
  294MOL0     H38752   2.126   9.597   1.850 -0.6606 -2.0894  1.6843
  294MOL0     H38753   2.206   9.827   1.956  0.4563 -0.7585  0.3713
  294MOL0     H38754   2.280   9.750   1.818  0.6159  1.8492  0.1639
  294MOL0     H38755   2.425   9.625   2.002 -2.7692 -0.6560 -1.7873
  294MOL0     H38756   2.362   9.755   2.105 -1.9155 -0.1532 -0.3077
  294MOL0     H38757   2.569   9.776   1.883 -1.4675 -3.9273  2.0606
  294MOL0     H38758   2.459   9.911   1.902  0.0366  0.8203  0.5747
  294MOL0     H38759   2.533   9.876   2.158  0.0179 -1.0361  0.3073
  294MOL0     H38760   2.650   9.964   2.050  0.8918 -0.0469  1.4282
  294MOL0     H38761   2.896   9.876   2.050 -1.3723  0.5608 -1.9434
  294MOL0     H38762   3.070   9.595   1.969  0.8007 -4.3688  0.8407
  294MOL0     H38763   3.030   9.503   2.094  1.8144 -1.5929 -2.4012
  294MOL0     H38764   3.107   9.718   2.254 -3.9763  0.6634 -1.6660
  294MOL0     H38765   3.153   9.796   2.103  2.5049 -0.2613  0.9545
  294MOL0     H38766   3.254   9.517   2.113  3.6229  0.4196  1.7294
  294MOL0     H38767   3.325   9.657   2.058  0.6458  0.1995  0.8407
  294MOL0     H38768   3.290   9.545   2.341  0.4012  0.5367  2.0881
  294MOL0     H38769   3.351   9.710   2.311  2.8056 -1.5068  2.1290
  294MOL0     H38770   3.456   9.650   2.477 -0.8070 -2.4406 -0.2918
  294MOL0     H38771   3.615   9.640   2.648 -1.7285 -1.4529  0.0959
  294MOL0     H38772   3.854   9.526   3.032  0.6088 -0.6003 -0.8030
  294MOL0     H38773   4.035   9.585   3.169  0.9390 -4.1497 -1.8207
  294MOL0     H38774   4.375   9.693   3.021  0.2119  0.3756  0.1900
  294MOL0     H38775   4.346   9.636   3.182 -1.3059 -0.0048 -0.1358
  294MOL0     H38776   4.456   9.910   3.111  1.4579  0.7002 -0.5214
  294MOL0     H38777   4.558   9.768   3.152 -0.1598 -1.2066  2.1089
  294MOL0     H38778   4.451   9.768   3.386  0.4142  1.2991  2.5682
  294MOL0     H38779   4.394   9.928   3.344 -0.5573 -0.6668  1.9734
  294MOL0     H38780   4.678   9.815   3.362  0.8618  0.9123 -1.7398
  294MOL0     H38781   4.645   9.975   3.296  0.8854 -0.6964  0.2842
  294MOL0     H38782   4.563  10.064   3.511  0.8788  0.2567 -3.1201
  294MOL0     H38783   4.725  10.000   3.530  1.2834 -0.1396  0.5216
  294MOL0     H38784   4.648   9.868   3.709 -1.5407  1.6241  1.5481
  294MOL0     H38785   4.581   9.765   3.581 -1.4321  0.0899 -1.5419
  294MOL0     H38786   4.453   9.959   3.756  2.0945 -0.6816 -0.5021
  294MOL0     H38787   4.383   9.945   3.591  1.3403 -2.4092 -1.1046
  294MOL0     H38788   4.379   9.692   3.628 -1.4002 -0.0759 -0.1415
  294MOL0     H38789   4.265   9.764   3.742  0.1033 -2.0028 -0.1379
  294MOL0     H38790   4.190   9.856   2.889  0.0032 -0.8776 -2.8863
  294MOL0     H38791   4.041   9.759   2.717 -2.2534  3.3583  0.9276
  294MOL0     H38792   3.888   9.447   2.379 -1.0861 -0.5776  0.1574
  294MOL0     H38793   3.715   9.439   2.211  1.0587 -0.5000 -0.2370
  294MOL0     H38794   1.609   9.670   2.039  0.9928  0.4541 -0.2922
  294MOL0     H38795   1.408   9.696   2.002 -0.0172  0.8265 -1.0016
  294MOL0     H38796   0.994   9.813   1.864  0.7842 -0.4624  5.3587
  294MOL0     H38797   0.735   9.810   1.830  0.7321  0.9742  0.0366
  294MOL0     H38798   0.584   9.395   1.731 -0.4831 -0.7423 -1.3460
  294MOL0     H38799   0.617   9.535   1.619 -0.0088  1.4310  0.9381
  294MOL0     H38800   0.403   9.632   1.684 -1.2296 -0.3605  1.3499
  294MOL0     H38801   0.376   9.472   1.604 -0.9530 -1.2496  1.6356
  294MOL0     H38802   0.379   9.532   1.900 -1.3888  1.8898 -0.7169
  294MOL0     H38803   0.353   9.369   1.826  0.9415 -0.1543 -1.4731
  294MOL0     H38804   0.154   9.458   1.894 -0.0214 -0.9069 -0.3432
  294MOL0     H38805   0.163   9.592   1.777  1.6816  0.3583 -0.2755
  294MOL0     H38806   0.016   9.323   1.520  0.6793 -0.5268  0.1991
  294MOL0     H38807   0.769   9.386   1.846  1.2378 -0.8385  3.2095
  294MOL0     H38808   1.012   9.393   1.872 -1.3625 -1.5931 -4.6605
  295MOL0     O38809  10.778   9.967   6.003 -0.3764 -0.5651 -0.1338
  295MOL0     C38810  10.842  10.072   6.001 -0.1201  1.0260 -0.1256
  295MOL0     O38811  10.786  10.193   5.988  0.0204 -0.1486 -0.7603
  295MOL0     C38812  10.650  10.204   5.968  0.5641  0.2660  0.2896
  295MOL0     C38813  10.556  10.211   6.071 -0.1224 -0.0934 -0.7481
  295MOL0     C38814  10.420  10.225   6.050 -0.1801 -0.1538 -0.4292
  295MOL0     C38815  10.378  10.246   5.910 -0.7287 -0.2654  0.1466
  295MOL0     O38816  10.249  10.260   5.871 -0.1600 -0.0116 -0.4411
  295MOL0     C38817  10.131  10.235   5.959  0.4886 -0.2324 -0.3872
  295MOL0     C38818  10.005  10.286   5.888  0.7794  0.4731  0.0438
  295MOL0     C38819   9.977  10.183   5.766  0.5680 -0.0954  0.1116
  295MOL0     C38820   9.855  10.240   5.690  0.6598  0.0027  0.1612
  295MOL0     C38821   9.769  10.145   5.606 -0.0080 -0.4885 -0.5461
  295MOL0     C38822   9.854  10.063   5.511  0.2702 -0.5727  0.1084
  295MOL0     C38823   9.772   9.954   5.437  0.1041 -0.4486  0.7207
  295MOL0     C38824   9.671  10.027   5.349 -0.1360 -0.4661 -0.0689
  295MOL0     N38825   9.728  10.114   5.245  0.1663  0.6069  0.8123
  295MOL0     C38826   9.791  10.066   5.133  0.1041 -0.5562  0.4399
  295MOL0     C38827   9.810  10.172   5.056  0.1876  0.2551  0.0798
  295MOL0     C38828   9.857  10.166   4.920  0.1350 -0.9489  0.4274
  295MOL0     C38829  10.001  10.123   4.899 -0.1874  0.7404  0.3266
  295MOL0     C38830  10.037  10.161   4.759  0.5738 -0.6222 -0.6452
  295MOL0     C38831  10.200  10.162   4.745 -0.0474  0.1600  0.2861
  295MOL0     O38832  10.250  10.284   4.780 -0.2965 -0.3482 -0.0760
  295MOL0     C38833  10.387  10.300   4.771  0.6771 -0.4135  0.2725
  295MOL0     C38834  10.437  10.434   4.798 -0.1544  0.0114  0.1602
  295MOL0     C38835  10.571  10.459   4.791 -0.2071 -0.0215  0.7429
  295MOL0     C38836  10.663  10.370   4.755  0.0329  0.9220  0.6816
  295MOL0     C38837  10.814  10.397   4.747  0.1826  0.5241  0.8552
  295MOL0     O38838  10.894  10.281   4.717 -0.1733  0.0840  0.3844
  295MOL0     C38839  11.034  10.298   4.709 -0.0238 -0.1394  0.1602
  295MOL0     C38840  11.108  10.410   4.657 -1.0071 -1.0746 -0.3379
  295MOL0     C38841  11.245  10.406   4.665  0.9479 -0.3291 -0.5402
  295MOL0     C38842  11.309  10.300   4.715  0.8234  0.3085 -0.9756
  295MOL0     O38843  11.446  10.322   4.729 -0.3718 -0.7520  0.1575
  295MOL0     C38844  11.513  10.232   4.817 -0.2301 -0.6047 -1.8186
  295MOL0     C38845  11.666  10.259   4.788 -0.7545 -0.5035 -0.2786
  295MOL0     C38846  11.758  10.218   4.903  0.7519 -0.0294  0.1193
  295MOL0     C38847  11.895  10.265   4.870  0.1265 -0.3361  0.5002
  295MOL0     C38848  11.988  10.246   4.999  0.8747 -0.6517  0.8819
  295MOL0     C38849  12.135  10.239   4.957 -0.9295  0.0959 -0.2201
  295MOL0     C38850  12.230  10.183   5.065 -0.2510 -0.1534  0.2293
  295MOL0     C38851  12.265  10.289   5.159 -0.4173 -0.5229 -0.7071
  295MOL0    Cl38852  12.362  10.421   5.099 -0.2067  0.3890 -0.9398
  295MOL0     C38853  11.241  10.183   4.759  0.3180 -1.3214  0.3849
  295MOL0     C38854  11.104  10.188   4.752  0.4453  1.0336 -0.5756
  295MOL0     O38855  10.860  10.513   4.763  0.6357  0.4423  0.0568
  295MOL0     C38856  10.619  10.242   4.744  1.3853  0.8827  0.6263
  295MOL0     C38857  10.481  10.205   4.752  0.6263  0.3414  0.9520
  295MOL0     N38858   9.767  10.284   5.121  1.3927 -0.5203  0.1085
  295MOL0     N38859   9.725  10.252   5.237 -0.4312  0.2858  0.5040
  295MOL0     C38860  10.474  10.251   5.806 -0.1628 -0.4301 -0.9179
  295MOL0     C38861  10.610  10.232   5.846  0.6489 -0.0483  0.4548
  295MOL0     C38862  10.993  10.063   6.009  0.1821  0.2190  0.2963
  295MOL0     C38863  11.072  10.180   6.020  0.4416  0.7950  0.1718
  295MOL0     C38864  11.211  10.164   6.029  0.1872  0.3151 -0.2107
  295MOL0     C38865  11.273  10.034   6.037  0.2023  0.3764 -0.0720
  295MOL0     O38866  11.406  10.016   6.060  0.0285 -0.7688  0.7010
  295MOL0     C38867  11.501  10.123   6.029  0.0653  0.0759  0.3549
  295MOL0     C38868  11.628  10.029   5.998 -0.4979 -0.1278 -0.6200
  295MOL0     C38869  11.761  10.107   5.949  0.4608  0.2465 -0.3881
  295MOL0     C38870  11.861  10.029   5.874  0.5388 -0.0121 -0.7441
  295MOL0     C38871  11.988  10.103   5.880 -0.2452  0.4145  0.6392
  295MOL0     C38872  12.092  10.159   5.869 -0.7917  0.1639  0.1224
  295MOL0     C38873  11.191   9.918   6.039  0.0433 -0.1607  0.3765
  295MOL0     C38874  11.052   9.936   6.014 -0.4676  0.8312 -0.6795
  295MOL0     H38875  10.595  10.189   6.170  2.1117 -0.0584 -1.5608
  295MOL0     H38876  10.349  10.220   6.131  0.1528 -2.4088 -0.2076
  295MOL0     H38877  10.124  10.288   6.054 -1.8372 -1.8441  0.4421
  295MOL0     H38878  10.122  10.130   5.987 -1.4421  0.2847  1.2265
  295MOL0     H38879  10.014  10.389   5.853  2.0146  0.1529 -0.6267
  295MOL0     H38880   9.925  10.288   5.963  3.1067 -0.3987  2.7453
  295MOL0     H38881   9.953  10.085   5.807  2.7738 -2.2301 -3.2066
  295MOL0     H38882  10.067  10.171   5.705  0.0918  1.3270 -0.9358
  295MOL0     H38883   9.792  10.299   5.758  0.0048  0.8553 -1.1395
  295MOL0     H38884   9.897  10.320   5.628  2.2809  0.5234  1.8319
  295MOL0     H38885   9.680  10.198   5.570  1.5127  4.5577  2.1493
  295MOL0     H38886   9.730  10.071   5.677 -0.2720  0.9960  0.9283
  295MOL0     H38887   9.929  10.006   5.566 -2.0753 -2.6929  1.3561
  295MOL0     H38888   9.898  10.135   5.441 -0.6248 -1.2201 -1.1801
  295MOL0     H38889   9.839   9.893   5.375  0.9159 -0.8859  1.9902
  295MOL0     H38890   9.725   9.890   5.512 -0.6458  0.4866  1.0744
  295MOL0     H38891   9.585  10.076   5.396 -0.5734 -0.8887 -0.4068
  295MOL0     H38892   9.619   9.950   5.290  1.7412 -0.8892 -1.2685
  295MOL0     H38893   9.807   9.964   5.099  0.8532  0.2968 -2.0021
  295MOL0     H38894   9.836  10.260   4.868  0.5115 -2.1172 -1.9701
  295MOL0     H38895   9.799  10.098   4.857  0.2298 -0.1659 -0.5330
  295MOL0     H38896  10.004  10.016   4.920 -0.9984  1.1507  2.8267
  295MOL0     H38897  10.057  10.177   4.976 -0.8004  1.2802  0.4006
  295MOL0     H38898   9.988  10.094   4.688 -0.3969  1.0548 -1.6216
  295MOL0     H38899  10.014  10.264   4.732  0.7995 -0.4903 -0.3392
  295MOL0     H38900  10.225  10.148   4.639 -2.4527 -0.7768 -0.2117
  295MOL0     H38901  10.242  10.081   4.804 -0.7582  0.3913  1.1371
  295MOL0     H38902  10.374  10.521   4.813 -2.7449 -1.3194 -2.2553
  295MOL0     H38903  10.597  10.564   4.805 -4.1114  1.1043  0.8882
  295MOL0     H38904  11.052  10.494   4.618 -1.1602 -0.6795  0.6954
  295MOL0     H38905  11.302  10.498   4.656 -1.9560  1.5195 -1.4272
  295MOL0     H38906  11.493  10.124   4.810  1.8368 -1.0313 -1.7805
  295MOL0     H38907  11.470  10.263   4.913  0.8349  1.6978 -2.0177
  295MOL0     H38908  11.683  10.366   4.778  4.5950 -1.0601 -0.0427
  295MOL0     H38909  11.704  10.218   4.694  1.3925  4.0260 -1.6437
  295MOL0     H38910  11.759  10.109   4.919 -2.9385  0.0023  1.3472
  295MOL0     H38911  11.720  10.260   4.996  0.4167  0.5841 -0.2956
  295MOL0     H38912  11.937  10.200   4.793  3.3127  0.0462  1.7353
  295MOL0     H38913  11.899  10.371   4.843 -0.9226  0.3499  2.7399
  295MOL0     H38914  11.970  10.149   5.046  1.1045  0.1022  2.6399
  295MOL0     H38915  11.963  10.326   5.070 -3.5977 -0.0735 -1.0357
  295MOL0     H38916  12.169  10.342   4.943  1.0761 -0.6414 -1.2019
  295MOL0     H38917  12.147  10.196   4.857  0.9106  3.2722 -1.4877
  295MOL0     H38918  12.185  10.095   5.112 -0.5216  0.6818  1.5765
  295MOL0     H38919  12.316  10.141   5.011 -1.8124 -5.1982  1.1752
  295MOL0     H38920  12.322  10.230   5.232 -1.1881  1.7831  1.9538
  295MOL0     H38921  12.182  10.323   5.221  1.8181  1.9629  1.1867
  295MOL0     H38922  11.288  10.101   4.813  2.7189 -0.1050  0.2563
  295MOL0     H38923  11.054  10.096   4.777  2.2695  0.6275  1.9682
  295MOL0     H38924  10.690  10.161   4.731 -0.4470 -0.9114  1.2145
  295MOL0     H38925  10.439  10.108   4.727  0.2268  1.3331 -2.7127
  295MOL0     H38926  10.445  10.260   5.702  0.6368 -0.1840 -1.1271
  295MOL0     H38927  10.683  10.220   5.767  0.5164 -0.3524  0.3725
  295MOL0     H38928  11.031  10.280   6.009  3.2407  1.7666 -2.7724
  295MOL0     H38929  11.275  10.251   6.041 -2.4574  2.4844 -0.9373
  295MOL0     H38930  11.529  10.195   6.106 -0.4276  1.1163 -0.3956
  295MOL0     H38931  11.467  10.174   5.938 -0.6975 -0.3335  0.4050
  295MOL0     H38932  11.652   9.966   6.084  0.8250 -1.3802 -1.8647
  295MOL0     H38933  11.603   9.952   5.925 -0.9481 -2.2811  1.6807
  295MOL0     H38934  11.805  10.133   6.046 -1.3536 -1.4070  0.9434
  295MOL0     H38935  11.739  10.199   5.893  4.7424  0.6412 -1.8037
  295MOL0     H38936  11.866   9.928   5.915 -0.7344  0.4065  0.5228
  295MOL0     H38937  11.836  10.036   5.768 -0.6139 -1.6773 -0.6193
  295MOL0     H38938  12.191  10.193   5.848  0.6659 -3.0239  1.0651
  295MOL0     H38939  11.242   9.823   6.048 -1.6694 -1.3386 -1.4426
  295MOL0     H38940  11.000   9.842   6.002  2.3855 -1.1874  1.5703
  296MOL0     O38941   5.267   8.182   3.025 -0.3242  0.3368 -0.1618
  296MOL0     C38942   5.357   8.165   2.941 -0.0740 -0.7036  0.2508
  296MOL0     O38943   5.332   8.109   2.824  0.1833  0.3604  0.5989
  296MOL0     C38944   5.222   8.020   2.798  0.6558 -0.9662 -0.0906
  296MOL0     C38945   5.163   8.014   2.665  0.5794 -0.1998 -0.1421
  296MOL0     C38946   5.052   7.931   2.638 -0.0651 -0.4904  0.0638
  296MOL0     C38947   4.994   7.845   2.742  0.1387  0.5043  0.3679
  296MOL0     O38948   4.874   7.780   2.713  0.2894 -0.3862 -0.0468
  296MOL0     C38949   4.814   7.691   2.807  0.0907  0.6012 -0.2375
  296MOL0     C38950   4.694   7.629   2.738 -0.0786  0.4374 -0.4440
  296MOL0     C38951   4.724   7.531   2.634  0.4608  0.0106  0.2283
  296MOL0     C38952   4.600   7.466   2.587 -0.0645  0.3269  0.3017
  296MOL0     C38953   4.626   7.343   2.499  0.4377  0.2023 -0.4159
  296MOL0     C38954   4.720   7.230   2.555  0.3963  0.3011  0.3830
  296MOL0     C38955   4.677   7.087   2.512  0.4227  1.0072  0.6751
  296MOL0     C38956   4.705   7.055   2.366 -0.5250  1.0229 -0.6566
  296MOL0     N38957   4.844   7.050   2.331 -0.3402  0.3184 -0.3114
  296MOL0     C38958   4.940   6.949   2.346 -0.1387 -0.3971 -0.0518
  296MOL0     C38959   5.051   6.995   2.293  0.4330  0.5431  0.7743
  296MOL0     C38960   5.183   6.925   2.268 -0.6823 -0.5826 -0.3528
  296MOL0     C38961   5.211   6.881   2.128  1.1908 -0.0889  0.4320
  296MOL0     C38962   5.353   6.822   2.121 -0.5486  0.7983  0.5744
  296MOL0     C38963   5.373   6.757   1.980 -0.2125 -0.5593  0.3464
  296MOL0     O38964   5.512   6.771   1.957 -0.3182 -0.2040 -0.6542
  296MOL0     C38965   5.609   6.687   2.012  1.1457  0.4168 -0.0839
  296MOL0     C38966   5.743   6.719   1.989  0.3888 -0.0119  0.8041
  296MOL0     C38967   5.846   6.632   2.028 -0.2021  0.0912 -0.3878
  296MOL0     C38968   5.811   6.503   2.082 -1.1020  0.0023  0.1284
  296MOL0     C38969   5.922   6.411   2.121 -0.8196  0.6031  0.7004
  296MOL0     O38970   5.896   6.309   2.213 -0.6933  0.8371 -0.6916
  296MOL0     C38971   6.014   6.237   2.255  0.2850  0.5533  0.4892
  296MOL0     C38972   6.083   6.280   2.371  0.2899 -0.1298 -0.4519
  296MOL0     C38973   6.188   6.208   2.418  0.5845  0.9202 -0.9190
  296MOL0     C38974   6.220   6.081   2.362  0.4268 -0.2319 -0.4869
  296MOL0     O38975   6.320   6.008   2.401 -0.3563 -0.0721 -0.1247
  296MOL0     C38976   6.314   5.948   2.533 -0.0477  0.0663 -0.9630
  296MOL0     C38977   6.398   5.819   2.530  0.3292 -0.5245 -0.4201
  296MOL0     C38978   6.403   5.771   2.670 -0.4099  0.6374  0.1338
  296MOL0     C38979   6.520   5.681   2.704  1.4873  0.2837 -1.1617
  296MOL0     C38980   6.657   5.749   2.675  0.0175 -0.0067  0.5677
  296MOL0     C38981   6.767   5.724   2.789  0.3025  0.2156  0.8019
  296MOL0     C38982   6.900   5.762   2.738 -0.2169 -0.9002  0.2913
  296MOL0     C38983   6.962   5.885   2.802 -0.1838  0.1624 -0.6778
  296MOL0    Cl38984   6.865   6.029   2.818  0.2483 -0.1683 -0.2816
  296MOL0     C38985   6.157   6.044   2.239 -0.4592 -0.4997 -0.1303
  296MOL0     C38986   6.068   6.126   2.181  0.0289 -0.6079 -0.8706
  296MOL0     O38987   6.031   6.440   2.074 -0.7732  0.1279 -0.4373
  296MOL0     C38988   5.680   6.468   2.104 -0.2751 -0.0095  0.2855
  296MOL0     C38989   5.578   6.559   2.066 -0.4955 -0.0279 -0.2824
  296MOL0     N38990   5.031   7.109   2.230 -0.2762  0.2162  0.1419
  296MOL0     N38991   4.903   7.137   2.247 -0.9588 -0.2549 -0.0497
  296MOL0     C38992   5.058   7.847   2.868  0.1797 -0.5264  0.6110
  296MOL0     C38993   5.163   7.936   2.898 -0.2154 -0.3270 -0.3579
  296MOL0     C38994   5.484   8.235   2.951 -0.4194 -0.0549 -0.5545
  296MOL0     C38995   5.598   8.186   2.887  0.1135 -0.2082  0.6700
  296MOL0     C38996   5.716   8.260   2.896  0.3034  0.9367  0.0814
  296MOL0     C38997   5.734   8.379   2.966  0.5888  0.1938 -0.2711
  296MOL0     O38998   5.851   8.457   2.977 -0.0321  0.7016 -0.3686
  296MOL0     C38999   5.971   8.393   2.939 -0.5399  0.2107  1.5188
  296MOL0     C39000   6.094   8.463   3.003  0.9021  0.9451  0.6430
  296MOL0     C39001   6.072   8.490   3.153  0.4306  0.1413 -0.4026
  296MOL0     C39002   6.001   8.633   3.170  0.3710  0.2972 -0.6875
  296MOL0     C39003   6.001   8.655   3.313  0.1316 -0.0973 -0.6688
  296MOL0     C39004   6.006   8.690   3.428  0.5798  0.1649 -0.2338
  296MOL0     C39005   5.617   8.422   3.040  0.4232 -0.3224 -0.4432
  296MOL0     C39006   5.498   8.350   3.027  0.0014  0.3670  0.8066
  296MOL0     H39007   5.209   8.073   2.586  0.0192  0.0879 -0.2629
  296MOL0     H39008   5.021   7.930   2.534 -2.6488 -0.8097  0.7616
  296MOL0     H39009   4.786   7.738   2.901 -0.5937 -2.1708  1.0397
  296MOL0     H39010   4.888   7.613   2.829  0.5993 -0.2090 -4.0293
  296MOL0     H39011   4.640   7.712   2.692  0.8186  0.4687 -1.4843
  296MOL0     H39012   4.631   7.577   2.811 -1.3148 -1.4258 -2.6845
  296MOL0     H39013   4.789   7.457   2.680  1.1908 -0.0291 -0.8282
  296MOL0     H39014   4.776   7.570   2.546  1.1666  2.0862  1.4850
  296MOL0     H39015   4.550   7.404   2.662  3.1608 -3.7965 -0.5922
  296MOL0     H39016   4.545   7.543   2.531  1.5394  1.5866  0.3930
  296MOL0     H39017   4.669   7.385   2.408 -2.1435  0.4767 -1.5797
  296MOL0     H39018   4.525   7.308   2.478  0.2005  1.0145 -0.6570
  296MOL0     H39019   4.714   7.231   2.664 -0.4586  1.6144  0.3473
  296MOL0     H39020   4.824   7.247   2.524  1.4265  1.0278  3.7998
  296MOL0     H39021   4.736   7.019   2.575 -2.3549  1.0565  3.5220
  296MOL0     H39022   4.573   7.064   2.537 -0.4243  1.9435 -1.6941
  296MOL0     H39023   4.660   7.137   2.309  1.3578  3.5818  1.3386
  296MOL0     H39024   4.655   6.960   2.345  0.3872 -0.2487  2.4178
  296MOL0     H39025   4.925   6.858   2.403  0.7684 -0.0038  0.8589
  296MOL0     H39026   5.177   6.837   2.332  1.2553 -2.2850 -2.3641
  296MOL0     H39027   5.269   6.984   2.302  2.1837 -5.9553  3.0508
  296MOL0     H39028   5.221   6.979   2.079  1.4172  0.0132  0.6778
  296MOL0     H39029   5.128   6.821   2.091  0.0867  1.5289  0.1727
  296MOL0     H39030   5.432   6.894   2.145 -1.2762  2.6744 -2.1099
  296MOL0     H39031   5.368   6.743   2.195  1.6766 -0.2850 -0.9403
  296MOL0     H39032   5.321   6.820   1.907  1.1424  0.0369 -0.1470
  296MOL0     H39033   5.341   6.652   1.974 -0.2285 -0.5656  0.5662
  296MOL0     H39034   5.754   6.818   1.946  0.3509  0.1388  1.1360
  296MOL0     H39035   5.951   6.661   2.020  0.6334 -2.6509 -0.3703
  296MOL0     H39036   6.051   6.369   2.424  0.7172  0.6589 -1.5000
  296MOL0     H39037   6.237   6.247   2.507 -3.3184  0.2815  1.7943
  296MOL0     H39038   6.213   5.924   2.567  0.3803  0.0389  0.3441
  296MOL0     H39039   6.360   6.014   2.607 -1.2817  0.5824 -0.6356
  296MOL0     H39040   6.494   5.845   2.484  1.7141 -1.5949  1.7104
  296MOL0     H39041   6.351   5.743   2.467 -4.0339  0.7370  0.9918
  296MOL0     H39042   6.310   5.721   2.697  0.1134  0.4731  1.7403
  296MOL0     H39043   6.412   5.860   2.734  0.1288  3.4782 -3.5478
  296MOL0     H39044   6.509   5.645   2.807  0.0108 -1.5908 -1.9212
  296MOL0     H39045   6.521   5.587   2.648  4.8877 -0.0751 -0.7058
  296MOL0     H39046   6.640   5.856   2.661  1.4710 -0.2279 -5.2071
  296MOL0     H39047   6.687   5.718   2.575  1.0995  2.7898 -0.0490
  296MOL0     H39048   6.773   5.620   2.823 -2.9060  0.1181  1.3934
  296MOL0     H39049   6.733   5.785   2.874  1.5820  0.8609  0.8798
  296MOL0     H39050   6.967   5.682   2.772  0.1995  0.8805  4.1251
  296MOL0     H39051   6.889   5.769   2.630  0.0411 -1.3323  0.2346
  296MOL0     H39052   7.056   5.908   2.749 -2.1961  0.5752 -4.4516
  296MOL0     H39053   6.999   5.846   2.897 -1.0189 -1.5463 -0.9991
  296MOL0     H39054   6.189   5.961   2.178  1.0076  0.6186 -0.9635
  296MOL0     H39055   6.020   6.100   2.087 -0.9402  2.2940 -1.2685
  296MOL0     H39056   5.656   6.371   2.146  1.4678  0.3408  2.2483
  296MOL0     H39057   5.476   6.526   2.079 -0.9515  1.0089 -1.1393
  296MOL0     H39058   5.027   7.796   2.959  1.1697  0.6894  1.6797
  296MOL0     H39059   5.204   7.938   2.999 -3.4948 -1.4364  1.1147
  296MOL0     H39060   5.577   8.110   2.812  1.1814 -0.0503  0.1972
  296MOL0     H39061   5.795   8.217   2.835 -1.0990  0.4808 -1.4794
  296MOL0     H39062   5.980   8.402   2.830 -2.8252 -2.0889  1.0593
  296MOL0     H39063   5.987   8.287   2.958 -0.3888 -0.6661 -2.6510
  296MOL0     H39064   6.169   8.383   2.997 -1.1102 -0.9532 -1.1654
  296MOL0     H39065   6.122   8.555   2.952 -0.9697  1.2963  0.1659
  296MOL0     H39066   6.172   8.505   3.193  1.3723 -2.1376 -1.6857
  296MOL0     H39067   6.014   8.409   3.200 -0.1929  1.4928  1.2775
  296MOL0     H39068   6.076   8.702   3.130  0.7022 -0.3225 -1.1696
  296MOL0     H39069   5.900   8.637   3.127 -0.6490 -0.0766  1.5444
  296MOL0     H39070   6.011   8.731   3.527  2.6872  2.2088 -1.1136
  296MOL0     H39071   5.622   8.511   3.101 -0.3275  0.2357 -1.1718
  296MOL0     H39072   5.406   8.396   3.060 -1.1344 -0.8759 -0.5305
  297MOL0     O39073   8.480   8.645   8.779  0.1601 -0.0462  0.1865
  297MOL0     C39074   8.382   8.574   8.795  0.4434  0.0348  0.4619
  297MOL0     O39075   8.344   8.479   8.703 -0.9331  0.5932 -0.5626
  297MOL0     C39076   8.421   8.462   8.595 -0.6671  0.8494 -0.3565
  297MOL0     C39077   8.356   8.498   8.475 -0.6543 -0.6220 -0.5796
  297MOL0     C39078   8.423   8.487   8.356  0.0981 -0.6689 -0.1383
  297MOL0     C39079   8.549   8.425   8.354 -0.1330 -0.3968  0.2688
  297MOL0     O39080   8.600   8.391   8.232 -0.7363 -0.0066 -0.1432
  297MOL0     C39081   8.743   8.362   8.220 -0.2877  0.3093  0.6964
  297MOL0     C39082   8.833   8.488   8.217 -0.0190 -0.7593  0.0888
  297MOL0     C39083   8.960   8.479   8.134 -0.0483  0.0733  0.0717
  297MOL0     C39084   9.052   8.364   8.174  0.1137  0.1905  0.7229
  297MOL0     C39085   9.145   8.393   8.287 -0.6768  0.4289 -0.3757
  297MOL0     C39086   9.246   8.288   8.294 -0.4859 -0.5223  0.1751
  297MOL0     C39087   9.180   8.149   8.318  0.0623 -0.1972 -0.2538
  297MOL0     C39088   9.262   8.060   8.410  0.1887  0.7784  0.0755
  297MOL0     N39089   9.238   8.098   8.546  0.0243  0.0110 -0.0776
  297MOL0     C39090   9.325   8.175   8.625 -0.1462  0.2258 -0.2917
  297MOL0     C39091   9.257   8.207   8.735  0.6521 -0.2771 -0.1010
  297MOL0     C39092   9.298   8.305   8.836  0.4461 -0.2661  0.8012
  297MOL0     C39093   9.209   8.422   8.841  0.2234  0.3069 -1.0895
  297MOL0     C39094   9.269   8.546   8.909  0.3221 -0.4819 -0.4165
  297MOL0     C39095   9.175   8.637   8.996 -0.4597  0.0228  0.0184
  297MOL0     O39096   9.053   8.668   8.927 -0.2164  0.1571 -0.1774
  297MOL0     C39097   8.973   8.769   8.975 -0.3463 -0.2151  0.9381
  297MOL0     C39098   8.873   8.799   8.879 -0.4052  0.1803 -0.6253
  297MOL0     C39099   8.756   8.857   8.914  0.4643  0.5684 -0.2557
  297MOL0     C39100   8.737   8.911   9.039 -0.0358  0.1148  0.0477
  297MOL0     C39101   8.606   8.982   9.062 -0.0115 -0.5961  0.5369
  297MOL0     O39102   8.523   9.028   8.966 -0.1360 -0.8206 -0.6869
  297MOL0     C39103   8.417   9.097   9.007  0.2344  0.0756 -0.0303
  297MOL0     C39104   8.294   9.039   8.995  0.6444 -0.8458  0.3047
  297MOL0     C39105   8.170   9.117   8.997 -0.4915  0.7274  0.5207
  297MOL0     C39106   8.190   9.266   9.016  0.2678  0.3664 -0.2618
  297MOL0     O39107   8.070   9.325   9.021 -0.0613  0.0660 -0.4891
  297MOL0     C39108   8.068   9.464   9.005  0.0569  0.2142  0.1456
  297MOL0     C39109   7.935   9.525   8.965  0.1566  1.3623 -0.8588
  297MOL0     C39110   7.957   9.665   8.912  0.6481 -0.8892 -0.4840
  297MOL0     C39111   7.834   9.732   8.842  0.0352  0.3197  0.0641
  297MOL0     C39112   7.780   9.856   8.920  0.6767  0.1312  0.3426
  297MOL0     C39113   7.763   9.849   9.073  0.5531 -0.1651 -0.6400
  297MOL0     C39114   7.622   9.818   9.132  0.2199  0.2835 -0.1113
  297MOL0     C39115   7.581   9.894   9.260 -0.5538 -0.2454  0.7194
  297MOL0    Cl39116   7.595  10.080   9.250 -0.7599 -0.4469  0.1861
  297MOL0     C39117   8.313   9.326   9.039 -0.0752  1.2692  0.0442
  297MOL0     C39118   8.424   9.236   9.033  0.1620  0.2356  0.2732
  297MOL0     O39119   8.585   8.987   9.185 -0.2195 -0.3497 -0.3196
  297MOL0     C39120   8.846   8.885   9.133 -0.5867  0.0797 -1.0208
  297MOL0     C39121   8.958   8.806   9.105 -0.9239 -0.4877  0.7056
  297MOL0     N39122   9.128   8.148   8.723  0.3712 -0.1909  0.3439
  297MOL0     N39123   9.125   8.078   8.615  0.4951 -0.5907 -1.0306
  297MOL0     C39124   8.614   8.391   8.470 -0.0355  0.4500 -0.6891
  297MOL0     C39125   8.547   8.415   8.591 -1.0724 -0.6038 -0.2553
  297MOL0     C39126   8.276   8.609   8.905 -0.2958  0.1410  0.7127
  297MOL0     C39127   8.311   8.680   9.018 -0.2739  0.5979  0.1289
  297MOL0     C39128   8.218   8.696   9.122 -0.4584  0.6946 -0.5075
  297MOL0     C39129   8.084   8.652   9.107  0.4395  0.1798  0.2543
  297MOL0     O39130   8.002   8.655   9.223  0.8165  0.4095 -1.3041
  297MOL0     C39131   7.884   8.571   9.230 -0.3125  0.2302 -0.0337
  297MOL0     C39132   7.929   8.432   9.292  0.3502 -0.1934  0.5966
  297MOL0     C39133   8.001   8.449   9.424  1.0874  0.3806 -0.0815
  297MOL0     C39134   7.908   8.510   9.538  0.2466 -0.2717 -0.8325
  297MOL0     C39135   7.787   8.441   9.579  0.1061  0.1605  0.8010
  297MOL0     C39136   7.681   8.387   9.609 -0.5325  0.6578  0.2958
  297MOL0     C39137   8.054   8.582   8.991  0.0934 -0.4515  0.0697
  297MOL0     C39138   8.147   8.564   8.890  0.7576 -0.4266 -0.0145
  297MOL0     H39139   8.259   8.546   8.480  0.7387  2.3438  0.4339
  297MOL0     H39140   8.385   8.523   8.261 -3.9445 -3.2219  0.2976
  297MOL0     H39141   8.753   8.312   8.123 -0.3600  0.2611  0.7134
  297MOL0     H39142   8.771   8.293   8.300 -6.8116  0.4068  3.7277
  297MOL0     H39143   8.852   8.533   8.314 -1.5631 -0.3050  0.2095
  297MOL0     H39144   8.780   8.578   8.183  4.1786  1.9106 -0.1030
  297MOL0     H39145   9.016   8.573   8.149  0.6630 -0.0481 -1.5592
  297MOL0     H39146   8.942   8.478   8.026  1.4284  2.5503 -0.2852
  297MOL0     H39147   8.989   8.275   8.181  0.1737  0.2182  1.7994
  297MOL0     H39148   9.107   8.345   8.081 -0.9539  2.5371 -0.4627
  297MOL0     H39149   9.089   8.406   8.380  0.2867  0.4721  0.2162
  297MOL0     H39150   9.200   8.487   8.279  0.8470 -0.4764 -0.9283
  297MOL0     H39151   9.313   8.313   8.377 -0.5513  2.3640 -0.5362
  297MOL0     H39152   9.311   8.292   8.206 -0.2677  0.3938  0.3705
  297MOL0     H39153   9.077   8.154   8.352  0.4769  0.0724  0.9947
  297MOL0     H39154   9.185   8.094   8.223  1.6389 -0.0365 -0.2979
  297MOL0     H39155   9.368   8.054   8.382  0.6868  0.3103  1.8969
  297MOL0     H39156   9.232   7.955   8.408 -0.7862  1.0438  0.2554
  297MOL0     H39157   9.423   8.220   8.608 -1.0956  3.0023  0.8940
  297MOL0     H39158   9.396   8.346   8.808 -0.7840  2.5753  0.2654
  297MOL0     H39159   9.308   8.251   8.931  0.3159 -1.4199  0.1733
  297MOL0     H39160   9.108   8.399   8.878 -0.2791  2.9279 -0.6942
  297MOL0     H39161   9.201   8.455   8.737  6.0558 -2.5587 -2.9044
  297MOL0     H39162   9.348   8.511   8.977 -0.1378 -0.5884  0.0692
  297MOL0     H39163   9.321   8.614   8.841 -0.1694  1.1312  0.7607
  297MOL0     H39164   9.238   8.725   9.012  1.3919 -1.3618  0.6393
  297MOL0     H39165   9.143   8.599   9.094 -1.1564  0.3306 -0.0815
  297MOL0     H39166   8.886   8.769   8.776  0.9413 -1.3003 -0.0695
  297MOL0     H39167   8.674   8.863   8.844  0.9830  2.5213 -0.7494
  297MOL0     H39168   8.288   8.932   8.975 -0.1282 -0.0572 -5.1198
  297MOL0     H39169   8.072   9.072   8.984 -0.4178 -0.2691  2.8584
  297MOL0     H39170   8.148   9.486   8.933 -0.0852 -0.2993 -0.1652
  297MOL0     H39171   8.091   9.505   9.104  0.9887  1.9942 -0.7511
  297MOL0     H39172   7.861   9.533   9.046 -1.6536 -0.6534 -2.1982
  297MOL0     H39173   7.888   9.465   8.887  0.2566  0.4273 -0.2176
  297MOL0     H39174   8.041   9.674   8.842  0.9441 -0.9226 -0.1361
  297MOL0     H39175   7.989   9.728   8.996  0.2255 -1.7283  0.3244
  297MOL0     H39176   7.855   9.767   8.740 -0.5569  0.4777 -0.0083
  297MOL0     H39177   7.761   9.655   8.814  0.3175 -0.7338  2.0744
  297MOL0     H39178   7.698   9.900   8.862 -2.0848 -2.0375  2.2797
  297MOL0     H39179   7.860   9.930   8.912  0.4672  0.5280  1.6426
  297MOL0     H39180   7.797   9.945   9.115  3.1766 -0.8853 -0.9690
  297MOL0     H39181   7.830   9.777   9.120 -1.6989 -0.2926  2.6908
  297MOL0     H39182   7.546   9.836   9.055 -0.8959 -2.0829  0.3571
  297MOL0     H39183   7.624   9.713   9.162  0.0418  0.5851  1.0051
  297MOL0     H39184   7.626   9.846   9.347 -0.5652 -2.0443 -0.2417
  297MOL0     H39185   7.473   9.880   9.275 -0.0397 -2.1674  3.3365
  297MOL0     H39186   8.341   9.426   9.068  0.9221  0.5691  1.6359
  297MOL0     H39187   8.518   9.291   9.031 -0.6280  1.8472 -3.9463
  297MOL0     H39188   8.826   8.911   9.237 -1.1703  0.6611 -1.2654
  297MOL0     H39189   9.038   8.784   9.174 -0.0931  1.0992  0.3076
  297MOL0     H39190   8.713   8.349   8.486 -1.3705 -2.2875  1.3842
  297MOL0     H39191   8.606   8.400   8.681 -0.7922  1.0929 -0.1330
  297MOL0     H39192   8.408   8.723   9.040  0.3691 -1.8646  2.7151
  297MOL0     H39193   8.265   8.725   9.216  2.5460 -1.3306 -1.2134
  297MOL0     H39194   7.836   8.555   9.133 -0.7060 -5.4653  0.7686
  297MOL0     H39195   7.807   8.620   9.291 -0.1133  1.2626 -0.5811
  297MOL0     H39196   7.834   8.388   9.323  0.1153  1.5465  2.6028
  297MOL0     H39197   7.969   8.374   9.208 -0.5327  0.3167 -0.1931
  297MOL0     H39198   8.084   8.520   9.429 -0.1676  1.9011 -0.1776
  297MOL0     H39199   8.040   8.352   9.457  1.5807  1.5932  3.1791
  297MOL0     H39200   7.958   8.518   9.635 -1.0096  0.2289 -0.2099
  297MOL0     H39201   7.889   8.616   9.522  0.5103  0.3743  2.4990
  297MOL0     H39202   7.581   8.358   9.633 -2.2729  4.0538 -2.0438
  297MOL0     H39203   7.961   8.533   8.964 -0.1434 -0.0444  0.1431
  297MOL0     H39204   8.115   8.524   8.794 -0.5567  1.2233 -0.3123
  298MOL0     O39205   2.556   0.555  10.418  0.3374  1.0366 -0.4444
  298MOL0     C39206   2.551   0.471  10.506 -0.3526 -0.5637 -0.2160
  298MOL0     O39207   2.441   0.438  10.581 -0.0172  0.0162  0.4492
  298MOL0     C39208   2.316   0.502  10.562 -0.4404  0.8438 -0.0301
  298MOL0     C39209   2.303   0.636  10.514  0.5899  0.2610 -0.8168
  298MOL0     C39210   2.174   0.676  10.478  0.0769 -1.0127  0.7043
  298MOL0     C39211   2.061   0.595  10.492 -0.4624  0.1132 -0.8430
  298MOL0     O39212   1.936   0.638  10.450  0.3132 -0.1747  0.4340
  298MOL0     C39213   1.831   0.547  10.436 -0.1105 -0.6781 -0.9702
  298MOL0     C39214   1.705   0.597  10.355  0.7496 -0.3107  0.3112
  298MOL0     C39215   1.603   0.682  10.449 -0.2970 -1.0731 -0.7897
  298MOL0     C39216   1.508   0.754  10.353  0.4283  0.1989 -0.0614
  298MOL0     C39217   1.396   0.844  10.420 -0.7275  0.8711  0.4287
  298MOL0     C39218   1.301   0.762  10.500  0.0550 -0.4962 -0.5046
  298MOL0     C39219   1.166   0.834  10.512 -0.2068 -0.3226 -0.1034
  298MOL0     C39220   1.167   0.963  10.584 -0.0088  0.7698  0.3760
  298MOL0     N39221   1.036   1.028  10.607  0.6174 -0.1304 -0.1978
  298MOL0     C39222   0.930   0.973  10.667  0.2987 -0.2510  0.3560
  298MOL0     C39223   0.821   1.046  10.644 -1.4146  0.3451 -0.2980
  298MOL0     C39224   0.682   0.990  10.675  0.2275 -0.2561 -0.5579
  298MOL0     C39225   0.593   0.964  10.551 -0.4164 -1.3205 -0.5755
  298MOL0     C39226   0.446   0.957  10.583  0.9905  0.5706 -0.5877
  298MOL0     C39227   0.375   0.837  10.514  0.7120 -0.1181 -0.8778
  298MOL0     O39228   0.368   0.859  10.370 -0.2671  0.0391  0.0636
  298MOL0     C39229   0.334   0.762  10.273 -0.0656  0.1103 -0.2058
  298MOL0     C39230   0.346   0.777  10.136  0.2198  0.2422  0.0832
  298MOL0     C39231   0.276   0.687  10.045 -0.0183  0.8046  0.5923
  298MOL0     C39232   0.191   0.592  10.099  0.3269 -0.2401  0.1271
  298MOL0     C39233   0.098   0.505  10.017  0.0772 -0.4841 -0.3367
  298MOL0     O39234   0.004   0.430  10.079 -0.1470  0.2754 -0.3073
  298MOL0     C39235  -0.080   0.350  10.005  0.2631 -0.0622 -0.2992
  298MOL0     C39236  -0.039   0.237   9.944 -0.5396  0.3157 -0.0259
  298MOL0     C39237  -0.131   0.164   9.871  0.4931 -0.3924  0.2284
  298MOL0     C39238  -0.259   0.211   9.842 -1.1604  0.3617  0.5219
  298MOL0     O39239  -0.333   0.137   9.745 -0.9135  0.1707 -0.4646
  298MOL0     C39240  -0.474   0.125   9.723  0.6082  0.0868 -0.0071
  298MOL0     C39241  -0.532   0.030   9.834 -0.1255 -0.0155  0.1143
  298MOL0     C39242  -0.679   0.003   9.828  1.1572 -0.9274  1.4359
  298MOL0     C39243  -0.736  -0.059   9.696 -0.7969 -0.3001 -0.0465
  298MOL0     C39244  -0.875  -0.081   9.696  0.2177  0.3430 -0.0157
  298MOL0     C39245  -0.914  -0.205   9.770  0.0444  0.4746 -0.2850
  298MOL0     C39246  -0.972  -0.165   9.906  0.2799  0.4584 -0.1396
  298MOL0     C39247  -0.961  -0.293   9.993  0.7480 -0.6283  0.0453
  298MOL0    Cl39248  -0.993  -0.244  10.165 -0.3235 -0.1474 -0.1648
  298MOL0     C39249  -0.310   0.326   9.909 -0.4789 -0.2790 -0.7303
  298MOL0     C39250  -0.213   0.390   9.997 -0.2016  0.3273 -0.7988
  298MOL0     O39251   0.095   0.521   9.898 -0.2987  0.0406  0.8904
  298MOL0     C39252   0.191   0.568  10.239 -1.3051  0.3976 -0.2038
  298MOL0     C39253   0.267   0.648  10.318  0.0732 -0.5640  0.0461
  298MOL0     N39254   0.856   1.140  10.554  0.4088  0.5240 -0.2078
  298MOL0     N39255   0.983   1.127  10.530  0.6944  0.1211  0.3852
  298MOL0     C39256   2.077   0.469  10.548  0.4794 -0.3041 -0.0513
  298MOL0     C39257   2.202   0.423  10.581 -0.2165  0.5688  0.2169
  298MOL0     C39258   2.679   0.403  10.542 -0.0357  0.3873 -0.0323
  298MOL0     C39259   2.685   0.302  10.643 -0.4777 -0.7988 -0.6002
  298MOL0     C39260   2.806   0.247  10.694  1.7660  0.6946  1.4896
  298MOL0     C39261   2.920   0.276  10.625  0.0896 -0.1619 -0.4459
  298MOL0     O39262   3.029   0.219  10.684  0.5577  0.3084 -0.1282
  298MOL0     C39263   3.155   0.228  10.618 -0.2561 -0.6828  0.0054
  298MOL0     C39264   3.220   0.366  10.645 -0.1905  0.7335  0.0551
  298MOL0     C39265   3.359   0.363  10.576 -0.0251  0.4662 -0.1702
  298MOL0     C39266   3.440   0.490  10.602 -0.3647  0.5018 -0.7207
  298MOL0     C39267   3.518   0.488  10.728  0.3554  0.0815 -0.6431
  298MOL0     C39268   3.572   0.497  10.832 -0.0266  0.7442 -1.0863
  298MOL0     C39269   2.923   0.371  10.515  1.1222  0.4877 -0.0487
  298MOL0     C39270   2.804   0.434  10.473  0.7959 -0.2829  0.1610
  298MOL0     H39271   2.391   0.695  10.490  1.3034 -0.0728  0.8335
  298MOL0     H39272   2.144   0.772  10.437  1.8512  0.6127  2.9579
  298MOL0     H39273   1.787   0.521  10.533 -3.1180  1.4145 -1.6294
  298MOL0     H39274   1.873   0.462  10.381  0.8461 -1.3434  0.7170
  298MOL0     H39275   1.656   0.510  10.310 -0.6878 -1.2721  3.4726
  298MOL0     H39276   1.735   0.666  10.276  1.2293 -2.8165 -1.8489
  298MOL0     H39277   1.650   0.760  10.509 -1.5173 -1.6675  1.0308
  298MOL0     H39278   1.541   0.609  10.502 -3.4053  0.6787 -1.7783
  298MOL0     H39279   1.557   0.815  10.277  0.5805 -1.1460 -1.0910
  298MOL0     H39280   1.455   0.679  10.293 -0.8379 -1.6671  3.1375
  298MOL0     H39281   1.344   0.888  10.335  0.7145 -1.0093 -1.5348
  298MOL0     H39282   1.442   0.926  10.476  0.9195  2.5310 -3.0544
  298MOL0     H39283   1.337   0.741  10.601 -0.1692 -1.4042 -0.6094
  298MOL0     H39284   1.284   0.671  10.441 -0.1867  1.3724 -3.5805
  298MOL0     H39285   1.127   0.863  10.415 -1.7711  0.7455  0.7957
  298MOL0     H39286   1.096   0.757  10.548 -0.9144  0.3810  0.0602
  298MOL0     H39287   1.235   1.034  10.536  1.4090  0.1820  1.4473
  298MOL0     H39288   1.213   0.949  10.683 -1.6976  1.3808  1.2786
  298MOL0     H39289   0.939   0.886  10.731  2.0337  0.9424  1.8326
  298MOL0     H39290   0.635   1.057  10.748 -1.1222 -0.3883 -1.2771
  298MOL0     H39291   0.696   0.892  10.721 -0.8599 -0.1987 -0.0821
  298MOL0     H39292   0.632   0.871  10.509  0.7226 -1.5471  0.8915
  298MOL0     H39293   0.597   1.056  10.491  0.8808 -1.3845 -0.6103
  298MOL0     H39294   0.438   0.932  10.689 -2.2930 -2.3628 -1.3675
  298MOL0     H39295   0.386   1.045  10.557  1.2922  0.8726 -0.2895
  298MOL0     H39296   0.276   0.838  10.560  0.7460 -1.1280 -0.7618
  298MOL0     H39297   0.418   0.741  10.543 -4.4370 -2.5490 -0.2324
  298MOL0     H39298   0.407   0.858  10.098  0.2805 -0.0647 -0.4991
  298MOL0     H39299   0.286   0.702   9.938  2.8605 -1.5458  0.4135
  298MOL0     H39300   0.067   0.217   9.959  0.6683  3.6579 -2.7520
  298MOL0     H39301  -0.113   0.062   9.839 -1.3121 -2.2364  4.3854
  298MOL0     H39302  -0.501   0.081   9.626  4.1043  3.5132 -2.8519
  298MOL0     H39303  -0.519   0.224   9.737  1.1183  0.2856  0.2505
  298MOL0     H39304  -0.496   0.075   9.927  3.2249 -0.9556 -0.5883
  298MOL0     H39305  -0.482  -0.068   9.839 -1.0664 -0.7169 -2.4064
  298MOL0     H39306  -0.733   0.098   9.842 -0.5786 -1.0496 -2.7979
  298MOL0     H39307  -0.702  -0.066   9.910 -3.8706 -3.2664 -1.4222
  298MOL0     H39308  -0.717   0.009   9.613 -0.4960 -0.6932 -0.3103
  298MOL0     H39309  -0.684  -0.153   9.673 -0.3345  0.3778 -1.9587
  298MOL0     H39310  -0.912  -0.079   9.593 -1.7940  2.2141  0.6497
  298MOL0     H39311  -0.922   0.005   9.745 -0.3004 -0.9260  1.8075
  298MOL0     H39312  -0.825  -0.265   9.787  0.0891  0.1164 -1.6137
  298MOL0     H39313  -0.991  -0.262   9.715  0.3543  2.0050 -2.4598
  298MOL0     H39314  -0.923  -0.085   9.963 -0.1886 -0.9228  2.3815
  298MOL0     H39315  -1.077  -0.137   9.892  0.6668  2.0318 -0.1072
  298MOL0     H39316  -0.866  -0.346  10.003 -0.0852 -2.0255  0.7382
  298MOL0     H39317  -1.030  -0.372   9.965 -0.8247  1.0306 -1.0135
  298MOL0     H39318  -0.415   0.354   9.907 -0.8348 -0.6666  3.7641
  298MOL0     H39319  -0.246   0.473  10.060  2.4167  0.8984 -0.0563
  298MOL0     H39320   0.139   0.488  10.290 -2.4213  1.2113 -0.0327
  298MOL0     H39321   0.256   0.632  10.425 -0.0107 -1.6518 -0.1163
  298MOL0     H39322   1.985   0.412  10.557 -1.3264  2.5835  1.2573
  298MOL0     H39323   2.214   0.319  10.611  1.2437  0.4621 -0.6163
  298MOL0     H39324   2.589   0.278  10.686  0.2898 -1.2382  0.9557
  298MOL0     H39325   2.814   0.175  10.775 -1.6045  0.1663  1.5134
  298MOL0     H39326   3.142   0.224  10.509 -2.4223  0.7429  0.1568
  298MOL0     H39327   3.218   0.145  10.652  0.3976 -1.8385 -3.6124
  298MOL0     H39328   3.153   0.442  10.603 -1.8904 -0.7366 -0.0116
  298MOL0     H39329   3.231   0.378  10.753 -1.3643 -1.7615  0.5212
  298MOL0     H39330   3.333   0.352  10.471 -1.6169 -0.6736  0.3103
  298MOL0     H39331   3.409   0.269  10.604 -1.6897 -0.4296 -0.0973
  298MOL0     H39332   3.509   0.498  10.517 -1.5328  1.3722 -1.6085
  298MOL0     H39333   3.377   0.579  10.597 -0.8292  0.1294 -1.7564
  298MOL0     H39334   3.622   0.506  10.926 -2.0962  1.7993 -0.0157
  298MOL0     H39335   3.013   0.408  10.466  0.5300  2.4894  0.2678
  298MOL0     H39336   2.809   0.513  10.399 -1.3857  0.6692  0.9330
  299MOL0     O39337   0.130   2.063   3.870 -0.6702 -0.1289  0.1271
  299MOL0     C39338   0.056   2.095   3.961 -2.0601  0.2716  0.4752
  299MOL0     O39339  -0.025   2.191   3.958  0.2342 -0.4192 -0.0161
  299MOL0     C39340  -0.038   2.264   3.843  0.2070 -0.1029  0.6452
  299MOL0     C39341  -0.012   2.403   3.826 -0.3666  0.2611  0.0653
  299MOL0     C39342  -0.034   2.474   3.709  0.2591  0.3641  0.6495
  299MOL0     C39343  -0.082   2.404   3.597 -0.1889 -0.1817  0.1506
  299MOL0     O39344  -0.087   2.461   3.469 -0.0975  0.0890  0.0951
  299MOL0     C39345  -0.012   2.581   3.439 -0.3838 -0.0983 -0.1096
  299MOL0     C39346  -0.033   2.614   3.285 -0.4129 -0.0405  0.6776
  299MOL0     C39347  -0.176   2.668   3.272 -0.3827  0.8710 -0.1706
  299MOL0     C39348  -0.214   2.711   3.128 -0.5248 -0.2577 -1.3470
  299MOL0     C39349  -0.362   2.734   3.120 -0.1956  0.0131 -0.5961
  299MOL0     C39350  -0.409   2.742   2.980 -0.0659  0.5119  0.1542
  299MOL0     C39351  -0.548   2.801   2.974  1.2542 -0.2113 -0.3637
  299MOL0     C39352  -0.651   2.708   3.025 -0.7886  0.3618  1.3076
  299MOL0     N39353  -0.778   2.726   2.960 -0.0040  0.7806 -0.7187
  299MOL0     C39354  -0.850   2.847   2.952  0.2596 -0.1690 -0.4971
  299MOL0     C39355  -0.975   2.804   2.904 -0.5593  0.1868 -0.3184
  299MOL0     C39356  -1.100   2.892   2.891 -0.1155  0.2534 -0.4963
  299MOL0     C39357  -1.236   2.837   2.837 -0.1608  0.6270  0.2240
  299MOL0     C39358  -1.348   2.940   2.847 -0.2740  0.5870 -0.0899
  299MOL0     C39359  -1.481   2.890   2.791  0.7938 -0.5783 -0.6256
  299MOL0     O39360  -1.570   3.005   2.789 -0.5162 -0.4265  0.3888
  299MOL0     C39361  -1.658   3.024   2.687 -0.5264  0.3448  0.6398
  299MOL0     C39362  -1.796   3.008   2.692 -0.0085 -0.1336 -0.3232
  299MOL0     C39363  -1.877   3.043   2.584  0.0435 -0.0243  0.0627
  299MOL0     C39364  -1.827   3.063   2.461  0.9966  0.2061  0.2769
  299MOL0     C39365  -1.915   3.111   2.350 -1.0657 -0.1517 -0.0002
  299MOL0     O39366  -1.839   3.178   2.260  0.1050  0.0509 -0.1374
  299MOL0     C39367  -1.901   3.187   2.141 -0.1870 -0.6469  0.5407
  299MOL0     C39368  -1.883   3.089   2.041  0.8016  0.6250 -0.5898
  299MOL0     C39369  -1.936   3.096   1.914  0.1710  0.0058 -0.0331
  299MOL0     C39370  -2.001   3.210   1.866  0.8999 -1.2886 -0.1252
  299MOL0     O39371  -2.077   3.236   1.751 -0.0633 -0.2152  0.0868
  299MOL0     C39372  -2.148   3.125   1.701  0.0641 -0.3970  0.1162
  299MOL0     C39373  -2.190   3.166   1.558 -0.0213 -0.5253 -0.2481
  299MOL0     C39374  -2.083   3.199   1.461  0.0322 -0.7606 -0.3193
  299MOL0     C39375  -2.139   3.210   1.323 -0.5571  0.6774  0.2881
  299MOL0     C39376  -2.177   3.071   1.272  0.5253 -0.0871  0.9349
  299MOL0     C39377  -2.272   3.073   1.152 -0.4954 -0.9787 -0.3477
  299MOL0     C39378  -2.416   3.050   1.181 -1.4218 -0.4550  0.3304
  299MOL0     C39379  -2.483   3.171   1.254 -0.5047  1.0204 -0.1417
  299MOL0    Cl39380  -2.501   3.307   1.127  0.2935 -0.3647 -0.3636
  299MOL0     C39381  -2.015   3.312   1.970 -0.1414  0.2844  0.0840
  299MOL0     C39382  -1.970   3.301   2.099  0.7715  0.3429  0.4971
  299MOL0     O39383  -2.035   3.099   2.352 -0.0255  1.1725  0.3659
  299MOL0     C39384  -1.691   3.065   2.447  0.2212 -0.1946  0.3009
  299MOL0     C39385  -1.607   3.060   2.558 -0.1474  0.4622  0.0422
  299MOL0     N39386  -0.960   2.674   2.861  0.5138 -0.6138  0.0919
  299MOL0     N39387  -0.848   2.633   2.892 -0.4543  0.1656  0.1180
  299MOL0     C39388  -0.127   2.273   3.609 -0.6012 -0.3569  0.5675
  299MOL0     C39389  -0.097   2.203   3.731  0.8490  0.1986  0.5982
  299MOL0     C39390   0.054   2.011   4.083 -0.2074 -0.8578  1.1708
  299MOL0     C39391   0.135   1.900   4.102  0.9330 -0.5504 -0.1911
  299MOL0     C39392   0.133   1.831   4.226  0.1487  1.3253  1.5921
  299MOL0     C39393   0.062   1.865   4.336  0.2522 -0.0275 -0.0312
  299MOL0     O39394   0.081   1.778   4.443  0.1936 -0.5022 -0.4600
  299MOL0     C39395   0.003   1.812   4.563  0.8026  0.2369  0.3660
  299MOL0     C39396   0.043   1.719   4.682  0.0405  0.5334  0.2368
  299MOL0     C39397  -0.033   1.753   4.803  0.0258  0.8443 -1.1883
  299MOL0     C39398  -0.019   1.643   4.911  0.0386 -0.1940  0.1149
  299MOL0     C39399  -0.072   1.685   5.036  1.1558 -0.9187  0.7583
  299MOL0     C39400  -0.111   1.743   5.134  0.2097  0.0446  0.2654
  299MOL0     C39401  -0.028   1.968   4.321  0.7096  0.6722 -0.2331
  299MOL0     C39402  -0.036   2.041   4.194 -0.3503 -0.4367  0.2919
  299MOL0     H39403   0.026   2.465   3.906  0.2026  4.4851 -3.1683
  299MOL0     H39404  -0.005   2.578   3.704  0.5998  0.3197  1.5058
  299MOL0     H39405   0.091   2.562   3.470 -0.7531  1.1931  2.1985
  299MOL0     H39406  -0.048   2.668   3.494  0.0913  0.2606 -0.3576
  299MOL0     H39407  -0.002   2.526   3.228  0.4153  0.4382  0.3802
  299MOL0     H39408   0.036   2.686   3.240  0.1775 -0.6437  0.6118
  299MOL0     H39409  -0.176   2.756   3.336  0.2065  0.5942  0.2124
  299MOL0     H39410  -0.252   2.597   3.307  1.5479 -1.7891 -1.0584
  299MOL0     H39411  -0.160   2.806   3.120  1.0809 -1.1385 -1.2689
  299MOL0     H39412  -0.188   2.632   3.057 -3.8164 -1.0491 -1.8467
  299MOL0     H39413  -0.384   2.824   3.179  1.8776 -0.7084  1.4250
  299MOL0     H39414  -0.425   2.658   3.167 -3.1356  2.0906 -0.8923
  299MOL0     H39415  -0.408   2.638   2.946 -3.5931  0.3400  0.2456
  299MOL0     H39416  -0.339   2.803   2.922  0.5233 -0.0283  0.2768
  299MOL0     H39417  -0.556   2.891   3.035  1.7647  0.3824 -1.1495
  299MOL0     H39418  -0.567   2.818   2.867  1.1278  2.0943 -0.0241
  299MOL0     H39419  -0.662   2.711   3.134 -2.4843  3.1607  1.1407
  299MOL0     H39420  -0.626   2.605   2.995 -4.4201  0.1496 -1.7175
  299MOL0     H39421  -0.836   2.949   2.987 -2.5878  0.0848  0.1057
  299MOL0     H39422  -1.060   2.976   2.834  1.1517  0.9696  1.3558
  299MOL0     H39423  -1.122   2.917   2.995 -0.4523 -1.6403 -0.0790
  299MOL0     H39424  -1.255   2.757   2.910  1.8015  0.8265  1.0083
  299MOL0     H39425  -1.227   2.793   2.738  0.3596  2.7232 -0.7105
  299MOL0     H39426  -1.370   2.964   2.951 -2.1022 -1.3014  0.0217
  299MOL0     H39427  -1.321   3.025   2.782  0.8366 -0.5538 -1.2020
  299MOL0     H39428  -1.516   2.817   2.865  5.1721  1.3545  4.0315
  299MOL0     H39429  -1.459   2.869   2.686  1.5251  0.4448 -0.6896
  299MOL0     H39430  -1.840   2.957   2.777  3.6073 -2.7622  0.2402
  299MOL0     H39431  -1.983   3.024   2.595  0.1031 -1.5927 -1.7194
  299MOL0     H39432  -1.818   3.004   2.065 -0.6637 -0.9461 -1.9401
  299MOL0     H39433  -1.923   3.019   1.839  2.0763  0.1893  0.0445
  299MOL0     H39434  -2.235   3.098   1.762  0.5645 -2.4302 -0.0154
  299MOL0     H39435  -2.077   3.042   1.699 -0.9897 -1.3102 -1.0178
  299MOL0     H39436  -2.264   3.246   1.572  1.6860  0.9300  0.9345
  299MOL0     H39437  -2.249   3.081   1.521 -2.5453  0.1631  1.8510
  299MOL0     H39438  -2.007   3.121   1.462  2.0307  1.0475 -1.7568
  299MOL0     H39439  -2.050   3.300   1.488 -0.6501 -1.4421  3.7299
  299MOL0     H39440  -2.233   3.266   1.322 -1.2140 -0.2310  2.9969
  299MOL0     H39441  -2.065   3.268   1.267  1.7564  0.6856  3.1193
  299MOL0     H39442  -2.227   3.001   1.340  0.7423 -1.4943 -0.3058
  299MOL0     H39443  -2.088   3.016   1.239 -0.6328 -0.8838 -0.9939
  299MOL0     H39444  -2.240   2.995   1.082  2.0748 -2.1035  1.8883
  299MOL0     H39445  -2.258   3.167   1.098  2.1213 -2.8176 -3.1884
  299MOL0     H39446  -2.449   3.053   1.076 -1.1672  1.4704  0.2663
  299MOL0     H39447  -2.415   2.956   1.235  0.6314 -0.8416 -0.2691
  299MOL0     H39448  -2.429   3.207   1.342 -1.7432  0.8102  0.7358
  299MOL0     H39449  -2.585   3.142   1.281 -0.7205  1.4232 -0.5041
  299MOL0     H39450  -2.055   3.405   1.933  1.1279  0.3527 -1.2371
  299MOL0     H39451  -2.002   3.378   2.169 -1.4807  0.7154 -0.8606
  299MOL0     H39452  -1.649   3.067   2.347 -0.9207 -1.4306 -0.2272
  299MOL0     H39453  -1.502   3.082   2.540 -0.6109 -0.3125 -5.0728
  299MOL0     H39454  -0.175   2.225   3.524  3.4795 -1.1909 -1.5314
  299MOL0     H39455  -0.096   2.096   3.713  2.8821  0.0267  1.4558
  299MOL0     H39456   0.211   1.868   4.032 -0.3942 -0.1893 -1.8499
  299MOL0     H39457   0.213   1.758   4.216 -0.5690  0.8425 -1.8064
  299MOL0     H39458  -0.098   1.798   4.525  0.8489  0.4117  0.1763
  299MOL0     H39459   0.016   1.912   4.606 -3.3779  1.1480 -0.0881
  299MOL0     H39460   0.004   1.618   4.668  0.0100 -0.0438  3.6485
  299MOL0     H39461   0.151   1.707   4.691  0.0702 -3.2700 -2.5858
  299MOL0     H39462  -0.138   1.782   4.791 -0.8679  0.0061  2.9568
  299MOL0     H39463   0.002   1.850   4.838  2.4107 -0.1626 -0.6357
  299MOL0     H39464  -0.058   1.551   4.866  2.2317 -0.0515 -2.2835
  299MOL0     H39465   0.089   1.630   4.921  0.8217  2.1497 -3.3668
  299MOL0     H39466  -0.141   1.794   5.223 -0.1838  0.4823 -0.1145
  299MOL0     H39467  -0.085   1.998   4.408  1.2200  2.6581 -0.5334
  299MOL0     H39468  -0.086   2.137   4.182  2.3844  1.0406 -0.3280
  300MOL0     O39469  10.903   4.217   0.573  0.1153  0.2519  0.1085
  300MOL0     C39470  10.963   4.257   0.475 -0.1217  0.0205  0.8670
  300MOL0     O39471  10.903   4.307   0.364  0.8554 -0.1790  0.0556
  300MOL0     C39472  10.766   4.334   0.380 -0.1574  0.4798 -0.5698
  300MOL0     C39473  10.673   4.296   0.285  0.5087 -0.8105 -0.8711
  300MOL0     C39474  10.537   4.330   0.303 -1.1986  0.0732  0.6666
  300MOL0     C39475  10.486   4.390   0.416  0.1480 -0.5590 -0.5918
  300MOL0     O39476  10.347   4.413   0.412  0.0261 -0.4896  0.2404
  300MOL0     C39477  10.299   4.530   0.483  0.7739 -0.8339 -0.1467
  300MOL0     C39478  10.147   4.548   0.468  0.0591  0.5560 -0.5325
  300MOL0     C39479  10.074   4.584   0.603 -0.0400  0.0352 -0.5242
  300MOL0     C39480   9.923   4.609   0.595  0.6299  0.5498  0.5025
  300MOL0     C39481   9.851   4.683   0.718 -0.2676  0.8177  0.5138
  300MOL0     C39482   9.880   4.614   0.854 -0.0338  0.2319  0.8251
  300MOL0     C39483   9.797   4.675   0.961  1.1527 -0.2499 -1.1592
  300MOL0     C39484   9.813   4.831   0.965 -0.0734 -0.5106 -0.3470
  300MOL0     N39485   9.951   4.887   0.974  0.1010 -0.1267  0.5547
  300MOL0     C39486   9.994   5.011   0.914  1.0231 -0.5839  0.1003
  300MOL0     C39487  10.098   5.053   0.990 -0.7981  0.2799 -0.3775
  300MOL0     C39488  10.169   5.185   0.975  0.2293  0.8270 -0.9499
  300MOL0     C39489  10.299   5.165   0.908 -0.1000 -0.3931  0.2676
  300MOL0     C39490  10.288   5.136   0.761 -0.8274 -0.0050 -0.4842
  300MOL0     C39491  10.396   5.200   0.671  0.5383  0.2481  0.5746
  300MOL0     O39492  10.511   5.145   0.724  0.8465 -0.3180 -0.1374
  300MOL0     C39493  10.637   5.207   0.698 -0.6365  0.3377  1.0448
  300MOL0     C39494  10.651   5.330   0.630  0.0839 -0.0906  0.4840
  300MOL0     C39495  10.777   5.373   0.600  0.0225  0.2219 -0.3646
  300MOL0     C39496  10.897   5.308   0.657 -0.2453  0.0389 -0.0567
  300MOL0     C39497  11.037   5.359   0.639 -0.1213 -0.5640 -0.1044
  300MOL0     O39498  11.114   5.325   0.745  0.3251  0.1422  0.2849
  300MOL0     C39499  11.238   5.381   0.748 -0.1978 -0.5541 -0.9856
  300MOL0     C39500  11.260   5.484   0.835  0.3443  0.2437 -0.3126
  300MOL0     C39501  11.380   5.562   0.831  0.5081  0.1478 -0.1174
  300MOL0     C39502  11.473   5.525   0.726  0.1249  0.1899  0.3301
  300MOL0     O39503  11.585   5.595   0.695  0.4475  0.1025  0.1961
  300MOL0     C39504  11.648   5.685   0.791  0.5807  0.0984  0.3206
  300MOL0     C39505  11.762   5.770   0.723  0.1989  0.1083  0.3076
  300MOL0     C39506  11.886   5.682   0.680  0.1364 -0.6226 -0.3383
  300MOL0     C39507  11.988   5.788   0.628  0.5231 -0.2647  0.7632
  300MOL0     C39508  12.089   5.703   0.542  0.1246  0.1156 -0.2839
  300MOL0     C39509  12.212   5.803   0.511  0.5296 -0.1250  0.1772
  300MOL0     C39510  12.339   5.724   0.486 -0.3757 -0.8152  0.5415
  300MOL0     C39511  12.451   5.808   0.437  0.1613  1.2518 -0.6912
  300MOL0    Cl39512  12.491   5.924   0.566  0.1306 -0.5383  0.3377
  300MOL0     C39513  11.446   5.418   0.647  0.2327  0.5613  0.0127
  300MOL0     C39514  11.335   5.340   0.660 -0.2402  0.2465 -0.1090
  300MOL0     O39515  11.060   5.443   0.556  0.5619 -0.3170 -0.0882
  300MOL0     C39516  10.877   5.187   0.727  0.3251 -0.8723  0.5442
  300MOL0     C39517  10.748   5.140   0.746  0.3184  0.6834  0.0472
  300MOL0     N39518  10.107   4.963   1.091 -0.5201 -0.8649 -0.3131
  300MOL0     N39519  10.022   4.873   1.094 -0.0044  0.3223  0.0691
  300MOL0     C39520  10.581   4.443   0.511 -0.6514 -0.0483 -0.3074
  300MOL0     C39521  10.722   4.409   0.493  0.3173  0.3227  0.4545
  300MOL0     C39522  11.112   4.248   0.479 -0.2132  0.2899  0.9963
  300MOL0     C39523  11.185   4.314   0.376 -0.6727 -0.0711  0.2493
  300MOL0     C39524  11.326   4.312   0.387  0.5529  0.1685  0.5590
  300MOL0     C39525  11.399   4.235   0.485  0.1303 -1.0207 -1.2890
  300MOL0     O39526  11.538   4.235   0.493 -0.5929 -0.1903 -0.8037
  300MOL0     C39527  11.601   4.103   0.459  0.9248 -0.0189  0.0766
  300MOL0     C39528  11.635   4.099   0.312  0.9950 -0.3299 -0.1137
  300MOL0     C39529  11.717   4.213   0.266 -0.6329 -0.4746 -0.3780
  300MOL0     C39530  11.845   4.245   0.347  0.0868 -0.7840 -0.0214
  300MOL0     C39531  11.948   4.321   0.269  0.1288 -0.1774  0.7462
  300MOL0     C39532  12.032   4.374   0.203 -0.7131 -0.4142  0.2774
  300MOL0     C39533  11.327   4.169   0.583  0.2797 -0.0525 -1.0029
  300MOL0     C39534  11.184   4.177   0.583 -0.5404  0.4663  0.6484
  300MOL0     H39535  10.711   4.274   0.186 -1.0034 -1.3003 -1.3737
  300MOL0     H39536  10.470   4.302   0.222 -4.4669  1.4576  2.6740
  300MOL0     H39537  10.341   4.629   0.466  1.1090 -1.0637 -0.6748
  300MOL0     H39538  10.314   4.516   0.591  2.0634  0.6871 -0.0886
  300MOL0     H39539  10.103   4.459   0.421 -1.3259  0.4924  0.7766
  300MOL0     H39540  10.127   4.627   0.395 -2.1940  1.0010  0.4512
  300MOL0     H39541  10.122   4.677   0.636 -2.1760  1.3374 -0.9413
  300MOL0     H39542  10.084   4.512   0.685 -0.2575  1.8051  1.1441
  300MOL0     H39543   9.910   4.681   0.514  2.0209  1.4870  1.0797
  300MOL0     H39544   9.868   4.517   0.570  0.4239  1.0961 -1.2207
  300MOL0     H39545   9.745   4.675   0.695  0.4942 -0.4575 -3.3089
  300MOL0     H39546   9.875   4.790   0.716 -0.6104  0.9157 -1.9092
  300MOL0     H39547   9.984   4.613   0.886 -0.0833  0.3588  0.9904
  300MOL0     H39548   9.861   4.506   0.845 -0.2481  0.3313 -0.1020
  300MOL0     H39549   9.694   4.651   0.933  0.2297  3.0985 -1.0472
  300MOL0     H39550   9.822   4.621   1.053  0.3344 -0.9543 -1.3355
  300MOL0     H39551   9.747   4.875   1.040 -0.4559  2.7238 -2.3791
  300MOL0     H39552   9.762   4.861   0.873 -1.4567  0.7061  0.7770
  300MOL0     H39553   9.956   5.071   0.832 -1.5818  0.1625  1.7432
  300MOL0     H39554  10.196   5.223   1.074  0.7845 -2.1551  0.1700
  300MOL0     H39555  10.092   5.251   0.934 -1.2347 -0.2491 -0.0465
  300MOL0     H39556  10.358   5.087   0.956 -3.7018 -4.7963 -1.7909
  300MOL0     H39557  10.357   5.257   0.921 -4.1159  2.3444  0.6810
  300MOL0     H39558  10.313   5.031   0.742  1.0983  0.0003  1.5806
  300MOL0     H39559  10.183   5.148   0.732 -0.9706 -0.4874 -0.1684
  300MOL0     H39560  10.392   5.309   0.678  4.1011  0.5155  0.1649
  300MOL0     H39561  10.378   5.173   0.567  0.3787  2.6583 -0.0885
  300MOL0     H39562  10.563   5.380   0.591  1.3928  1.2121 -0.9071
  300MOL0     H39563  10.798   5.467   0.550  0.8925  0.8494  1.1210
  300MOL0     H39564  11.187   5.527   0.902  1.0082  0.3617  0.3465
  300MOL0     H39565  11.380   5.655   0.888  0.0109  1.5372 -2.2836
  300MOL0     H39566  11.688   5.636   0.880  0.2823 -1.1183 -0.1852
  300MOL0     H39567  11.574   5.756   0.828  0.9130  0.5531  0.1218
  300MOL0     H39568  11.803   5.852   0.782 -2.4654  1.5990  0.2457
  300MOL0     H39569  11.720   5.816   0.633  2.4854  0.4307 -0.6810
  300MOL0     H39570  11.864   5.606   0.604 -1.7741 -1.1109  0.6607
  300MOL0     H39571  11.927   5.621   0.761  1.5095 -0.1384 -0.6424
  300MOL0     H39572  11.945   5.851   0.549 -1.3013 -4.1482 -1.6710
  300MOL0     H39573  12.019   5.856   0.708  1.3372  3.4245 -2.3870
  300MOL0     H39574  12.038   5.651   0.460 -0.8058  2.0702 -1.0135
  300MOL0     H39575  12.132   5.633   0.613 -0.4692 -0.6091 -0.6205
  300MOL0     H39576  12.215   5.867   0.599 -0.7165 -0.4148  0.4592
  300MOL0     H39577  12.185   5.871   0.429 -2.9500  1.0464  2.0833
  300MOL0     H39578  12.383   5.672   0.572  3.7358 -0.2334 -1.0088
  300MOL0     H39579  12.320   5.644   0.414  0.0147 -0.1052 -0.3640
  300MOL0     H39580  12.430   5.866   0.347  2.9944  0.3958 -2.0222
  300MOL0     H39581  12.532   5.738   0.416  0.6429  1.2470  1.0164
  300MOL0     H39582  11.507   5.399   0.559  2.2617 -0.1971  1.5252
  300MOL0     H39583  11.304   5.268   0.586 -0.7034  2.1844 -1.9132
  300MOL0     H39584  10.956   5.123   0.766 -0.3582 -1.8533  0.3542
  300MOL0     H39585  10.718   5.048   0.796  1.4768  0.2606 -0.0127
  300MOL0     H39586  10.543   4.492   0.600 -2.5442 -0.0045 -1.0778
  300MOL0     H39587  10.795   4.440   0.567  0.3511  1.1200  0.0946
  300MOL0     H39588  11.146   4.388   0.307  0.7892 -0.7682 -1.3824
  300MOL0     H39589  11.367   4.365   0.301 -1.4380  0.0007 -0.5630
  300MOL0     H39590  11.531   4.024   0.489 -0.8569  0.1076 -3.2405
  300MOL0     H39591  11.692   4.093   0.518  0.8112  2.5192  0.7791
  300MOL0     H39592  11.677   4.004   0.279 -1.1884 -1.2568 -0.4045
  300MOL0     H39593  11.537   4.106   0.264 -0.1029  1.5813  2.2051
  300MOL0     H39594  11.667   4.310   0.256  0.6888  0.2429 -0.3853
  300MOL0     H39595  11.742   4.181   0.165  3.7896 -1.1894  0.7343
  300MOL0     H39596  11.809   4.293   0.438  1.7906  1.1793 -0.3098
  300MOL0     H39597  11.893   4.148   0.367 -0.7280 -1.2288 -0.1878
  300MOL0     H39598  12.111   4.421   0.147  1.9898 -4.4573  0.1724
  300MOL0     H39599  11.376   4.093   0.643 -1.3263 -1.7551 -1.7806
  300MOL0     H39600  11.122   4.118   0.650 -0.6413  2.2024  2.1689
  301MOL0     O39601   5.633  11.032   1.151  0.2256 -0.6211 -0.5325
  301MOL0     C39602   5.705  11.132   1.163 -0.0494  0.5461  0.8886
  301MOL0     O39603   5.673  11.265   1.137 -0.3049  0.0840 -0.0316
  301MOL0     C39604   5.575  11.322   1.208 -0.1888  0.1786 -0.2573
  301MOL0     C39605   5.478  11.409   1.144 -0.7149  0.4011 -1.2200
  301MOL0     C39606   5.364  11.445   1.205  0.4863  0.6006 -0.1984
  301MOL0     C39607   5.330  11.393   1.333  0.1879  0.1750 -0.4461
  301MOL0     O39608   5.212  11.423   1.399 -0.6424 -1.3514  0.2395
  301MOL0     C39609   5.165  11.350   1.521  1.1016  0.1749  0.1287
  301MOL0     C39610   5.127  11.199   1.492 -0.3546  0.3366  0.1605
  301MOL0     C39611   5.006  11.182   1.403  0.6715 -0.0562 -0.3251
  301MOL0     C39612   4.865  11.216   1.457  0.7295  0.3925 -0.2627
  301MOL0     C39613   4.805  11.117   1.564  0.3085  0.5595 -0.2312
  301MOL0     C39614   4.792  10.959   1.528 -0.0972 -0.7919 -0.5438
  301MOL0     C39615   4.718  10.922   1.391  0.2249 -0.1688  0.8639
  301MOL0     C39616   4.739  10.777   1.354 -0.4670 -0.0194 -0.5171
  301MOL0     N39617   4.656  10.737   1.250  0.0062  0.2103 -0.5781
  301MOL0     C39618   4.671  10.747   1.116 -0.3032 -0.2395  0.5241
  301MOL0     C39619   4.576  10.673   1.057  0.0635 -0.3133 -0.0123
  301MOL0     C39620   4.552  10.662   0.911  0.2922  0.1200  0.2481
  301MOL0     C39621   4.437  10.743   0.852 -0.0708  0.1399 -0.5570
  301MOL0     C39622   4.314  10.765   0.950 -0.2181 -0.0518  0.1761
  301MOL0     C39623   4.213  10.837   0.864 -0.4685 -0.0939 -0.2107
  301MOL0     O39624   4.101  10.887   0.938 -0.4755 -0.3066 -0.3487
  301MOL0     C39625   4.008  10.962   0.872  0.2907  0.0092  0.1375
  301MOL0     C39626   3.887  10.967   0.940 -0.5437  0.2889 -0.3969
  301MOL0     C39627   3.772  11.020   0.871  0.3143 -0.4266 -0.2229
  301MOL0     C39628   3.776  11.071   0.741 -0.1540  0.0751 -0.1158
  301MOL0     C39629   3.653  11.128   0.677  1.1081  0.7354 -1.3073
  301MOL0     O39630   3.646  11.153   0.545 -0.1893 -0.2137 -0.4472
  301MOL0     C39631   3.518  11.193   0.507  0.1403  0.0863  0.7211
  301MOL0     C39632   3.492  11.333   0.495  0.4316  0.1501  0.5276
  301MOL0     C39633   3.364  11.384   0.452 -0.5382  0.3044 -0.3434
  301MOL0     C39634   3.273  11.287   0.425 -0.3678 -0.3283  0.2783
  301MOL0     O39635   3.145  11.326   0.401  0.1337 -0.0049  0.8195
  301MOL0     C39636   3.115  11.321   0.261  0.2700 -0.5513  0.0947
  301MOL0     C39637   3.027  11.434   0.207  0.2649  0.8229 -0.2663
  301MOL0     C39638   2.889  11.430   0.270 -0.6627 -0.6142  0.6920
  301MOL0     C39639   2.795  11.539   0.219  0.3942  0.3276 -0.6475
  301MOL0     C39640   2.653  11.513   0.272  0.2958  0.4251 -0.4254
  301MOL0     C39641   2.555  11.629   0.248 -0.2246  0.8474  0.2999
  301MOL0     C39642   2.510  11.623   0.098 -0.1270  0.1701 -0.1985
  301MOL0     C39643   2.429  11.742   0.067  0.2002  0.5291  0.7820
  301MOL0    Cl39644   2.257  11.704   0.129 -0.2230  0.3365 -0.4492
  301MOL0     C39645   3.297  11.150   0.435  0.6007 -0.0647  0.4362
  301MOL0     C39646   3.418  11.103   0.465 -0.4595  0.4276  0.0166
  301MOL0     O39647   3.555  11.129   0.750  0.4614  0.9316 -0.4772
  301MOL0     C39648   3.905  11.082   0.672  0.1233 -0.2635  0.5149
  301MOL0     C39649   4.013  11.023   0.746  0.0966  0.1119  0.8151
  301MOL0     N39650   4.507  10.611   1.153  0.0226 -0.2199 -0.6055
  301MOL0     N39651   4.555  10.651   1.272 -0.5646 -0.1320  0.2356
  301MOL0     C39652   5.429  11.313   1.402 -0.7946  0.5919 -0.2102
  301MOL0     C39653   5.541  11.263   1.337 -0.6546 -1.2053 -0.0885
  301MOL0     C39654   5.843  11.110   1.203  0.1396  0.2167  0.4124
  301MOL0     C39655   5.873  10.994   1.269  0.0265 -0.4090 -1.0036
  301MOL0     C39656   6.002  10.957   1.307  0.0906  0.2960 -0.5917
  301MOL0     C39657   6.107  11.043   1.277 -0.1861 -0.2254 -0.1848
  301MOL0     O39658   6.241  11.022   1.321 -0.2406 -0.2208  1.0993
  301MOL0     C39659   6.288  10.882   1.334 -0.1751 -0.1107 -0.6540
  301MOL0     C39660   6.434  10.867   1.361 -0.1982 -1.6580  0.4080
  301MOL0     C39661   6.513  10.905   1.234 -1.0341 -0.7874 -1.7080
  301MOL0     C39662   6.667  10.931   1.273  0.5054  0.2316 -0.0057
  301MOL0     C39663   6.737  10.799   1.285  1.3026  0.2243  0.5326
  301MOL0     C39664   6.775  10.682   1.284  0.1072  0.0407 -1.0362
  301MOL0     C39665   6.079  11.164   1.217  0.0996 -0.2090  0.7201
  301MOL0     C39666   5.948  11.196   1.181 -0.8166 -0.0547  0.4600
  301MOL0     H39667   5.501  11.446   1.044  3.6064  1.1100 -0.1719
  301MOL0     H39668   5.289  11.508   1.158 -2.0265 -2.2583 -0.3957
  301MOL0     H39669   5.078  11.399   1.567  1.2058 -0.7144  1.3419
  301MOL0     H39670   5.235  11.344   1.604  0.4468 -0.4347  0.6478
  301MOL0     H39671   5.095  11.145   1.582  1.8265 -1.9924 -0.3610
  301MOL0     H39672   5.212  11.142   1.454 -0.4496  1.2948 -1.5922
  301MOL0     H39673   5.005  11.075   1.382 -0.0706 -1.2142  4.4187
  301MOL0     H39674   5.027  11.244   1.315  0.8113  1.2793  0.6093
  301MOL0     H39675   4.860  11.317   1.498 -2.4519 -0.3422  1.4503
  301MOL0     H39676   4.796  11.207   1.372 -0.0138 -0.5410  0.4218
  301MOL0     H39677   4.703  11.153   1.583  0.7659  0.4003  3.1347
  301MOL0     H39678   4.868  11.132   1.652  1.2209 -0.7469 -0.6471
  301MOL0     H39679   4.738  10.913   1.610  2.3916 -0.9463  1.1138
  301MOL0     H39680   4.894  10.920   1.529  0.1207 -0.2966  1.9740
  301MOL0     H39681   4.610  10.937   1.390 -0.3463 -3.3658 -1.6952
  301MOL0     H39682   4.752  10.989   1.311 -2.2987  0.9675  0.6407
  301MOL0     H39683   4.720  10.715   1.442  1.3557 -1.2974 -0.9880
  301MOL0     H39684   4.842  10.762   1.320 -0.5666 -0.6512 -0.5404
  301MOL0     H39685   4.733  10.825   1.073  1.2556 -1.3145  0.7216
  301MOL0     H39686   4.519  10.559   0.892 -1.0927  0.7076 -0.6330
  301MOL0     H39687   4.638  10.692   0.850 -1.5148 -1.0031 -3.1070
  301MOL0     H39688   4.399  10.687   0.765 -1.4672 -0.3864  0.3461
  301MOL0     H39689   4.472  10.841   0.818  1.1735  0.6820  2.0709
  301MOL0     H39690   4.270  10.667   0.970  2.9125 -1.6977 -0.3171
  301MOL0     H39691   4.339  10.820   1.042  1.9909  2.0880 -1.5657
  301MOL0     H39692   4.178  10.774   0.781  1.0770  1.4600 -2.1427
  301MOL0     H39693   4.262  10.917   0.807  0.1194 -1.5503 -1.8472
  301MOL0     H39694   3.888  10.917   1.036  3.3952  0.4266 -0.2006
  301MOL0     H39695   3.681  10.998   0.927  0.0006 -3.3985 -1.6714
  301MOL0     H39696   3.580  11.395   0.501  2.2418 -2.1598 -0.5781
  301MOL0     H39697   3.359  11.490   0.434 -0.4906  0.3191 -0.2697
  301MOL0     H39698   3.078  11.220   0.242  0.0831 -0.7280  1.3142
  301MOL0     H39699   3.208  11.329   0.204  0.6229 -0.6878  0.6375
  301MOL0     H39700   3.017  11.419   0.099  0.7877  1.1004 -0.3519
  301MOL0     H39701   3.083  11.527   0.222  1.3707  0.4119 -1.6398
  301MOL0     H39702   2.891  11.424   0.380  0.1374 -3.0534  0.6060
  301MOL0     H39703   2.850  11.330   0.248  0.5511 -1.0686  0.5375
  301MOL0     H39704   2.824  11.643   0.238  1.6178 -0.3999  1.8113
  301MOL0     H39705   2.789  11.531   0.110  0.3841 -1.6522 -0.5321
  301MOL0     H39706   2.675  11.495   0.378  0.5528 -2.4886 -0.8849
  301MOL0     H39707   2.615  11.414   0.247 -1.0195  0.5605  0.9107
  301MOL0     H39708   2.610  11.721   0.270  1.8163 -0.3133  0.3059
  301MOL0     H39709   2.475  11.628   0.323  1.9807  0.5221  2.7897
  301MOL0     H39710   2.592  11.614   0.026 -2.4665  0.1649 -3.0436
  301MOL0     H39711   2.456  11.528   0.090  2.8230 -1.5332 -1.5737
  301MOL0     H39712   2.419  11.764  -0.040 -1.9053 -1.1448  0.5837
  301MOL0     H39713   2.472  11.827   0.122 -2.0000  1.0607  1.7819
  301MOL0     H39714   3.206  11.099   0.405 -2.5571  4.2126  1.8477
  301MOL0     H39715   3.444  10.998   0.458 -1.3216  0.2070 -0.0679
  301MOL0     H39716   3.902  11.123   0.572 -4.2434 -0.6245  0.3139
  301MOL0     H39717   4.106  11.019   0.690 -0.7090  1.0061 -0.6515
  301MOL0     H39718   5.415  11.296   1.509 -0.2341  3.0582  0.3084
  301MOL0     H39719   5.624  11.204   1.374  3.0958  2.7110 -1.4342
  301MOL0     H39720   5.792  10.923   1.280  1.0823 -1.2159  4.1216
  301MOL0     H39721   6.024  10.859   1.347  0.4676 -0.2335 -2.0103
  301MOL0     H39722   6.262  10.834   1.240 -2.2225  3.4414 -2.0799
  301MOL0     H39723   6.237  10.831   1.416 -0.4595  1.1132 -0.0409
  301MOL0     H39724   6.467  10.915   1.453 -0.0774 -1.9997  0.5425
  301MOL0     H39725   6.445  10.759   1.371 -1.2320 -2.0342 -1.8664
  301MOL0     H39726   6.473  10.999   1.193 -1.3791 -0.5721 -0.8915
  301MOL0     H39727   6.504  10.834   1.151  0.0133 -1.8807 -0.9185
  301MOL0     H39728   6.712  10.976   1.184  1.3316 -2.4185 -1.0081
  301MOL0     H39729   6.671  10.991   1.364 -2.9857 -0.1549  0.5581
  301MOL0     H39730   6.806  10.580   1.273 -3.3411 -1.0416 -1.9366
  301MOL0     H39731   6.156  11.238   1.201 -0.4977  0.9731  2.8905
  301MOL0     H39732   5.927  11.287   1.126  0.6845  0.4508  0.6795
  302MOL0     O39733   0.715   3.109  10.525 -0.7298  0.1851  0.4223
  302MOL0     C39734   0.730   3.039  10.625  1.1863 -0.6816 -0.1677
  302MOL0     O39735   0.800   3.066  10.734 -0.4338 -0.6153  0.8367
  302MOL0     C39736   0.817   3.199  10.768  0.7207  0.5716  0.3677
  302MOL0     C39737   0.945   3.231  10.816  0.0305 -0.1628  0.1970
  302MOL0     C39738   0.986   3.356  10.861 -0.1412  1.0070 -0.2044
  302MOL0     C39739   0.885   3.455  10.846 -0.2168  0.2704  1.1502
  302MOL0     O39740   0.918   3.579  10.883 -0.4144 -0.1196 -0.2191
  302MOL0     C39741   1.005   3.645  10.782 -0.1603 -0.0571 -0.5841
  302MOL0     C39742   1.004   3.794  10.803 -0.4761 -0.3453  0.2282
  302MOL0     C39743   1.099   3.856  10.708 -0.5851  0.9249  0.9807
  302MOL0     C39744   1.243   3.841  10.749 -0.2330  0.5608 -0.7301
  302MOL0     C39745   1.341   3.930  10.675 -0.1475  0.0685 -0.9875
  302MOL0     C39746   1.490   3.949  10.730 -0.6862 -0.0501 -0.1981
  302MOL0     C39747   1.577   3.829  10.698  1.4250  0.9713  0.0247
  302MOL0     C39748   1.707   3.861  10.783 -0.2663  0.8213 -0.2976
  302MOL0     N39749   1.823   3.800  10.724 -0.6623  1.0902  0.7301
  302MOL0     C39750   1.882   3.672  10.756 -0.4667 -0.2063 -0.0430
  302MOL0     C39751   1.976   3.657  10.657 -0.1088  0.1406 -0.1561
  302MOL0     C39752   2.083   3.549  10.642 -0.0078 -0.7750  0.9244
  302MOL0     C39753   2.163   3.544  10.769  1.0658  0.2194  1.0204
  302MOL0     C39754   2.263   3.663  10.783 -0.1678 -0.3614 -0.4103
  302MOL0     C39755   2.408   3.623  10.818 -0.1174 -0.9440  0.2346
  302MOL0     O39756   2.480   3.745  10.816 -0.2935 -0.0823 -0.3808
  302MOL0     C39757   2.607   3.753  10.864 -0.3543 -0.2913  0.1171
  302MOL0     C39758   2.673   3.874  10.831  1.2449 -0.2553 -0.2382
  302MOL0     C39759   2.806   3.896  10.871  0.1277 -0.5700 -0.1671
  302MOL0     C39760   2.879   3.799  10.940 -0.0981  0.7438  1.3776
  302MOL0     C39761   3.014   3.827  10.970 -0.5112  0.4177  0.9068
  302MOL0     O39762   3.069   3.738  11.058 -0.5965 -1.0184 -0.5586
  302MOL0     C39763   3.201   3.743  11.110 -0.1424  0.5046 -0.6556
  302MOL0     C39764   3.296   3.841  11.095 -0.0680  0.3702 -0.0755
  302MOL0     C39765   3.418   3.827  11.156 -0.0619  0.1850 -0.7921
  302MOL0     C39766   3.453   3.714  11.233  0.8340 -0.0577  0.6561
  302MOL0     O39767   3.576   3.707  11.290 -0.4144  0.4637 -0.2119
  302MOL0     C39768   3.610   3.584  11.356 -0.3722 -0.5235 -1.1642
  302MOL0     C39769   3.761   3.604  11.412  0.0090 -0.1388  0.0856
  302MOL0     C39770   3.804   3.471  11.475  0.2055 -0.3775  0.0296
  302MOL0     C39771   3.952   3.468  11.517 -0.3540 -0.0234  0.3648
  302MOL0     C39772   3.972   3.540  11.652 -0.0218 -0.7372 -0.2452
  302MOL0     C39773   4.117   3.547  11.691 -0.9244  0.3016 -0.2529
  302MOL0     C39774   4.135   3.629  11.819  0.5887  0.7452 -0.0344
  302MOL0     C39775   4.255   3.576  11.895 -0.0426  0.0621  0.0431
  302MOL0    Cl39776   4.243   3.403  11.959 -0.1192 -0.2524  0.2287
  302MOL0     C39777   3.354   3.615  11.256  0.3849  0.3306  0.0318
  302MOL0     C39778   3.224   3.633  11.202 -1.0148 -0.2763  0.4162
  302MOL0     O39779   3.069   3.923  10.926  0.2672 -0.1684  0.0190
  302MOL0     C39780   2.807   3.676  10.974 -0.3121 -0.1544  0.1411
  302MOL0     C39781   2.677   3.655  10.931 -0.5945  0.2954 -0.0030
  302MOL0     N39782   1.967   3.755  10.566  0.1592  0.4716  0.3469
  302MOL0     N39783   1.868   3.835  10.598  0.8263  0.2979  0.2655
  302MOL0     C39784   0.759   3.432  10.787 -0.2849  0.4917  0.4877
  302MOL0     C39785   0.719   3.302  10.749 -0.0182  0.1840 -1.0051
  302MOL0     C39786   0.674   2.898  10.611 -0.2483 -0.1072 -0.3208
  302MOL0     C39787   0.637   2.839  10.497  0.4939 -0.4861  1.3670
  302MOL0     C39788   0.605   2.705  10.490 -0.2132 -0.3755  0.0857
  302MOL0     C39789   0.609   2.624  10.606  0.1783 -0.1277 -0.0794
  302MOL0     O39790   0.593   2.485  10.617  1.1251  0.7628  0.6007
  302MOL0     C39791   0.463   2.425  10.624  0.1930 -0.5403 -0.7241
  302MOL0     C39792   0.410   2.437  10.767  0.0160 -1.1383  0.9732
  302MOL0     C39793   0.486   2.358  10.872  0.2822 -0.6473  0.2062
  302MOL0     C39794   0.405   2.338  10.999 -0.7492  0.7087 -0.3441
  302MOL0     C39795   0.500   2.283  11.091 -1.2330  0.4346 -0.2088
  302MOL0     C39796   0.591   2.232  11.156  0.2847 -1.0375  0.0405
  302MOL0     C39797   0.652   2.684  10.722  0.2147  0.0500  0.6440
  302MOL0     C39798   0.688   2.813  10.726 -0.6107 -0.1604  0.0757
  302MOL0     H39799   1.018   3.151  10.825  0.8793  0.8133  4.2088
  302MOL0     H39800   1.080   3.381  10.910 -0.4481  0.5283  0.6438
  302MOL0     H39801   0.976   3.611  10.682 -0.4261  0.6568 -0.7560
  302MOL0     H39802   1.108   3.610  10.798 -0.5650 -2.2063 -2.3357
  302MOL0     H39803   1.031   3.823  10.905 -0.2992  0.9436 -0.1629
  302MOL0     H39804   0.904   3.828  10.778  0.0638  1.3498  0.2297
  302MOL0     H39805   1.073   3.962  10.709 -1.9355  0.6136  1.0063
  302MOL0     H39806   1.083   3.835  10.602 -1.4642  1.6791  0.9525
  302MOL0     H39807   1.251   3.863  10.856  4.8016 -1.4426 -0.4044
  302MOL0     H39808   1.280   3.741  10.723 -0.4650  0.2991 -0.0754
  302MOL0     H39809   1.306   4.033  10.687  2.4247  0.7945  1.2445
  302MOL0     H39810   1.335   3.900  10.570 -2.8899  1.7756 -1.4052
  302MOL0     H39811   1.497   3.971  10.837  3.5609 -1.6085  0.0281
  302MOL0     H39812   1.539   4.033  10.681 -1.2373 -0.1016 -0.8602
  302MOL0     H39813   1.547   3.726  10.717  2.2496  0.8164  0.5179
  302MOL0     H39814   1.600   3.833  10.591 -4.1840 -0.4279 -1.6029
  302MOL0     H39815   1.696   3.809  10.879  0.4136  0.4680 -0.4077
  302MOL0     H39816   1.732   3.965  10.805 -0.9946  0.4894  2.5405
  302MOL0     H39817   1.874   3.612  10.846  2.0785 -0.9055 -0.2090
  302MOL0     H39818   2.132   3.571  10.547 -2.2141 -0.4131 -0.1980
  302MOL0     H39819   2.031   3.453  10.644 -0.0935 -0.7475  3.4158
  302MOL0     H39820   2.222   3.452  10.768 -1.1291 -1.5909 -4.5929
  302MOL0     H39821   2.091   3.533  10.851  1.2260 -0.6755  1.0564
  302MOL0     H39822   2.271   3.716  10.687  4.7344 -1.2898 -0.8037
  302MOL0     H39823   2.223   3.738  10.851  2.5431  1.0557 -0.2236
  302MOL0     H39824   2.459   3.557  10.748  2.6438 -0.0012  1.2278
  302MOL0     H39825   2.406   3.583  10.920  1.7824 -0.6197  0.4333
  302MOL0     H39826   2.617   3.936  10.762  0.9624 -1.3045 -0.9724
  302MOL0     H39827   2.854   3.992  10.854 -1.6567  0.7016  1.4723
  302MOL0     H39828   3.290   3.923  11.024  3.4844  1.2771  0.4532
  302MOL0     H39829   3.496   3.902  11.153  2.0052 -1.7428  1.0611
  302MOL0     H39830   3.609   3.492  11.298  1.1669 -3.7616  3.4268
  302MOL0     H39831   3.539   3.572  11.438  2.1713  1.4003  1.5449
  302MOL0     H39832   3.758   3.669  11.500 -1.2360  0.3423 -0.2846
  302MOL0     H39833   3.839   3.632  11.340  1.0025 -0.5592  0.9645
  302MOL0     H39834   3.781   3.386  11.411  0.1157 -0.0320 -0.4026
  302MOL0     H39835   3.737   3.459  11.561 -1.9833 -2.2470 -1.7886
  302MOL0     H39836   3.975   3.363  11.534 -0.6453 -0.5519 -2.0831
  302MOL0     H39837   4.022   3.507  11.442 -0.3571  0.5925  0.6785
  302MOL0     H39838   3.913   3.495  11.732 -3.3206  2.1542 -0.8058
  302MOL0     H39839   3.935   3.642  11.640  0.6119 -0.7661 -3.0601
  302MOL0     H39840   4.171   3.592  11.607 -0.4722  0.6058  0.1942
  302MOL0     H39841   4.155   3.445  11.678 -0.2500  0.9271 -4.4239
  302MOL0     H39842   4.153   3.735  11.800 -4.0814  2.2921  2.5477
  302MOL0     H39843   4.046   3.632  11.882  1.9918  2.3714  1.9973
  302MOL0     H39844   4.270   3.647  11.978 -1.3966  2.3675 -1.5720
  302MOL0     H39845   4.344   3.573  11.831  0.8767 -1.2937  1.3245
  302MOL0     H39846   3.377   3.522  11.307  1.2912  1.7114  2.2667
  302MOL0     H39847   3.143   3.563  11.222 -1.1582  0.0129  0.8613
  302MOL0     H39848   2.862   3.599  11.027 -1.7070 -0.6311  0.9444
  302MOL0     H39849   2.627   3.568  10.973 -1.5467  0.7805 -0.1210
  302MOL0     H39850   0.685   3.509  10.769 -2.5478 -2.1624 -2.8603
  302MOL0     H39851   0.616   3.273  10.734 -0.2743  1.1150 -1.0865
  302MOL0     H39852   0.628   2.901  10.409  0.9158 -0.7068  1.1650
  302MOL0     H39853   0.566   2.659  10.399 -0.3282  4.7330 -2.8371
  302MOL0     H39854   0.473   2.317  10.609  1.9315 -0.9420  2.5252
  302MOL0     H39855   0.399   2.475  10.551 -1.4452 -1.1258  0.2526
  302MOL0     H39856   0.409   2.536  10.815 -0.0734 -1.4031  1.5273
  302MOL0     H39857   0.305   2.408  10.761  0.3750 -2.0931 -3.1156
  302MOL0     H39858   0.573   2.421  10.893 -0.5969  0.6215  0.1720
  302MOL0     H39859   0.517   2.264  10.825  1.7494  1.9568 -4.9042
  302MOL0     H39860   0.366   2.435  11.029  0.5241  1.6634 -1.6122
  302MOL0     H39861   0.322   2.270  10.978 -1.6762  1.8050 -0.2881
  302MOL0     H39862   0.661   2.168  11.205 -0.8371 -1.7684  0.7468
  302MOL0     H39863   0.669   2.620  10.808 -0.7989 -0.7747  0.2471
  302MOL0     H39864   0.728   2.854  10.818  2.8029  1.5369 -1.9505
  303MOL0     O39865   6.478   2.933   5.380 -0.6683 -1.0100 -0.4794
  303MOL0     C39866   6.575   2.939   5.451 -0.9530  0.1858 -0.0277
  303MOL0     O39867   6.696   2.900   5.406 -0.3291 -0.8111 -0.0481
  303MOL0     C39868   6.716   2.874   5.277 -0.8949  0.0987  0.5010
  303MOL0     C39869   6.680   2.965   5.167  0.4294  1.1650  0.9018
  303MOL0     C39870   6.727   2.943   5.037  0.0167  0.4146  0.2826
  303MOL0     C39871   6.788   2.818   5.000  0.4509 -0.3999  0.1714
  303MOL0     O39872   6.788   2.790   4.859  0.0875 -1.0387  0.0022
  303MOL0     C39873   6.830   2.660   4.800  0.6346  0.7596 -0.1275
  303MOL0     C39874   6.835   2.662   4.652  0.6013  0.9241 -0.8178
  303MOL0     C39875   6.956   2.750   4.609  0.3156 -0.0002  1.1806
  303MOL0     C39876   6.952   2.788   4.461 -0.2681 -0.7925 -0.0485
  303MOL0     C39877   7.067   2.884   4.422 -0.6455  0.8613 -0.1367
  303MOL0     C39878   7.052   2.919   4.274 -0.3642  0.4228  0.1396
  303MOL0     C39879   7.193   2.972   4.219 -0.1363 -0.0620  0.1834
  303MOL0     C39880   7.282   2.860   4.168  0.3376  0.2186 -0.0649
  303MOL0     N39881   7.361   2.918   4.059  0.3982 -0.0540  0.6836
  303MOL0     C39882   7.462   3.006   4.077 -0.1045 -0.4354  0.4089
  303MOL0     C39883   7.523   3.013   3.956 -0.3483 -0.5147 -0.7317
  303MOL0     C39884   7.642   3.098   3.927 -0.3685  0.4689 -0.1732
  303MOL0     C39885   7.771   3.043   3.982 -0.0634 -0.4534 -0.1303
  303MOL0     C39886   7.832   2.938   3.888  0.7262 -0.0797  0.2315
  303MOL0     C39887   7.876   2.820   3.960 -0.2052  0.1166 -0.2933
  303MOL0     O39888   7.968   2.857   4.062 -0.0696  0.4247  0.0581
  303MOL0     C39889   8.064   2.771   4.098 -0.5073  0.2552 -0.0869
  303MOL0     C39890   8.182   2.834   4.143  0.8143 -0.2347  0.3884
  303MOL0     C39891   8.299   2.752   4.173  0.1278 -1.1417 -0.3189
  303MOL0     C39892   8.297   2.614   4.159  0.1715 -0.2906  0.4909
  303MOL0     C39893   8.414   2.542   4.179 -0.0010  0.2800  0.5208
  303MOL0     O39894   8.506   2.603   4.253 -0.5964 -0.1727 -0.1132
  303MOL0     C39895   8.607   2.521   4.289  0.1066  0.4203  0.1423
  303MOL0     C39896   8.591   2.447   4.410  0.9142 -1.4854  0.0225
  303MOL0     C39897   8.708   2.371   4.459  0.8678 -0.3686 -0.0255
  303MOL0     C39898   8.824   2.367   4.387 -1.3912  0.6802  0.7288
  303MOL0     O39899   8.944   2.321   4.445  0.5962  0.0323 -0.2773
  303MOL0     C39900   8.932   2.182   4.480 -0.0633 -0.0716 -0.2511
  303MOL0     C39901   9.069   2.118   4.502  0.1116  1.4984 -0.0561
  303MOL0     C39902   9.064   1.970   4.550 -1.5902  0.3994  0.5887
  303MOL0     C39903   9.200   1.916   4.610  0.1471  0.6862 -0.4196
  303MOL0     C39904   9.263   1.965   4.741  0.1719  0.4647 -0.1550
  303MOL0     C39905   9.271   2.115   4.762 -0.4628  0.4136 -0.4459
  303MOL0     C39906   9.364   2.160   4.871  0.4727  0.0084 -0.1340
  303MOL0     C39907   9.499   2.099   4.873  0.1688  0.0892  1.5481
  303MOL0    Cl39908   9.597   2.172   5.005 -0.5734  0.2519  0.3837
  303MOL0     C39909   8.827   2.432   4.266 -0.4428  0.8080  0.1330
  303MOL0     C39910   8.730   2.515   4.223  0.0422  0.5557 -0.8586
  303MOL0     O39911   8.416   2.424   4.154 -0.1317 -0.1930 -1.4493
  303MOL0     C39912   8.174   2.557   4.124 -0.3313 -0.0534 -0.7304
  303MOL0     C39913   8.060   2.636   4.093 -0.7260  0.3285 -0.2947
  303MOL0     N39914   7.456   2.937   3.872  0.1751  0.8087 -0.1935
  303MOL0     N39915   7.360   2.874   3.935 -0.5764 -0.1628  0.1741
  303MOL0     C39916   6.829   2.722   5.103 -0.5267  0.9127  0.8620
  303MOL0     C39917   6.790   2.751   5.231 -0.0171  0.2865 -0.5629
  303MOL0     C39918   6.554   2.979   5.597 -0.5148 -0.5899  0.2759
  303MOL0     C39919   6.661   2.978   5.694 -0.0648  0.3202  0.4711
  303MOL0     C39920   6.633   3.003   5.831  0.0735  0.0909 -0.4398
  303MOL0     C39921   6.515   3.044   5.880  1.2860 -0.8569 -0.1776
  303MOL0     O39922   6.501   3.072   6.014 -0.4056  0.4666  0.8553
  303MOL0     C39923   6.366   3.085   6.069  0.0949 -0.8569  0.3142
  303MOL0     C39924   6.370   3.073   6.226 -0.2679  0.5997  0.4818
  303MOL0     C39925   6.235   3.069   6.304  0.5186 -0.1997  0.7388
  303MOL0     C39926   6.226   2.971   6.416 -0.1585 -0.5984  0.0509
  303MOL0     C39927   6.215   2.830   6.384 -1.2222 -0.2892  0.8549
  303MOL0     C39928   6.196   2.711   6.359  0.1316 -0.4096  0.0096
  303MOL0     C39929   6.406   3.058   5.787  0.2570 -1.0434 -0.1413
  303MOL0     C39930   6.420   3.020   5.652  0.1085 -0.8935 -0.2593
  303MOL0     H39931   6.635   3.064   5.180  0.8498  1.1147  3.0523
  303MOL0     H39932   6.698   3.017   4.962 -0.7924 -0.7108 -0.5412
  303MOL0     H39933   6.758   2.587   4.838  0.7872  1.3287  1.2897
  303MOL0     H39934   6.920   2.616   4.842 -1.9403 -2.3477  2.7316
  303MOL0     H39935   6.742   2.715   4.629 -0.8387 -0.6094  1.1525
  303MOL0     H39936   6.833   2.562   4.609  2.9392  0.3485  0.2647
  303MOL0     H39937   7.039   2.680   4.624  0.0087 -0.7992 -0.5864
  303MOL0     H39938   6.956   2.844   4.665 -3.3318  2.7422 -2.7572
  303MOL0     H39939   6.970   2.693   4.411 -1.3778 -0.8516 -0.3710
  303MOL0     H39940   6.861   2.841   4.430 -1.3448 -2.4178  0.2324
  303MOL0     H39941   7.159   2.826   4.436 -0.0196  2.0975  1.0961
  303MOL0     H39942   7.075   2.978   4.477  3.8529  1.7586 -1.9100
  303MOL0     H39943   6.992   3.009   4.257  0.6741  1.3782  1.3666
  303MOL0     H39944   7.014   2.830   4.222 -1.2956 -0.3488  2.0585
  303MOL0     H39945   7.179   3.045   4.139 -1.4647 -0.2584  0.2262
  303MOL0     H39946   7.246   3.024   4.300 -0.4559  1.6170 -0.6308
  303MOL0     H39947   7.216   2.783   4.128  0.0660  0.5631 -0.2892
  303MOL0     H39948   7.349   2.815   4.241  2.2077 -0.8551 -2.3084
  303MOL0     H39949   7.483   3.059   4.170  0.3360  0.7738 -0.3628
  303MOL0     H39950   7.602   3.191   3.967 -3.4304  0.2181 -2.3092
  303MOL0     H39951   7.653   3.102   3.818  1.3614  0.6393 -0.0217
  303MOL0     H39952   7.760   3.020   4.089  1.2773  0.1209  0.1407
  303MOL0     H39953   7.844   3.124   3.983 -2.8813  2.3373  2.2488
  303MOL0     H39954   7.764   2.901   3.811  1.6102 -0.8362 -0.1903
  303MOL0     H39955   7.926   2.979   3.851  0.9417 -0.6458  0.1434
  303MOL0     H39956   7.922   2.761   3.880 -2.3407 -0.6059 -1.0671
  303MOL0     H39957   7.789   2.768   4.001  1.6223  0.3202  4.3924
  303MOL0     H39958   8.189   2.939   4.171  0.9246 -0.1118 -0.0808
  303MOL0     H39959   8.386   2.813   4.194 -0.4082 -0.1495 -0.9062
  303MOL0     H39960   8.493   2.446   4.457 -1.1484  2.7041 -3.4866
  303MOL0     H39961   8.698   2.312   4.550  0.9404  1.2283  1.0562
  303MOL0     H39962   8.875   2.129   4.403  1.8235 -5.2363  1.4918
  303MOL0     H39963   8.877   2.166   4.573  3.1530 -1.0675  1.6494
  303MOL0     H39964   9.112   2.188   4.574 -0.4596  0.3805  1.4210
  303MOL0     H39965   9.127   2.123   4.409  1.9888 -1.4293  0.8269
  303MOL0     H39966   9.048   1.909   4.461  1.3512  1.4026 -0.7506
  303MOL0     H39967   8.975   1.945   4.608 -1.1602 -0.3892  0.9193
  303MOL0     H39968   9.194   1.807   4.620 -0.0060  0.8566  1.6309
  303MOL0     H39969   9.277   1.939   4.535 -0.8776  3.2631 -0.7833
  303MOL0     H39970   9.356   1.909   4.741  0.6458  1.2389 -0.2440
  303MOL0     H39971   9.211   1.932   4.832  0.0493 -1.6102 -0.9248
  303MOL0     H39972   9.175   2.154   4.795 -1.0203 -0.6071 -0.8380
  303MOL0     H39973   9.285   2.158   4.662 -0.7824 -2.4064 -1.8072
  303MOL0     H39974   9.367   2.269   4.869 -1.1669  0.0801 -0.1097
  303MOL0     H39975   9.311   2.127   4.961  0.0204 -3.5270 -1.5204
  303MOL0     H39976   9.546   2.105   4.775  2.0332 -6.2695  1.5806
  303MOL0     H39977   9.500   1.990   4.887 -2.5052 -0.7536 -2.8921
  303MOL0     H39978   8.920   2.431   4.211  0.1124 -2.3981  0.9617
  303MOL0     H39979   8.743   2.555   4.123 -4.0892 -2.5749 -2.9514
  303MOL0     H39980   8.173   2.448   4.120  2.7096 -0.3523  2.0480
  303MOL0     H39981   7.974   2.580   4.060  0.3578 -2.6132  1.4567
  303MOL0     H39982   6.888   2.634   5.077  0.3891  0.6756  3.4627
  303MOL0     H39983   6.802   2.666   5.298  0.8139 -0.2771 -1.4003
  303MOL0     H39984   6.761   2.943   5.670  0.0565  1.5130 -0.8630
  303MOL0     H39985   6.712   2.991   5.904  2.1278 -1.1748 -2.7485
  303MOL0     H39986   6.310   2.998   6.036  1.1973 -2.4730  2.4326
  303MOL0     H39987   6.301   3.167   6.036 -0.9536 -2.2560 -1.2097
  303MOL0     H39988   6.407   2.971   6.240  0.7358  0.3445 -3.1116
  303MOL0     H39989   6.448   3.137   6.268  1.1458  1.0861 -2.6199
  303MOL0     H39990   6.156   3.030   6.239  1.0276 -2.1473  1.2163
  303MOL0     H39991   6.207   3.168   6.342 -1.2152  0.7281 -2.5621
  303MOL0     H39992   6.307   2.980   6.488  0.5144 -0.0590 -0.7478
  303MOL0     H39993   6.134   3.004   6.466  2.0741  1.0277  3.4511
  303MOL0     H39994   6.184   2.605   6.348 -0.6473 -0.4325  0.9617
  303MOL0     H39995   6.310   3.087   5.828  2.0912  0.6191  3.5010
  303MOL0     H39996   6.341   3.034   5.579 -0.9549 -1.3249  0.7664
  304MOL0     O39997   0.591   6.028   5.299  0.4771  0.3599 -1.2110
  304MOL0     C39998   0.592   6.045   5.425  0.3106 -0.7554 -0.2336
  304MOL0     O39999   0.494   6.036   5.516  0.2257 -0.7749  0.1039
  304MOL0     C40000   0.358   6.032   5.479  0.4650 -0.1728 -0.3097
  304MOL0     C40001   0.307   6.104   5.376  0.3020  0.7149 -0.0362
  304MOL0     C40002   0.163   6.097   5.348 -0.6867 -0.5288 -0.1180
  304MOL0     C40003   0.066   6.017   5.420 -0.3405 -1.2427  0.0571
  304MOL0     O40004  -0.070   6.006   5.399 -0.7660  0.9352  0.1532
  304MOL0     C40005  -0.131   6.120   5.335 -0.9611  0.5300  0.8009
  304MOL0     C40006  -0.280   6.108   5.339 -0.2528  0.3326  0.4673
  304MOL0     C40007  -0.317   5.985   5.258  0.3389 -0.3825 -0.3381
  304MOL0     C40008  -0.471   5.976   5.264  0.4372  0.4035 -0.4882
  304MOL0     C40009  -0.520   5.860   5.176 -0.0318 -0.0993  0.6586
  304MOL0     C40010  -0.676   5.856   5.183  0.0760  1.1889  0.3731
  304MOL0     C40011  -0.739   5.739   5.112 -0.1192 -0.7143  0.1053
  304MOL0     C40012  -0.734   5.747   4.955 -0.2448  0.1226 -0.5011
  304MOL0     N40013  -0.746   5.618   4.875  0.5843 -0.2879 -0.2169
  304MOL0     C40014  -0.863   5.567   4.840  0.8051  0.2597  0.2846
  304MOL0     C40015  -0.837   5.462   4.764  1.2510 -1.0115 -0.4823
  304MOL0     C40016  -0.937   5.353   4.718 -0.3003 -0.7333 -0.4598
  304MOL0     C40017  -0.902   5.220   4.786  0.7016  0.1354 -0.8073
  304MOL0     C40018  -0.883   5.221   4.940 -0.0328 -0.2263 -0.0457
  304MOL0     C40019  -1.002   5.279   5.015  0.0799 -0.8010  0.6493
  304MOL0     O40020  -1.120   5.278   4.932  0.3411 -0.3733  0.1991
  304MOL0     C40021  -1.236   5.249   5.000  0.8541  0.5632 -0.0334
  304MOL0     C40022  -1.295   5.341   5.099 -0.7801  0.4880  0.8680
  304MOL0     C40023  -1.414   5.319   5.149  0.3101  0.2229  0.7579
  304MOL0     C40024  -1.495   5.211   5.105 -0.2854  0.0082 -0.7813
  304MOL0     C40025  -1.625   5.200   5.177 -0.3872 -0.9726  0.0969
  304MOL0     O40026  -1.657   5.300   5.270  0.4314  0.1427  0.3004
  304MOL0     C40027  -1.777   5.288   5.345 -0.4909 -0.9886  0.8414
  304MOL0     C40028  -1.840   5.407   5.374 -0.0208  0.3436 -0.0155
  304MOL0     C40029  -1.949   5.412   5.468  0.0324 -0.1619  0.8576
  304MOL0     C40030  -1.994   5.301   5.533  0.0076  0.0053  0.2449
  304MOL0     O40031  -2.106   5.284   5.619 -0.5334 -1.0563 -0.0823
  304MOL0     C40032  -2.120   5.407   5.709  0.0006  0.9159  0.4790
  304MOL0     C40033  -2.046   5.389   5.844  0.1047 -0.0998  1.5982
  304MOL0     C40034  -2.117   5.487   5.939 -0.0080 -0.5227 -0.1235
  304MOL0     C40035  -2.035   5.522   6.066  0.2941  0.6089  0.2052
  304MOL0     C40036  -2.121   5.609   6.155  0.6635 -1.1004  0.6459
  304MOL0     C40037  -2.040   5.648   6.280  0.4024  0.3243  0.3694
  304MOL0     C40038  -2.109   5.768   6.351  0.2995  0.1435 -0.4794
  304MOL0     C40039  -2.054   5.784   6.493  0.3304 -0.5687 -0.0724
  304MOL0    Cl40040  -2.107   5.662   6.610 -0.5114  0.1447  0.3173
  304MOL0     C40041  -1.937   5.181   5.495  0.8493  0.9718  0.5879
  304MOL0     C40042  -1.835   5.173   5.395  0.7463 -0.6018 -0.0533
  304MOL0     O40043  -1.694   5.104   5.127  0.1771 -0.3416 -0.2357
  304MOL0     C40044  -1.454   5.137   4.995 -0.3187  0.2493 -0.2090
  304MOL0     C40045  -1.322   5.155   4.951 -0.2516 -0.7215 -0.2683
  304MOL0     N40046  -0.698   5.468   4.735  0.6823  1.1282  0.6611
  304MOL0     N40047  -0.644   5.560   4.802  0.1760 -1.0690  0.0155
  304MOL0     C40048   0.133   5.942   5.522  0.5379  0.6401 -0.2462
  304MOL0     C40049   0.264   5.945   5.555 -0.4340 -0.4128 -0.0026
  304MOL0     C40050   0.741   6.057   5.479  0.6620  0.7819 -0.2188
  304MOL0     C40051   0.761   6.002   5.604  0.1453  0.1607  0.1927
  304MOL0     C40052   0.888   6.010   5.663 -0.0861 -0.9030 -0.5575
  304MOL0     C40053   0.998   6.081   5.607  0.5130  0.3688 -0.6890
  304MOL0     O40054   1.125   6.095   5.664 -0.1152 -0.4956 -0.1216
  304MOL0     C40055   1.174   6.064   5.789 -0.0434 -0.0726  0.0077
  304MOL0     C40056   1.107   6.131   5.911  0.5749  1.1986  0.4319
  304MOL0     C40057   1.202   6.124   6.036  1.0906 -0.1697  0.5916
  304MOL0     C40058   1.134   6.185   6.155  0.7330 -0.6735  0.0782
  304MOL0     C40059   1.236   6.220   6.247  0.0694 -0.0013 -0.9143
  304MOL0     C40060   1.307   6.253   6.338 -0.3980 -0.4904  0.0395
  304MOL0     C40061   0.977   6.135   5.483 -0.4265 -1.4052 -1.1230
  304MOL0     C40062   0.848   6.114   5.418  0.2252  0.2533 -0.0530
  304MOL0     H40063   0.371   6.165   5.313  0.6469  0.2824 -0.1052
  304MOL0     H40064   0.121   6.165   5.275  1.9011  1.3644 -0.0205
  304MOL0     H40065  -0.100   6.133   5.231  3.2220 -1.3895  1.5964
  304MOL0     H40066  -0.113   6.208   5.398 -0.6963 -0.1731  1.7318
  304MOL0     H40067  -0.317   6.203   5.299  2.0341  1.7721  1.5726
  304MOL0     H40068  -0.320   6.097   5.441 -0.3532  0.4999  0.4461
  304MOL0     H40069  -0.264   5.903   5.306  0.7442  0.4023  0.6008
  304MOL0     H40070  -0.285   5.995   5.153 -0.8860 -2.1345 -0.9232
  304MOL0     H40071  -0.518   5.973   5.362  1.1052 -2.4484 -0.1593
  304MOL0     H40072  -0.498   6.071   5.218  3.3015 -0.7464 -5.3560
  304MOL0     H40073  -0.484   5.761   5.209  0.7987 -0.1532 -0.3463
  304MOL0     H40074  -0.498   5.864   5.069  5.6911 -0.8824  1.4593
  304MOL0     H40075  -0.701   5.949   5.132  2.6690  1.7862  0.0315
  304MOL0     H40076  -0.710   5.851   5.286 -0.5496 -2.1013  0.1201
  304MOL0     H40077  -0.690   5.645   5.142 -1.6954 -1.1683  1.4394
  304MOL0     H40078  -0.839   5.734   5.155  0.1788 -1.2558  0.7748
  304MOL0     H40079  -0.633   5.775   4.924  0.0132 -0.4013 -0.1486
  304MOL0     H40080  -0.793   5.836   4.932  3.0684  2.7258  0.1925
  304MOL0     H40081  -0.962   5.609   4.857  0.8794 -0.3542  2.6053
  304MOL0     H40082  -0.924   5.339   4.610  0.2054 -0.5515 -0.4247
  304MOL0     H40083  -1.041   5.382   4.735 -0.2325 -0.3350 -0.7028
  304MOL0     H40084  -0.822   5.168   4.734  1.6201 -1.1490  1.6940
  304MOL0     H40085  -0.992   5.161   4.767 -0.3188  0.7443  1.7248
  304MOL0     H40086  -0.867   5.117   4.971 -0.7359  0.6365  3.8121
  304MOL0     H40087  -0.791   5.273   4.969 -0.6462 -0.6188  2.9443
  304MOL0     H40088  -0.969   5.381   5.038  0.7218 -1.3113  2.1085
  304MOL0     H40089  -1.020   5.231   5.111 -1.6530 -1.8462 -0.1482
  304MOL0     H40090  -1.229   5.423   5.125  2.1316 -1.2894 -0.3943
  304MOL0     H40091  -1.452   5.387   5.224 -1.9310  0.0292 -0.1317
  304MOL0     H40092  -1.796   5.499   5.337  0.4323 -0.7474 -2.4265
  304MOL0     H40093  -1.980   5.516   5.472 -0.7935 -0.4256  1.6295
  304MOL0     H40094  -2.229   5.406   5.721 -0.2237 -1.6307 -1.0409
  304MOL0     H40095  -2.092   5.501   5.662  2.1865 -0.1087 -0.4126
  304MOL0     H40096  -1.944   5.425   5.830 -0.1538  1.2588  2.8925
  304MOL0     H40097  -2.054   5.285   5.877 -1.9571 -0.8154 -0.8676
  304MOL0     H40098  -2.216   5.452   5.972  1.6757 -3.0326  2.7752
  304MOL0     H40099  -2.132   5.573   5.872  3.8723  1.1462  0.8752
  304MOL0     H40100  -2.000   5.438   6.128  2.9551  2.1268  0.9246
  304MOL0     H40101  -1.942   5.574   6.040  1.8028 -2.3614 -0.8762
  304MOL0     H40102  -2.214   5.554   6.173  1.0567 -2.0762 -0.1684
  304MOL0     H40103  -2.149   5.700   6.102 -2.3270 -3.0948 -1.5601
  304MOL0     H40104  -1.936   5.660   6.248  1.4232  0.8242  3.5230
  304MOL0     H40105  -2.039   5.562   6.347 -3.4064  0.8476  1.3410
  304MOL0     H40106  -2.076   5.859   6.300  2.1145 -0.8361 -1.1266
  304MOL0     H40107  -2.213   5.734   6.354 -0.0081  1.0749  2.0130
  304MOL0     H40108  -2.090   5.877   6.539 -1.5147 -0.8880 -0.7924
  304MOL0     H40109  -1.945   5.800   6.493 -0.0625  3.6416  2.5915
  304MOL0     H40110  -1.967   5.089   5.544 -0.1282  0.8793 -0.1358
  304MOL0     H40111  -1.791   5.079   5.363  1.1785 -0.7277  0.8657
  304MOL0     H40112  -1.515   5.064   4.944 -0.2148  2.3156 -3.6154
  304MOL0     H40113  -1.292   5.090   4.870  0.4279  3.3972 -3.6252
  304MOL0     H40114   0.071   5.881   5.588 -0.1532 -1.9299 -3.0354
  304MOL0     H40115   0.298   5.879   5.635 -4.0344 -0.0924  1.9822
  304MOL0     H40116   0.676   5.963   5.659 -0.7087  1.0320 -0.4752
  304MOL0     H40117   0.902   5.958   5.757  2.4099 -0.2966 -0.4969
  304MOL0     H40118   1.269   6.118   5.794 -0.0143 -0.1206 -0.0310
  304MOL0     H40119   1.185   5.957   5.807 -0.9407 -0.2737 -0.5794
  304MOL0     H40120   1.092   6.236   5.887 -0.7924  0.5965 -1.6627
  304MOL0     H40121   1.007   6.098   5.939  0.9056  0.3302  0.6403
  304MOL0     H40122   1.283   6.194   6.013  0.2682  0.5019 -0.3075
  304MOL0     H40123   1.240   6.022   6.049 -0.6607 -0.7991  1.0454
  304MOL0     H40124   1.068   6.267   6.127 -1.0154 -2.3649 -0.9837
  304MOL0     H40125   1.063   6.118   6.205 -0.5180 -0.0489 -0.7953
  304MOL0     H40126   1.358   6.278   6.428  0.3270  1.8877 -0.9550
  304MOL0     H40127   1.045   6.193   5.421  1.2841 -1.4101  0.6486
  304MOL0     H40128   0.821   6.175   5.332  2.3962  1.1640 -0.1710
  305MOL0     O40129   1.162  11.210   8.316  0.4475  0.1041  0.4753
  305MOL0     C40130   1.051  11.227   8.373 -1.0058  0.3088 -0.3431
  305MOL0     O40131   1.032  11.293   8.496 -0.5926 -0.6027  0.2745
  305MOL0     C40132   1.156  11.327   8.556  0.5689  0.1891 -0.3020
  305MOL0     C40133   1.186  11.264   8.664  0.0803  0.5874 -0.1815
  305MOL0     C40134   1.281  11.302   8.760  0.1045 -0.1893 -1.2776
  305MOL0     C40135   1.341  11.426   8.745 -0.2259  0.4093 -0.6528
  305MOL0     O40136   1.416  11.460   8.854 -0.2535 -0.9607  0.1527
  305MOL0     C40137   1.489  11.586   8.858  0.2141  0.5586 -0.4236
  305MOL0     C40138   1.612  11.571   8.953 -1.0155  0.1262 -0.1408
  305MOL0     C40139   1.697  11.697   8.921 -1.0734 -1.1555 -0.7187
  305MOL0     C40140   1.794  11.731   9.038  0.3702  0.3800 -0.9605
  305MOL0     C40141   1.893  11.839   9.011 -0.1880 -0.0276  0.0995
  305MOL0     C40142   1.979  11.851   9.138 -0.3262 -0.6844  0.3634
  305MOL0     C40143   1.898  11.908   9.256 -0.0754 -0.3138 -0.0321
  305MOL0     C40144   1.983  11.958   9.371  0.7112 -0.1504 -0.2141
  305MOL0     N40145   1.890  11.975   9.479 -0.6463  1.1325  0.2869
  305MOL0     C40146   1.831  12.094   9.507  0.5797 -0.0680 -0.9138
  305MOL0     C40147   1.732  12.082   9.600 -0.1834 -0.7337 -0.6411
  305MOL0     C40148   1.646  12.203   9.647  0.5426  0.1800  0.0137
  305MOL0     C40149   1.708  12.274   9.765 -0.3443 -0.3217  0.0047
  305MOL0     C40150   1.742  12.191   9.895 -0.0508  0.2334  0.6531
  305MOL0     C40151   1.800  12.272  10.003 -0.6887 -0.2132  0.6814
  305MOL0     O40152   1.692  12.342  10.066 -0.5224  1.2866 -0.1543
  305MOL0     C40153   1.734  12.427  10.162 -1.2418  0.2770  0.5349
  305MOL0     C40154   1.820  12.387  10.273  0.2104 -0.2832  0.2692
  305MOL0     C40155   1.839  12.455  10.389 -0.3991 -0.1751 -0.5155
  305MOL0     C40156   1.782  12.585  10.405  0.6045  0.1504 -1.1350
  305MOL0     C40157   1.810  12.676  10.516  0.0673 -0.3725  0.6752
  305MOL0     O40158   1.787  12.811  10.499 -0.3403 -0.2276  0.3220
  305MOL0     C40159   1.821  12.896  10.600  0.0910 -0.9046  0.4676
  305MOL0     C40160   1.949  12.962  10.593 -0.4818  0.0842 -1.1073
  305MOL0     C40161   1.974  13.056  10.690  0.4949 -0.4720 -0.1793
  305MOL0     C40162   1.883  13.079  10.789  0.7867 -0.0321  0.0261
  305MOL0     O40163   1.911  13.156  10.896 -0.3714 -0.3818  0.6627
  305MOL0     C40164   2.032  13.238  10.893  0.0847 -0.0107 -0.5512
  305MOL0     C40165   2.024  13.339  11.003 -1.4297  0.2693 -0.0800
  305MOL0     C40166   2.116  13.448  10.985  0.3007 -0.8225  0.3046
  305MOL0     C40167   2.238  13.409  11.069  0.3309 -0.6141 -0.3448
  305MOL0     C40168   2.355  13.493  11.052  0.0603  0.4162 -0.2611
  305MOL0     C40169   2.428  13.495  10.917 -0.9314 -0.1029 -0.7709
  305MOL0     C40170   2.518  13.623  10.909 -0.6472 -0.1103  0.6795
  305MOL0     C40171   2.583  13.638  10.770  0.1206  0.4557 -0.1732
  305MOL0    Cl40172   2.457  13.671  10.644 -0.5238 -0.0620  0.0547
  305MOL0     C40173   1.760  12.999  10.797 -0.4241 -0.1946  0.2024
  305MOL0     C40174   1.729  12.912  10.698  0.2954 -0.2561  0.1613
  305MOL0     O40175   1.844  12.627  10.616 -0.7145  0.2264 -1.5328
  305MOL0     C40176   1.699  12.628  10.303 -0.3061 -0.2368  0.4264
  305MOL0     C40177   1.666  12.546  10.188  0.0866  0.0917  0.8574
  305MOL0     N40178   1.750  11.944   9.641 -0.7832 -0.0514  0.0189
  305MOL0     N40179   1.850  11.888   9.576 -0.4200  0.0462 -0.2084
  305MOL0     C40180   1.311  11.500   8.629  1.5229 -0.0638  0.8240
  305MOL0     C40181   1.217  11.448   8.538 -0.1219 -0.0787 -0.6977
  305MOL0     C40182   0.925  11.215   8.301 -0.8911 -0.3029 -0.2436
  305MOL0     C40183   0.811  11.288   8.333 -0.4355  0.0355 -0.2126
  305MOL0     C40184   0.696  11.299   8.245  0.7476  0.9491 -0.1283
  305MOL0     C40185   0.685  11.205   8.136 -0.4507 -0.3139  0.8609
  305MOL0     O40186   0.563  11.198   8.069  0.0280  0.5849  0.1767
  305MOL0     C40187   0.529  11.100   7.965 -0.6968  0.1649  0.3063
  305MOL0     C40188   0.526  10.958   8.015 -0.2937 -0.3190  0.1543
  305MOL0     C40189   0.465  10.859   7.912 -0.5711  0.1852  0.5584
  305MOL0     C40190   0.318  10.822   7.946 -0.3755 -0.5833  0.2438
  305MOL0     C40191   0.258  10.722   7.855 -0.1293  0.0259 -0.8878
  305MOL0     C40192   0.209  10.634   7.784  0.3585  0.2811 -0.2475
  305MOL0     C40193   0.797  11.131   8.108 -0.0798 -0.8133 -0.1232
  305MOL0     C40194   0.916  11.146   8.183  0.0129  1.1186  0.4644
  305MOL0     H40195   1.117  11.184   8.691  0.5595 -0.3962 -1.7422
  305MOL0     H40196   1.278  11.232   8.843  1.7201 -1.7412 -2.4563
  305MOL0     H40197   1.415  11.659   8.894  1.1126  1.7673 -0.9525
  305MOL0     H40198   1.518  11.605   8.754 -2.8298  0.9664 -1.3173
  305MOL0     H40199   1.676  11.489   8.919  0.0083  1.9983 -3.2024
  305MOL0     H40200   1.587  11.567   9.059  2.3414 -0.9340  0.7317
  305MOL0     H40201   1.632  11.785   8.912  0.4336  0.4758  2.4662
  305MOL0     H40202   1.730  11.695   8.817 -2.4436  0.7340 -1.2403
  305MOL0     H40203   1.733  11.763   9.123  3.0348 -1.5262  1.9040
  305MOL0     H40204   1.848  11.639   9.062 -1.6234 -0.2034  1.6418
  305MOL0     H40205   1.841  11.933   8.987  0.7588  1.1821  2.4243
  305MOL0     H40206   1.957  11.806   8.929  1.2214 -0.0947  1.1806
  305MOL0     H40207   2.069  11.912   9.129 -1.4132  1.2820  2.0034
  305MOL0     H40208   2.028  11.756   9.159  2.8144  0.7915  0.2812
  305MOL0     H40209   1.840  11.992   9.216  0.1924  0.2455  0.7285
  305MOL0     H40210   1.826  11.837   9.298  2.0743 -1.9066  1.1614
  305MOL0     H40211   2.033  12.054   9.352 -0.5366  0.7602  0.8897
  305MOL0     H40212   2.052  11.879   9.400 -1.5669 -1.6894  1.4298
  305MOL0     H40213   1.856  12.191   9.466 -0.2267  0.3946 -0.3419
  305MOL0     H40214   1.550  12.164   9.682 -0.5303  2.7707  0.2073
  305MOL0     H40215   1.612  12.278   9.575  1.6610  0.1277 -0.5963
  305MOL0     H40216   1.651  12.358   9.806  1.2962  1.1622 -0.6056
  305MOL0     H40217   1.806  12.309   9.731 -0.5333  1.7460  1.4060
  305MOL0     H40218   1.659  12.129   9.931  0.2854 -1.1292 -0.8064
  305MOL0     H40219   1.823  12.123   9.866  0.2331 -0.1716  2.3237
  305MOL0     H40220   1.870  12.352   9.975  0.2887 -0.2724  2.7284
  305MOL0     H40221   1.851  12.196  10.063 -1.6744 -1.2580  0.2317
  305MOL0     H40222   1.854  12.284  10.279  0.3834 -0.3078 -1.0364
  305MOL0     H40223   1.915  12.418  10.457 -0.0289  0.9931 -0.2551
  305MOL0     H40224   2.028  12.929  10.527  3.9742  2.3987  2.5360
  305MOL0     H40225   2.073  13.101  10.694  1.2890 -2.2232  0.5724
  305MOL0     H40226   2.049  13.291  10.798 -0.8965  1.4035  0.0274
  305MOL0     H40227   2.121  13.178  10.913 -1.6559 -1.9440  1.9389
  305MOL0     H40228   2.043  13.282  11.094 -2.0027  1.9693  1.1522
  305MOL0     H40229   1.920  13.372  11.009 -1.3908  0.9463 -2.3208
  305MOL0     H40230   2.073  13.542  11.022 -0.5371  1.0175 -4.5229
  305MOL0     H40231   2.146  13.462  10.881 -0.5209  0.0329  0.1593
  305MOL0     H40232   2.219  13.403  11.176  1.5207 -0.9933 -0.1489
  305MOL0     H40233   2.269  13.307  11.047 -1.7311 -1.7368  1.5672
  305MOL0     H40234   2.437  13.463  11.119 -0.0418  2.5720  0.9327
  305MOL0     H40235   2.333  13.594  11.087 -1.0670 -0.4460  1.7639
  305MOL0     H40236   2.358  13.505  10.833 -0.3565 -2.1656 -1.5499
  305MOL0     H40237   2.476  13.397  10.906 -4.0850 -2.4034  3.0971
  305MOL0     H40238   2.463  13.717  10.923  0.9920  0.8646  0.7251
  305MOL0     H40239   2.590  13.617  10.991 -2.6915 -0.1193  2.5700
  305MOL0     H40240   2.633  13.547  10.739 -0.6642 -0.6530  1.6274
  305MOL0     H40241   2.650  13.725  10.773  0.0694  0.5483  3.2914
  305MOL0     H40242   1.700  13.005  10.887  0.6777 -0.1822  0.9606
  305MOL0     H40243   1.636  12.856  10.701  0.7582 -1.0774 -0.4861
  305MOL0     H40244   1.629  12.708  10.324 -2.1065 -1.6084 -0.0750
  305MOL0     H40245   1.599  12.571  10.106  0.3042 -1.2558  0.2306
  305MOL0     H40246   1.346  11.603   8.625 -1.1356  0.9120 -0.2940
  305MOL0     H40247   1.183  11.530   8.476  2.6400  0.5272 -1.5502
  305MOL0     H40248   0.813  11.332   8.432 -1.1500  0.3557 -0.3292
  305MOL0     H40249   0.614  11.367   8.268 -2.8864 -1.8888 -3.5099
  305MOL0     H40250   0.606  11.115   7.888  1.7339 -0.5033  2.5051
  305MOL0     H40251   0.431  11.131   7.926  0.3912  1.0318 -1.9573
  305MOL0     H40252   0.626  10.922   8.039  0.3336 -0.5266 -2.4677
  305MOL0     H40253   0.476  10.949   8.111  0.1331  1.4892  0.5953
  305MOL0     H40254   0.518  10.764   7.905 -1.7385 -0.4559 -0.0081
  305MOL0     H40255   0.472  10.894   7.809  0.8178  0.7461  0.8240
  305MOL0     H40256   0.316  10.788   8.050 -3.1033  2.2715  1.2876
  305MOL0     H40257   0.259  10.914   7.960 -3.0722 -2.5049  2.7015
  305MOL0     H40258   0.148  10.573   7.721  0.2446  1.0804 -0.9262
  305MOL0     H40259   0.791  11.072   8.017  1.0470  0.7473 -1.2800
  305MOL0     H40260   0.998  11.086   8.146  1.4367  3.5872 -0.6775
  306MOL0     O40261   1.144   7.378   2.040 -0.0956 -1.2010 -0.1070
  306MOL0     C40262   1.050   7.452   2.071 -0.8534  0.3358  0.5479
  306MOL0     O40263   1.053   7.558   2.155  0.1043  0.1826  0.0402
  306MOL0     C40264   1.163   7.595   2.213  0.3584  0.2765  0.0484
  306MOL0     C40265   1.260   7.516   2.276 -0.3064  0.5121  0.2437
  306MOL0     C40266   1.379   7.570   2.326 -0.1108 -1.2719  0.0039
  306MOL0     C40267   1.395   7.716   2.313 -0.4871 -0.0467 -0.5114
  306MOL0     O40268   1.504   7.779   2.368  0.2845 -0.3094  0.2730
  306MOL0     C40269   1.623   7.790   2.297 -0.2235  0.1333  0.6290
  306MOL0     C40270   1.609   7.905   2.205  0.0858  0.4856 -0.0666
  306MOL0     C40271   1.578   8.032   2.278  0.7944  0.2258  0.6633
  306MOL0     C40272   1.620   8.170   2.211  0.3873  0.0706  0.4071
  306MOL0     C40273   1.585   8.286   2.309 -0.3089  0.5271 -0.6769
  306MOL0     C40274   1.441   8.305   2.340 -0.0731 -0.6820  0.2619
  306MOL0     C40275   1.352   8.317   2.217  0.3741 -0.4384 -0.1224
  306MOL0     C40276   1.215   8.380   2.263  0.5443  0.1189 -0.8061
  306MOL0     N40277   1.204   8.518   2.313  0.2403 -0.6992  1.0370
  306MOL0     C40278   1.301   8.621   2.300  0.1681 -0.2431 -0.5088
  306MOL0     C40279   1.263   8.711   2.394 -0.2562  0.1694 -0.2518
  306MOL0     C40280   1.339   8.840   2.436  0.5748 -0.4448  0.5638
  306MOL0     C40281   1.298   8.893   2.570 -0.3448  0.2575  0.3717
  306MOL0     C40282   1.413   8.991   2.620  0.2954  0.1107 -0.2734
  306MOL0     C40283   1.374   9.062   2.748 -1.3058  0.1804  0.7797
  306MOL0     O40284   1.413   9.193   2.733 -1.0267 -0.5502 -0.8705
  306MOL0     C40285   1.550   9.227   2.729  0.2074  0.5475  0.2205
  306MOL0     C40286   1.565   9.361   2.692 -0.4960 -0.0284 -0.8176
  306MOL0     C40287   1.691   9.420   2.682  0.6035  0.0642  0.5206
  306MOL0     C40288   1.806   9.341   2.711 -0.8294 -0.4427  0.4304
  306MOL0     C40289   1.935   9.410   2.722  0.6137 -0.5445 -0.8415
  306MOL0     O40290   2.042   9.326   2.712 -0.1394  0.1348  0.0858
  306MOL0     C40291   2.178   9.361   2.729 -0.2531 -0.3904  0.1461
  306MOL0     C40292   2.224   9.466   2.805 -0.4915 -0.2157 -0.6936
  306MOL0     C40293   2.362   9.497   2.826 -0.5175  0.5076 -0.1565
  306MOL0     C40294   2.455   9.419   2.756  0.9926 -0.8459  2.3250
  306MOL0     O40295   2.596   9.439   2.759 -0.2440  0.9306 -0.3931
  306MOL0     C40296   2.645   9.523   2.867 -0.0900 -0.3832 -0.0398
  306MOL0     C40297   2.638   9.675   2.848 -0.1684  0.9035  0.4536
  306MOL0     C40298   2.645   9.762   2.975 -0.7727  0.3681  0.9583
  306MOL0     C40299   2.642   9.905   2.948  0.1541 -0.0731 -0.0098
  306MOL0     C40300   2.633   9.996   3.073 -0.5936 -0.0130  0.8954
  306MOL0     C40301   2.535  10.112   3.054  0.1301 -0.3646  0.4313
  306MOL0     C40302   2.529  10.209   3.166  0.2168  0.0163 -0.5689
  306MOL0     C40303   2.621  10.324   3.125  0.5157 -0.5136 -0.7898
  306MOL0    Cl40304   2.649  10.451   3.255  0.2924  0.2025 -0.1688
  306MOL0     C40305   2.409   9.313   2.664 -0.1401  0.3383 -0.3465
  306MOL0     C40306   2.272   9.287   2.656 -0.1031  0.4268  0.3851
  306MOL0     O40307   1.935   9.531   2.751  0.2298  0.6221  0.2744
  306MOL0     C40308   1.792   9.208   2.745  0.0317 -0.6657  0.5367
  306MOL0     C40309   1.668   9.149   2.746 -0.6565 -0.4469 -0.6851
  306MOL0     N40310   1.145   8.670   2.441  0.1868 -0.6723 -1.2477
  306MOL0     N40311   1.103   8.560   2.392 -0.3098  0.6496  0.7294
  306MOL0     C40312   1.290   7.791   2.257 -0.0569  0.5659 -1.1052
  306MOL0     C40313   1.169   7.731   2.206 -1.3253  0.3018  0.0965
  306MOL0     C40314   0.912   7.406   2.033 -0.3919 -0.3349 -0.3994
  306MOL0     C40315   0.897   7.280   1.957 -0.6705 -1.0874 -0.3965
  306MOL0     C40316   0.768   7.245   1.904 -0.7237  1.1259 -0.3979
  306MOL0     C40317   0.659   7.316   1.942 -0.2585  0.1297  1.1748
  306MOL0     O40318   0.542   7.305   1.869  0.0921  0.8235  0.0655
  306MOL0     C40319   0.493   7.178   1.809 -0.0174 -1.1235  0.0687
  306MOL0     C40320   0.348   7.197   1.798 -0.0034  0.3686  0.8078
  306MOL0     C40321   0.288   7.090   1.701  0.7197  0.1383  0.6571
  306MOL0     C40322   0.132   7.104   1.665  1.0380  0.1189 -0.7187
  306MOL0     C40323   0.074   7.059   1.796  0.6222  0.0456  0.6144
  306MOL0     C40324   0.030   7.008   1.895  0.2259  0.2988  0.8813
  306MOL0     C40325   0.665   7.430   2.016 -0.9613  0.1056  0.6367
  306MOL0     C40326   0.788   7.468   2.076  0.3476 -0.3561  0.3607
  306MOL0     H40327   1.240   7.409   2.268 -0.3223  0.5956 -0.9836
  306MOL0     H40328   1.455   7.508   2.371 -0.0834 -1.6367 -0.5295
  306MOL0     H40329   1.651   7.701   2.240  2.1037  1.2416 -0.0735
  306MOL0     H40330   1.703   7.808   2.369  0.8362  0.1236 -0.5140
  306MOL0     H40331   1.544   7.881   2.120  1.8542 -1.3780 -1.0212
  306MOL0     H40332   1.706   7.914   2.155  0.5334  0.0457  0.7008
  306MOL0     H40333   1.611   8.031   2.382  2.0443  5.4133  0.5947
  306MOL0     H40334   1.468   8.037   2.279  0.6584 -1.5368 -0.5895
  306MOL0     H40335   1.729   8.169   2.200  0.3224 -2.7014 -0.9168
  306MOL0     H40336   1.571   8.189   2.115  0.3914 -0.2438  0.3425
  306MOL0     H40337   1.635   8.378   2.277  0.1259 -0.2043 -2.1943
  306MOL0     H40338   1.631   8.260   2.405  2.2111 -1.9653 -2.4114
  306MOL0     H40339   1.433   8.402   2.391 -2.4716 -1.3300  1.2574
  306MOL0     H40340   1.400   8.229   2.406 -1.0958  0.2471  0.7376
  306MOL0     H40341   1.387   8.363   2.125 -4.6977 -1.1849 -2.7414
  306MOL0     H40342   1.317   8.217   2.190  1.4400 -0.6422 -0.7884
  306MOL0     H40343   1.169   8.313   2.336  3.9071 -0.3550  1.1178
  306MOL0     H40344   1.143   8.360   2.183 -0.6825 -1.0083  0.5258
  306MOL0     H40345   1.381   8.624   2.227  1.1962 -2.0527  0.4913
  306MOL0     H40346   1.313   8.912   2.358 -1.8153 -0.2404  1.4621
  306MOL0     H40347   1.445   8.817   2.451  0.9988  1.5374  0.8965
  306MOL0     H40348   1.292   8.808   2.639  2.8583  2.2107  3.4064
  306MOL0     H40349   1.204   8.949   2.562 -0.9839 -0.8120  0.1557
  306MOL0     H40350   1.505   8.935   2.635  0.0493  0.0738  1.3457
  306MOL0     H40351   1.440   9.061   2.541 -0.6857  1.6513  0.6886
  306MOL0     H40352   1.431   9.019   2.830  2.9958  0.2598 -1.8595
  306MOL0     H40353   1.266   9.060   2.770 -1.9401  0.4816 -1.9125
  306MOL0     H40354   1.477   9.423   2.677 -1.6057  0.2709  4.7331
  306MOL0     H40355   1.699   9.524   2.653 -0.1134 -0.0905 -0.2514
  306MOL0     H40356   2.147   9.526   2.852 -4.1790 -3.2212 -2.2937
  306MOL0     H40357   2.397   9.579   2.888 -1.5170 -0.0139  1.1620
  306MOL0     H40358   2.748   9.486   2.877 -0.4352 -0.7325  3.1195
  306MOL0     H40359   2.604   9.503   2.966 -0.2112  1.5962  0.3522
  306MOL0     H40360   2.547   9.707   2.798  0.2114  0.7182 -0.3714
  306MOL0     H40361   2.719   9.704   2.781  0.5047 -0.8903  0.4176
  306MOL0     H40362   2.736   9.732   3.027 -1.0081  1.4146  2.0155
  306MOL0     H40363   2.553   9.735   3.028 -1.5537  3.4399  1.3662
  306MOL0     H40364   2.732   9.933   2.892  0.1062 -0.4390 -0.2752
  306MOL0     H40365   2.551   9.915   2.888 -1.5928 -1.2144  2.3268
  306MOL0     H40366   2.732  10.032   3.100  0.3858 -2.7032  1.1539
  306MOL0     H40367   2.601   9.937   3.159 -1.4335  0.7920  1.1541
  306MOL0     H40368   2.432  10.076   3.044 -0.7471  1.9556  0.4825
  306MOL0     H40369   2.549  10.158   2.956 -0.1083  3.1893  1.9160
  306MOL0     H40370   2.428  10.251   3.173 -0.5034 -1.2778 -2.3488
  306MOL0     H40371   2.545  10.159   3.262 -3.1309 -2.3681 -1.0460
  306MOL0     H40372   2.568  10.379   3.047 -0.0154 -2.6529 -2.0435
  306MOL0     H40373   2.717  10.292   3.082  1.8430  0.1565  1.4586
  306MOL0     H40374   2.470   9.238   2.616  0.6685  0.1438  0.9448
  306MOL0     H40375   2.231   9.204   2.599 -0.0157  1.1608 -0.7720
  306MOL0     H40376   1.868   9.133   2.768  0.1500 -0.1577  1.8996
  306MOL0     H40377   1.660   9.041   2.753  2.6286 -0.6599  2.6073
  306MOL0     H40378   1.296   7.899   2.269 -0.1271  0.5296 -0.7096
  306MOL0     H40379   1.100   7.802   2.162  0.7732  2.1991 -0.3556
  306MOL0     H40380   0.982   7.225   1.920  1.3377  1.5398 -0.0342
  306MOL0     H40381   0.756   7.163   1.834 -0.7621  1.2254 -0.5105
  306MOL0     H40382   0.529   7.104   1.882  3.0204 -0.2019 -0.3279
  306MOL0     H40383   0.545   7.153   1.716  2.2556  2.9122  0.0024
  306MOL0     H40384   0.310   7.185   1.900  0.4753  2.3364  1.2561
  306MOL0     H40385   0.324   7.297   1.761  1.1111  0.0235 -0.9871
  306MOL0     H40386   0.317   6.996   1.749 -0.2104 -1.8564 -2.3664
  306MOL0     H40387   0.340   7.093   1.605  2.2027  2.4198  1.4612
  306MOL0     H40388   0.103   7.205   1.633  0.9183  0.7182  1.1834
  306MOL0     H40389   0.092   7.030   1.594 -1.7330  1.8833 -1.1616
  306MOL0     H40390  -0.013   6.962   1.982 -2.1221 -0.3206 -0.5132
  306MOL0     H40391   0.576   7.490   2.029 -0.5931  1.3983 -2.0516
  306MOL0     H40392   0.797   7.552   2.144 -1.2885 -0.0786  0.2828
  307MOL0     O40393   4.698   0.418   4.390  0.5137 -1.3032  0.9351
  307MOL0     C40394   4.583   0.471   4.399 -0.3014  0.1202  0.4271
  307MOL0     O40395   4.481   0.423   4.476 -0.5728  0.1886  0.5881
  307MOL0     C40396   4.511   0.336   4.577  0.3501 -1.1121  0.6666
  307MOL0     C40397   4.578   0.378   4.693  0.3216 -0.1218 -0.4410
  307MOL0     C40398   4.602   0.285   4.796 -0.0280  0.3880 -0.3435
  307MOL0     C40399   4.564   0.151   4.780 -0.5445 -0.5034 -0.1093
  307MOL0     O40400   4.567   0.061   4.882  0.0042  0.4105  0.0998
  307MOL0     C40401   4.652   0.072   4.997 -0.7643 -0.4501  0.8597
  307MOL0     C40402   4.766  -0.032   4.987  0.8766  0.0385  0.1646
  307MOL0     C40403   4.826  -0.033   5.119  0.5058 -1.2078 -0.9746
  307MOL0     C40404   4.955  -0.115   5.089 -0.4646 -0.2076 -0.3388
  307MOL0     C40405   5.030  -0.141   5.214 -0.3324  0.2410 -0.0952
  307MOL0     C40406   5.155  -0.244   5.195 -1.2036  1.0429  0.0643
  307MOL0     C40407   5.277  -0.187   5.137  0.0365  0.6566  0.0930
  307MOL0     C40408   5.392  -0.294   5.121 -0.3345 -0.1236  0.1951
  307MOL0     N40409   5.390  -0.333   4.975 -0.0269 -0.1370 -0.8362
  307MOL0     C40410   5.315  -0.423   4.909  0.8661  0.6211 -0.0230
  307MOL0     C40411   5.368  -0.447   4.792 -0.4419  0.6897  0.6763
  307MOL0     C40412   5.300  -0.519   4.690 -0.1258 -0.5526 -0.6773
  307MOL0     C40413   5.188  -0.447   4.608 -0.1490  0.2919 -0.3168
  307MOL0     C40414   5.054  -0.445   4.687  0.1282  0.4473 -0.3525
  307MOL0     C40415   4.981  -0.312   4.704  0.4503 -0.0088  0.6291
  307MOL0     O40416   4.849  -0.348   4.754  0.3369  0.1990  0.4887
  307MOL0     C40417   4.747  -0.320   4.660 -0.0899 -0.4511 -0.9551
  307MOL0     C40418   4.726  -0.193   4.607  0.0016  0.6403 -0.1519
  307MOL0     C40419   4.613  -0.165   4.528  0.1402 -0.4592  0.2316
  307MOL0     C40420   4.518  -0.260   4.495  0.0203 -0.3085  0.4215
  307MOL0     C40421   4.407  -0.235   4.402  0.1902 -0.4285 -0.2194
  307MOL0     O40422   4.301  -0.317   4.404  0.4074 -0.4327 -0.6112
  307MOL0     C40423   4.189  -0.263   4.351  0.3410 -0.4180 -0.3707
  307MOL0     C40424   4.125  -0.310   4.238  0.5632  0.3645  0.3167
  307MOL0     C40425   3.996  -0.262   4.207  0.0085 -0.6432  0.2402
  307MOL0     C40426   3.944  -0.148   4.264 -0.5336  0.3729 -0.7575
  307MOL0     O40427   3.837  -0.092   4.210  0.6726  0.1453 -0.2194
  307MOL0     C40428   3.829   0.053   4.196 -1.2533 -0.4974 -1.1001
  307MOL0     C40429   3.698   0.070   4.112 -0.0524 -0.3535  0.2179
  307MOL0     C40430   3.626   0.206   4.124  1.5420 -0.0337  0.5701
  307MOL0     C40431   3.716   0.331   4.088 -0.0168  0.1049  0.2732
  307MOL0     C40432   3.722   0.430   4.197  0.4071 -0.7075  0.5473
  307MOL0     C40433   3.593   0.512   4.227 -1.7791  0.5234  0.2902
  307MOL0     C40434   3.606   0.619   4.337 -0.7028  0.2369 -0.5184
  307MOL0     C40435   3.465   0.656   4.385 -0.4408 -0.2193 -0.8056
  307MOL0    Cl40436   3.480   0.806   4.463  0.0091 -0.3880 -0.3357
  307MOL0     C40437   4.016  -0.089   4.365  0.5293  0.3609  0.5089
  307MOL0     C40438   4.125  -0.157   4.418 -0.1163 -0.6345 -0.4741
  307MOL0     O40439   4.427  -0.141   4.326 -0.1187  0.4168 -0.5459
  307MOL0     C40440   4.535  -0.382   4.566 -0.2335  0.9623  0.8112
  307MOL0     C40441   4.644  -0.408   4.648  0.8300 -0.0334  0.1405
  307MOL0     N40442   5.484  -0.371   4.777  0.7091  0.0340  0.6756
  307MOL0     N40443   5.487  -0.306   4.882  0.7789 -1.3195 -0.3120
  307MOL0     C40444   4.509   0.110   4.659  0.5069  0.3698 -0.7916
  307MOL0     C40445   4.486   0.203   4.555  0.1575  0.8523 -0.9269
  307MOL0     C40446   4.551   0.592   4.309  0.0919 -0.9356 -0.5019
  307MOL0     C40447   4.432   0.664   4.320  0.4538 -0.1365  0.0546
  307MOL0     C40448   4.410   0.764   4.228  0.2555  0.6193  0.2621
  307MOL0     C40449   4.507   0.814   4.141  0.7001  0.1991  0.3117
  307MOL0     O40450   4.472   0.914   4.050  0.2666  0.1512 -0.5904
  307MOL0     C40451   4.574   1.001   3.982  0.8991  0.0900 -0.7096
  307MOL0     C40452   4.491   1.124   3.952 -0.1938 -1.1627 -0.5668
  307MOL0     C40453   4.360   1.087   3.864 -0.8377  0.9658 -1.5616
  307MOL0     C40454   4.301   1.205   3.803 -0.3098 -0.7525  0.5680
  307MOL0     C40455   4.375   1.268   3.697  0.4200 -0.0965  0.4348
  307MOL0     C40456   4.427   1.293   3.589 -0.6891  0.3132 -0.6540
  307MOL0     C40457   4.633   0.763   4.145  0.0683  0.3340 -0.3559
  307MOL0     C40458   4.653   0.647   4.229 -0.8018 -0.4419 -0.6729
  307MOL0     H40459   4.588   0.485   4.709 -1.0413 -0.2733  2.0659
  307MOL0     H40460   4.646   0.331   4.884 -1.0982  0.7294  0.0248
  307MOL0     H40461   4.593   0.054   5.087  1.1591 -3.5798  1.6497
  307MOL0     H40462   4.706   0.166   5.008  0.3400 -0.9616  0.0957
  307MOL0     H40463   4.837  -0.001   4.910  0.1633  1.9882  0.2198
  307MOL0     H40464   4.717  -0.126   4.960 -2.6827  2.4074 -2.6468
  307MOL0     H40465   4.758  -0.072   5.197  2.1909 -0.7689  0.7934
  307MOL0     H40466   4.856   0.067   5.151  1.3678 -1.8290  0.2353
  307MOL0     H40467   4.922  -0.212   5.052  2.4480 -1.1772 -0.6790
  307MOL0     H40468   5.013  -0.065   5.012  0.1310 -0.0398  0.2083
  307MOL0     H40469   4.965  -0.195   5.284  1.5135  0.5092  1.9635
  307MOL0     H40470   5.068  -0.052   5.264  3.5391  0.7886 -3.5482
  307MOL0     H40471   5.124  -0.324   5.127  1.2199  1.6991 -1.9581
  307MOL0     H40472   5.192  -0.281   5.291 -1.8248 -0.0838 -0.1184
  307MOL0     H40473   5.278  -0.128   5.045 -1.5652 -1.4540 -1.3659
  307MOL0     H40474   5.301  -0.109   5.211 -1.2847  3.2458 -2.0427
  307MOL0     H40475   5.368  -0.385   5.176 -0.4895  0.5507  1.2642
  307MOL0     H40476   5.491  -0.256   5.148  0.3157 -2.6588  1.6346
  307MOL0     H40477   5.228  -0.468   4.957  2.4066 -0.7368  1.6558
  307MOL0     H40478   5.258  -0.616   4.718 -1.7081  0.6163  1.2165
  307MOL0     H40479   5.385  -0.545   4.626  1.2661  0.7757  0.5652
  307MOL0     H40480   5.179  -0.501   4.514 -2.1006 -1.1684  0.6441
  307MOL0     H40481   5.212  -0.344   4.583 -1.3584  0.3984 -1.0891
  307MOL0     H40482   4.977  -0.511   4.646 -1.1587  0.0003  2.5325
  307MOL0     H40483   5.071  -0.481   4.789 -1.1756  0.7760  0.0053
  307MOL0     H40484   4.974  -0.276   4.601  0.7113 -1.7021 -0.0186
  307MOL0     H40485   5.029  -0.236   4.766  1.1267  1.0547 -1.1199
  307MOL0     H40486   4.799  -0.113   4.617  0.2671  0.4074 -0.1957
  307MOL0     H40487   4.600  -0.077   4.466 -3.0480  1.0288  2.7068
  307MOL0     H40488   4.178  -0.386   4.182  2.5455  1.2032  0.9896
  307MOL0     H40489   3.940  -0.297   4.121  0.4540  1.8874 -1.1789
  307MOL0     H40490   3.916   0.094   4.142  1.0718  0.4107  2.9091
  307MOL0     H40491   3.826   0.098   4.295  0.3676 -1.9846 -0.3194
  307MOL0     H40492   3.616   0.003   4.141  0.0926 -0.0798  1.2687
  307MOL0     H40493   3.721   0.053   4.006  1.3012 -3.0161  0.8390
  307MOL0     H40494   3.594   0.206   4.229  1.6665  1.5877  0.6257
  307MOL0     H40495   3.544   0.206   4.051  2.6821 -1.0844 -0.7704
  307MOL0     H40496   3.823   0.310   4.087 -0.4756 -2.6165  0.5305
  307MOL0     H40497   3.692   0.379   3.992  1.0530  0.1624  0.0238
  307MOL0     H40498   3.799   0.504   4.175 -2.2829  1.8347 -0.9635
  307MOL0     H40499   3.756   0.370   4.282  3.6558 -0.8817 -0.7190
  307MOL0     H40500   3.510   0.446   4.254 -1.5903  0.7433  1.4316
  307MOL0     H40501   3.557   0.564   4.137  0.0610  1.8318  0.2773
  307MOL0     H40502   3.670   0.595   4.422 -0.3995 -2.8841 -1.5095
  307MOL0     H40503   3.659   0.704   4.292 -1.0766  1.1557  0.7166
  307MOL0     H40504   3.406   0.589   4.448 -1.3188  0.7894 -0.5460
  307MOL0     H40505   3.401   0.673   4.298 -0.6477  2.8843 -0.1323
  307MOL0     H40506   3.967  -0.009   4.420 -0.4329  0.7902 -0.9177
  307MOL0     H40507   4.162  -0.114   4.511 -1.8245  0.5883 -0.3027
  307MOL0     H40508   4.463  -0.460   4.545  1.7014 -0.9847  1.1277
  307MOL0     H40509   4.648  -0.508   4.690 -2.1885  0.5017  2.0279
  307MOL0     H40510   4.499   0.003   4.647  2.4834  0.1825 -1.0060
  307MOL0     H40511   4.443   0.166   4.463  0.2144 -2.2105  0.1543
  307MOL0     H40512   4.355   0.634   4.390 -1.3521  1.3562 -1.1918
  307MOL0     H40513   4.308   0.800   4.238 -0.6408 -1.3081 -1.3682
  307MOL0     H40514   4.621   0.972   3.888 -0.1588 -1.7881 -0.7088
  307MOL0     H40515   4.648   1.035   4.055  0.7899  0.3194 -0.7041
  307MOL0     H40516   4.461   1.155   4.053  0.8418  1.4510 -0.9893
  307MOL0     H40517   4.558   1.201   3.913  0.2121  0.1854  2.4647
  307MOL0     H40518   4.283   1.041   3.926  1.6216  1.9211  2.6245
  307MOL0     H40519   4.391   1.010   3.793  3.6998 -1.8031  2.8152
  307MOL0     H40520   4.199   1.183   3.769 -0.3635 -0.9546  0.8518
  307MOL0     H40521   4.295   1.277   3.884 -0.0419  2.5777 -2.1690
  307MOL0     H40522   4.475   1.326   3.499  3.2636  2.0055  1.7882
  307MOL0     H40523   4.715   0.803   4.087 -0.3598 -0.4726 -1.5594
  307MOL0     H40524   4.751   0.602   4.240 -0.8949 -0.0057  4.1373
  308MOL0     O40525   1.399   4.933   0.114 -0.5219  0.3490  0.7587
  308MOL0     C40526   1.389   5.013   0.203 -0.5062  0.9013  1.0436
  308MOL0     O40527   1.448   5.126   0.198 -0.4144 -0.8719  0.7745
  308MOL0     C40528   1.527   5.166   0.089 -0.5135 -0.4771 -0.2993
  308MOL0     C40529   1.639   5.239   0.126 -0.8413  0.0671  0.3278
  308MOL0     C40530   1.726   5.290   0.031 -1.0244  0.0707  0.4688
  308MOL0     C40531   1.696   5.261  -0.099 -0.7828  0.3470 -0.0973
  308MOL0     O40532   1.793   5.315  -0.182  1.1707 -0.2099  0.3181
  308MOL0     C40533   1.778   5.288  -0.319  0.7990 -0.3418 -0.3420
  308MOL0     C40534   1.690   5.380  -0.393  0.2118  0.1569  0.4592
  308MOL0     C40535   1.714   5.529  -0.381 -0.0257 -0.1892 -0.1826
  308MOL0     C40536   1.638   5.609  -0.497  0.9153  0.2352  0.1799
  308MOL0     C40537   1.684   5.756  -0.491  0.5663  0.0766 -0.2420
  308MOL0     C40538   1.643   5.837  -0.374  0.8917 -0.8310  0.5060
  308MOL0     C40539   1.719   5.972  -0.382  0.4966 -0.2912 -0.7615
  308MOL0     C40540   1.654   6.089  -0.310  0.3637 -0.0471 -0.0684
  308MOL0     N40541   1.744   6.206  -0.297  1.0133 -0.5719  0.1299
  308MOL0     C40542   1.859   6.232  -0.371 -0.1762 -0.3405 -0.4653
  308MOL0     C40543   1.922   6.333  -0.304 -0.0054  0.3926  0.4914
  308MOL0     C40544   2.054   6.388  -0.338 -0.0757 -0.8533 -0.0481
  308MOL0     C40545   2.077   6.450  -0.478 -0.0965 -0.6667 -0.5833
  308MOL0     C40546   1.963   6.550  -0.527  0.1929  0.0308 -0.6927
  308MOL0     C40547   1.983   6.602  -0.668 -0.1638  0.1163 -0.9768
  308MOL0     O40548   1.874   6.673  -0.714 -0.5049  0.8316  0.1150
  308MOL0     C40549   1.890   6.752  -0.821 -0.1064 -1.0879  1.0528
  308MOL0     C40550   1.774   6.833  -0.835 -1.0810  0.4447  0.2339
  308MOL0     C40551   1.764   6.923  -0.941 -0.6288  0.0445 -0.2050
  308MOL0     C40552   1.864   6.938  -1.035 -0.3036 -0.7771  0.3526
  308MOL0     C40553   1.848   7.030  -1.152  0.9248 -0.4514  0.5738
  308MOL0     O40554   1.751   7.127  -1.144  0.0101 -0.2035  0.3905
  308MOL0     C40555   1.716   7.211  -1.248 -0.0203 -0.4019  0.1367
  308MOL0     C40556   1.590   7.258  -1.244 -0.5363  0.5231  0.3197
  308MOL0     C40557   1.539   7.368  -1.320  0.4540  0.6006 -0.7017
  308MOL0     C40558   1.626   7.412  -1.427  0.1198 -0.2896 -0.6530
  308MOL0     O40559   1.590   7.494  -1.529 -0.7540 -0.4575  0.6240
  308MOL0     C40560   1.466   7.558  -1.520 -0.5606  0.0073  0.8542
  308MOL0     C40561   1.362   7.489  -1.592 -0.1290  0.2688  0.2191
  308MOL0     C40562   1.404   7.439  -1.727  0.4106  0.5933 -0.5548
  308MOL0     C40563   1.296   7.334  -1.778 -0.0959 -0.1334  0.0786
  308MOL0     C40564   1.355   7.288  -1.918  0.2772 -0.1299 -0.2079
  308MOL0     C40565   1.271   7.198  -1.999  0.4995  0.2037  0.4789
  308MOL0     C40566   1.316   7.197  -2.142 -0.5991  0.8375 -0.7399
  308MOL0     C40567   1.462   7.153  -2.156  0.7611  0.5712  0.2053
  308MOL0    Cl40568   1.509   7.130  -2.328  0.1036 -0.3560  0.2494
  308MOL0     C40569   1.751   7.351  -1.438  0.1396  0.5546  0.5114
  308MOL0     C40570   1.803   7.260  -1.346  0.4924  0.2521  0.1219
  308MOL0     O40571   1.925   7.019  -1.242 -0.7381  0.3392 -0.0916
  308MOL0     C40572   1.980   6.856  -1.020 -0.0999  0.3184 -1.0074
  308MOL0     C40573   1.989   6.766  -0.912 -0.7799  0.5904 -0.3350
  308MOL0     N40574   1.852   6.367  -0.191 -0.1494 -0.4922 -0.0270
  308MOL0     N40575   1.742   6.290  -0.187 -0.0933 -0.8113 -0.2410
  308MOL0     C40576   1.585   5.189  -0.137  0.2951  1.2194 -0.2286
  308MOL0     C40577   1.488   5.145  -0.042 -0.1004  0.8732 -0.4916
  308MOL0     C40578   1.310   4.975   0.322  0.9447 -0.1674  0.3964
  308MOL0     C40579   1.255   4.844   0.341 -0.2254 -1.2757  0.8546
  308MOL0     C40580   1.173   4.815   0.442  0.5792  0.6610  0.0306
  308MOL0     C40581   1.140   4.908   0.540 -0.2746 -0.5891 -0.0132
  308MOL0     O40582   1.061   4.879   0.646 -0.6520 -1.4492  0.0535
  308MOL0     C40583   1.092   4.744   0.701 -0.3546 -0.9003 -0.0517
  308MOL0     C40584   1.018   4.744   0.833 -0.2084  0.2741  0.0853
  308MOL0     C40585   1.002   4.603   0.888 -0.6722  0.8416  0.4021
  308MOL0     C40586   0.916   4.588   1.019 -0.0656 -0.3257  0.5156
  308MOL0     C40587   0.856   4.452   1.025  0.3367  0.2193  0.1963
  308MOL0     C40588   0.813   4.341   1.020 -0.1306  0.8759  0.5268
  308MOL0     C40589   1.197   5.037   0.529 -0.7152  0.0125 -0.3478
  308MOL0     C40590   1.279   5.070   0.420 -0.0986  0.1607  0.4942
  308MOL0     H40591   1.676   5.247   0.228  1.4103 -0.0744 -0.4197
  308MOL0     H40592   1.817   5.346   0.052 -0.9448  0.8704 -1.7223
  308MOL0     H40593   1.747   5.187  -0.348  0.2683 -0.1944 -0.3011
  308MOL0     H40594   1.879   5.295  -0.360  0.9518 -3.7996 -0.8563
  308MOL0     H40595   1.585   5.359  -0.368  0.1716  0.3925  0.4950
  308MOL0     H40596   1.708   5.353  -0.497 -2.5706  0.1468 -0.0975
  308MOL0     H40597   1.822   5.536  -0.390  0.4164 -3.5033  1.0431
  308MOL0     H40598   1.690   5.562  -0.280 -2.2442  1.4007 -1.1345
  308MOL0     H40599   1.647   5.557  -0.593  2.4360  0.8441 -0.0252
  308MOL0     H40600   1.530   5.608  -0.477  1.6050  0.3764  5.2027
  308MOL0     H40601   1.649   5.806  -0.581  1.7180 -0.9905 -1.3171
  308MOL0     H40602   1.793   5.748  -0.497  0.5523 -2.4124  1.2375
  308MOL0     H40603   1.664   5.790  -0.278 -0.3591  1.3374  1.9247
  308MOL0     H40604   1.535   5.853  -0.362  1.2077  3.6596 -0.7123
  308MOL0     H40605   1.818   5.967  -0.336  0.3339  2.2395 -0.0238
  308MOL0     H40606   1.730   6.000  -0.488 -0.3106 -3.8062 -1.9117
  308MOL0     H40607   1.611   6.049  -0.218  1.5101 -2.1219 -0.3643
  308MOL0     H40608   1.573   6.116  -0.379  0.3206 -1.2679 -0.5386
  308MOL0     H40609   1.889   6.176  -0.459  1.6592 -2.7855  1.5949
  308MOL0     H40610   2.141   6.327  -0.310  1.0088  2.3267  4.7906
  308MOL0     H40611   2.073   6.471  -0.269 -0.1574 -2.4727  2.0255
  308MOL0     H40612   2.085   6.366  -0.548  0.9462 -1.3731  0.3508
  308MOL0     H40613   2.177   6.496  -0.484 -1.2856  1.9645 -3.3856
  308MOL0     H40614   1.867   6.498  -0.524  1.1263 -1.7431  2.2055
  308MOL0     H40615   1.952   6.639  -0.464  0.0410 -1.2915  1.2401
  308MOL0     H40616   2.005   6.515  -0.732  1.8396  0.3503 -0.6563
  308MOL0     H40617   2.073   6.663  -0.664  0.2531  0.0849 -5.0307
  308MOL0     H40618   1.690   6.843  -0.768 -2.9044 -0.6618 -1.7738
  308MOL0     H40619   1.682   6.994  -0.940  0.4896  1.3599 -0.1897
  308MOL0     H40620   1.526   7.223  -1.164 -2.7503  3.8787  0.2272
  308MOL0     H40621   1.431   7.381  -1.316  0.4714  0.3866  0.8666
  308MOL0     H40622   1.469   7.656  -1.569  0.3395 -0.7697 -0.7130
  308MOL0     H40623   1.436   7.564  -1.415 -0.0304 -0.8866  1.0683
  308MOL0     H40624   1.278   7.559  -1.591  1.3749  2.2646 -1.9599
  308MOL0     H40625   1.326   7.398  -1.542 -1.8683 -0.2115 -1.7173
  308MOL0     H40626   1.497   7.384  -1.710 -0.3121 -0.6107 -0.4515
  308MOL0     H40627   1.417   7.516  -1.805 -0.8828 -0.1126 -1.5125
  308MOL0     H40628   1.293   7.252  -1.705  2.5138  0.1709  0.6296
  308MOL0     H40629   1.201   7.385  -1.798  0.3289  0.9653  0.7732
  308MOL0     H40630   1.452   7.238  -1.906  0.1592  0.1664  2.7368
  308MOL0     H40631   1.357   7.379  -1.978 -2.5763 -0.9602 -1.7425
  308MOL0     H40632   1.164   7.213  -1.981  0.5475 -1.3249  2.3759
  308MOL0     H40633   1.290   7.099  -1.957  1.9099  0.7006  1.0869
  308MOL0     H40634   1.265   7.130  -2.213 -0.0365 -0.4678  0.0472
  308MOL0     H40635   1.292   7.285  -2.203 -3.9175 -0.1720 -1.0709
  308MOL0     H40636   1.480   7.062  -2.097  0.3853  1.7092  2.1720
  308MOL0     H40637   1.525   7.234  -2.118  3.1082 -1.6347  1.3258
  308MOL0     H40638   1.815   7.376  -1.522 -0.7621  2.4432  0.3376
  308MOL0     H40639   1.908   7.240  -1.362  1.1429  2.1675  1.6393
  308MOL0     H40640   2.063   6.870  -1.088  0.4461 -1.2582 -0.7010
  308MOL0     H40641   2.080   6.707  -0.905 -1.3876 -0.7901 -2.7161
  308MOL0     H40642   1.552   5.164  -0.237 -1.5498  1.7418  0.2106
  308MOL0     H40643   1.395   5.102  -0.079  0.6539  1.6062 -3.5315
  308MOL0     H40644   1.301   4.772   0.274  0.1229  0.8283 -1.3397
  308MOL0     H40645   1.153   4.710   0.458  2.3338  0.5177  1.6480
  308MOL0     H40646   1.198   4.734   0.724 -0.2924  0.2938  0.2374
  308MOL0     H40647   1.062   4.659   0.640  1.3926 -1.7435  0.1942
  308MOL0     H40648   1.082   4.798   0.904  0.4424  0.1510 -0.4065
  308MOL0     H40649   0.922   4.794   0.816  0.3010  1.1584 -0.2208
  308MOL0     H40650   1.095   4.546   0.900 -2.0668 -1.6339  0.1676
  308MOL0     H40651   0.944   4.545   0.816  0.1487 -0.2659  0.6128
  308MOL0     H40652   0.973   4.613   1.109 -1.0136  5.3335 -0.0936
  308MOL0     H40653   0.836   4.660   1.000 -1.8396 -2.2660  0.1730
  308MOL0     H40654   0.765   4.245   1.020 -2.1669  1.8391  0.9626
  308MOL0     H40655   1.172   5.115   0.600 -2.2785 -0.6947 -0.0844
  308MOL0     H40656   1.311   5.173   0.414  1.3515 -0.2001  1.5588
  309MOL0     O40657   3.938   1.608   1.051  0.4693  0.4724 -0.2767
  309MOL0     C40658   4.002   1.672   1.135  0.2444  0.2332 -0.4252
  309MOL0     O40659   3.959   1.718   1.262  0.3509 -0.2906  0.2862
  309MOL0     C40660   3.822   1.740   1.280 -0.1062  0.9585  0.2087
  309MOL0     C40661   3.761   1.733   1.408 -0.6219 -0.3372 -0.0959
  309MOL0     C40662   3.626   1.742   1.436 -0.5085 -0.4215  0.0377
  309MOL0     C40663   3.536   1.755   1.331  0.5876 -0.6932 -0.0560
  309MOL0     O40664   3.404   1.750   1.367  0.5459 -0.0098  0.5295
  309MOL0     C40665   3.303   1.758   1.266 -0.4098  0.3522  0.7279
  309MOL0     C40666   3.166   1.721   1.328 -0.9601  0.2512  0.2620
  309MOL0     C40667   3.106   1.795   1.457  1.1648 -0.9380 -0.9528
  309MOL0     C40668   3.194   1.774   1.589 -0.8052 -0.5927  0.8102
  309MOL0     C40669   3.114   1.811   1.714  0.3282  0.3537  0.5411
  309MOL0     C40670   3.006   1.717   1.756 -0.7764  0.2473 -0.0805
  309MOL0     C40671   2.942   1.773   1.886  0.7038 -0.6938  0.5496
  309MOL0     C40672   2.821   1.697   1.943  0.3992  0.2961 -0.0338
  309MOL0     N40673   2.770   1.759   2.075 -0.8479  1.2542  0.6231
  309MOL0     C40674   2.703   1.876   2.083  0.2858  0.3804  0.1123
  309MOL0     C40675   2.668   1.885   2.212 -0.1963 -0.0107  0.1339
  309MOL0     C40676   2.607   1.999   2.295 -0.1861  0.9563  0.6376
  309MOL0     C40677   2.706   2.115   2.315 -0.4827 -0.0156  0.1330
  309MOL0     C40678   2.693   2.206   2.191  0.3955  0.4559 -0.8273
  309MOL0     C40679   2.815   2.283   2.155  0.2937 -0.5657  0.6231
  309MOL0     O40680   2.894   2.208   2.064 -0.1599 -0.6662  0.5652
  309MOL0     C40681   3.022   2.240   2.025 -0.2429 -0.0559 -0.4553
  309MOL0     C40682   3.089   2.362   2.047  0.0628  0.6054 -0.4059
  309MOL0     C40683   3.210   2.393   1.985  0.5349 -0.5381 -0.6625
  309MOL0     C40684   3.277   2.291   1.920 -0.4486 -0.7888  0.5160
  309MOL0     C40685   3.417   2.291   1.877  0.1462 -1.2558 -0.0071
  309MOL0     O40686   3.462   2.413   1.878  0.1472  0.0508  1.0319
  309MOL0     C40687   3.587   2.430   1.811 -1.2870 -0.2464 -0.4501
  309MOL0     C40688   3.595   2.474   1.682  0.0529  0.2280  0.5416
  309MOL0     C40689   3.726   2.490   1.620  0.1835 -0.8234  0.2137
  309MOL0     C40690   3.846   2.462   1.680 -0.4130 -0.1673 -1.1892
  309MOL0     O40691   3.952   2.473   1.593 -0.4063  0.3292 -0.2714
  309MOL0     C40692   4.057   2.385   1.624  0.0276  0.1453  0.1710
  309MOL0     C40693   4.173   2.425   1.530 -0.4535  0.4547 -0.0225
  309MOL0     C40694   4.281   2.314   1.534 -0.3323 -0.4666  0.2239
  309MOL0     C40695   4.418   2.366   1.500 -0.6156 -0.5317 -0.5965
  309MOL0     C40696   4.415   2.410   1.352  0.2778 -0.4969  0.1051
  309MOL0     C40697   4.548   2.424   1.281 -0.1176  0.5449 -0.1862
  309MOL0     C40698   4.648   2.506   1.355 -0.3808  0.1309 -0.7968
  309MOL0     C40699   4.758   2.554   1.263 -1.0188  0.0407  0.3046
  309MOL0    Cl40700   4.694   2.680   1.153  0.5846 -0.1473 -0.0485
  309MOL0     C40701   3.840   2.429   1.818 -0.4883  0.7807  0.0181
  309MOL0     C40702   3.726   2.406   1.880  0.5570  0.1295 -0.2404
  309MOL0     O40703   3.476   2.189   1.848 -0.1817  0.2148  0.5140
  309MOL0     C40704   3.212   2.165   1.906 -0.6742 -0.0992 -0.3491
  309MOL0     C40705   3.098   2.144   1.966  0.2654  0.1815 -0.4969
  309MOL0     N40706   2.717   1.773   2.275  0.7218 -0.1426 -0.0751
  309MOL0     N40707   2.773   1.692   2.196  0.9065 -0.7840 -0.4865
  309MOL0     C40708   3.589   1.771   1.197 -0.6220 -0.0690  0.1526
  309MOL0     C40709   3.724   1.759   1.175 -0.2427 -0.2081 -0.4418
  309MOL0     C40710   4.147   1.700   1.106  0.0534 -0.5621 -0.5074
  309MOL0     C40711   4.220   1.772   1.201  0.4762 -0.5351  0.1874
  309MOL0     C40712   4.357   1.794   1.187  0.2017 -0.2651 -0.1185
  309MOL0     C40713   4.435   1.745   1.079  0.2687 -0.6385 -1.1221
  309MOL0     O40714   4.573   1.783   1.089  0.0373  0.1830 -0.4577
  309MOL0     C40715   4.632   1.795   0.950 -0.4683  0.7678 -0.1230
  309MOL0     C40716   4.763   1.873   0.944 -0.0633 -0.2878 -0.4562
  309MOL0     C40717   4.749   2.013   1.001  0.2812  0.1649 -0.6519
  309MOL0     C40718   4.648   2.094   0.922 -0.7694  0.8817 -0.5584
  309MOL0     C40719   4.652   2.233   0.954  1.5901 -0.3950 -0.3140
  309MOL0     C40720   4.640   2.354   0.972 -0.5609  0.4497  0.7027
  309MOL0     C40721   4.359   1.692   0.980 -0.0073 -0.3061  0.4008
  309MOL0     C40722   4.222   1.662   0.987  0.3858  0.1639 -0.0486
  309MOL0     H40723   3.816   1.705   1.497 -3.2471 -3.1403  0.8312
  309MOL0     H40724   3.583   1.720   1.533 -1.7387 -1.4069 -0.7028
  309MOL0     H40725   3.329   1.680   1.194 -0.5718  0.0807  0.9581
  309MOL0     H40726   3.307   1.858   1.222  1.2306  0.0102  0.0244
  309MOL0     H40727   3.154   1.614   1.347  0.7660  0.4003  2.6410
  309MOL0     H40728   3.096   1.739   1.246  0.1808  0.8088 -0.6230
  309MOL0     H40729   3.004   1.761   1.478 -0.0353  1.9310 -1.7574
  309MOL0     H40730   3.099   1.902   1.435  2.2028 -1.0348 -1.8296
  309MOL0     H40731   3.229   1.670   1.592  3.1889  0.5239 -0.1356
  309MOL0     H40732   3.289   1.828   1.574  0.5024 -3.0279 -0.3317
  309MOL0     H40733   3.077   1.909   1.681 -2.2069 -1.1828 -1.6409
  309MOL0     H40734   3.189   1.824   1.792  0.2047  2.3144  0.3966
  309MOL0     H40735   3.050   1.619   1.778 -1.7225 -0.0802  0.4264
  309MOL0     H40736   2.931   1.696   1.678 -2.5058 -2.4828  2.1083
  309MOL0     H40737   3.016   1.779   1.967 -1.1523  1.3398  2.2457
  309MOL0     H40738   2.923   1.880   1.870 -0.9027 -0.4052  3.5607
  309MOL0     H40739   2.847   1.592   1.959 -2.0131 -0.1566  1.4448
  309MOL0     H40740   2.747   1.695   1.862 -1.3803 -2.1558  1.5112
  309MOL0     H40741   2.692   1.954   2.008  1.0987  1.6858  1.3223
  309MOL0     H40742   2.581   1.955   2.392  0.4644 -0.3007  0.2591
  309MOL0     H40743   2.517   2.041   2.249  0.5966  0.0420 -1.8853
  309MOL0     H40744   2.805   2.068   2.321  0.3092  1.3469 -1.3751
  309MOL0     H40745   2.685   2.172   2.406  0.7998  0.2592  0.2784
  309MOL0     H40746   2.651   2.157   2.102 -4.4405 -1.8483  2.2978
  309MOL0     H40747   2.609   2.273   2.208  0.2445  0.2756 -0.8534
  309MOL0     H40748   2.861   2.312   2.250 -0.8304  0.0354  0.9925
  309MOL0     H40749   2.777   2.371   2.102  0.5776  0.2334  1.7102
  309MOL0     H40750   3.050   2.434   2.119  0.4043  0.0682  0.3362
  309MOL0     H40751   3.256   2.486   2.014  1.8367 -1.1317 -0.7535
  309MOL0     H40752   3.505   2.487   1.622 -0.9470 -2.4682  1.3599
  309MOL0     H40753   3.736   2.531   1.520  0.3184  0.8198  0.8703
  309MOL0     H40754   4.026   2.283   1.599  0.5435  0.5356 -2.3924
  309MOL0     H40755   4.088   2.392   1.728  0.4649  1.4343 -0.0228
  309MOL0     H40756   4.207   2.521   1.572  2.6734 -0.7876  0.5795
  309MOL0     H40757   4.147   2.448   1.427  0.3252  0.0101 -0.3211
  309MOL0     H40758   4.258   2.236   1.460  1.7875 -0.4061 -0.5504
  309MOL0     H40759   4.285   2.279   1.637  0.9887  0.8174  0.6315
  309MOL0     H40760   4.437   2.459   1.555 -3.6808 -0.0964 -0.1003
  309MOL0     H40761   4.492   2.291   1.526  0.3118  0.9934  1.3945
  309MOL0     H40762   4.353   2.499   1.336  2.0008  0.4668 -1.5940
  309MOL0     H40763   4.370   2.327   1.295  0.3395  1.5119 -3.1115
  309MOL0     H40764   4.526   2.470   1.184 -0.2005  0.5841 -0.1482
  309MOL0     H40765   4.601   2.329   1.268 -0.3436  0.6383 -2.2368
  309MOL0     H40766   4.594   2.597   1.383 -1.1304 -1.1139  2.1523
  309MOL0     H40767   4.692   2.458   1.443 -0.0962  0.5994 -0.6732
  309MOL0     H40768   4.799   2.476   1.199 -0.4034  0.2298  0.4656
  309MOL0     H40769   4.838   2.603   1.319 -1.2015  0.0507  0.5607
  309MOL0     H40770   3.932   2.424   1.875 -1.7052 -0.9064  1.9877
  309MOL0     H40771   3.725   2.374   1.984 -0.2872 -0.5734 -0.4596
  309MOL0     H40772   3.266   2.079   1.867  0.0206  1.5569 -3.2849
  309MOL0     H40773   3.057   2.044   1.956  0.8139 -0.0056 -0.9034
  309MOL0     H40774   3.535   1.803   1.108  0.4380  1.1977 -0.0742
  309MOL0     H40775   3.749   1.785   1.072  0.6911 -1.8378 -0.6610
  309MOL0     H40776   4.164   1.796   1.291 -1.9153 -2.4192 -0.6924
  309MOL0     H40777   4.407   1.852   1.264  1.3021  0.1199 -1.0814
  309MOL0     H40778   4.563   1.845   0.882 -0.4716  2.7621  1.2849
  309MOL0     H40779   4.672   1.699   0.916  1.2509  1.5137 -0.2627
  309MOL0     H40780   4.845   1.825   0.997  2.1725 -1.4590 -4.5620
  309MOL0     H40781   4.796   1.894   0.842  0.1754  4.0481  0.3083
  309MOL0     H40782   4.848   2.056   0.991 -0.0688  0.8117 -1.4725
  309MOL0     H40783   4.714   2.007   1.105 -0.9452 -0.2315 -1.0607
  309MOL0     H40784   4.669   2.080   0.816  1.6510  1.2402 -0.1867
  309MOL0     H40785   4.543   2.064   0.934 -0.2952 -1.3167 -1.5131
  309MOL0     H40786   4.645   2.461   0.974 -0.3888  0.4379  2.0612
  309MOL0     H40787   4.420   1.638   0.909  2.6765  2.2354  0.5598
  309MOL0     H40788   4.175   1.599   0.912 -1.7469  0.0024  1.3312
  310MOL0     O40789   9.104  10.339   7.752 -0.2713 -0.4572 -0.0705
  310MOL0     C40790   9.111  10.247   7.824 -0.2745  0.6237  0.3888
  310MOL0     O40791   9.122  10.111   7.791 -0.7040  0.1638 -0.3159
  310MOL0     C40792   9.068  10.071   7.673  0.7111  1.1983  0.2784
  310MOL0     C40793   9.116   9.948   7.622 -1.0361  0.7942 -0.2952
  310MOL0     C40794   9.042   9.890   7.518 -0.3865 -0.2487 -0.0675
  310MOL0     C40795   8.942   9.955   7.447 -0.7885  0.3619 -0.4568
  310MOL0     O40796   8.875   9.897   7.345 -0.0652 -0.1876 -0.0573
  310MOL0     C40797   8.903   9.969   7.221  0.1802 -0.7886 -0.0762
  310MOL0     C40798   8.856   9.893   7.100  0.3657 -0.0020  0.4278
  310MOL0     C40799   8.940   9.950   6.981  0.1481 -0.0933 -0.5081
  310MOL0     C40800   8.907   9.874   6.848 -0.3573  0.2392  1.1567
  310MOL0     C40801   8.984   9.931   6.727 -0.0251  0.4306  0.5229
  310MOL0     C40802   8.952   9.868   6.594  0.5207  0.3445  0.1860
  310MOL0     C40803   9.057   9.919   6.481  0.0133 -0.6040 -0.0387
  310MOL0     C40804   8.985   9.915   6.344  0.6268 -0.4675  0.5024
  310MOL0     N40805   8.862   9.985   6.336 -0.0801  0.2091 -0.1670
  310MOL0     C40806   8.847  10.118   6.366  0.1764  0.0919 -0.4529
  310MOL0     C40807   8.717  10.148   6.329  0.3995  0.7471 -0.0270
  310MOL0     C40808   8.636  10.267   6.355 -0.0076  0.8545 -0.5701
  310MOL0     C40809   8.664  10.381   6.254 -0.8693 -0.0739  0.0286
  310MOL0     C40810   8.602  10.510   6.301  0.9635  0.2078 -0.5709
  310MOL0     C40811   8.672  10.577   6.415 -0.3105 -0.5689  0.4805
  310MOL0     O40812   8.594  10.568   6.536  0.5675 -0.9449  0.3361
  310MOL0     C40813   8.624  10.666   6.627  0.0833  0.0542 -0.7133
  310MOL0     C40814   8.524  10.705   6.719 -0.7177 -0.0777  0.7748
  310MOL0     C40815   8.536  10.809   6.806  0.7284 -0.2066  0.2157
  310MOL0     C40816   8.655  10.880   6.814  0.1686  0.8852  0.1764
  310MOL0     C40817   8.676  10.995   6.909  0.3021 -0.6060  0.7370
  310MOL0     O40818   8.781  11.077   6.880 -0.2514  0.4562  0.1317
  310MOL0     C40819   8.810  11.189   6.958  0.8903 -0.5096  0.4830
  310MOL0     C40820   8.927  11.243   6.918  0.6893 -0.1583  0.5803
  310MOL0     C40821   8.970  11.365   6.977  0.3969  0.5237 -0.0824
  310MOL0     C40822   8.893  11.434   7.072 -0.8339 -0.0139 -0.0539
  310MOL0     O40823   8.949  11.553   7.120 -0.3600 -0.0838  0.1386
  310MOL0     C40824   8.871  11.632   7.222 -0.6984  0.7939  0.2233
  310MOL0     C40825   8.872  11.572   7.369 -0.5931  0.0391  0.1673
  310MOL0     C40826   8.964  11.653   7.457  0.6402  0.5422 -0.0603
  310MOL0     C40827   9.006  11.572   7.579  0.2317  0.3293  0.5375
  310MOL0     C40828   9.086  11.657   7.681  0.5438  0.1686 -0.3306
  310MOL0     C40829   9.128  11.563   7.798  0.6021  0.4064 -0.4244
  310MOL0     C40830   8.995  11.507   7.867  0.0325  0.0990  0.3329
  310MOL0     C40831   9.036  11.457   8.012  0.4785 -1.5062  0.1818
  310MOL0    Cl40832   9.064  11.599   8.114  0.2864 -0.1794 -0.2109
  310MOL0     C40833   8.775  11.374   7.113 -0.2728 -0.3363 -0.1291
  310MOL0     C40834   8.725  11.256   7.060  0.3087  0.2270 -0.3811
  310MOL0     O40835   8.607  10.990   7.014 -0.3593 -0.1108 -0.6040
  310MOL0     C40836   8.765  10.842   6.733  0.8775  1.1074 -0.2042
  310MOL0     C40837   8.744  10.732   6.640 -0.8858  0.0214  0.0591
  310MOL0     N40838   8.665  10.036   6.266  1.2688  0.7863  0.2969
  310MOL0     N40839   8.753   9.938   6.270  0.3051  0.3110  0.4011
  310MOL0     C40840   8.906  10.079   7.491  1.1884 -1.0663  1.1771
  310MOL0     C40841   8.967  10.139   7.602 -0.6612  0.0006  1.5014
  310MOL0     C40842   9.093  10.272   7.968 -0.8017 -0.0499 -0.0786
  310MOL0     C40843   9.066  10.173   8.067 -1.0497 -0.3863  0.8295
  310MOL0     C40844   9.070  10.207   8.199  0.3168  0.0013  0.1514
  310MOL0     C40845   9.079  10.338   8.242  0.1037 -0.9262 -0.6963
  310MOL0     O40846   9.072  10.355   8.377  0.7398  0.0871 -0.4334
  310MOL0     C40847   9.065  10.486   8.427 -0.9383 -0.0886 -0.0337
  310MOL0     C40848   9.052  10.490   8.587 -0.0696 -0.7869 -0.0038
  310MOL0     C40849   9.146  10.392   8.653 -0.7241  0.6441 -0.3150
  310MOL0     C40850   9.109  10.392   8.798 -0.7449 -0.5522 -0.6739
  310MOL0     C40851   9.219  10.311   8.867  1.2067  0.6860 -0.9885
  310MOL0     C40852   9.311  10.263   8.926 -0.0959 -0.2696 -0.4964
  310MOL0     C40853   9.094  10.443   8.146 -1.0643  0.3156 -0.4122
  310MOL0     C40854   9.105  10.411   8.008 -0.1106 -0.0500 -0.4714
  310MOL0     H40855   9.194   9.885   7.665  1.1983  2.0042 -2.3867
  310MOL0     H40856   9.072   9.790   7.488 -2.4179 -0.3140 -2.1223
  310MOL0     H40857   9.012   9.979   7.218  0.2128 -0.7101  0.9902
  310MOL0     H40858   8.861  10.069   7.212  0.7914 -0.5343 -0.1836
  310MOL0     H40859   8.747   9.893   7.086  0.3276 -0.2127  0.7198
  310MOL0     H40860   8.891   9.789   7.107 -2.2196 -1.0207 -0.5260
  310MOL0     H40861   9.047   9.944   6.999 -0.1296 -0.7389  1.1017
  310MOL0     H40862   8.924  10.057   6.964 -1.2396 -0.2299 -0.2142
  310MOL0     H40863   8.937   9.770   6.864  0.3711  0.3744  0.7170
  310MOL0     H40864   8.799   9.874   6.827 -0.6165 -0.1872  2.4411
  310MOL0     H40865   9.089   9.905   6.742  0.0530 -0.1501 -0.8503
  310MOL0     H40866   8.970  10.040   6.725  1.0396  0.6425  2.3332
  310MOL0     H40867   8.850   9.897   6.570 -0.1862  1.7410  4.1587
  310MOL0     H40868   8.952   9.758   6.598 -1.9282  0.2933  0.3190
  310MOL0     H40869   9.095  10.021   6.493  2.4922 -1.6530  1.5919
  310MOL0     H40870   9.144   9.855   6.468  0.6025  0.6115 -3.0323
  310MOL0     H40871   8.969   9.807   6.338  2.5076 -0.6886 -2.1442
  310MOL0     H40872   9.057   9.938   6.266  0.1018  0.2499  0.2198
  310MOL0     H40873   8.909  10.184   6.426  0.7237  0.3716 -1.3131
  310MOL0     H40874   8.661  10.312   6.452  1.9237  1.2881 -1.2213
  310MOL0     H40875   8.530  10.240   6.354  0.7663 -2.5634 -0.9127
  310MOL0     H40876   8.620  10.341   6.163 -1.2241 -1.9199  0.9721
  310MOL0     H40877   8.772  10.387   6.244 -0.7664 -0.5288  0.7817
  310MOL0     H40878   8.610  10.581   6.219  1.8310  0.3893 -0.3505
  310MOL0     H40879   8.497  10.485   6.318  1.6562 -1.8180  1.0937
  310MOL0     H40880   8.689  10.680   6.384  2.1555 -1.3529 -1.0802
  310MOL0     H40881   8.772  10.533   6.418  0.6558  1.4602  0.0018
  310MOL0     H40882   8.430  10.650   6.711 -3.3009  3.9781  0.4819
  310MOL0     H40883   8.460  10.850   6.872  0.6449 -0.3759  0.2248
  310MOL0     H40884   8.998  11.200   6.847  1.3694  2.4691 -0.4707
  310MOL0     H40885   9.063  11.412   6.949 -0.1185  1.9445  0.4922
  310MOL0     H40886   8.769  11.630   7.184 -0.2350 -0.7123 -1.0743
  310MOL0     H40887   8.902  11.738   7.218 -0.3142  0.6747 -0.1404
  310MOL0     H40888   8.896  11.465   7.367 -1.3564 -0.1259 -1.3838
  310MOL0     H40889   8.774  11.586   7.415 -1.9579 -0.2244 -2.4457
  310MOL0     H40890   8.917  11.747   7.488 -1.7720 -0.7053  0.3246
  310MOL0     H40891   9.056  11.677   7.404 -1.2063  3.7415 -2.1939
  310MOL0     H40892   8.916  11.527   7.621 -1.4049  0.4090 -2.5893
  310MOL0     H40893   9.075  11.493   7.549  0.8702  0.3320  1.9480
  310MOL0     H40894   9.020  11.727   7.732 -0.2728 -0.5087 -0.4387
  310MOL0     H40895   9.169  11.711   7.634  1.9677  0.9668  2.7702
  310MOL0     H40896   9.186  11.632   7.861  0.4517  1.4734 -1.4168
  310MOL0     H40897   9.184  11.472   7.774  0.7835  0.9527 -2.2328
  310MOL0     H40898   8.905  11.567   7.853 -0.7904 -0.3007  3.3054
  310MOL0     H40899   8.971  11.418   7.807 -0.3859 -0.0579  0.7292
  310MOL0     H40900   9.130  11.402   7.996  0.3909 -1.6137  0.0377
  310MOL0     H40901   8.964  11.395   8.066  0.7876 -2.5684 -0.5678
  310MOL0     H40902   8.734  11.431   7.196  0.0761 -1.0969  0.5802
  310MOL0     H40903   8.631  11.218   7.101 -0.1310 -1.8447 -3.0225
  310MOL0     H40904   8.853  10.904   6.729  0.6067  1.4311 -1.6666
  310MOL0     H40905   8.825  10.697   6.577  0.2394 -1.3543  2.1467
  310MOL0     H40906   8.827  10.141   7.448  0.5115 -1.2611  2.0936
  310MOL0     H40907   8.930  10.234   7.639  0.1928  0.8738  0.2133
  310MOL0     H40908   9.064  10.068   8.037  4.0571 -0.2386 -0.8676
  310MOL0     H40909   9.039  10.131   8.270  0.6673  1.1432  1.5616
  310MOL0     H40910   8.985  10.546   8.384 -2.0517 -0.4113  1.4914
  310MOL0     H40911   9.164  10.532   8.414 -0.8466 -0.4577 -0.6744
  310MOL0     H40912   9.052  10.594   8.622  1.3485 -0.3777 -1.1042
  310MOL0     H40913   8.950  10.454   8.604 -0.8956  0.3932 -2.0040
  310MOL0     H40914   9.251  10.421   8.645 -0.6599  0.4003 -0.3773
  310MOL0     H40915   9.126  10.292   8.614 -2.7992 -0.2053  2.6392
  310MOL0     H40916   9.102  10.487   8.852 -1.4092 -0.5619 -0.7385
  310MOL0     H40917   9.013  10.346   8.822 -0.3566 -1.1041 -0.1191
  310MOL0     H40918   9.373  10.210   8.995 -2.5081 -0.0437  1.9880
  310MOL0     H40919   9.110  10.548   8.169 -2.7002  0.7051 -0.9111
  310MOL0     H40920   9.118  10.497   7.944 -1.1980  1.9023  1.7739
  311MOL0     O40921   9.298   4.093  11.115  0.2852 -0.7511  0.0415
  311MOL0     C40922   9.257   4.120  11.004 -0.6867 -0.1926  0.6632
  311MOL0     O40923   9.288   4.230  10.931 -0.0006 -0.4325 -0.5371
  311MOL0     C40924   9.423   4.268  10.916 -0.0248  0.0056 -1.5000
  311MOL0     C40925   9.443   4.394  10.878 -0.5977  0.4658 -0.8147
  311MOL0     C40926   9.566   4.436  10.839 -0.0958  0.0577 -0.3244
  311MOL0     C40927   9.678   4.343  10.848  0.0169  0.4646  0.0530
  311MOL0     O40928   9.791   4.387  10.785 -0.3098  0.3291 -0.1809
  311MOL0     C40929   9.856   4.286  10.699 -0.5786  0.4030 -0.3956
  311MOL0     C40930   9.959   4.337  10.593  0.0224  0.5265  1.2726
  311MOL0     C40931  10.089   4.390  10.661  0.2684  0.6457 -0.8021
  311MOL0     C40932  10.172   4.468  10.560  0.1168 -0.6950 -0.3384
  311MOL0     C40933  10.301   4.507  10.635 -0.8441 -0.4355  0.0078
  311MOL0     C40934  10.372   4.606  10.538 -0.2608  0.9597  0.3093
  311MOL0     C40935  10.516   4.621  10.583  0.4039 -0.1987 -0.0177
  311MOL0     C40936  10.609   4.700  10.487  0.3456  0.0970  0.0745
  311MOL0     N40937  10.713   4.769  10.563 -0.2213  0.8086 -0.0521
  311MOL0     C40938  10.818   4.705  10.636 -1.8326 -0.0506 -0.7757
  311MOL0     C40939  10.907   4.802  10.659  0.2283 -0.3693  0.6606
  311MOL0     C40940  11.035   4.788  10.737  0.7265 -0.3851 -0.6561
  311MOL0     C40941  11.157   4.786  10.649 -0.1907  0.0484  0.1634
  311MOL0     C40942  11.166   4.684  10.536 -0.0282 -0.9050 -0.0197
  311MOL0     C40943  11.126   4.540  10.575  0.7234 -0.2126 -0.5865
  311MOL0     O40944  11.100   4.469  10.451  0.4286  0.5416 -0.3163
  311MOL0     C40945  10.976   4.395  10.455 -0.8721 -0.3332 -0.2241
  311MOL0     C40946  10.927   4.319  10.566  0.1102 -0.2702  0.2624
  311MOL0     C40947  10.794   4.265  10.553 -0.2025  0.0226 -0.7264
  311MOL0     C40948  10.716   4.290  10.439  0.1098  0.7289 -0.1635
  311MOL0     C40949  10.572   4.248  10.449 -0.6737  1.1626  0.6779
  311MOL0     O40950  10.538   4.183  10.569 -0.3673  0.9034  0.2062
  311MOL0     C40951  10.411   4.137  10.602 -0.5806 -0.0853  1.1091
  311MOL0     C40952  10.381   4.107  10.732  0.2400  0.0663  0.1648
  311MOL0     C40953  10.267   4.032  10.760  0.2594 -1.2778 -0.2579
  311MOL0     C40954  10.170   4.003  10.663 -0.8989 -0.5109 -1.0144
  311MOL0     O40955  10.055   3.942  10.709 -0.2160 -0.2269 -0.0383
  311MOL0     C40956   9.946   3.917  10.617  1.2161 -0.5486 -1.5405
  311MOL0     C40957   9.819   3.903  10.696  0.0121  0.8744 -0.1700
  311MOL0     C40958   9.798   3.760  10.747 -0.0157 -0.8174  0.4522
  311MOL0     C40959   9.648   3.752  10.802 -0.3762 -0.4797 -0.1632
  311MOL0     C40960   9.621   3.628  10.885 -0.3375  0.0941  0.2660
  311MOL0     C40961   9.627   3.498  10.805  0.4099  0.7541  0.1576
  311MOL0     C40962   9.593   3.374  10.892 -0.2983  0.3892 -0.4647
  311MOL0     C40963   9.660   3.249  10.834 -0.7569  0.5338  0.3692
  311MOL0    Cl40964   9.840   3.253  10.854 -0.0997  0.2510 -0.0831
  311MOL0     C40965  10.198   4.040  10.536  0.1545 -0.6757 -0.0036
  311MOL0     C40966  10.308   4.112  10.501  0.4160  0.0468  0.4827
  311MOL0     O40967  10.493   4.286  10.359  0.5585 -1.0854  0.1868
  311MOL0     C40968  10.764   4.375  10.334 -0.2538  0.0930  0.0538
  311MOL0     C40969  10.896   4.419  10.342 -0.0027 -0.7512  0.4824
  311MOL0     N40970  10.869   4.921  10.606 -0.4427 -0.5054  0.1299
  311MOL0     N40971  10.755   4.897  10.545 -1.0646 -0.7650  0.0157
  311MOL0     C40972   9.658   4.208  10.883 -0.1655 -0.0106 -0.4591
  311MOL0     C40973   9.529   4.174  10.914  0.4098 -0.1383 -0.5020
  311MOL0     C40974   9.139   4.040  10.968  0.6686 -0.3426  0.4853
  311MOL0     C40975   9.058   4.088  10.856  0.0619  0.2084 -2.0448
  311MOL0     C40976   8.949   4.012  10.815  0.2881 -0.2406 -0.1236
  311MOL0     C40977   8.917   3.895  10.887 -0.5730  0.9429 -0.2541
  311MOL0     O40978   8.803   3.824  10.877 -0.3071 -0.3614  0.2687
  311MOL0     C40979   8.705   3.869  10.787 -0.3071  0.1535  0.2132
  311MOL0     C40980   8.605   3.750  10.798  0.8458 -0.4359  0.4424
  311MOL0     C40981   8.649   3.615  10.735  0.2430 -0.2165  0.5486
  311MOL0     C40982   8.533   3.546  10.649  0.5585 -0.4352  0.6938
  311MOL0     C40983   8.524   3.623  10.529  0.4623  0.4800  1.0574
  311MOL0     C40984   8.510   3.673  10.416 -0.4086  0.5138 -1.2982
  311MOL0     C40985   8.990   3.853  10.990  0.3544  0.0066  0.4634
  311MOL0     C40986   9.094   3.924  11.037  0.3300 -0.1247  0.4869
  311MOL0     H40987   9.362   4.463  10.861 -0.2534  0.7683 -1.2224
  311MOL0     H40988   9.592   4.535  10.802  0.6952  1.1254  2.7586
  311MOL0     H40989   9.780   4.225  10.650  0.6644  0.2193 -2.2224
  311MOL0     H40990   9.914   4.220  10.765 -0.3497  0.4005 -0.5951
  311MOL0     H40991   9.909   4.413  10.532  0.6398  0.0954  0.2057
  311MOL0     H40992   9.986   4.256  10.525 -0.5174  2.2104 -1.0750
  311MOL0     H40993  10.135   4.306  10.714  0.9673  2.8076  2.3587
  311MOL0     H40994  10.058   4.460  10.739 -0.8723 -2.2656  1.5433
  311MOL0     H40995  10.208   4.413  10.472 -0.0967  0.1424 -0.9645
  311MOL0     H40996  10.118   4.557  10.526 -1.6489 -0.9956  1.5344
  311MOL0     H40997  10.367   4.423  10.662  2.8456  2.7064  1.7559
  311MOL0     H40998  10.277   4.553  10.731 -2.1505  0.3402 -0.6624
  311MOL0     H40999  10.320   4.702  10.547 -3.1411 -0.4109 -0.3548
  311MOL0     H41000  10.375   4.559  10.439  0.7964  0.8963  0.3668
  311MOL0     H41001  10.500   4.676  10.676 -1.2257  0.9999 -0.9561
  311MOL0     H41002  10.573   4.527  10.589  0.0334 -0.4044  0.3479
  311MOL0     H41003  10.550   4.781  10.443  2.4455 -0.2347 -3.8549
  311MOL0     H41004  10.654   4.643  10.405 -2.1276  1.0689 -2.1165
  311MOL0     H41005  10.816   4.600  10.663 -1.3077  0.4517  1.3308
  311MOL0     H41006  11.035   4.693  10.793 -1.2492  1.9350  3.7711
  311MOL0     H41007  11.044   4.872  10.806 -1.4278  1.5534 -2.5489
  311MOL0     H41008  11.242   4.758  10.711  1.1670 -3.0347 -2.7931
  311MOL0     H41009  11.178   4.891  10.628 -0.3966  0.0494 -0.0471
  311MOL0     H41010  11.094   4.707  10.458 -3.5982 -0.2934  3.1371
  311MOL0     H41011  11.266   4.688  10.491 -0.8396 -1.9488 -2.0025
  311MOL0     H41012  11.043   4.541  10.646  0.8017 -0.6938 -0.4855
  311MOL0     H41013  11.200   4.490  10.638 -0.0796 -1.7464 -0.8324
  311MOL0     H41014  10.974   4.309  10.663 -0.0315 -1.0011  0.2651
  311MOL0     H41015  10.761   4.203  10.636 -2.8353 -0.4222 -1.9899
  311MOL0     H41016  10.443   4.123  10.820 -4.0517 -1.2683  3.7677
  311MOL0     H41017  10.245   3.991  10.858 -1.3460  0.2081  0.0682
  311MOL0     H41018   9.954   3.841  10.540  1.6774 -1.9617 -0.1623
  311MOL0     H41019   9.941   4.013  10.566  1.0383  1.9887  2.7593
  311MOL0     H41020   9.731   3.928  10.636 -0.9126  0.4321  0.9779
  311MOL0     H41021   9.811   3.963  10.787 -1.8419 -2.8934  2.4406
  311MOL0     H41022   9.876   3.731  10.818  0.6035 -0.5488 -0.1099
  311MOL0     H41023   9.803   3.691  10.663 -0.0986 -0.7838  0.4191
  311MOL0     H41024   9.649   3.833  10.875  1.1490 -2.5713  2.3253
  311MOL0     H41025   9.588   3.762  10.711 -0.0591  0.1098 -0.3077
  311MOL0     H41026   9.518   3.630  10.924 -0.3986 -0.8495  0.1578
  311MOL0     H41027   9.686   3.630  10.972  1.0016  0.1763 -0.7163
  311MOL0     H41028   9.731   3.490  10.770  1.4947 -0.6737  3.3275
  311MOL0     H41029   9.562   3.512  10.718  3.2445  2.5476 -1.8552
  311MOL0     H41030   9.639   3.392  10.990 -0.5818 -1.7626  0.0968
  311MOL0     H41031   9.486   3.367  10.913  0.1632  0.5237  2.4147
  311MOL0     H41032   9.635   3.235  10.728  1.4285 -2.1753  0.0925
  311MOL0     H41033   9.619   3.173  10.901 -0.7841 -0.9271 -1.2493
  311MOL0     H41034  10.133   4.012  10.453  0.5725 -0.0417 -0.5514
  311MOL0     H41035  10.311   4.134  10.395 -2.0742 -0.9713  0.1168
  311MOL0     H41036  10.700   4.396  10.249  1.1322 -1.7884 -1.5319
  311MOL0     H41037  10.926   4.477  10.255 -5.0354 -2.2702 -2.6713
  311MOL0     H41038   9.746   4.145  10.875  2.0467  2.6787  0.8584
  311MOL0     H41039   9.502   4.070  10.932 -2.7162  1.0243  2.8843
  311MOL0     H41040   9.079   4.189  10.821 -0.7687 -0.1422 -3.6656
  311MOL0     H41041   8.893   4.056  10.734  2.0828 -2.2992 -2.6443
  311MOL0     H41042   8.735   3.892  10.685 -2.0588  0.9423 -0.1665
  311MOL0     H41043   8.672   3.963  10.832  2.0129 -0.0673  2.6576
  311MOL0     H41044   8.580   3.741  10.904  2.0218  0.9723  0.8845
  311MOL0     H41045   8.505   3.775  10.762  0.5670 -0.2937  1.3039
  311MOL0     H41046   8.673   3.553  10.822 -1.2607  1.9194  2.5657
  311MOL0     H41047   8.736   3.632  10.670 -0.8367  1.7322 -0.4689
  311MOL0     H41048   8.557   3.444  10.617  1.8333 -0.0567  0.4189
  311MOL0     H41049   8.433   3.553  10.694 -0.4628  0.0137 -1.4875
  311MOL0     H41050   8.485   3.727  10.327 -1.0579  2.1312 -0.1696
  311MOL0     H41051   8.958   3.764  11.044 -1.5831  1.6922  2.2855
  311MOL0     H41052   9.156   3.886  11.118  0.9666  1.4501  0.7791
  312MOL0     O41053   7.343   1.690   3.307 -0.4557  0.0465 -0.7743
  312MOL0     C41054   7.360   1.629   3.414  0.6824  0.3470 -0.1884
  312MOL0     O41055   7.247   1.590   3.490 -0.0291 -0.7126  0.2991
  312MOL0     C41056   7.122   1.635   3.452 -0.1162  0.4960  0.2165
  312MOL0     C41057   7.072   1.611   3.324  0.0854 -0.9925  0.2595
  312MOL0     C41058   6.946   1.649   3.282 -0.4457  0.4880 -0.5254
  312MOL0     C41059   6.871   1.729   3.383  0.0628 -0.3550  0.5640
  312MOL0     O41060   6.735   1.774   3.365 -0.1894 -0.4748 -0.1713
  312MOL0     C41061   6.655   1.697   3.270 -0.8031  0.0410  0.0839
  312MOL0     C41062   6.516   1.744   3.253  0.2008  0.3450 -1.0873
  312MOL0     C41063   6.422   1.761   3.374 -0.3074  0.3361  0.5775
  312MOL0     C41064   6.460   1.662   3.483  0.5844  0.9249  0.4321
  312MOL0     C41065   6.354   1.667   3.596  0.5190 -0.0695  0.4308
  312MOL0     C41066   6.408   1.600   3.718  1.0209  0.1985  0.0771
  312MOL0     C41067   6.318   1.634   3.839  2.1444  0.6522  0.5983
  312MOL0     C41068   6.362   1.559   3.968  1.5747 -0.5805  1.2049
  312MOL0     N41069   6.292   1.602   4.093  0.0830 -0.9702 -0.8482
  312MOL0     C41070   6.338   1.592   4.224  1.0875  0.5255  0.3859
  312MOL0     C41071   6.225   1.628   4.296 -0.2133  0.9016  1.4175
  312MOL0     C41072   6.231   1.648   4.454 -0.0200  0.1808  0.1685
  312MOL0     C41073   6.093   1.633   4.518 -0.6216 -0.3386  0.8694
  312MOL0     C41074   6.012   1.753   4.508  0.3774 -0.5639 -0.2594
  312MOL0     C41075   5.877   1.739   4.579 -0.1768 -1.2778 -0.6333
  312MOL0     O41076   5.804   1.867   4.560  0.5184 -0.6031 -0.2380
  312MOL0     C41077   5.666   1.868   4.573  0.3786  0.2790  0.0692
  312MOL0     C41078   5.585   1.758   4.607 -1.2300 -0.5958  0.2181
  312MOL0     C41079   5.446   1.773   4.609  0.3409  0.8788  0.1346
  312MOL0     C41080   5.384   1.894   4.581  0.1238  0.1190  0.2196
  312MOL0     C41081   5.231   1.906   4.572 -1.4181  0.6092 -0.7531
  312MOL0     O41082   5.184   2.025   4.611 -0.0873 -0.1195 -0.3774
  312MOL0     C41083   5.057   2.063   4.612  0.2241  0.1861 -0.4489
  312MOL0     C41084   5.017   2.137   4.727  1.1563 -0.4232  0.0884
  312MOL0     C41085   4.878   2.175   4.740  0.1888  0.0849 -0.6501
  312MOL0     C41086   4.784   2.131   4.641 -0.0259  0.3343  0.7245
  312MOL0     O41087   4.654   2.161   4.665  0.3570  0.5959 -0.8436
  312MOL0     C41088   4.546   2.142   4.580  0.5354 -0.3364  0.7032
  312MOL0     C41089   4.549   2.213   4.451 -0.1570  0.8396 -0.3188
  312MOL0     C41090   4.606   2.353   4.447 -1.5763  0.8283 -0.2939
  312MOL0     C41091   4.631   2.408   4.301 -0.2390 -0.3685  0.6645
  312MOL0     C41092   4.633   2.566   4.294 -0.4301  1.4410  0.4853
  312MOL0     C41093   4.746   2.611   4.184  0.2625  0.9527 -0.1070
  312MOL0     C41094   4.755   2.759   4.145 -0.1217  0.3298 -0.0740
  312MOL0     C41095   4.862   2.782   4.029  0.7473 -1.2280 -0.5585
  312MOL0    Cl41096   5.032   2.756   4.091  0.4946  0.0820 -0.0294
  312MOL0     C41097   4.829   2.062   4.532  0.0538 -0.0369  0.2050
  312MOL0     C41098   4.954   2.026   4.519 -1.0268  0.2342  1.0748
  312MOL0     O41099   5.177   1.804   4.527  0.1040  0.3908  0.4751
  312MOL0     C41100   5.464   2.005   4.561  0.2852  0.3019 -0.7162
  312MOL0     C41101   5.603   1.996   4.556 -0.7094 -0.9428  1.3433
  312MOL0     N41102   6.110   1.637   4.209  0.0205 -0.0793 -0.4569
  312MOL0     N41103   6.156   1.640   4.084 -0.4773 -0.4402  0.0098
  312MOL0     C41104   6.920   1.755   3.507  0.4106  0.7472  0.1881
  312MOL0     C41105   7.046   1.711   3.545 -0.6979  0.3949 -0.6492
  312MOL0     C41106   7.493   1.575   3.439 -0.4624  0.2459 -0.3411
  312MOL0     C41107   7.602   1.585   3.343  0.6483  0.1685  0.3955
  312MOL0     C41108   7.730   1.530   3.368 -0.2822 -0.0770 -0.1319
  312MOL0     C41109   7.749   1.463   3.491 -0.0369  0.3690  0.7858
  312MOL0     O41110   7.873   1.420   3.529  0.6919  0.3852 -0.8663
  312MOL0     C41111   7.963   1.368   3.437 -0.6615 -0.2998  0.6056
  312MOL0     C41112   8.045   1.273   3.520 -0.7755 -0.1233  0.8249
  312MOL0     C41113   8.194   1.245   3.483 -0.2069 -0.1944 -0.6281
  312MOL0     C41114   8.225   1.098   3.540  0.1045  0.5862  0.0958
  312MOL0     C41115   8.125   0.998   3.512 -0.3364 -0.0757  0.2829
  312MOL0     C41116   8.048   0.903   3.499 -0.1077 -0.1615 -0.0548
  312MOL0     C41117   7.643   1.442   3.580 -1.0004 -0.0978 -0.1641
  312MOL0     C41118   7.515   1.511   3.565  0.2005 -0.0948 -0.0732
  312MOL0     H41119   7.137   1.562   3.252 -2.6889 -0.9895 -2.4616
  312MOL0     H41120   6.912   1.625   3.181 -1.9698  1.7198 -0.3503
  312MOL0     H41121   6.654   1.592   3.301  2.3719  0.0200  0.4029
  312MOL0     H41122   6.700   1.712   3.171  0.2044  0.5710  0.6128
  312MOL0     H41123   6.478   1.675   3.176  2.6182 -0.1626 -1.9446
  312MOL0     H41124   6.521   1.846   3.214 -1.3408  1.1870  0.8101
  312MOL0     H41125   6.315   1.756   3.348 -0.8308  1.4559  2.3503
  312MOL0     H41126   6.435   1.861   3.417 -1.4038  0.4871  0.5984
  312MOL0     H41127   6.478   1.561   3.445 -2.8893  0.6940 -1.0174
  312MOL0     H41128   6.559   1.694   3.514  2.0631  0.0046 -2.8764
  312MOL0     H41129   6.261   1.628   3.554  2.0955 -1.7990 -1.6723
  312MOL0     H41130   6.335   1.773   3.616 -0.9094  0.2577 -2.2235
  312MOL0     H41131   6.507   1.637   3.745  1.3399 -2.4561  3.1739
  312MOL0     H41132   6.420   1.493   3.696 -3.2242  0.1676 -3.5214
  312MOL0     H41133   6.325   1.742   3.854 -2.8267  1.6330 -1.8618
  312MOL0     H41134   6.217   1.614   3.801  2.2544 -0.6716  0.9563
  312MOL0     H41135   6.469   1.577   3.981  1.5344  2.3425 -1.4138
  312MOL0     H41136   6.338   1.453   3.952  0.8202 -0.6250  2.4514
  312MOL0     H41137   6.444   1.582   4.242  1.5614  0.7566 -1.9474
  312MOL0     H41138   6.291   1.739   4.471 -1.7627  1.9136 -2.2598
  312MOL0     H41139   6.295   1.565   4.484 -2.8055 -2.0401  0.3128
  312MOL0     H41140   6.115   1.618   4.624 -0.6373  2.2573  1.3164
  312MOL0     H41141   6.042   1.546   4.476 -0.7277  0.6866 -1.2475
  312MOL0     H41142   6.072   1.836   4.547 -0.6057  0.1661 -0.2748
  312MOL0     H41143   5.987   1.768   4.402  1.2112 -2.0935 -0.7032
  312MOL0     H41144   5.897   1.722   4.685 -0.2550 -0.4257 -0.4733
  312MOL0     H41145   5.818   1.656   4.539 -3.7050 -0.1251  1.6044
  312MOL0     H41146   5.634   1.667   4.641 -0.7690 -1.3766 -2.3267
  312MOL0     H41147   5.391   1.684   4.637  1.4811 -0.6069 -2.0237
  312MOL0     H41148   5.083   2.166   4.808 -1.3691  2.5577  1.2880
  312MOL0     H41149   4.847   2.217   4.834  1.8946 -2.0063  0.9734
  312MOL0     H41150   4.460   2.168   4.643  0.9040 -1.8107  1.8715
  312MOL0     H41151   4.538   2.037   4.552 -0.9012 -0.6728  2.2156
  312MOL0     H41152   4.447   2.219   4.411 -0.0813  0.5974 -0.5524
  312MOL0     H41153   4.604   2.155   4.376 -2.3761 -1.9945  0.0864
  312MOL0     H41154   4.703   2.358   4.498 -1.0375 -0.0259 -1.1840
  312MOL0     H41155   4.538   2.420   4.501  0.2882  1.5221  1.3199
  312MOL0     H41156   4.729   2.370   4.272 -1.1176 -3.0338  0.9201
  312MOL0     H41157   4.559   2.359   4.234  0.3314 -2.0418  1.2098
  312MOL0     H41158   4.673   2.592   4.392 -0.7371 -2.7484  1.9379
  312MOL0     H41159   4.535   2.607   4.270 -1.6004 -0.8456  1.0972
  312MOL0     H41160   4.735   2.564   4.085 -3.1706 -0.9593  1.0043
  312MOL0     H41161   4.841   2.588   4.233 -1.4016  0.9569  3.4701
  312MOL0     H41162   4.653   2.776   4.108 -0.4036  1.8532  1.2813
  312MOL0     H41163   4.785   2.824   4.228  1.7079  0.6423 -0.9345
  312MOL0     H41164   4.849   2.882   3.986 -1.0716 -0.2209  2.0429
  312MOL0     H41165   4.834   2.720   3.943  1.3084  0.9948 -2.4499
  312MOL0     H41166   4.756   2.011   4.471 -0.0335 -0.6678  0.8307
  312MOL0     H41167   4.979   1.958   4.439 -0.8957  1.0474  0.4133
  312MOL0     H41168   5.424   2.104   4.542 -2.5947  0.0090  2.7304
  312MOL0     H41169   5.661   2.086   4.538 -1.2356 -0.6601  1.0404
  312MOL0     H41170   6.852   1.809   3.571 -1.8189 -0.6438 -0.8664
  312MOL0     H41171   7.084   1.730   3.644  3.0238 -0.8410 -1.6548
  312MOL0     H41172   7.590   1.629   3.245  0.2675 -0.4333  0.1676
  312MOL0     H41173   7.815   1.536   3.300  0.3701  1.7434  0.7849
  312MOL0     H41174   8.024   1.448   3.396 -0.3890  0.9625  3.2807
  312MOL0     H41175   7.914   1.304   3.364 -2.2215  0.5793  0.8492
  312MOL0     H41176   8.043   1.299   3.626 -1.7745  0.2897  0.7102
  312MOL0     H41177   7.981   1.186   3.505 -1.4533  0.5409 -0.2804
  312MOL0     H41178   8.253   1.322   3.534  0.3100 -2.0383  1.7303
  312MOL0     H41179   8.216   1.253   3.376  0.1608 -0.9775 -0.6211
  312MOL0     H41180   8.318   1.070   3.488 -0.8314  0.7222 -1.7157
  312MOL0     H41181   8.255   1.098   3.645  0.9416  0.6996 -0.1350
  312MOL0     H41182   7.985   0.816   3.505 -0.8944  0.5044  2.4841
  312MOL0     H41183   7.662   1.387   3.672  0.7620  2.5026  1.1668
  312MOL0     H41184   7.447   1.526   3.648  0.6856  2.2917 -0.0303
  313MOL0     O41185   8.731   7.494   4.504  0.1223  0.1654  0.0280
  313MOL0     C41186   8.822   7.456   4.574  0.6212 -0.0726  0.4912
  313MOL0     O41187   8.857   7.329   4.616 -0.1410 -0.0490  0.0485
  313MOL0     C41188   8.784   7.219   4.593 -0.2809  0.3683 -0.5961
  313MOL0     C41189   8.763   7.127   4.700  1.0259  0.5073 -0.0826
  313MOL0     C41190   8.693   7.002   4.676  0.0444 -0.5320 -0.8198
  313MOL0     C41191   8.643   6.978   4.546 -0.4936  1.3297  0.7322
  313MOL0     O41192   8.593   6.851   4.531  0.4057 -0.2210  0.8777
  313MOL0     C41193   8.453   6.839   4.510  0.1609 -0.4142 -0.1681
  313MOL0     C41194   8.401   6.694   4.517  0.1251 -0.7570  0.8739
  313MOL0     C41195   8.356   6.653   4.651 -0.0699 -0.0153 -0.3078
  313MOL0     C41196   8.303   6.517   4.654  0.4346  0.2424 -0.6465
  313MOL0     C41197   8.225   6.492   4.787  0.0488 -0.1043 -0.6010
  313MOL0     C41198   8.162   6.361   4.805 -0.0679 -0.0253 -0.0068
  313MOL0     C41199   8.068   6.296   4.706  0.3616 -0.9188 -0.7739
  313MOL0     C41200   7.939   6.372   4.671  0.3788 -1.3407 -0.7021
  313MOL0     N41201   7.845   6.284   4.623 -0.0668 -0.5506  0.2785
  313MOL0     C41202   7.822   6.234   4.500  0.8826  0.4055  0.9198
  313MOL0     C41203   7.700   6.164   4.506 -0.0180  0.5203 -0.0723
  313MOL0     C41204   7.638   6.093   4.394  0.1132 -0.6251 -0.5994
  313MOL0     C41205   7.537   6.177   4.307 -0.5412 -0.1938  0.4629
  313MOL0     C41206   7.556   6.156   4.146  0.6653 -0.0272  0.4762
  313MOL0     C41207   7.644   6.264   4.098 -0.6862 -1.0824  0.4350
  313MOL0     O41208   7.772   6.217   4.123  0.2329 -0.5046  0.2863
  313MOL0     C41209   7.882   6.303   4.121  0.4260  0.0779 -0.3504
  313MOL0     C41210   8.008   6.241   4.141  0.8951 -0.7787  0.1073
  313MOL0     C41211   8.116   6.329   4.166 -0.3078  0.3821  0.4433
  313MOL0     C41212   8.106   6.471   4.151 -0.6711 -0.6545  0.6504
  313MOL0     C41213   8.229   6.559   4.181  0.1163 -0.2364  0.1185
  313MOL0     O41214   8.348   6.495   4.199  0.2562  0.0192 -0.1700
  313MOL0     C41215   8.474   6.555   4.207  0.0835  0.4451  0.6861
  313MOL0     C41216   8.580   6.464   4.231 -0.1176 -0.6492 -0.4917
  313MOL0     C41217   8.712   6.519   4.243 -0.5161  0.7787  0.3842
  313MOL0     C41218   8.746   6.652   4.218  0.5953  0.7231 -0.2386
  313MOL0     O41219   8.877   6.690   4.221  0.3734 -0.0657 -0.1669
  313MOL0     C41220   8.928   6.792   4.130  0.2642 -0.1988 -0.2763
  313MOL0     C41221   9.081   6.787   4.119  0.3677 -0.5575  1.2977
  313MOL0     C41222   9.130   6.866   4.000 -0.0976  0.3313  1.0350
  313MOL0     C41223   9.271   6.831   3.968  0.1807 -0.1838  0.0542
  313MOL0     C41224   9.305   6.874   3.825  0.3026 -0.0587 -0.5202
  313MOL0     C41225   9.441   6.832   3.779 -0.7507  1.1089  0.2965
  313MOL0     C41226   9.454   6.869   3.627  0.1215 -0.8168 -0.2702
  313MOL0     C41227   9.594   6.824   3.571 -0.0014 -0.7245 -0.3627
  313MOL0    Cl41228   9.623   6.650   3.599 -0.1853 -0.1978 -0.1991
  313MOL0     C41229   8.643   6.739   4.179  0.1827 -0.2138 -0.1699
  313MOL0     C41230   8.504   6.691   4.183  0.1500  0.1929 -0.4767
  313MOL0     O41231   8.210   6.680   4.194  0.8723 -0.1649 -0.4868
  313MOL0     C41232   7.988   6.522   4.113 -0.2386 -0.8195  0.4797
  313MOL0     C41233   7.877   6.442   4.094  0.3125 -0.2708  0.3709
  313MOL0     N41234   7.649   6.190   4.633  0.1244 -0.3006 -0.0122
  313MOL0     N41235   7.734   6.264   4.702 -0.2042  0.1850  0.0353
  313MOL0     C41236   8.665   7.064   4.446  0.7686  1.1278  0.5394
  313MOL0     C41237   8.733   7.186   4.471 -0.3795  0.5969  0.4444
  313MOL0     C41238   8.911   7.561   4.624 -0.7494  0.6558  0.0244
  313MOL0     C41239   9.004   7.518   4.723  0.5102 -0.3085  0.3516
  313MOL0     C41240   9.095   7.612   4.786 -1.2193  0.3866  0.2549
  313MOL0     C41241   9.109   7.742   4.745 -0.2013 -0.2547  0.4615
  313MOL0     O41242   9.212   7.825   4.786  0.5316 -0.5455  0.8275
  313MOL0     C41243   9.336   7.771   4.830  0.9375 -0.2270 -0.2728
  313MOL0     C41244   9.419   7.708   4.720  0.5756 -0.2105 -0.1295
  313MOL0     C41245   9.455   7.556   4.743 -0.2965 -0.3474 -0.4260
  313MOL0     C41246   9.549   7.541   4.873  0.4276 -0.0665  0.1836
  313MOL0     C41247   9.664   7.625   4.876 -0.7032  0.6819 -0.1949
  313MOL0     C41248   9.746   7.708   4.888 -0.2615  0.0284 -0.7097
  313MOL0     C41249   9.026   7.779   4.628  0.6528  0.0766  0.0578
  313MOL0     C41250   8.933   7.694   4.572  0.5907  0.1568 -0.5068
  313MOL0     H41251   8.788   7.152   4.803 -0.3967  1.0794  0.1540
  313MOL0     H41252   8.685   6.922   4.749  1.1393  2.6881  3.1940
  313MOL0     H41253   8.418   6.877   4.414  0.4690 -4.0467 -1.9133
  313MOL0     H41254   8.401   6.907   4.578 -1.1412  2.0643 -3.4177
  313MOL0     H41255   8.483   6.633   4.478 -0.0175 -0.1457 -0.4567
  313MOL0     H41256   8.319   6.700   4.445  3.0693 -1.0066 -2.8349
  313MOL0     H41257   8.273   6.717   4.683 -1.3521 -0.7978 -1.8662
  313MOL0     H41258   8.440   6.662   4.720 -0.8119 -0.0382  0.6133
  313MOL0     H41259   8.231   6.510   4.572 -2.1562 -1.4739  1.5948
  313MOL0     H41260   8.375   6.434   4.654  0.7473  0.4068  2.0941
  313MOL0     H41261   8.146   6.567   4.777 -0.2987 -0.0897  1.6865
  313MOL0     H41262   8.285   6.526   4.873 -2.3193 -0.2548  1.2113
  313MOL0     H41263   8.110   6.359   4.901  1.4382 -1.7545  0.8366
  313MOL0     H41264   8.237   6.281   4.811 -2.6051 -2.6238 -0.3443
  313MOL0     H41265   8.125   6.260   4.620  1.9588 -1.8813  0.6208
  313MOL0     H41266   8.025   6.206   4.751 -2.0221  0.3378 -0.3724
  313MOL0     H41267   7.966   6.448   4.597  1.7541  0.3761  1.4617
  313MOL0     H41268   7.893   6.430   4.751 -2.2260 -1.1800 -2.1841
  313MOL0     H41269   7.894   6.244   4.419  1.1431  2.1389  1.3226
  313MOL0     H41270   7.593   5.999   4.424 -0.3132  0.4126  2.2868
  313MOL0     H41271   7.729   6.084   4.333 -0.6720 -1.0765 -1.7311
  313MOL0     H41272   7.533   6.283   4.334  1.0340  0.6590 -2.2377
  313MOL0     H41273   7.439   6.131   4.322 -1.0538 -0.8036 -3.5205
  313MOL0     H41274   7.602   6.059   4.126  2.8220  0.6051  2.0163
  313MOL0     H41275   7.459   6.156   4.096  1.0285 -0.7383 -0.2451
  313MOL0     H41276   7.636   6.360   4.150  3.3238 -0.7857  0.8890
  313MOL0     H41277   7.623   6.292   3.995 -0.3183  1.3198  0.9702
  313MOL0     H41278   8.034   6.138   4.162  1.0268 -0.4829  1.4941
  313MOL0     H41279   8.201   6.288   4.220  0.7619  1.3171 -0.4585
  313MOL0     H41280   8.563   6.356   4.230 -2.7513 -0.3077 -1.1337
  313MOL0     H41281   8.781   6.445   4.281 -0.4857  1.1650  1.0887
  313MOL0     H41282   8.906   6.897   4.151  4.1557  1.5821 -3.5323
  313MOL0     H41283   8.883   6.778   4.031 -0.1354 -3.7460  0.2672
  313MOL0     H41284   9.107   6.681   4.105 -3.7499 -1.5662 -0.2495
  313MOL0     H41285   9.128   6.827   4.210 -0.9960  2.5548  0.7244
  313MOL0     H41286   9.118   6.974   4.015  0.3415  0.3259  1.4876
  313MOL0     H41287   9.073   6.832   3.914 -2.3235  1.5883  1.9271
  313MOL0     H41288   9.327   6.884   4.045  1.6924 -2.1647  0.4114
  313MOL0     H41289   9.281   6.723   3.986  0.2207 -0.8324 -3.2113
  313MOL0     H41290   9.303   6.983   3.811  0.0676  0.0478  0.2718
  313MOL0     H41291   9.221   6.844   3.763  0.9532 -1.6941 -0.6602
  313MOL0     H41292   9.445   6.723   3.772  0.8483  1.1604 -5.7379
  313MOL0     H41293   9.522   6.872   3.839 -0.7749  2.8388 -0.7405
  313MOL0     H41294   9.370   6.837   3.566 -0.7864 -1.3360  1.2011
  313MOL0     H41295   9.458   6.978   3.617 -2.0364 -0.8318 -2.1482
  313MOL0     H41296   9.661   6.886   3.632 -2.1104  0.2011  1.1384
  313MOL0     H41297   9.598   6.848   3.464 -0.9381 -2.5754 -0.8501
  313MOL0     H41298   8.687   6.838   4.167 -2.4659  0.8572 -2.0068
  313MOL0     H41299   8.426   6.764   4.164  1.8067  1.8939 -1.1165
  313MOL0     H41300   7.978   6.630   4.107 -3.8678 -0.4837  5.8197
  313MOL0     H41301   7.792   6.488   4.045  0.5849 -1.3476 -1.1719
  313MOL0     H41302   8.626   7.038   4.348  2.0921 -1.9630  0.7085
  313MOL0     H41303   8.737   7.257   4.388  0.7391 -0.2120 -0.2234
  313MOL0     H41304   9.004   7.421   4.772 -1.9030  0.3100  1.7778
  313MOL0     H41305   9.160   7.568   4.861 -1.5014  1.1204  0.9589
  313MOL0     H41306   9.325   7.705   4.916 -1.9716  0.8214  0.2859
  313MOL0     H41307   9.384   7.861   4.870 -1.3617  0.0535  2.2508
  313MOL0     H41308   9.361   7.706   4.628 -4.3719 -1.7139  2.6654
  313MOL0     H41309   9.510   7.764   4.696  0.4209  0.5657  1.0284
  313MOL0     H41310   9.514   7.534   4.653  0.6411  0.6243 -0.0712
  313MOL0     H41311   9.367   7.493   4.757  0.9138 -1.4237  3.9727
  313MOL0     H41312   9.484   7.569   4.957 -1.0754 -1.1962 -0.5591
  313MOL0     H41313   9.573   7.435   4.884  0.3942 -0.5973 -3.4246
  313MOL0     H41314   9.817   7.788   4.896 -3.3994  2.8333  2.2384
  313MOL0     H41315   9.040   7.880   4.589 -2.3867  0.1856 -1.0569
  313MOL0     H41316   8.878   7.726   4.484  0.7721  1.2152 -0.2410
  314MOL0     O41317   7.576  11.285  10.408 -0.4904 -0.4596  0.2076
  314MOL0     C41318   7.469  11.313  10.466  0.7120  0.4446 -0.6998
  314MOL0     O41319   7.409  11.437  10.466  1.1997 -0.1598 -0.3072
  314MOL0     C41320   7.493  11.542  10.428 -0.4191 -0.8772  0.6539
  314MOL0     C41321   7.585  11.600  10.518 -0.2999 -0.1952  0.4571
  314MOL0     C41322   7.657  11.703  10.475  0.4009  0.5773  0.1682
  314MOL0     C41323   7.652  11.755  10.344 -0.9056 -0.5391  0.2224
  314MOL0     O41324   7.719  11.870  10.313 -0.1792  0.1314  0.5329
  314MOL0     C41325   7.801  11.854  10.203 -0.4561 -0.0119  0.2946
  314MOL0     C41326   7.879  11.984  10.179  0.6818 -0.4782 -0.3016
  314MOL0     C41327   7.915  11.997  10.035  0.0139 -0.4115  0.9767
  314MOL0     C41328   7.926  12.153   9.990  0.8218  0.3239 -0.1882
  314MOL0     C41329   8.047  12.229  10.061  0.0304  0.2097  0.5873
  314MOL0     C41330   8.177  12.211   9.972 -0.1321 -1.5478 -0.3819
  314MOL0     C41331   8.308  12.254  10.055 -0.1125  0.4662  0.8327
  314MOL0     C41332   8.315  12.401  10.088  0.6752  0.1159 -0.6330
  314MOL0     N41333   8.317  12.484   9.974 -0.0672 -0.1847  0.1012
  314MOL0     C41334   8.216  12.561   9.910  0.0817 -0.1341  0.3783
  314MOL0     C41335   8.283  12.600   9.791 -0.8141  0.1608 -0.4540
  314MOL0     C41336   8.221  12.672   9.678  1.7774  0.0727  0.4759
  314MOL0     C41337   8.178  12.565   9.578  0.4898 -0.3248 -0.1798
  314MOL0     C41338   8.133  12.627   9.434  0.0795 -0.4662 -0.6096
  314MOL0     C41339   7.991  12.698   9.443  0.5275  0.9435 -0.4277
  314MOL0     O41340   7.951  12.755   9.319 -0.6196  0.6178 -0.6029
  314MOL0     C41341   7.873  12.681   9.232 -0.6340 -0.6236 -0.1880
  314MOL0     C41342   7.797  12.567   9.267  0.2092  0.4211  0.1273
  314MOL0     C41343   7.712  12.514   9.173  1.3078 -0.9150  0.2486
  314MOL0     C41344   7.689  12.579   9.047  0.0492  0.7074 -0.9058
  314MOL0     C41345   7.581  12.523   8.962 -0.4940  0.3731 -1.2556
  314MOL0     O41346   7.558  12.595   8.836  0.5035 -0.5498 -0.3207
  314MOL0     C41347   7.457  12.553   8.754 -0.3542 -0.2331 -0.1314
  314MOL0     C41348   7.319  12.553   8.789 -0.1325 -0.5763 -0.2957
  314MOL0     C41349   7.233  12.493   8.703 -0.9021 -0.3944  0.1860
  314MOL0     C41350   7.269  12.431   8.584  1.0294  0.2771 -0.6563
  314MOL0     O41351   7.188  12.364   8.495 -0.4695  0.3313  0.1170
  314MOL0     C41352   7.043  12.374   8.520  0.3290 -0.4914 -0.8274
  314MOL0     C41353   6.972  12.308   8.407 -0.2684 -0.6034 -0.4002
  314MOL0     C41354   6.831  12.283   8.439  0.0626  0.8618  0.4905
  314MOL0     C41355   6.749  12.409   8.475  0.3015  0.1905  0.0153
  314MOL0     C41356   6.602  12.380   8.520  0.3492 -0.4933 -0.1111
  314MOL0     C41357   6.526  12.516   8.525 -0.2151 -1.2526  0.0327
  314MOL0     C41358   6.487  12.553   8.386  0.2052 -0.3968 -0.2032
  314MOL0     C41359   6.377  12.472   8.322 -0.4461  0.3892  0.0280
  314MOL0    Cl41360   6.325  12.533   8.164 -0.4497  0.1755 -0.2936
  314MOL0     C41361   7.401  12.436   8.543 -0.4201 -0.5814  0.9529
  314MOL0     C41362   7.492  12.494   8.629 -0.3024  0.0584 -0.3559
  314MOL0     O41363   7.503  12.433   9.003 -0.8047 -0.1797  0.1480
  314MOL0     C41364   7.770  12.690   9.015  0.1033  0.6043 -1.3201
  314MOL0     C41365   7.859  12.738   9.109 -0.4377 -0.3459  0.3757
  314MOL0     N41366   8.408  12.546   9.787 -1.3080 -0.7537  0.7522
  314MOL0     N41367   8.426  12.481   9.891  0.9109 -0.3075 -0.1441
  314MOL0     C41368   7.556  11.699  10.256  0.2561  0.7219  0.2714
  314MOL0     C41369   7.479  11.595  10.300 -0.7751  0.4331  0.1679
  314MOL0     C41370   7.405  11.198  10.535 -0.3017 -0.2301 -0.6401
  314MOL0     C41371   7.277  11.222  10.596  0.4372  1.3268  0.9477
  314MOL0     C41372   7.207  11.119  10.662  0.3309  0.2149  0.2829
  314MOL0     C41373   7.265  10.986  10.668  0.0035 -1.2165  0.4544
  314MOL0     O41374   7.205  10.875  10.716 -0.4697 -0.0789 -0.2029
  314MOL0     C41375   7.086  10.895  10.803  0.9250 -0.2691 -0.2629
  314MOL0     C41376   7.045  10.761  10.859 -1.0603  0.3564  0.0020
  314MOL0     C41377   7.148  10.719  10.966 -0.5550 -0.2778 -0.2891
  314MOL0     C41378   7.121  10.575  11.008 -0.1391  0.4867 -0.6886
  314MOL0     C41379   7.145  10.475  10.901 -0.1942  0.2486  0.4835
  314MOL0     C41380   7.161  10.394  10.805 -0.3512  0.8041 -0.6763
  314MOL0     C41381   7.388  10.965  10.603  0.6236  0.3361 -0.0286
  314MOL0     C41382   7.459  11.064  10.542 -0.9601  0.6193  0.1688
  314MOL0     H41383   7.602  11.576  10.623 -2.9426  2.6819  1.7229
  314MOL0     H41384   7.711  11.760  10.549 -3.9899  1.1154  3.4157
  314MOL0     H41385   7.728  11.847  10.122  0.4509  1.9722 -0.7593
  314MOL0     H41386   7.870  11.769  10.207 -0.4196  0.0059  0.0610
  314MOL0     H41387   7.974  11.993  10.234  2.0907 -1.4404 -2.4362
  314MOL0     H41388   7.813  12.066  10.209 -0.8552 -0.8168 -2.5262
  314MOL0     H41389   7.827  11.967   9.977  2.7008 -0.3406 -3.6205
  314MOL0     H41390   7.995  11.930  10.000 -0.7879  0.1635 -2.2717
  314MOL0     H41391   7.940  12.175   9.883 -2.5379  2.2443 -0.3423
  314MOL0     H41392   7.833  12.206  10.009  0.6865  0.7532 -1.8637
  314MOL0     H41393   8.074  12.191  10.160  0.8019 -3.8689 -1.0116
  314MOL0     H41394   8.012  12.333  10.067 -0.7077  0.0783 -0.9914
  314MOL0     H41395   8.175  12.257   9.873  3.8193 -0.4084 -0.1129
  314MOL0     H41396   8.180  12.102   9.958  0.3658 -1.6453  0.4482
  314MOL0     H41397   8.314  12.201  10.151  1.9942  0.9758  1.0413
  314MOL0     H41398   8.384  12.225   9.981 -1.8199  0.6994 -1.0920
  314MOL0     H41399   8.409  12.403  10.143 -1.4490  1.1989  3.4055
  314MOL0     H41400   8.240  12.437  10.160  0.3988 -0.6016 -0.5502
  314MOL0     H41401   8.108  12.571   9.923 -0.7139  3.1812 -5.3281
  314MOL0     H41402   8.288  12.749   9.640  1.1239 -0.8720 -2.8669
  314MOL0     H41403   8.122  12.709   9.707  1.4258 -0.6229  0.1917
  314MOL0     H41404   8.096  12.506   9.620 -0.8011  3.2484  2.9605
  314MOL0     H41405   8.262  12.499   9.555  0.4968 -0.2246 -0.4557
  314MOL0     H41406   8.208  12.702   9.409  1.4008 -0.8548  1.8428
  314MOL0     H41407   8.139  12.553   9.353 -1.2843 -0.6693 -0.5605
  314MOL0     H41408   8.011  12.777   9.517  0.4387 -0.2429  0.9069
  314MOL0     H41409   7.918  12.634   9.492  3.3791 -0.3950  2.4756
  314MOL0     H41410   7.804  12.526   9.367  0.9321 -0.8736 -0.4373
  314MOL0     H41411   7.652  12.427   9.200 -1.7273  1.3096  1.1819
  314MOL0     H41412   7.281  12.594   8.882  0.7062  0.6092 -0.4556
  314MOL0     H41413   7.131  12.495   8.739 -1.9044  1.1147 -2.4750
  314MOL0     H41414   7.022  12.480   8.537  0.9561 -0.5924  0.6842
  314MOL0     H41415   7.023  12.325   8.615 -0.0734  0.3000 -0.4951
  314MOL0     H41416   7.014  12.211   8.381  0.1404 -0.6275  0.3092
  314MOL0     H41417   6.988  12.386   8.333  0.3567  1.0863  1.4242
  314MOL0     H41418   6.834  12.207   8.517  2.6130 -2.3424 -2.4135
  314MOL0     H41419   6.791  12.229   8.353  2.5649 -1.6786  0.7716
  314MOL0     H41420   6.805  12.454   8.558  1.9885 -2.3457  0.3388
  314MOL0     H41421   6.750  12.479   8.391 -2.8512 -1.7486 -1.8049
  314MOL0     H41422   6.612  12.328   8.616 -2.6760  3.3748  2.6199
  314MOL0     H41423   6.566  12.308   8.446  0.4430 -0.2798 -0.3654
  314MOL0     H41424   6.582  12.598   8.571  0.3428 -1.7343  0.2253
  314MOL0     H41425   6.438  12.525   8.589  0.0593 -0.7860  0.3567
  314MOL0     H41426   6.447  12.654   8.394 -0.7537 -0.8920  2.0900
  314MOL0     H41427   6.566  12.545   8.311  0.1570 -2.2716 -0.1190
  314MOL0     H41428   6.285  12.482   8.381  0.9187  2.7058  1.9415
  314MOL0     H41429   6.408  12.367   8.310  2.6807  1.5263 -3.6407
  314MOL0     H41430   7.432  12.386   8.452 -2.5477  2.9188 -1.9989
  314MOL0     H41431   7.597  12.483   8.604  0.0489  1.5580  0.3570
  314MOL0     H41432   7.744  12.730   8.918 -0.1047 -0.5615 -1.7686
  314MOL0     H41433   7.920  12.826   9.095  0.9966 -1.4620 -0.8243
  314MOL0     H41434   7.533  11.728  10.154 -3.3234 -1.0642  0.4252
  314MOL0     H41435   7.411  11.541  10.236  1.6071 -2.9136  0.2226
  314MOL0     H41436   7.224  11.316  10.588 -2.2341 -0.2196 -1.7739
  314MOL0     H41437   7.108  11.134  10.703  0.2087  0.2811 -0.0307
  314MOL0     H41438   7.008  10.933  10.736  0.9480  2.5529  1.1765
  314MOL0     H41439   7.099  10.978  10.872  1.6372  1.3247 -2.1925
  314MOL0     H41440   6.948  10.774  10.908 -0.8251  0.6100  0.4061
  314MOL0     H41441   7.030  10.691  10.776  0.6348  3.5522 -3.2809
  314MOL0     H41442   7.143  10.787  11.052  0.0379  0.4662 -0.8353
  314MOL0     H41443   7.247  10.730  10.922  0.7064  1.1386  2.5757
  314MOL0     H41444   7.191  10.552  11.090  0.9347  3.1326 -0.7628
  314MOL0     H41445   7.021  10.569  11.051  0.1270 -0.2562 -0.1471
  314MOL0     H41446   7.175  10.321  10.728 -0.5705  1.6508 -1.5329
  314MOL0     H41447   7.424  10.867  10.633  0.2709  0.7686  1.9971
  314MOL0     H41448   7.564  11.054  10.516 -0.6033 -0.5852  1.8806
  315MOL0     O41449   4.753   1.917   5.163  0.2855 -0.8154 -0.1090
  315MOL0     C41450   4.704   1.936   5.053  0.4026 -0.6935  0.5890
  315MOL0     O41451   4.773   1.931   4.931 -0.3000 -0.0415  0.7247
  315MOL0     C41452   4.907   1.884   4.934  0.8386  0.1550  1.0998
  315MOL0     C41453   5.009   1.914   5.029  0.9171 -0.6530  0.7903
  315MOL0     C41454   5.131   1.845   5.024  0.3711  0.4650  0.9415
  315MOL0     C41455   5.163   1.762   4.916 -0.0767  0.4552  0.2611
  315MOL0     O41456   5.291   1.711   4.898 -0.2967 -0.1832 -0.5206
  315MOL0     C41457   5.363   1.661   5.015  0.2403  0.5481  0.1581
  315MOL0     C41458   5.299   1.541   5.095  0.1871 -0.9119  0.3080
  315MOL0     C41459   5.258   1.424   4.993  0.1279 -0.2533 -0.3753
  315MOL0     C41460   5.368   1.359   4.909 -0.4806 -0.1640  0.3009
  315MOL0     C41461   5.323   1.292   4.781  0.8256 -0.4393  1.2187
  315MOL0     C41462   5.253   1.390   4.690  0.4788 -0.0451 -0.0214
  315MOL0     C41463   5.245   1.317   4.551 -0.2532  0.0946 -0.2801
  315MOL0     C41464   5.150   1.396   4.475  0.4059  0.0709 -0.7999
  315MOL0     N41465   5.142   1.368   4.332  0.4225  0.2239  0.2545
  315MOL0     C41466   5.115   1.245   4.282 -0.9194  0.0272 -0.0254
  315MOL0     C41467   5.136   1.250   4.146 -1.2286  1.0578 -0.5530
  315MOL0     C41468   5.138   1.145   4.041  0.7929  0.6418 -0.5747
  315MOL0     C41469   5.010   1.142   3.952 -0.8542 -0.6907 -0.5260
  315MOL0     C41470   5.010   1.011   3.875  0.3132 -0.7046  0.6461
  315MOL0     C41471   4.883   1.013   3.786  0.0466 -0.4955  0.1645
  315MOL0     O41472   4.837   0.872   3.777 -0.0477  0.0147  0.1980
  315MOL0     C41473   4.727   0.850   3.695  0.3708 -0.4972 -0.7620
  315MOL0     C41474   4.670   0.953   3.609  0.2267 -0.3423  0.5828
  315MOL0     C41475   4.565   0.913   3.518 -0.6237  0.5263 -0.2802
  315MOL0     C41476   4.507   0.780   3.531 -0.6577  0.3830 -0.4152
  315MOL0     C41477   4.391   0.737   3.446  0.5386 -0.2977 -0.3059
  315MOL0     O41478   4.332   0.613   3.457 -0.0286 -0.5932 -0.0683
  315MOL0     C41479   4.261   0.582   3.350  0.9869  0.5420  0.5785
  315MOL0     C41480   4.318   0.510   3.248 -0.4315 -0.3773  0.2336
  315MOL0     C41481   4.244   0.478   3.135  0.6949  0.2831 -0.5572
  315MOL0     C41482   4.107   0.510   3.121 -0.3048  0.2584 -0.5436
  315MOL0     O41483   4.049   0.454   3.015 -0.3507  0.9601 -0.5517
  315MOL0     C41484   3.922   0.413   3.045 -0.4202 -0.6010 -0.0685
  315MOL0     C41485   3.883   0.316   2.941 -0.4793  0.9583 -0.4661
  315MOL0     C41486   3.988   0.196   2.942 -0.6861  0.5105  1.5718
  315MOL0     C41487   3.927   0.077   2.863  0.2495  0.3867 -0.0908
  315MOL0     C41488   3.839  -0.017   2.952  0.5876  0.5489 -0.8783
  315MOL0     C41489   3.801  -0.136   2.878  0.2574  0.1445 -0.3863
  315MOL0     C41490   3.695  -0.222   2.947 -0.2828  0.5329 -0.5422
  315MOL0     C41491   3.657  -0.354   2.869  0.3483  0.3853 -1.2975
  315MOL0    Cl41492   3.653  -0.482   2.993  0.0832  0.2097  0.4119
  315MOL0     C41493   4.045   0.576   3.230  0.5529  1.1398 -0.6841
  315MOL0     C41494   4.121   0.610   3.345  0.1021  0.9892  0.5626
  315MOL0     O41495   4.354   0.820   3.360 -0.4141 -0.5914 -1.1246
  315MOL0     C41496   4.556   0.691   3.625 -0.1179 -0.2869  0.0938
  315MOL0     C41497   4.667   0.723   3.699  0.5103 -0.0406 -0.6327
  315MOL0     N41498   5.199   1.368   4.115 -0.2880 -0.2961  0.6719
  315MOL0     N41499   5.203   1.434   4.232  0.4214  0.4464  0.7564
  315MOL0     C41500   5.064   1.737   4.823 -1.1288 -0.2972 -0.0696
  315MOL0     C41501   4.942   1.802   4.827  0.2824  0.2871  1.1288
  315MOL0     C41502   4.562   1.972   5.037 -0.2458  0.1163  1.0104
  315MOL0     C41503   4.498   2.046   5.127 -0.1410 -0.1539  0.3339
  315MOL0     C41504   4.367   2.094   5.107 -0.2233  0.5039  0.2245
  315MOL0     C41505   4.293   2.051   4.995 -0.2645 -0.3491  0.7745
  315MOL0     O41506   4.176   2.120   4.982  0.3255 -0.2368 -0.8201
  315MOL0     C41507   4.099   2.106   4.859 -0.8153  0.0127 -0.1319
  315MOL0     C41508   4.160   2.213   4.768  0.2712  0.6748 -0.2678
  315MOL0     C41509   4.103   2.361   4.797 -0.1084  0.1183 -0.6510
  315MOL0     C41510   4.149   2.431   4.930  0.3256  0.4387  0.1882
  315MOL0     C41511   4.124   2.572   4.934 -0.4002 -0.3351  0.4724
  315MOL0     C41512   4.106   2.692   4.929 -0.6176  0.4924 -1.1285
  315MOL0     C41513   4.360   1.984   4.898  0.6113  0.4518 -0.3567
  315MOL0     C41514   4.498   1.941   4.913  0.4476 -0.2290 -0.7877
  315MOL0     H41515   4.988   1.988   5.106 -0.7530  0.7425 -0.8781
  315MOL0     H41516   5.201   1.870   5.104  0.2658 -1.6823  1.7793
  315MOL0     H41517   5.387   1.755   5.066 -0.3175  0.5518  0.4190
  315MOL0     H41518   5.464   1.626   4.989  0.6606 -0.2131  2.6089
  315MOL0     H41519   5.207   1.570   5.146 -1.5525 -2.2217 -1.8800
  315MOL0     H41520   5.375   1.526   5.172 -1.5385 -0.2435  2.2475
  315MOL0     H41521   5.173   1.454   4.932 -2.6318 -0.5253  3.0114
  315MOL0     H41522   5.217   1.341   5.051 -1.2116 -3.0201 -4.8064
  315MOL0     H41523   5.434   1.445   4.890  0.3454 -0.7718  0.3871
  315MOL0     H41524   5.412   1.279   4.969 -0.5050 -1.1615 -0.9609
  315MOL0     H41525   5.265   1.203   4.803 -0.0275 -0.7981 -2.0446
  315MOL0     H41526   5.417   1.255   4.740 -0.0559 -3.6115  1.8521
  315MOL0     H41527   5.302   1.488   4.683  0.7913 -0.2640 -1.1994
  315MOL0     H41528   5.150   1.409   4.723 -0.0047  1.1380 -1.9886
  315MOL0     H41529   5.335   1.310   4.489 -1.8571 -1.0929 -2.5984
  315MOL0     H41530   5.200   1.218   4.567  2.2867 -0.8855  1.5639
  315MOL0     H41531   5.177   1.502   4.483  1.4963 -0.1284 -1.6017
  315MOL0     H41532   5.052   1.387   4.522  0.6624  1.3824  0.0415
  315MOL0     H41533   5.071   1.161   4.336  0.1204 -1.0516 -0.8135
  315MOL0     H41534   5.157   1.047   4.086  1.1940  1.3415  0.8529
  315MOL0     H41535   5.222   1.164   3.975  4.1728  0.9039  3.3905
  315MOL0     H41536   5.001   1.225   3.880  0.3720 -0.5284 -0.5224
  315MOL0     H41537   4.925   1.144   4.021 -0.9334 -0.9549 -0.6170
  315MOL0     H41538   5.103   1.006   3.816  0.2324  1.2826  0.3011
  315MOL0     H41539   5.008   0.920   3.936 -0.3167 -1.0187  0.1779
  315MOL0     H41540   4.901   1.051   3.685  1.3496  0.1966  0.6383
  315MOL0     H41541   4.797   1.066   3.828 -2.3316 -3.8186 -0.0394
  315MOL0     H41542   4.711   1.054   3.603 -1.0638  0.3493  2.4378
  315MOL0     H41543   4.532   0.988   3.447  2.7387  3.2584  0.7332
  315MOL0     H41544   4.426   0.503   3.260 -0.7701 -1.0720  3.9096
  315MOL0     H41545   4.295   0.440   3.046  2.2248  0.7207  0.0892
  315MOL0     H41546   3.858   0.501   3.048 -0.0216 -0.3349  0.9650
  315MOL0     H41547   3.911   0.371   3.146  3.6997  0.3185  0.9231
  315MOL0     H41548   3.876   0.359   2.840  5.9817  0.8394 -1.3628
  315MOL0     H41549   3.780   0.294   2.970 -0.7069 -0.2309 -2.0488
  315MOL0     H41550   4.020   0.158   3.039  1.8742 -2.5900 -0.2717
  315MOL0     H41551   4.078   0.226   2.886 -2.7683  1.7488 -1.3948
  315MOL0     H41552   3.878   0.114   2.773  0.8292  0.0366 -0.5636
  315MOL0     H41553   4.012   0.012   2.839 -0.8785 -2.1206  2.2473
  315MOL0     H41554   3.742   0.029   2.972  0.2131 -0.3131 -0.6688
  315MOL0     H41555   3.884  -0.044   3.048 -2.5796 -1.3222  0.2203
  315MOL0     H41556   3.892  -0.195   2.864  1.5528  1.5964  1.3821
  315MOL0     H41557   3.754  -0.097   2.787 -1.1556  1.1003  0.7118
  315MOL0     H41558   3.749  -0.251   3.037  0.1079  1.5690 -0.4304
  315MOL0     H41559   3.601  -0.174   2.976 -0.1603 -0.8274  2.5339
  315MOL0     H41560   3.740  -0.375   2.801  1.4065 -2.1090  0.6102
  315MOL0     H41561   3.558  -0.346   2.824  0.0622 -0.6171 -0.8655
  315MOL0     H41562   3.942   0.608   3.214 -0.2565 -1.8812 -2.2708
  315MOL0     H41563   4.070   0.657   3.428  0.5560 -2.0843  2.7176
  315MOL0     H41564   4.528   0.589   3.648  0.3191 -0.2287  0.9379
  315MOL0     H41565   4.714   0.651   3.765 -2.0513  0.8107  2.3841
  315MOL0     H41566   5.082   1.683   4.731 -0.7304  0.2661 -0.3287
  315MOL0     H41567   4.883   1.791   4.737 -0.5132  0.4082  1.6269
  315MOL0     H41568   4.540   2.075   5.223 -0.3546  2.6333 -0.3348
  315MOL0     H41569   4.304   2.145   5.180 -3.4294 -0.9078 -1.3765
  315MOL0     H41570   3.998   2.143   4.879 -0.5243  0.6405  0.1889
  315MOL0     H41571   4.109   2.008   4.811  0.5657  1.0005 -1.9642
  315MOL0     H41572   4.268   2.209   4.782  0.1831  1.1689  0.6480
  315MOL0     H41573   4.128   2.175   4.670  0.3054  1.7045 -0.6893
  315MOL0     H41574   3.994   2.364   4.791 -0.1677 -0.7648 -0.1403
  315MOL0     H41575   4.142   2.415   4.710 -2.9651  0.3257 -1.8877
  315MOL0     H41576   4.092   2.387   5.012  1.1133 -2.6099 -0.7656
  315MOL0     H41577   4.258   2.418   4.936  0.0744 -1.9824  0.2860
  315MOL0     H41578   4.095   2.798   4.934  2.8585  0.9029  2.4778
  315MOL0     H41579   4.321   1.960   4.800 -0.6568 -1.0825  0.4929
  315MOL0     H41580   4.549   1.898   4.828 -2.0925 -0.6462 -2.1880
  316MOL0     O41581   8.036   8.749   1.252  1.0895  0.1553 -0.7332
  316MOL0     C41582   8.151   8.771   1.297  0.2232  0.3100  0.1460
  316MOL0     O41583   8.241   8.674   1.327 -0.0043  0.8235  0.0921
  316MOL0     C41584   8.208   8.544   1.304 -0.7393 -0.2622  0.6322
  316MOL0     C41585   8.145   8.492   1.188 -0.1335 -1.1979 -1.0278
  316MOL0     C41586   8.103   8.357   1.183 -0.6700 -0.6436  1.0341
  316MOL0     C41587   8.133   8.271   1.282 -0.9224  0.3765 -0.2862
  316MOL0     O41588   8.089   8.135   1.273 -0.5546 -0.1662  0.9772
  316MOL0     C41589   8.193   8.037   1.279 -0.6401 -0.8712 -0.5896
  316MOL0     C41590   8.116   7.898   1.278  0.3450  0.1308 -0.0312
  316MOL0     C41591   8.199   7.773   1.304 -1.1932  0.2088  0.0158
  316MOL0     C41592   8.103   7.651   1.304  0.5056  0.8723  0.9146
  316MOL0     C41593   8.174   7.510   1.304  0.0749  0.2949 -0.5180
  316MOL0     C41594   8.068   7.396   1.332  0.9565 -0.3147 -0.3687
  316MOL0     C41595   8.023   7.358   1.476  0.6629  0.8524 -0.1708
  316MOL0     C41596   7.865   7.351   1.489 -1.0311 -0.6467 -0.3518
  316MOL0     N41597   7.811   7.251   1.394  0.5048  0.1571  0.2133
  316MOL0     C41598   7.828   7.113   1.402 -0.4000  0.3975  0.3679
  316MOL0     C41599   7.737   7.056   1.322 -0.0234 -0.6338 -0.3533
  316MOL0     C41600   7.708   6.910   1.297  0.1947 -0.3077 -0.9034
  316MOL0     C41601   7.615   6.843   1.396  0.2252 -0.5760 -0.2571
  316MOL0     C41602   7.566   6.701   1.354 -0.6194  1.2531 -0.0733
  316MOL0     C41603   7.442   6.659   1.427 -0.2096  0.5624  0.0678
  316MOL0     O41604   7.429   6.514   1.414 -0.2570  0.2784 -0.4519
  316MOL0     C41605   7.403   6.455   1.293 -0.2150  0.0156 -0.1075
  316MOL0     C41606   7.372   6.533   1.179 -0.0310  0.1174  0.5442
  316MOL0     C41607   7.337   6.475   1.062  0.0751 -0.2817  0.4636
  316MOL0     C41608   7.332   6.331   1.047  0.1381 -0.0153 -0.8502
  316MOL0     C41609   7.318   6.271   0.910  0.0874  1.3017 -0.1588
  316MOL0     O41610   7.344   6.135   0.892  0.0885 -0.3620 -0.3747
  316MOL0     C41611   7.282   6.066   0.792  0.3973 -0.3978 -0.7287
  316MOL0     C41612   7.311   6.066   0.657 -0.6600 -0.6238 -0.2275
  316MOL0     C41613   7.233   5.995   0.566 -1.2520 -0.2879  0.7244
  316MOL0     C41614   7.120   5.923   0.603 -0.4291 -0.3576 -0.2380
  316MOL0     O41615   7.036   5.858   0.522  0.0008 -0.2006  0.2352
  316MOL0     C41616   7.078   5.840   0.385  0.3158  0.5128  0.1931
  316MOL0     C41617   6.957   5.813   0.304 -1.1466 -0.5544 -0.7339
  316MOL0     C41618   6.860   5.693   0.320  0.1399  0.3275  0.3305
  316MOL0     C41619   6.935   5.559   0.325  1.0040  0.0990  0.0816
  316MOL0     C41620   7.055   5.536   0.223  0.2426  0.1096 -0.0931
  316MOL0     C41621   7.025   5.534   0.074  0.3595 -0.6955  0.4578
  316MOL0     C41622   7.145   5.512  -0.028 -0.3281  0.1654 -0.5791
  316MOL0     C41623   7.101   5.476  -0.169  0.2049 -0.1382  0.0422
  316MOL0    Cl41624   6.994   5.609  -0.232  0.1468 -0.3543  0.1977
  316MOL0     C41625   7.102   5.921   0.739 -0.1691  0.1844 -0.2585
  316MOL0     C41626   7.174   5.993   0.835  0.4205  0.0698  0.2917
  316MOL0     O41627   7.286   6.346   0.818 -0.7703 -0.4697 -0.4456
  316MOL0     C41628   7.347   6.257   1.157 -0.2408  0.2562  0.0576
  316MOL0     C41629   7.385   6.317   1.280 -0.2854  0.2758  0.2627
  316MOL0     N41630   7.663   7.159   1.256 -0.0155 -0.2862  0.9221
  316MOL0     N41631   7.708   7.271   1.309  0.2201  0.1115 -0.3387
  316MOL0     C41632   8.208   8.312   1.398 -0.6608  0.3721 -0.6482
  316MOL0     C41633   8.238   8.448   1.405 -0.4027  0.0915 -0.5030
  316MOL0     C41634   8.197   8.915   1.277 -0.6203  0.2839 -0.5174
  316MOL0     C41635   8.328   8.951   1.312  0.4017  0.4526  0.4217
  316MOL0     C41636   8.374   9.077   1.290  0.4167  0.5351 -0.1789
  316MOL0     C41637   8.304   9.179   1.227  1.0241  0.0751  0.7578
  316MOL0     O41638   8.359   9.300   1.212 -0.9948  0.3457 -0.0476
  316MOL0     C41639   8.315   9.384   1.099  0.8289  0.6002  0.9400
  316MOL0     C41640   8.413   9.503   1.069 -0.1138 -0.5631 -0.3492
  316MOL0     C41641   8.541   9.451   0.996 -0.5580  0.2754 -0.1416
  316MOL0     C41642   8.528   9.377   0.864 -0.0948 -0.2770 -0.2974
  316MOL0     C41643   8.466   9.466   0.762 -0.4259 -0.5456 -0.0001
  316MOL0     C41644   8.440   9.561   0.691  0.1681  0.7904  0.6555
  316MOL0     C41645   8.170   9.141   1.197 -0.2581  0.3582  0.3183
  316MOL0     C41646   8.117   9.011   1.221 -0.1114  0.9460  0.3912
  316MOL0     H41647   8.122   8.564   1.110 -0.0046  2.1735  1.7479
  316MOL0     H41648   8.041   8.326   1.099 -0.5282 -0.0177  0.6971
  316MOL0     H41649   8.242   8.039   1.377  0.9885 -2.4606 -1.3066
  316MOL0     H41650   8.268   8.046   1.200  2.3300 -0.8699  2.0186
  316MOL0     H41651   8.066   7.875   1.184  2.6727 -4.1004 -0.4919
  316MOL0     H41652   8.039   7.901   1.355  0.4599 -0.0268  0.0934
  316MOL0     H41653   8.243   7.784   1.404  1.6296 -1.8216 -0.8929
  316MOL0     H41654   8.277   7.756   1.230 -1.3235 -0.7775  0.0870
  316MOL0     H41655   8.029   7.658   1.385 -0.6227  1.7133 -0.1431
  316MOL0     H41656   8.044   7.647   1.212 -1.2761 -2.3556  2.0510
  316MOL0     H41657   8.247   7.504   1.385  2.1717  2.5725 -2.0953
  316MOL0     H41658   8.228   7.490   1.211 -0.6255 -3.1600 -0.3397
  316MOL0     H41659   8.103   7.306   1.281  0.3248 -1.0864  0.5140
  316MOL0     H41660   7.978   7.428   1.280  0.6573 -0.4545  0.0565
  316MOL0     H41661   8.059   7.260   1.509  0.2373  0.3951 -1.0423
  316MOL0     H41662   8.057   7.436   1.545  1.0492  0.5321  0.0100
  316MOL0     H41663   7.820   7.451   1.479 -1.4713 -0.3961  2.9110
  316MOL0     H41664   7.839   7.309   1.587 -3.2647 -0.0779 -0.6313
  316MOL0     H41665   7.907   7.062   1.456 -0.6778  1.7274  2.1126
  316MOL0     H41666   7.799   6.850   1.311  0.3503  0.0707 -0.2452
  316MOL0     H41667   7.659   6.889   1.202 -1.2320 -2.2111  0.1823
  316MOL0     H41668   7.527   6.908   1.405 -1.5519 -2.9435  0.4891
  316MOL0     H41669   7.664   6.844   1.494 -1.9753  1.2051  0.9068
  316MOL0     H41670   7.552   6.698   1.245  0.5332  2.2209 -0.2614
  316MOL0     H41671   7.647   6.632   1.380 -3.9525 -2.1141  2.6225
  316MOL0     H41672   7.349   6.695   1.383 -1.2403 -0.2096  1.5003
  316MOL0     H41673   7.457   6.674   1.535  0.4518  3.2881 -0.3188
  316MOL0     H41674   7.372   6.640   1.166 -0.5968  0.1071  0.4066
  316MOL0     H41675   7.316   6.530   0.971 -1.8431  1.1237  1.6827
  316MOL0     H41676   7.399   6.120   0.625  0.7652 -2.8926 -0.4155
  316MOL0     H41677   7.249   6.020   0.461 -0.2669 -0.4101  0.8316
  316MOL0     H41678   7.158   5.766   0.381  3.5758  3.7558  0.7269
  316MOL0     H41679   7.119   5.933   0.347  1.5791  0.2109  0.7591
  316MOL0     H41680   6.993   5.815   0.201  1.2556 -0.9979  0.0354
  316MOL0     H41681   6.888   5.898   0.311 -1.0850 -0.6710  2.5421
  316MOL0     H41682   6.791   5.700   0.236 -0.6855  0.5614  1.0221
  316MOL0     H41683   6.793   5.713   0.404  0.2530 -0.2530  0.5689
  316MOL0     H41684   6.965   5.532   0.427 -0.4436 -1.3208  0.1632
  316MOL0     H41685   6.856   5.485   0.310  0.0261  0.9934  0.5909
  316MOL0     H41686   7.073   5.428   0.233 -4.4068 -0.7103  2.1472
  316MOL0     H41687   7.149   5.585   0.250  0.4417 -1.3767  2.2482
  316MOL0     H41688   6.991   5.636   0.055 -0.4071 -1.0632 -0.2164
  316MOL0     H41689   6.938   5.470   0.054  1.0545 -1.9540  1.3197
  316MOL0     H41690   7.208   5.601  -0.042  1.7741 -0.8517  1.6902
  316MOL0     H41691   7.204   5.434   0.021  0.2559  0.8035 -0.2503
  316MOL0     H41692   7.044   5.382  -0.162 -0.6908  0.3346 -0.6908
  316MOL0     H41693   7.192   5.454  -0.225 -0.0372 -0.8521 -0.0904
  316MOL0     H41694   7.029   5.854   0.784  0.9841  0.4752  2.2417
  316MOL0     H41695   7.139   5.978   0.937  0.0312  1.7451  0.4287
  316MOL0     H41696   7.324   6.152   1.139  0.1345  0.1490  0.1874
  316MOL0     H41697   7.393   6.263   1.374  0.5110  3.1795  1.9522
  316MOL0     H41698   8.231   8.243   1.478 -2.5368 -0.8471 -1.0917
  316MOL0     H41699   8.292   8.492   1.489 -0.1385 -0.0611 -0.5926
  316MOL0     H41700   8.394   8.873   1.349 -1.4536 -0.7123  1.4595
  316MOL0     H41701   8.477   9.108   1.304  0.1498  0.5512  2.1902
  316MOL0     H41702   8.221   9.426   1.135 -0.6655 -1.1696 -0.6914
  316MOL0     H41703   8.299   9.334   1.003  0.3829  1.5546  0.5038
  316MOL0     H41704   8.366   9.582   1.010  2.2596 -1.0225 -3.1072
  316MOL0     H41705   8.448   9.536   1.167 -2.6359 -1.7202  1.0261
  316MOL0     H41706   8.587   9.390   1.074 -3.2560 -4.1751 -1.6607
  316MOL0     H41707   8.603   9.539   0.974 -0.9801  0.3853 -0.9129
  316MOL0     H41708   8.627   9.348   0.826 -0.4911  0.9856 -2.5059
  316MOL0     H41709   8.475   9.281   0.871  2.4104 -1.9666 -2.4149
  316MOL0     H41710   8.400   9.643   0.634 -1.1040  1.5798  2.5953
  316MOL0     H41711   8.101   9.215   1.158  1.2137  0.5399 -2.1184
  316MOL0     H41712   8.014   8.990   1.195  1.0238 -1.9407 -2.4823
  317MOL0     O41713   6.780   9.055   0.139  0.4755  0.2466  0.3920
  317MOL0     C41714   6.693   9.148   0.141 -0.7948  0.1163 -0.4890
  317MOL0     O41715   6.722   9.282   0.171 -0.5245 -0.0156  0.5747
  317MOL0     C41716   6.849   9.330   0.196  0.3522  0.9771 -0.2039
  317MOL0     C41717   6.966   9.274   0.143 -0.1710  0.0285  1.1697
  317MOL0     C41718   7.102   9.316   0.185 -0.1840  0.6362 -0.0168
  317MOL0     C41719   7.118   9.414   0.278 -1.1618 -0.9444 -0.1983
  317MOL0     O41720   7.239   9.456   0.337  0.0368 -0.0881  0.8600
  317MOL0     C41721   7.352   9.361   0.333  0.0450 -0.0302  0.4632
  317MOL0     C41722   7.467   9.435   0.394  0.2044 -0.0477  0.0133
  317MOL0     C41723   7.445   9.442   0.548 -0.7838 -0.1037  0.0101
  317MOL0     C41724   7.554   9.521   0.627  0.2475 -0.0223 -0.1956
  317MOL0     C41725   7.544   9.675   0.613 -0.1844  0.6725  0.6051
  317MOL0     C41726   7.668   9.744   0.669  0.8610  0.1477  0.6175
  317MOL0     C41727   7.628   9.897   0.681 -0.4946  0.9676 -0.3218
  317MOL0     C41728   7.639   9.969   0.541  0.3718  0.1141 -1.1803
  317MOL0     N41729   7.650  10.121   0.553  0.3174 -0.4546  0.2157
  317MOL0     C41730   7.552  10.216   0.533  0.3512 -0.8028  0.4078
  317MOL0     C41731   7.617  10.333   0.571 -0.6354  0.4528  0.3147
  317MOL0     C41732   7.561  10.470   0.574  0.5164  0.3587 -0.0966
  317MOL0     C41733   7.617  10.558   0.460 -1.6670 -0.5691 -0.7158
  317MOL0     C41734   7.589  10.516   0.319 -0.0447 -0.3391 -0.0612
  317MOL0     C41735   7.622  10.637   0.234  0.0596  0.1105  0.0440
  317MOL0     O41736   7.756  10.679   0.260  0.0291  0.3112  0.5647
  317MOL0     C41737   7.855  10.627   0.187 -1.0969 -0.1480  0.6747
  317MOL0     C41738   7.831  10.521   0.098  0.6097  0.5255  1.9504
  317MOL0     C41739   7.922  10.476   0.003 -0.1698  0.8990 -0.6635
  317MOL0     C41740   8.061  10.520   0.015  0.2664 -0.9268 -1.0159
  317MOL0     C41741   8.161  10.464  -0.075 -0.2947 -0.6016 -0.9897
  317MOL0     O41742   8.125  10.380  -0.176  1.1505 -0.4635  0.8001
  317MOL0     C41743   8.220  10.332  -0.254 -0.8323  0.0280  0.4328
  317MOL0     C41744   8.229  10.367  -0.389  0.5602  0.7814 -0.0563
  317MOL0     C41745   8.312  10.301  -0.470  0.5811  0.1763 -0.1691
  317MOL0     C41746   8.398  10.199  -0.410 -0.5082 -0.0377 -0.4595
  317MOL0     O41747   8.492  10.144  -0.490 -0.4908  0.6323 -0.1337
  317MOL0     C41748   8.606  10.227  -0.508  0.0568 -0.2301  0.3309
  317MOL0     C41749   8.707  10.123  -0.577  0.0073 -0.8886 -0.1083
  317MOL0     C41750   8.829  10.192  -0.630  0.4840  0.6422  0.9553
  317MOL0     C41751   8.911  10.224  -0.518  0.3113 -0.2897 -0.1914
  317MOL0     C41752   9.028  10.304  -0.569  0.0202  0.3004 -0.1840
  317MOL0     C41753   9.136  10.357  -0.460  0.2374  0.8077  0.4206
  317MOL0     C41754   9.218  10.472  -0.506  0.2534  0.5863 -0.0482
  317MOL0     C41755   9.283  10.555  -0.394 -0.5101 -0.7699  0.2983
  317MOL0    Cl41756   9.409  10.674  -0.439 -0.9986  0.3515  0.0737
  317MOL0     C41757   8.389  10.161  -0.272 -0.0860 -0.1825 -0.4808
  317MOL0     C41758   8.297  10.225  -0.199  0.9876 -0.6131  0.1682
  317MOL0     O41759   8.274  10.503  -0.044 -0.3616  0.0311 -0.5675
  317MOL0     C41760   8.091  10.613   0.113 -0.3302  0.6729 -1.0987
  317MOL0     C41761   7.993  10.670   0.192 -0.0852 -0.1511 -1.4449
  317MOL0     N41762   7.749  10.296   0.609  0.0795 -0.5343 -0.2372
  317MOL0     N41763   7.768  10.173   0.595  0.2235 -0.3174  0.3590
  317MOL0     C41764   6.997   9.486   0.315  0.5915  0.0288 -1.1515
  317MOL0     C41765   6.870   9.443   0.284 -0.5882  0.4555 -0.0251
  317MOL0     C41766   6.545   9.100   0.147  0.5252 -0.5435  0.3292
  317MOL0     C41767   6.496   8.979   0.104  0.8960  0.0673 -0.3522
  317MOL0     C41768   6.361   8.947   0.090 -0.0935  0.6886  0.1424
  317MOL0     C41769   6.266   9.037   0.113  1.0981 -0.1581 -0.7118
  317MOL0     O41770   6.137   9.003   0.102 -0.6140  1.0057  0.1493
  317MOL0     C41771   6.051   9.110   0.085 -0.2547 -0.2407 -0.6844
  317MOL0     C41772   5.936   9.052   0.008  0.3190 -0.3325 -0.3640
  317MOL0     C41773   5.924   9.089  -0.142  0.5580  0.1648 -0.2168
  317MOL0     C41774   5.788   9.058  -0.214  0.0201 -1.4493 -0.2043
  317MOL0     C41775   5.688   9.173  -0.203 -0.3101  0.3895  0.2009
  317MOL0     C41776   5.616   9.270  -0.188  0.0663 -1.1136 -0.1557
  317MOL0     C41777   6.312   9.170   0.146 -0.6208  0.2495 -0.0491
  317MOL0     C41778   6.448   9.202   0.156 -0.1983  0.4177 -0.5684
  317MOL0     H41779   6.954   9.196   0.069  0.9088  1.9151 -1.1546
  317MOL0     H41780   7.184   9.266   0.135  0.6733 -0.0724  2.0086
  317MOL0     H41781   7.385   9.333   0.232  3.5420 -2.6848  2.1452
  317MOL0     H41782   7.331   9.272   0.393 -0.0276 -1.1573 -1.1629
  317MOL0     H41783   7.473   9.534   0.348 -1.9480 -0.1697 -0.6867
  317MOL0     H41784   7.561   9.383   0.372 -0.5715 -1.3734 -0.3240
  317MOL0     H41785   7.458   9.339   0.584 -0.4267 -1.3857 -3.4587
  317MOL0     H41786   7.349   9.484   0.579  1.1777  2.2568  3.5737
  317MOL0     H41787   7.539   9.496   0.733 -3.0683 -1.4634 -0.8935
  317MOL0     H41788   7.659   9.512   0.595  0.2423 -2.2965  0.2456
  317MOL0     H41789   7.450   9.717   0.651 -0.9757 -0.0535 -0.4915
  317MOL0     H41790   7.542   9.691   0.505  1.0216  1.5662  0.6845
  317MOL0     H41791   7.755   9.733   0.604  1.4131  1.5296  1.0921
  317MOL0     H41792   7.691   9.701   0.767  1.7404 -0.4602  0.1574
  317MOL0     H41793   7.533   9.895   0.736  0.5040 -0.3126  1.4681
  317MOL0     H41794   7.709   9.950   0.732  1.4711 -1.9188 -0.2299
  317MOL0     H41795   7.551   9.944   0.480  0.0649 -0.0007 -0.6920
  317MOL0     H41796   7.722   9.931   0.480  0.4818 -0.7788 -0.4978
  317MOL0     H41797   7.451  10.214   0.494  0.5070  0.8176 -0.1675
  317MOL0     H41798   7.570  10.518   0.671 -0.8032 -1.2860  0.8831
  317MOL0     H41799   7.453  10.463   0.558  0.4724  0.9039 -0.0608
  317MOL0     H41800   7.721  10.574   0.488 -2.1402 -0.0225  0.8629
  317MOL0     H41801   7.575  10.658   0.477  0.8677  0.2676  1.1430
  317MOL0     H41802   7.664  10.440   0.296  0.5063  0.6433 -1.7186
  317MOL0     H41803   7.485  10.486   0.306  0.4202 -2.2918  0.3670
  317MOL0     H41804   7.561  10.726   0.250  0.7240  0.5457  0.1581
  317MOL0     H41805   7.606  10.607   0.130  1.5258 -1.2153  0.1685
  317MOL0     H41806   7.738  10.467   0.086 -0.2062  2.4530 -2.2078
  317MOL0     H41807   7.889  10.397  -0.064 -2.1222 -0.5510  1.8144
  317MOL0     H41808   8.170  10.444  -0.439 -0.0266  1.5009  1.6760
  317MOL0     H41809   8.317  10.304  -0.578  0.7930 -1.9466 -0.2586
  317MOL0     H41810   8.645  10.264  -0.412 -1.8183 -1.1444  1.5121
  317MOL0     H41811   8.594  10.316  -0.570  2.9877 -1.1317 -1.7308
  317MOL0     H41812   8.663  10.070  -0.662 -0.5987  0.3590 -0.6055
  317MOL0     H41813   8.726  10.036  -0.514 -0.7949  1.5148  3.7542
  317MOL0     H41814   8.813  10.285  -0.685  2.4642 -0.0855 -1.0251
  317MOL0     H41815   8.885  10.127  -0.699 -0.4127  1.1330 -0.2740
  317MOL0     H41816   8.861  10.288  -0.445 -1.6994 -1.7718 -0.2110
  317MOL0     H41817   8.947  10.133  -0.469 -2.3781 -1.5300 -0.3991
  317MOL0     H41818   8.996  10.396  -0.619 -1.1485  0.7344  1.2946
  317MOL0     H41819   9.084  10.236  -0.634 -0.5241 -0.1390 -0.1936
  317MOL0     H41820   9.209  10.284  -0.425 -0.5752 -0.2415 -0.0159
  317MOL0     H41821   9.070  10.404  -0.386 -4.7207 -2.1102 -1.6699
  317MOL0     H41822   9.282  10.433  -0.585 -0.7758 -1.3215 -0.0241
  317MOL0     H41823   9.161  10.555  -0.548  0.2051 -0.5921 -2.5091
  317MOL0     H41824   9.331  10.484  -0.326 -1.6368 -0.5722  1.3355
  317MOL0     H41825   9.201  10.618  -0.359 -1.3136  0.5294 -3.4071
  317MOL0     H41826   8.456  10.080  -0.246  1.0862  1.2827  1.3352
  317MOL0     H41827   8.291  10.192  -0.096  0.7383 -2.7639 -0.4819
  317MOL0     H41828   8.195  10.638   0.132 -0.1478 -1.9730  2.5632
  317MOL0     H41829   8.021  10.742   0.268  2.0883 -1.5297 -0.8423
  317MOL0     H41830   7.001   9.580   0.369 -2.5414  0.3239 -1.2278
  317MOL0     H41831   6.781   9.494   0.320 -1.4719  0.6866 -2.3320
  317MOL0     H41832   6.572   8.905   0.081 -1.9763 -3.5930  1.0275
  317MOL0     H41833   6.335   8.845   0.062  1.2082 -0.1422  1.7866
  317MOL0     H41834   6.094   9.188   0.021 -0.5356 -1.0817 -1.9185
  317MOL0     H41835   6.011   9.156   0.176  3.6154  2.5720 -0.1486
  317MOL0     H41836   5.934   8.943   0.018  0.9177 -0.4126 -1.0752
  317MOL0     H41837   5.846   9.089   0.058  0.3287 -0.7167 -0.0523
  317MOL0     H41838   6.005   9.038  -0.195  0.0085 -0.6264 -0.3132
  317MOL0     H41839   5.933   9.198  -0.144 -0.3219  0.4020  2.7876
  317MOL0     H41840   5.807   9.042  -0.321  0.3938  3.6335 -1.1584
  317MOL0     H41841   5.737   8.974  -0.166  0.1593 -0.2316  2.2310
  317MOL0     H41842   5.558   9.357  -0.162 -0.9179 -1.7750 -0.0564
  317MOL0     H41843   6.244   9.251   0.169 -0.8341 -0.5792  2.6393
  317MOL0     H41844   6.472   9.305   0.181 -1.7715  0.4264  1.1090
  318MOL0     O41845   7.885   3.242   7.804 -0.3640 -0.1443 -0.2940
  318MOL0     C41846   7.923   3.254   7.920  0.1002 -0.1305  0.3140
  318MOL0     O41847   8.046   3.304   7.966 -0.0019 -0.0457  1.1050
  318MOL0     C41848   8.151   3.342   7.884  0.6131 -0.1310  0.5817
  318MOL0     C41849   8.181   3.273   7.762  0.8887 -0.0995  0.4839
  318MOL0     C41850   8.279   3.315   7.678  0.0760 -0.7952  0.5526
  318MOL0     C41851   8.359   3.425   7.721  0.2751 -0.3741 -0.6656
  318MOL0     O41852   8.450   3.473   7.629 -0.2144  0.5951  0.1508
  318MOL0     C41853   8.586   3.454   7.669  0.2698  0.0476 -0.5372
  318MOL0     C41854   8.685   3.543   7.593  0.4317  0.1845 -0.7578
  318MOL0     C41855   8.671   3.515   7.448  0.6399  0.8409 -0.6248
  318MOL0     C41856   8.786   3.572   7.374 -1.1852  0.3210  0.7466
  318MOL0     C41857   8.793   3.502   7.241  0.2665  0.1935 -0.7034
  318MOL0     C41858   8.913   3.556   7.169 -0.8653 -0.7524  0.8218
  318MOL0     C41859   8.934   3.514   7.022 -0.4173  0.6776 -0.4619
  318MOL0     C41860   9.043   3.594   6.941 -0.8960 -0.1804 -0.1338
  318MOL0     N41861   9.169   3.626   6.996  0.3825  0.0032 -0.2176
  318MOL0     C41862   9.180   3.712   7.109 -0.2028  0.0966 -0.0907
  318MOL0     C41863   9.311   3.702   7.141 -0.8028  0.2017 -0.3981
  318MOL0     C41864   9.368   3.766   7.267 -0.7393  0.3668  0.6207
  318MOL0     C41865   9.296   3.719   7.382 -0.9677 -0.1655 -0.7700
  318MOL0     C41866   9.357   3.779   7.505  0.5078 -0.2739 -0.0146
  318MOL0     C41867   9.263   3.743   7.626  0.3406  0.4556  0.2454
  318MOL0     O41868   9.142   3.813   7.623  0.5771  0.3962  0.6838
  318MOL0     C41869   9.032   3.779   7.703  0.5738  0.2919  0.8565
  318MOL0     C41870   9.036   3.686   7.804  0.1521 -0.5900 -0.1466
  318MOL0     C41871   8.928   3.662   7.888  0.1342 -0.4299 -0.0208
  318MOL0     C41872   8.804   3.725   7.869 -0.3345  0.4992  0.3352
  318MOL0     C41873   8.699   3.683   7.960 -0.2961  0.1912  0.6678
  318MOL0     O41874   8.718   3.570   8.034 -0.0930 -0.8989 -0.6092
  318MOL0     C41875   8.610   3.530   8.111  0.9754 -0.0928  0.2856
  318MOL0     C41876   8.558   3.613   8.207  0.6752  0.2249 -0.0206
  318MOL0     C41877   8.451   3.574   8.286  0.4259  0.2994 -0.6505
  318MOL0     C41878   8.384   3.455   8.266 -0.6155 -0.4128  0.0909
  318MOL0     O41879   8.273   3.409   8.331 -0.5533 -1.0093  0.2859
  318MOL0     C41880   8.179   3.500   8.400 -0.9498  0.3441  0.6397
  318MOL0     C41881   8.135   3.446   8.528  0.4029 -0.1444 -0.0043
  318MOL0     C41882   8.114   3.293   8.522 -1.4793  0.5758  0.0520
  318MOL0     C41883   8.043   3.245   8.652  0.2193 -0.1402  0.0637
  318MOL0     C41884   8.020   3.094   8.644 -0.0500 -0.0241 -0.4578
  318MOL0     C41885   7.911   3.048   8.740 -0.0220 -0.2088  0.5147
  318MOL0     C41886   7.765   3.090   8.713 -0.2004 -0.5954  0.2531
  318MOL0     C41887   7.662   2.988   8.791  0.0612  1.0649  0.1859
  318MOL0    Cl41888   7.499   3.058   8.775  0.3131 -0.5264  0.3264
  318MOL0     C41889   8.438   3.368   8.168  0.2631  0.3433 -0.1998
  318MOL0     C41890   8.551   3.411   8.088 -0.0032 -0.1733  0.2646
  318MOL0     O41891   8.604   3.757   7.965  0.9759 -0.2461  0.2038
  318MOL0     C41892   8.797   3.826   7.770 -0.3657  0.1253  0.7272
  318MOL0     C41893   8.908   3.844   7.681 -0.5847 -0.7730 -0.0691
  318MOL0     N41894   9.376   3.631   7.050  0.0069  0.9768  0.1999
  318MOL0     N41895   9.292   3.584   6.964 -0.2117  0.8414  0.8309
  318MOL0     C41896   8.335   3.491   7.840  0.1100  0.7643 -1.2045
  318MOL0     C41897   8.236   3.452   7.924  0.4067  0.9595  0.6174
  318MOL0     C41898   7.838   3.214   8.026  0.5272 -0.0139  0.7296
  318MOL0     C41899   7.712   3.147   7.998 -0.5421  0.4730 -0.3182
  318MOL0     C41900   7.623   3.101   8.096 -0.6079 -0.7825  0.7586
  318MOL0     C41901   7.658   3.096   8.230  0.2581 -0.3243  0.0254
  318MOL0     O41902   7.580   3.064   8.334 -0.3379  0.0742 -1.0449
  318MOL0     C41903   7.547   2.923   8.337 -0.7183  0.0538 -0.1362
  318MOL0     C41904   7.460   2.880   8.459  0.0345 -1.0566 -0.4081
  318MOL0     C41905   7.339   2.974   8.488  0.0530 -0.5565  0.0403
  318MOL0     C41906   7.246   3.002   8.364 -0.7324  0.2530 -0.5983
  318MOL0     C41907   7.201   2.885   8.281 -1.2916 -0.1475  0.1269
  318MOL0     C41908   7.156   2.798   8.207  0.1194  0.1474 -0.4353
  318MOL0     C41909   7.779   3.167   8.260  0.1310  1.0094 -0.4131
  318MOL0     C41910   7.859   3.227   8.163 -0.2204 -0.0632 -0.5138
  318MOL0     H41911   8.117   3.193   7.724 -1.4808  1.9582 -0.1388
  318MOL0     H41912   8.304   3.277   7.579  3.9415  2.5092  0.0175
  318MOL0     H41913   8.617   3.350   7.659 -0.4134 -0.3396  0.9580
  318MOL0     H41914   8.598   3.482   7.775 -1.4926  2.4661 -0.8927
  318MOL0     H41915   8.786   3.514   7.624  0.4467  0.9510 -0.0476
  318MOL0     H41916   8.669   3.651   7.607 -1.1189 -0.4372  3.8907
  318MOL0     H41917   8.577   3.552   7.405 -0.4261 -0.5116  0.4480
  318MOL0     H41918   8.661   3.407   7.440 -0.2257  1.0385 -2.6008
  318MOL0     H41919   8.764   3.676   7.348 -2.6221 -0.1118  0.1134
  318MOL0     H41920   8.881   3.559   7.427  2.0794  2.1401 -3.9230
  318MOL0     H41921   8.704   3.523   7.182  0.2264 -0.2188 -0.7888
  318MOL0     H41922   8.809   3.396   7.263  0.3383  0.0629 -1.3658
  318MOL0     H41923   9.007   3.546   7.223 -0.7509 -0.3493  0.6992
  318MOL0     H41924   8.909   3.665   7.163  3.5376 -0.4874 -1.1130
  318MOL0     H41925   8.971   3.412   7.019  1.7528  1.4405 -1.6778
  318MOL0     H41926   8.842   3.507   6.964 -0.6549 -1.7641  0.0871
  318MOL0     H41927   8.999   3.687   6.904 -0.3183 -0.2808 -1.0991
  318MOL0     H41928   9.063   3.537   6.850 -1.0940 -0.8965  0.2669
  318MOL0     H41929   9.098   3.772   7.148 -3.8363 -2.6342 -2.7924
  318MOL0     H41930   9.349   3.873   7.250  0.4162  0.3751 -0.8910
  318MOL0     H41931   9.477   3.758   7.272 -0.3945  0.3446 -3.3367
  318MOL0     H41932   9.316   3.611   7.382  4.2712  0.5239  0.9400
  318MOL0     H41933   9.189   3.743   7.386 -0.7322  0.8859 -0.5821
  318MOL0     H41934   9.454   3.732   7.519  0.5214 -0.4608 -0.7071
  318MOL0     H41935   9.366   3.888   7.496  1.1109 -0.3889 -0.8720
  318MOL0     H41936   9.321   3.747   7.719  1.4616 -1.2037 -0.3521
  318MOL0     H41937   9.237   3.638   7.614 -1.2384  0.8725 -0.2321
  318MOL0     H41938   9.129   3.635   7.826  1.6868  2.2692  0.5080
  318MOL0     H41939   8.940   3.594   7.971 -1.4792  1.7709  2.1600
  318MOL0     H41940   8.617   3.703   8.218 -0.0102  1.1880 -3.1448
  318MOL0     H41941   8.423   3.638   8.369 -3.1240 -1.1708 -0.5526
  318MOL0     H41942   8.095   3.493   8.331 -2.4173  1.0034  2.3031
  318MOL0     H41943   8.217   3.600   8.422  0.1726  0.8780 -3.0928
  318MOL0     H41944   8.037   3.485   8.557 -2.6709 -3.9597 -3.8854
  318MOL0     H41945   8.207   3.471   8.607 -0.1688 -0.1115  0.5109
  318MOL0     H41946   8.209   3.239   8.524 -0.7037  1.9129  1.7250
  318MOL0     H41947   8.065   3.253   8.432  1.6925  0.1774 -1.6370
  318MOL0     H41948   8.089   3.288   8.741 -0.0735 -0.1164  0.2041
  318MOL0     H41949   7.949   3.300   8.648  0.6903  0.9820  2.6275
  318MOL0     H41950   8.115   3.054   8.679 -0.6888 -1.9714 -0.8113
  318MOL0     H41951   7.999   3.065   8.540  0.7533 -1.6885 -0.1814
  318MOL0     H41952   7.938   3.084   8.840 -0.7547  0.4519  0.4831
  318MOL0     H41953   7.913   2.939   8.746  2.3383 -0.1737  1.8472
  318MOL0     H41954   7.748   3.190   8.755  0.5073 -0.0777 -0.6818
  318MOL0     H41955   7.746   3.089   8.606 -2.7590  0.9354  0.5934
  318MOL0     H41956   7.696   2.967   8.893  1.8143 -1.5138 -0.8153
  318MOL0     H41957   7.656   2.888   8.747 -2.9286  1.4657 -0.5363
  318MOL0     H41958   8.404   3.265   8.159  1.2642 -0.1522  1.3544
  318MOL0     H41959   8.595   3.346   8.013 -2.0630  1.3828 -2.5037
  318MOL0     H41960   8.703   3.880   7.763  0.3721  1.3385 -0.1277
  318MOL0     H41961   8.899   3.915   7.599 -1.2372  0.4088  0.9877
  318MOL0     H41962   8.403   3.566   7.879 -1.6132  0.5502  2.6758
  318MOL0     H41963   8.231   3.487   8.027  1.3019 -1.6292  1.6111
  318MOL0     H41964   7.680   3.125   7.897 -2.7001  2.1541 -0.0698
  318MOL0     H41965   7.520   3.079   8.069 -0.7982  0.2471  0.6071
  318MOL0     H41966   7.640   2.865   8.334 -0.3424  0.6958 -1.4123
  318MOL0     H41967   7.487   2.895   8.250 -2.7413  1.1176  0.8612
  318MOL0     H41968   7.426   2.777   8.444 -2.1332 -0.2189 -1.8100
  318MOL0     H41969   7.522   2.877   8.549 -1.8158 -2.6046  0.8995
  318MOL0     H41970   7.371   3.071   8.525 -0.2615 -0.2310 -0.5221
  318MOL0     H41971   7.277   2.929   8.566  1.8170  1.1434  2.5818
  318MOL0     H41972   7.168   3.066   8.406 -0.1272  1.5101 -1.3194
  318MOL0     H41973   7.297   3.073   8.298  1.6693  0.4625  1.3087
  318MOL0     H41974   7.097   2.735   8.144 -1.9137  2.1831 -0.7487
  318MOL0     H41975   7.798   3.160   8.367  2.2752 -5.0104 -0.8091
  318MOL0     H41976   7.944   3.288   8.190 -0.1296 -0.4640  0.1170
  319MOL0     O41977   7.734  10.578   7.078 -0.4313  0.0963 -0.0724
  319MOL0     C41978   7.783  10.513   6.990 -0.2708  0.3904  0.2665
  319MOL0     O41979   7.809  10.558   6.858  0.4669 -0.0276  0.5644
  319MOL0     C41980   7.788  10.688   6.819  0.2581  0.0498  0.7565
  319MOL0     C41981   7.811  10.799   6.903 -0.1373 -0.8024 -0.6599
  319MOL0     C41982   7.787  10.928   6.852  0.2571  0.7491  0.3197
  319MOL0     C41983   7.734  10.949   6.719 -0.9001 -0.4761 -0.1374
  319MOL0     O41984   7.695  11.081   6.685 -0.1125  0.3833 -0.5324
  319MOL0     C41985   7.667  11.106   6.542  0.6049  0.3609  0.5317
  319MOL0     C41986   7.647  11.254   6.508 -0.1689  0.8792 -0.0849
  319MOL0     C41987   7.769  11.334   6.499 -0.4688  0.5040 -0.5790
  319MOL0     C41988   7.745  11.479   6.466  0.7288  0.1421  0.3215
  319MOL0     C41989   7.871  11.561   6.479 -0.0072  1.0114 -0.0719
  319MOL0     C41990   7.851  11.717   6.461  0.4720 -0.4385  0.0902
  319MOL0     C41991   7.969  11.803   6.498 -0.3066  0.3273  0.8991
  319MOL0     C41992   7.965  11.918   6.405  0.4505  0.0480  0.2722
  319MOL0     N41993   7.854  12.020   6.424  0.0732 -0.2494 -0.1599
  319MOL0     C41994   7.787  12.054   6.534 -0.3369 -0.6241  0.0636
  319MOL0     C41995   7.695  12.148   6.500 -1.1791 -0.3387  0.4080
  319MOL0     C41996   7.593  12.198   6.592 -0.1218 -1.2158 -0.7142
  319MOL0     C41997   7.652  12.310   6.692 -1.0688  0.1129 -0.1676
  319MOL0     C41998   7.694  12.437   6.618  0.0685  0.6316  0.3730
  319MOL0     C41999   7.662  12.566   6.703 -0.4791  0.3861 -0.2599
  319MOL0     O42000   7.527  12.603   6.664  0.0532 -0.1854  0.4234
  319MOL0     C42001   7.441  12.580   6.766  1.3358 -0.2528 -1.5631
  319MOL0     C42002   7.454  12.631   6.894 -0.4346  0.1341 -0.8407
  319MOL0     C42003   7.368  12.593   6.991 -0.1188  0.1251  0.4376
  319MOL0     C42004   7.253  12.511   6.961  0.3954 -0.3486  1.2853
  319MOL0     C42005   7.145  12.485   7.062  0.1726  0.3960 -0.1686
  319MOL0     O42006   7.116  12.588   7.142 -0.4647 -0.1012 -0.2613
  319MOL0     C42007   7.026  12.560   7.244  0.8461 -0.5309 -0.0864
  319MOL0     C42008   6.896  12.586   7.206 -0.2194 -0.6268  0.1113
  319MOL0     C42009   6.794  12.580   7.299  1.0738 -0.8815 -0.5820
  319MOL0     C42010   6.822  12.549   7.431 -0.0098  0.0975 -0.0116
  319MOL0     O42011   6.715  12.553   7.515 -0.0070 -1.2254 -0.3317
  319MOL0     C42012   6.726  12.499   7.648 -0.8093  0.8610 -0.6561
  319MOL0     C42013   6.603  12.393   7.675 -1.1141  0.1074 -0.6472
  319MOL0     C42014   6.470  12.460   7.657  0.1795 -0.0819  0.1223
  319MOL0     C42015   6.347  12.369   7.693 -0.0953  0.1617 -0.5388
  319MOL0     C42016   6.209  12.434   7.662  0.6524 -0.3473 -0.5416
  319MOL0     C42017   6.089  12.353   7.719 -0.0314 -0.0697  0.6012
  319MOL0     C42018   6.065  12.387   7.869  0.2107 -0.9201 -0.4083
  319MOL0     C42019   5.967  12.300   7.941  1.0605  0.5222  0.1740
  319MOL0    Cl42020   5.972  12.122   7.904  0.5202 -0.2848 -0.2447
  319MOL0     C42021   6.959  12.531   7.472 -0.2449 -0.2157  0.1992
  319MOL0     C42022   7.060  12.530   7.374 -1.1928  0.1557  0.8193
  319MOL0     O42023   7.084  12.376   7.056  0.5644  0.2141 -0.9191
  319MOL0     C42024   7.225  12.477   6.824 -0.0758  0.0222  0.2297
  319MOL0     C42025   7.319  12.513   6.734 -0.5942 -0.3146  0.7237
  319MOL0     N42026   7.691  12.154   6.357  0.3867  0.0879  0.0500
  319MOL0     N42027   7.794  12.083   6.321 -0.4712  0.1719  0.1642
  319MOL0     C42028   7.717  10.836   6.633  0.3842 -0.1655  0.6852
  319MOL0     C42029   7.761  10.712   6.683  1.1590 -0.2182 -0.7227
  319MOL0     C42030   7.791  10.372   7.023 -0.2759  0.6064  0.5817
  319MOL0     C42031   7.763  10.278   6.920 -0.2923  0.8628 -0.1834
  319MOL0     C42032   7.772  10.144   6.945 -0.2065  0.3339 -0.5587
  319MOL0     C42033   7.786  10.102   7.076 -0.3157  0.3724 -0.2777
  319MOL0     O42034   7.757   9.969   7.095  0.6398 -0.2116 -0.0743
  319MOL0     C42035   7.743   9.916   7.223 -0.0697  0.0905 -0.1179
  319MOL0     C42036   7.887   9.869   7.259  0.8600  0.1288  1.0863
  319MOL0     C42037   7.915   9.741   7.184  0.2138  0.7417  0.7308
  319MOL0     C42038   8.059   9.681   7.203  0.4115  0.2402 -0.0668
  319MOL0     C42039   8.086   9.640   7.341  0.9245  1.4375 -0.3622
  319MOL0     C42040   8.098   9.586   7.447 -0.2635 -0.6554  0.2527
  319MOL0     C42041   7.807  10.193   7.183  0.1011 -0.9724 -0.4907
  319MOL0     C42042   7.808  10.330   7.154  0.2365  0.4161  0.4867
  319MOL0     H42043   7.850  10.778   7.002 -1.3529 -0.3399 -0.0635
  319MOL0     H42044   7.799  11.015   6.916 -4.0877 -0.0402  2.5436
  319MOL0     H42045   7.576  11.047   6.525  2.2160 -2.0776 -0.1189
  319MOL0     H42046   7.746  11.069   6.477  1.3736 -0.2343  1.7789
  319MOL0     H42047   7.584  11.302   6.583  1.9608  0.6128  2.0023
  319MOL0     H42048   7.604  11.244   6.408 -1.0309 -2.8118  0.5150
  319MOL0     H42049   7.833  11.288   6.422 -0.7673  2.0849 -1.8297
  319MOL0     H42050   7.820  11.346   6.594 -1.0385 -0.3057 -0.1509
  319MOL0     H42051   7.699  11.493   6.367 -1.8818 -0.8576  1.3045
  319MOL0     H42052   7.671  11.529   6.529 -1.6660 -0.0727 -2.1352
  319MOL0     H42053   7.941  11.523   6.404 -1.8900 -3.8537  0.2207
  319MOL0     H42054   7.911  11.551   6.580 -3.1907  0.7484  1.3030
  319MOL0     H42055   7.768  11.762   6.516 -0.5437 -0.6911 -1.1743
  319MOL0     H42056   7.833  11.737   6.355 -2.3304 -0.2125  0.5300
  319MOL0     H42057   7.963  11.825   6.605 -2.9442 -0.9207  1.1048
  319MOL0     H42058   8.064  11.750   6.487 -1.1281 -0.8678 -1.0771
  319MOL0     H42059   7.959  11.884   6.301 -1.0265 -2.4325  1.0785
  319MOL0     H42060   8.060  11.973   6.407 -0.3218  1.4254  0.2351
  319MOL0     H42061   7.818  12.016   6.630  0.1099 -2.6374 -0.8358
  319MOL0     H42062   7.565  12.114   6.657  1.6267 -1.8214 -0.6723
  319MOL0     H42063   7.513  12.248   6.537  1.4364  2.4030  0.0539
  319MOL0     H42064   7.735  12.284   6.759 -0.3468  0.6542 -0.8361
  319MOL0     H42065   7.575  12.336   6.765 -1.8336  0.2294 -1.0005
  319MOL0     H42066   7.795  12.452   6.580 -0.4335 -0.0616 -1.3612
  319MOL0     H42067   7.621  12.441   6.536 -0.7344 -3.2540  0.7238
  319MOL0     H42068   7.729  12.642   6.660  0.2456 -0.2764 -0.3076
  319MOL0     H42069   7.679  12.537   6.807  0.0361 -1.8177 -0.9018
  319MOL0     H42070   7.551  12.674   6.919 -1.4310  3.0952 -1.7373
  319MOL0     H42071   7.391  12.623   7.093 -1.7237  0.8239  0.6264
  319MOL0     H42072   6.870  12.610   7.104  0.5280  1.5423  0.3791
  319MOL0     H42073   6.699  12.604   7.251  1.1130 -0.4992 -0.4717
  319MOL0     H42074   6.728  12.577   7.725  1.4622  0.0940  0.1257
  319MOL0     H42075   6.819  12.441   7.650  2.0864  5.0503 -1.8868
  319MOL0     H42076   6.608  12.370   7.782 -5.8351  1.4609  0.0979
  319MOL0     H42077   6.622  12.306   7.611  1.9102 -0.6668  1.1330
  319MOL0     H42078   6.443  12.488   7.555 -1.0906  0.0704  0.4895
  319MOL0     H42079   6.466  12.548   7.723  1.6121 -0.8724  1.3407
  319MOL0     H42080   6.359  12.282   7.629 -1.0571  0.3660 -1.0120
  319MOL0     H42081   6.347  12.347   7.800 -3.0280  1.3968 -0.1769
  319MOL0     H42082   6.199  12.430   7.553 -0.3749  1.8673 -0.5887
  319MOL0     H42083   6.203  12.540   7.688 -1.3821 -0.5255 -0.1707
  319MOL0     H42084   6.128  12.252   7.707  1.1200  0.6235 -2.6981
  319MOL0     H42085   5.995  12.377   7.669 -0.4543 -0.5804  1.1627
  319MOL0     H42086   6.160  12.378   7.923 -0.6056  1.5601  1.6329
  319MOL0     H42087   6.033  12.490   7.883  0.1875 -1.2248  2.1859
  319MOL0     H42088   5.866  12.341   7.952  0.9278  0.7893 -1.6787
  319MOL0     H42089   5.996  12.305   8.047  3.3285  0.0235 -0.3724
  319MOL0     H42090   6.998  12.527   7.573  5.2370 -1.6737 -1.6222
  319MOL0     H42091   7.164  12.534   7.404 -1.2585  0.8638  0.9654
  319MOL0     H42092   7.133  12.423   6.801 -0.0175 -1.9279  3.8536
  319MOL0     H42093   7.306  12.484   6.630  1.7403  0.6607  0.0972
  319MOL0     H42094   7.674  10.830   6.533  1.3073  0.0304  0.2592
  319MOL0     H42095   7.744  10.627   6.618 -1.0734 -0.4675  0.1146
  319MOL0     H42096   7.761  10.310   6.816 -1.3519 -3.3455 -1.6605
  319MOL0     H42097   7.748  10.083   6.858  1.9668 -1.6759  0.1405
  319MOL0     H42098   7.668   9.836   7.226 -2.0872  1.9012  0.5518
  319MOL0     H42099   7.714   9.992   7.296  0.1030 -0.8370  0.9302
  319MOL0     H42100   7.958   9.945   7.226 -0.0365 -0.1766 -1.8233
  319MOL0     H42101   7.892   9.842   7.365 -2.9557 -0.7876  1.1924
  319MOL0     H42102   7.889   9.750   7.078 -4.1108  0.7564  1.6127
  319MOL0     H42103   7.841   9.674   7.228  1.6454  0.0410  2.1578
  319MOL0     H42104   8.070   9.594   7.137  0.0882  1.0991 -1.2853
  319MOL0     H42105   8.136   9.752   7.173 -0.3415  0.6725 -1.0278
  319MOL0     H42106   8.132   9.541   7.538 -0.7661  1.4896  1.5739
  319MOL0     H42107   7.830  10.175   7.288  0.7528  0.9211 -0.2664
  319MOL0     H42108   7.828  10.394   7.239  1.6449 -0.4237  0.8122
  320MOL0     O42109   1.374   1.339   5.442 -0.2770  0.0346 -0.5830
  320MOL0     C42110   1.283   1.309   5.366  0.7732 -0.1769 -0.3519
  320MOL0     O42111   1.273   1.199   5.286  0.1418 -0.5872  0.2150
  320MOL0     C42112   1.391   1.144   5.235 -0.2350  0.3109 -0.3982
  320MOL0     C42113   1.474   1.220   5.155 -0.1469 -0.5501  0.4282
  320MOL0     C42114   1.597   1.165   5.110  0.1886  0.7527 -0.0728
  320MOL0     C42115   1.641   1.048   5.157 -0.8024  0.9298  0.2550
  320MOL0     O42116   1.768   1.002   5.118  1.3126 -0.6329  0.5356
  320MOL0     C42117   1.804   0.866   5.138  0.2450  0.1613 -1.1553
  320MOL0     C42118   1.918   0.830   5.044 -0.2206  0.3179 -0.3868
  320MOL0     C42119   1.957   0.679   5.038 -0.7965 -0.1726 -0.6602
  320MOL0     C42120   2.101   0.671   4.990 -0.0681  1.0625  0.0065
  320MOL0     C42121   2.136   0.529   4.931 -0.0387  0.0102 -0.3934
  320MOL0     C42122   2.290   0.537   4.889  0.1914  0.5794 -0.4436
  320MOL0     C42123   2.324   0.402   4.822  0.3871 -0.4360  0.8230
  320MOL0     C42124   2.476   0.385   4.807  0.7824  1.1004 -0.2764
  320MOL0     N42125   2.556   0.498   4.752  0.4884 -0.7403  0.1282
  320MOL0     C42126   2.555   0.537   4.622 -0.2350  0.2136  0.1521
  320MOL0     C42127   2.652   0.638   4.619 -0.2292  0.2101 -0.7778
  320MOL0     C42128   2.691   0.721   4.498  0.0614  1.5428 -0.3357
  320MOL0     C42129   2.574   0.803   4.450  0.0615 -0.7601 -0.2577
  320MOL0     C42130   2.548   0.913   4.557 -0.7364  0.2236  0.2258
  320MOL0     C42131   2.435   0.993   4.498 -0.2597 -0.0237 -0.5858
  320MOL0     O42132   2.467   1.051   4.370 -0.2878  0.4566  0.8376
  320MOL0     C42133   2.360   1.084   4.285  0.1362 -0.2406 -0.0500
  320MOL0     C42134   2.229   1.110   4.334  0.1371 -0.5692  0.2098
  320MOL0     C42135   2.135   1.166   4.243 -0.0833  0.3145 -0.3428
  320MOL0     C42136   2.167   1.177   4.107  0.3717 -0.7861  0.2159
  320MOL0     C42137   2.082   1.239   4.003 -0.2362  0.2970  0.0359
  320MOL0     O42138   2.131   1.256   3.871  0.0045  0.6347  0.1634
  320MOL0     C42139   2.041   1.246   3.764 -0.7831  0.6307  0.4356
  320MOL0     C42140   1.914   1.180   3.767  0.8008 -0.0654 -0.1668
  320MOL0     C42141   1.829   1.191   3.652 -0.6087 -0.7351 -0.4624
  320MOL0     C42142   1.879   1.258   3.539 -0.5491 -0.8832 -0.0543
  320MOL0     O42143   1.792   1.273   3.429  0.9787 -0.0049 -0.4553
  320MOL0     C42144   1.860   1.251   3.306 -0.2269 -0.3913  0.4013
  320MOL0     C42145   1.782   1.235   3.178 -0.1793 -0.9063  0.1968
  320MOL0     C42146   1.753   1.371   3.123  0.0562 -0.1752 -0.8647
  320MOL0     C42147   1.688   1.374   2.987  0.2105  0.3146 -0.1372
  320MOL0     C42148   1.685   1.517   2.940  1.0490 -0.1678  0.5743
  320MOL0     C42149   1.654   1.542   2.801 -0.5589 -0.4127 -0.1530
  320MOL0     C42150   1.625   1.697   2.780 -0.1208 -0.0413  0.8880
  320MOL0     C42151   1.755   1.787   2.769  0.2760  0.4108 -0.1848
  320MOL0    Cl42152   1.851   1.733   2.620  0.3229  0.1899  0.0202
  320MOL0     C42153   1.998   1.328   3.543  0.5620  0.8606  0.2895
  320MOL0     C42154   2.070   1.328   3.658  0.0670 -0.2357  0.8724
  320MOL0     O42155   1.968   1.253   4.038 -0.0493 -0.9614 -0.0008
  320MOL0     C42156   2.298   1.154   4.062  0.7394 -0.1542 -0.4580
  320MOL0     C42157   2.387   1.101   4.150 -0.4269  0.4989 -0.8040
  320MOL0     N42158   2.691   0.666   4.743 -0.5719 -0.5850 -0.0418
  320MOL0     N42159   2.636   0.583   4.819 -0.6273  0.1798 -0.5294
  320MOL0     C42160   1.563   0.972   5.244  0.1283  0.5596  0.2674
  320MOL0     C42161   1.432   1.014   5.276 -0.6886 -0.6198  0.8033
  320MOL0     C42162   1.176   1.415   5.362 -0.7138  0.6083 -0.7876
  320MOL0     C42163   1.055   1.381   5.303  0.0585 -0.0408  0.5027
  320MOL0     C42164   0.954   1.475   5.290  0.2956 -1.1988  1.1064
  320MOL0     C42165   0.984   1.608   5.330 -1.0817  0.4958 -0.4762
  320MOL0     O42166   0.903   1.716   5.310  0.4896  0.3581 -0.5341
  320MOL0     C42167   0.763   1.698   5.328  0.7093  0.1153 -0.3522
  320MOL0     C42168   0.729   1.617   5.454  0.2827 -1.1857 -0.0597
  320MOL0     C42169   0.589   1.559   5.440 -0.8897  1.0285 -0.2290
  320MOL0     C42170   0.477   1.654   5.485 -0.0535 -0.0264  0.2860
  320MOL0     C42171   0.420   1.600   5.608  0.6650 -0.0669 -0.0422
  320MOL0     C42172   0.360   1.556   5.700 -0.6511 -1.7944  0.0403
  320MOL0     C42173   1.109   1.637   5.395  0.7383 -0.7410 -1.0793
  320MOL0     C42174   1.209   1.543   5.414  0.6220 -0.0227  0.0107
  320MOL0     H42175   1.430   1.315   5.127 -1.2620 -1.1405  0.0933
  320MOL0     H42176   1.664   1.220   5.046 -0.4115  0.5240 -0.9085
  320MOL0     H42177   1.726   0.797   5.103 -0.7916  1.7918 -2.1681
  320MOL0     H42178   1.839   0.836   5.237  1.7981 -1.5460 -2.1335
  320MOL0     H42179   2.008   0.881   5.079 -0.2057  0.9126 -1.2429
  320MOL0     H42180   1.892   0.874   4.947  0.8273  1.6665 -0.1008
  320MOL0     H42181   1.895   0.626   4.965 -0.9535  1.3653 -1.7024
  320MOL0     H42182   1.953   0.622   5.131 -1.7413  1.1464  0.1333
  320MOL0     H42183   2.109   0.737   4.904  2.0762  0.7734 -0.0519
  320MOL0     H42184   2.174   0.715   5.058  1.8748 -0.0367 -1.2848
  320MOL0     H42185   2.077   0.506   4.841 -0.2245  1.6483 -0.7281
  320MOL0     H42186   2.130   0.443   4.999  1.0076  0.8077  0.7500
  320MOL0     H42187   2.351   0.570   4.974  0.4568  0.3679 -0.5519
  320MOL0     H42188   2.304   0.617   4.815 -0.3463  0.9649 -0.1433
  320MOL0     H42189   2.287   0.312   4.872  0.8399 -1.9059 -1.3510
  320MOL0     H42190   2.266   0.408   4.729 -1.3428  2.0616  1.9283
  320MOL0     H42191   2.492   0.290   4.756 -0.7077  0.8634 -0.3469
  320MOL0     H42192   2.526   0.373   4.904 -0.6027  1.0283  0.4493
  320MOL0     H42193   2.486   0.516   4.541 -1.3632  0.4401  1.0177
  320MOL0     H42194   2.729   0.648   4.427  1.3080 -0.8592  2.5801
  320MOL0     H42195   2.778   0.784   4.521 -0.8763  2.9167 -0.4639
  320MOL0     H42196   2.481   0.745   4.448 -1.0776  0.9910 -0.6718
  320MOL0     H42197   2.599   0.848   4.353 -1.1841  0.1392 -0.1909
  320MOL0     H42198   2.512   0.865   4.649 -2.1477 -1.4017 -1.1067
  320MOL0     H42199   2.642   0.965   4.580 -2.2319  1.9082  3.2747
  320MOL0     H42200   2.414   1.077   4.565  1.8120 -0.1666  0.2950
  320MOL0     H42201   2.346   0.929   4.493  1.5353 -2.5461 -4.0915
  320MOL0     H42202   2.212   1.102   4.441 -3.1788 -1.4982 -0.3046
  320MOL0     H42203   2.033   1.188   4.273  0.1640  0.4292  0.4432
  320MOL0     H42204   1.881   1.120   3.852  1.1298  0.5543  0.4096
  320MOL0     H42205   1.729   1.154   3.669 -2.3137  3.6073  0.2976
  320MOL0     H42206   1.895   1.148   3.319 -2.0387 -1.5246 -2.6360
  320MOL0     H42207   1.944   1.322   3.298 -0.3364 -0.4132 -1.3323
  320MOL0     H42208   1.692   1.176   3.200 -0.4906 -0.9826 -1.1716
  320MOL0     H42209   1.844   1.173   3.113 -1.0877  0.5431 -2.1489
  320MOL0     H42210   1.854   1.411   3.113  1.0600 -2.0743  0.8140
  320MOL0     H42211   1.704   1.430   3.201  1.1534 -0.6666  0.2358
  320MOL0     H42212   1.734   1.319   2.904 -2.0780  1.1262 -2.0763
  320MOL0     H42213   1.585   1.340   2.991 -0.5805  1.7747 -3.6734
  320MOL0     H42214   1.782   1.561   2.966  1.7051 -1.5677  0.5812
  320MOL0     H42215   1.611   1.573   2.997 -0.3959  0.3929 -1.7091
  320MOL0     H42216   1.563   1.483   2.791 -1.7989  0.1845  4.8547
  320MOL0     H42217   1.732   1.504   2.734 -1.1283 -0.0731 -1.0105
  320MOL0     H42218   1.578   1.692   2.682 -3.8902 -5.0199  2.5410
  320MOL0     H42219   1.561   1.739   2.859  0.3850  0.9563  0.7845
  320MOL0     H42220   1.814   1.773   2.860  1.3686  0.6233 -0.8417
  320MOL0     H42221   1.741   1.895   2.761  0.3775  0.3847 -0.7502
  320MOL0     H42222   2.031   1.393   3.462  0.1379 -1.1469 -1.5951
  320MOL0     H42223   2.167   1.376   3.657  1.1816 -2.2664 -2.1748
  320MOL0     H42224   2.322   1.162   3.957 -3.4692 -0.8585 -1.6419
  320MOL0     H42225   2.490   1.093   4.119 -0.4773  1.3329 -1.2074
  320MOL0     H42226   1.588   0.869   5.269  2.5595  1.5429  2.3027
  320MOL0     H42227   1.359   0.959   5.336  0.3918 -2.3241  0.6040
  320MOL0     H42228   1.032   1.278   5.277  2.1128  0.1659 -2.6679
  320MOL0     H42229   0.860   1.450   5.240 -0.2205 -2.0962  2.4735
  320MOL0     H42230   0.728   1.648   5.237  1.4028 -1.2389  0.1010
  320MOL0     H42231   0.717   1.798   5.327  0.3227  0.0029  1.8290
  320MOL0     H42232   0.798   1.533   5.470  1.1058 -0.0116  3.1933
  320MOL0     H42233   0.749   1.679   5.541 -1.5014  2.6319 -2.1085
  320MOL0     H42234   0.584   1.473   5.508 -2.3411 -0.4041 -2.0653
  320MOL0     H42235   0.568   1.508   5.346 -0.7324 -1.0089  0.7815
  320MOL0     H42236   0.532   1.747   5.500  4.2066 -2.2066 -0.2583
  320MOL0     H42237   0.399   1.651   5.408 -0.7230  2.7912  0.7632
  320MOL0     H42238   0.308   1.516   5.785 -0.0187 -0.5571  1.0410
  320MOL0     H42239   1.124   1.740   5.428 -1.6801 -0.9053  0.8797
  320MOL0     H42240   1.311   1.567   5.441  1.2594 -1.5845 -0.8632
  321MOL0     O42241   4.654   8.875  10.936 -0.6135 -0.3479 -0.2876
  321MOL0     C42242   4.706   8.792  10.852 -0.0447 -0.5413  0.5069
  321MOL0     O42243   4.825   8.813  10.790  0.2963 -0.4195 -0.3987
  321MOL0     C42244   4.898   8.933  10.807  0.8077 -0.0748 -0.4058
  321MOL0     C42245   5.037   8.907  10.829 -0.2475  0.6672 -0.2344
  321MOL0     C42246   5.124   9.008  10.858 -0.9156  0.4803  0.5624
  321MOL0     C42247   5.081   9.134  10.849 -0.1270  0.5137 -0.4853
  321MOL0     O42248   5.156   9.250  10.854  0.5251 -0.0527 -0.0060
  321MOL0     C42249   5.283   9.237  10.913 -0.1549 -0.3742 -0.1133
  321MOL0     C42250   5.330   9.358  10.982  0.6211 -0.6754 -0.4693
  321MOL0     C42251   5.391   9.447  10.880 -0.5998  0.5964  0.1491
  321MOL0     C42252   5.421   9.587  10.935  0.7216 -0.1136  0.2786
  321MOL0     C42253   5.397   9.696  10.823 -0.2021 -0.8642 -0.1063
  321MOL0     C42254   5.495   9.684  10.703 -0.2425  0.1299  0.1715
  321MOL0     C42255   5.640   9.721  10.730 -0.1149 -0.4612 -0.8927
  321MOL0     C42256   5.652   9.876  10.755  0.1774  0.0498  1.0081
  321MOL0     N42257   5.778   9.902  10.834  0.3664  0.9293  0.1928
  321MOL0     C42258   5.904   9.917  10.782 -0.6207 -0.5249  0.1652
  321MOL0     C42259   5.983   9.949  10.888 -0.5322  0.6033  0.2708
  321MOL0     C42260   6.131   9.960  10.878  0.3502 -0.0339 -0.5529
  321MOL0     C42261   6.208   9.862  10.965 -0.1618 -0.7998  0.8368
  321MOL0     C42262   6.274   9.749  10.880  0.1887  0.1675 -0.1299
  321MOL0     C42263   6.359   9.684  10.992 -0.2001  0.8233 -1.0229
  321MOL0     O42264   6.447   9.580  10.933 -0.1835 -0.7294 -0.6316
  321MOL0     C42265   6.576   9.610  10.893 -0.0265  1.4825  0.0867
  321MOL0     C42266   6.625   9.516  10.810 -0.5817 -0.8016 -0.0941
  321MOL0     C42267   6.753   9.539  10.749  0.6910 -0.4729 -0.4850
  321MOL0     C42268   6.821   9.657  10.759  0.3280 -0.9548 -0.3325
  321MOL0     C42269   6.933   9.681  10.671  0.7839  0.5153 -0.5840
  321MOL0     O42270   7.015   9.579  10.642  0.6857  0.0869  0.2250
  321MOL0     C42271   7.115   9.582  10.551 -0.0969  0.6417  1.0918
  321MOL0     C42272   7.090   9.623  10.414 -0.2490  0.0416  1.1850
  321MOL0     C42273   7.203   9.640  10.325  0.1060  0.3354 -0.0487
  321MOL0     C42274   7.335   9.608  10.365 -0.6201 -0.1978 -0.5397
  321MOL0     O42275   7.446   9.597  10.279  0.5010 -0.4230  0.2915
  321MOL0     C42276   7.454   9.672  10.161 -0.8810  0.4971 -0.2820
  321MOL0     C42277   7.581   9.632  10.098 -1.0130 -0.7965 -0.1244
  321MOL0     C42278   7.701   9.721  10.141  0.1145 -0.5640  0.6793
  321MOL0     C42279   7.715   9.720  10.293  0.1244 -0.1070 -0.8179
  321MOL0     C42280   7.830   9.820  10.322 -0.5652  0.1171 -0.5909
  321MOL0     C42281   7.891   9.793  10.453 -0.4644 -0.5699  0.6652
  321MOL0     C42282   7.793   9.813  10.571 -0.3398 -0.2691 -0.4382
  321MOL0     C42283   7.750   9.962  10.572 -0.1264  0.7014 -0.4256
  321MOL0    Cl42284   7.623   9.961  10.697  0.4692  0.1447  0.6212
  321MOL0     C42285   7.356   9.554  10.496  0.3214  0.2281  0.3774
  321MOL0     C42286   7.249   9.538  10.587  0.5203 -0.5229 -0.1470
  321MOL0     O42287   6.953   9.797  10.643  0.3319 -0.4267  0.8784
  321MOL0     C42288   6.775   9.756  10.853  0.0594 -0.0407 -0.1299
  321MOL0     C42289   6.648   9.732  10.909 -1.1439  0.1421 -0.4051
  321MOL0     N42290   5.901   9.956  11.004  0.4525  0.7843  0.9580
  321MOL0     N42291   5.784   9.910  10.969 -0.3074 -0.1976 -0.3023
  321MOL0     C42292   4.949   9.155  10.814  0.4429 -0.6949 -0.0176
  321MOL0     C42293   4.847   9.062  10.804  0.8789  0.6329 -0.2690
  321MOL0     C42294   4.636   8.665  10.820  0.0311 -0.0045  0.8119
  321MOL0     C42295   4.524   8.633  10.900 -0.6168  0.3881 -0.4333
  321MOL0     C42296   4.450   8.524  10.877  0.3416  0.6686 -0.7010
  321MOL0     C42297   4.474   8.445  10.760 -0.0525 -0.1864  0.0409
  321MOL0     O42298   4.406   8.330  10.733  0.3015  0.2085  0.1310
  321MOL0     C42299   4.327   8.247  10.829  0.3609  0.4717  0.7911
  321MOL0     C42300   4.177   8.287  10.818 -0.0327  0.4012 -1.1591
  321MOL0     C42301   4.089   8.245  10.940 -0.0130  0.1361 -0.2199
  321MOL0     C42302   3.945   8.276  10.908  0.2397  0.6593  0.5855
  321MOL0     C42303   3.854   8.247  11.022  0.2229 -1.3097 -0.0767
  321MOL0     C42304   3.784   8.208  11.113 -1.0196 -0.9155  0.6068
  321MOL0     C42305   4.577   8.481  10.668 -0.0760  0.4362 -0.6007
  321MOL0     C42306   4.661   8.589  10.705  0.4475  0.6417 -0.2647
  321MOL0     H42307   5.067   8.807  10.798 -1.0185  1.0494 -2.3599
  321MOL0     H42308   5.231   8.998  10.874 -1.1657  2.0249  4.1888
  321MOL0     H42309   5.362   9.203  10.844  1.4921  0.6661  1.1916
  321MOL0     H42310   5.286   9.167  10.997 -1.1718 -2.1709 -1.5095
  321MOL0     H42311   5.404   9.337  11.059  0.4745 -0.9710 -0.4033
  321MOL0     H42312   5.245   9.413  11.024 -0.8941 -0.9951 -2.9030
  321MOL0     H42313   5.316   9.463  10.802  0.6983  4.9200 -0.4705
  321MOL0     H42314   5.486   9.406  10.845  0.0342  2.8967 -1.0116
  321MOL0     H42315   5.359   9.613  11.021 -0.4647  0.1957 -0.6397
  321MOL0     H42316   5.527   9.585  10.963  0.3083 -0.5550  1.8905
  321MOL0     H42317   5.400   9.793  10.872 -1.6910 -1.3868  1.0827
  321MOL0     H42318   5.299   9.673  10.781 -0.1728 -2.7473  0.7683
  321MOL0     H42319   5.450   9.743  10.623  0.9755 -2.0951 -2.3164
  321MOL0     H42320   5.501   9.578  10.674  2.4301  0.3270 -0.2593
  321MOL0     H42321   5.676   9.674  10.822 -0.4912 -0.4933 -0.7598
  321MOL0     H42322   5.709   9.686  10.652  0.9712 -3.1356  1.1211
  321MOL0     H42323   5.583   9.926  10.824 -1.3341  0.0208 -0.3969
  321MOL0     H42324   5.665   9.936  10.665  1.3793  0.3534  1.3746
  321MOL0     H42325   5.940   9.901  10.681 -1.2832 -1.5801  0.0845
  321MOL0     H42326   6.159  10.062  10.905 -0.9864  1.0116 -2.8260
  321MOL0     H42327   6.153   9.957  10.771  0.7611  2.8802 -0.6413
  321MOL0     H42328   6.136   9.816  11.034  0.5859  0.6545  2.6735
  321MOL0     H42329   6.282   9.924  11.015  0.5805  0.2016 -1.4134
  321MOL0     H42330   6.202   9.673  10.848  0.1190  0.2521 -0.1694
  321MOL0     H42331   6.347   9.793  10.812  3.1087 -3.1225  0.5394
  321MOL0     H42332   6.283   9.630  11.050 -0.9855 -0.5910 -3.2081
  321MOL0     H42333   6.402   9.757  11.061  1.0122  0.3918 -1.3016
  321MOL0     H42334   6.566   9.428  10.790 -1.6288 -0.5783  1.8106
  321MOL0     H42335   6.791   9.469  10.675 -1.4169 -2.1797 -0.0563
  321MOL0     H42336   6.985   9.632  10.385 -0.3904 -2.5465  0.6225
  321MOL0     H42337   7.173   9.638  10.221 -2.4655 -0.6339  0.6361
  321MOL0     H42338   7.462   9.780  10.175  1.0365  0.2717  0.6125
  321MOL0     H42339   7.373   9.632  10.099 -0.1218  1.4038 -1.9101
  321MOL0     H42340   7.584   9.646   9.990  3.9489  1.0311 -0.0157
  321MOL0     H42341   7.601   9.525  10.112 -1.6995 -0.9761 -0.5073
  321MOL0     H42342   7.684   9.825  10.113  0.7628 -0.4408  0.7219
  321MOL0     H42343   7.792   9.689  10.088  1.8171 -0.2243  3.2291
  321MOL0     H42344   7.621   9.754  10.340  0.8243 -0.0357  0.5779
  321MOL0     H42345   7.735   9.616  10.318 -2.4044 -0.4942 -0.1173
  321MOL0     H42346   7.782   9.917  10.311 -1.5657 -0.1759  0.8510
  321MOL0     H42347   7.912   9.807  10.250  1.1263  3.0199  0.6127
  321MOL0     H42348   7.974   9.865  10.460 -3.5140  3.4913 -0.6938
  321MOL0     H42349   7.934   9.693  10.457  2.1176  0.4681  1.0487
  321MOL0     H42350   7.705   9.749  10.564 -0.5687 -0.4584  2.7884
  321MOL0     H42351   7.841   9.792  10.667 -1.9647  1.7996  0.9152
  321MOL0     H42352   7.709   9.998  10.477 -0.4070  0.9863 -0.1985
  321MOL0     H42353   7.825  10.032  10.610 -1.7810  1.7540  1.0428
  321MOL0     H42354   7.459   9.526  10.517  1.4027  2.9820 -0.7331
  321MOL0     H42355   7.260   9.516  10.692 -1.3331  0.4130  0.2779
  321MOL0     H42356   6.840   9.842  10.868  0.5062 -0.1518 -1.3392
  321MOL0     H42357   6.593   9.800  10.973 -4.0674 -3.8428  1.7432
  321MOL0     H42358   4.920   9.259  10.818  0.0608 -0.8281  0.9551
  321MOL0     H42359   4.741   9.081  10.796  0.6113 -1.2679 -1.9030
  321MOL0     H42360   4.482   8.695  10.979 -0.2875  1.9132 -1.4064
  321MOL0     H42361   4.371   8.499  10.947  2.2506  3.6824  2.9383
  321MOL0     H42362   4.362   8.266  10.931  1.0318 -1.1864  0.9075
  321MOL0     H42363   4.336   8.143  10.797 -0.8089  0.6374 -0.1494
  321MOL0     H42364   4.163   8.396  10.823 -4.7003 -0.0135  0.4469
  321MOL0     H42365   4.136   8.248  10.724 -0.8907 -0.2858 -0.5154
  321MOL0     H42366   4.122   8.299  11.029  0.4287  2.2162 -1.5525
  321MOL0     H42367   4.088   8.140  10.968 -1.1615  0.4017  0.8532
  321MOL0     H42368   3.945   8.378  10.869  2.5487  0.1191 -0.9851
  321MOL0     H42369   3.929   8.205  10.826  0.3733  0.1666  0.9783
  321MOL0     H42370   3.720   8.181  11.194 -1.3551 -0.9966  0.3174
  321MOL0     H42371   4.595   8.420  10.579 -5.6455 -0.5217 -1.4419
  321MOL0     H42372   4.745   8.611  10.640 -0.1999  0.1820 -1.2935
  322MOL0     O42373   0.705   4.232   8.385 -0.3053 -0.3454 -0.1972
  322MOL0     C42374   0.660   4.250   8.274 -0.1479 -0.0740  0.5101
  322MOL0     O42375   0.729   4.246   8.153  0.4089  1.7356  0.2335
  322MOL0     C42376   0.865   4.224   8.158  0.2091 -0.3660  0.3878
  322MOL0     C42377   0.915   4.106   8.142  0.2800  0.4193 -0.2185
  322MOL0     C42378   1.048   4.077   8.159 -0.5702  0.5749  0.3694
  322MOL0     C42379   1.133   4.177   8.213  1.1837  1.2407  0.0533
  322MOL0     O42380   1.268   4.185   8.234 -0.8806  0.1214  0.3419
  322MOL0     C42381   1.349   4.064   8.224  0.5859 -0.3688  0.0114
  322MOL0     C42382   1.504   4.102   8.206  0.8212  0.2449 -0.5332
  322MOL0     C42383   1.582   3.970   8.200  0.0822 -0.6267  0.6768
  322MOL0     C42384   1.745   3.984   8.193 -0.3163 -0.0876 -0.3527
  322MOL0     C42385   1.782   4.035   8.057 -0.2145  0.5284  0.7796
  322MOL0     C42386   1.934   4.034   8.038  0.4107 -0.8674  0.8484
  322MOL0     C42387   1.964   4.114   7.916  0.2856 -0.6726  0.1915
  322MOL0     C42388   2.067   4.036   7.829 -0.4083 -0.3850  0.5531
  322MOL0     N42389   1.998   3.940   7.741  1.3044  0.3175 -0.4453
  322MOL0     C42390   1.934   3.971   7.626 -0.3168 -0.7313 -0.1804
  322MOL0     C42391   1.886   3.855   7.568  1.2790  0.4720  0.8263
  322MOL0     C42392   1.832   3.825   7.428 -0.4681  1.4365  0.3006
  322MOL0     C42393   1.727   3.713   7.414  0.4257  0.2264 -0.1265
  322MOL0     C42394   1.595   3.764   7.478  0.4937 -0.4789 -0.4960
  322MOL0     C42395   1.586   3.739   7.628  0.0013  0.8343  0.3082
  322MOL0     O42396   1.531   3.842   7.705 -0.0656  0.5801 -0.3101
  322MOL0     C42397   1.397   3.859   7.709 -0.1891  0.5847 -0.2882
  322MOL0     C42398   1.321   3.888   7.599  0.7149 -0.6862  0.3099
  322MOL0     C42399   1.178   3.907   7.621  0.1182  0.0587  0.2145
  322MOL0     C42400   1.128   3.912   7.754 -0.7756 -0.3844  0.1802
  322MOL0     C42401   0.989   3.931   7.793 -0.2742 -0.0560  0.1159
  322MOL0     O42402   0.902   3.961   7.687 -0.5194  0.0798 -0.1999
  322MOL0     C42403   0.788   4.024   7.704  0.5059 -1.1538 -0.0672
  322MOL0     C42404   0.729   4.080   7.596 -0.3092  0.0420  0.2570
  322MOL0     C42405   0.616   4.159   7.604  0.0671  0.2170  0.0685
  322MOL0     C42406   0.541   4.177   7.724 -0.4488 -0.4529 -0.5967
  322MOL0     O42407   0.426   4.259   7.715 -1.3496  0.2430  0.4531
  322MOL0     C42408   0.333   4.247   7.818 -0.1803 -0.1727 -0.0539
  322MOL0     C42409   0.198   4.287   7.769  0.6283  0.8095  0.8195
  322MOL0     C42410   0.125   4.170   7.697  0.4210 -0.3756  0.0306
  322MOL0     C42411  -0.032   4.205   7.696 -0.7984  0.1492  0.6551
  322MOL0     C42412  -0.108   4.168   7.825 -0.2661 -0.1651 -0.2637
  322MOL0     C42413  -0.252   4.221   7.811 -0.3494 -0.8469 -0.3710
  322MOL0     C42414  -0.346   4.183   7.932 -0.0198  0.3765  0.0226
  322MOL0     C42415  -0.404   4.302   7.998 -0.7431 -0.1451 -0.2897
  322MOL0    Cl42416  -0.465   4.422   7.872  0.1580 -0.0628 -0.1426
  322MOL0     C42417   0.599   4.119   7.836  0.1203 -1.1181 -0.5865
  322MOL0     C42418   0.721   4.044   7.830  0.2267 -0.7371 -0.9146
  322MOL0     O42419   0.955   3.907   7.915 -0.6140 -0.1056  0.2155
  322MOL0     C42420   1.217   3.903   7.860 -0.7657  0.1551 -0.8713
  322MOL0     C42421   1.350   3.866   7.837 -0.1633 -1.1883  0.6220
  322MOL0     N42422   1.938   3.756   7.643 -0.7689  0.3665 -0.4043
  322MOL0     N42423   1.991   3.807   7.747  0.1903 -0.3120 -0.7321
  322MOL0     C42424   1.076   4.303   8.234  0.1459  0.5311  0.5637
  322MOL0     C42425   0.944   4.332   8.203  0.5985 -0.4208 -0.3312
  322MOL0     C42426   0.520   4.270   8.267 -0.7512 -0.3299  0.7057
  322MOL0     C42427   0.472   4.363   8.166  0.0748 -0.1690 -0.7749
  322MOL0     C42428   0.333   4.364   8.143  0.2786  0.3585 -0.0965
  322MOL0     C42429   0.242   4.282   8.220 -0.1302 -0.3010 -0.3598
  322MOL0     O42430   0.105   4.292   8.229  0.1657  0.3932  0.1956
  322MOL0     C42431   0.052   4.429   8.233 -0.3185 -0.4066 -0.3307
  322MOL0     C42432  -0.102   4.412   8.257  0.3130 -0.2316  0.3425
  322MOL0     C42433  -0.183   4.546   8.261  0.7605  0.3473 -0.3620
  322MOL0     C42434  -0.331   4.548   8.323  0.0142 -1.6434 -0.3408
  322MOL0     C42435  -0.317   4.534   8.468 -0.4157 -0.4412 -0.1366
  322MOL0     C42436  -0.291   4.536   8.588 -0.1635 -0.3495 -0.2433
  322MOL0     C42437   0.295   4.204   8.332 -0.0236 -0.6291 -0.2721
  322MOL0     C42438   0.437   4.197   8.347 -0.3211  0.2070  0.4674
  322MOL0     H42439   0.846   4.031   8.104 -1.0905  2.2946 -1.6186
  322MOL0     H42440   1.082   3.980   8.123 -1.0642  0.1498  1.0252
  322MOL0     H42441   1.309   4.011   8.138 -3.0436  1.5486  0.3181
  322MOL0     H42442   1.332   3.998   8.309  3.9333  0.6781  1.6754
  322MOL0     H42443   1.531   4.142   8.304  4.5101  0.0974 -1.3493
  322MOL0     H42444   1.529   4.169   8.124  2.1830 -1.4538 -1.5960
  322MOL0     H42445   1.536   3.914   8.118 -2.4212  2.6578 -0.3994
  322MOL0     H42446   1.559   3.916   8.292 -4.2347 -0.6294 -0.2141
  322MOL0     H42447   1.797   4.043   8.269  0.1905  1.7190 -2.0204
  322MOL0     H42448   1.781   3.880   8.202  2.3975  0.5584 -2.2930
  322MOL0     H42449   1.736   4.134   8.047 -2.1394 -0.2357  1.6794
  322MOL0     H42450   1.737   3.972   7.980 -2.1285 -0.2894  2.4899
  322MOL0     H42451   1.983   3.936   8.033  0.2927 -0.8736 -2.5295
  322MOL0     H42452   1.984   4.081   8.124  0.1731 -1.2427  1.1934
  322MOL0     H42453   1.875   4.131   7.854 -0.3178  1.6192  1.5880
  322MOL0     H42454   2.005   4.211   7.945 -2.0956  0.4057  0.1857
  322MOL0     H42455   2.145   3.982   7.882  2.7356 -0.0526 -3.2712
  322MOL0     H42456   2.122   4.106   7.765  1.1595 -0.8774  1.3203
  322MOL0     H42457   1.926   4.071   7.584  0.7259 -0.0029  1.2666
  322MOL0     H42458   1.916   3.799   7.363 -0.3753 -0.6495  1.1646
  322MOL0     H42459   1.800   3.917   7.380  0.4261  0.0135 -3.3451
  322MOL0     H42460   1.757   3.617   7.458 -2.3615 -1.5549 -1.7946
  322MOL0     H42461   1.708   3.700   7.307 -4.0157  0.3317  0.4643
  322MOL0     H42462   1.575   3.871   7.464  2.7928  0.3874  1.9569
  322MOL0     H42463   1.510   3.725   7.421 -0.5163  1.5063 -0.4118
  322MOL0     H42464   1.682   3.738   7.680 -0.3983 -1.9141  1.1856
  322MOL0     H42465   1.528   3.649   7.651  0.1113  1.0508  1.4898
  322MOL0     H42466   1.353   3.900   7.496 -0.5508  1.2199  0.0868
  322MOL0     H42467   1.113   3.929   7.537 -1.9956  3.1117  2.4251
  322MOL0     H42468   0.773   4.064   7.498 -2.3934  0.6992 -0.8468
  322MOL0     H42469   0.575   4.210   7.518  1.6237  1.5787  0.0869
  322MOL0     H42470   0.364   4.322   7.893 -0.2529 -0.3233  0.1274
  322MOL0     H42471   0.330   4.148   7.864  2.6129 -0.6790 -0.7446
  322MOL0     H42472   0.201   4.369   7.697  1.7168 -1.9349 -2.5562
  322MOL0     H42473   0.150   4.318   7.862  1.5762 -0.7113  1.8751
  322MOL0     H42474   0.138   4.072   7.744 -1.4121 -2.0583 -2.7259
  322MOL0     H42475   0.165   4.158   7.596  1.5309 -0.0772  0.4109
  322MOL0     H42476  -0.052   4.308   7.665 -0.5888  0.2267  0.7784
  322MOL0     H42477  -0.058   4.137   7.614  3.6590  0.6263 -1.4507
  322MOL0     H42478  -0.061   4.199   7.918  1.5308 -2.2564 -0.4142
  322MOL0     H42479  -0.117   4.059   7.828 -1.8933 -0.0452  0.6149
  322MOL0     H42480  -0.282   4.188   7.712 -0.4238  3.2947 -1.9454
  322MOL0     H42481  -0.244   4.330   7.816  1.4403 -0.9958  1.2271
  322MOL0     H42482  -0.428   4.116   7.907  0.9998 -1.0208  0.2873
  322MOL0     H42483  -0.291   4.113   7.996 -0.9160 -0.3117  0.0608
  322MOL0     H42484  -0.339   4.340   8.077 -2.3283 -1.8987  2.0045
  322MOL0     H42485  -0.484   4.263   8.062 -1.6110  3.0564  0.7486
  322MOL0     H42486   0.558   4.116   7.936  4.2173 -1.4829  1.3023
  322MOL0     H42487   0.752   4.017   7.931  1.6242  0.0376 -1.1059
  322MOL0     H42488   1.181   3.936   7.957  0.9800  2.5196 -0.9451
  322MOL0     H42489   1.411   3.856   7.927 -1.4971  5.7055  2.9817
  322MOL0     H42490   1.143   4.378   8.274  2.0290 -0.5764 -0.3509
  322MOL0     H42491   0.907   4.433   8.215  0.0869 -0.4464 -1.5083
  322MOL0     H42492   0.533   4.423   8.099  1.8097 -0.6983  0.2780
  322MOL0     H42493   0.302   4.435   8.066 -0.1894  1.3673  0.9943
  322MOL0     H42494   0.070   4.485   8.141  1.4482  1.5039  1.0942
  322MOL0     H42495   0.097   4.481   8.318 -1.9524  3.8407 -1.8011
  322MOL0     H42496  -0.139   4.349   8.176  0.4578 -0.4673  0.4576
  322MOL0     H42497  -0.119   4.356   8.349  0.9662 -1.3121 -0.1656
  322MOL0     H42498  -0.192   4.584   8.159  0.0192  1.7071  0.1881
  322MOL0     H42499  -0.127   4.623   8.314 -2.3795  0.4636  3.1852
  322MOL0     H42500  -0.371   4.650   8.312  2.5648 -0.2985  1.6968
  322MOL0     H42501  -0.400   4.482   8.270 -0.0670  0.4518 -3.0916
  322MOL0     H42502  -0.256   4.525   8.689  0.6802  0.1768 -0.4644
  322MOL0     H42503   0.229   4.161   8.407  0.4441  3.1226  2.5947
  322MOL0     H42504   0.479   4.135   8.425 -0.8367  1.9323  2.1894
  323MOL0     O42505   2.744   0.327   6.902 -0.0193 -0.4605 -0.0314
  323MOL0     C42506   2.793   0.283   6.997  0.2963  0.0781  0.2914
  323MOL0     O42507   2.721   0.214   7.096 -0.0753 -1.4631  0.0661
  323MOL0     C42508   2.594   0.183   7.090 -0.1604 -0.6210  0.6224
  323MOL0     C42509   2.531   0.173   7.220 -0.3390  0.0486 -0.8969
  323MOL0     C42510   2.395   0.153   7.237 -0.8104 -0.1045 -0.4183
  323MOL0     C42511   2.316   0.132   7.126  0.3840 -0.9321 -0.0089
  323MOL0     O42512   2.176   0.104   7.145 -0.8195  0.0651  0.6533
  323MOL0     C42513   2.131   0.045   7.269  0.0515 -0.4479 -0.3377
  323MOL0     C42514   2.047  -0.084   7.251  0.7157  0.6272  0.6119
  323MOL0     C42515   1.907  -0.070   7.175  0.7582  0.0558  0.0196
  323MOL0     C42516   1.850  -0.218   7.166 -0.4393  0.1941 -0.2743
  323MOL0     C42517   1.713  -0.220   7.083  0.2763  0.3029  0.3761
  323MOL0     C42518   1.659  -0.363   7.061 -0.0756 -0.6422 -0.0718
  323MOL0     C42519   1.511  -0.343   7.034  0.3404 -0.0738 -0.5033
  323MOL0     C42520   1.440  -0.479   7.001  0.1814  0.2676  0.5511
  323MOL0     N42521   1.304  -0.451   6.965 -0.4712 -0.0214 -0.6844
  323MOL0     C42522   1.248  -0.444   6.840 -0.4635 -0.1256  0.2684
  323MOL0     C42523   1.113  -0.454   6.856 -1.0813 -0.4837 -0.3055
  323MOL0     C42524   1.025  -0.421   6.737 -0.4209  0.7780 -0.5693
  323MOL0     C42525   0.884  -0.399   6.799  0.2827  0.5423  0.5050
  323MOL0     C42526   0.790  -0.409   6.684  1.0637  0.0266  1.1329
  323MOL0     C42527   0.762  -0.281   6.604 -0.2474  0.3123 -0.4770
  323MOL0     O42528   0.657  -0.304   6.509 -0.4463 -0.2512 -0.2195
  323MOL0     C42529   0.527  -0.282   6.549  0.2697  0.0288  0.0304
  323MOL0     C42530   0.490  -0.233   6.677  0.0699  0.0087 -0.0630
  323MOL0     C42531   0.356  -0.208   6.703  0.4324 -0.0113  0.4722
  323MOL0     C42532   0.256  -0.243   6.612 -0.2709  1.3173 -0.3823
  323MOL0     C42533   0.116  -0.232   6.656 -0.1655  0.6391  0.1014
  323MOL0     O42534   0.031  -0.233   6.552  0.6762  0.0728 -0.2180
  323MOL0     C42535  -0.103  -0.229   6.577  0.1194 -0.3140  0.6925
  323MOL0     C42536  -0.174  -0.120   6.517 -0.6430  0.1352  0.4466
  323MOL0     C42537  -0.305  -0.090   6.542 -0.1841  0.5595  0.8113
  323MOL0     C42538  -0.380  -0.188   6.613 -0.3852 -0.8101  0.1861
  323MOL0     O42539  -0.510  -0.164   6.658 -0.4724 -0.3958  0.7435
  323MOL0     C42540  -0.603  -0.102   6.571  0.5370  0.1895  0.1308
  323MOL0     C42541  -0.729  -0.090   6.655  0.4940  0.2402  0.1969
  323MOL0     C42542  -0.782  -0.213   6.730  0.5213  0.2180  0.0734
  323MOL0     C42543  -0.915  -0.186   6.809 -0.0300  0.0346  0.3027
  323MOL0     C42544  -1.028  -0.287   6.809  0.1677  0.3430 -0.8864
  323MOL0     C42545  -0.987  -0.417   6.891 -0.0067 -0.7465  0.0336
  323MOL0     C42546  -1.094  -0.534   6.895 -0.0761  0.2968  0.6488
  323MOL0     C42547  -1.206  -0.511   6.998 -0.6343 -0.4871 -0.4395
  323MOL0    Cl42548  -1.292  -0.360   6.973 -0.5964  0.4357 -0.2505
  323MOL0     C42549  -0.320  -0.307   6.661  1.3149 -1.3258 -0.1743
  323MOL0     C42550  -0.176  -0.329   6.651 -0.7216  0.1987  0.7154
  323MOL0     O42551   0.085  -0.213   6.771  0.3309  0.2729 -0.1938
  323MOL0     C42552   0.288  -0.283   6.475  0.8825  0.0511  1.0046
  323MOL0     C42553   0.427  -0.302   6.452  0.5579  0.6631 -0.2858
  323MOL0     N42554   1.097  -0.475   6.992  0.0443  0.3980 -0.0608
  323MOL0     N42555   1.211  -0.483   7.057  0.5847 -0.0633 -1.1970
  323MOL0     C42556   2.378   0.138   6.999 -0.7371  0.7758  0.1184
  323MOL0     C42557   2.515   0.156   6.975 -0.3530 -0.3764 -0.0396
  323MOL0     C42558   2.937   0.297   7.017 -0.5425 -0.2766 -0.0197
  323MOL0     C42559   3.030   0.321   6.909  0.7493 -0.0174  0.3513
  323MOL0     C42560   3.169   0.315   6.938 -0.5442 -1.1023  0.4476
  323MOL0     C42561   3.208   0.320   7.069 -1.0776 -0.2300  0.5312
  323MOL0     O42562   3.347   0.350   7.084  0.6368 -0.4875  0.3793
  323MOL0     C42563   3.421   0.296   7.196  0.7219 -0.6641 -0.7095
  323MOL0     C42564   3.566   0.264   7.170  0.7120  0.0786 -0.3466
  323MOL0     C42565   3.595   0.171   7.043 -0.5857  0.2209 -0.3113
  323MOL0     C42566   3.733   0.108   7.064  0.4491 -0.9560  0.2687
  323MOL0     C42567   3.733   0.011   7.183  0.0089  1.6690 -0.2484
  323MOL0     C42568   3.711  -0.064   7.273 -0.3247 -0.2722 -0.2195
  323MOL0     C42569   3.120   0.287   7.167  0.0601 -0.6671  0.1952
  323MOL0     C42570   2.983   0.284   7.147 -0.2012 -0.0407 -0.4551
  323MOL0     H42571   2.588   0.205   7.307 -3.1208 -0.8853  1.4444
  323MOL0     H42572   2.363   0.133   7.339 -0.4698 -0.2588 -0.3376
  323MOL0     H42573   2.090   0.117   7.340  0.7288 -2.9716  2.8648
  323MOL0     H42574   2.211   0.001   7.328 -0.2169 -1.7135 -0.8767
  323MOL0     H42575   2.019  -0.131   7.345 -3.8483 -0.0630 -0.8311
  323MOL0     H42576   2.100  -0.161   7.196 -2.5580 -0.6109 -1.0885
  323MOL0     H42577   1.917  -0.010   7.084  1.1162  2.3403  1.4774
  323MOL0     H42578   1.846  -0.003   7.237  0.2375 -1.6016  1.3828
  323MOL0     H42579   1.929  -0.277   7.119  1.4095  3.2999 -1.3529
  323MOL0     H42580   1.831  -0.271   7.260 -1.2382  1.3235  0.2296
  323MOL0     H42581   1.719  -0.166   6.988  0.8836  1.2708  0.9438
  323MOL0     H42582   1.635  -0.180   7.149 -0.9049 -2.9724  1.1621
  323MOL0     H42583   1.681  -0.424   7.149 -0.1817  1.6838  1.6526
  323MOL0     H42584   1.706  -0.408   6.973 -1.6087 -2.3355 -0.0823
  323MOL0     H42585   1.466  -0.307   7.127 -1.7063 -1.1972 -0.9971
  323MOL0     H42586   1.500  -0.283   6.943 -0.9247  1.1120  0.3927
  323MOL0     H42587   1.442  -0.548   7.086  1.9205 -2.5545 -1.5916
  323MOL0     H42588   1.485  -0.537   6.920 -3.8286 -2.8682  0.3185
  323MOL0     H42589   1.305  -0.442   6.748  1.4172 -0.9628  1.3754
  323MOL0     H42590   1.038  -0.512   6.678 -2.8763 -0.6329  0.8976
  323MOL0     H42591   1.064  -0.333   6.685  3.5442 -0.3724  0.1344
  323MOL0     H42592   0.888  -0.302   6.850  3.4535 -1.4201  4.6597
  323MOL0     H42593   0.850  -0.470   6.875  2.1586 -1.1368 -0.1485
  323MOL0     H42594   0.827  -0.482   6.612  3.8867  1.8326  0.5683
  323MOL0     H42595   0.699  -0.435   6.738  1.2438  2.7594  2.9495
  323MOL0     H42596   0.861  -0.275   6.558  1.7371 -1.4706  3.1300
  323MOL0     H42597   0.744  -0.194   6.667 -4.4959 -2.2399  2.4199
  323MOL0     H42598   0.557  -0.209   6.758 -2.6864 -2.4680  3.2318
  323MOL0     H42599   0.322  -0.183   6.803 -0.3258 -2.9381  1.0531
  323MOL0     H42600  -0.109  -0.051   6.465  0.4647  1.4452  3.3618
  323MOL0     H42601  -0.331   0.005   6.497  1.3541  1.7802  2.3842
  323MOL0     H42602  -0.610  -0.156   6.476  0.8927 -1.5769  1.0602
  323MOL0     H42603  -0.559  -0.004   6.552 -3.0810  1.5249 -2.6625
  323MOL0     H42604  -0.808  -0.049   6.592 -0.0696  1.1950  1.4861
  323MOL0     H42605  -0.716  -0.014   6.732  2.4292 -1.4917  1.7054
  323MOL0     H42606  -0.707  -0.242   6.804 -0.7333  0.7486  1.6103
  323MOL0     H42607  -0.807  -0.294   6.661  1.4225  0.3277 -0.4015
  323MOL0     H42608  -0.880  -0.172   6.912 -0.6363 -2.9717  1.0221
  323MOL0     H42609  -0.967  -0.098   6.770 -1.6254 -0.8694  0.3312
  323MOL0     H42610  -1.057  -0.320   6.708 -2.4961 -2.5816  0.6799
  323MOL0     H42611  -1.118  -0.243   6.852  2.4580  2.6034  2.0961
  323MOL0     H42612  -0.978  -0.392   6.997  1.5608  1.9177 -0.6314
  323MOL0     H42613  -0.886  -0.446   6.860 -0.6230 -0.4175 -2.5327
  323MOL0     H42614  -1.127  -0.560   6.795 -1.9170 -1.1666  1.5674
  323MOL0     H42615  -1.039  -0.622   6.932  1.6378  0.4581 -1.3349
  323MOL0     H42616  -1.167  -0.498   7.100 -1.1246  0.2688 -0.3396
  323MOL0     H42617  -1.282  -0.589   6.998  1.0349 -2.3224 -3.7989
  323MOL0     H42618  -0.370  -0.376   6.728  1.8371 -0.2122  1.3912
  323MOL0     H42619  -0.125  -0.410   6.702  1.3176 -0.3370 -1.9832
  323MOL0     H42620   0.212  -0.284   6.398  1.5371 -1.2005  0.3269
  323MOL0     H42621   0.452  -0.328   6.350  1.0044  1.8122 -0.4733
  323MOL0     H42622   2.308   0.116   6.919  0.4134  1.2603 -1.0642
  323MOL0     H42623   2.550   0.148   6.873 -1.9075 -0.6803 -0.5705
  323MOL0     H42624   2.983   0.326   6.811  0.4185 -0.2118  0.4994
  323MOL0     H42625   3.239   0.340   6.859  0.9504 -0.1445  2.0196
  323MOL0     H42626   3.377   0.209   7.246  1.5637 -0.6193  0.1315
  323MOL0     H42627   3.408   0.374   7.271 -0.6050 -1.7849  0.2659
  323MOL0     H42628   3.623   0.355   7.147 -2.2417  2.0065 -0.4895
  323MOL0     H42629   3.609   0.237   7.267 -1.2726  9.0881  4.1383
  323MOL0     H42630   3.597   0.238   6.957 -2.6696 -0.5732 -1.0567
  323MOL0     H42631   3.512   0.100   7.031 -0.9058  0.0743  2.2725
  323MOL0     H42632   3.764   0.067   6.968  0.0272 -0.4409 -0.0930
  323MOL0     H42633   3.797   0.194   7.085 -1.8102  0.2566  2.6586
  323MOL0     H42634   3.707  -0.140   7.349 -0.0116  1.4245  1.5790
  323MOL0     H42635   3.163   0.280   7.267 -0.4840  0.6485  0.5450
  323MOL0     H42636   2.915   0.254   7.226  2.9142  0.9017  2.8090
  324MOL0     O42637  11.395   0.412   2.827 -0.5681 -0.1710 -0.3655
  324MOL0     C42638  11.465   0.512   2.847 -0.1308 -0.6356 -0.5617
  324MOL0     O42639  11.428   0.619   2.930  0.9871 -0.2470 -0.0159
  324MOL0     C42640  11.308   0.615   2.995 -0.3868 -0.2459 -0.3651
  324MOL0     C42641  11.290   0.540   3.119  0.1010 -0.1957 -0.7967
  324MOL0     C42642  11.173   0.544   3.178  0.9210  0.7800 -0.1787
  324MOL0     C42643  11.066   0.622   3.130 -0.4232  0.3843 -0.9800
  324MOL0     O42644  10.946   0.613   3.190  0.1882 -0.2864 -0.2611
  324MOL0     C42645  10.842   0.695   3.149  0.6012  0.0187 -0.4147
  324MOL0     C42646  10.723   0.656   3.236  1.3536  0.1194  0.5938
  324MOL0     C42647  10.597   0.733   3.183 -0.4715 -0.0236 -0.3500
  324MOL0     C42648  10.583   0.869   3.235 -0.4196 -0.1349 -0.9383
  324MOL0     C42649  10.496   0.944   3.132  0.3260  0.0330  0.3562
  324MOL0     C42650  10.425   1.063   3.192 -0.5801 -0.0937 -0.1576
  324MOL0     C42651  10.365   1.149   3.078  0.4409  1.0480 -0.2629
  324MOL0     C42652  10.272   1.267   3.141 -0.0613  0.1162  0.1279
  324MOL0     N42653  10.345   1.349   3.245 -0.0074  0.9518  0.1179
  324MOL0     C42654  10.422   1.457   3.224 -0.0043  1.1200 -0.1363
  324MOL0     C42655  10.453   1.510   3.341  0.2640  0.7500 -1.1807
  324MOL0     C42656  10.545   1.615   3.382 -0.6209  0.4381 -0.9192
  324MOL0     C42657  10.692   1.581   3.351  1.1831 -0.3414 -0.5167
  324MOL0     C42658  10.752   1.447   3.422 -0.2318 -0.2302  0.2860
  324MOL0     C42659  10.769   1.459   3.572  0.4229 -0.4462  0.1571
  324MOL0     O42660  10.883   1.542   3.598  0.5330 -0.5033  0.2991
  324MOL0     C42661  11.007   1.485   3.576 -0.2774 -0.0858  0.1832
  324MOL0     C42662  11.116   1.575   3.560 -0.0851  0.8257 -0.0060
  324MOL0     C42663  11.243   1.529   3.532  0.4011 -0.0813  0.1955
  324MOL0     C42664  11.272   1.393   3.500  0.2586  0.3733 -1.4118
  324MOL0     C42665  11.408   1.350   3.482  0.3235 -0.5402 -0.0740
  324MOL0     O42666  11.512   1.447   3.507  0.2264  0.0435 -0.7272
  324MOL0     C42667  11.622   1.437   3.437  0.6756 -0.2754 -0.0695
  324MOL0     C42668  11.736   1.472   3.504 -1.2236 -0.1309  0.3018
  324MOL0     C42669  11.858   1.462   3.439  0.2815  0.0387 -0.7648
  324MOL0     C42670  11.867   1.429   3.309 -0.6445  0.2240  0.2307
  324MOL0     O42671  12.000   1.422   3.245  0.8064  0.4057 -0.1847
  324MOL0     C42672  12.095   1.524   3.273  0.6023 -0.4234  0.3178
  324MOL0     C42673  12.185   1.537   3.161 -0.1082 -0.9109  0.3014
  324MOL0     C42674  12.285   1.422   3.156 -0.2772 -0.6725 -0.1250
  324MOL0     C42675  12.412   1.458   3.235 -0.7072 -1.0913 -0.2644
  324MOL0     C42676  12.508   1.336   3.241 -0.4461 -0.2063 -0.2501
  324MOL0     C42677  12.553   1.274   3.113 -0.8793  0.0645  0.2440
  324MOL0     C42678  12.644   1.363   3.029 -0.1005 -0.8541 -0.1512
  324MOL0     C42679  12.692   1.288   2.899 -0.3158 -0.2598 -0.1629
  324MOL0    Cl42680  12.728   1.404   2.757  0.0359  0.5220 -0.4159
  324MOL0     C42681  11.751   1.401   3.238  0.2011  0.2405  0.1054
  324MOL0     C42682  11.631   1.400   3.300  0.8747 -0.5632  1.1647
  324MOL0     O42683  11.430   1.239   3.441 -0.2410 -0.2013  0.1439
  324MOL0     C42684  11.161   1.295   3.524  0.8043  0.6023  0.1909
  324MOL0     C42685  11.032   1.345   3.567 -0.1887  0.4111  0.2661
  324MOL0     N42686  10.371   1.438   3.438  0.4386  0.1366  0.3622
  324MOL0     N42687  10.310   1.348   3.375  0.3044  0.0049 -0.3343
  324MOL0     C42688  11.082   0.694   3.014  0.6031 -0.1041  0.8904
  324MOL0     C42689  11.203   0.677   2.934 -0.0277 -0.2430  0.2204
  324MOL0     C42690  11.597   0.505   2.785 -0.5840 -0.5990 -0.5964
  324MOL0     C42691  11.636   0.398   2.695 -0.6937  0.2879 -0.2384
  324MOL0     C42692  11.757   0.400   2.632  0.4043  0.6350  1.5344
  324MOL0     C42693  11.850   0.497   2.663  0.4082 -0.9225  1.1278
  324MOL0     O42694  11.958   0.526   2.584  0.7795  0.0406 -0.1873
  324MOL0     C42695  12.020   0.425   2.512  0.1731  0.4695  0.9587
  324MOL0     C42696  12.167   0.463   2.477 -0.6015  0.0791  0.6956
  324MOL0     C42697  12.258   0.443   2.602  0.2557 -0.2489  0.9301
  324MOL0     C42698  12.389   0.518   2.597  0.0028 -0.7070 -0.6094
  324MOL0     C42699  12.472   0.477   2.496  0.4162  0.4014  0.3286
  324MOL0     C42700  12.541   0.462   2.399  0.0341  1.2967  1.1311
  324MOL0     C42701  11.821   0.595   2.750  0.1317  0.0421  0.1982
  324MOL0     C42702  11.704   0.599   2.823  0.0239  0.4144 -0.0073
  324MOL0     H42703  11.374   0.489   3.165  0.1600 -1.9002 -2.6352
  324MOL0     H42704  11.154   0.477   3.261  3.2942 -1.1167 -1.0460
  324MOL0     H42705  10.826   0.684   3.042 -0.1698  0.0853 -0.3085
  324MOL0     H42706  10.856   0.803   3.162  2.5455  0.0867 -2.5020
  324MOL0     H42707  10.724   0.669   3.344  0.1615 -0.1673  0.6555
  324MOL0     H42708  10.723   0.546   3.231  2.3025  0.0247  2.1174
  324MOL0     H42709  10.511   0.672   3.212  0.0750 -1.1261 -0.9754
  324MOL0     H42710  10.592   0.737   3.074 -0.9581  2.3988 -0.2933
  324MOL0     H42711  10.529   0.867   3.330 -0.6529  2.0807 -0.9737
  324MOL0     H42712  10.677   0.923   3.241 -3.3978  5.9293 -1.2193
  324MOL0     H42713  10.422   0.881   3.081  1.2970  1.0486 -2.5137
  324MOL0     H42714  10.561   0.989   3.057  0.0469 -0.1150  0.0204
  324MOL0     H42715  10.492   1.122   3.254  1.8124 -2.3880 -0.3698
  324MOL0     H42716  10.344   1.026   3.255  0.2257  0.2834  1.1301
  324MOL0     H42717  10.444   1.179   3.010  0.8523 -1.1288 -0.8097
  324MOL0     H42718  10.306   1.073   3.025 -0.9214  2.4265 -0.8182
  324MOL0     H42719  10.181   1.221   3.182  0.4639  1.1531  2.6273
  324MOL0     H42720  10.262   1.345   3.065 -0.3761  0.2568  0.3101
  324MOL0     H42721  10.465   1.487   3.129  3.0025  0.7980  1.0241
  324MOL0     H42722  10.541   1.636   3.490  3.2790 -0.7752 -0.3704
  324MOL0     H42723  10.518   1.706   3.328 -2.1612  0.1101 -0.7444
  324MOL0     H42724  10.758   1.668   3.345  0.7985 -0.1386 -3.7418
  324MOL0     H42725  10.684   1.559   3.244 -1.1301  0.4195 -0.5354
  324MOL0     H42726  10.680   1.365   3.409 -2.0913 -0.1279  6.7470
  324MOL0     H42727  10.851   1.427   3.380  0.2354  4.6781 -1.5600
  324MOL0     H42728  10.775   1.362   3.623 -1.3255  0.6045  2.4849
  324MOL0     H42729  10.686   1.506   3.625  0.3677  1.2849 -1.3559
  324MOL0     H42730  11.113   1.682   3.577 -2.2903  1.1005 -1.7412
  324MOL0     H42731  11.320   1.604   3.546  1.2577 -0.3657 -2.4373
  324MOL0     H42732  11.741   1.496   3.610  0.2990 -0.4905  0.3312
  324MOL0     H42733  11.940   1.497   3.502 -0.5218  0.2250  0.2088
  324MOL0     H42734  12.158   1.490   3.356  1.7953 -1.3374 -0.9196
  324MOL0     H42735  12.060   1.628   3.278  4.4113  1.3999 -3.6003
  324MOL0     H42736  12.241   1.631   3.163 -2.6243  0.6605  1.0568
  324MOL0     H42737  12.121   1.542   3.073 -0.9678 -1.4631  0.8824
  324MOL0     H42738  12.323   1.391   3.058  0.9727 -4.1690  1.2746
  324MOL0     H42739  12.232   1.337   3.202 -1.2438  0.4040  0.8222
  324MOL0     H42740  12.469   1.541   3.193 -0.8905 -1.8114 -2.0048
  324MOL0     H42741  12.384   1.496   3.334  0.3741 -0.5285 -0.1542
  324MOL0     H42742  12.448   1.255   3.283 -1.8764  1.1210  0.3964
  324MOL0     H42743  12.598   1.347   3.302 -0.4986  4.1646 -0.6152
  324MOL0     H42744  12.465   1.235   3.061 -2.6415 -0.3133  3.2917
  324MOL0     H42745  12.610   1.185   3.140  1.4379  1.2359 -0.5235
  324MOL0     H42746  12.592   1.449   2.986 -2.6574 -2.2318  0.0215
  324MOL0     H42747  12.722   1.408   3.091  0.4835  1.1312 -2.1872
  324MOL0     H42748  12.613   1.216   2.876 -0.6340 -1.1019  3.0442
  324MOL0     H42749  12.784   1.232   2.919  2.2649  2.1022 -4.1618
  324MOL0     H42750  11.751   1.405   3.130 -2.5205  1.3493  0.0597
  324MOL0     H42751  11.545   1.378   3.237  0.1674  2.0145  1.1391
  324MOL0     H42752  11.177   1.189   3.540  0.1393  0.2845 -1.1545
  324MOL0     H42753  10.953   1.273   3.585  0.2011 -0.1808 -0.3767
  324MOL0     H42754  11.015   0.755   2.954  2.4520 -1.1061 -2.4278
  324MOL0     H42755  11.211   0.716   2.833  1.3003 -0.1691  0.3269
  324MOL0     H42756  11.572   0.324   2.649  0.2063  0.3704 -1.6869
  324MOL0     H42757  11.763   0.329   2.550 -1.3271 -0.0199  1.9308
  324MOL0     H42758  11.965   0.417   2.418  1.8752 -0.5550  0.0028
  324MOL0     H42759  12.013   0.330   2.567  0.8970 -0.5527 -0.6345
  324MOL0     H42760  12.203   0.407   2.390 -1.6341  1.5216 -0.7175
  324MOL0     H42761  12.162   0.569   2.449  2.2028  0.1721  0.2393
  324MOL0     H42762  12.283   0.339   2.624 -0.3970 -0.1092  2.4456
  324MOL0     H42763  12.202   0.493   2.682 -1.7549 -0.8858 -0.0100
  324MOL0     H42764  12.364   0.623   2.583  1.9364  0.0383  1.0165
  324MOL0     H42765  12.441   0.500   2.692  0.2142 -3.7822 -1.1823
  324MOL0     H42766  12.593   0.423   2.314  0.4784 -0.2549  2.0880
  324MOL0     H42767  11.887   0.679   2.768  0.7481 -0.3975 -0.0040
  324MOL0     H42768  11.693   0.680   2.894 -2.7591  0.7217 -0.6902
  325MOL0     O42769   2.558   7.717   6.161  0.2766 -0.8878  0.3840
  325MOL0     C42770   2.538   7.737   6.039  0.5104 -0.3759  0.1598
  325MOL0     O42771   2.445   7.822   5.986 -0.7169  0.5832 -0.6638
  325MOL0     C42772   2.375   7.919   6.056 -0.8788  0.2510  0.4558
  325MOL0     C42773   2.410   7.950   6.187 -0.1285  0.1284 -0.4103
  325MOL0     C42774   2.333   8.037   6.252  1.4120 -0.0481 -0.0894
  325MOL0     C42775   2.223   8.098   6.195  0.6213  1.0084  0.8267
  325MOL0     O42776   2.153   8.181   6.276 -0.8417  0.8153  0.0735
  325MOL0     C42777   2.101   8.294   6.218  0.0281 -0.3530  1.3808
  325MOL0     C42778   2.078   8.401   6.322 -0.4180 -0.4171  0.0715
  325MOL0     C42779   2.048   8.533   6.247  0.3190  0.6098  0.1458
  325MOL0     C42780   1.981   8.631   6.332  0.5106 -0.1481 -0.2836
  325MOL0     C42781   1.975   8.763   6.265 -0.6514 -0.5600  0.4528
  325MOL0     C42782   1.908   8.870   6.352  0.1541  0.1987 -0.3134
  325MOL0     C42783   1.895   9.003   6.284 -0.8907 -0.3072  0.4357
  325MOL0     C42784   1.788   9.087   6.349 -0.6660  0.3091 -0.4963
  325MOL0     N42785   1.807   9.227   6.347 -0.1068 -0.2909 -0.1433
  325MOL0     C42786   1.829   9.296   6.232 -0.1853  0.3057 -0.6470
  325MOL0     C42787   1.815   9.427   6.282 -0.4480 -0.0559  0.4583
  325MOL0     C42788   1.818   9.555   6.202 -0.0164 -0.1730 -0.8560
  325MOL0     C42789   1.950   9.633   6.177  0.2993  0.5520 -0.3279
  325MOL0     C42790   2.070   9.577   6.087 -0.2480  0.1425 -0.2882
  325MOL0     C42791   2.129   9.443   6.129 -1.0573 -0.0608  0.0501
  325MOL0     O42792   2.071   9.342   6.047  0.1659 -0.0943 -0.0577
  325MOL0     C42793   2.126   9.216   6.037 -0.6745  0.3652 -1.0970
  325MOL0     C42794   2.237   9.172   6.112 -0.3627 -0.4643  0.0311
  325MOL0     C42795   2.283   9.040   6.095 -0.3658  1.1775  0.5419
  325MOL0     C42796   2.220   8.952   6.005  0.6686  1.0778  0.6820
  325MOL0     C42797   2.264   8.806   5.970 -0.1449 -0.1286  0.1203
  325MOL0     O42798   2.360   8.764   6.052  0.3613  0.7301 -0.4087
  325MOL0     C42799   2.434   8.656   6.019  1.2706 -0.5790  0.4752
  325MOL0     C42800   2.564   8.668   6.003 -0.4752 -0.1134  0.3044
  325MOL0     C42801   2.643   8.545   5.990 -0.6311 -0.0913  0.1699
  325MOL0     C42802   2.585   8.420   5.987  0.4127  0.2558 -0.5143
  325MOL0     O42803   2.667   8.312   5.983 -0.7049 -0.2243 -0.1170
  325MOL0     C42804   2.612   8.191   6.047 -0.3365 -0.5346  0.1113
  325MOL0     C42805   2.723   8.078   6.053  0.4927 -0.0027  0.1341
  325MOL0     C42806   2.746   8.030   5.903 -0.0423  0.1425  0.6927
  325MOL0     C42807   2.860   7.936   5.893 -0.5555  0.8590 -0.6715
  325MOL0     C42808   2.995   8.010   5.909  1.1037  0.1806 -0.4309
  325MOL0     C42809   3.107   7.931   5.838 -0.0234  0.4320  0.3548
  325MOL0     C42810   3.159   7.805   5.918 -0.4460 -0.3954  0.4190
  325MOL0     C42811   3.260   7.727   5.834 -0.4636 -0.1754 -0.1596
  325MOL0    Cl42812   3.427   7.808   5.829  0.0764 -0.0163 -0.2491
  325MOL0     C42813   2.441   8.414   5.999 -0.8941 -0.0899 -0.7190
  325MOL0     C42814   2.366   8.532   6.011 -0.2268  0.8376  0.5866
  325MOL0     O42815   2.195   8.742   5.890 -0.9767 -0.6251  0.3682
  325MOL0     C42816   2.103   8.991   5.949 -0.0391 -0.2542 -0.6098
  325MOL0     C42817   2.062   9.128   5.952 -0.4645 -0.4809 -0.3830
  325MOL0     N42818   1.779   9.426   6.407  0.3031  0.7368 -0.2088
  325MOL0     N42819   1.783   9.305   6.458  0.2457 -0.0032  0.1224
  325MOL0     C42820   2.200   8.081   6.058 -0.0269  0.1438 -0.6147
  325MOL0     C42821   2.278   7.988   5.986  0.6927  0.9939 -1.0604
  325MOL0     C42822   2.620   7.660   5.938  0.2951 -0.1348  0.0189
  325MOL0     C42823   2.723   7.574   5.970  0.9051  0.3820  0.4774
  325MOL0     C42824   2.793   7.493   5.874  0.1171  0.5333 -0.6655
  325MOL0     C42825   2.758   7.501   5.736  0.3207  0.2297 -0.5461
  325MOL0     O42826   2.798   7.411   5.633 -0.1069 -0.1037 -0.6152
  325MOL0     C42827   2.890   7.302   5.661  1.1845 -0.5235  0.0072
  325MOL0     C42828   2.979   7.286   5.533 -0.7666 -0.8208 -0.5681
  325MOL0     C42829   3.109   7.370   5.550 -0.1610 -0.2505 -0.3924
  325MOL0     C42830   3.234   7.281   5.572  0.6063  0.1207 -0.3066
  325MOL0     C42831   3.356   7.350   5.629  0.7613  0.2940 -0.4286
  325MOL0     C42832   3.456   7.410   5.663  0.0949  0.5230  0.5720
  325MOL0     C42833   2.662   7.597   5.696 -0.2401 -0.7291 -0.1661
  325MOL0     C42834   2.596   7.680   5.790 -0.3594 -0.0510 -0.3264
  325MOL0     H42835   2.492   7.916   6.250 -1.2198  0.2245  1.1289
  325MOL0     H42836   2.341   8.060   6.358 -3.7700  3.3082 -0.0672
  325MOL0     H42837   2.012   8.272   6.158 -1.0287 -0.0231  2.7466
  325MOL0     H42838   2.176   8.344   6.157 -0.3642 -0.8841  0.4384
  325MOL0     H42839   2.163   8.416   6.389  1.1321  1.4238 -2.1358
  325MOL0     H42840   1.990   8.370   6.380 -0.3358  1.3397  1.2178
  325MOL0     H42841   1.982   8.508   6.164  0.1466 -3.6736  1.3194
  325MOL0     H42842   2.132   8.578   6.194  0.4139 -0.5301 -0.7159
  325MOL0     H42843   1.881   8.591   6.351  0.3295  0.7202  0.6516
  325MOL0     H42844   2.042   8.641   6.423 -2.2981 -3.8793  2.3144
  325MOL0     H42845   1.924   8.745   6.170  3.5904  0.1722 -2.2531
  325MOL0     H42846   2.081   8.790   6.260  0.0636 -2.4608  3.1870
  325MOL0     H42847   1.962   8.883   6.446 -0.9350  1.3961  0.1797
  325MOL0     H42848   1.811   8.828   6.379 -0.2405  1.7163  0.7707
  325MOL0     H42849   1.991   9.055   6.297  0.4561 -2.1044 -1.5754
  325MOL0     H42850   1.870   8.990   6.178 -4.3078  2.0231  0.8178
  325MOL0     H42851   1.785   9.049   6.452  0.8060  1.7650  0.1250
  325MOL0     H42852   1.697   9.054   6.297 -0.2145 -1.2951 -0.3222
  325MOL0     H42853   1.849   9.260   6.132  0.0748 -1.7708  0.1035
  325MOL0     H42854   1.756   9.622   6.263 -0.8559 -0.4440 -1.3868
  325MOL0     H42855   1.765   9.539   6.108 -2.3764  0.0048  0.3522
  325MOL0     H42856   1.996   9.669   6.270  2.5045 -0.8707 -0.7855
  325MOL0     H42857   1.907   9.717   6.121 -0.1451 -0.0567 -0.9116
  325MOL0     H42858   2.033   9.559   5.986 -0.6639 -0.8173  0.0238
  325MOL0     H42859   2.150   9.651   6.092 -0.5497  0.3973  2.4396
  325MOL0     H42860   2.135   9.421   6.236 -2.5167 -1.7757 -0.1878
  325MOL0     H42861   2.234   9.460   6.101 -1.3460  2.1179  0.0798
  325MOL0     H42862   2.289   9.230   6.187 -3.0384 -0.5610  2.1285
  325MOL0     H42863   2.376   9.008   6.140 -0.2589 -1.1635 -1.1676
  325MOL0     H42864   2.623   8.758   6.017  1.8212 -1.8309  2.8312
  325MOL0     H42865   2.750   8.555   5.980 -0.8294  0.6214 -1.6738
  325MOL0     H42866   2.525   8.157   5.991 -1.2449  3.4407 -1.2033
  325MOL0     H42867   2.584   8.223   6.148  2.3024 -1.8106  1.3425
  325MOL0     H42868   2.677   7.997   6.110 -1.9534  0.2282 -1.3256
  325MOL0     H42869   2.818   8.097   6.104  0.2129 -2.8633  1.9198
  325MOL0     H42870   2.745   8.113   5.832  1.0306  0.5472  1.1240
  325MOL0     H42871   2.665   7.967   5.868  2.0691 -2.7461  0.6779
  325MOL0     H42872   2.847   7.857   5.967  1.3380  1.2070  0.0979
  325MOL0     H42873   2.857   7.884   5.797 -2.8542  0.6026 -0.5095
  325MOL0     H42874   3.018   8.028   6.014 -0.3552  1.0856 -0.2360
  325MOL0     H42875   2.997   8.103   5.851 -0.1432 -0.5621 -1.7359
  325MOL0     H42876   3.183   8.005   5.810  1.4440 -1.4747 -0.9646
  325MOL0     H42877   3.068   7.900   5.740  2.5153 -2.1392  0.0154
  325MOL0     H42878   3.213   7.849   6.003  2.8324 -0.8791 -1.2427
  325MOL0     H42879   3.070   7.746   5.944 -1.5618  1.5681  1.3325
  325MOL0     H42880   3.239   7.703   5.730  1.6007  3.6133 -1.6330
  325MOL0     H42881   3.279   7.630   5.881  1.0234 -0.2812 -0.9378
  325MOL0     H42882   2.384   8.325   6.024 -0.3372 -0.6905 -1.5456
  325MOL0     H42883   2.260   8.518   6.028 -0.0808  1.9837  2.8021
  325MOL0     H42884   2.056   8.929   5.873 -0.0781  2.7690 -3.2895
  325MOL0     H42885   1.973   9.163   5.902 -0.4049  0.3531  0.0797
  325MOL0     H42886   2.119   8.142   6.018  1.0250  1.3007 -1.0247
  325MOL0     H42887   2.259   7.952   5.886 -0.3036  1.0054 -0.8849
  325MOL0     H42888   2.747   7.550   6.073 -1.3326 -0.8691  0.7619
  325MOL0     H42889   2.868   7.428   5.917 -0.9769 -0.0687  0.3815
  325MOL0     H42890   2.830   7.212   5.674  0.1086 -0.3699 -3.1132
  325MOL0     H42891   2.958   7.304   5.746 -2.3610 -1.2548  3.1155
  325MOL0     H42892   3.002   7.180   5.517 -2.8160 -1.6638  1.5246
  325MOL0     H42893   2.924   7.317   5.444  1.3664  2.0556 -1.0339
  325MOL0     H42894   3.107   7.449   5.626  2.0851 -0.6611  0.1777
  325MOL0     H42895   3.119   7.412   5.450 -1.7017 -0.3086 -0.5969
  325MOL0     H42896   3.216   7.192   5.632  1.7448  0.8374  1.1495
  325MOL0     H42897   3.264   7.250   5.471  0.3691  1.6647 -0.8879
  325MOL0     H42898   3.546   7.456   5.697 -1.3635  5.1492 -1.0364
  325MOL0     H42899   2.646   7.609   5.589 -0.4705  1.9823  0.0973
  325MOL0     H42900   2.525   7.757   5.761 -0.9321 -0.5510 -0.2835
  326MOL0     O42901  10.778   2.170   1.910 -0.5317  0.3443 -0.4847
  326MOL0     C42902  10.788   2.123   1.795  0.5469 -0.5410 -0.1800
  326MOL0     O42903  10.699   2.039   1.736 -0.0054  0.4467  0.0137
  326MOL0     C42904  10.568   2.043   1.775  0.6572 -0.2115 -0.4617
  326MOL0     C42905  10.503   1.916   1.765 -0.5675  0.1093 -0.2089
  326MOL0     C42906  10.369   1.903   1.802 -0.1190  0.6388 -0.1659
  326MOL0     C42907  10.298   2.014   1.854  0.1231 -0.3872 -0.3899
  326MOL0     O42908  10.164   1.989   1.880  0.4657 -0.3741  0.3786
  326MOL0     C42909  10.091   2.075   1.977 -0.6996  0.2351 -0.0963
  326MOL0     C42910   9.957   2.011   2.010  0.0935  0.2289  0.0312
  326MOL0     C42911   9.878   1.991   1.878 -0.3662 -0.3703  0.4423
  326MOL0     C42912   9.741   1.925   1.908  0.1643 -0.1050  0.0254
  326MOL0     C42913   9.685   1.870   1.778 -0.3798 -0.5871 -0.2476
  326MOL0     C42914   9.650   1.983   1.675  0.1299 -0.3176 -0.4496
  326MOL0     C42915   9.560   1.927   1.561 -1.1593  0.7105  0.2918
  326MOL0     C42916   9.512   2.030   1.463  0.2705 -0.5976  0.3386
  326MOL0     N42917   9.412   1.984   1.373  0.8971  0.3009  0.2977
  326MOL0     C42918   9.274   1.980   1.397  1.0523  0.3301 -0.4817
  326MOL0     C42919   9.212   1.948   1.281 -0.2198 -0.2168  0.6667
  326MOL0     C42920   9.065   1.913   1.271  0.6837  0.2183  0.8481
  326MOL0     C42921   9.032   1.774   1.332  0.3827  1.0411  0.0754
  326MOL0     C42922   8.880   1.761   1.321  0.0432  0.6728  0.4721
  326MOL0     C42923   8.789   1.865   1.404  0.6379 -0.2544  0.5965
  326MOL0     O42924   8.658   1.823   1.438 -0.3334  0.2007 -0.3166
  326MOL0     C42925   8.550   1.877   1.371  0.2727 -0.4127 -0.1010
  326MOL0     C42926   8.424   1.876   1.443  0.1946  0.0136 -0.1835
  326MOL0     C42927   8.302   1.920   1.380 -0.4448 -0.0840 -1.0480
  326MOL0     C42928   8.312   1.976   1.257  0.1671 -0.9458 -0.8413
  326MOL0     C42929   8.179   2.010   1.200 -0.5335  0.0457  0.2988
  326MOL0     O42930   8.187   2.072   1.075 -0.1302 -0.3875 -0.0163
  326MOL0     C42931   8.071   2.122   1.018  0.1722  0.3625  0.4208
  326MOL0     C42932   7.970   2.207   1.080 -0.0825 -0.1464 -0.1561
  326MOL0     C42933   7.847   2.247   1.003 -0.0506  0.1830  0.0707
  326MOL0     C42934   7.834   2.215   0.872 -0.0626  0.2489  0.1385
  326MOL0     O42935   7.717   2.236   0.813  0.2173  0.3689 -0.6348
  326MOL0     C42936   7.663   2.115   0.758 -0.3201  0.2187 -0.1735
  326MOL0     C42937   7.592   2.031   0.859  0.5737 -0.4940 -0.1761
  326MOL0     C42938   7.460   2.086   0.895  0.4801 -0.1683  0.3235
  326MOL0     C42939   7.399   2.007   1.013 -0.5530  0.6325 -0.3879
  326MOL0     C42940   7.298   2.088   1.091  1.0123  0.0423 -0.6029
  326MOL0     C42941   7.228   1.996   1.194  0.2277  0.8123 -0.3681
  326MOL0     C42942   7.092   2.043   1.236  0.6922  0.0052 -0.5246
  326MOL0     C42943   7.044   1.959   1.354  0.4577  0.1855 -0.4340
  326MOL0    Cl42944   6.932   1.822   1.288 -0.6764  0.4753 -0.0627
  326MOL0     C42945   7.937   2.158   0.805 -0.5650  1.1759 -0.2625
  326MOL0     C42946   8.046   2.106   0.877 -0.6402  0.3273 -0.4828
  326MOL0     O42947   8.076   1.997   1.265 -0.0841 -0.0218  0.3121
  326MOL0     C42948   8.429   1.976   1.188  0.8723  0.4140  0.4682
  326MOL0     C42949   8.549   1.930   1.238 -0.2017 -0.3444 -0.7379
  326MOL0     N42950   9.319   1.924   1.187  0.3074  0.1158  0.3020
  326MOL0     N42951   9.432   1.934   1.247 -0.9811  0.0869 -0.1096
  326MOL0     C42952  10.356   2.139   1.870  0.1732 -0.4346  0.7412
  326MOL0     C42953  10.495   2.148   1.841  0.4256  0.3665 -0.2767
  326MOL0     C42954  10.915   2.165   1.724  0.0809  0.5020  0.5515
  326MOL0     C42955  11.023   2.215   1.801  0.5369  0.5126 -0.0816
  326MOL0     C42956  11.146   2.228   1.753 -0.3053  0.0808  1.2712
  326MOL0     C42957  11.173   2.176   1.616  0.2745 -0.0036  0.0752
  326MOL0     O42958  11.299   2.177   1.566  0.9883  0.8595  0.1556
  326MOL0     C42959  11.332   2.299   1.509 -0.2199 -0.4064  0.9655
  326MOL0     C42960  11.485   2.298   1.482 -0.5548 -0.4863 -0.3568
  326MOL0     C42961  11.523   2.432   1.408  0.0880  0.3464  0.2344
  326MOL0     C42962  11.671   2.455   1.394 -0.5209  0.1277  0.1454
  326MOL0     C42963  11.763   2.446   1.510  0.3804 -0.5423  1.1770
  326MOL0     C42964  11.849   2.452   1.599 -0.5528  0.5287  0.8006
  326MOL0     C42965  11.068   2.124   1.539  0.1417 -0.7665 -0.5385
  326MOL0     C42966  10.940   2.131   1.592  0.7202 -0.2486  0.0573
  326MOL0     H42967  10.559   1.831   1.727 -0.6951 -0.1546  0.1883
  326MOL0     H42968  10.315   1.809   1.793 -3.0051  2.2230 -0.5795
  326MOL0     H42969  10.079   2.177   1.941  2.1173  1.3115  1.6817
  326MOL0     H42970  10.145   2.093   2.070 -1.9901  1.6462  0.4191
  326MOL0     H42971   9.893   2.061   2.082 -0.6683 -1.1474  0.3543
  326MOL0     H42972   9.984   1.917   2.061  2.8943  1.6080  1.3312
  326MOL0     H42973   9.940   1.930   1.812  1.0596 -0.4682  1.8230
  326MOL0     H42974   9.869   2.089   1.830 -0.8346 -1.1831 -1.2003
  326MOL0     H42975   9.758   1.847   1.983  3.8222 -0.5490 -1.0390
  326MOL0     H42976   9.670   1.996   1.949  0.1608 -0.3843  0.5135
  326MOL0     H42977   9.580   1.844   1.798 -0.9044 -1.1413 -3.2549
  326MOL0     H42978   9.743   1.789   1.733  1.6417  0.3398  0.5860
  326MOL0     H42979   9.744   2.016   1.630  0.8963 -0.1267  1.2154
  326MOL0     H42980   9.600   2.060   1.734  0.5898 -1.7300  1.9150
  326MOL0     H42981   9.610   1.852   1.500  0.8434  0.1214  2.4865
  326MOL0     H42982   9.477   1.881   1.615 -0.6404  1.6051  1.9604
  326MOL0     H42983   9.591   2.062   1.394 -0.1806  0.3511  0.2391
  326MOL0     H42984   9.483   2.126   1.506 -0.6102  0.7239 -2.8870
  326MOL0     H42985   9.212   1.992   1.485  1.8410 -0.2389  0.1736
  326MOL0     H42986   9.041   1.918   1.164  1.9658  2.9405  0.5834
  326MOL0     H42987   9.006   1.985   1.328 -1.7282  1.7305 -3.1228
  326MOL0     H42988   9.067   1.771   1.436  1.3272  1.0867 -0.2322
  326MOL0     H42989   9.078   1.687   1.286 -1.0726 -1.3893  2.8517
  326MOL0     H42990   8.860   1.769   1.214 -0.5334 -0.6435  0.4671
  326MOL0     H42991   8.859   1.660   1.356  0.6183  0.3832  0.0053
  326MOL0     H42992   8.789   1.954   1.340 -0.9838  0.9098  2.1281
  326MOL0     H42993   8.832   1.894   1.500  0.1103  1.6496  0.2884
  326MOL0     H42994   8.432   1.830   1.541 -0.5553  1.0331  0.3771
  326MOL0     H42995   8.208   1.910   1.434 -0.2881 -1.2804 -0.9877
  326MOL0     H42996   7.984   2.232   1.184  1.3425  2.9782 -0.9626
  326MOL0     H42997   7.761   2.297   1.046 -0.3899 -1.4125  1.3536
  326MOL0     H42998   7.740   2.047   0.720 -1.5717 -2.3213  1.5610
  326MOL0     H42999   7.595   2.131   0.674  0.0970 -0.9632 -0.7679
  326MOL0     H43000   7.653   2.015   0.948  1.7792  2.6445 -0.3156
  326MOL0     H43001   7.570   1.938   0.806  2.5920  0.6890 -3.3849
  326MOL0     H43002   7.399   2.071   0.806 -0.4281 -1.4958  1.1372
  326MOL0     H43003   7.474   2.192   0.921 -5.4948  0.9006  0.7407
  326MOL0     H43004   7.360   1.912   0.975  0.9572  1.0229 -3.1752
  326MOL0     H43005   7.478   1.988   1.087  0.8315  0.0212 -1.9589
  326MOL0     H43006   7.222   2.114   1.017 -0.1679 -0.8489  0.2642
  326MOL0     H43007   7.345   2.179   1.130 -0.6757  0.8658 -0.4378
  326MOL0     H43008   7.293   1.996   1.282  1.0955  0.8324 -0.9977
  326MOL0     H43009   7.225   1.891   1.163  2.4095  0.5990  0.0063
  326MOL0     H43010   7.091   2.144   1.278 -0.7855 -0.4340  0.5811
  326MOL0     H43011   7.026   2.037   1.149  2.0301 -1.9073 -1.4791
  326MOL0     H43012   6.990   2.015   1.431 -1.2606  0.6202 -1.8888
  326MOL0     H43013   7.127   1.910   1.406 -0.5264  0.0849  1.1158
  326MOL0     H43014   7.932   2.146   0.697 -2.8163  0.8067 -0.1647
  326MOL0     H43015   8.111   2.048   0.811 -0.5052 -0.4749  0.3436
  326MOL0     H43016   8.405   2.016   1.090 -1.8705  1.4925  1.4655
  326MOL0     H43017   8.639   1.925   1.178  1.3434  2.3496  1.1019
  326MOL0     H43018  10.305   2.224   1.912 -1.1928 -0.0504 -1.5040
  326MOL0     H43019  10.536   2.249   1.850 -1.1814  1.2411 -2.0618
  326MOL0     H43020  11.020   2.233   1.908  1.2926 -2.2542  0.4852
  326MOL0     H43021  11.229   2.291   1.782  0.5606  0.2276 -1.2245
  326MOL0     H43022  11.325   2.382   1.581  0.6349  2.3097 -1.8636
  326MOL0     H43023  11.276   2.322   1.418 -2.2356  2.0370  2.6789
  326MOL0     H43024  11.543   2.293   1.574 -0.0663 -2.6429 -0.7232
  326MOL0     H43025  11.515   2.214   1.418  1.7556 -0.3112  0.4062
  326MOL0     H43026  11.478   2.522   1.451  1.8749  2.1038 -1.4017
  326MOL0     H43027  11.482   2.423   1.307  0.1624 -1.3235  0.3256
  326MOL0     H43028  11.719   2.382   1.328 -0.0722  0.3050  0.2743
  326MOL0     H43029  11.679   2.555   1.351 -1.8909  0.7603  1.2856
  326MOL0     H43030  11.938   2.437   1.657 -0.7518 -1.3848  0.6832
  326MOL0     H43031  11.085   2.067   1.448 -1.8163 -5.9042  1.9200
  326MOL0     H43032  10.859   2.085   1.536  1.7188 -1.9353 -0.0526
  327MOL0     O43033   0.086   4.677   9.002 -0.0249  0.0922  0.3580
  327MOL0     C43034   0.035   4.732   8.902 -1.1896  0.1552 -1.0050
  327MOL0     O43035  -0.089   4.798   8.898  0.3014 -0.4839 -0.5098
  327MOL0     C43036  -0.181   4.791   8.994  0.5769 -0.3669 -0.2642
  327MOL0     C43037  -0.188   4.689   9.087 -0.0402 -0.0630 -0.6887
  327MOL0     C43038  -0.261   4.701   9.207  0.4859  0.6443 -0.1374
  327MOL0     C43039  -0.334   4.817   9.232 -0.6013 -0.0505 -0.1175
  327MOL0     O43040  -0.409   4.830   9.343 -0.6545  0.5968  0.1568
  327MOL0     C43041  -0.385   4.939   9.432 -1.4566 -0.3333 -0.2847
  327MOL0     C43042  -0.495   5.048   9.431 -0.7330 -1.1854  0.3892
  327MOL0     C43043  -0.589   5.031   9.550  0.2097 -0.2317  0.0890
  327MOL0     C43044  -0.690   5.153   9.558  1.1559 -0.2976 -0.8588
  327MOL0     C43045  -0.765   5.148   9.693 -0.0703  1.1765 -0.4793
  327MOL0     C43046  -0.684   5.166   9.829 -0.1499  0.0945 -0.0036
  327MOL0     C43047  -0.582   5.277   9.835 -0.2547 -0.4537  0.3515
  327MOL0     C43048  -0.541   5.318   9.976  0.3142 -0.4425 -0.3455
  327MOL0     N43049  -0.657   5.388  10.032 -0.5657 -1.1048 -0.7857
  327MOL0     C43050  -0.686   5.523  10.008  0.4929  0.2195  0.3252
  327MOL0     C43051  -0.804   5.540  10.077  0.5106  0.8660 -0.0083
  327MOL0     C43052  -0.848   5.679  10.110 -0.6180 -0.7912 -0.6297
  327MOL0     C43053  -0.908   5.730   9.976  0.4331 -0.3331  0.2592
  327MOL0     C43054  -1.019   5.650   9.902 -0.8758 -0.8383 -0.5908
  327MOL0     C43055  -0.972   5.601   9.772 -0.7223 -0.0219  0.8368
  327MOL0     O43056  -0.949   5.706   9.670  0.2588  0.7463 -0.2361
  327MOL0     C43057  -0.868   5.671   9.566 -0.3147  0.7708 -0.5954
  327MOL0     C43058  -0.866   5.535   9.511 -0.1756  0.5834 -0.5459
  327MOL0     C43059  -0.763   5.504   9.425 -0.6370  0.3126  0.2704
  327MOL0     C43060  -0.663   5.590   9.381  0.6292  0.0889  0.1707
  327MOL0     C43061  -0.571   5.548   9.275  0.1720  0.5617  0.4705
  327MOL0     O43062  -0.606   5.430   9.205  0.3341 -0.0153 -0.0530
  327MOL0     C43063  -0.568   5.434   9.075  0.6954 -0.5480 -0.2513
  327MOL0     C43064  -0.662   5.485   8.985  0.1827  1.4556 -0.7002
  327MOL0     C43065  -0.627   5.484   8.851  0.2475 -0.5220 -0.3688
  327MOL0     C43066  -0.495   5.440   8.809  0.7842 -0.0159  1.2478
  327MOL0     O43067  -0.448   5.421   8.684  0.4263 -0.3741 -0.0324
  327MOL0     C43068  -0.544   5.448   8.580 -1.0655  0.1464  0.3451
  327MOL0     C43069  -0.482   5.418   8.448  0.0989 -0.1576  0.0374
  327MOL0     C43070  -0.418   5.552   8.389  0.5680 -0.9559 -0.6773
  327MOL0     C43071  -0.358   5.538   8.256  0.0950 -0.3663 -0.4137
  327MOL0     C43072  -0.204   5.497   8.266 -0.6341  0.5297 -0.4911
  327MOL0     C43073  -0.109   5.594   8.346  0.2732  0.0548 -0.2972
  327MOL0     C43074   0.029   5.536   8.370 -0.0595 -0.1846  0.2229
  327MOL0     C43075   0.079   5.483   8.235  0.3419 -0.6135 -0.4514
  327MOL0    Cl43076   0.256   5.443   8.252  0.1450  0.0184  0.0586
  327MOL0     C43077  -0.396   5.398   8.904 -0.2037  0.6238  0.2164
  327MOL0     C43078  -0.443   5.395   9.035 -0.1135 -0.0469 -1.2667
  327MOL0     O43079  -0.484   5.631   9.251  0.7669  0.1711  1.2758
  327MOL0     C43080  -0.673   5.725   9.428  0.9857  0.1098 -0.3106
  327MOL0     C43081  -0.772   5.769   9.515 -0.4152  1.6350  0.2663
  327MOL0     N43082  -0.843   5.416  10.131  0.2265 -0.5229  1.0299
  327MOL0     N43083  -0.751   5.334  10.104 -0.7129 -0.4487 -0.0838
  327MOL0     C43084  -0.337   4.912   9.142 -0.3000 -0.0016 -0.1477
  327MOL0     C43085  -0.260   4.902   9.024 -0.8389 -0.1663 -1.3643
  327MOL0     C43086   0.111   4.724   8.780 -0.9185 -0.3908  0.4475
  327MOL0     C43087   0.042   4.740   8.653  0.8449  0.0998 -0.2579
  327MOL0     C43088   0.111   4.745   8.532 -0.1909  0.1541 -0.7248
  327MOL0     C43089   0.254   4.745   8.532  0.7051  0.6648  1.0119
  327MOL0     O43090   0.320   4.746   8.409  0.1193  0.1505  0.4879
  327MOL0     C43091   0.458   4.717   8.405 -0.3418  0.4530 -0.4027
  327MOL0     C43092   0.507   4.705   8.268  0.8153  0.2835 -0.1006
  327MOL0     C43093   0.555   4.847   8.217  0.3988 -0.0268 -0.9131
  327MOL0     C43094   0.441   4.937   8.180  0.3934 -0.3983 -0.1081
  327MOL0     C43095   0.489   5.071   8.130 -0.2542 -0.6747  0.0499
  327MOL0     C43096   0.521   5.187   8.101 -0.4717 -0.2234  0.0154
  327MOL0     C43097   0.322   4.731   8.654  0.5323 -0.7915  0.5190
  327MOL0     C43098   0.253   4.724   8.775 -0.6955  0.9723  0.7117
  327MOL0     H43099  -0.123   4.604   9.068  0.1439  0.8035 -4.9669
  327MOL0     H43100  -0.266   4.628   9.287  1.7628 -0.1104 -0.7021
  327MOL0     H43101  -0.283   4.979   9.431 -1.1322 -1.1281 -1.1944
  327MOL0     H43102  -0.398   4.884   9.526  1.9544 -1.4388 -0.3191
  327MOL0     H43103  -0.536   5.039   9.330  1.0890 -0.0391 -0.5132
  327MOL0     H43104  -0.437   5.141   9.434  0.3658 -1.8701  0.7260
  327MOL0     H43105  -0.524   5.022   9.637 -1.2586  0.6693  1.3395
  327MOL0     H43106  -0.632   4.932   9.531  0.7120 -0.2098 -1.2965
  327MOL0     H43107  -0.635   5.247   9.545  2.8344 -1.1047  0.0279
  327MOL0     H43108  -0.756   5.132   9.474 -2.4607 -2.0581  2.1347
  327MOL0     H43109  -0.819   5.053   9.699  0.5165  0.6259 -2.9912
  327MOL0     H43110  -0.851   5.215   9.695 -0.7513  0.3553 -1.5071
  327MOL0     H43111  -0.623   5.076   9.845  0.0726  0.1840 -0.3334
  327MOL0     H43112  -0.749   5.179   9.916  2.4118 -1.3368  2.2903
  327MOL0     H43113  -0.491   5.251   9.780 -1.4322 -1.3635 -1.2695
  327MOL0     H43114  -0.626   5.361   9.782  1.7484  0.1546 -0.4135
  327MOL0     H43115  -0.469   5.400   9.972  1.6220 -1.5911 -1.2240
  327MOL0     H43116  -0.503   5.243  10.046 -1.0450  0.4800  1.4527
  327MOL0     H43117  -0.625   5.602   9.964 -0.9618  0.2933 -1.7222
  327MOL0     H43118  -0.766   5.749  10.128 -0.6758 -1.0840  0.8776
  327MOL0     H43119  -0.925   5.679  10.187 -1.0831 -1.7276 -1.0669
  327MOL0     H43120  -0.825   5.738   9.905  0.1559 -0.3668 -0.0662
  327MOL0     H43121  -0.935   5.835   9.995  1.7315  0.4850 -2.0002
  327MOL0     H43122  -1.039   5.570   9.974  0.6551  2.7588  4.4196
  327MOL0     H43123  -1.105   5.717   9.889  2.6323  4.8928  1.5019
  327MOL0     H43124  -1.051   5.543   9.725  0.1160 -1.5154  1.1789
  327MOL0     H43125  -0.873   5.555   9.780  0.6764  2.5145 -0.6125
  327MOL0     H43126  -0.930   5.451   9.536  1.7427 -2.1042 -3.6848
  327MOL0     H43127  -0.756   5.402   9.389  1.4399  0.0687  1.1807
  327MOL0     H43128  -0.760   5.518   9.018  0.0081  2.0454 -1.7589
  327MOL0     H43129  -0.702   5.486   8.772 -1.7527 -5.5497  0.9939
  327MOL0     H43130  -0.573   5.553   8.576  4.5672  2.2722  3.5041
  327MOL0     H43131  -0.632   5.385   8.601  0.3209 -0.6096  5.3836
  327MOL0     H43132  -0.563   5.381   8.385 -0.9481  3.6412 -1.0723
  327MOL0     H43133  -0.398   5.348   8.460  1.2721  1.3695  1.1506
  327MOL0     H43134  -0.355   5.595   8.467  1.1087  1.8815 -2.4953
  327MOL0     H43135  -0.506   5.617   8.384  0.2086 -1.2824  0.9232
  327MOL0     H43136  -0.407   5.474   8.182  1.4859 -1.5395 -0.3691
  327MOL0     H43137  -0.365   5.636   8.209  1.0887 -1.7060 -3.7199
  327MOL0     H43138  -0.172   5.492   8.162  0.4965  2.8298 -0.3152
  327MOL0     H43139  -0.195   5.397   8.308  0.3552  0.2376 -1.3642
  327MOL0     H43140  -0.154   5.625   8.441 -0.7473  2.3612 -1.4399
  327MOL0     H43141  -0.087   5.688   8.294  1.6292 -0.7995 -1.3510
  327MOL0     H43142   0.091   5.619   8.405 -1.1078 -0.5635  3.2872
  327MOL0     H43143   0.027   5.464   8.452  0.1006 -1.2863 -0.7206
  327MOL0     H43144   0.060   5.559   8.159 -2.4553 -0.3166  0.4291
  327MOL0     H43145   0.028   5.391   8.206 -0.6336 -1.0591  2.3495
  327MOL0     H43146  -0.302   5.350   8.878 -1.2246 -1.1257 -0.4129
  327MOL0     H43147  -0.380   5.352   9.112  0.0204  0.7171 -0.9347
  327MOL0     H43148  -0.592   5.788   9.392  2.0849 -1.8725 -1.4474
  327MOL0     H43149  -0.764   5.875   9.536 -1.6868  1.9502 -0.7037
  327MOL0     H43150  -0.380   5.005   9.175 -0.2971 -0.1265  0.2177
  327MOL0     H43151  -0.273   4.985   8.956 -1.7563  1.6641  0.8741
  327MOL0     H43152  -0.066   4.744   8.660  0.8978  0.4390  0.3935
  327MOL0     H43153   0.065   4.752   8.434  0.9713  0.3338 -1.2728
  327MOL0     H43154   0.484   4.625   8.460 -0.0781  2.1398  2.5120
  327MOL0     H43155   0.513   4.795   8.458  1.4413 -1.7205  1.1706
  327MOL0     H43156   0.583   4.626   8.262  0.5128  0.1073 -2.0939
  327MOL0     H43157   0.431   4.669   8.198  1.4782  0.8510 -1.1330
  327MOL0     H43158   0.618   4.824   8.130  0.8023 -1.3951 -0.2785
  327MOL0     H43159   0.624   4.895   8.287  1.1931 -2.2294 -0.1067
  327MOL0     H43160   0.380   4.886   8.105  2.8457 -1.8201 -1.2327
  327MOL0     H43161   0.382   4.956   8.271  1.8161 -0.6232  0.9070
  327MOL0     H43162   0.568   5.280   8.075  2.8159 -1.2803  1.6340
  327MOL0     H43163   0.431   4.738   8.653  0.5837 -1.1011 -1.7644
  327MOL0     H43164   0.306   4.719   8.869 -1.6710 -0.0605  1.2398
  328MOL0     O43165   0.702   1.699   0.343 -0.4948  0.5103 -0.1305
  328MOL0     C43166   0.690   1.622   0.439  0.0494 -1.0766  1.0135
  328MOL0     O43167   0.568   1.559   0.469 -0.1999  0.3640  0.1374
  328MOL0     C43168   0.445   1.598   0.424  0.0350 -0.0977  0.1459
  328MOL0     C43169   0.413   1.722   0.375  0.3812 -0.0333 -0.5463
  328MOL0     C43170   0.284   1.755   0.332  0.3220 -0.3064  0.8097
  328MOL0     C43171   0.181   1.667   0.321  0.1523 -0.1183  0.1669
  328MOL0     O43172   0.064   1.723   0.281 -0.0755 -0.7395 -0.1599
  328MOL0     C43173   0.023   1.666   0.154  0.4002  0.3130 -0.2190
  328MOL0     C43174   0.068   1.771   0.043  0.1695 -0.3155 -0.4804
  328MOL0     C43175  -0.033   1.870   0.006  0.3650 -0.5106  0.2663
  328MOL0     C43176   0.027   1.994  -0.068  0.5193  0.3545 -0.1387
  328MOL0     C43177   0.081   2.109   0.022 -0.8310 -0.3498  0.6032
  328MOL0     C43178   0.183   2.206  -0.056  0.4211  0.1048  0.7628
  328MOL0     C43179   0.129   2.292  -0.167 -0.2163 -0.0530 -0.6551
  328MOL0     C43180  -0.009   2.358  -0.149  0.4383  0.2744 -0.3943
  328MOL0     N43181  -0.010   2.503  -0.139  0.2370 -0.0853  0.3008
  328MOL0     C43182   0.026   2.577  -0.030 -1.0462  0.2460  0.5671
  328MOL0     C43183   0.018   2.706  -0.070  0.6051 -0.1630  1.3913
  328MOL0     C43184   0.045   2.826   0.014 -0.2480 -0.9147  0.7981
  328MOL0     C43185  -0.087   2.899   0.041  0.0137 -0.2312 -0.5566
  328MOL0     C43186  -0.125   3.006  -0.071  0.8503 -0.5795  0.4666
  328MOL0     C43187  -0.270   3.027  -0.102  1.2593  0.0755  0.6475
  328MOL0     O43188  -0.343   3.057   0.005  0.4127  0.2341 -0.8911
  328MOL0     C43189  -0.418   2.979   0.080  0.2591  1.2656 -1.0972
  328MOL0     C43190  -0.437   3.014   0.214  0.7849  1.0745  1.1884
  328MOL0     C43191  -0.511   2.929   0.296  0.5772 -0.4790 -0.0727
  328MOL0     C43192  -0.565   2.809   0.250 -1.6125  0.0816 -0.4825
  328MOL0     C43193  -0.654   2.730   0.339  0.4766 -0.4175  0.8149
  328MOL0     O43194  -0.767   2.673   0.273  0.0648  0.2182 -1.0271
  328MOL0     C43195  -0.830   2.582   0.357 -0.0802  0.3350 -0.1469
  328MOL0     C43196  -0.801   2.441   0.352  0.0185  0.0375  1.0536
  328MOL0     C43197  -0.858   2.346   0.435 -0.0787 -0.1866 -1.5217
  328MOL0     C43198  -0.950   2.386   0.538  0.0884  0.0481  0.3664
  328MOL0     O43199  -1.016   2.293   0.613 -0.3927 -0.3271 -0.2823
  328MOL0     C43200  -1.050   2.164   0.568 -1.0379  0.7684 -0.8895
  328MOL0     C43201  -1.121   2.083   0.668  0.8970  0.0810  0.1231
  328MOL0     C43202  -1.262   2.157   0.685 -0.0061 -0.5869 -0.1939
  328MOL0     C43203  -1.353   2.080   0.784 -0.1226  0.2480 -0.6165
  328MOL0     C43204  -1.462   2.169   0.852 -0.2079  0.1200  1.2025
  328MOL0     C43205  -1.546   2.102   0.962 -0.3779 -0.4052 -0.0304
  328MOL0     C43206  -1.633   2.210   1.021 -0.1192 -0.3599  0.2375
  328MOL0     C43207  -1.694   2.176   1.162 -0.1823 -0.0488  0.2308
  328MOL0    Cl43208  -1.559   2.167   1.272  0.1182 -0.3247  0.5319
  328MOL0     C43209  -0.991   2.516   0.539  0.1208 -0.6036 -0.5486
  328MOL0     C43210  -0.927   2.619   0.463  0.7289 -0.2878 -0.3983
  328MOL0     O43211  -0.627   2.717   0.460 -0.0796 -0.2393  0.3034
  328MOL0     C43212  -0.534   2.764   0.124 -0.6070  0.1458 -0.0067
  328MOL0     C43213  -0.474   2.856   0.035 -1.1961  0.3185 -0.3764
  328MOL0     N43214  -0.021   2.707  -0.206 -0.6332  0.3892  0.3265
  328MOL0     N43215  -0.039   2.581  -0.241  0.6099 -0.2443  1.4842
  328MOL0     C43216   0.203   1.540   0.378  0.2475  0.2437  1.1706
  328MOL0     C43217   0.334   1.501   0.415 -0.4377  0.2187 -0.1745
  328MOL0     C43218   0.794   1.620   0.533 -0.5731 -0.8560 -0.7259
  328MOL0     C43219   0.805   1.505   0.611 -0.4480  0.8062 -0.4539
  328MOL0     C43220   0.909   1.496   0.706 -0.6557  0.0006  0.7534
  328MOL0     C43221   0.991   1.608   0.729 -0.0046 -0.0280  0.0603
  328MOL0     O43222   1.087   1.611   0.828  0.0136 -0.0265  0.0321
  328MOL0     C43223   1.095   1.517   0.938 -0.7755 -0.3859 -0.1537
  328MOL0     C43224   1.219   1.557   1.017  1.1197 -0.5303  0.0951
  328MOL0     C43225   1.348   1.535   0.940  1.5994  0.2674  0.2001
  328MOL0     C43226   1.480   1.581   1.005  0.6424  0.1016  0.6945
  328MOL0     C43227   1.583   1.560   0.900 -0.8815 -0.8175  0.4538
  328MOL0     C43228   1.673   1.545   0.826 -0.3737  0.2670  0.1309
  328MOL0     C43229   0.976   1.723   0.651 -0.2141  0.1733 -0.4279
  328MOL0     C43230   0.885   1.723   0.547 -0.8955  0.0889 -0.2330
  328MOL0     H43231   0.484   1.803   0.385 -0.6401  0.6467  2.1416
  328MOL0     H43232   0.277   1.858   0.302 -3.3757 -0.0345  2.1607
  328MOL0     H43233  -0.085   1.652   0.147  0.6300 -0.9216 -2.4287
  328MOL0     H43234   0.074   1.575   0.122 -1.6448 -2.2035  3.0602
  328MOL0     H43235   0.096   1.706  -0.041  2.1729  0.0678 -0.1449
  328MOL0     H43236   0.163   1.816   0.072  0.3556 -0.4855 -0.8144
  328MOL0     H43237  -0.078   1.891   0.103  4.0503 -0.8084  2.2436
  328MOL0     H43238  -0.109   1.827  -0.059 -2.1899  1.5021  1.7332
  328MOL0     H43239   0.113   1.965  -0.128 -0.0142  1.8008 -1.6831
  328MOL0     H43240  -0.056   2.028  -0.130  0.1123  1.5395  0.9887
  328MOL0     H43241   0.143   2.071   0.104  2.0980  1.6982 -0.4744
  328MOL0     H43242  -0.010   2.154   0.062 -0.3427  3.0322 -1.7040
  328MOL0     H43243   0.267   2.142  -0.085 -0.6634 -1.9351  1.8412
  328MOL0     H43244   0.226   2.277   0.015  2.4688 -0.6134  0.2934
  328MOL0     H43245   0.207   2.360  -0.202  0.2385 -1.3437 -2.2477
  328MOL0     H43246   0.115   2.228  -0.254 -0.2067  0.4673 -1.0433
  328MOL0     H43247  -0.069   2.324  -0.063  2.5759 -3.5515 -0.1765
  328MOL0     H43248  -0.063   2.336  -0.241 -0.3580  1.0843 -0.1331
  328MOL0     H43249   0.048   2.543   0.071 -3.4797 -2.6459  0.3021
  328MOL0     H43250   0.124   2.892  -0.022 -1.2867 -0.1436 -0.0943
  328MOL0     H43251   0.087   2.782   0.106 -0.3866 -0.4543  1.0821
  328MOL0     H43252  -0.089   2.946   0.140  0.6423  1.3765 -1.2702
  328MOL0     H43253  -0.162   2.820   0.040 -0.8161  0.5398 -1.7629
  328MOL0     H43254  -0.083   3.105  -0.050  0.0561  0.6138 -2.8738
  328MOL0     H43255  -0.085   2.979  -0.169 -3.7851  0.4457 -1.9698
  328MOL0     H43256  -0.313   2.939  -0.151  0.5319  1.1036 -0.6435
  328MOL0     H43257  -0.286   3.115  -0.166 -2.1146  0.9492  2.4340
  328MOL0     H43258  -0.398   3.107   0.255  0.6300  2.0241 -0.6956
  328MOL0     H43259  -0.540   2.972   0.392  1.3683 -1.2469  0.5316
  328MOL0     H43260  -0.733   2.387   0.288 -1.3814  1.0333 -1.4037
  328MOL0     H43261  -0.813   2.248   0.426  0.5112 -0.1970  0.8715
  328MOL0     H43262  -0.957   2.115   0.539  0.7219  4.5846 -2.3905
  328MOL0     H43263  -1.105   2.173   0.474 -1.4390 -1.0804 -0.8777
  328MOL0     H43264  -1.071   2.084   0.765  0.6287 -1.0785  0.2913
  328MOL0     H43265  -1.139   1.982   0.630  0.0546 -0.3690  1.6259
  328MOL0     H43266  -1.315   2.161   0.590 -1.2079 -1.9747  0.3662
  328MOL0     H43267  -1.252   2.260   0.719  1.8201 -0.4799 -0.8964
  328MOL0     H43268  -1.398   1.986   0.750  3.4040 -2.5823  1.8695
  328MOL0     H43269  -1.283   2.047   0.861  1.3313  0.9043 -1.6104
  328MOL0     H43270  -1.539   2.185   0.776 -0.3967  2.1630  1.7852
  328MOL0     H43271  -1.421   2.268   0.874 -2.6271  1.4357  0.1448
  328MOL0     H43272  -1.479   2.058   1.037  0.3399 -3.3070 -2.1914
  328MOL0     H43273  -1.604   2.018   0.923 -2.5716 -0.1317  2.3626
  328MOL0     H43274  -1.575   2.302   1.031  1.6491 -1.6135  2.5074
  328MOL0     H43275  -1.714   2.230   0.951  1.4732  0.0178 -1.5608
  328MOL0     H43276  -1.750   2.083   1.148 -1.4547  1.0118 -2.4133
  328MOL0     H43277  -1.761   2.258   1.190 -0.6138 -0.8836  1.7480
  328MOL0     H43278  -1.071   2.536   0.610  1.4656 -0.6602  1.0465
  328MOL0     H43279  -0.960   2.722   0.477 -0.0972 -0.5891 -0.0932
  328MOL0     H43280  -0.565   2.664   0.095  1.0626 -0.4598  0.2296
  328MOL0     H43281  -0.458   2.822  -0.066  2.7392 -3.1395  1.1179
  328MOL0     H43282   0.109   1.492   0.402 -0.1460  0.1706 -0.4734
  328MOL0     H43283   0.351   1.406   0.465 -2.9685 -0.9748 -1.3733
  328MOL0     H43284   0.732   1.428   0.591 -1.7109  2.4570 -2.7966
  328MOL0     H43285   0.935   1.409   0.766  1.2348 -0.0190 -0.0229
  328MOL0     H43286   1.109   1.420   0.889 -0.8859 -0.8245  0.6765
  328MOL0     H43287   1.017   1.526   1.013  1.4165 -1.1667  2.3650
  328MOL0     H43288   1.204   1.663   1.036 -0.0679 -0.7828  0.6076
  328MOL0     H43289   1.218   1.498   1.109  0.6405 -2.0573 -0.8482
  328MOL0     H43290   1.350   1.574   0.838  0.8620 -0.7472 -0.2155
  328MOL0     H43291   1.352   1.427   0.923 -0.1414  0.7257 -4.5545
  328MOL0     H43292   1.472   1.684   1.039 -1.8439 -0.4524  2.0239
  328MOL0     H43293   1.490   1.506   1.085 -0.1247  0.1416  0.8352
  328MOL0     H43294   1.762   1.517   0.774 -0.2518  0.0398  0.4601
  328MOL0     H43295   1.044   1.804   0.673  0.2146 -0.8619  2.4840
  328MOL0     H43296   0.884   1.809   0.480  3.2697  0.7180  0.2669
  329MOL0     O43297   0.015   5.260   3.559 -0.2373 -0.4025  0.2286
  329MOL0     C43298  -0.065   5.247   3.653  0.6272 -0.7524  0.8519
  329MOL0     O43299  -0.040   5.275   3.784 -0.2737 -0.2530  0.1299
  329MOL0     C43300   0.076   5.334   3.815 -0.7737 -0.1568  0.2337
  329MOL0     C43301   0.095   5.473   3.794 -0.7317 -0.5958  0.5648
  329MOL0     C43302   0.230   5.511   3.818  0.7530  0.3329  0.2681
  329MOL0     C43303   0.331   5.424   3.858  0.4709  0.2070  0.2086
  329MOL0     O43304   0.456   5.468   3.867 -0.8235 -0.2391 -0.2541
  329MOL0     C43305   0.511   5.554   3.772  0.5686 -0.3368  0.3900
  329MOL0     C43306   0.661   5.548   3.778 -1.4036 -0.0270 -0.2062
  329MOL0     C43307   0.698   5.669   3.876  0.2091 -0.2266  1.0544
  329MOL0     C43308   0.837   5.678   3.921  0.4153  1.1249 -1.0048
  329MOL0     C43309   0.854   5.800   4.018  0.7269 -0.9603  0.8648
  329MOL0     C43310   0.996   5.814   4.064  0.3662  0.4206 -0.1820
  329MOL0     C43311   1.095   5.821   3.945  0.3228 -0.3952  0.8002
  329MOL0     C43312   1.224   5.893   3.997  0.5343 -0.4246 -0.1709
  329MOL0     N43313   1.189   6.033   4.035  0.3021 -0.7775 -0.2739
  329MOL0     C43314   1.198   6.080   4.158 -0.8234 -1.0472 -0.7166
  329MOL0     C43315   1.196   6.214   4.151  0.7926 -0.4601  0.9600
  329MOL0     C43316   1.200   6.319   4.261  0.3419 -0.7073  0.4893
  329MOL0     C43317   1.253   6.460   4.224  0.4111 -0.0337  1.1387
  329MOL0     C43318   1.401   6.465   4.179  0.7062 -0.6987 -1.1208
  329MOL0     C43319   1.463   6.613   4.173  0.4878 -0.1126 -0.8205
  329MOL0     O43320   1.489   6.648   4.317 -0.2104  0.4641 -0.1805
  329MOL0     C43321   1.541   6.760   4.355  0.2908 -0.3146 -0.9819
  329MOL0     C43322   1.562   6.784   4.491  0.3997  0.1251 -0.2679
  329MOL0     C43323   1.619   6.898   4.534  0.5533 -1.5006 -0.9391
  329MOL0     C43324   1.686   6.987   4.452 -0.4389 -0.1350  1.1713
  329MOL0     C43325   1.789   7.090   4.501  0.1340 -0.5598  0.2189
  329MOL0     O43326   1.778   7.131   4.630  0.1584 -0.0403 -0.1124
  329MOL0     C43327   1.870   7.214   4.674  0.0878 -0.2711 -0.3733
  329MOL0     C43328   1.994   7.177   4.736  0.5726 -0.4244 -0.3648
  329MOL0     C43329   2.092   7.267   4.755 -0.0498 -0.1484 -0.1049
  329MOL0     C43330   2.062   7.403   4.747  1.5046 -0.9428 -0.4426
  329MOL0     O43331   2.147   7.511   4.784 -0.4480  0.8850  0.2905
  329MOL0     C43332   2.261   7.479   4.863 -0.6637  0.1757  0.9759
  329MOL0     C43333   2.352   7.606   4.878 -0.0713  0.7545  0.6482
  329MOL0     C43334   2.479   7.572   4.950 -0.3172 -0.4477  0.2002
  329MOL0     C43335   2.558   7.702   4.976  0.3316 -0.2195 -0.4389
  329MOL0     C43336   2.692   7.669   5.040  0.3210  0.9777 -0.3159
  329MOL0     C43337   2.799   7.586   4.954 -0.0967 -0.3836 -0.3031
  329MOL0     C43338   2.939   7.608   5.015 -0.4947  0.3209  0.5487
  329MOL0     C43339   3.048   7.607   4.903 -0.3527 -0.5444  0.4985
  329MOL0    Cl43340   3.017   7.456   4.799  0.5918  0.0109  0.6094
  329MOL0     C43341   1.937   7.440   4.691  0.5639  0.1182  0.7102
  329MOL0     C43342   1.845   7.344   4.645 -0.2313 -0.2852 -0.1974
  329MOL0     O43343   1.871   7.129   4.422 -0.3753  0.5613  0.4911
  329MOL0     C43344   1.666   6.963   4.311  0.0118  0.3893  0.0573
  329MOL0     C43345   1.588   6.853   4.265 -0.2712  0.3936 -0.2604
  329MOL0     N43346   1.164   6.245   4.017  0.5045  0.8554  0.3690
  329MOL0     N43347   1.160   6.133   3.951 -0.2281 -0.1189  0.5933
  329MOL0     C43348   0.303   5.288   3.897 -0.1193 -0.0067  0.8165
  329MOL0     C43349   0.177   5.246   3.879  0.5440 -0.7659  0.7473
  329MOL0     C43350  -0.199   5.185   3.633  0.2997  0.0656 -0.3570
  329MOL0     C43351  -0.209   5.087   3.532 -0.9405  0.0644 -0.2770
  329MOL0     C43352  -0.332   5.032   3.507 -0.1889  0.5214 -0.9875
  329MOL0     C43353  -0.450   5.071   3.582 -0.0825  0.0572 -0.9246
  329MOL0     O43354  -0.570   5.000   3.555 -0.3673 -0.3603  0.0921
  329MOL0     C43355  -0.661   4.980   3.664 -1.1847 -0.4507 -0.1651
  329MOL0     C43356  -0.760   4.877   3.626 -1.0383  0.3563 -0.5552
  329MOL0     C43357  -0.692   4.734   3.637  0.2294 -0.5275  0.3033
  329MOL0     C43358  -0.795   4.635   3.590  0.9846 -0.1286 -0.1448
  329MOL0     C43359  -0.806   4.611   3.447  0.8212  0.0448 -0.0360
  329MOL0     C43360  -0.803   4.592   3.333 -0.1911 -0.1534  0.3719
  329MOL0     C43361  -0.432   5.171   3.679  0.0241  0.2946  0.5186
  329MOL0     C43362  -0.309   5.233   3.700  0.2480  0.3530  0.5640
  329MOL0     H43363   0.052   5.554   3.737  2.9680  1.4874  0.4370
  329MOL0     H43364   0.257   5.616   3.814 -0.7588  0.8233  1.8846
  329MOL0     H43365   0.484   5.660   3.772  1.1903 -0.1354 -1.3939
  329MOL0     H43366   0.475   5.527   3.672  0.7703  2.0958 -0.4117
  329MOL0     H43367   0.699   5.559   3.676  0.4286  1.0339  0.5392
  329MOL0     H43368   0.699   5.456   3.823  1.1604  0.1410 -1.8315
  329MOL0     H43369   0.638   5.651   3.966  0.0203 -1.1642  0.7459
  329MOL0     H43370   0.661   5.759   3.825 -0.8709 -2.4893 -2.5293
  329MOL0     H43371   0.855   5.598   3.993 -0.0175  2.1599  0.2982
  329MOL0     H43372   0.902   5.683   3.833  0.1957  1.2079 -1.1632
  329MOL0     H43373   0.785   5.791   4.102  2.6878  2.1574  3.0557
  329MOL0     H43374   0.830   5.892   3.964  2.2040  0.0854  1.9128
  329MOL0     H43375   1.026   5.725   4.119 -1.5223 -1.0660 -1.4072
  329MOL0     H43376   0.995   5.895   4.138  2.3115 -1.4344  2.0206
  329MOL0     H43377   1.127   5.724   3.905 -0.2829  0.6543 -2.5749
  329MOL0     H43378   1.056   5.883   3.864 -0.9273 -0.8240  1.0521
  329MOL0     H43379   1.300   5.885   3.918  0.6864  0.9460 -0.1888
  329MOL0     H43380   1.272   5.856   4.088 -0.4542  2.2713  1.6016
  329MOL0     H43381   1.209   6.034   4.256  0.7231 -2.1497 -1.3728
  329MOL0     H43382   1.246   6.286   4.355  1.3830 -0.5257  0.0509
  329MOL0     H43383   1.096   6.333   4.294 -0.3902 -2.0455 -1.1403
  329MOL0     H43384   1.232   6.532   4.303  0.8265 -1.5377  2.6921
  329MOL0     H43385   1.191   6.499   4.143  3.7884  3.9571  0.1570
  329MOL0     H43386   1.466   6.398   4.237  0.9796 -2.2595 -3.1224
  329MOL0     H43387   1.428   6.418   4.084  0.6511 -3.1629 -0.0041
  329MOL0     H43388   1.382   6.675   4.134 -1.1295 -1.9439 -0.5351
  329MOL0     H43389   1.554   6.613   4.112  0.9455 -5.3762 -0.6335
  329MOL0     H43390   1.523   6.717   4.567 -0.0172  1.1299  0.4192
  329MOL0     H43391   1.601   6.928   4.637 -0.1319  0.8667 -1.6736
  329MOL0     H43392   2.006   7.072   4.758 -0.8052 -0.8119 -1.3458
  329MOL0     H43393   2.187   7.230   4.791  0.3563  0.9291 -0.0222
  329MOL0     H43394   2.325   7.403   4.817  0.7665  1.3479  0.9499
  329MOL0     H43395   2.211   7.451   4.956 -2.4641  0.8759  0.2535
  329MOL0     H43396   2.306   7.693   4.924  4.2356  2.9695  1.2137
  329MOL0     H43397   2.376   7.632   4.774  0.4808  1.7057  1.0100
  329MOL0     H43398   2.545   7.516   4.883  3.2314  2.7875  0.6737
  329MOL0     H43399   2.448   7.524   5.044 -1.1375 -1.3963 -0.5356
  329MOL0     H43400   2.587   7.758   4.886  1.7865  0.9438  0.7088
  329MOL0     H43401   2.487   7.756   5.039  1.6337 -0.8243  1.6403
  329MOL0     H43402   2.683   7.610   5.132  0.9937 -1.7875 -1.8886
  329MOL0     H43403   2.727   7.770   5.061 -1.3926  1.4636  0.3747
  329MOL0     H43404   2.800   7.619   4.850 -0.2032  1.1234  0.1531
  329MOL0     H43405   2.764   7.482   4.954  0.6035 -0.7022  2.5966
  329MOL0     H43406   2.950   7.696   5.078  1.5709 -0.7361  1.7785
  329MOL0     H43407   2.957   7.523   5.082 -0.0661 -2.3967 -2.7451
  329MOL0     H43408   3.150   7.608   4.943 -0.4837  0.2764  0.8259
  329MOL0     H43409   3.047   7.707   4.861 -0.8009  0.7549  3.3300
  329MOL0     H43410   1.919   7.544   4.661 -0.4364 -0.6136 -1.4923
  329MOL0     H43411   1.750   7.369   4.597 -0.1045  0.1205 -0.2425
  329MOL0     H43412   1.698   7.032   4.234 -0.8299  1.4977  0.6749
  329MOL0     H43413   1.570   6.831   4.160 -1.7198 -2.3382  0.4654
  329MOL0     H43414   0.370   5.230   3.960  3.3770  0.8718 -1.7542
  329MOL0     H43415   0.144   5.146   3.907 -0.2159 -0.0439  2.6264
  329MOL0     H43416  -0.120   5.053   3.481 -1.9751 -1.1970 -1.3133
  329MOL0     H43417  -0.352   4.970   3.420 -0.5884  0.2305 -0.6918
  329MOL0     H43418  -0.713   5.072   3.692 -0.0328  1.4330 -3.6714
  329MOL0     H43419  -0.609   4.956   3.757 -0.6800  2.6789  0.4376
  329MOL0     H43420  -0.837   4.886   3.703 -0.2757 -1.3879  0.4655
  329MOL0     H43421  -0.810   4.900   3.531 -0.5029  4.2800 -0.0155
  329MOL0     H43422  -0.668   4.715   3.742 -0.7468  3.9239  1.5348
  329MOL0     H43423  -0.600   4.733   3.579  0.3824 -0.8624  0.5511
  329MOL0     H43424  -0.778   4.536   3.633  1.1785  0.2171  0.5770
  329MOL0     H43425  -0.891   4.677   3.620  0.2640 -0.3425 -2.0183
  329MOL0     H43426  -0.789   4.557   3.232 -2.0531 -2.3694  0.8073
  329MOL0     H43427  -0.523   5.183   3.737 -0.0571 -0.4202  0.5476
  329MOL0     H43428  -0.301   5.312   3.775  1.1951 -2.0341  3.1457
  330MOL0     O43429   9.991   4.370   0.093  0.4641 -0.4116  0.0459
  330MOL0     C43430   9.994   4.249   0.108 -0.3387 -0.0401  0.3850
  330MOL0     O43431   9.885   4.169   0.127 -0.3312 -0.5675 -0.4877
  330MOL0     C43432   9.758   4.223   0.095  0.3143  0.2274  0.5949
  330MOL0     C43433   9.727   4.283  -0.031  0.7868  0.6234  0.1927
  330MOL0     C43434   9.599   4.328  -0.072 -0.1860  0.7828 -0.9179
  330MOL0     C43435   9.496   4.327   0.032 -0.3982 -0.4233  0.4729
  330MOL0     O43436   9.382   4.383   0.003  0.6470  0.3958  0.1222
  330MOL0     C43437   9.280   4.320  -0.082  1.1690  0.0358  1.1807
  330MOL0     C43438   9.158   4.419  -0.074  0.0872 -0.2632  0.0290
  330MOL0     C43439   9.039   4.382  -0.163  0.4956 -0.8400 -0.8375
  330MOL0     C43440   8.980   4.251  -0.131 -0.7367 -0.1118 -0.6095
  330MOL0     C43441   8.868   4.213  -0.212  0.2396  0.1733  1.0548
  330MOL0     C43442   8.798   4.088  -0.155  0.2250  0.6260  0.2188
  330MOL0     C43443   8.665   4.043  -0.232 -0.3763  0.3555  0.3668
  330MOL0     C43444   8.549   4.149  -0.231 -0.1130 -0.7977 -0.0628
  330MOL0     N43445   8.437   4.116  -0.318  0.3428  0.5600  0.3794
  330MOL0     C43446   8.340   4.018  -0.303 -0.2109  0.2364 -0.1411
  330MOL0     C43447   8.275   4.012  -0.414  0.1809  0.2475 -0.6392
  330MOL0     C43448   8.178   3.902  -0.436  1.4341  0.6681  0.0620
  330MOL0     C43449   8.244   3.789  -0.515  0.0741 -0.2122 -0.1499
  330MOL0     C43450   8.164   3.668  -0.563  0.6925  0.5364 -0.6351
  330MOL0     C43451   8.146   3.554  -0.457  0.2187  0.6901  0.3333
  330MOL0     O43452   8.125   3.428  -0.534 -0.5200 -0.6998  0.3938
  330MOL0     C43453   8.227   3.341  -0.555  0.2813  0.1401 -0.1428
  330MOL0     C43454   8.365   3.349  -0.542 -0.4520  0.1231 -0.0108
  330MOL0     C43455   8.458   3.250  -0.564  0.2601  0.6724 -0.1244
  330MOL0     C43456   8.410   3.124  -0.619 -0.2995 -0.6141 -0.0914
  330MOL0     C43457   8.502   3.027  -0.655 -0.8220  0.1787  0.1276
  330MOL0     O43458   8.451   2.922  -0.734  0.3731  0.1940  0.3707
  330MOL0     C43459   8.525   2.805  -0.756 -0.3697  0.7729  0.4100
  330MOL0     C43460   8.465   2.692  -0.703 -0.4949  0.6869 -0.9801
  330MOL0     C43461   8.512   2.565  -0.733  0.0167 -0.7199 -0.8216
  330MOL0     C43462   8.629   2.550  -0.808 -0.0008  0.2079 -0.4291
  330MOL0     O43463   8.691   2.427  -0.838 -0.2292  0.2430 -0.0394
  330MOL0     C43464   8.636   2.302  -0.792 -0.0803 -0.0156  0.7199
  330MOL0     C43465   8.750   2.202  -0.778 -0.0744  0.3985 -0.4358
  330MOL0     C43466   8.776   2.124  -0.907 -0.5334  0.9795 -1.1276
  330MOL0     C43467   8.841   1.987  -0.904  0.5908 -0.1351 -0.2647
  330MOL0     C43468   8.846   1.942  -1.050  0.0430 -0.4798 -0.2602
  330MOL0     C43469   8.951   1.834  -1.067  0.5957 -0.1321 -1.0028
  330MOL0     C43470   9.022   1.851  -1.205  0.2621 -0.2067 -0.3063
  330MOL0     C43471   8.931   1.790  -1.314  0.0443 -0.0859 -0.9586
  330MOL0    Cl43472   9.016   1.773  -1.470 -0.3864 -0.5350  0.3701
  330MOL0     C43473   8.695   2.659  -0.852 -0.2972 -0.8300  0.4889
  330MOL0     C43474   8.648   2.793  -0.815  0.1035  0.3042 -0.2732
  330MOL0     O43475   8.608   3.024  -0.592 -0.1343 -0.2631  0.6624
  330MOL0     C43476   8.271   3.118  -0.630  0.3166  0.3994  0.8148
  330MOL0     C43477   8.180   3.220  -0.598  0.3429  0.4014 -0.2250
  330MOL0     N43478   8.308   4.112  -0.498 -0.5640 -0.8485  0.3852
  330MOL0     N43479   8.411   4.172  -0.438 -0.0084 -0.9661  0.0543
  330MOL0     C43480   9.535   4.276   0.155  0.2275  0.7027 -1.0394
  330MOL0     C43481   9.665   4.229   0.191  0.3964 -0.3474  0.1069
  330MOL0     C43482  10.128   4.181   0.122  0.7650 -0.1618  0.6254
  330MOL0     C43483  10.135   4.060   0.189 -0.0376 -0.3306  0.9796
  330MOL0     C43484  10.259   3.987   0.182  0.0265 -0.7185 -1.2508
  330MOL0     C43485  10.366   4.037   0.108  0.1351  0.4753 -0.1202
  330MOL0     O43486  10.478   3.954   0.093 -0.6119  0.0428 -0.4378
  330MOL0     C43487  10.554   3.938   0.221 -0.3150 -0.5500  0.3148
  330MOL0     C43488  10.699   3.903   0.190 -0.7514 -0.6356  0.8082
  330MOL0     C43489  10.793   3.927   0.306  0.3979 -0.3462 -1.0672
  330MOL0     C43490  10.758   3.835   0.429  0.5502 -0.3315  0.2037
  330MOL0     C43491  10.810   3.893   0.555 -0.3396  0.3861  0.2409
  330MOL0     C43492  10.855   3.916   0.665 -0.5018 -0.0454 -0.0158
  330MOL0     C43493  10.361   4.167   0.053  0.5607 -0.4241  0.8006
  330MOL0     C43494  10.238   4.237   0.055 -0.2209 -0.2923 -0.3417
  330MOL0     H43495   9.812   4.273  -0.097  1.8849  3.8993  0.9338
  330MOL0     H43496   9.570   4.356  -0.172 -0.0698 -0.1190 -1.2103
  330MOL0     H43497   9.253   4.218  -0.053 -1.7005 -0.3308 -2.1133
  330MOL0     H43498   9.319   4.306  -0.183  1.5909 -0.7336  1.4384
  330MOL0     H43499   9.199   4.520  -0.087 -0.9512  0.8135  3.7934
  330MOL0     H43500   9.115   4.431   0.026  2.0424 -0.7325  0.9785
  330MOL0     H43501   9.073   4.399  -0.266 -2.3549  1.7960 -1.5036
  330MOL0     H43502   8.960   4.456  -0.151  0.8399 -0.5916 -0.0277
  330MOL0     H43503   9.054   4.171  -0.134 -0.5388 -0.0339  1.1966
  330MOL0     H43504   8.946   4.267  -0.028  0.7684 -0.6764  0.0076
  330MOL0     H43505   8.889   4.183  -0.315 -2.7241  1.4447 -0.0281
  330MOL0     H43506   8.793   4.291  -0.229 -1.3658 -1.3010  1.0780
  330MOL0     H43507   8.770   4.108  -0.051 -3.2315  1.6758 -0.7909
  330MOL0     H43508   8.866   4.005  -0.175  2.2212  2.6995 -2.3220
  330MOL0     H43509   8.690   4.017  -0.335 -2.1561 -2.9383  0.6254
  330MOL0     H43510   8.636   3.951  -0.181  2.5135 -2.2125 -2.2378
  330MOL0     H43511   8.579   4.243  -0.278  1.0401 -0.4060  1.3916
  330MOL0     H43512   8.516   4.169  -0.128  3.0117 -2.6280  1.4496
  330MOL0     H43513   8.337   3.951  -0.217  1.9768 -4.9608 -3.6285
  330MOL0     H43514   8.088   3.939  -0.487  1.1819  0.8998  0.6711
  330MOL0     H43515   8.152   3.865  -0.336  1.9564  1.5173  0.5184
  330MOL0     H43516   8.335   3.757  -0.462  3.1610 -0.0951 -4.8255
  330MOL0     H43517   8.272   3.840  -0.607 -5.5603  0.7125 -1.7032
  330MOL0     H43518   8.066   3.698  -0.601  0.7423 -1.4580 -2.5635
  330MOL0     H43519   8.209   3.621  -0.650 -3.2203 -0.6002 -2.2492
  330MOL0     H43520   8.057   3.578  -0.398 -1.3924  0.2659 -1.7794
  330MOL0     H43521   8.233   3.540  -0.392  0.1650 -0.9609  0.0932
  330MOL0     H43522   8.406   3.448  -0.524  0.1210  0.0915 -1.0527
  330MOL0     H43523   8.560   3.275  -0.539 -0.0869 -0.2582  2.6673
  330MOL0     H43524   8.387   2.709  -0.630 -0.6911  1.6675 -1.3966
  330MOL0     H43525   8.464   2.486  -0.677 -1.3184  2.0627  2.3067
  330MOL0     H43526   8.556   2.254  -0.851 -2.0009 -0.9088  3.8247
  330MOL0     H43527   8.599   2.313  -0.690  0.2454 -0.8682  0.9420
  330MOL0     H43528   8.721   2.131  -0.699  2.2744 -0.3631 -0.1691
  330MOL0     H43529   8.834   2.260  -0.737  1.5432 -0.0973 -2.8662
  330MOL0     H43530   8.830   2.190  -0.975  0.7107 -1.3664 -2.5275
  330MOL0     H43531   8.685   2.098  -0.961  0.3875 -0.0272 -2.2453
  330MOL0     H43532   8.938   1.986  -0.853  0.3935  0.0407  0.1220
  330MOL0     H43533   8.769   1.936  -0.839 -1.3785  0.6472 -1.7356
  330MOL0     H43534   8.871   2.027  -1.115  1.7316 -0.5577  0.2161
  330MOL0     H43535   8.746   1.917  -1.085  0.4251 -0.1757 -1.5971
  330MOL0     H43536   8.896   1.742  -1.049  0.4431  0.4910  2.3396
  330MOL0     H43537   9.025   1.834  -0.986 -0.6571 -0.8541  0.1751
  330MOL0     H43538   9.043   1.956  -1.226  0.0157  0.2015  1.2933
  330MOL0     H43539   9.108   1.785  -1.200  1.0905  0.8042 -0.8906
  330MOL0     H43540   8.834   1.840  -1.318  0.2325  0.2931 -0.8569
  330MOL0     H43541   8.902   1.696  -1.267 -0.4823  0.8873  0.7479
  330MOL0     H43542   8.787   2.632  -0.903 -0.9479 -3.6234  0.5951
  330MOL0     H43543   8.705   2.883  -0.837  1.8243 -0.3132  1.4516
  330MOL0     H43544   8.224   3.028  -0.669 -1.5277  2.2533 -1.5906
  330MOL0     H43545   8.073   3.207  -0.598  0.5774 -2.1080 -0.7740
  330MOL0     H43546   9.454   4.283   0.228  2.0777 -0.6364  1.2959
  330MOL0     H43547   9.680   4.168   0.280 -0.5761  1.7209  1.7722
  330MOL0     H43548  10.052   4.037   0.255  0.6254  0.2840  2.0713
  330MOL0     H43549  10.265   3.887   0.224 -3.2372 -0.1267  1.0176
  330MOL0     H43550  10.507   3.854   0.274 -0.2718  0.0149  1.2701
  330MOL0     H43551  10.552   4.034   0.273  2.6174  1.1807 -2.3965
  330MOL0     H43552  10.714   3.797   0.167  3.9671 -0.3716  1.6336
  330MOL0     H43553  10.722   3.969   0.106 -1.1696  0.3833  1.4731
  330MOL0     H43554  10.790   4.032   0.336 -1.4826 -0.8162  0.5972
  330MOL0     H43555  10.898   3.906   0.286  2.1658  2.1367  3.9961
  330MOL0     H43556  10.649   3.833   0.437  0.5919 -1.8194  0.8001
  330MOL0     H43557  10.785   3.731   0.406 -0.9457 -0.4729 -1.0695
  330MOL0     H43558  10.873   3.953   0.763 -1.4497 -0.7641  0.4496
  330MOL0     H43559  10.450   4.207   0.007  1.0949  1.3972  3.1852
  330MOL0     H43560  10.236   4.333   0.005 -0.1143  0.2231  0.6320
  331MOL0     O43561   9.686   9.046   5.647  0.4104  0.2987 -0.7303
  331MOL0     C43562   9.715   8.930   5.613 -0.3083 -0.1143  0.2360
  331MOL0     O43563   9.626   8.829   5.579  0.0904 -0.2901  0.0609
  331MOL0     C43564   9.495   8.853   5.580  0.6095  0.0329  0.7047
  331MOL0     C43565   9.406   8.784   5.663  0.2767  0.6917 -0.3274
  331MOL0     C43566   9.269   8.820   5.664 -0.9409 -0.6557 -0.1790
  331MOL0     C43567   9.225   8.921   5.571  0.8217  1.2319  0.4323
  331MOL0     O43568   9.092   8.932   5.543 -0.1284 -0.5415  0.1544
  331MOL0     C43569   9.002   8.837   5.593  0.3160 -0.5135  0.7485
  331MOL0     C43570   8.866   8.862   5.525 -0.2059  0.5709  0.1764
  331MOL0     C43571   8.763   8.746   5.553 -0.2871 -0.8215  0.3832
  331MOL0     C43572   8.815   8.612   5.501  0.0462 -0.0962 -0.5840
  331MOL0     C43573   8.701   8.517   5.515  0.1337  0.1085  0.2021
  331MOL0     C43574   8.597   8.514   5.398  0.5285  0.1705 -0.4541
  331MOL0     C43575   8.505   8.409   5.445  0.8225 -0.6131  0.0524
  331MOL0     C43576   8.409   8.382   5.334 -0.1026  0.7053  0.4354
  331MOL0     N43577   8.301   8.293   5.359 -0.4760  0.1952  0.7794
  331MOL0     C43578   8.323   8.155   5.345 -0.6392  0.4505  0.5793
  331MOL0     C43579   8.202   8.097   5.344  0.0891  0.0384 -0.4257
  331MOL0     C43580   8.164   7.958   5.314 -1.0231  0.1287  0.3717
  331MOL0     C43581   8.169   7.870   5.448  1.0533  0.5126  0.3195
  331MOL0     C43582   8.100   7.735   5.417 -0.7933 -0.0646  0.0102
  331MOL0     C43583   8.202   7.627   5.363  0.0752  0.4617  0.6322
  331MOL0     O43584   8.300   7.569   5.455 -0.1967 -0.1114 -0.4195
  331MOL0     C43585   8.427   7.624   5.458 -0.1520  0.0461 -0.3889
  331MOL0     C43586   8.506   7.581   5.556  0.3577  1.6924  0.0494
  331MOL0     C43587   8.629   7.635   5.586  0.3369 -0.6172  0.1387
  331MOL0     C43588   8.670   7.752   5.514  0.7089  0.7614 -1.2453
  331MOL0     C43589   8.805   7.811   5.532 -0.3573 -0.2874  0.0674
  331MOL0     O43590   8.897   7.721   5.569 -0.1968 -0.5945 -0.1110
  331MOL0     C43591   9.026   7.760   5.591  0.1224  0.1522 -0.9388
  331MOL0     C43592   9.056   7.885   5.654 -0.5341 -0.8640  1.1386
  331MOL0     C43593   9.191   7.906   5.688  0.8602 -0.0432 -1.0398
  331MOL0     C43594   9.300   7.824   5.651 -0.0227 -0.7372  1.3253
  331MOL0     O43595   9.420   7.854   5.698 -0.1356 -0.4248  0.8155
  331MOL0     C43596   9.452   7.981   5.761 -0.1692  0.9011  0.8859
  331MOL0     C43597   9.591   7.959   5.825 -1.0109  0.1593 -1.3547
  331MOL0     C43598   9.693   7.965   5.710 -0.2525  0.4305  0.8427
  331MOL0     C43599   9.835   7.972   5.763  0.3134  0.8729  0.2070
  331MOL0     C43600   9.925   7.995   5.650  0.0424  0.3918  0.3823
  331MOL0     C43601   9.938   8.145   5.619 -0.2846 -0.7275 -0.5204
  331MOL0     C43602  10.042   8.161   5.513 -0.3681  0.9295  0.3891
  331MOL0     C43603  10.088   8.301   5.501 -0.7754  0.8828 -0.0148
  331MOL0    Cl43604  10.196   8.347   5.639  0.2758 -0.6216  0.4241
  331MOL0     C43605   9.266   7.710   5.575  0.2289  0.5402 -0.1566
  331MOL0     C43606   9.135   7.685   5.548  0.8330  0.0699  0.5293
  331MOL0     O43607   8.817   7.929   5.503 -0.5323 -0.1369  0.5707
  331MOL0     C43608   8.594   7.787   5.407  0.5722 -0.6049 -0.8625
  331MOL0     C43609   8.477   7.721   5.373  1.3480  0.4461 -0.3889
  331MOL0     N43610   8.112   8.194   5.378  0.7719  0.9595 -1.1502
  331MOL0     N43611   8.166   8.311   5.388  0.5899  0.9717 -0.6279
  331MOL0     C43612   9.312   8.993   5.492 -0.1774 -0.7709  0.0576
  331MOL0     C43613   9.447   8.956   5.497 -1.1520  0.3047 -0.6292
  331MOL0     C43614   9.857   8.890   5.611 -0.5914  0.6311 -0.0083
  331MOL0     C43615   9.932   8.910   5.733 -0.1037  0.7189 -0.1813
  331MOL0     C43616  10.066   8.863   5.740 -0.2172  0.3996  0.5599
  331MOL0     C43617  10.129   8.796   5.634  0.0296 -0.4492  0.3122
  331MOL0     O43618  10.261   8.760   5.631  0.1562  0.5135 -0.3567
  331MOL0     C43619  10.341   8.725   5.754  0.0646  0.7672 -0.0072
  331MOL0     C43620  10.433   8.833   5.811 -0.5508  0.2644  0.1764
  331MOL0     C43621  10.518   8.796   5.940  0.4824  0.6033  0.3430
  331MOL0     C43622  10.514   8.640   5.975 -0.4781  0.6434  0.3566
  331MOL0     C43623  10.626   8.573   5.900  0.1810 -0.0598 -0.8157
  331MOL0     C43624  10.704   8.492   5.844 -0.1983 -0.1427 -0.3372
  331MOL0     C43625  10.052   8.785   5.519 -0.6647 -0.3304 -0.5318
  331MOL0     C43626   9.917   8.826   5.500 -0.3375 -0.1934 -0.6197
  331MOL0     H43627   9.441   8.704   5.728  0.8114 -2.0624 -3.7238
  331MOL0     H43628   9.200   8.768   5.729 -4.2398 -0.0505 -2.9719
  331MOL0     H43629   8.991   8.847   5.701  1.4776 -4.2098  1.3160
  331MOL0     H43630   9.035   8.739   5.559 -1.3806 -0.6127 -0.7979
  331MOL0     H43631   8.886   8.865   5.417 -3.6368  1.7962 -0.5430
  331MOL0     H43632   8.809   8.950   5.558 -0.7975  0.3906 -0.3587
  331MOL0     H43633   8.664   8.771   5.515 -0.3713  1.2151  1.7437
  331MOL0     H43634   8.754   8.730   5.661  1.3391  3.0649  1.2735
  331MOL0     H43635   8.852   8.614   5.398  0.9559  1.5129 -0.2605
  331MOL0     H43636   8.890   8.583   5.575 -1.2229  1.0362  1.2248
  331MOL0     H43637   8.651   8.540   5.610  2.2402  1.6963  1.0021
  331MOL0     H43638   8.746   8.417   5.523  2.4833  1.0726 -0.1461
  331MOL0     H43639   8.646   8.501   5.301 -0.3084  3.1224 -1.3863
  331MOL0     H43640   8.544   8.609   5.392  1.4207  0.6158 -1.7751
  331MOL0     H43641   8.559   8.319   5.473  2.7357 -0.0271 -1.5419
  331MOL0     H43642   8.452   8.429   5.539 -1.3186 -1.5835 -0.8793
  331MOL0     H43643   8.470   8.327   5.262  1.5595  0.1940  2.1625
  331MOL0     H43644   8.378   8.479   5.295 -2.3037  0.5489  1.5756
  331MOL0     H43645   8.414   8.100   5.321  0.3342  1.0155  2.7656
  331MOL0     H43646   8.237   7.924   5.240 -2.2637  1.5588 -1.6231
  331MOL0     H43647   8.067   7.952   5.263 -0.4884  0.0375 -0.6575
  331MOL0     H43648   8.117   7.913   5.535  0.0614 -1.0660  0.5585
  331MOL0     H43649   8.271   7.859   5.488  1.2728 -1.1344 -0.5950
  331MOL0     H43650   8.052   7.693   5.506 -0.0628  0.4226  0.6484
  331MOL0     H43651   8.018   7.727   5.345 -0.6393 -0.0460 -0.1680
  331MOL0     H43652   8.239   7.659   5.266 -0.2569 -2.7268 -0.6627
  331MOL0     H43653   8.152   7.536   5.327  4.5604 -1.5324 -1.2046
  331MOL0     H43654   8.479   7.493   5.613 -2.7392  2.8665  0.5756
  331MOL0     H43655   8.684   7.593   5.670  0.2297 -2.8945 -0.8524
  331MOL0     H43656   8.975   7.954   5.677 -0.2396  0.8334 -2.2329
  331MOL0     H43657   9.212   7.990   5.753 -0.0107 -1.8377  1.7164
  331MOL0     H43658   9.380   8.003   5.841  0.8192  0.4056  1.9481
  331MOL0     H43659   9.450   8.066   5.693 -1.0671  3.0109  3.3792
  331MOL0     H43660   9.602   7.861   5.872 -1.4631 -0.8207 -3.2009
  331MOL0     H43661   9.619   8.038   5.895  0.7880 -0.8362 -0.8693
  331MOL0     H43662   9.676   8.060   5.659 -2.7869  1.5822  3.5952
  331MOL0     H43663   9.675   7.885   5.638 -1.4893 -1.9631  3.6133
  331MOL0     H43664   9.837   8.051   5.839  0.3973  1.7693 -0.7104
  331MOL0     H43665   9.864   7.874   5.802 -3.8488 -0.5072  0.3279
  331MOL0     H43666   9.901   7.942   5.557  0.5513  1.5605 -0.4376
  331MOL0     H43667  10.024   7.961   5.682  1.0742  1.6637 -1.2740
  331MOL0     H43668   9.975   8.199   5.707  2.2841 -3.7088  0.4233
  331MOL0     H43669   9.845   8.191   5.585  0.1990  0.0847 -0.7827
  331MOL0     H43670  10.137   8.110   5.534 -0.6708 -0.6369 -1.7402
  331MOL0     H43671   9.996   8.134   5.417 -4.2659  0.4581  2.2221
  331MOL0     H43672  10.004   8.370   5.507 -1.0253  0.4819  3.8064
  331MOL0     H43673  10.144   8.312   5.408  2.1680  0.5862  1.5858
  331MOL0     H43674   9.350   7.649   5.543 -0.8690 -3.4318  3.6516
  331MOL0     H43675   9.111   7.586   5.510  1.7496  0.2746 -0.6436
  331MOL0     H43676   8.611   7.874   5.344  3.4048  1.7395  2.7366
  331MOL0     H43677   8.408   7.759   5.299  0.1014  0.7049  0.8468
  331MOL0     H43678   9.286   9.055   5.407 -0.9895  0.2043  0.9845
  331MOL0     H43679   9.519   8.997   5.426 -1.1153  1.3543  0.0093
  331MOL0     H43680   9.883   8.957   5.817  0.3564 -0.8159  1.0061
  331MOL0     H43681  10.110   8.880   5.838 -0.8842  2.2797  0.5711
  331MOL0     H43682  10.381   8.624   5.741 -0.3558  0.2427  2.3156
  331MOL0     H43683  10.269   8.717   5.836  1.3939  0.4616  1.1712
  331MOL0     H43684  10.512   8.863   5.741  0.6860  1.9056  2.1541
  331MOL0     H43685  10.376   8.926   5.816 -1.4449 -0.1914 -1.0402
  331MOL0     H43686  10.458   8.841   6.019 -2.1968  0.4006 -1.4541
  331MOL0     H43687  10.613   8.850   5.951 -1.0300  3.6605 -0.5062
  331MOL0     H43688  10.534   8.635   6.082  1.1647  2.3634  0.1952
  331MOL0     H43689  10.415   8.597   5.955  0.1047 -0.0712 -1.1400
  331MOL0     H43690  10.772   8.422   5.799 -2.1132 -4.5693  2.8957
  331MOL0     H43691  10.099   8.744   5.429  0.8204  4.1187 -2.0643
  331MOL0     H43692   9.868   8.815   5.404 -3.0670 -2.6566  0.8840
  332MOL0     O43693   8.599   2.915   1.659 -0.1320 -0.1922 -0.4537
  332MOL0     C43694   8.653   2.862   1.563 -0.2058  0.2491  0.1698
  332MOL0     O43695   8.783   2.822   1.565  0.9583  0.5362  0.2976
  332MOL0     C43696   8.861   2.848   1.671 -0.3951 -0.6201 -0.6364
  332MOL0     C43697   8.956   2.747   1.690 -0.3294  0.5516  0.2772
  332MOL0     C43698   9.051   2.755   1.783  0.5478  0.3954 -0.4851
  332MOL0     C43699   9.058   2.868   1.869  0.2173  0.1341 -0.7240
  332MOL0     O43700   9.147   2.874   1.971 -0.0952  0.1939 -0.0143
  332MOL0     C43701   9.199   2.757   2.024 -0.3131 -0.5195  0.1896
  332MOL0     C43702   9.264   2.788   2.147 -0.2409 -0.5200  0.1731
  332MOL0     C43703   9.369   2.682   2.192  0.3172  0.4357  0.3685
  332MOL0     C43704   9.402   2.698   2.336 -1.1341  0.9795 -0.8590
  332MOL0     C43705   9.531   2.627   2.383  0.4704 -0.3008  0.1136
  332MOL0     C43706   9.547   2.659   2.532 -0.2513 -0.4628  0.2431
  332MOL0     C43707   9.695   2.642   2.582  0.0863  0.8187 -1.1643
  332MOL0     C43708   9.723   2.498   2.566 -0.5156  0.2760 -0.4390
  332MOL0     N43709   9.844   2.459   2.641 -0.0663  0.2898  0.5773
  332MOL0     C43710   9.965   2.520   2.631 -0.0651 -0.1998 -0.1741
  332MOL0     C43711  10.045   2.443   2.709  0.3906  0.1875  0.1756
  332MOL0     C43712  10.199   2.443   2.732  0.1466 -0.2888  0.1407
  332MOL0     C43713  10.277   2.526   2.623 -0.4006 -0.9219  0.5664
  332MOL0     C43714  10.274   2.443   2.494  0.3024 -0.4344 -0.5505
  332MOL0     C43715  10.362   2.504   2.385  0.1071  0.6563  0.5516
  332MOL0     O43716  10.491   2.551   2.433 -0.3218 -0.5212 -0.2259
  332MOL0     C43717  10.610   2.530   2.360 -0.0811 -0.1866  0.8384
  332MOL0     C43718  10.733   2.567   2.424 -0.5628  0.1311 -0.1712
  332MOL0     C43719  10.860   2.553   2.357  0.0673 -0.7885 -0.3524
  332MOL0     C43720  10.871   2.490   2.232  0.0305 -0.0149  0.8610
  332MOL0     C43721  10.997   2.475   2.158  0.9201 -0.5538  0.5565
  332MOL0     O43722  11.107   2.490   2.232  0.0930  0.3626 -0.0741
  332MOL0     C43723  11.220   2.451   2.177 -0.3396 -0.6831 -0.0410
  332MOL0     C43724  11.329   2.534   2.201  0.4134  0.2478  0.2593
  332MOL0     C43725  11.452   2.486   2.164 -0.0264  0.0730  0.0938
  332MOL0     C43726  11.473   2.368   2.095  0.3526  0.1528 -0.3237
  332MOL0     O43727  11.588   2.323   2.041 -0.6129  0.3148 -0.5306
  332MOL0     C43728  11.713   2.403   2.053  0.9489  0.3521  0.2707
  332MOL0     C43729  11.836   2.320   2.027 -0.1395 -0.4785  0.3531
  332MOL0     C43730  11.949   2.403   2.097 -0.5807 -0.4557  1.0614
  332MOL0     C43731  12.092   2.374   2.026  0.4542 -0.1789 -0.0184
  332MOL0     C43732  12.219   2.431   2.098 -0.2607 -0.7060 -0.5784
  332MOL0     C43733  12.230   2.406   2.247 -0.4743 -0.4466 -0.9551
  332MOL0     C43734  12.368   2.441   2.317 -0.1595  0.7089  0.4273
  332MOL0     C43735  12.474   2.328   2.327  1.1843 -0.5501  0.2949
  332MOL0    Cl43736  12.397   2.193   2.408 -0.2002  0.1922  0.3102
  332MOL0     C43737  11.364   2.292   2.065 -0.6875  0.6535 -0.3815
  332MOL0     C43738  11.240   2.333   2.106 -0.5054  0.1764 -0.5562
  332MOL0     O43739  10.988   2.462   2.032  0.0253  0.1114  0.8140
  332MOL0     C43740  10.750   2.450   2.175  1.2135 -0.5676 -1.3585
  332MOL0     C43741  10.621   2.474   2.231 -0.5063 -0.0006 -0.2591
  332MOL0     N43742   9.964   2.342   2.767 -0.0231 -0.3052  0.0872
  332MOL0     N43743   9.850   2.359   2.725  0.1533 -0.0321 -0.6068
  332MOL0     C43744   8.968   2.976   1.845  0.0354 -0.4628 -0.1802
  332MOL0     C43745   8.874   2.971   1.745  0.5625  0.8326  0.9905
  332MOL0     C43746   8.574   2.857   1.431 -0.3923 -0.0639 -0.6193
  332MOL0     C43747   8.429   2.852   1.432  0.2488  0.3956  0.1392
  332MOL0     C43748   8.350   2.842   1.316  0.0042 -0.3278  0.1459
  332MOL0     C43749   8.417   2.851   1.187  0.1875 -0.4648  0.5972
  332MOL0     O43750   8.342   2.852   1.068  0.4897  0.3895 -0.9073
  332MOL0     C43751   8.203   2.802   1.058 -1.0142  0.0075 -0.0588
  332MOL0     C43752   8.136   2.866   0.938 -0.7079 -0.4820  0.8707
  332MOL0     C43753   7.996   2.913   0.981  0.0348  0.2982 -0.0013
  332MOL0     C43754   7.920   2.984   0.873  0.9615 -0.4332 -0.0152
  332MOL0     C43755   7.790   3.024   0.919 -0.1241  0.7153 -0.5368
  332MOL0     C43756   7.682   3.053   0.961  1.1606 -0.1565 -0.6726
  332MOL0     C43757   8.560   2.865   1.181 -0.0330  0.0033 -0.3536
  332MOL0     C43758   8.637   2.863   1.300  0.1190 -0.2210  0.8374
  332MOL0     H43759   8.962   2.663   1.621 -0.5752  0.0526  0.8601
  332MOL0     H43760   9.128   2.678   1.783 -0.5930 -0.7797  0.4351
  332MOL0     H43761   9.278   2.709   1.964  1.6984 -0.0084  2.2872
  332MOL0     H43762   9.122   2.682   2.045 -1.0488  0.2639  0.3200
  332MOL0     H43763   9.188   2.816   2.221 -1.8281  2.1763 -2.2424
  332MOL0     H43764   9.327   2.878   2.139  1.7715 -1.6565  2.1557
  332MOL0     H43765   9.456   2.686   2.127 -2.2419  2.5024 -3.3095
  332MOL0     H43766   9.320   2.584   2.182  0.4692  0.5698 -2.4169
  332MOL0     H43767   9.432   2.802   2.346 -2.1467  1.2320 -0.2653
  332MOL0     H43768   9.314   2.669   2.395 -1.9866  1.9089 -1.6349
  332MOL0     H43769   9.622   2.654   2.329  2.5056 -1.3875  2.7308
  332MOL0     H43770   9.534   2.521   2.357 -1.8211 -0.3671 -0.0711
  332MOL0     H43771   9.466   2.616   2.592  1.6497 -0.9088  2.5905
  332MOL0     H43772   9.539   2.769   2.531 -0.4977 -0.4240 -2.3253
  332MOL0     H43773   9.756   2.722   2.539 -1.4308  3.0459  0.5631
  332MOL0     H43774   9.701   2.662   2.689  1.6701 -3.0244 -0.3793
  332MOL0     H43775   9.734   2.467   2.462  2.8215  2.5785 -0.9101
  332MOL0     H43776   9.639   2.441   2.606  1.1189 -0.8124  1.6633
  332MOL0     H43777   9.991   2.602   2.565  0.2560  0.9092  1.2781
  332MOL0     H43778  10.235   2.340   2.731 -1.2362 -0.8583 -3.2264
  332MOL0     H43779  10.225   2.495   2.824 -1.4203  1.3881 -0.3033
  332MOL0     H43780  10.381   2.539   2.655 -0.3068  2.4225 -0.7652
  332MOL0     H43781  10.236   2.626   2.608 -0.2441 -0.6118  2.0611
  332MOL0     H43782  10.310   2.341   2.507 -0.5269 -1.1381 -3.1068
  332MOL0     H43783  10.173   2.435   2.451  0.3443 -0.8369 -0.5761
  332MOL0     H43784  10.313   2.585   2.330  0.2946  0.7917  0.5786
  332MOL0     H43785  10.377   2.422   2.315  1.9613 -1.8183  3.5956
  332MOL0     H43786  10.716   2.593   2.528  1.4266  0.1288  0.1838
  332MOL0     H43787  10.954   2.568   2.408 -0.3296  1.7066 -0.1829
  332MOL0     H43788  11.309   2.631   2.247  0.6216  1.1380 -1.4373
  332MOL0     H43789  11.545   2.538   2.186 -0.3306  0.9406 -0.6002
  332MOL0     H43790  11.716   2.419   2.161  2.4433 -0.0393  0.3135
  332MOL0     H43791  11.709   2.495   1.995  4.6592  0.7882  0.4609
  332MOL0     H43792  11.855   2.325   1.920  1.2856  1.3916  0.6251
  332MOL0     H43793  11.829   2.216   2.062 -2.0346 -0.3880  0.3470
  332MOL0     H43794  11.958   2.372   2.201 -0.0610 -0.6029  0.9720
  332MOL0     H43795  11.933   2.512   2.094 -2.2939 -0.6345  1.9307
  332MOL0     H43796  12.098   2.265   2.025 -2.7056 -0.4615  0.9760
  332MOL0     H43797  12.093   2.413   1.923  1.0890 -0.2005 -0.0201
  332MOL0     H43798  12.231   2.539   2.086  1.0426 -0.6928  0.6167
  332MOL0     H43799  12.312   2.393   2.055 -0.1907 -3.3442  1.6518
  332MOL0     H43800  12.201   2.304   2.273 -1.5426  0.5766  2.3909
  332MOL0     H43801  12.158   2.475   2.292 -0.8193 -0.2625 -1.7737
  332MOL0     H43802  12.412   2.534   2.279 -2.2156  0.8144 -1.9514
  332MOL0     H43803  12.329   2.466   2.416 -0.4503 -2.0925  1.0797
  332MOL0     H43804  12.566   2.357   2.379  1.4019  0.1670 -0.4554
  332MOL0     H43805  12.497   2.297   2.224 -0.2630  0.2615 -0.3027
  332MOL0     H43806  11.358   2.193   2.020  0.1188 -1.8937  4.4130
  332MOL0     H43807  11.146   2.281   2.092 -0.5899  0.3251 -0.5431
  332MOL0     H43808  10.769   2.404   2.078  1.3823 -0.5788 -1.3205
  332MOL0     H43809  10.536   2.440   2.173 -0.3432 -1.3747  0.2694
  332MOL0     H43810   8.981   3.067   1.903 -0.8381 -0.2384 -0.3210
  332MOL0     H43811   8.814   3.056   1.714  0.8438 -0.0625 -2.4052
  332MOL0     H43812   8.383   2.843   1.530  1.1062 -0.0535  0.5006
  332MOL0     H43813   8.242   2.840   1.320 -0.0058  1.1379  1.6538
  332MOL0     H43814   8.143   2.817   1.148 -0.8233  3.0749 -0.3259
  332MOL0     H43815   8.213   2.693   1.051 -2.3032 -0.2582  1.5284
  332MOL0     H43816   8.197   2.947   0.897 -0.5008 -0.8050  0.5374
  332MOL0     H43817   8.122   2.795   0.856  0.8253  0.2241 -0.0530
  332MOL0     H43818   7.995   2.969   1.075  1.3678  0.6555 -0.1899
  332MOL0     H43819   7.934   2.824   1.000 -1.0938  0.6281 -1.8478
  332MOL0     H43820   7.967   3.074   0.833 -0.9067 -0.4859 -2.5973
  332MOL0     H43821   7.903   2.930   0.779  0.5066 -0.1778 -0.0825
  332MOL0     H43822   7.591   3.089   1.004  1.8191 -1.2296  1.7740
  332MOL0     H43823   8.611   2.877   1.086  1.0437  2.2223  0.4412
  332MOL0     H43824   8.744   2.867   1.284  0.1296 -3.2178 -0.4969
  333MOL0     O43825   3.505   2.883   8.538  0.3130  0.6427  0.0891
  333MOL0     C43826   3.569   2.805   8.609  0.2863 -1.0129  0.1333
  333MOL0     O43827   3.527   2.686   8.656  0.3044  0.1678 -0.2618
  333MOL0     C43828   3.411   2.641   8.608  0.5110 -0.2025  0.6863
  333MOL0     C43829   3.335   2.576   8.706  0.6578  0.5637  0.8818
  333MOL0     C43830   3.215   2.512   8.668  0.2876 -0.4804 -0.5857
  333MOL0     C43831   3.171   2.527   8.540  0.1777  0.0717  1.6974
  333MOL0     O43832   3.055   2.468   8.495 -0.3646 -0.4647 -0.1153
  333MOL0     C43833   3.060   2.329   8.472  0.0120  0.7924  0.6049
  333MOL0     C43834   2.913   2.278   8.462  1.3529 -0.5615  0.2373
  333MOL0     C43835   2.843   2.352   8.347 -0.0231  0.1788 -0.2517
  333MOL0     C43836   2.706   2.296   8.314 -0.1446 -0.1224 -0.1457
  333MOL0     C43837   2.649   2.360   8.179 -0.2883  0.2370  0.4426
  333MOL0     C43838   2.532   2.288   8.118  1.1248 -0.8482  0.0138
  333MOL0     C43839   2.556   2.157   8.058 -0.0716  0.2137  0.1768
  333MOL0     C43840   2.631   2.164   7.924 -0.5204  0.1683 -0.1193
  333MOL0     N43841   2.677   2.035   7.878 -0.6314  1.1119 -0.1147
  333MOL0     C43842   2.793   1.990   7.923 -0.1190 -0.1307  0.3589
  333MOL0     C43843   2.790   1.865   7.867 -1.0186 -0.5125  0.7273
  333MOL0     C43844   2.901   1.772   7.896 -0.0529  0.2470  0.8094
  333MOL0     C43845   2.936   1.689   7.775 -1.1487 -0.5145  0.5779
  333MOL0     C43846   3.016   1.757   7.668  0.0233 -0.3826  0.2689
  333MOL0     C43847   3.015   1.686   7.535  0.3579  0.4475 -0.9707
  333MOL0     O43848   3.123   1.748   7.458 -0.2106  0.5244  0.3422
  333MOL0     C43849   3.106   1.755   7.323 -0.2372  0.1942 -0.2316
  333MOL0     C43850   3.198   1.843   7.260 -0.7226  0.6067 -0.6452
  333MOL0     C43851   3.203   1.849   7.118 -0.3703  0.4015  0.4417
  333MOL0     C43852   3.108   1.784   7.043 -0.6697  0.4446  0.0979
  333MOL0     C43853   3.109   1.789   6.889 -1.3740 -0.1865 -0.0565
  333MOL0     O43854   2.988   1.779   6.830  0.0446  0.5148  0.1205
  333MOL0     C43855   2.987   1.794   6.692  0.6937  0.4914 -0.3483
  333MOL0     C43856   2.892   1.884   6.652  0.2638  0.4563 -0.1079
  333MOL0     C43857   2.860   1.905   6.516 -0.0021 -0.8939  0.1003
  333MOL0     C43858   2.920   1.824   6.413  0.2514  0.3715  0.3814
  333MOL0     O43859   2.890   1.841   6.283 -0.5586  0.1212  0.3487
  333MOL0     C43860   2.757   1.825   6.252  0.6876  0.1716  0.5943
  333MOL0     C43861   2.746   1.805   6.099  0.9520  0.1848 -0.4045
  333MOL0     C43862   2.711   1.656   6.081 -0.0468 -0.6648  0.6550
  333MOL0     C43863   2.686   1.627   5.931 -0.2938  0.2982 -0.1107
  333MOL0     C43864   2.642   1.482   5.904  0.6264 -0.3057 -0.6143
  333MOL0     C43865   2.625   1.469   5.750  0.6486 -0.1101 -0.2622
  333MOL0     C43866   2.509   1.376   5.720 -0.9741  0.0049 -0.7079
  333MOL0     C43867   2.510   1.350   5.573  0.1943  0.0799  0.1775
  333MOL0    Cl43868   2.429   1.191   5.520 -0.2352 -0.1742 -0.2120
  333MOL0     C43869   3.021   1.735   6.458 -0.7724  0.2439 -0.3519
  333MOL0     C43870   3.057   1.724   6.599  0.3286  0.6095 -0.0461
  333MOL0     O43871   3.218   1.816   6.832 -0.8806  0.3464  0.0003
  333MOL0     C43872   3.013   1.704   7.107  0.3441  0.4829  0.5908
  333MOL0     C43873   3.014   1.689   7.245 -0.2126  0.3568  0.7715
  333MOL0     N43874   2.679   1.846   7.791  0.2257  0.0465  0.5322
  333MOL0     N43875   2.618   1.949   7.792  0.2038 -0.4692  0.5153
  333MOL0     C43876   3.236   2.600   8.440  1.1826  0.0390 -0.3685
  333MOL0     C43877   3.357   2.654   8.474 -0.5040  0.3692 -1.3407
  333MOL0     C43878   3.699   2.864   8.666  0.0552 -0.5300 -0.6186
  333MOL0     C43879   3.731   3.001   8.676  1.5612 -0.0932 -1.4550
  333MOL0     C43880   3.847   3.050   8.739  0.6751  0.0564 -0.0308
  333MOL0     C43881   3.947   2.954   8.772  0.3851  0.5566 -0.1710
  333MOL0     O43882   4.065   3.008   8.821 -0.8507  0.3236 -1.1107
  333MOL0     C43883   4.164   2.906   8.868  0.3912 -1.0768 -0.6456
  333MOL0     C43884   4.289   2.984   8.894 -0.7673 -0.0816  1.1163
  333MOL0     C43885   4.279   3.095   8.997  0.6197 -0.3393 -0.5989
  333MOL0     C43886   4.385   3.200   9.017  0.2628 -0.0692 -0.7337
  333MOL0     C43887   4.402   3.282   8.896  0.2284 -1.1116 -0.7048
  333MOL0     C43888   4.402   3.360   8.807 -0.2696 -1.0887 -0.5076
  333MOL0     C43889   3.919   2.817   8.759 -1.2703  0.1833  0.4181
  333MOL0     C43890   3.800   2.775   8.705  0.7391  0.5919  0.0984
  333MOL0     H43891   3.364   2.576   8.811 -0.3666  1.2846  1.1891
  333MOL0     H43892   3.150   2.466   8.741  0.8865 -0.3951  0.0156
  333MOL0     H43893   3.108   2.279   8.557 -0.3786  0.0865  0.4157
  333MOL0     H43894   3.118   2.303   8.383  1.0291  0.1928  1.4225
  333MOL0     H43895   2.868   2.306   8.557 -1.3529  2.5678 -1.7291
  333MOL0     H43896   2.917   2.172   8.436 -2.8164 -0.3710 -2.1700
  333MOL0     H43897   2.911   2.330   8.265 -0.9820 -2.4761 -0.4374
  333MOL0     H43898   2.840   2.460   8.366  0.1480  0.0388  0.5833
  333MOL0     H43899   2.713   2.187   8.308 -0.2157 -0.1015 -0.6503
  333MOL0     H43900   2.645   2.333   8.397  1.2118 -1.8795  1.7230
  333MOL0     H43901   2.726   2.357   8.100 -0.8501  0.5525 -0.1235
  333MOL0     H43902   2.611   2.458   8.209  1.6096  0.3148  2.8442
  333MOL0     H43903   2.482   2.344   8.038  0.3359 -0.7722  0.5548
  333MOL0     H43904   2.469   2.280   8.206 -1.0012  1.0979 -1.2138
  333MOL0     H43905   2.615   2.099   8.131 -0.4140  1.7677  1.7675
  333MOL0     H43906   2.461   2.102   8.054  0.6988 -1.3106  1.3974
  333MOL0     H43907   2.712   2.235   7.941  1.9555 -3.1634  4.0262
  333MOL0     H43908   2.559   2.196   7.847  0.4438 -1.7048 -1.9241
  333MOL0     H43909   2.863   2.039   7.990  0.1331  0.6024 -0.4394
  333MOL0     H43910   2.870   1.712   7.982  1.6783  0.4725  1.6398
  333MOL0     H43911   2.978   1.832   7.946  0.9386  1.6600 -2.1557
  333MOL0     H43912   2.852   1.638   7.726 -0.6804  0.9497 -1.9372
  333MOL0     H43913   2.990   1.600   7.807 -1.7446 -2.0501 -2.2475
  333MOL0     H43914   2.971   1.855   7.651  0.6408 -0.1406  0.0183
  333MOL0     H43915   3.119   1.783   7.692 -0.2692  2.4493 -1.0770
  333MOL0     H43916   2.919   1.674   7.484  0.7777  2.0635 -2.2300
  333MOL0     H43917   3.038   1.583   7.563 -3.7946  0.2540  2.8515
  333MOL0     H43918   3.285   1.887   7.308  1.0386 -1.9712 -1.2572
  333MOL0     H43919   3.279   1.916   7.077 -0.6920  1.7841  2.0323
  333MOL0     H43920   2.823   1.930   6.722 -3.9697 -2.1336 -2.2018
  333MOL0     H43921   2.785   1.976   6.483 -1.5842 -2.7791 -0.6319
  333MOL0     H43922   2.711   1.923   6.269 -1.4595 -0.7558  0.5286
  333MOL0     H43923   2.713   1.743   6.309  1.5551  0.3147  1.4825
  333MOL0     H43924   2.836   1.841   6.049  1.4893 -0.7088 -0.1104
  333MOL0     H43925   2.655   1.854   6.063  0.5841  1.1813  1.7474
  333MOL0     H43926   2.623   1.628   6.139  0.2976  1.0298  2.0954
  333MOL0     H43927   2.792   1.591   6.116 -0.2847 -2.2236 -1.4982
  333MOL0     H43928   2.625   1.704   5.884  1.7465  3.5090  2.0583
  333MOL0     H43929   2.780   1.647   5.878 -1.2354  1.2407 -1.4785
  333MOL0     H43930   2.556   1.467   5.971 -0.7971  0.7985 -2.1073
  333MOL0     H43931   2.715   1.405   5.930 -1.1201 -2.3235 -1.4120
  333MOL0     H43932   2.724   1.446   5.709  1.2931  2.4517 -0.3015
  333MOL0     H43933   2.596   1.564   5.705  1.7128 -0.6108 -2.1236
  333MOL0     H43934   2.537   1.290   5.782  1.6518  1.7856  0.7689
  333MOL0     H43935   2.411   1.417   5.744 -2.2427 -2.7051 -0.8674
  333MOL0     H43936   2.614   1.347   5.540  0.0797 -0.5780 -0.1410
  333MOL0     H43937   2.472   1.436   5.516  2.0185 -1.3558 -3.5608
  333MOL0     H43938   3.060   1.662   6.388  1.2499 -0.3222  1.2687
  333MOL0     H43939   3.142   1.666   6.635  1.0671  0.6636 -1.6550
  333MOL0     H43940   2.944   1.639   7.055  0.7775  1.6803 -1.6110
  333MOL0     H43941   2.945   1.613   7.279 -2.1490  1.4710 -0.5150
  333MOL0     H43942   3.190   2.605   8.342  0.2747 -0.4436  0.0167
  333MOL0     H43943   3.411   2.690   8.387 -1.0072  0.0420 -1.7998
  333MOL0     H43944   3.659   3.077   8.650 -0.2173 -0.4890  1.8100
  333MOL0     H43945   3.861   3.157   8.751  0.0674  0.7159 -3.8571
  333MOL0     H43946   4.174   2.825   8.796 -0.5817 -1.3693 -0.4736
  333MOL0     H43947   4.135   2.868   8.966 -2.5631 -0.5650 -1.2042
  333MOL0     H43948   4.375   2.919   8.908 -1.8992 -2.1633 -0.9026
  333MOL0     H43949   4.303   3.033   8.797 -0.5870  0.4419  1.4028
  333MOL0     H43950   4.277   3.021   9.078 -3.0445 -1.3510 -1.4350
  333MOL0     H43951   4.191   3.159   9.003  2.6550  2.8084 -2.0189
  333MOL0     H43952   4.369   3.269   9.101  0.1787 -1.0329  0.0501
  333MOL0     H43953   4.470   3.138   9.045 -0.8663 -0.0922  3.2490
  333MOL0     H43954   4.406   3.431   8.727 -1.0846  2.7823  2.5737
  333MOL0     H43955   3.994   2.744   8.789  0.4613  1.2755 -1.0235
  333MOL0     H43956   3.799   2.667   8.693  2.4722  0.4105  1.2568
  334MOL0     O43957   0.898   8.625   7.287  0.2386  0.1029  0.3219
  334MOL0     C43958   0.835   8.524   7.273  0.1260  0.6905 -0.1184
  334MOL0     O43959   0.824   8.431   7.366 -1.3151  0.7265  0.4349
  334MOL0     C43960   0.887   8.451   7.486 -0.0902 -0.2580 -0.4236
  334MOL0     C43961   0.977   8.361   7.536 -0.3116  0.2866 -1.0522
  334MOL0     C43962   1.032   8.372   7.662 -0.0052 -0.5379 -0.9760
  334MOL0     C43963   0.999   8.491   7.747 -0.5743  0.1478 -0.7721
  334MOL0     O43964   1.035   8.515   7.879 -0.3319  0.2133 -0.1297
  334MOL0     C43965   1.141   8.425   7.932 -0.6998 -0.4636 -0.3289
  334MOL0     C43966   1.289   8.474   7.912  0.2364  0.6188 -0.2000
  334MOL0     C43967   1.300   8.611   7.984  1.1219  0.1923 -0.1612
  334MOL0     C43968   1.438   8.655   8.010  0.2184 -0.1614  0.3105
  334MOL0     C43969   1.438   8.795   8.070  0.5170 -0.6103 -0.2454
  334MOL0     C43970   1.573   8.817   8.141  0.2509  0.5807  0.1554
  334MOL0     C43971   1.594   8.961   8.190  0.4414  0.4173 -0.0100
  334MOL0     C43972   1.591   9.079   8.085  0.3168  0.2207 -0.0367
  334MOL0     N43973   1.636   9.210   8.143  0.2082 -0.2256  0.2956
  334MOL0     C43974   1.565   9.331   8.124 -0.1167  0.4717  0.6777
  334MOL0     C43975   1.643   9.430   8.151 -0.6712 -0.9190 -0.1613
  334MOL0     C43976   1.611   9.575   8.121  0.2245  0.0529  0.2733
  334MOL0     C43977   1.617   9.617   7.969 -0.0988 -0.3270 -0.6032
  334MOL0     C43978   1.756   9.667   7.938 -0.3002  0.2211 -0.0812
  334MOL0     C43979   1.768   9.710   7.795 -0.6096 -0.5839 -1.0763
  334MOL0     O43980   1.659   9.786   7.757  0.6051 -0.5241 -0.2672
  334MOL0     C43981   1.646   9.829   7.626 -0.4034  0.2941  0.1307
  334MOL0     C43982   1.534   9.896   7.589  0.0613  0.8282  0.9581
  334MOL0     C43983   1.514   9.942   7.466 -0.0575  0.2225  0.4509
  334MOL0     C43984   1.607   9.921   7.367 -0.5029 -0.4634 -0.9834
  334MOL0     C43985   1.591   9.972   7.232  0.1903 -0.7367 -0.3151
  334MOL0     O43986   1.487  10.064   7.208 -0.1013  0.3560 -0.8548
  334MOL0     C43987   1.493  10.124   7.088  0.0223 -0.2596  0.8273
  334MOL0     C43988   1.370  10.155   7.033  0.2013 -0.3771 -0.3819
  334MOL0     C43989   1.369  10.225   6.909  0.4810 -0.9864 -0.3783
  334MOL0     C43990   1.483  10.282   6.844  0.2848  0.3139 -0.0232
  334MOL0     O43991   1.482  10.361   6.733 -0.0215 -0.4247  0.1435
  334MOL0     C43992   1.375  10.358   6.642  0.1142 -0.6368  0.8466
  334MOL0     C43993   1.393  10.247   6.556  0.2204  0.6763 -0.1056
  334MOL0     C43994   1.301  10.259   6.432  0.7336 -0.8001  0.0882
  334MOL0     C43995   1.285  10.117   6.370 -0.1295 -0.2031 -0.2148
  334MOL0     C43996   1.189  10.096   6.246  0.2487 -0.1892  0.5343
  334MOL0     C43997   1.164   9.944   6.243  0.0380  0.3734  0.4004
  334MOL0     C43998   1.062   9.898   6.133 -0.1902  0.4713 -1.1384
  334MOL0     C43999   1.099   9.912   5.989  0.2505 -1.5157 -0.0912
  334MOL0    Cl44000   0.965   9.994   5.903  0.3502 -0.1050 -0.3776
  334MOL0     C44001   1.603  10.243   6.904  0.2515 -0.0069  0.5980
  334MOL0     C44002   1.608  10.177   7.026 -0.1478  0.2496  0.0626
  334MOL0     O44003   1.659   9.927   7.143  0.2750 -0.1526 -0.2757
  334MOL0     C44004   1.724   9.856   7.403 -0.0729  0.9618  0.1747
  334MOL0     C44005   1.743   9.804   7.524 -0.8293  0.3038  0.3267
  334MOL0     N44006   1.765   9.372   8.179  0.3260 -0.4117  0.4037
  334MOL0     N44007   1.763   9.247   8.169  0.4060  0.4555 -0.2469
  334MOL0     C44008   0.901   8.575   7.705  0.6517  0.0611  0.5213
  334MOL0     C44009   0.844   8.555   7.571 -0.0418  0.1352  0.2258
  334MOL0     C44010   0.756   8.502   7.153  1.7808  0.2409 -0.2811
  334MOL0     C44011   0.668   8.394   7.129 -0.1942  0.0732 -0.1197
  334MOL0     C44012   0.590   8.395   7.013  0.9324 -0.4556  0.3916
  334MOL0     C44013   0.587   8.492   6.915  0.1793  0.0218  0.0263
  334MOL0     O44014   0.508   8.469   6.804 -0.0275 -0.1061 -0.3915
  334MOL0     C44015   0.525   8.556   6.698  0.8209  0.5416  0.5102
  334MOL0     C44016   0.490   8.488   6.564  0.3636  0.2955 -0.0997
  334MOL0     C44017   0.338   8.435   6.564  0.4250  0.4749  0.2639
  334MOL0     C44018   0.285   8.394   6.424  0.0210 -0.1904 -1.4525
  334MOL0     C44019   0.218   8.270   6.446 -1.5221 -0.3912  0.1924
  334MOL0     C44020   0.170   8.167   6.483  0.8981  0.0224 -0.4652
  334MOL0     C44021   0.659   8.613   6.937 -0.2549  0.0631 -0.5987
  334MOL0     C44022   0.744   8.614   7.053  0.2223 -0.7065  0.1014
  334MOL0     H44023   1.004   8.278   7.472  0.6699  1.5722 -2.3633
  334MOL0     H44024   1.111   8.305   7.694  0.5876  1.1770  1.4693
  334MOL0     H44025   1.143   8.322   7.894  1.0796  0.4557 -3.0537
  334MOL0     H44026   1.119   8.417   8.039 -2.2374  1.3144 -0.4679
  334MOL0     H44027   1.302   8.482   7.803 -2.6571  1.6643 -0.5570
  334MOL0     H44028   1.359   8.399   7.948 -0.4067 -0.3521 -0.9299
  334MOL0     H44029   1.234   8.610   8.071  0.1530 -0.7713 -0.8786
  334MOL0     H44030   1.263   8.687   7.914  1.0118  0.7502  0.4873
  334MOL0     H44031   1.487   8.580   8.073  3.9314  0.9218 -0.9717
  334MOL0     H44032   1.500   8.663   7.921  0.7703 -3.3723  0.2881
  334MOL0     H44033   1.369   8.810   8.153 -0.3340 -0.4782 -0.9745
  334MOL0     H44034   1.416   8.877   8.001 -0.0903  0.5760  1.3012
  334MOL0     H44035   1.646   8.795   8.063 -2.2426  0.3597 -2.2336
  334MOL0     H44036   1.585   8.740   8.218 -2.6643 -1.0081 -0.8335
  334MOL0     H44037   1.523   8.975   8.273 -0.7470 -1.6175 -0.6298
  334MOL0     H44038   1.697   8.962   8.227  0.5570  3.4854 -0.1191
  334MOL0     H44039   1.484   9.100   8.073  0.3066  1.1235  1.4085
  334MOL0     H44040   1.661   9.063   8.003  1.7277  2.0179  0.7571
  334MOL0     H44041   1.462   9.351   8.095 -0.5565  0.5969  2.2518
  334MOL0     H44042   1.671   9.647   8.177 -0.5524  0.3918  0.6824
  334MOL0     H44043   1.510   9.589   8.159  0.9433 -0.0183  2.3100
  334MOL0     H44044   1.548   9.701   7.954 -2.5924 -2.2272 -0.6059
  334MOL0     H44045   1.582   9.536   7.904 -0.5214 -0.4099 -0.2861
  334MOL0     H44046   1.786   9.756   7.994 -0.3761  0.3205 -0.1970
  334MOL0     H44047   1.829   9.586   7.944  1.6026  1.7267 -1.5274
  334MOL0     H44048   1.764   9.624   7.727  0.7623 -1.0846 -0.5474
  334MOL0     H44049   1.866   9.758   7.798 -1.3453  0.9994 -1.2325
  334MOL0     H44050   1.466   9.926   7.668 -0.9282 -0.8536  0.7902
  334MOL0     H44051   1.444  10.019   7.436  2.9805  3.4818  1.1069
  334MOL0     H44052   1.276  10.129   7.081 -0.0945  0.7721 -0.2882
  334MOL0     H44053   1.273  10.260   6.872  0.0998 -1.4358  0.1526
  334MOL0     H44054   1.371  10.451   6.585 -2.5189 -0.3277  1.4077
  334MOL0     H44055   1.281  10.355   6.698  0.1183  0.3079  0.9196
  334MOL0     H44056   1.359  10.159   6.612 -4.0456  3.4300  2.1701
  334MOL0     H44057   1.498  10.239   6.527 -0.1326 -1.4677 -0.9863
  334MOL0     H44058   1.349  10.326   6.361  3.9975 -1.4666  1.4943
  334MOL0     H44059   1.199  10.286   6.463  0.7941 -0.0362 -0.3684
  334MOL0     H44060   1.384  10.073   6.359  1.1518  2.7284 -1.4484
  334MOL0     H44061   1.222  10.074   6.449 -2.1801  2.2023 -0.4028
  334MOL0     H44062   1.230  10.119   6.147  1.3409 -2.5003  0.3754
  334MOL0     H44063   1.092  10.145   6.247 -1.4003 -3.1862 -0.1257
  334MOL0     H44064   1.125   9.926   6.343  1.0742 -3.3932  0.2590
  334MOL0     H44065   1.254   9.885   6.227 -0.0578  0.2733  0.2241
  334MOL0     H44066   1.028   9.797   6.158  0.1408  0.4095 -0.9238
  334MOL0     H44067   0.972   9.957   6.153 -0.9289 -0.4415 -1.6816
  334MOL0     H44068   1.106   9.810   5.950 -1.4378 -1.7192  0.0656
  334MOL0     H44069   1.197   9.960   5.981 -0.9382  1.5517  1.7505
  334MOL0     H44070   1.693  10.279   6.856 -0.7372  1.2712 -0.3941
  334MOL0     H44071   1.703  10.166   7.076  2.7599  2.6577 -4.3369
  334MOL0     H44072   1.798   9.842   7.325 -0.3259 -0.6910  0.2048
  334MOL0     H44073   1.833   9.748   7.545  1.9602  5.0562  2.9179
  334MOL0     H44074   0.856   8.658   7.758 -0.5204  1.2689 -2.1734
  334MOL0     H44075   0.770   8.619   7.524 -3.4834 -2.7186  1.2987
  334MOL0     H44076   0.667   8.310   7.198 -1.6137  3.1329  3.9828
  334MOL0     H44077   0.527   8.307   7.003  1.4307 -0.7509 -0.1565
  334MOL0     H44078   0.618   8.610   6.680  0.4233  0.7937 -0.9016
  334MOL0     H44079   0.449   8.633   6.720 -0.5677 -0.2432 -1.2645
  334MOL0     H44080   0.485   8.568   6.489  1.1008 -1.1547 -1.7581
  334MOL0     H44081   0.563   8.409   6.544  0.2769 -0.2791  1.6956
  334MOL0     H44082   0.273   8.514   6.604 -1.5956  1.6955 -4.6594
  334MOL0     H44083   0.338   8.351   6.634  2.5923 -2.1342 -2.6131
  334MOL0     H44084   0.213   8.462   6.378 -1.1337 -1.0753 -1.0116
  334MOL0     H44085   0.376   8.389   6.364  2.7667  1.9670  2.1371
  334MOL0     H44086   0.124   8.078   6.520 -1.7880  1.1747 -0.8331
  334MOL0     H44087   0.655   8.690   6.860  0.2900  1.1127  0.3831
  334MOL0     H44088   0.779   8.711   7.085 -0.6228 -0.8005  1.3877
  335MOL0     O44089   0.275   6.288   1.496 -0.2273  0.1132  0.5023
  335MOL0     C44090   0.170   6.321   1.539  0.4087 -0.0386 -0.4526
  335MOL0     O44091   0.128   6.447   1.542  0.0207  0.2669  0.3493
  335MOL0     C44092   0.228   6.539   1.547  0.3341 -0.3100  0.7585
  335MOL0     C44093   0.294   6.596   1.434  0.6798  1.2388 -0.2959
  335MOL0     C44094   0.379   6.701   1.453 -0.4507 -0.7478  0.0788
  335MOL0     C44095   0.397   6.757   1.584  0.4433 -0.3292 -0.0811
  335MOL0     O44096   0.473   6.866   1.604 -0.7079  0.2154 -0.2472
  335MOL0     C44097   0.615   6.832   1.591 -0.3015 -0.1463  0.4934
  335MOL0     C44098   0.670   6.743   1.713  0.1087 -0.5068  0.6577
  335MOL0     C44099   0.819   6.708   1.688  0.4974 -0.4352  0.3177
  335MOL0     C44100   0.910   6.819   1.639  0.3152 -0.0674  0.9970
  335MOL0     C44101   1.055   6.781   1.611 -0.8442  0.2331  1.3385
  335MOL0     C44102   1.146   6.905   1.614  0.7429 -0.8567 -0.6958
  335MOL0     C44103   1.300   6.888   1.605 -0.3398 -0.5601  0.6758
  335MOL0     C44104   1.358   6.851   1.461 -0.2795  0.4118 -0.0658
  335MOL0     N44105   1.382   6.984   1.395 -0.3163 -0.0870 -0.0060
  335MOL0     C44106   1.504   7.045   1.383 -0.4720 -0.3914  0.1503
  335MOL0     C44107   1.482   7.149   1.304  0.8293  0.1956 -0.8417
  335MOL0     C44108   1.590   7.216   1.232  0.1662 -0.1593 -0.8600
  335MOL0     C44109   1.652   7.333   1.299  0.1285 -0.1648  0.3355
  335MOL0     C44110   1.710   7.439   1.195  0.2058 -0.1790 -0.9008
  335MOL0     C44111   1.832   7.512   1.249  0.8110 -0.2363 -0.2222
  335MOL0     O44112   1.873   7.588   1.139 -0.3240  0.0967  0.2821
  335MOL0     C44113   1.959   7.692   1.173 -0.2310 -0.3313 -0.0518
  335MOL0     C44114   1.955   7.774   1.287 -0.7493  0.3789 -0.3538
  335MOL0     C44115   2.046   7.878   1.311  0.1329  0.3458 -0.4773
  335MOL0     C44116   2.156   7.897   1.216 -0.6075  1.2999  0.5078
  335MOL0     C44117   2.252   7.999   1.249  0.1352 -0.2768 -0.2721
  335MOL0     O44118   2.319   8.044   1.142  0.3577 -0.2921  0.6543
  335MOL0     C44119   2.379   8.168   1.163 -1.1060  0.2163  0.0068
  335MOL0     C44120   2.339   8.284   1.095  0.4687 -0.0738 -0.2478
  335MOL0     C44121   2.418   8.403   1.096 -1.0649 -0.5610 -1.2059
  335MOL0     C44122   2.523   8.419   1.197  0.3445  0.3103  0.1435
  335MOL0     O44123   2.605   8.532   1.226  0.1018  1.0552  0.2827
  335MOL0     C44124   2.562   8.658   1.189 -0.5868  1.2339  0.6245
  335MOL0     C44125   2.690   8.752   1.203 -0.1099  0.8074 -0.2045
  335MOL0     C44126   2.630   8.889   1.209 -1.0768  0.6103 -1.2466
  335MOL0     C44127   2.738   8.997   1.220  0.9616  0.5220 -0.2928
  335MOL0     C44128   2.699   9.129   1.271  0.1242 -0.8100  0.3527
  335MOL0     C44129   2.581   9.197   1.189 -0.1344  0.7023 -0.9550
  335MOL0     C44130   2.613   9.246   1.048 -0.0592 -0.0010  0.2074
  335MOL0     C44131   2.709   9.364   1.063 -0.4286  0.9136 -0.3489
  335MOL0    Cl44132   2.883   9.322   1.064  0.0065  0.0723  0.0085
  335MOL0     C44133   2.557   8.305   1.263 -0.3069 -0.7626  0.7785
  335MOL0     C44134   2.491   8.180   1.253 -0.1304  0.3133  0.3467
  335MOL0     O44135   2.264   8.034   1.364 -0.0238 -0.2245  0.2985
  335MOL0     C44136   2.156   7.818   1.099  0.7248 -1.1272  0.0704
  335MOL0     C44137   2.068   7.720   1.077 -0.4749 -0.2198 -0.6092
  335MOL0     N44138   1.344   7.161   1.279  0.1374 -0.5078  0.3500
  335MOL0     N44139   1.288   7.051   1.328 -0.9808 -1.0190  1.0344
  335MOL0     C44140   0.319   6.714   1.689  1.1198  0.4936 -0.2150
  335MOL0     C44141   0.245   6.598   1.675 -1.0544 -0.3414  0.7585
  335MOL0     C44142   0.070   6.215   1.558  0.1072 -0.4726 -0.3621
  335MOL0     C44143  -0.023   6.237   1.654 -0.8697  0.8721  1.2404
  335MOL0     C44144  -0.113   6.138   1.682 -0.3909 -0.6329  1.0057
  335MOL0     C44145  -0.121   6.012   1.609  0.0660 -0.1760  0.4946
  335MOL0     O44146  -0.226   5.928   1.619  0.5218 -0.3559 -0.9850
  335MOL0     C44147  -0.217   5.808   1.695 -0.2980  0.6358 -0.4469
  335MOL0     C44148  -0.314   5.811   1.811 -0.5080 -0.1944 -0.2297
  335MOL0     C44149  -0.458   5.844   1.784  0.0367 -0.1785 -0.4817
  335MOL0     C44150  -0.521   5.756   1.674  0.6929  0.2081  0.2325
  335MOL0     C44151  -0.515   5.613   1.679 -0.8972  0.7545 -0.0175
  335MOL0     C44152  -0.509   5.495   1.713  0.4246  0.5369  0.4377
  335MOL0     C44153  -0.018   5.994   1.507 -0.2444 -0.2125 -0.6398
  335MOL0     C44154   0.075   6.096   1.487  0.0096 -1.6977  0.8503
  335MOL0     H44155   0.288   6.557   1.333  2.9275  0.1239 -0.0692
  335MOL0     H44156   0.434   6.741   1.368 -0.2042  1.6882  1.2999
  335MOL0     H44157   0.672   6.926   1.586 -0.9749  0.3154  1.1604
  335MOL0     H44158   0.619   6.782   1.494 -5.7261 -1.3366  0.5983
  335MOL0     H44159   0.613   6.651   1.730  0.8474 -0.9692  0.6726
  335MOL0     H44160   0.665   6.813   1.797  0.1069  0.4858 -0.1450
  335MOL0     H44161   0.829   6.639   1.604  2.9284  4.5364 -4.0221
  335MOL0     H44162   0.859   6.643   1.766  0.4257 -0.5326  0.2775
  335MOL0     H44163   0.881   6.856   1.541  2.4277  1.3105  0.8258
  335MOL0     H44164   0.917   6.896   1.716 -0.6472 -1.4190  2.5076
  335MOL0     H44165   1.050   6.720   1.521 -0.4069 -2.4126  2.9797
  335MOL0     H44166   1.090   6.717   1.693 -1.6984  1.4172  2.6919
  335MOL0     H44167   1.129   6.939   1.716  1.2423  1.4666 -1.3309
  335MOL0     H44168   1.109   6.982   1.545 -1.8945 -3.3209 -2.2921
  335MOL0     H44169   1.354   6.979   1.635  0.6382 -0.7629 -0.4223
  335MOL0     H44170   1.328   6.806   1.672 -1.2361 -0.1728  1.5675
  335MOL0     H44171   1.283   6.790   1.408  0.4549 -1.1154  0.6016
  335MOL0     H44172   1.449   6.793   1.480  0.2318  0.5520 -1.9011
  335MOL0     H44173   1.606   7.033   1.416 -0.5140  1.1068  0.9378
  335MOL0     H44174   1.543   7.250   1.139 -1.5334  1.1746  0.4182
  335MOL0     H44175   1.667   7.142   1.206 -1.5349 -2.1167 -0.5696
  335MOL0     H44176   1.738   7.300   1.357 -0.1092 -1.2076  0.1227
  335MOL0     H44177   1.581   7.377   1.370 -1.1947  1.5322 -1.8870
  335MOL0     H44178   1.746   7.395   1.101  2.8333  3.1123 -1.6095
  335MOL0     H44179   1.625   7.505   1.176 -0.0324 -0.0195  0.6025
  335MOL0     H44180   1.917   7.447   1.269  1.9112  1.2617  0.1603
  335MOL0     H44181   1.820   7.567   1.342 -0.0080  0.3266 -0.6479
  335MOL0     H44182   1.889   7.768   1.372  0.1941 -0.4048  0.3488
  335MOL0     H44183   2.040   7.941   1.400  0.1606 -0.2148 -0.0698
  335MOL0     H44184   2.263   8.275   1.018 -1.2135 -0.7129  1.4063
  335MOL0     H44185   2.395   8.485   1.030  2.4234  1.1689 -0.4805
  335MOL0     H44186   2.476   8.697   1.244 -0.7197  1.9057 -0.0359
  335MOL0     H44187   2.528   8.651   1.085  0.4425 -2.6845  0.3938
  335MOL0     H44188   2.748   8.739   1.112 -1.1344  1.8303 -1.0402
  335MOL0     H44189   2.749   8.721   1.289 -3.4295 -1.8072  1.3589
  335MOL0     H44190   2.564   8.902   1.296  0.4706 -0.3571  0.1186
  335MOL0     H44191   2.567   8.899   1.120  0.0808  0.9242 -2.0514
  335MOL0     H44192   2.815   8.965   1.290  0.4606 -3.2479 -1.2374
  335MOL0     H44193   2.792   8.998   1.125  1.1937  0.3678 -0.1622
  335MOL0     H44194   2.784   9.195   1.289 -0.8580  0.6695 -0.2110
  335MOL0     H44195   2.659   9.117   1.372  1.9214  0.3106  1.2470
  335MOL0     H44196   2.554   9.281   1.253  1.9815 -0.3035  1.4237
  335MOL0     H44197   2.502   9.121   1.180 -0.0818 -0.0281  2.9939
  335MOL0     H44198   2.654   9.170   0.981 -3.2459  0.5460 -2.6244
  335MOL0     H44199   2.522   9.287   1.002 -0.2904  0.1115  0.7546
  335MOL0     H44200   2.678   9.420   1.152 -3.0516 -0.5716 -0.2042
  335MOL0     H44201   2.700   9.428   0.975 -1.7408  0.6714 -0.4218
  335MOL0     H44202   2.621   8.302   1.350 -1.4477 -1.7321  1.6156
  335MOL0     H44203   2.518   8.082   1.290  0.5808 -0.7996 -2.8277
  335MOL0     H44204   2.231   7.844   1.025 -2.4755  0.8637 -2.7628
  335MOL0     H44205   2.077   7.667   0.982 -1.8128  2.6789 -2.4784
  335MOL0     H44206   0.325   6.765   1.785  0.9303  1.4803 -0.7192
  335MOL0     H44207   0.183   6.568   1.759 -2.2893 -1.0585 -0.3843
  335MOL0     H44208  -0.028   6.336   1.697  4.9756  1.7943  0.6429
  335MOL0     H44209  -0.193   6.160   1.752 -0.7725  0.7906  0.1612
  335MOL0     H44210  -0.112   5.798   1.726 -0.5578  1.4388  0.7464
  335MOL0     H44211  -0.239   5.718   1.637 -0.6004  1.4371 -1.6172
  335MOL0     H44212  -0.296   5.709   1.847  1.4302  0.0063 -0.4830
  335MOL0     H44213  -0.282   5.880   1.889 -1.4738  2.7189 -2.2405
  335MOL0     H44214  -0.459   5.949   1.754  2.3977 -0.3371 -1.3602
  335MOL0     H44215  -0.511   5.821   1.876  0.1837 -2.0083 -0.8225
  335MOL0     H44216  -0.628   5.774   1.659  1.0489 -0.0383 -3.4820
  335MOL0     H44217  -0.481   5.787   1.578  0.8059  1.3417  0.6345
  335MOL0     H44218  -0.492   5.398   1.755 -0.5570 -1.5090 -3.4152
  335MOL0     H44219  -0.036   5.903   1.450 -1.1678 -1.1381  1.0422
  335MOL0     H44220   0.144   6.092   1.403 -1.3477 -1.7836 -0.2858
  336MOL0     O44221  11.071   0.057   4.125  0.6344  0.1021 -0.2015
  336MOL0     C44222  11.067   0.086   4.007 -1.0530 -0.3941 -0.0025
  336MOL0     O44223  10.961   0.123   3.936  0.1659  0.6864 -0.4026
  336MOL0     C44224  10.827   0.113   3.987 -0.9302  0.1283 -0.2166
  336MOL0     C44225  10.743   0.223   3.971  0.2544 -0.4501  0.5077
  336MOL0     C44226  10.610   0.217   4.013  0.4794  0.0387  0.9310
  336MOL0     C44227  10.561   0.099   4.078 -0.4836  0.7398 -0.1039
  336MOL0     O44228  10.429   0.094   4.119 -0.2822 -0.0161 -0.1249
  336MOL0     C44229  10.410   0.171   4.238 -0.4055  0.0279 -0.5492
  336MOL0     C44230  10.296   0.108   4.309  0.0854 -0.3675 -0.1530
  336MOL0     C44231  10.153   0.121   4.235 -0.3663  0.0696 -0.1313
  336MOL0     C44232  10.075  -0.007   4.268  1.4836  0.1343 -0.2923
  336MOL0     C44233   9.940  -0.016   4.202  0.2188  0.3179  0.7357
  336MOL0     C44234   9.956  -0.018   4.050  0.3018 -0.2679  0.5911
  336MOL0     C44235   9.828  -0.056   3.980  1.0510  0.7340  0.1491
  336MOL0     C44236   9.804  -0.210   3.962  0.6591 -0.2061  0.3303
  336MOL0     N44237   9.869  -0.300   4.055 -0.9030  0.9818 -1.0449
  336MOL0     C44238   9.815  -0.352   4.173  0.2454  0.7903 -0.2696
  336MOL0     C44239   9.909  -0.442   4.222  0.6691 -0.4193 -0.2984
  336MOL0     C44240   9.888  -0.518   4.354 -0.7489 -0.5086  1.0196
  336MOL0     C44241   9.968  -0.657   4.371 -0.0566 -0.6867 -1.6408
  336MOL0     C44242   9.930  -0.760   4.262 -0.7860 -0.0281 -0.3852
  336MOL0     C44243   9.863  -0.882   4.325  0.8804 -0.1813  0.4020
  336MOL0     O44244   9.768  -0.836   4.422 -0.0457  0.4287  0.2996
  336MOL0     C44245   9.692  -0.937   4.477 -0.4263  0.9321  0.5412
  336MOL0     C44246   9.752  -1.061   4.527  0.8747 -0.8135  0.0778
  336MOL0     C44247   9.679  -1.163   4.581  0.3144  0.2778  0.1254
  336MOL0     C44248   9.542  -1.140   4.603 -0.5056  0.4959  0.2070
  336MOL0     C44249   9.457  -1.247   4.662  0.1874  0.1022  0.6119
  336MOL0     O44250   9.324  -1.257   4.630  0.0890  0.8772  0.1303
  336MOL0     C44251   9.249  -1.367   4.670  0.6439  0.1220 -1.4260
  336MOL0     C44252   9.258  -1.425   4.793  0.0863 -1.1262 -0.3201
  336MOL0     C44253   9.175  -1.538   4.835 -0.1971 -0.1878 -0.6114
  336MOL0     C44254   9.084  -1.590   4.732  0.5344 -1.3184 -0.0365
  336MOL0     O44255   9.020  -1.702   4.752  0.0795 -1.2503 -0.9119
  336MOL0     C44256   8.888  -1.668   4.785 -0.7941  0.2283 -0.8326
  336MOL0     C44257   8.812  -1.795   4.835 -0.8168  0.7728  0.1525
  336MOL0     C44258   8.665  -1.781   4.861  0.3218 -1.2460  0.7944
  336MOL0     C44259   8.611  -1.899   4.933  0.0636 -0.0831 -0.3789
  336MOL0     C44260   8.616  -2.033   4.859 -0.3663  0.8981  1.0030
  336MOL0     C44261   8.589  -2.153   4.962 -0.1688  0.3333  0.8212
  336MOL0     C44262   8.620  -2.293   4.906 -0.2046  0.3886 -0.3044
  336MOL0     C44263   8.568  -2.409   4.999 -0.6406 -1.3452 -0.1272
  336MOL0    Cl44264   8.654  -2.424   5.159  0.2987  0.0558 -0.1970
  336MOL0     C44265   9.083  -1.542   4.606  0.0995  0.1272 -0.4890
  336MOL0     C44266   9.157  -1.425   4.584  0.7854  0.3870  0.3449
  336MOL0     O44267   9.513  -1.330   4.716 -0.7689  0.0622  0.4809
  336MOL0     C44268   9.484  -1.015   4.573 -0.4161  0.5777  1.3464
  336MOL0     C44269   9.560  -0.919   4.511  0.4486 -0.7068  0.3760
  336MOL0     N44270  10.008  -0.458   4.127 -0.1893  0.2928 -0.6158
  336MOL0     N44271   9.981  -0.376   4.027  1.2415 -0.3513  0.2801
  336MOL0     C44272  10.644  -0.014   4.094  1.1001  0.4860  0.2278
  336MOL0     C44273  10.781  -0.007   4.050 -0.0364 -1.0673  0.4229
  336MOL0     C44274  11.196   0.066   3.932 -0.2326 -0.0844  0.1285
  336MOL0     C44275  11.200   0.103   3.794 -0.1104  0.6837 -0.0836
  336MOL0     C44276  11.317   0.069   3.718  0.0316 -0.4372  0.1439
  336MOL0     C44277  11.425   0.012   3.776 -0.6454 -0.4780 -0.8869
  336MOL0     O44278  11.541  -0.015   3.710  0.4378 -0.7290 -0.5702
  336MOL0     C44279  11.535  -0.001   3.566 -0.8550 -0.5847 -0.5990
  336MOL0     C44280  11.675  -0.058   3.523 -1.1116  0.0770 -0.3457
  336MOL0     C44281  11.812  -0.013   3.584 -0.0498 -0.3787 -0.3821
  336MOL0     C44282  11.838   0.125   3.529  0.4300  0.2344 -0.4582
  336MOL0     C44283  11.925   0.187   3.631 -0.5632 -0.4335  0.2550
  336MOL0     C44284  11.982   0.223   3.727 -0.4915 -0.2566 -0.7685
  336MOL0     C44285  11.423  -0.036   3.906  0.3521 -0.8267  0.1461
  336MOL0     C44286  11.313  -0.004   3.984  0.8902 -0.0008  0.2472
  336MOL0     H44287  10.777   0.315   3.925  1.7155 -0.7645  0.9216
  336MOL0     H44288  10.549   0.303   3.987 -1.2601 -1.2625  0.4955
  336MOL0     H44289  10.391   0.276   4.214 -2.5839 -0.0717  0.5113
  336MOL0     H44290  10.490   0.159   4.313 -1.0894 -0.9401  0.0576
  336MOL0     H44291  10.281   0.157   4.406  1.7373 -0.2536  0.0813
  336MOL0     H44292  10.324   0.003   4.325 -1.5462 -1.3818 -3.1511
  336MOL0     H44293  10.179   0.130   4.129  1.2425  3.5255  0.4170
  336MOL0     H44294  10.096   0.211   4.261  0.2851  0.7493 -0.9991
  336MOL0     H44295  10.130  -0.097   4.237 -0.3544 -1.0689 -0.1781
  336MOL0     H44296  10.066  -0.004   4.377  0.1598  1.3244 -0.4063
  336MOL0     H44297   9.869   0.064   4.225 -1.4413 -0.1068 -2.4115
  336MOL0     H44298   9.898  -0.113   4.229 -0.0666 -0.0474 -0.9311
  336MOL0     H44299  10.036  -0.085   4.019 -0.8754 -2.8612  2.7862
  336MOL0     H44300   9.980   0.082   4.011  0.5072 -0.7523 -0.5750
  336MOL0     H44301   9.748  -0.019   4.045  0.2235 -0.8674  0.0842
  336MOL0     H44302   9.825   0.004   3.889  0.6390  0.6144  0.0827
  336MOL0     H44303   9.844  -0.244   3.866  1.8716 -0.1538  0.8125
  336MOL0     H44304   9.696  -0.230   3.956 -0.0633  3.0116  1.0656
  336MOL0     H44305   9.725  -0.317   4.224  1.2452  0.3550  1.9163
  336MOL0     H44306   9.783  -0.548   4.353 -0.7746 -0.4015  0.3187
  336MOL0     H44307   9.917  -0.458   4.441 -1.7812  0.9410  0.3920
  336MOL0     H44308   9.942  -0.698   4.469  2.9036 -1.9644 -1.2859
  336MOL0     H44309  10.077  -0.648   4.369 -0.1074  1.6667  0.8032
  336MOL0     H44310   9.858  -0.715   4.193  0.6273  1.7594 -0.7569
  336MOL0     H44311  10.005  -0.788   4.187  0.1231  1.8045 -0.2105
  336MOL0     H44312   9.934  -0.949   4.374 -1.0666 -1.7835  1.1547
  336MOL0     H44313   9.821  -0.937   4.241 -0.3447  2.2074 -0.6438
  336MOL0     H44314   9.859  -1.077   4.531  0.9377 -0.3041  0.4353
  336MOL0     H44315   9.724  -1.257   4.612 -1.7587 -0.0980  2.3357
  336MOL0     H44316   9.323  -1.388   4.871 -1.5808  0.1423  0.5489
  336MOL0     H44317   9.182  -1.598   4.925  0.9055 -1.6578 -1.6322
  336MOL0     H44318   8.840  -1.621   4.699 -0.1069 -0.6111 -1.7075
  336MOL0     H44319   8.868  -1.587   4.857 -4.6951  0.0585 -1.5237
  336MOL0     H44320   8.859  -1.824   4.929  2.9771  0.1214 -1.7616
  336MOL0     H44321   8.827  -1.861   4.750 -2.2525  1.0357 -0.3367
  336MOL0     H44322   8.606  -1.754   4.773 -0.2933  0.5133  1.6809
  336MOL0     H44323   8.659  -1.694   4.927  0.2005 -1.4941  1.1136
  336MOL0     H44324   8.673  -1.902   5.024 -0.1246  0.0698 -0.2459
  336MOL0     H44325   8.510  -1.884   4.971  0.2211 -0.9440  0.4245
  336MOL0     H44326   8.711  -2.032   4.804 -0.4934  1.5546  0.7752
  336MOL0     H44327   8.540  -2.043   4.781  1.2988  0.8911 -0.7153
  336MOL0     H44328   8.486  -2.142   4.997  0.0413  3.3262  0.7463
  336MOL0     H44329   8.645  -2.127   5.052 -2.2193  0.6881  2.0537
  336MOL0     H44330   8.566  -2.297   4.811  1.2769 -1.1686 -1.1174
  336MOL0     H44331   8.726  -2.315   4.896  0.0892 -0.0389  2.6510
  336MOL0     H44332   8.568  -2.507   4.950 -5.3210 -1.3384 -0.5912
  336MOL0     H44333   8.462  -2.387   5.018 -0.7687 -1.6165 -0.5000
  336MOL0     H44334   9.013  -1.586   4.535 -1.7588 -0.0266  1.3360
  336MOL0     H44335   9.137  -1.386   4.484 -5.9089 -1.5965  0.4489
  336MOL0     H44336   9.377  -0.998   4.577 -1.1959 -1.9729 -3.0067
  336MOL0     H44337   9.503  -0.832   4.481  1.8311 -0.0982 -0.5947
  336MOL0     H44338  10.596  -0.103   4.134 -0.5161  0.5880 -1.3308
  336MOL0     H44339  10.855  -0.084   4.069 -0.0858 -1.6374 -1.4855
  336MOL0     H44340  11.107   0.135   3.747 -1.4826 -4.2828 -1.3386
  336MOL0     H44341  11.304   0.096   3.614 -0.6315  3.6456  1.1179
  336MOL0     H44342  11.512   0.096   3.521 -1.9411 -0.3951  0.3089
  336MOL0     H44343  11.462  -0.075   3.534  1.8854 -2.4654 -3.0027
  336MOL0     H44344  11.673  -0.164   3.551 -2.0994  0.8268  2.7629
  336MOL0     H44345  11.680  -0.042   3.415 -0.1987  3.6391  0.0859
  336MOL0     H44346  11.901  -0.077   3.574 -1.1465 -1.9933 -0.1244
  336MOL0     H44347  11.794  -0.011   3.692 -0.8015 -1.1482 -0.4809
  336MOL0     H44348  11.900   0.132   3.440  4.1157 -1.4899  1.7512
  336MOL0     H44349  11.747   0.186   3.531  0.8255  0.8260 -0.1595
  336MOL0     H44350  12.020   0.257   3.821  0.1932 -3.3237  0.1535
  336MOL0     H44351  11.508  -0.089   3.948  0.5429  0.4017  1.3810
  336MOL0     H44352  11.314  -0.039   4.087  1.4120 -0.1700  0.1873
  337MOL0     O44353   9.265   5.432   1.841 -1.3632  0.2842  0.1089
  337MOL0     C44354   9.162   5.497   1.822  0.2910 -0.2035 -0.0102
  337MOL0     O44355   9.142   5.626   1.868 -0.0041  0.8787 -0.2803
  337MOL0     C44356   9.245   5.682   1.932 -0.1924  0.2490 -0.4321
  337MOL0     C44357   9.244   5.721   2.066 -0.7798  0.0911 -0.2277
  337MOL0     C44358   9.356   5.783   2.126  0.3215  0.2009 -0.6300
  337MOL0     C44359   9.464   5.824   2.051  0.0641 -0.6147 -0.2771
  337MOL0     O44360   9.573   5.896   2.104  0.1490  0.2403  0.1113
  337MOL0     C44361   9.579   5.930   2.235 -0.0234  1.1387 -0.6012
  337MOL0     C44362   9.666   6.046   2.259 -0.6058 -0.1941 -0.6147
  337MOL0     C44363   9.627   6.127   2.384  0.5830 -0.2690 -0.5166
  337MOL0     C44364   9.701   6.254   2.384  0.2082 -0.1055 -0.1599
  337MOL0     C44365   9.732   6.303   2.522  0.0277  0.1549  0.4101
  337MOL0     C44366   9.797   6.442   2.517  0.2393  0.2292  1.3210
  337MOL0     C44367   9.835   6.460   2.657 -0.3120  0.4170 -0.0274
  337MOL0     C44368   9.920   6.587   2.676 -0.1333 -0.0506  0.1748
  337MOL0     N44369   9.856   6.708   2.615  0.9624 -0.0063 -0.1991
  337MOL0     C44370   9.913   6.803   2.533  0.7734  0.5522 -0.0166
  337MOL0     C44371   9.849   6.922   2.537  0.6249  0.4657 -0.0068
  337MOL0     C44372   9.886   7.044   2.457 -0.9187  0.2287 -0.4151
  337MOL0     C44373  10.033   7.091   2.501  0.3344 -0.2407 -0.5602
  337MOL0     C44374  10.076   7.205   2.412 -1.1781 -0.6070  0.2255
  337MOL0     C44375  10.032   7.343   2.450  0.0711 -0.1233 -0.5914
  337MOL0     O44376   9.889   7.350   2.480  0.1335  0.2684  0.3473
  337MOL0     C44377   9.832   7.442   2.551 -0.2310  0.0964 -0.3323
  337MOL0     C44378   9.695   7.440   2.540  0.0818 -0.6824  0.0845
  337MOL0     C44379   9.627   7.561   2.590 -0.5134  0.0956  0.5363
  337MOL0     C44380   9.698   7.641   2.681 -0.4231  0.1252 -0.4160
  337MOL0     C44381   9.631   7.752   2.752  0.0991 -0.1651 -0.6825
  337MOL0     O44382   9.523   7.737   2.842 -1.3697 -0.2907  0.3248
  337MOL0     C44383   9.462   7.617   2.877 -0.2340 -1.3059  0.2809
  337MOL0     C44384   9.520   7.491   2.889 -0.5873 -0.7851  0.3951
  337MOL0     C44385   9.445   7.384   2.937  0.0692 -0.5694  0.2119
  337MOL0     C44386   9.312   7.397   2.978  0.0636  0.5434  0.4102
  337MOL0     O44387   9.238   7.288   2.996 -0.3185 -0.1776 -0.2545
  337MOL0     C44388   9.099   7.304   2.975 -0.2560 -0.2620  0.6090
  337MOL0     C44389   9.029   7.171   2.941  0.1301  0.6335 -0.5227
  337MOL0     C44390   9.076   7.138   2.799 -0.1321 -0.6083 -0.0361
  337MOL0     C44391   9.046   6.990   2.763  0.0735 -0.4523  0.4335
  337MOL0     C44392   9.110   6.962   2.622 -0.1495 -0.2578 -0.4948
  337MOL0     C44393   9.072   6.819   2.593 -0.2269  0.4974 -0.9477
  337MOL0     C44394   9.093   6.793   2.444  0.6989 -0.6656  0.2819
  337MOL0     C44395   8.972   6.836   2.359  0.0570 -0.1132  0.0248
  337MOL0    Cl44396   8.829   6.737   2.375 -0.1604  0.5170  0.1475
  337MOL0     C44397   9.265   7.531   2.985 -0.4450  1.6115  0.2371
  337MOL0     C44398   9.338   7.639   2.929  0.1138  0.2381  0.2251
  337MOL0     O44399   9.677   7.861   2.724 -0.2633 -0.5893  0.3563
  337MOL0     C44400   9.833   7.632   2.703 -0.8833  0.2800 -1.1471
  337MOL0     C44401   9.901   7.541   2.628  0.2002 -0.3543 -0.8508
  337MOL0     N44402   9.747   6.898   2.627  0.6515 -0.0499  0.6379
  337MOL0     N44403   9.745   6.778   2.671  0.3462  0.7986  0.2374
  337MOL0     C44404   9.463   5.782   1.915  0.3813 -0.1240 -0.2852
  337MOL0     C44405   9.357   5.713   1.869  0.5928  0.5647 -0.2125
  337MOL0     C44406   9.044   5.428   1.768  0.0366 -0.5199  0.1368
  337MOL0     C44407   9.027   5.287   1.760  0.2445 -0.2406  0.6914
  337MOL0     C44408   8.908   5.238   1.707  0.5662  1.2639  0.9414
  337MOL0     C44409   8.799   5.313   1.659 -0.9764 -0.0304 -0.0503
  337MOL0     O44410   8.691   5.247   1.609 -0.3127  0.7968  0.8721
  337MOL0     C44411   8.595   5.320   1.538  0.3866 -0.6562 -0.4433
  337MOL0     C44412   8.470   5.228   1.517 -0.0593 -0.6833 -0.5275
  337MOL0     C44413   8.501   5.107   1.432  0.5476 -0.2900 -0.2078
  337MOL0     C44414   8.379   5.073   1.347 -0.9576 -0.4271  0.2213
  337MOL0     C44415   8.404   4.943   1.287  0.4423 -0.8898  0.2483
  337MOL0     C44416   8.398   4.837   1.233 -0.2517  0.6392 -0.1812
  337MOL0     C44417   8.813   5.449   1.677  0.1679  0.1970 -0.2973
  337MOL0     C44418   8.929   5.511   1.728 -0.2103  0.7106 -0.4744
  337MOL0     H44419   9.162   5.699   2.133 -1.0251 -0.0004 -0.5556
  337MOL0     H44420   9.349   5.816   2.229  2.9175 -2.5217  0.5721
  337MOL0     H44421   9.610   5.846   2.296 -2.2154  1.8745  1.7012
  337MOL0     H44422   9.476   5.958   2.261 -0.3077  0.0993 -0.5828
  337MOL0     H44423   9.665   6.115   2.175  0.9840  1.6931  0.8211
  337MOL0     H44424   9.773   6.024   2.272 -0.3791  1.8189  1.6534
  337MOL0     H44425   9.647   6.078   2.480  1.0618  1.9253  0.5653
  337MOL0     H44426   9.520   6.149   2.381  0.2657 -1.6604 -0.4737
  337MOL0     H44427   9.800   6.247   2.339  0.6138 -1.1155  0.8180
  337MOL0     H44428   9.638   6.334   2.346  0.2468 -1.2944 -2.9681
  337MOL0     H44429   9.799   6.230   2.568  2.8632  2.3058 -0.0695
  337MOL0     H44430   9.633   6.312   2.568 -1.1584  1.9467 -2.2485
  337MOL0     H44431   9.716   6.511   2.491  0.5351  0.2203  0.3327
  337MOL0     H44432   9.881   6.445   2.447 -0.4668 -0.1538  0.4170
  337MOL0     H44433   9.750   6.475   2.723 -0.9489  0.4528 -0.8340
  337MOL0     H44434   9.896   6.379   2.699 -1.9129 -0.5520  0.5046
  337MOL0     H44435  10.014   6.568   2.625  0.0506 -1.0657  0.8702
  337MOL0     H44436   9.938   6.609   2.782  1.2653  0.1870 -0.0872
  337MOL0     H44437  10.000   6.772   2.476 -0.3452 -2.2725 -0.3280
  337MOL0     H44438   9.816   7.121   2.488  0.4512  2.2260 -1.9921
  337MOL0     H44439   9.877   7.028   2.349 -3.5633 -0.9127 -0.1069
  337MOL0     H44440  10.100   7.005   2.490 -1.0047 -1.3079 -0.6193
  337MOL0     H44441  10.040   7.128   2.604 -0.4520  1.2788 -1.0222
  337MOL0     H44442  10.184   7.198   2.422 -0.9991 -2.8889 -2.1572
  337MOL0     H44443  10.057   7.185   2.306 -1.8031  0.4432  0.1245
  337MOL0     H44444  10.048   7.414   2.368  1.2269  0.6776  0.2944
  337MOL0     H44445  10.085   7.374   2.540 -1.6478  2.3110 -0.3360
  337MOL0     H44446   9.643   7.363   2.483 -0.2759 -1.5994  1.5805
  337MOL0     H44447   9.520   7.577   2.577  0.1011  4.3456 -0.9363
  337MOL0     H44448   9.628   7.488   2.885 -0.5330  1.0162 -0.4717
  337MOL0     H44449   9.498   7.289   2.939  0.9214 -0.1546 -1.4097
  337MOL0     H44450   9.072   7.381   2.902 -0.5481 -1.3996 -0.5199
  337MOL0     H44451   9.062   7.353   3.065  1.4305  2.1582  0.0938
  337MOL0     H44452   8.920   7.173   2.935  0.1736  2.0433 -1.4323
  337MOL0     H44453   9.051   7.092   3.013 -2.7917 -0.2805 -0.5109
  337MOL0     H44454   9.181   7.153   2.773 -1.0686  3.0446 -2.3795
  337MOL0     H44455   9.025   7.205   2.729  0.5094 -0.4038 -0.3058
  337MOL0     H44456   9.086   6.925   2.842 -0.5702  0.7035  1.7558
  337MOL0     H44457   8.937   6.977   2.761 -0.1966  1.2592  1.3706
  337MOL0     H44458   9.217   6.982   2.621  0.1459 -1.5376  1.0568
  337MOL0     H44459   9.061   7.029   2.551  0.5788  0.9958  0.1479
  337MOL0     H44460   8.972   6.795   2.631 -0.4130 -0.0336 -1.7633
  337MOL0     H44461   9.151   6.760   2.640  0.6341  2.4503  0.1915
  337MOL0     H44462   9.183   6.841   2.403  2.1802 -0.4993  3.4300
  337MOL0     H44463   9.111   6.688   2.420  1.6450 -0.2095 -1.1763
  337MOL0     H44464   8.989   6.846   2.252  2.2496  0.2392  0.3603
  337MOL0     H44465   8.938   6.939   2.376 -1.1153 -0.1447 -1.8770
  337MOL0     H44466   9.176   7.555   3.042 -0.5256  0.5512  0.5911
  337MOL0     H44467   9.294   7.737   2.915 -1.1684 -0.4213 -0.6552
  337MOL0     H44468   9.877   7.708   2.768 -3.1565  2.4381 -1.9321
  337MOL0     H44469  10.008   7.554   2.641  0.7963 -3.1100 -2.1903
  337MOL0     H44470   9.557   5.799   1.862  0.2022 -0.6617 -0.7816
  337MOL0     H44471   9.351   5.696   1.762 -0.8495 -0.6549  0.0413
  337MOL0     H44472   9.108   5.228   1.799  0.9221  0.7769  0.8626
  337MOL0     H44473   8.894   5.130   1.698 -1.3544  1.4970  0.7120
  337MOL0     H44474   8.627   5.353   1.439  3.3332  0.1475  0.6975
  337MOL0     H44475   8.554   5.401   1.600  0.4716  0.9183 -2.3411
  337MOL0     H44476   8.446   5.180   1.612  1.1690 -1.2575 -0.4833
  337MOL0     H44477   8.384   5.287   1.486 -0.1323 -0.5239 -0.0390
  337MOL0     H44478   8.532   5.022   1.495 -0.5760  0.0841  0.9056
  337MOL0     H44479   8.585   5.135   1.368 -1.3722 -0.5520 -2.9978
  337MOL0     H44480   8.284   5.073   1.401 -1.2689  1.0854 -0.2881
  337MOL0     H44481   8.376   5.149   1.268 -1.7376 -0.9754 -0.2983
  337MOL0     H44482   8.406   4.754   1.167  1.1737 -0.3906  1.2160
  337MOL0     H44483   8.727   5.508   1.650  0.8202  1.7988  0.9690
  337MOL0     H44484   8.932   5.620   1.729 -0.4884  0.7894  2.8607
  338MOL0     O44485   7.299   3.924   1.510 -0.8345  0.3583 -0.6646
  338MOL0     C44486   7.276   3.996   1.604 -0.1911  1.3067 -0.8612
  338MOL0     O44487   7.176   4.086   1.614 -0.3804  0.1006  0.9147
  338MOL0     C44488   7.087   4.113   1.508 -0.8299 -0.0027 -0.1042
  338MOL0     C44489   7.126   4.175   1.385 -0.5021 -0.0515  0.2011
  338MOL0     C44490   7.028   4.223   1.291 -0.0162  0.4543  0.1159
  338MOL0     C44491   6.896   4.181   1.307  1.1157  0.4911 -0.1113
  338MOL0     O44492   6.804   4.201   1.200  0.2558 -0.5608  0.4275
  338MOL0     C44493   6.691   4.299   1.227 -0.5619  0.9191  0.1617
  338MOL0     C44494   6.734   4.429   1.288 -0.4099 -0.8026 -0.4808
  338MOL0     C44495   6.850   4.513   1.221  1.0929  0.2211  0.4471
  338MOL0     C44496   6.850   4.523   1.070  0.2911  1.0410 -0.7613
  338MOL0     C44497   6.972   4.441   0.998  0.6745 -0.5178 -0.5178
  338MOL0     C44498   6.955   4.442   0.840 -0.4078 -0.7794 -1.3801
  338MOL0     C44499   7.025   4.324   0.770  0.3298 -0.5019  0.6556
  338MOL0     C44500   7.178   4.321   0.778 -0.2994 -0.1358  0.4577
  338MOL0     N44501   7.239   4.224   0.689 -0.3715  1.2829 -0.0404
  338MOL0     C44502   7.212   4.097   0.660  0.2577  0.1912 -0.0208
  338MOL0     C44503   7.287   4.058   0.556  0.1168 -0.4634 -0.9976
  338MOL0     C44504   7.265   3.922   0.510 -0.5050  0.4717 -0.5548
  338MOL0     C44505   7.124   3.889   0.455 -0.2445 -0.3604  0.3092
  338MOL0     C44506   7.119   3.965   0.322 -0.0019  0.2915  0.5221
  338MOL0     C44507   7.222   3.937   0.223 -0.2176 -0.5115  0.1041
  338MOL0     O44508   7.259   3.802   0.216 -0.0767  0.4857  0.5532
  338MOL0     C44509   7.337   3.766   0.108  0.7026  1.1350  1.1587
  338MOL0     C44510   7.275   3.669   0.027  0.2559  0.0765  0.0590
  338MOL0     C44511   7.359   3.620  -0.083 -0.6396  0.4503 -0.3959
  338MOL0     C44512   7.484   3.671  -0.115  0.0846  0.8237 -0.1676
  338MOL0     C44513   7.566   3.621  -0.229 -0.2086 -0.1430  0.7429
  338MOL0     O44514   7.538   3.501  -0.278 -0.5958 -0.5655 -0.1701
  338MOL0     C44515   7.575   3.491  -0.407  0.4719  0.2113  0.5019
  338MOL0     C44516   7.480   3.508  -0.513  1.1736  0.1945  0.4781
  338MOL0     C44517   7.506   3.462  -0.643 -0.4601 -0.3754 -0.1009
  338MOL0     C44518   7.645   3.429  -0.682  0.4085 -0.9860 -0.7526
  338MOL0     O44519   7.684   3.396  -0.811  0.1665  0.0775  0.2833
  338MOL0     C44520   7.620   3.452  -0.921  0.4217 -1.3776 -0.6189
  338MOL0     C44521   7.634   3.350  -1.036 -0.4576  0.2672 -0.3601
  338MOL0     C44522   7.635   3.404  -1.182  0.1147 -0.6476  0.1670
  338MOL0     C44523   7.669   3.304  -1.298 -0.4182 -0.3866 -0.5257
  338MOL0     C44524   7.681   3.373  -1.436 -0.9721  1.0087  0.7465
  338MOL0     C44525   7.581   3.478  -1.468  0.0663 -0.1958  0.4104
  338MOL0     C44526   7.431   3.430  -1.462  0.5917 -0.8380  0.8321
  338MOL0     C44527   7.339   3.561  -1.478 -0.6498  1.3141  0.2070
  338MOL0    Cl44528   7.372   3.636  -1.633 -0.0720  0.0722  0.3371
  338MOL0     C44529   7.740   3.422  -0.577  0.3726 -0.7044  0.4620
  338MOL0     C44530   7.704   3.449  -0.444 -0.3163 -0.7260  0.3472
  338MOL0     O44531   7.651   3.700  -0.271  1.0168 -0.0830  0.0097
  338MOL0     C44532   7.526   3.771  -0.033  0.3748  0.1800  0.6191
  338MOL0     C44533   7.463   3.810   0.076  0.0513  0.2937 -0.8693
  338MOL0     N44534   7.376   4.152   0.519  0.6364  0.7620 -0.3395
  338MOL0     N44535   7.350   4.246   0.602  0.5863  1.2113 -0.2233
  338MOL0     C44536   6.864   4.099   1.417 -0.4064 -0.2632 -0.1515
  338MOL0     C44537   6.958   4.078   1.519  0.2727  0.2531 -0.7466
  338MOL0     C44538   7.356   3.983   1.728 -0.9422  0.3115  0.2225
  338MOL0     C44539   7.316   4.046   1.852  0.0993 -0.6854  0.1444
  338MOL0     C44540   7.388   4.014   1.966 -0.0475 -0.4165 -0.0193
  338MOL0     C44541   7.496   3.930   1.968 -0.2937  0.3538  0.9816
  338MOL0     O44542   7.553   3.899   2.081 -1.1068  0.3108  0.0852
  338MOL0     C44543   7.487   3.794   2.155  0.1491 -0.2417  0.2410
  338MOL0     C44544   7.502   3.811   2.303 -0.0848  0.1143  0.2383
  338MOL0     C44545   7.639   3.845   2.359 -0.5580 -0.2818  0.4705
  338MOL0     C44546   7.764   3.758   2.336  0.2661 -0.4559 -0.5016
  338MOL0     C44547   7.737   3.613   2.360 -0.8800  0.4004 -0.6654
  338MOL0     C44548   7.708   3.502   2.384 -0.1943 -0.4252  1.5459
  338MOL0     C44549   7.533   3.876   1.848 -0.2645  0.0373  0.9802
  338MOL0     C44550   7.469   3.896   1.729 -1.1523  0.0676 -0.9341
  338MOL0     H44551   7.230   4.197   1.364 -0.3736 -0.4909  0.3569
  338MOL0     H44552   7.052   4.296   1.214  3.7396 -3.4358 -2.9120
  338MOL0     H44553   6.624   4.247   1.296  0.0976 -1.4904 -0.9341
  338MOL0     H44554   6.633   4.321   1.137  0.9140  0.3280 -0.9673
  338MOL0     H44555   6.777   4.429   1.389  4.2867  1.1427 -2.1534
  338MOL0     H44556   6.643   4.490   1.287  0.1891  0.1668  0.6872
  338MOL0     H44557   6.950   4.486   1.256  1.5581 -0.9800 -1.6793
  338MOL0     H44558   6.832   4.615   1.258 -0.0824  0.0806  0.3085
  338MOL0     H44559   6.753   4.500   1.024 -0.5275  0.9766  0.9277
  338MOL0     H44560   6.865   4.625   1.035 -0.0409  1.5609  0.5541
  338MOL0     H44561   6.975   4.340   1.039  2.2706 -0.1293  0.4290
  338MOL0     H44562   7.073   4.475   1.023  1.5804 -1.9833 -2.0052
  338MOL0     H44563   6.992   4.536   0.799  0.3135 -2.2910 -4.4561
  338MOL0     H44564   6.846   4.446   0.825 -0.8853  4.3810  1.2778
  338MOL0     H44565   6.995   4.231   0.819 -0.1419 -1.1040 -0.7294
  338MOL0     H44566   7.001   4.321   0.664  1.9112 -2.1912  0.2955
  338MOL0     H44567   7.197   4.297   0.883 -0.6873  3.1423  1.3760
  338MOL0     H44568   7.225   4.416   0.751 -2.8999  1.2499  0.4836
  338MOL0     H44569   7.127   4.037   0.690 -1.1263  3.0836  2.3676
  338MOL0     H44570   7.287   3.865   0.601  3.4668  1.5012 -0.6792
  338MOL0     H44571   7.343   3.889   0.440  0.3360 -0.3512  0.7357
  338MOL0     H44572   7.048   3.921   0.527  0.9341  2.7030  0.3505
  338MOL0     H44573   7.110   3.782   0.439 -1.3062 -0.4207  1.4905
  338MOL0     H44574   7.030   3.934   0.266  0.2697  2.2000 -1.1063
  338MOL0     H44575   7.107   4.072   0.343  1.2156 -0.4063  6.8117
  338MOL0     H44576   7.311   3.997   0.247  0.5332 -0.1793 -3.0472
  338MOL0     H44577   7.190   3.961   0.121  0.4295 -2.0312 -0.4823
  338MOL0     H44578   7.191   3.610   0.060  0.4229  0.0788  0.4928
  338MOL0     H44579   7.309   3.552  -0.152 -0.5855 -0.6421  0.6005
  338MOL0     H44580   7.378   3.536  -0.488  0.4827 -2.2135  0.6293
  338MOL0     H44581   7.433   3.475  -0.722  0.2759  4.1539 -0.3404
  338MOL0     H44582   7.676   3.542  -0.950 -0.8897 -0.1445  0.5641
  338MOL0     H44583   7.520   3.491  -0.902  0.1650 -1.1966 -2.1757
  338MOL0     H44584   7.559   3.271  -1.036  1.3877 -1.7301  2.7967
  338MOL0     H44585   7.732   3.301  -1.025 -1.9823 -2.6782  1.2824
  338MOL0     H44586   7.717   3.478  -1.181  0.7168 -1.2946  1.4051
  338MOL0     H44587   7.540   3.456  -1.194  1.3774  1.6758 -0.4805
  338MOL0     H44588   7.763   3.248  -1.291  0.1894  0.7247  0.4555
  338MOL0     H44589   7.583   3.237  -1.291 -1.6602  1.1172 -0.9368
  338MOL0     H44590   7.677   3.292  -1.509 -2.2866  0.8460  0.9714
  338MOL0     H44591   7.784   3.406  -1.450 -1.5950  2.1001 -1.7938
  338MOL0     H44592   7.600   3.531  -1.562  2.6049 -0.4191  0.7334
  338MOL0     H44593   7.585   3.556  -1.392 -2.2868  1.6772 -1.2264
  338MOL0     H44594   7.427   3.357  -1.544  0.2197 -1.5087  1.4383
  338MOL0     H44595   7.403   3.377  -1.371  4.2152 -1.2196  1.8892
  338MOL0     H44596   7.336   3.642  -1.404  0.3107  2.0105 -0.4835
  338MOL0     H44597   7.237   3.523  -1.481  0.0053 -0.6186  0.6575
  338MOL0     H44598   7.842   3.395  -0.604  0.5172  0.1789  0.0725
  338MOL0     H44599   7.777   3.442  -0.365 -0.3318  0.1710  0.4456
  338MOL0     H44600   7.626   3.812  -0.046  0.4114  0.0666  0.5415
  338MOL0     H44601   7.496   3.896   0.132 -1.0467 -1.4772  2.7895
  338MOL0     H44602   6.763   4.064   1.437 -2.0588  3.8211 -0.3809
  338MOL0     H44603   6.935   4.022   1.609  2.7791 -1.3648 -1.0043
  338MOL0     H44604   7.235   4.118   1.852 -1.5178 -2.3679  2.4988
  338MOL0     H44605   7.352   4.058   2.059 -1.4476 -2.1771  0.3276
  338MOL0     H44606   7.524   3.695   2.126 -3.6818 -2.0919  1.0118
  338MOL0     H44607   7.381   3.788   2.128  0.4733 -1.2497 -0.8483
  338MOL0     H44608   7.440   3.899   2.328  1.8879  1.3353  1.0772
  338MOL0     H44609   7.456   3.720   2.343  1.0831 -0.1406  1.0519
  338MOL0     H44610   7.632   3.854   2.467  3.4835 -2.7188  1.1372
  338MOL0     H44611   7.665   3.941   2.313 -0.6107  0.1698  1.3639
  338MOL0     H44612   7.801   3.771   2.234 -2.6348  3.7258 -1.2422
  338MOL0     H44613   7.852   3.787   2.395 -0.6840  0.8819  0.3049
  338MOL0     H44614   7.683   3.398   2.392  2.1667 -1.1378  0.5839
  338MOL0     H44615   7.614   3.806   1.866  2.2878  2.9122  1.3407
  338MOL0     H44616   7.502   3.854   1.634 -1.5539 -1.1641 -0.5549
  339MOL0     O44617   3.303   2.806   4.051  0.1237 -0.3200 -0.3745
  339MOL0     C44618   3.347   2.751   3.947  0.3542 -0.1927  0.4881
  339MOL0     O44619   3.278   2.716   3.841 -0.5993 -0.0358  0.3815
  339MOL0     C44620   3.144   2.718   3.832 -0.2243  0.3158 -0.8440
  339MOL0     C44621   3.080   2.761   3.711  0.6846  0.1180  0.3234
  339MOL0     C44622   2.944   2.755   3.687 -0.8159  0.1659  0.6288
  339MOL0     C44623   2.858   2.704   3.782  1.1849  0.7188 -0.5928
  339MOL0     O44624   2.724   2.707   3.753  0.3194  0.2405 -1.0893
  339MOL0     C44625   2.652   2.593   3.800  0.3362 -0.5151  0.6018
  339MOL0     C44626   2.500   2.601   3.780  0.0967 -0.1350  0.1932
  339MOL0     C44627   2.455   2.703   3.877 -0.0014 -0.1545  0.3706
  339MOL0     C44628   2.306   2.723   3.864  0.6192 -0.6190 -0.0524
  339MOL0     C44629   2.249   2.783   3.997  0.1570  0.4433  0.0284
  339MOL0     C44630   2.092   2.818   3.993  0.2882  0.1578  0.4523
  339MOL0     C44631   2.048   2.861   4.129 -0.0943  0.2199 -0.0134
  339MOL0     C44632   1.892   2.863   4.136 -0.3685  0.2411 -0.1447
  339MOL0     N44633   1.840   2.972   4.051  0.5663  0.5111 -0.1104
  339MOL0     C44634   1.884   3.105   4.072  0.3863  0.3008 -0.7335
  339MOL0     C44635   1.777   3.179   4.031  0.3312  0.4901  0.5048
  339MOL0     C44636   1.768   3.333   4.044 -0.0685 -0.0882  0.1060
  339MOL0     C44637   1.667   3.406   3.956  0.4769  0.5599 -0.4440
  339MOL0     C44638   1.633   3.546   3.994  1.1995  0.3345  0.5834
  339MOL0     C44639   1.524   3.598   3.912  0.3614  0.3703  0.1017
  339MOL0     O44640   1.589   3.645   3.790  0.8574  0.8744  0.4651
  339MOL0     C44641   1.569   3.563   3.685  0.8600 -0.5501  0.2309
  339MOL0     C44642   1.686   3.527   3.613 -0.0462 -0.0068 -0.6930
  339MOL0     C44643   1.679   3.456   3.496 -0.8277  0.9412  0.6810
  339MOL0     C44644   1.558   3.423   3.438 -0.1472  0.6580 -0.5974
  339MOL0     C44645   1.542   3.346   3.310  0.1917  0.4395 -0.3356
  339MOL0     O44646   1.413   3.326   3.268  0.1883  0.4655 -0.5616
  339MOL0     C44647   1.380   3.241   3.160  0.8028  0.2961  0.5324
  339MOL0     C44648   1.279   3.274   3.070  0.1819  0.1210 -0.2215
  339MOL0     C44649   1.240   3.179   2.969  0.0261 -0.0946 -0.5841
  339MOL0     C44650   1.301   3.055   2.967 -0.0950  0.3614  0.4706
  339MOL0     O44651   1.256   2.965   2.877 -0.0600 -0.4331  0.5482
  339MOL0     C44652   1.264   2.999   2.741  0.0453 -0.4546  0.1113
  339MOL0     C44653   1.150   2.932   2.662 -0.0327 -0.0036 -0.6254
  339MOL0     C44654   1.009   2.970   2.709  0.1867 -0.2403  0.4358
  339MOL0     C44655   0.905   2.884   2.633 -0.2543 -0.3294  0.8717
  339MOL0     C44656   0.754   2.938   2.636 -0.3258 -0.5950  0.8123
  339MOL0     C44657   0.697   2.956   2.782 -0.4540 -0.7037  0.5556
  339MOL0     C44658   0.677   2.815   2.865 -1.0494 -0.3110  0.3126
  339MOL0     C44659   0.610   2.834   2.990 -0.1615 -0.5513 -0.3780
  339MOL0    Cl44660   0.440   2.889   2.946  0.5530  0.5744 -0.2097
  339MOL0     C44661   1.401   3.018   3.059  0.0219  1.0475 -0.2109
  339MOL0     C44662   1.450   3.118   3.149 -0.5376  0.3448  0.1039
  339MOL0     O44663   1.641   3.297   3.259  0.5041  0.0295  0.0621
  339MOL0     C44664   1.435   3.446   3.516  0.3276 -0.5551  0.0075
  339MOL0     C44665   1.445   3.524   3.635  0.5325 -0.6401 -0.2402
  339MOL0     N44666   1.680   3.095   3.989 -0.1243  0.0498  0.8945
  339MOL0     N44667   1.716   2.976   3.994 -0.3264  0.9804 -0.1610
  339MOL0     C44668   2.915   2.667   3.913 -0.3168  0.3811  0.9060
  339MOL0     C44669   3.052   2.674   3.940  0.0668 -0.8240  0.2663
  339MOL0     C44670   3.492   2.724   3.939  0.0123 -0.5548 -0.6123
  339MOL0     C44671   3.573   2.761   4.047  0.4785 -0.6084  0.5450
  339MOL0     C44672   3.706   2.751   4.031  0.1424  0.1705 -0.0889
  339MOL0     C44673   3.765   2.677   3.932  0.0589  0.5662  0.4398
  339MOL0     O44674   3.907   2.664   3.924 -0.5994 -0.7612  0.5995
  339MOL0     C44675   3.981   2.658   4.049 -0.0376 -0.7788 -0.5416
  339MOL0     C44676   3.919   2.538   4.120 -0.6057  0.6265 -0.0172
  339MOL0     C44677   4.015   2.486   4.226  0.0240  0.8795 -0.7866
  339MOL0     C44678   3.968   2.520   4.375  0.2006  0.0914  1.1372
  339MOL0     C44679   3.999   2.663   4.395 -0.0612  0.0799  0.2993
  339MOL0     C44680   4.028   2.779   4.415  0.9919 -0.1372 -0.1891
  339MOL0     C44681   3.689   2.625   3.833  0.7208 -1.1264  0.4058
  339MOL0     C44682   3.550   2.640   3.838 -0.0372 -0.1093 -0.2110
  339MOL0     H44683   3.142   2.792   3.628  0.7523  1.6177  0.9078
  339MOL0     H44684   2.904   2.776   3.588  1.0751  0.0383 -0.1924
  339MOL0     H44685   2.666   2.585   3.908  0.2478 -2.6986  0.5041
  339MOL0     H44686   2.690   2.501   3.754 -2.0009 -0.4715 -1.7099
  339MOL0     H44687   2.463   2.508   3.824  0.5839 -1.7458 -2.5579
  339MOL0     H44688   2.467   2.610   3.676 -2.9715 -3.9004  0.6378
  339MOL0     H44689   2.505   2.800   3.868  1.6043 -0.7591  2.2014
  339MOL0     H44690   2.485   2.666   3.975 -0.6467 -2.1067 -0.1240
  339MOL0     H44691   2.283   2.791   3.781  0.5436 -1.6234 -0.8733
  339MOL0     H44692   2.253   2.629   3.843 -0.2664 -0.7329  2.3881
  339MOL0     H44693   2.301   2.876   4.018 -0.0615  0.7504 -0.7444
  339MOL0     H44694   2.277   2.708   4.072  1.8267 -0.2138 -1.1893
  339MOL0     H44695   2.048   2.720   3.974  1.3092 -1.0157  3.6130
  339MOL0     H44696   2.066   2.888   3.912  1.4485 -1.8990 -1.8366
  339MOL0     H44697   2.089   2.799   4.210  1.3288  3.4170  1.9267
  339MOL0     H44698   2.094   2.960   4.130 -1.1813  0.8300 -3.0239
  339MOL0     H44699   1.859   2.893   4.236 -1.2298 -0.1816 -0.2988
  339MOL0     H44700   1.857   2.762   4.113 -0.0863  0.5919 -2.3258
  339MOL0     H44701   1.977   3.139   4.117 -0.6970  0.4804  1.5465
  339MOL0     H44702   1.866   3.374   4.017 -0.9783  2.1528 -0.0372
  339MOL0     H44703   1.750   3.346   4.151 -3.3190 -1.6315 -0.1393
  339MOL0     H44704   1.575   3.347   3.958  1.1814 -0.5991  2.2990
  339MOL0     H44705   1.706   3.403   3.854 -2.0283  1.0171 -1.4819
  339MOL0     H44706   1.592   3.562   4.094 -2.3060  0.5111 -0.7621
  339MOL0     H44707   1.727   3.598   3.973  2.3575 -2.3204 -1.2687
  339MOL0     H44708   1.467   3.681   3.956 -2.3225 -1.8653  1.1101
  339MOL0     H44709   1.457   3.514   3.894 -1.0512  1.2022  1.1940
  339MOL0     H44710   1.784   3.564   3.639  0.2019  0.2410 -1.8911
  339MOL0     H44711   1.772   3.419   3.453 -1.4704 -0.9046  0.8109
  339MOL0     H44712   1.238   3.374   3.073  1.7650  0.7563  1.0942
  339MOL0     H44713   1.163   3.211   2.901  0.5535  0.7170 -0.8076
  339MOL0     H44714   1.351   2.962   2.686 -1.1416 -0.2265 -2.0248
  339MOL0     H44715   1.267   3.108   2.732 -1.4835 -0.1503  2.4014
  339MOL0     H44716   1.144   2.824   2.676 -4.8400  0.0376 -0.4233
  339MOL0     H44717   1.167   2.927   2.554  1.7544  1.5668 -0.4609
  339MOL0     H44718   0.986   3.076   2.691 -1.3267 -0.9336 -2.0635
  339MOL0     H44719   0.995   2.952   2.816 -2.5884 -1.4471 -0.0576
  339MOL0     H44720   0.939   2.887   2.529 -1.5296 -4.3487  0.1544
  339MOL0     H44721   0.916   2.779   2.662  0.1487 -0.3657  0.5954
  339MOL0     H44722   0.689   2.866   2.584  0.3095  0.5929 -1.7938
  339MOL0     H44723   0.737   3.032   2.584  0.2441  1.0784  3.4468
  339MOL0     H44724   0.600   3.005   2.773 -0.9111 -1.1071  2.7295
  339MOL0     H44725   0.762   3.034   2.822 -0.0053 -0.7475 -0.0702
  339MOL0     H44726   0.605   2.753   2.809 -2.2636 -0.8919  2.4143
  339MOL0     H44727   0.773   2.763   2.871 -0.1170  0.9260 -2.2487
  339MOL0     H44728   0.661   2.908   3.052  0.4846 -0.0446 -1.4788
  339MOL0     H44729   0.595   2.737   3.039 -1.6804 -0.5890 -0.8901
  339MOL0     H44730   1.444   2.919   3.053  0.1518  1.0622  0.4418
  339MOL0     H44731   1.527   3.093   3.221  0.7150  1.2662 -0.8773
  339MOL0     H44732   1.338   3.420   3.474 -0.4253  0.9555  0.7025
  339MOL0     H44733   1.352   3.531   3.692  1.4551 -0.1791  1.2866
  339MOL0     H44734   2.843   2.643   3.990  0.3855  0.9588  1.7589
  339MOL0     H44735   3.088   2.642   4.038 -0.8917  0.6695  1.1405
  339MOL0     H44736   3.536   2.806   4.139  0.3273 -1.3962  0.8849
  339MOL0     H44737   3.772   2.794   4.105  1.7908 -0.0922 -1.3496
  339MOL0     H44738   3.967   2.749   4.109 -1.0581 -1.8917  1.0099
  339MOL0     H44739   4.086   2.643   4.024  0.5655 -1.2842  2.0277
  339MOL0     H44740   3.820   2.545   4.165 -0.0502 -0.1137  1.3918
  339MOL0     H44741   3.908   2.462   4.043 -0.7275 -0.8379  1.3853
  339MOL0     H44742   4.114   2.519   4.194  0.0871  0.2394 -1.2641
  339MOL0     H44743   4.021   2.377   4.224  1.2469  0.8697  0.8100
  339MOL0     H44744   3.867   2.491   4.405  0.2515 -2.5358 -0.8749
  339MOL0     H44745   4.036   2.462   4.439  0.4314  0.2424  1.0292
  339MOL0     H44746   4.058   2.876   4.449 -1.6601  1.1155 -1.1507
  339MOL0     H44747   3.735   2.560   3.759  3.8979  0.8215  0.5036
  339MOL0     H44748   3.500   2.583   3.760  3.5556 -1.3620 -1.8373
  340MOL0     O44749   2.492   6.721   3.355  1.1580  0.4038 -0.0480
  340MOL0     C44750   2.526   6.837   3.319  0.8224 -0.5531 -0.6183
  340MOL0     O44751   2.513   6.891   3.209 -1.2715 -0.0117 -0.5295
  340MOL0     C44752   2.454   6.830   3.106 -0.1845  0.1808 -0.2451
  340MOL0     C44753   2.329   6.768   3.110 -1.5298 -0.3049  0.0391
  340MOL0     C44754   2.267   6.710   2.988  0.0007 -0.9357 -0.0449
  340MOL0     C44755   2.332   6.716   2.874 -1.2133  0.0794 -0.7713
  340MOL0     O44756   2.272   6.671   2.764  0.4879  0.3755  0.5382
  340MOL0     C44757   2.225   6.757   2.658  0.7941 -0.1966 -0.3181
  340MOL0     C44758   2.130   6.687   2.556 -0.3038 -0.2021 -0.3783
  340MOL0     C44759   1.987   6.655   2.603  0.1095  0.0548 -0.7962
  340MOL0     C44760   1.900   6.600   2.491  0.0566 -0.6432 -0.1183
  340MOL0     C44761   1.889   6.688   2.364 -0.1078  0.2385 -0.1009
  340MOL0     C44762   1.833   6.828   2.388 -0.8669 -0.1791 -0.3371
  340MOL0     C44763   1.782   6.901   2.263 -0.0045 -0.7013 -0.1714
  340MOL0     C44764   1.680   6.821   2.182 -0.2248  0.5634  0.1736
  340MOL0     N44765   1.592   6.906   2.103  0.4786  0.0690 -0.7634
  340MOL0     C44766   1.486   6.979   2.151 -0.5597  0.3093 -0.9070
  340MOL0     C44767   1.404   6.996   2.043 -0.1000  0.5856 -0.2168
  340MOL0     C44768   1.265   7.057   2.041 -0.5435  0.1453 -0.6161
  340MOL0     C44769   1.189   7.057   2.180  0.1152 -0.7507 -0.2718
  340MOL0     C44770   1.116   6.925   2.212  0.0684  0.0959 -0.8593
  340MOL0     C44771   0.984   6.898   2.143 -0.1975 -0.1760 -0.1660
  340MOL0     O44772   0.878   6.985   2.179  0.6159 -0.5999 -0.3337
  340MOL0     C44773   0.744   6.973   2.151 -0.1405 -0.6702  0.3968
  340MOL0     C44774   0.686   6.869   2.071  0.8415  0.0467 -0.3646
  340MOL0     C44775   0.547   6.849   2.068 -0.3699  0.4327  0.5144
  340MOL0     C44776   0.462   6.935   2.140 -0.1592  0.6242  0.8692
  340MOL0     C44777   0.313   6.927   2.135 -0.8682  0.3727  0.7179
  340MOL0     O44778   0.250   7.008   2.226 -0.4542  0.5587 -0.3118
  340MOL0     C44779   0.122   6.966   2.252 -0.8309  0.0526 -0.9410
  340MOL0     C44780   0.021   7.070   2.274  1.5143 -0.7453  0.0684
  340MOL0     C44781  -0.109   7.031   2.336 -0.4094  1.1747  0.0336
  340MOL0     C44782  -0.151   6.892   2.342 -0.4565 -0.4421  0.0423
  340MOL0     O44783  -0.265   6.832   2.387  0.6309  0.0222  0.5477
  340MOL0     C44784  -0.346   6.902   2.480 -0.5552 -0.3867  0.4266
  340MOL0     C44785  -0.455   6.987   2.411 -0.4084  0.2286  0.2266
  340MOL0     C44786  -0.525   6.913   2.292  0.3473  0.2789  0.9843
  340MOL0     C44787  -0.576   6.782   2.322  0.2067 -0.2175 -0.1546
  340MOL0     C44788  -0.665   6.718   2.221 -0.3403  0.2243  0.2073
  340MOL0     C44789  -0.686   6.564   2.248  0.0435 -0.3184  0.5421
  340MOL0     C44790  -0.805   6.506   2.169 -0.7077  0.6913 -0.2828
  340MOL0     C44791  -0.827   6.354   2.191  0.8212 -0.0334  0.6718
  340MOL0    Cl44792  -0.992   6.300   2.152 -0.1639  0.4885 -0.3256
  340MOL0     C44793  -0.050   6.790   2.301  0.1043 -1.0944 -0.6762
  340MOL0     C44794   0.082   6.835   2.271 -0.4429  0.4739 -0.7172
  340MOL0     O44795   0.265   6.836   2.057  0.2264  0.0715 -0.4861
  340MOL0     C44796   0.525   7.036   2.215 -0.9909  0.1081 -0.0075
  340MOL0     C44797   0.662   7.055   2.224  0.0673  0.4831  0.2516
  340MOL0     N44798   1.458   6.931   1.937  0.0649  0.3072  0.9487
  340MOL0     N44799   1.563   6.877   1.973  0.3369  0.6163 -0.5745
  340MOL0     C44800   2.449   6.796   2.859  1.1656 -0.0100  0.1395
  340MOL0     C44801   2.507   6.854   2.976  0.8311 -0.4842 -0.3708
  340MOL0     C44802   2.624   6.909   3.394  0.0475  0.1120  0.0087
  340MOL0     C44803   2.744   6.944   3.337  0.2176 -0.1001  0.1912
  340MOL0     C44804   2.821   7.036   3.412 -0.2830 -0.5394 -0.7638
  340MOL0     C44805   2.775   7.078   3.542 -0.6900 -0.6175 -0.0463
  340MOL0     O44806   2.849   7.181   3.602 -0.5184 -0.6189 -1.1401
  340MOL0     C44807   2.794   7.286   3.688 -0.4051  0.5305  0.4338
  340MOL0     C44808   2.896   7.400   3.683 -0.8565  0.5023  0.0643
  340MOL0     C44809   2.909   7.464   3.537 -0.1697  1.1975 -0.3556
  340MOL0     C44810   2.959   7.601   3.556 -0.4320 -0.3969  0.2454
  340MOL0     C44811   2.999   7.654   3.421 -0.3314  0.0419 -1.1075
  340MOL0     C44812   3.046   7.698   3.314  1.2612  0.2405  0.3927
  340MOL0     C44813   2.659   7.032   3.595 -0.2837  0.0879 -0.6979
  340MOL0     C44814   2.587   6.942   3.521 -0.0664  0.3977 -0.0033
  340MOL0     H44815   2.267   6.768   3.199 -3.4476  4.5941 -0.9824
  340MOL0     H44816   2.164   6.678   3.000 -0.1636  0.3741  3.0197
  340MOL0     H44817   2.314   6.776   2.597  2.1488  0.9533  1.8876
  340MOL0     H44818   2.169   6.844   2.694 -0.2485 -0.9534 -0.0876
  340MOL0     H44819   2.176   6.596   2.518  3.1987  0.3651  2.0389
  340MOL0     H44820   2.118   6.758   2.474  0.3000 -2.6988 -2.7405
  340MOL0     H44821   1.936   6.742   2.645 -1.1519 -1.8169  1.8228
  340MOL0     H44822   2.008   6.583   2.682  3.0995 -1.1615 -2.5383
  340MOL0     H44823   1.936   6.502   2.459 -0.1417 -0.5567 -0.6189
  340MOL0     H44824   1.795   6.588   2.522 -0.3193 -0.9756 -1.4261
  340MOL0     H44825   1.820   6.639   2.296  0.3865 -0.2210 -0.2828
  340MOL0     H44826   1.981   6.686   2.305  0.3262 -0.8500  0.5863
  340MOL0     H44827   1.918   6.881   2.432  0.4301 -2.1410 -0.3686
  340MOL0     H44828   1.755   6.820   2.463  0.1815  2.3411  1.1418
  340MOL0     H44829   1.736   6.994   2.297 -0.2710 -0.3648 -1.3834
  340MOL0     H44830   1.876   6.915   2.208  0.4139 -1.0000  0.4626
  340MOL0     H44831   1.616   6.760   2.247 -1.4140  0.1709 -1.3079
  340MOL0     H44832   1.736   6.751   2.118  2.4207  1.4046  1.4047
  340MOL0     H44833   1.483   7.022   2.250 -0.7273  0.2088 -0.8690
  340MOL0     H44834   1.206   7.008   1.964 -3.2374  1.1776  0.6410
  340MOL0     H44835   1.274   7.164   2.017  1.4941  0.9238  2.8341
  340MOL0     H44836   1.124   7.143   2.195  2.8736  1.1381  2.0856
  340MOL0     H44837   1.261   7.081   2.259  1.3432  0.5162 -1.7330
  340MOL0     H44838   1.190   6.844   2.209 -0.7604 -0.7874  1.0256
  340MOL0     H44839   1.091   6.936   2.318  0.0049  1.1655 -0.9828
  340MOL0     H44840   0.946   6.800   2.172 -0.2722  0.0080  0.3693
  340MOL0     H44841   0.990   6.908   2.034  0.7856  1.7705  0.0159
  340MOL0     H44842   0.751   6.800   2.019  1.5432 -3.7097  4.7244
  340MOL0     H44843   0.512   6.774   1.998 -4.1706  0.1901  2.3624
  340MOL0     H44844   0.045   7.176   2.269  0.6431 -0.5388  0.2315
  340MOL0     H44845  -0.176   7.109   2.369 -0.7778  0.5473  0.8170
  340MOL0     H44846  -0.277   6.967   2.534 -1.3822 -0.8805  2.1726
  340MOL0     H44847  -0.389   6.836   2.556  1.1544  0.5644  2.3049
  340MOL0     H44848  -0.410   7.082   2.380  1.7765 -0.7139  0.3530
  340MOL0     H44849  -0.531   7.014   2.485 -1.3502  1.2614 -1.0690
  340MOL0     H44850  -0.462   6.903   2.203 -0.6392  4.0936 -0.3459
  340MOL0     H44851  -0.598   6.983   2.250  1.0018  0.5148  0.2048
  340MOL0     H44852  -0.484   6.725   2.335  0.3053  0.4301  2.4170
  340MOL0     H44853  -0.619   6.793   2.422  1.6362  2.2238  0.2751
  340MOL0     H44854  -0.618   6.722   2.122  0.4136 -0.9203  0.4996
  340MOL0     H44855  -0.756   6.779   2.215 -0.1414  0.5623  0.6132
  340MOL0     H44856  -0.698   6.551   2.356 -0.0908  1.8551  0.8441
  340MOL0     H44857  -0.592   6.515   2.222  0.7496  1.8087 -1.3072
  340MOL0     H44858  -0.889   6.564   2.209  0.0232  1.1768  0.6023
  340MOL0     H44859  -0.787   6.518   2.061  0.4427  0.9209 -0.0800
  340MOL0     H44860  -0.807   6.339   2.298  2.9604 -1.1333  0.1652
  340MOL0     H44861  -0.754   6.312   2.122 -0.1479  0.4462 -0.6887
  340MOL0     H44862  -0.080   6.686   2.314  0.1327 -1.2091 -1.5118
  340MOL0     H44863   0.157   6.758   2.249 -2.4909 -1.7775 -0.2219
  340MOL0     H44864   0.461   7.095   2.280  1.6078 -0.2344  3.1272
  340MOL0     H44865   0.704   7.129   2.291  1.4147 -2.3602  2.8339
  340MOL0     H44866   2.483   6.825   2.760 -2.8456  3.4795 -0.5109
  340MOL0     H44867   2.599   6.911   2.966  0.5955  0.2699  1.3956
  340MOL0     H44868   2.772   6.910   3.237  2.0961 -2.2180  1.3423
  340MOL0     H44869   2.902   7.086   3.360 -0.7976 -1.3395 -2.3990
  340MOL0     H44870   2.788   7.248   3.790  0.1986  0.8514  0.5971
  340MOL0     H44871   2.695   7.307   3.648 -1.0803 -0.9437  1.2393
  340MOL0     H44872   2.857   7.468   3.759 -0.8441 -1.0979  1.5426
  340MOL0     H44873   2.993   7.370   3.723 -0.8442 -1.0465 -1.0424
  340MOL0     H44874   2.812   7.469   3.486 -0.4746 -4.3022 -0.8640
  340MOL0     H44875   2.971   7.403   3.470 -2.6624 -2.1689  0.1587
  340MOL0     H44876   2.883   7.664   3.602  1.4905  0.8218  1.9094
  340MOL0     H44877   3.046   7.585   3.620 -0.5164  3.9499  1.7645
  340MOL0     H44878   3.091   7.746   3.230 -0.5016 -1.2793 -1.5364
  340MOL0     H44879   2.627   7.047   3.698 -1.0343 -4.6771 -0.0253
  340MOL0     H44880   2.503   6.910   3.581 -0.8620 -0.8562 -1.7136
  341MOL0     O44881   4.497   0.201   5.293 -0.0462 -0.1792  0.0250
  341MOL0     C44882   4.408   0.121   5.265 -0.5497 -0.1584 -0.5922
  341MOL0     O44883   4.310   0.141   5.179 -0.1152 -0.4896  0.0231
  341MOL0     C44884   4.304   0.261   5.107 -0.8641 -0.3600  0.1889
  341MOL0     C44885   4.329   0.394   5.154 -0.3340  0.0233 -0.2906
  341MOL0     C44886   4.338   0.495   5.057 -0.4162 -0.7444  0.0321
  341MOL0     C44887   4.317   0.480   4.919 -0.5414  1.4665 -0.0319
  341MOL0     O44888   4.333   0.578   4.826  0.8054 -0.8859 -0.0223
  341MOL0     C44889   4.233   0.591   4.723  0.7037 -0.6564  0.8901
  341MOL0     C44890   4.185   0.739   4.713 -0.8404 -0.2061  0.9457
  341MOL0     C44891   4.086   0.741   4.585  0.3753  0.4862 -0.0864
  341MOL0     C44892   4.102   0.882   4.530  0.6985 -0.7383  0.6400
  341MOL0     C44893   4.076   0.885   4.380 -0.0035 -0.4256 -0.5970
  341MOL0     C44894   3.927   0.855   4.343 -0.9038 -0.1259 -0.4615
  341MOL0     C44895   3.825   0.952   4.405  0.0266  0.6526  0.3889
  341MOL0     C44896   3.849   1.104   4.386  0.0045  0.2714 -1.5585
  341MOL0     N44897   3.854   1.140   4.243 -0.5377  0.5170  0.3557
  341MOL0     C44898   3.772   1.109   4.138  1.0228  0.1861 -0.4243
  341MOL0     C44899   3.808   1.176   4.025  0.5855 -0.7656 -0.3720
  341MOL0     C44900   3.737   1.190   3.905  0.5196  0.2594 -0.2526
  341MOL0     C44901   3.823   1.156   3.782  0.3440  0.3214 -0.2676
  341MOL0     C44902   3.936   1.048   3.793  0.1999  0.3650  0.4161
  341MOL0     C44903   4.006   1.000   3.656  0.3702 -0.1258  0.3723
  341MOL0     O44904   3.937   0.878   3.638 -0.1408 -0.0397 -0.0411
  341MOL0     C44905   3.891   0.866   3.505  0.0942 -0.5845 -0.4003
  341MOL0     C44906   3.970   0.904   3.393  0.1818 -1.3734  0.4429
  341MOL0     C44907   3.912   0.900   3.263 -0.5692  1.9211 -1.1015
  341MOL0     C44908   3.782   0.864   3.248  0.6226 -0.4110  0.0411
  341MOL0     C44909   3.719   0.878   3.115  0.9307  0.6422 -0.2605
  341MOL0     O44910   3.785   0.951   3.024 -0.6893  0.2875 -0.3034
  341MOL0     C44911   3.749   0.945   2.887  0.2811 -0.4425  0.1039
  341MOL0     C44912   3.787   0.839   2.807 -0.7694  0.1759  0.0159
  341MOL0     C44913   3.747   0.818   2.674 -1.0126 -0.3097  0.0822
  341MOL0     C44914   3.654   0.916   2.619 -0.3164 -0.2462 -0.3292
  341MOL0     O44915   3.625   0.903   2.486 -0.4522  1.0236  0.0397
  341MOL0     C44916   3.518   0.975   2.416 -0.4730  0.6238 -0.2059
  341MOL0     C44917   3.499   0.946   2.265  0.1761  0.1204 -0.6442
  341MOL0     C44918   3.369   1.008   2.198  0.0682  0.3457 -0.8223
  341MOL0     C44919   3.368   1.020   2.045 -0.1760  0.0851  0.0492
  341MOL0     C44920   3.406   0.883   1.977  0.4601 -0.5724 -0.2193
  341MOL0     C44921   3.292   0.786   2.012 -1.1240 -0.1091  0.0649
  341MOL0     C44922   3.293   0.658   1.925 -0.9114 -0.1452  0.5435
  341MOL0     C44923   3.205   0.548   1.993  0.3494  0.6443 -0.0630
  341MOL0    Cl44924   3.267   0.395   1.922  0.5501  0.3257 -0.2553
  341MOL0     C44925   3.605   1.016   2.706 -0.2825  0.2560  0.4054
  341MOL0     C44926   3.649   1.034   2.840 -0.2417 -0.2198  1.0360
  341MOL0     O44927   3.617   0.818   3.092 -0.3324  0.1920 -0.1130
  341MOL0     C44928   3.707   0.825   3.358  0.2443 -0.6826 -0.1241
  341MOL0     C44929   3.763   0.833   3.487 -0.1799  0.7040 -0.0571
  341MOL0     N44930   3.922   1.248   4.060  0.1297 -0.6968  1.1834
  341MOL0     N44931   3.937   1.232   4.190  0.1117  0.5838  0.1933
  341MOL0     C44932   4.278   0.348   4.880  0.2236 -0.2784 -0.0366
  341MOL0     C44933   4.276   0.240   4.970 -0.1978 -0.2857 -0.2439
  341MOL0     C44934   4.422  -0.003   5.341  0.8661 -0.6738  0.3421
  341MOL0     C44935   4.317  -0.094   5.331 -0.0152  0.5876  0.0283
  341MOL0     C44936   4.321  -0.215   5.398 -1.1122  0.2936  0.6183
  341MOL0     C44937   4.433  -0.243   5.477  0.4619  0.4862 -0.5201
  341MOL0     O44938   4.457  -0.363   5.531  0.3143  0.2386 -0.6849
  341MOL0     C44939   4.368  -0.470   5.495  0.2375  0.2202 -0.2888
  341MOL0     C44940   4.446  -0.601   5.524 -0.5568 -0.1872  0.3233
  341MOL0     C44941   4.568  -0.601   5.425 -0.0641 -0.4598 -0.0798
  341MOL0     C44942   4.663  -0.724   5.439 -0.3660  0.3080 -0.5106
  341MOL0     C44943   4.685  -0.766   5.579 -1.3729  0.3086 -0.0194
  341MOL0     C44944   4.698  -0.796   5.701  0.0437 -0.5191 -0.4852
  341MOL0     C44945   4.528  -0.148   5.500  0.4115 -1.2540 -0.2550
  341MOL0     C44946   4.526  -0.028   5.429 -0.1680  0.2135 -0.1541
  341MOL0     H44947   4.355   0.420   5.256 -2.2350  2.7899 -0.3995
  341MOL0     H44948   4.366   0.598   5.076  0.6568 -0.4632 -2.6704
  341MOL0     H44949   4.153   0.526   4.761 -0.2650  0.1057  0.2198
  341MOL0     H44950   4.268   0.555   4.626 -0.0442 -1.7772  1.0158
  341MOL0     H44951   4.273   0.796   4.684 -0.6924 -0.2150  1.3781
  341MOL0     H44952   4.146   0.788   4.803  0.5486 -0.3631  1.6466
  341MOL0     H44953   3.985   0.728   4.625  0.8395  2.4599  1.9907
  341MOL0     H44954   4.097   0.659   4.515 -3.9280  0.4336 -1.0105
  341MOL0     H44955   4.042   0.954   4.587  1.6366  0.4749  0.1299
  341MOL0     H44956   4.204   0.917   4.544  1.5744 -0.9373 -3.7445
  341MOL0     H44957   4.143   0.805   4.347 -0.5077 -1.7986  1.4437
  341MOL0     H44958   4.104   0.979   4.333 -1.1879  1.5568  2.3400
  341MOL0     H44959   3.891   0.759   4.379  1.4079  0.0953  2.9978
  341MOL0     H44960   3.939   0.867   4.235  2.0048 -0.2501 -0.2285
  341MOL0     H44961   3.727   0.936   4.359 -1.2092  1.0712  2.7559
  341MOL0     H44962   3.819   0.942   4.514  0.5313  2.2589  0.5883
  341MOL0     H44963   3.930   1.151   4.443  0.2975 -0.3224 -1.4851
  341MOL0     H44964   3.761   1.156   4.423 -0.6863 -1.5977 -0.4501
  341MOL0     H44965   3.676   1.062   4.149 -0.1983  1.9987 -2.4693
  341MOL0     H44966   3.698   1.290   3.887  2.3239  1.6101  2.5950
  341MOL0     H44967   3.649   1.126   3.917  0.6154 -0.5214 -3.0024
  341MOL0     H44968   3.866   1.251   3.749  2.0707 -0.4052 -0.1652
  341MOL0     H44969   3.760   1.117   3.701  1.4392 -3.1184  0.3573
  341MOL0     H44970   4.011   1.106   3.848 -1.0124  3.0441 -0.5763
  341MOL0     H44971   3.898   0.963   3.850 -0.9077  0.0601 -0.7242
  341MOL0     H44972   4.112   0.975   3.668  1.4009  3.9060  1.2476
  341MOL0     H44973   3.996   1.074   3.575 -0.1362  0.2502  0.7727
  341MOL0     H44974   4.069   0.945   3.414 -1.0125  3.3513 -1.8174
  341MOL0     H44975   3.968   0.925   3.173 -1.6861  1.7237 -1.8679
  341MOL0     H44976   3.860   0.781   2.862 -2.4992 -0.3372  1.8766
  341MOL0     H44977   3.779   0.728   2.623 -0.8358 -1.8964  2.8009
  341MOL0     H44978   3.542   1.081   2.426  0.7571  0.2547  1.0968
  341MOL0     H44979   3.432   0.948   2.478  0.2458 -3.8570 -0.8231
  341MOL0     H44980   3.497   0.837   2.252 -0.6590  0.1832 -1.1097
  341MOL0     H44981   3.586   0.981   2.209  0.7810  0.0466  0.2480
  341MOL0     H44982   3.362   1.111   2.234  2.1647  0.2250  0.0961
  341MOL0     H44983   3.276   0.956   2.222 -0.9558  1.6635 -1.8328
  341MOL0     H44984   3.270   1.049   2.008  0.8507 -0.0669 -3.1427
  341MOL0     H44985   3.422   1.105   2.001 -0.3816 -0.8760 -2.1914
  341MOL0     H44986   3.503   0.844   2.010  1.0900 -0.7270 -2.1092
  341MOL0     H44987   3.411   0.898   1.868 -0.7527  1.6749 -0.0271
  341MOL0     H44988   3.201   0.846   2.002 -0.7580  1.2058  3.3321
  341MOL0     H44989   3.311   0.750   2.114  1.3238 -2.3428 -1.0653
  341MOL0     H44990   3.259   0.679   1.823 -3.0255 -2.0795  0.7466
  341MOL0     H44991   3.392   0.611   1.922 -0.4977  0.7478  0.0897
  341MOL0     H44992   3.101   0.574   1.970  0.7898  1.4907 -1.1960
  341MOL0     H44993   3.221   0.547   2.101 -0.6923 -0.9726  0.1251
  341MOL0     H44994   3.545   1.098   2.667 -1.7425  0.0022  2.0059
  341MOL0     H44995   3.602   1.109   2.902  1.6481  2.1145 -0.2075
  341MOL0     H44996   3.605   0.788   3.351 -0.6317  1.7937 -1.4912
  341MOL0     H44997   3.712   0.796   3.576 -0.1246  2.8449  0.9269
  341MOL0     H44998   4.269   0.333   4.773 -2.7315 -1.0240  0.2486
  341MOL0     H44999   4.262   0.139   4.935 -0.5355 -0.5524  0.6251
  341MOL0     H45000   4.237  -0.089   5.258 -0.9314 -2.8686  0.6096
  341MOL0     H45001   4.244  -0.286   5.370  0.7795 -1.2263 -1.0312
  341MOL0     H45002   4.346  -0.474   5.388 -1.1992 -3.1832  0.0122
  341MOL0     H45003   4.276  -0.460   5.553  1.2401  0.8001  1.2708
  341MOL0     H45004   4.481  -0.617   5.626  0.9363  0.8242  0.0040
  341MOL0     H45005   4.379  -0.684   5.498 -0.8799  0.3986 -0.7658
  341MOL0     H45006   4.640  -0.519   5.432 -0.0404 -0.5313  0.4833
  341MOL0     H45007   4.528  -0.596   5.323 -1.3156 -2.0439  0.2914
  341MOL0     H45008   4.645  -0.805   5.368  2.4367  0.5592 -1.6351
  341MOL0     H45009   4.765  -0.701   5.408  1.2611 -5.6696 -0.6823
  341MOL0     H45010   4.722  -0.827   5.801  0.6491 -0.7733 -0.7096
  341MOL0     H45011   4.593  -0.162   5.586 -1.5820 -0.5222  1.4958
  341MOL0     H45012   4.602   0.042   5.462 -2.6340  2.1266  1.8797
  342MOL0     O45013   5.867   8.830   4.209  0.1292 -0.3042 -0.1567
  342MOL0     C45014   5.868   8.834   4.331  1.1691 -0.0295 -0.0511
  342MOL0     O45015   5.871   8.731   4.408  0.0461 -0.5973 -0.0300
  342MOL0     C45016   5.885   8.602   4.348  0.5065  0.2457 -0.7764
  342MOL0     C45017   5.810   8.500   4.399 -0.7998 -0.2472  0.1762
  342MOL0     C45018   5.838   8.375   4.346  0.7591  0.2587  0.3952
  342MOL0     C45019   5.945   8.340   4.265  0.1708  0.3909 -0.3298
  342MOL0     O45020   5.930   8.213   4.203 -0.4829 -0.4204 -0.9019
  342MOL0     C45021   6.052   8.172   4.132  0.8532  0.3314 -0.3116
  342MOL0     C45022   6.036   8.022   4.111 -0.2408 -0.5395  0.6457
  342MOL0     C45023   6.130   7.980   3.993 -1.2240  0.1386 -0.5509
  342MOL0     C45024   6.082   7.831   3.962 -0.1239 -0.5635 -0.3079
  342MOL0     C45025   6.156   7.768   3.839  0.6697 -0.3445  0.1577
  342MOL0     C45026   6.125   7.618   3.815  0.5883  0.2375  0.8477
  342MOL0     C45027   5.985   7.601   3.761 -0.0093 -2.0139 -0.3703
  342MOL0     C45028   5.924   7.464   3.793 -0.1606 -0.1470  0.1861
  342MOL0     N45029   6.030   7.356   3.765  0.1958 -0.8272  0.3886
  342MOL0     C45030   6.105   7.360   3.653 -0.3325  0.1236  0.3677
  342MOL0     C45031   6.227   7.304   3.688  0.4737 -0.6391  0.1055
  342MOL0     C45032   6.354   7.298   3.604 -0.4147 -0.0636 -0.4244
  342MOL0     C45033   6.442   7.415   3.628 -0.3942  0.2587 -0.7789
  342MOL0     C45034   6.570   7.394   3.552 -0.7647  0.0557 -0.1475
  342MOL0     C45035   6.662   7.521   3.554  0.1316 -0.5521 -0.0866
  342MOL0     O45036   6.609   7.616   3.465  0.0802 -1.1284 -0.0596
  342MOL0     C45037   6.606   7.751   3.506 -0.0020  0.0282  0.7810
  342MOL0     C45038   6.703   7.826   3.568 -0.2022  0.3864  0.5543
  342MOL0     C45039   6.681   7.954   3.623  0.2064  0.2732 -0.5741
  342MOL0     C45040   6.555   8.008   3.612  0.2386 -0.2301 -0.8037
  342MOL0     C45041   6.535   8.148   3.667  0.7265 -0.3931  0.5416
  342MOL0     O45042   6.646   8.203   3.716  0.1346  0.0816  0.2022
  342MOL0     C45043   6.651   8.332   3.764 -0.5243 -0.6703 -0.1938
  342MOL0     C45044   6.577   8.377   3.873  0.2379 -0.3041 -0.7880
  342MOL0     C45045   6.601   8.510   3.920 -0.2197  0.0635  0.2869
  342MOL0     C45046   6.691   8.601   3.865  0.6135  0.7315 -0.2336
  342MOL0     O45047   6.687   8.729   3.913  0.3110 -0.2432 -0.0807
  342MOL0     C45048   6.802   8.804   3.886 -0.2351 -1.0135  0.7579
  342MOL0     C45049   6.802   8.924   3.979  0.4143  0.6661 -0.8089
  342MOL0     C45050   6.903   9.033   3.936 -0.5043 -0.3902  0.4292
  342MOL0     C45051   7.053   8.974   3.918  0.3377 -0.7518 -0.1368
  342MOL0     C45052   7.144   9.083   3.864  0.8484 -0.7034  0.1378
  342MOL0     C45053   7.283   9.043   3.838  0.0136  0.1476  0.9979
  342MOL0     C45054   7.373   9.042   3.968  0.5929  0.0554  1.0433
  342MOL0     C45055   7.509   9.118   3.940  0.8554  0.5775  0.7059
  342MOL0    Cl45056   7.612   9.034   3.822  0.3978 -0.1350  0.1784
  342MOL0     C45057   6.764   8.551   3.757  1.3547  0.5291  0.5825
  342MOL0     C45058   6.737   8.424   3.700  0.0352  0.8767 -0.2711
  342MOL0     O45059   6.423   8.203   3.648  0.2454  0.6743 -1.1043
  342MOL0     C45060   6.453   7.932   3.554  0.6739 -0.3760  1.0637
  342MOL0     C45061   6.480   7.806   3.499  0.1148  0.1209  0.2366
  342MOL0     N45062   6.212   7.249   3.812  0.3358  0.1927  0.1548
  342MOL0     N45063   6.099   7.285   3.859  0.0180  0.3919  0.2972
  342MOL0     C45064   6.026   8.441   4.224 -0.7926  0.0425  0.0733
  342MOL0     C45065   5.996   8.574   4.257  0.2192  0.1988 -0.4185
  342MOL0     C45066   5.862   8.968   4.399  0.2640 -0.6086  0.1472
  342MOL0     C45067   5.875   9.086   4.320 -1.1471  0.1951 -0.0370
  342MOL0     C45068   5.843   9.206   4.372  0.1273  0.3448 -0.0435
  342MOL0     C45069   5.812   9.213   4.515 -0.4122 -0.7101 -0.2600
  342MOL0     O45070   5.785   9.331   4.589  0.3917  0.7861  0.8094
  342MOL0     C45071   5.792   9.460   4.524  0.4170 -0.0779  0.2461
  342MOL0     C45072   5.941   9.491   4.523 -0.7738 -0.6630  0.4963
  342MOL0     C45073   5.960   9.636   4.469  1.1884  0.1997  0.8325
  342MOL0     C45074   5.936   9.639   4.311 -0.3606 -0.0337  0.8121
  342MOL0     C45075   5.965   9.774   4.257 -0.3364  0.0790 -1.4777
  342MOL0     C45076   6.009   9.890   4.252 -0.6984 -0.9127 -0.0221
  342MOL0     C45077   5.813   9.106   4.596 -0.6542  0.3892  0.4554
  342MOL0     C45078   5.832   8.981   4.538  0.2119  0.1326  0.0108
  342MOL0     H45079   5.730   8.522   4.468 -2.0944 -3.3216 -0.2204
  342MOL0     H45080   5.790   8.286   4.386  1.1807  1.8823  5.0450
  342MOL0     H45081   6.134   8.199   4.200 -0.4805  1.7160  0.8448
  342MOL0     H45082   6.059   8.228   4.039 -4.6828 -0.3703 -1.5135
  342MOL0     H45083   5.934   7.992   4.085 -0.1717  1.4585 -2.2903
  342MOL0     H45084   6.057   7.966   4.203 -0.1875  0.8049  1.4813
  342MOL0     H45085   6.236   7.984   4.021 -0.1756  0.5602 -4.1710
  342MOL0     H45086   6.113   8.049   3.910 -1.9042 -0.3547 -0.8293
  342MOL0     H45087   6.103   7.755   4.037 -1.2155  1.7730  2.5458
  342MOL0     H45088   5.974   7.838   3.941 -0.2658  0.3894  0.6772
  342MOL0     H45089   6.263   7.775   3.859  0.4041 -0.8852  1.9379
  342MOL0     H45090   6.142   7.838   3.756  0.1207 -1.2757 -0.5515
  342MOL0     H45091   6.136   7.573   3.914  0.5020 -0.9885  0.3094
  342MOL0     H45092   6.197   7.569   3.749 -0.7966 -0.6112 -0.0874
  342MOL0     H45093   5.918   7.676   3.803 -1.3498 -2.3751 -1.7555
  342MOL0     H45094   5.999   7.628   3.656  1.9251  1.4064  0.6333
  342MOL0     H45095   5.838   7.447   3.727 -0.3482  1.1241  0.0839
  342MOL0     H45096   5.893   7.459   3.898  1.3309 -1.2479  0.6136
  342MOL0     H45097   6.078   7.425   3.570 -3.8269  1.4924  2.3753
  342MOL0     H45098   6.319   7.289   3.500 -2.5074 -3.0048  0.4140
  342MOL0     H45099   6.392   7.200   3.633 -0.2234  0.6048  1.7619
  342MOL0     H45100   6.470   7.419   3.734  2.1473 -2.3392 -1.2272
  342MOL0     H45101   6.399   7.514   3.611 -0.4216  0.8954  2.3096
  342MOL0     H45102   6.630   7.312   3.591 -0.8336 -0.0293 -0.2208
  342MOL0     H45103   6.543   7.369   3.449 -2.1980 -1.5437  0.5574
  342MOL0     H45104   6.766   7.496   3.530  0.6374  0.4782  0.9510
  342MOL0     H45105   6.662   7.565   3.654  0.9375 -0.9738  0.1083
  342MOL0     H45106   6.804   7.787   3.569 -0.0915  0.4897 -1.4612
  342MOL0     H45107   6.755   8.017   3.672 -1.6765  2.0451  0.1354
  342MOL0     H45108   6.508   8.304   3.914  0.8934 -1.2714 -1.3480
  342MOL0     H45109   6.537   8.548   3.999  1.3815  1.8675  0.7874
  342MOL0     H45110   6.792   8.836   3.782 -3.2879 -1.8759  0.7011
  342MOL0     H45111   6.898   8.752   3.897 -1.4127 -3.5845 -0.1753
  342MOL0     H45112   6.826   8.890   4.081  0.9456 -1.9056 -1.7239
  342MOL0     H45113   6.702   8.966   3.978 -0.5187 -1.3529  0.3189
  342MOL0     H45114   6.911   9.105   4.018  0.5490 -1.0864  0.9571
  342MOL0     H45115   6.876   9.086   3.844  1.7696  3.6505  1.8268
  342MOL0     H45116   7.102   8.941   4.011  1.8566  2.7482  0.4568
  342MOL0     H45117   7.055   8.887   3.852  0.6609 -0.1664 -0.9143
  342MOL0     H45118   7.148   9.161   3.939 -0.5673 -1.4112  0.9904
  342MOL0     H45119   7.097   9.124   3.774  0.8993 -1.1274 -0.0832
  342MOL0     H45120   7.329   9.104   3.759  1.6782 -3.3559 -0.9794
  342MOL0     H45121   7.290   8.942   3.795 -1.7964  0.4498 -0.1075
  342MOL0     H45122   7.325   9.086   4.056 -1.7938 -0.8754  0.3018
  342MOL0     H45123   7.395   8.938   3.992 -0.0574 -0.6360 -1.1073
  342MOL0     H45124   7.560   9.117   4.036  2.0461 -2.7161  0.1924
  342MOL0     H45125   7.485   9.219   3.905 -2.2140 -0.3165 -0.1549
  342MOL0     H45126   6.813   8.624   3.693  0.6407 -1.1746 -2.0779
  342MOL0     H45127   6.787   8.379   3.615 -1.9056 -1.8623 -0.1021
  342MOL0     H45128   6.350   7.966   3.560 -0.6779 -3.1799 -2.4265
  342MOL0     H45129   6.401   7.749   3.452  0.6401  2.0108 -3.2475
  342MOL0     H45130   6.109   8.422   4.157 -0.9872  0.2802 -0.2391
  342MOL0     H45131   6.064   8.647   4.216 -1.7457  1.5052 -1.5166
  342MOL0     H45132   5.892   9.091   4.213 -3.0109  0.5821 -0.3330
  342MOL0     H45133   5.849   9.298   4.315 -0.6597  2.5552  3.1777
  342MOL0     H45134   5.734   9.536   4.577  2.4469  1.3982  0.4465
  342MOL0     H45135   5.760   9.449   4.420  2.8774 -2.4701 -0.3668
  342MOL0     H45136   5.978   9.492   4.626 -0.2487  0.4961  0.3155
  342MOL0     H45137   6.005   9.418   4.472  0.4444 -0.9713  2.3894
  342MOL0     H45138   6.067   9.661   4.475  1.1511 -0.0498  4.1512
  342MOL0     H45139   5.897   9.706   4.524 -2.4345 -0.5115 -1.9822
  342MOL0     H45140   6.009   9.572   4.264 -1.6056 -0.8272 -0.0522
  342MOL0     H45141   5.835   9.619   4.276  0.1826  1.5577 -1.8979
  342MOL0     H45142   6.035   9.993   4.268 -0.1312 -1.2337  1.2607
  342MOL0     H45143   5.799   9.084   4.701  0.0358 -3.2504 -0.0764
  342MOL0     H45144   5.807   8.886   4.584  1.8970 -1.2202 -1.6587
  343MOL0     O45145   2.104   5.899   1.337  0.4511  0.1747 -0.7650
  343MOL0     C45146   2.160   5.837   1.248  0.7800 -0.0574 -0.2184
  343MOL0     O45147   2.294   5.829   1.219 -0.3783  0.0521 -0.0396
  343MOL0     C45148   2.370   5.903   1.305  0.8930  0.0998  0.1357
  343MOL0     C45149   2.445   5.844   1.413 -0.7709  0.6684 -0.2216
  343MOL0     C45150   2.533   5.927   1.495 -0.0149 -0.4598  0.0306
  343MOL0     C45151   2.542   6.063   1.471 -0.5615 -1.0096 -0.0853
  343MOL0     O45152   2.629   6.151   1.536 -0.6266  0.3254  0.9937
  343MOL0     C45153   2.727   6.095   1.625  0.0540  0.2183 -0.4571
  343MOL0     C45154   2.824   6.199   1.668 -0.5467  0.6598 -0.9586
  343MOL0     C45155   2.763   6.323   1.735 -0.0702  0.2531 -0.0802
  343MOL0     C45156   2.804   6.462   1.689 -0.5741  0.5879 -0.4684
  343MOL0     C45157   2.744   6.495   1.547 -0.0512 -0.2421  0.4813
  343MOL0     C45158   2.808   6.625   1.500  0.3615 -0.0676 -0.5182
  343MOL0     C45159   2.741   6.761   1.521 -0.0364  0.4217  0.9316
  343MOL0     C45160   2.606   6.784   1.462  0.4594 -0.3059  0.6141
  343MOL0     N45161   2.619   6.783   1.312 -0.6505 -0.7644 -0.4466
  343MOL0     C45162   2.717   6.854   1.240 -0.6032  0.5642  1.1496
  343MOL0     C45163   2.709   6.809   1.117 -0.4306 -1.1078  0.9044
  343MOL0     C45164   2.792   6.852   1.000 -0.9138  1.4153  1.2305
  343MOL0     C45165   2.923   6.768   0.984  0.1065  0.1682 -1.5970
  343MOL0     C45166   2.929   6.615   0.993  0.4374  1.2924  0.7036
  343MOL0     C45167   2.826   6.571   0.882 -0.9382 -0.1301  0.7886
  343MOL0     O45168   2.880   6.455   0.821 -0.2521 -0.2205 -1.2022
  343MOL0     C45169   2.991   6.450   0.745  0.1405  0.4137  0.7678
  343MOL0     C45170   3.008   6.318   0.705  0.4270 -0.1682  0.8776
  343MOL0     C45171   3.116   6.270   0.629  0.5236  0.7114 -0.1911
  343MOL0     C45172   3.207   6.375   0.577  0.7598  0.7109 -0.6600
  343MOL0     C45173   3.320   6.340   0.485 -0.2898 -0.3078  0.0382
  343MOL0     O45174   3.364   6.211   0.482  0.4116  1.2256 -0.4075
  343MOL0     C45175   3.459   6.175   0.394 -0.0795  0.5832  0.5187
  343MOL0     C45176   3.592   6.186   0.417  0.5388 -0.1260 -0.5673
  343MOL0     C45177   3.687   6.168   0.320  0.7809  0.9558  0.2260
  343MOL0     C45178   3.647   6.118   0.195 -0.2374  0.0408 -0.7114
  343MOL0     O45179   3.739   6.079   0.104  0.3896 -0.5980  0.6253
  343MOL0     C45180   3.714   6.108  -0.033  0.5743  0.0476 -0.0492
  343MOL0     C45181   3.827   6.037  -0.113  0.1737 -0.4753  0.1561
  343MOL0     C45182   3.778   6.017  -0.258 -1.0021 -0.1992  0.3250
  343MOL0     C45183   3.728   6.137  -0.334 -0.0723  0.3035 -0.6930
  343MOL0     C45184   3.760   6.119  -0.478 -0.1631  0.2409 -0.2968
  343MOL0     C45185   3.909   6.154  -0.518 -0.5427 -0.7100 -0.2678
  343MOL0     C45186   3.929   6.305  -0.539  0.2473 -0.3955  0.5237
  343MOL0     C45187   4.007   6.332  -0.667  0.6858  0.8680 -0.7802
  343MOL0    Cl45188   3.911   6.295  -0.805  0.2885 -0.0627 -0.0601
  343MOL0     C45189   3.515   6.087   0.171  0.4088 -0.1961 -1.1464
  343MOL0     C45190   3.422   6.117   0.271 -0.5356  0.9827 -0.1829
  343MOL0     O45191   3.360   6.428   0.411  0.6387 -0.6158  0.0731
  343MOL0     C45192   3.190   6.504   0.617  0.9483  0.7674 -0.8571
  343MOL0     C45193   3.080   6.544   0.708  0.2588 -0.2574  0.4170
  343MOL0     N45194   2.614   6.714   1.110 -0.7866 -0.3943  0.8496
  343MOL0     N45195   2.562   6.695   1.228  0.4940 -0.5758  0.8703
  343MOL0     C45196   2.454   6.129   1.382 -1.5605  0.2366 -0.3980
  343MOL0     C45197   2.369   6.051   1.298  0.4746  0.3985 -0.2244
  343MOL0     C45198   2.079   5.739   1.169  0.3741 -0.4177 -0.1172
  343MOL0     C45199   2.106   5.714   1.035 -0.3846  0.3129 -1.5911
  343MOL0     C45200   2.032   5.631   0.965 -0.2573  0.9402  0.0222
  343MOL0     C45201   1.909   5.583   1.012  1.0488  0.0560  0.4349
  343MOL0     O45202   1.818   5.511   0.937 -0.6975  0.5742 -0.7230
  343MOL0     C45203   1.837   5.470   0.803  0.5091  0.3495 -0.2346
  343MOL0     C45204   1.701   5.450   0.746  0.6620  0.1392 -0.0592
  343MOL0     C45205   1.632   5.317   0.805 -0.0436 -0.5028 -0.0166
  343MOL0     C45206   1.513   5.270   0.723  0.9192 -0.5477  0.0135
  343MOL0     C45207   1.556   5.230   0.583  0.1084  0.4129 -0.8743
  343MOL0     C45208   1.585   5.174   0.487  0.4771  0.3228 -0.7433
  343MOL0     C45209   1.878   5.615   1.137  0.7194 -0.8059  1.1273
  343MOL0     C45210   1.965   5.682   1.224  0.6551  0.1191  0.4947
  343MOL0     H45211   2.455   5.740   1.440 -1.8659  0.8234  0.8647
  343MOL0     H45212   2.587   5.866   1.567 -3.0686 -0.4761  2.5470
  343MOL0     H45213   2.778   6.018   1.567 -1.3608 -1.6181  0.6363
  343MOL0     H45214   2.692   6.045   1.716  0.5472 -0.0798 -0.4246
  343MOL0     H45215   2.892   6.222   1.585  0.8107 -4.2612 -1.5384
  343MOL0     H45216   2.879   6.139   1.741 -2.2978 -0.1158 -0.2350
  343MOL0     H45217   2.798   6.329   1.838  2.0098  1.9815 -0.8064
  343MOL0     H45218   2.654   6.314   1.729 -0.1847  0.6903  1.1156
  343MOL0     H45219   2.770   6.536   1.762 -2.0842  1.9539 -2.4596
  343MOL0     H45220   2.913   6.464   1.684 -0.5718  0.4160 -0.5018
  343MOL0     H45221   2.636   6.511   1.554  0.0089  0.5301 -0.2230
  343MOL0     H45222   2.758   6.417   1.472  2.2247 -0.4907  1.1132
  343MOL0     H45223   2.823   6.607   1.393  1.8666  3.9210 -1.1415
  343MOL0     H45224   2.908   6.624   1.542 -0.4273  1.5685  1.5611
  343MOL0     H45225   2.722   6.776   1.628 -0.5881 -0.8196  1.0221
  343MOL0     H45226   2.806   6.841   1.484  0.8080 -0.1827  1.0821
  343MOL0     H45227   2.567   6.882   1.489  1.9866  1.0843 -1.8435
  343MOL0     H45228   2.538   6.701   1.485 -1.3160 -0.2299 -3.4586
  343MOL0     H45229   2.779   6.933   1.282 -2.0303  1.3747  1.7833
  343MOL0     H45230   2.826   6.955   1.010 -0.7336  1.4368  0.4296
  343MOL0     H45231   2.725   6.844   0.914 -2.0097  0.8695  2.1060
  343MOL0     H45232   2.980   6.813   1.065 -1.8164  0.0810 -0.1264
  343MOL0     H45233   2.967   6.794   0.887  0.5873  1.5029 -1.0393
  343MOL0     H45234   3.030   6.578   0.974 -0.2641 -0.3832  0.0449
  343MOL0     H45235   2.889   6.578   1.088  1.7578 -1.9624  0.1228
  343MOL0     H45236   2.804   6.650   0.809 -2.3375  0.0526  1.3709
  343MOL0     H45237   2.728   6.555   0.928  0.6495  0.2012  4.7013
  343MOL0     H45238   2.942   6.244   0.749  0.3913  0.8261  2.5617
  343MOL0     H45239   3.112   6.168   0.591 -2.5169 -1.1657  4.2744
  343MOL0     H45240   3.643   6.218   0.508  2.1609  1.0542 -1.8340
  343MOL0     H45241   3.793   6.177   0.344  1.3870 -0.0240 -1.8325
  343MOL0     H45242   3.715   6.215  -0.055 -0.0736 -0.0573 -0.6123
  343MOL0     H45243   3.617   6.067  -0.061  1.2159 -0.1156 -2.2153
  343MOL0     H45244   3.851   5.940  -0.068 -0.0043 -0.0405  1.2169
  343MOL0     H45245   3.919   6.096  -0.113  0.2596 -0.6073  0.3053
  343MOL0     H45246   3.713   5.929  -0.262  0.8181 -1.5723 -0.5962
  343MOL0     H45247   3.873   5.986  -0.303 -1.1202 -0.0309 -0.0441
  343MOL0     H45248   3.619   6.142  -0.325  0.0430  2.6827  0.0383
  343MOL0     H45249   3.781   6.223  -0.292  1.4535  0.9514 -3.6700
  343MOL0     H45250   3.699   6.183  -0.542  0.7767  0.8496 -0.6175
  343MOL0     H45251   3.745   6.015  -0.509  0.9864  0.2461 -0.9174
  343MOL0     H45252   3.927   6.101  -0.612  0.3703 -4.1369  1.6518
  343MOL0     H45253   3.983   6.107  -0.453  0.5006  1.2244  0.0134
  343MOL0     H45254   3.836   6.360  -0.552  1.8099  2.2174 -0.2561
  343MOL0     H45255   3.984   6.341  -0.452  0.4607 -3.3704  1.7648
  343MOL0     H45256   4.102   6.277  -0.669  2.0670  3.0891 -2.1758
  343MOL0     H45257   4.028   6.440  -0.665  4.3150  0.3401 -2.2031
  343MOL0     H45258   3.489   6.037   0.078 -1.4500 -1.0391 -0.2247
  343MOL0     H45259   3.317   6.092   0.262 -0.2506 -0.4708  0.3592
  343MOL0     H45260   3.263   6.578   0.584  0.6651  0.3440 -2.5519
  343MOL0     H45261   3.075   6.645   0.748  1.7849  0.4495 -1.0129
  343MOL0     H45262   2.472   6.233   1.354  0.9185  0.1654  0.6363
  343MOL0     H45263   2.310   6.108   1.227  0.8241  3.8322  2.0038
  343MOL0     H45264   2.184   5.764   0.979 -0.2550 -1.8464 -3.5121
  343MOL0     H45265   2.060   5.595   0.866 -1.9224 -1.1032  0.2150
  343MOL0     H45266   1.890   5.376   0.788  0.6535  0.6318 -1.6348
  343MOL0     H45267   1.876   5.556   0.748 -0.5604  0.5840 -0.6537
  343MOL0     H45268   1.644   5.539   0.774  3.1344  1.2544  1.7405
  343MOL0     H45269   1.703   5.438   0.637 -0.2195  0.0590 -0.0731
  343MOL0     H45270   1.591   5.342   0.903  0.2441  0.4390 -0.1263
  343MOL0     H45271   1.713   5.244   0.809 -0.4365 -0.9458  0.0284
  343MOL0     H45272   1.470   5.181   0.769 -0.3520  0.7166  1.3552
  343MOL0     H45273   1.435   5.346   0.728  1.5828  0.0862  2.8156
  343MOL0     H45274   1.606   5.124   0.394  0.7152  1.0594 -1.0917
  343MOL0     H45275   1.786   5.573   1.177 -0.2697 -0.2013 -0.4247
  343MOL0     H45276   1.941   5.708   1.326 -0.1321 -2.7069  1.1095
  344MOL0     O45277   7.426   0.807   7.807 -0.0648  0.5127  0.2775
  344MOL0     C45278   7.507   0.897   7.790 -0.6699 -0.9778  0.6916
  344MOL0     O45279   7.486   1.038   7.804 -0.1233 -1.0160 -0.6324
  344MOL0     C45280   7.371   1.071   7.871 -1.5212 -0.1720 -0.1538
  344MOL0     C45281   7.374   1.106   8.006 -0.0847  0.0553  0.9486
  344MOL0     C45282   7.262   1.128   8.080  0.4734 -0.4317  0.1211
  344MOL0     C45283   7.135   1.137   8.011 -0.5202  0.3473  1.1005
  344MOL0     O45284   7.027   1.174   8.081 -0.4209  0.0224  0.0349
  344MOL0     C45285   6.897   1.111   8.053  0.6118  1.0889  0.5560
  344MOL0     C45286   6.785   1.210   8.107 -0.4322 -0.6677  0.9681
  344MOL0     C45287   6.806   1.345   8.041 -0.8609  0.3931  0.9556
  344MOL0     C45288   6.668   1.413   8.034  0.1651 -0.6091  0.7413
  344MOL0     C45289   6.625   1.486   8.159 -0.9052  0.7803  1.4743
  344MOL0     C45290   6.492   1.557   8.135  0.5853  0.1754  0.0718
  344MOL0     C45291   6.365   1.493   8.169 -1.5398 -0.0451  0.0993
  344MOL0     C45292   6.319   1.525   8.311 -0.1854  0.4975  0.6085
  344MOL0     N45293   6.217   1.432   8.354 -0.2209 -0.2430  0.4241
  344MOL0     C45294   6.094   1.422   8.309  0.1320  0.5770 -0.1298
  344MOL0     C45295   6.032   1.338   8.384  1.4927 -0.4167  0.1861
  344MOL0     C45296   5.887   1.276   8.354  0.5481 -0.4372 -0.2046
  344MOL0     C45297   5.824   1.243   8.482 -0.3470 -0.4215 -0.4218
  344MOL0     C45298   5.676   1.195   8.493 -1.3232  0.1889  0.7307
  344MOL0     C45299   5.628   1.182   8.628  0.7867 -0.1417 -0.3464
  344MOL0     O45300   5.545   1.298   8.662  0.1517  0.2003  0.1664
  344MOL0     C45301   5.485   1.294   8.790  0.0998  1.0051  0.6551
  344MOL0     C45302   5.486   1.413   8.863  0.2304 -0.5601 -0.3348
  344MOL0     C45303   5.423   1.419   8.992  0.1301 -0.9664 -0.1936
  344MOL0     C45304   5.364   1.297   9.042 -0.1631 -0.0095 -0.4632
  344MOL0     C45305   5.276   1.305   9.166 -0.2171 -0.6399  0.0912
  344MOL0     O45306   5.172   1.405   9.165  0.1625 -0.2232 -0.3024
  344MOL0     C45307   5.078   1.411   9.267 -0.7486  0.2421  0.8381
  344MOL0     C45308   5.045   1.520   9.346  0.1259 -0.5702 -0.2531
  344MOL0     C45309   4.967   1.512   9.456  0.8844  0.9627 -1.1037
  344MOL0     C45310   4.896   1.398   9.485 -0.2786  0.1480 -0.2415
  344MOL0     O45311   4.806   1.374   9.589  0.3630  0.0333  1.1477
  344MOL0     C45312   4.761   1.489   9.660  0.4969 -0.8524 -0.6309
  344MOL0     C45313   4.627   1.455   9.736 -0.2470  0.2176  0.2929
  344MOL0     C45314   4.518   1.390   9.645 -0.1829  0.1688 -0.2672
  344MOL0     C45315   4.465   1.472   9.521  0.1361 -0.3809 -0.2464
  344MOL0     C45316   4.361   1.582   9.558 -0.3220 -0.1146  0.1394
  344MOL0     C45317   4.345   1.668   9.440  0.0371 -0.2531  0.2621
  344MOL0     C45318   4.204   1.748   9.456  0.1753  0.1901 -0.1189
  344MOL0     C45319   4.188   1.860   9.349  0.0856  0.2433 -0.3990
  344MOL0    Cl45320   4.307   1.981   9.357 -0.2977 -0.5160 -0.4225
  344MOL0     C45321   4.920   1.291   9.400  0.1103  0.6988 -0.4454
  344MOL0     C45322   5.009   1.296   9.297  0.7824 -0.0963  0.7532
  344MOL0     O45323   5.282   1.212   9.244 -0.8436 -0.6393 -0.4085
  344MOL0     C45324   5.379   1.178   8.973  0.1474 -0.6397  0.6870
  344MOL0     C45325   5.433   1.176   8.845  0.2524 -0.6581 -0.0628
  344MOL0     N45326   6.118   1.298   8.480 -0.0768  0.2135  0.0540
  344MOL0     N45327   6.237   1.354   8.464  0.2699 -0.2207 -0.8363
  344MOL0     C45328   7.134   1.113   7.869 -0.7123  0.7342 -0.7479
  344MOL0     C45329   7.253   1.066   7.806  1.1994  0.8937  0.4758
  344MOL0     C45330   7.621   0.858   7.712 -0.3010 -0.9257  0.0520
  344MOL0     C45331   7.679   0.735   7.727 -0.0204 -0.7551 -0.2728
  344MOL0     C45332   7.798   0.714   7.663 -0.3967  0.0842  0.0224
  344MOL0     C45333   7.850   0.799   7.569 -0.9249  1.3587  0.0736
  344MOL0     O45334   7.952   0.751   7.480 -0.6437 -0.2844  0.3478
  344MOL0     C45335   7.994   0.826   7.362 -0.0535 -0.7602  0.2382
  344MOL0     C45336   8.110   0.912   7.409 -0.7528 -0.8768 -1.0027
  344MOL0     C45337   8.187   0.960   7.291 -0.2260 -1.2228  0.5773
  344MOL0     C45338   8.331   0.920   7.315 -0.7827 -0.2846 -0.3158
  344MOL0     C45339   8.409   0.991   7.209 -0.7118  0.2343  0.7945
  344MOL0     C45340   8.450   1.059   7.114 -0.6633  0.6696  0.3178
  344MOL0     C45341   7.785   0.916   7.543  0.3255  0.9926  0.5787
  344MOL0     C45342   7.668   0.950   7.614 -0.2462  0.8110  0.1612
  344MOL0     H45343   7.474   1.108   8.048  1.0485  0.4986 -1.5886
  344MOL0     H45344   7.272   1.143   8.187  0.7615  1.0154 -0.0773
  344MOL0     H45345   6.889   1.009   8.093  2.9301 -0.4441 -2.5380
  344MOL0     H45346   6.878   1.086   7.949 -1.4521  0.0127  1.1297
  344MOL0     H45347   6.780   1.212   8.216 -0.7117  3.7628  1.0600
  344MOL0     H45348   6.691   1.164   8.074 -0.7070 -0.7671  1.8497
  344MOL0     H45349   6.844   1.318   7.942 -0.8440  2.5173  0.3342
  344MOL0     H45350   6.886   1.407   8.082  0.5511 -0.8870  0.2565
  344MOL0     H45351   6.669   1.487   7.953 -4.6159  1.3681  2.1151
  344MOL0     H45352   6.599   1.333   8.004  2.2863 -1.7917 -1.3447
  344MOL0     H45353   6.704   1.558   8.184  0.5837 -0.2164 -0.1061
  344MOL0     H45354   6.608   1.413   8.238 -0.7744  1.7758  2.4484
  344MOL0     H45355   6.483   1.599   8.034  0.3488  1.5497  0.6349
  344MOL0     H45356   6.508   1.636   8.209 -1.9763  0.7716  0.1052
  344MOL0     H45357   6.296   1.518   8.087  0.1378  1.0710 -1.0465
  344MOL0     H45358   6.385   1.386   8.157 -0.0106 -0.1198  2.6361
  344MOL0     H45359   6.265   1.620   8.308 -0.9343  0.0548 -1.3328
  344MOL0     H45360   6.397   1.539   8.387 -0.9947  1.6635  1.2565
  344MOL0     H45361   6.061   1.478   8.222  2.3096  1.6068 -0.3491
  344MOL0     H45362   5.904   1.193   8.284  0.7942  1.4678 -2.5228
  344MOL0     H45363   5.848   1.353   8.288  5.3626  0.4534 -2.3779
  344MOL0     H45364   5.834   1.333   8.544 -0.7545  1.3180 -2.7175
  344MOL0     H45365   5.888   1.173   8.535  0.2702  0.5672  0.1728
  344MOL0     H45366   5.607   1.261   8.439 -0.2608  0.0817 -0.8465
  344MOL0     H45367   5.675   1.097   8.445 -2.8233 -0.9136  2.8895
  344MOL0     H45368   5.720   1.161   8.682  2.0783  1.6565 -1.7021
  344MOL0     H45369   5.571   1.089   8.623  1.6315 -0.6270 -1.1554
  344MOL0     H45370   5.520   1.509   8.825  0.9789  0.1202  1.8745
  344MOL0     H45371   5.407   1.512   9.046 -0.6833 -0.0899 -1.8600
  344MOL0     H45372   5.115   1.602   9.329 -0.5937  0.3618  1.1203
  344MOL0     H45373   4.960   1.593   9.529  1.8600 -0.0645  0.1857
  344MOL0     H45374   4.747   1.585   9.609 -1.4463 -0.7590  0.0054
  344MOL0     H45375   4.847   1.512   9.724 -1.7081  0.3986  2.0896
  344MOL0     H45376   4.587   1.535   9.799 -1.8040 -1.6344  1.7830
  344MOL0     H45377   4.658   1.380   9.809  0.0652  0.1553  0.0999
  344MOL0     H45378   4.437   1.362   9.713  1.6358 -0.5916  1.7019
  344MOL0     H45379   4.557   1.293   9.614 -3.4648 -1.1274 -0.6711
  344MOL0     H45380   4.551   1.511   9.465  1.0063  0.5292  1.6223
  344MOL0     H45381   4.399   1.413   9.457  1.0636 -0.1963 -1.4103
  344MOL0     H45382   4.394   1.623   9.654 -0.7485 -3.7629  2.0175
  344MOL0     H45383   4.273   1.521   9.578  0.0101 -1.3079 -1.7388
  344MOL0     H45384   4.351   1.607   9.349  1.4540  0.7610 -0.3583
  344MOL0     H45385   4.422   1.746   9.445 -1.0463  1.1849 -2.8198
  344MOL0     H45386   4.127   1.672   9.438  1.4515 -1.0701 -0.5077
  344MOL0     H45387   4.178   1.788   9.554  2.1460  1.2144  0.0316
  344MOL0     H45388   4.095   1.909   9.379  1.5475  3.3074 -0.4935
  344MOL0     H45389   4.179   1.806   9.255 -1.5192 -1.5988  0.7515
  344MOL0     H45390   4.874   1.200   9.437 -2.0370  0.8383 -2.5304
  344MOL0     H45391   5.015   1.203   9.240 -1.2653  1.3479 -2.0662
  344MOL0     H45392   5.343   1.080   9.003  1.3841 -0.9270  1.2864
  344MOL0     H45393   5.435   1.083   8.790 -2.5428 -1.2688  0.6957
  344MOL0     H45394   7.040   1.115   7.815  0.6061 -1.7958 -3.3510
  344MOL0     H45395   7.253   1.050   7.699 -1.4701  0.1906  0.4807
  344MOL0     H45396   7.621   0.659   7.778 -1.4420  0.7931  0.5182
  344MOL0     H45397   7.848   0.619   7.676 -1.1108 -0.2989  0.0116
  344MOL0     H45398   7.912   0.889   7.325 -3.8855 -4.7081  1.2083
  344MOL0     H45399   8.020   0.758   7.281  1.2786  1.3274 -1.2089
  344MOL0     H45400   8.074   1.002   7.459  1.6888 -0.5750  0.3542
  344MOL0     H45401   8.169   0.854   7.481 -4.1526 -0.2929  2.5603
  344MOL0     H45402   8.157   1.064   7.276  0.4220 -1.0631  0.3375
  344MOL0     H45403   8.159   0.914   7.195  1.1687  2.3559 -1.7449
  344MOL0     H45404   8.353   0.954   7.417 -2.7430  0.6046 -0.1471
  344MOL0     H45405   8.336   0.811   7.306 -1.3120 -0.3514  0.1554
  344MOL0     H45406   8.471   1.126   7.033  1.2447  1.2890  1.2651
  344MOL0     H45407   7.799   0.992   7.467 -2.1754 -0.6339 -1.6821
  344MOL0     H45408   7.627   1.049   7.598 -2.8393 -0.0028  1.2519
  345MOL0     O45409   6.986   9.229   5.747 -0.3039 -0.0642 -0.1150
  345MOL0     C45410   6.986   9.207   5.628 -0.2139  0.0388  0.2041
  345MOL0     O45411   6.903   9.115   5.570  0.2851  0.1373  0.8153
  345MOL0     C45412   6.829   9.022   5.643  0.4041  0.7903 -0.5426
  345MOL0     C45413   6.873   8.950   5.750 -0.6737  1.0087 -1.2156
  345MOL0     C45414   6.793   8.849   5.805  0.1613 -0.3137  0.8250
  345MOL0     C45415   6.655   8.836   5.756  0.0712 -0.5818 -0.2659
  345MOL0     O45416   6.571   8.773   5.842 -0.0184 -0.0856 -0.4624
  345MOL0     C45417   6.553   8.632   5.800 -0.3454 -0.3064  0.4427
  345MOL0     C45418   6.426   8.584   5.846 -0.1393 -0.7014  0.0242
  345MOL0     C45419   6.444   8.569   6.000  0.1564  0.0527  0.5618
  345MOL0     C45420   6.302   8.556   6.056 -0.7664  0.6319 -0.1577
  345MOL0     C45421   6.246   8.416   6.060 -0.7929  0.1410  0.0725
  345MOL0     C45422   6.286   8.326   6.171  0.3149 -0.4834 -0.0492
  345MOL0     C45423   6.288   8.390   6.305 -0.8807 -0.1764  0.0320
  345MOL0     C45424   6.289   8.290   6.422 -0.1175  0.1268 -0.6045
  345MOL0     N45425   6.397   8.193   6.400 -0.2458  0.0137 -0.4472
  345MOL0     C45426   6.532   8.230   6.426  0.1253 -0.0290  0.6551
  345MOL0     C45427   6.608   8.138   6.355  0.8472  0.5245 -0.2908
  345MOL0     C45428   6.758   8.115   6.339  0.2386 -0.2089  0.0466
  345MOL0     C45429   6.836   8.100   6.472  1.1219  0.0744  0.3274
  345MOL0     C45430   6.863   8.234   6.536 -0.0834  0.2178  0.0721
  345MOL0     C45431   6.957   8.194   6.650  0.0225 -1.0161 -0.8675
  345MOL0     O45432   7.079   8.142   6.601  0.2447 -0.2074 -0.2162
  345MOL0     C45433   7.182   8.153   6.688  0.3878  0.2529 -1.0605
  345MOL0     C45434   7.172   8.145   6.831  0.1409  0.0961  0.1351
  345MOL0     C45435   7.284   8.164   6.913  0.7532  0.0048 -0.2727
  345MOL0     C45436   7.412   8.192   6.858  0.5276 -0.0078 -0.9819
  345MOL0     C45437   7.529   8.223   6.932  1.2072 -0.6221 -0.0752
  345MOL0     O45438   7.511   8.316   7.023 -0.4286  0.2310 -0.4106
  345MOL0     C45439   7.618   8.367   7.093  1.0009 -0.2169 -0.0940
  345MOL0     C45440   7.691   8.468   7.035  0.3184  0.3878  0.5754
  345MOL0     C45441   7.804   8.526   7.095 -0.6550  0.0219  0.1832
  345MOL0     C45442   7.858   8.471   7.207  0.2717 -0.2235 -0.6267
  345MOL0     O45443   7.983   8.502   7.266  0.4155 -0.2273  0.3229
  345MOL0     C45444   8.096   8.439   7.217 -0.5488 -0.0004  0.2586
  345MOL0     C45445   8.178   8.355   7.311 -0.0779  0.5691  0.8748
  345MOL0     C45446   8.314   8.318   7.257 -0.2110 -0.6131 -1.1859
  345MOL0     C45447   8.386   8.228   7.365 -0.8214 -0.0498 -0.2223
  345MOL0     C45448   8.533   8.204   7.328  0.6639  0.1568 -0.9048
  345MOL0     C45449   8.621   8.338   7.311  0.5813 -0.2540 -0.0471
  345MOL0     C45450   8.631   8.435   7.427  0.4830 -0.2252 -0.3842
  345MOL0     C45451   8.565   8.574   7.403  0.0495  0.1700  1.0616
  345MOL0    Cl45452   8.401   8.589   7.455  0.2599 -0.3474 -0.3069
  345MOL0     C45453   7.782   8.375   7.270 -0.3273  1.3272  0.6944
  345MOL0     C45454   7.668   8.322   7.208  0.1166 -1.1498 -0.3945
  345MOL0     O45455   7.633   8.163   6.894 -0.2260 -0.2012 -0.8578
  345MOL0     C45456   7.415   8.196   6.720 -0.8383 -0.0468  0.2239
  345MOL0     C45457   7.307   8.177   6.636 -1.2727 -0.0386 -1.7712
  345MOL0     N45458   6.522   8.042   6.302 -1.1932  0.1477  0.1049
  345MOL0     N45459   6.405   8.078   6.326  0.3838  0.7229  0.0422
  345MOL0     C45460   6.626   8.892   5.634  0.5038  0.6946  0.4600
  345MOL0     C45461   6.717   8.980   5.573 -0.7547  0.1588 -1.2203
  345MOL0     C45462   7.060   9.309   5.537  0.5010  0.2406 -0.9208
  345MOL0     C45463   7.017   9.336   5.409 -0.1733 -0.3785 -0.2627
  345MOL0     C45464   7.087   9.432   5.336  0.7309  0.4393 -0.1276
  345MOL0     C45465   7.198   9.497   5.383  0.9274 -0.0214  1.2844
  345MOL0     O45466   7.255   9.591   5.304 -0.2852 -0.0072 -0.2543
  345MOL0     C45467   7.271   9.571   5.158  0.5938 -0.6266  0.2526
  345MOL0     C45468   7.363   9.676   5.088  0.2904 -0.4908 -0.2365
  345MOL0     C45469   7.511   9.669   5.153 -0.1895  0.0191  1.1112
  345MOL0     C45470   7.619   9.746   5.074 -1.6335 -0.6774 -0.8572
  345MOL0     C45471   7.633   9.710   4.938  0.8714  0.2085  0.3065
  345MOL0     C45472   7.670   9.688   4.827  0.4630 -0.8675 -0.3757
  345MOL0     C45473   7.244   9.460   5.509 -0.2729 -0.2912  0.0801
  345MOL0     C45474   7.173   9.376   5.591  0.6526 -1.0390  1.1068
  345MOL0     H45475   6.965   8.981   5.797 -2.3697  0.7145  2.6704
  345MOL0     H45476   6.828   8.806   5.898 -0.3441  2.2186  2.2633
  345MOL0     H45477   6.625   8.563   5.844  0.8545  0.0547 -0.8816
  345MOL0     H45478   6.549   8.625   5.691 -0.5270 -2.4997  0.5439
  345MOL0     H45479   6.406   8.485   5.803  0.4102  0.0239 -2.0434
  345MOL0     H45480   6.354   8.658   5.810  1.8266  2.4967  2.1068
  345MOL0     H45481   6.491   8.660   6.040 -1.1260  1.8655 -1.8060
  345MOL0     H45482   6.504   8.484   6.033 -1.4967 -1.9595 -1.3380
  345MOL0     H45483   6.306   8.612   6.150 -0.8586  1.9309 -0.8919
  345MOL0     H45484   6.238   8.624   5.998  0.8171  2.8795  0.5908
  345MOL0     H45485   6.267   8.369   5.963 -2.6453  1.4081 -0.9989
  345MOL0     H45486   6.139   8.434   6.069 -0.7065  1.3332 -0.9587
  345MOL0     H45487   6.390   8.296   6.157  0.8037  1.1957 -0.2718
  345MOL0     H45488   6.218   8.241   6.173 -0.0445 -0.3666 -3.1370
  345MOL0     H45489   6.377   8.454   6.310 -2.0583  1.4335  1.9307
  345MOL0     H45490   6.211   8.467   6.317  2.3909  3.9407 -2.4700
  345MOL0     H45491   6.191   8.247   6.442 -0.6894  1.2871 -0.8062
  345MOL0     H45492   6.313   8.356   6.507 -0.4163  3.8136 -3.1226
  345MOL0     H45493   6.575   8.320   6.468  4.2216 -1.3011 -0.3710
  345MOL0     H45494   6.794   8.203   6.285  1.0355  0.9683  2.3727
  345MOL0     H45495   6.763   8.016   6.291  3.7749 -1.4009  2.4901
  345MOL0     H45496   6.928   8.048   6.444  1.2406 -1.3308  2.9536
  345MOL0     H45497   6.778   8.036   6.540  0.1921  0.0664 -0.4655
  345MOL0     H45498   6.918   8.300   6.469  0.2017 -0.6570 -0.5709
  345MOL0     H45499   6.774   8.284   6.576  0.1104  0.3872  0.2969
  345MOL0     H45500   6.908   8.116   6.708 -1.7535  0.1129 -0.7856
  345MOL0     H45501   6.972   8.286   6.707 -1.8835 -0.5976 -0.9845
  345MOL0     H45502   7.074   8.121   6.871  1.2584 -2.0493  1.7713
  345MOL0     H45503   7.291   8.164   7.022  1.1444 -0.9757 -0.2854
  345MOL0     H45504   7.659   8.521   6.946  1.8977  1.3771  0.5652
  345MOL0     H45505   7.864   8.605   7.049 -0.6669  0.0417  0.2013
  345MOL0     H45506   8.160   8.518   7.177 -1.9046  0.3115 -1.4355
  345MOL0     H45507   8.073   8.381   7.127  2.8269  1.0347 -1.4580
  345MOL0     H45508   8.128   8.260   7.328  0.3145 -0.0110 -1.0130
  345MOL0     H45509   8.195   8.406   7.406  1.5353 -2.8396  2.5830
  345MOL0     H45510   8.370   8.405   7.223 -0.2941  0.2272  0.7170
  345MOL0     H45511   8.296   8.257   7.168 -3.3350 -1.5960 -0.0344
  345MOL0     H45512   8.371   8.259   7.469 -0.3599  0.1576 -0.2144
  345MOL0     H45513   8.327   8.136   7.359 -1.6483  0.4019  0.6496
  345MOL0     H45514   8.535   8.139   7.239  2.7826 -0.0621 -0.7408
  345MOL0     H45515   8.586   8.147   7.405 -2.8915 -2.0124  0.1559
  345MOL0     H45516   8.593   8.390   7.219 -0.6497 -0.5999  0.1145
  345MOL0     H45517   8.723   8.301   7.295  0.5502  0.2210 -1.4788
  345MOL0     H45518   8.584   8.396   7.518  1.7220 -0.5040  0.1462
  345MOL0     H45519   8.738   8.452   7.441  0.8130 -1.3427 -1.4208
  345MOL0     H45520   8.559   8.596   7.296  3.5282  0.8537  0.8613
  345MOL0     H45521   8.618   8.662   7.441  2.0895  0.1242 -1.3834
  345MOL0     H45522   7.816   8.330   7.363  0.1852  0.7203  0.2160
  345MOL0     H45523   7.601   8.264   7.271 -2.5212  1.2491 -0.7863
  345MOL0     H45524   7.516   8.205   6.682  0.1865 -3.7762  1.6467
  345MOL0     H45525   7.335   8.170   6.532 -1.9266 -0.8202 -1.9042
  345MOL0     H45526   6.529   8.874   5.589  0.7132 -1.8624  0.8302
  345MOL0     H45527   6.696   9.022   5.475 -0.0673  1.9297 -0.6659
  345MOL0     H45528   6.937   9.279   5.363 -0.3881  1.7593 -2.7519
  345MOL0     H45529   7.049   9.431   5.235 -4.9115 -2.2403  1.5900
  345MOL0     H45530   7.172   9.579   5.110  1.1184  0.6518 -0.6730
  345MOL0     H45531   7.307   9.470   5.135  2.1166 -0.2739  1.0028
  345MOL0     H45532   7.365   9.637   4.986  1.2226 -0.0528 -0.3975
  345MOL0     H45533   7.321   9.776   5.100 -0.6193 -1.2064  3.9505
  345MOL0     H45534   7.540   9.564   5.153  1.7592  0.5210  1.5776
  345MOL0     H45535   7.505   9.688   5.260  3.1493 -0.7534  1.5261
  345MOL0     H45536   7.604   9.854   5.077  0.4180 -0.2724 -2.6102
  345MOL0     H45537   7.716   9.728   5.121 -2.1202  2.1292  1.5154
  345MOL0     H45538   7.680   9.702   4.722 -1.7511  2.6082 -0.2786
  345MOL0     H45539   7.332   9.503   5.555 -0.6791 -1.3399  1.9480
  345MOL0     H45540   7.201   9.357   5.694  0.3210 -0.5310  1.2974
  346MOL0     O45541   5.915   9.523   2.410 -0.0485 -0.6929  0.7604
  346MOL0     C45542   6.010   9.476   2.478  0.6634  0.5687  0.5085
  346MOL0     O45543   6.036   9.520   2.611  0.1922 -0.0745 -0.2824
  346MOL0     C45544   5.937   9.552   2.707  0.8321 -0.3288  0.2036
  346MOL0     C45545   5.801   9.516   2.687 -0.3553 -0.3308 -0.8075
  346MOL0     C45546   5.709   9.554   2.794  0.1388  0.6115  0.1131
  346MOL0     C45547   5.759   9.613   2.914  0.1503  0.1477 -0.2663
  346MOL0     O45548   5.667   9.636   3.018 -0.1052  0.5224 -0.6869
  346MOL0     C45549   5.568   9.543   3.058  0.1141 -0.2282  0.0203
  346MOL0     C45550   5.487   9.584   3.183 -0.4629  0.8450  0.0047
  346MOL0     C45551   5.568   9.525   3.302  1.2673  0.6793 -0.0646
  346MOL0     C45552   5.509   9.384   3.345  0.3165 -0.2669 -0.5305
  346MOL0     C45553   5.595   9.305   3.451 -0.0144 -0.1588  0.2145
  346MOL0     C45554   5.638   9.401   3.569 -0.9338  0.0367  0.6943
  346MOL0     C45555   5.521   9.446   3.662 -0.4229 -0.1532  0.0678
  346MOL0     C45556   5.537   9.598   3.692  0.6709 -0.2593 -0.2707
  346MOL0     N45557   5.421   9.658   3.769 -0.1834 -0.1249 -0.5899
  346MOL0     C45558   5.344   9.765   3.736 -0.9752 -0.6519  0.0775
  346MOL0     C45559   5.261   9.774   3.847  1.2838 -0.1771  0.5214
  346MOL0     C45560   5.146   9.868   3.828  0.2124  0.6365 -0.3687
  346MOL0     C45561   5.177  10.020   3.823  0.5075  0.3176 -0.7037
  346MOL0     C45562   5.234  10.070   3.956 -1.1407  1.2000 -0.3080
  346MOL0     C45563   5.180  10.202   4.019 -0.1678 -0.7676  0.2084
  346MOL0     O45564   5.209  10.313   3.932 -0.1466  0.1712 -0.2430
  346MOL0     C45565   5.140  10.428   3.941 -0.2014  0.1319  1.1295
  346MOL0     C45566   5.173  10.529   3.845 -0.4175  0.5878  0.5370
  346MOL0     C45567   5.115  10.651   3.834 -0.1166 -0.6817  0.3077
  346MOL0     C45568   5.002  10.685   3.912 -0.1553  0.3102 -0.5119
  346MOL0     C45569   4.916  10.806   3.890  0.1615 -0.4066 -0.2959
  346MOL0     O45570   4.962  10.899   3.796  0.1796 -0.0779 -0.2768
  346MOL0     C45571   4.906  11.018   3.765  0.4160 -0.8260 -0.5861
  346MOL0     C45572   4.859  11.094   3.864  0.5716 -0.9189 -0.4552
  346MOL0     C45573   4.794  11.212   3.824  0.0339 -0.4522  0.2294
  346MOL0     C45574   4.785  11.254   3.700 -0.1704 -0.5346  0.5276
  346MOL0     O45575   4.723  11.375   3.683 -0.9542 -0.6922  0.4336
  346MOL0     C45576   4.711  11.424   3.546 -0.2134 -0.0800 -0.1782
  346MOL0     C45577   4.643  11.560   3.547  0.7120  0.4589 -0.4215
  346MOL0     C45578   4.494  11.552   3.596 -0.2225  0.8267 -0.2630
  346MOL0     C45579   4.437  11.696   3.566  0.5514  0.4127 -0.0253
  346MOL0     C45580   4.283  11.713   3.592  0.1843 -0.0558  0.0679
  346MOL0     C45581   4.197  11.644   3.483 -0.4521 -0.3933  0.4977
  346MOL0     C45582   4.047  11.687   3.480 -0.5564  0.2558 -0.3923
  346MOL0     C45583   3.985  11.622   3.354 -0.7821  0.0106  1.0249
  346MOL0    Cl45584   3.988  11.445   3.364 -0.2353 -0.3330 -0.4771
  346MOL0     C45585   4.843  11.179   3.594  0.6543  0.8704  0.6392
  346MOL0     C45586   4.906  11.058   3.630  0.5396  0.3054 -0.2002
  346MOL0     O45587   4.812  10.813   3.946 -0.0816  0.3352 -0.4362
  346MOL0     C45588   4.972  10.590   4.009  0.3710  1.1621  0.6761
  346MOL0     C45589   5.040  10.461   4.035 -0.4567 -1.1991  0.1149
  346MOL0     N45590   5.280   9.674   3.948 -0.5838  0.1894 -0.3975
  346MOL0     N45591   5.383   9.606   3.887 -0.2924  0.3737 -0.0676
  346MOL0     C45592   5.897   9.644   2.928 -0.1070  0.2282  0.7449
  346MOL0     C45593   5.983   9.610   2.825 -0.9673 -0.5739 -0.7790
  346MOL0     C45594   6.104   9.376   2.425  0.2478 -0.4909 -0.2472
  346MOL0     C45595   6.223   9.351   2.496  0.4699 -0.0670 -0.7026
  346MOL0     C45596   6.319   9.268   2.441 -0.2650 -0.2109 -0.1565
  346MOL0     C45597   6.300   9.204   2.315  0.0079 -0.0671  0.5136
  346MOL0     O45598   6.390   9.118   2.255 -0.3360  0.1131  0.1573
  346MOL0     C45599   6.412   8.996   2.339 -0.6021 -0.2520  0.4737
  346MOL0     C45600   6.489   9.027   2.468 -1.1817 -0.0464 -0.2395
  346MOL0     C45601   6.625   9.106   2.452 -0.2477  0.3359 -1.0689
  346MOL0     C45602   6.747   9.038   2.498 -0.1126  0.3369  0.0527
  346MOL0     C45603   6.750   8.982   2.636 -0.5762 -0.8061  0.0667
  346MOL0     C45604   6.745   8.943   2.754 -0.0647 -0.0123  1.0361
  346MOL0     C45605   6.174   9.215   2.260  0.4012 -0.3125 -0.2472
  346MOL0     C45606   6.081   9.307   2.307  0.1890  1.0674  0.6452
  346MOL0     H45607   5.772   9.471   2.593 -2.6464 -1.2741  0.2886
  346MOL0     H45608   5.603   9.541   2.779 -0.0743  2.3713 -0.1124
  346MOL0     H45609   5.613   9.444   3.062 -3.6019 -2.0813  3.8624
  346MOL0     H45610   5.490   9.536   2.982 -0.9247  3.9217  0.4321
  346MOL0     H45611   5.389   9.535   3.187  0.3227 -0.6502  1.5119
  346MOL0     H45612   5.474   9.692   3.199 -2.0769  0.9539 -1.7045
  346MOL0     H45613   5.553   9.599   3.381 -1.1774 -0.6349  0.8251
  346MOL0     H45614   5.675   9.515   3.280  1.3605  1.5516 -0.0180
  346MOL0     H45615   5.406   9.378   3.383  0.5624  1.7720  0.6169
  346MOL0     H45616   5.507   9.317   3.258  0.0590 -2.6058  1.1778
  346MOL0     H45617   5.684   9.260   3.408  0.4420 -0.7164  1.6852
  346MOL0     H45618   5.533   9.226   3.494  1.0971  0.6362  3.5777
  346MOL0     H45619   5.710   9.476   3.534  1.1228 -1.0916  2.2320
  346MOL0     H45620   5.699   9.336   3.634 -2.5449 -0.3210  1.9119
  346MOL0     H45621   5.422   9.410   3.635 -0.0372 -2.9743  1.9768
  346MOL0     H45622   5.545   9.393   3.754 -0.5341 -1.6982 -0.7638
  346MOL0     H45623   5.558   9.651   3.599 -0.0249  2.5665  1.0810
  346MOL0     H45624   5.624   9.614   3.757  2.3201 -1.7648 -1.9892
  346MOL0     H45625   5.350   9.823   3.645  0.0081  1.6743  1.5399
  346MOL0     H45626   5.076   9.852   3.911  0.7156  2.0991  0.3777
  346MOL0     H45627   5.111   9.834   3.731  4.0725 -2.7233 -0.9073
  346MOL0     H45628   5.087  10.076   3.796 -0.0317 -0.3238 -0.2994
  346MOL0     H45629   5.255  10.029   3.747 -0.1376 -0.7745 -1.5327
  346MOL0     H45630   5.213   9.990   4.027  2.9763 -1.6641 -1.9592
  346MOL0     H45631   5.343  10.077   3.951 -0.9181 -0.7243  0.9654
  346MOL0     H45632   5.233  10.214   4.114  1.9685  3.0794 -1.2913
  346MOL0     H45633   5.071  10.205   4.031 -0.0910  1.2087  0.7023
  346MOL0     H45634   5.253  10.503   3.776 -0.4371 -0.4393  0.8801
  346MOL0     H45635   5.145  10.722   3.758  1.8809  1.2715  2.7298
  346MOL0     H45636   4.860  11.078   3.972  1.4391  7.8156  1.5675
  346MOL0     H45637   4.759  11.278   3.903 -0.9593 -0.5846 -0.0834
  346MOL0     H45638   4.652  11.356   3.484  1.3253 -0.6462 -1.0963
  346MOL0     H45639   4.804  11.450   3.494  0.7585  0.1513  1.5973
  346MOL0     H45640   4.648  11.591   3.442  2.3772 -4.2259 -1.9621
  346MOL0     H45641   4.697  11.627   3.614  0.9745 -2.6262  2.7118
  346MOL0     H45642   4.486  11.524   3.702  1.8310 -2.2701 -0.8049
  346MOL0     H45643   4.441  11.478   3.536 -1.2358  1.0001  0.3953
  346MOL0     H45644   4.489  11.776   3.618  0.2492 -0.0120  0.9550
  346MOL0     H45645   4.444  11.717   3.459  0.7194 -0.4668 -0.1945
  346MOL0     H45646   4.269  11.821   3.596  5.9639  1.0000 -0.1577
  346MOL0     H45647   4.249  11.665   3.684  2.2979 -1.8459 -0.0049
  346MOL0     H45648   4.194  11.538   3.506  1.1787 -0.0494  2.6746
  346MOL0     H45649   4.234  11.659   3.381 -2.6222  0.3412 -0.2248
  346MOL0     H45650   4.005  11.665   3.578  0.8434 -0.4591  0.0639
  346MOL0     H45651   4.033  11.795   3.463 -2.4064  0.3504  1.2925
  346MOL0     H45652   4.041  11.645   3.264 -1.5608  1.4521  0.8804
  346MOL0     H45653   3.882  11.655   3.340 -0.2604  1.6033  0.7662
  346MOL0     H45654   4.827  11.199   3.488 -0.0272 -4.0175 -0.3967
  346MOL0     H45655   4.940  10.989   3.553 -1.1070  0.5525 -1.1904
  346MOL0     H45656   4.893  10.611   4.081 -2.4650  1.5948 -2.3068
  346MOL0     H45657   5.017  10.391   4.114  0.2971 -1.5918 -0.0088
  346MOL0     H45658   5.934   9.680   3.024  0.2440  0.6091  0.4722
  346MOL0     H45659   6.090   9.631   2.827 -0.2626 -3.6143 -0.5930
  346MOL0     H45660   6.229   9.392   2.597 -1.7222 -0.8840 -0.1743
  346MOL0     H45661   6.414   9.260   2.492 -0.4848  3.1407  1.0456
  346MOL0     H45662   6.478   8.931   2.279  0.6547 -0.8473  2.4073
  346MOL0     H45663   6.323   8.939   2.368 -0.1356 -0.7548  0.9601
  346MOL0     H45664   6.424   9.056   2.552 -0.7950 -1.6734  0.6664
  346MOL0     H45665   6.517   8.924   2.495 -3.3726 -0.1745  1.9957
  346MOL0     H45666   6.605   9.199   2.506 -2.3926 -0.5840 -0.1688
  346MOL0     H45667   6.651   9.127   2.348  2.6390 -0.1548 -0.5342
  346MOL0     H45668   6.759   8.952   2.432  0.9966 -0.3580  1.1164
  346MOL0     H45669   6.837   9.099   2.488 -0.3494  0.9493  1.4402
  346MOL0     H45670   6.738   8.930   2.860 -0.9450  0.8118  1.0958
  346MOL0     H45671   6.153   9.162   2.168 -0.6742 -0.6227  0.1654
  346MOL0     H45672   5.992   9.314   2.245  1.2077 -3.2019 -1.7555
  347MOL0     O45673  10.984   2.835   8.853  0.5753  0.5825 -0.6321
  347MOL0     C45674  10.903   2.916   8.883 -0.3121 -0.5984 -0.1404
  347MOL0     O45675  10.930   3.037   8.939  0.2584 -0.2395 -0.2481
  347MOL0     C45676  11.062   3.066   8.962  0.2526 -0.1556  0.8724
  347MOL0     C45677  11.137   2.986   9.053  0.3391  0.8970 -0.2587
  347MOL0     C45678  11.264   3.036   9.098  0.5123  0.6058  0.1235
  347MOL0     C45679  11.331   3.137   9.029 -0.3186 -1.0300 -0.1158
  347MOL0     O45680  11.460   3.183   9.055 -1.1218 -0.6741  0.1455
  347MOL0     C45681  11.517   3.164   9.194 -0.0101 -0.3823 -0.4211
  347MOL0     C45682  11.426   3.219   9.308 -0.3465  0.2959 -0.7501
  347MOL0     C45683  11.427   3.381   9.323  0.0700  1.3901  0.3511
  347MOL0     C45684  11.407   3.430   9.458 -0.3642  0.3572 -0.9410
  347MOL0     C45685  11.259   3.435   9.499 -0.2328  0.2832  0.1224
  347MOL0     C45686  11.249   3.486   9.645  0.2541  1.3075  0.4996
  347MOL0     C45687  11.102   3.451   9.697 -0.8660  0.0112  0.0219
  347MOL0     C45688  11.091   3.308   9.746 -0.3089  0.4340 -0.7932
  347MOL0     N45689  11.128   3.296   9.891  0.5414 -0.4342 -0.3290
  347MOL0     C45690  11.050   3.330  10.001  0.0642  0.3350 -0.6385
  347MOL0     C45691  11.138   3.321  10.107 -1.3448  0.1000  0.7077
  347MOL0     C45692  11.105   3.360  10.249 -0.1510  0.2209 -0.7585
  347MOL0     C45693  11.171   3.270  10.358  0.7414 -0.5835 -0.2191
  347MOL0     C45694  11.144   3.326  10.502 -0.0851  0.7721 -0.4141
  347MOL0     C45695  10.993   3.306  10.531  0.1344  0.2742  0.6021
  347MOL0     O45696  10.983   3.359  10.666  0.1921  0.2394 -0.3646
  347MOL0     C45697  10.850   3.385  10.704  0.0945 -0.0019 -0.1745
  347MOL0     C45698  10.741   3.309  10.658  0.4139 -1.3555 -0.8112
  347MOL0     C45699  10.611   3.321  10.712  0.9406 -0.9398 -0.6874
  347MOL0     C45700  10.589   3.413  10.813 -0.5693  0.0887 -0.2290
  347MOL0     C45701  10.445   3.421  10.875 -1.1453  0.0591 -0.2610
  347MOL0     O45702  10.440   3.488  10.995  0.1609  0.1824 -0.0442
  347MOL0     C45703  10.315   3.485  11.047  0.3029 -0.4161 -0.9018
  347MOL0     C45704  10.295   3.404  11.163  0.2435  0.1018 -0.5179
  347MOL0     C45705  10.163   3.379  11.214  0.5165 -0.0893 -0.5777
  347MOL0     C45706  10.050   3.442  11.157 -0.0271 -0.0427  0.2301
  347MOL0     O45707   9.917   3.417  11.194 -0.1137 -0.6335 -0.9414
  347MOL0     C45708   9.889   3.389  11.330  0.1884  0.1873  0.2604
  347MOL0     C45709   9.736   3.395  11.351 -1.2680  0.4708 -0.0176
  347MOL0     C45710   9.672   3.529  11.315  0.0211 -0.7541 -0.6421
  347MOL0     C45711   9.524   3.536  11.355  0.4058  0.8962  0.0170
  347MOL0     C45712   9.435   3.424  11.310  0.0943  0.1939 -0.5163
  347MOL0     C45713   9.292   3.457  11.271 -0.2247 -0.8270  0.6296
  347MOL0     C45714   9.228   3.333  11.210  0.3709  0.3246 -0.8212
  347MOL0     C45715   9.085   3.385  11.176 -0.7129 -0.0911  0.6014
  347MOL0    Cl45716   8.998   3.246  11.112  0.3490 -0.3888 -0.6758
  347MOL0     C45717  10.069   3.533  11.053  0.4678  1.0677 -0.8088
  347MOL0     C45718  10.197   3.551  10.993 -0.2970 -0.2706 -0.8854
  347MOL0     O45719  10.352   3.359  10.828  0.3493 -0.1378  1.1170
  347MOL0     C45720  10.699   3.492  10.863  1.1129  1.3161  0.3919
  347MOL0     C45721  10.825   3.476  10.806  0.2500 -1.4694 -0.7135
  347MOL0     N45722  11.266   3.270  10.054  0.5963  0.2221 -0.4743
  347MOL0     N45723  11.252   3.244   9.931  0.5479 -0.2675  0.1307
  347MOL0     C45724  11.261   3.214   8.941 -0.3872 -0.6842  0.2517
  347MOL0     C45725  11.134   3.177   8.904 -0.4014 -0.3249  0.6604
  347MOL0     C45726  10.755   2.897   8.835 -0.6309  0.9259 -0.1549
  347MOL0     C45727  10.702   2.776   8.783 -0.1369 -0.3779 -0.4738
  347MOL0     C45728  10.573   2.766   8.732 -0.4682 -0.4835  0.9924
  347MOL0     C45729  10.496   2.876   8.716  0.1299  0.3750 -0.0660
  347MOL0     O45730  10.379   2.887   8.641 -1.0618  0.0755  0.3248
  347MOL0     C45731  10.322   2.763   8.593 -0.1160  0.0491 -0.1293
  347MOL0     C45732  10.230   2.691   8.691 -0.2568 -0.4144  0.3514
  347MOL0     C45733  10.165   2.566   8.614  0.0764  0.0146 -0.3782
  347MOL0     C45734  10.038   2.523   8.682  0.1659 -0.5093  0.1915
  347MOL0     C45735  10.027   2.381   8.662  0.8502 -0.0204  0.0872
  347MOL0     C45736  10.011   2.262   8.642  0.9862 -0.3723  0.2795
  347MOL0     C45737  10.536   2.996   8.772  0.1288 -0.1086 -0.2667
  347MOL0     C45738  10.665   3.013   8.827 -0.1036  0.7084  0.5028
  347MOL0     H45739  11.083   2.902   9.095 -2.1275  2.0628 -0.8726
  347MOL0     H45740  11.308   2.980   9.181  0.2629  1.3860  0.7968
  347MOL0     H45741  11.611   3.220   9.204  0.2488 -0.9310  0.2883
  347MOL0     H45742  11.546   3.060   9.212  0.5103 -0.4067 -1.2855
  347MOL0     H45743  11.475   3.179   9.397  0.2639  1.9300 -0.3231
  347MOL0     H45744  11.324   3.182   9.302 -0.6159  1.2577 -3.3394
  347MOL0     H45745  11.356   3.427   9.255  0.5888  2.0781  0.2653
  347MOL0     H45746  11.528   3.415   9.295 -0.0385  1.3782 -0.0584
  347MOL0     H45747  11.452   3.365   9.534  0.2964 -0.4196 -1.9762
  347MOL0     H45748  11.441   3.534   9.462  4.5034 -1.0120 -0.7979
  347MOL0     H45749  11.215   3.335   9.493 -2.9620  1.3703  0.8402
  347MOL0     H45750  11.206   3.505   9.434  2.5119  2.3060 -0.1322
  347MOL0     H45751  11.250   3.596   9.647 -1.9405  1.3930 -0.4816
  347MOL0     H45752  11.323   3.446   9.714  0.9079 -0.7720 -1.2922
  347MOL0     H45753  11.083   3.515   9.784  1.9468  0.8181  0.1333
  347MOL0     H45754  11.034   3.486   9.619  1.3170  3.3569 -0.5576
  347MOL0     H45755  11.150   3.250   9.675  2.2389 -0.5389  1.9344
  347MOL0     H45756  10.988   3.270   9.742 -1.1184  2.0673  2.0900
  347MOL0     H45757  10.957   3.384  10.011  0.6573  1.4197 -0.8067
  347MOL0     H45758  10.997   3.354  10.263 -0.2359  3.8718  1.5861
  347MOL0     H45759  11.149   3.458  10.270  1.2944 -0.8952  1.8022
  347MOL0     H45760  11.279   3.279  10.344  0.5331  1.1064 -1.0316
  347MOL0     H45761  11.129   3.169  10.346  0.6767 -0.2423 -4.2625
  347MOL0     H45762  11.193   3.258  10.573 -1.0905  1.2477  0.7761
  347MOL0     H45763  11.176   3.427  10.529 -2.3008  0.5044  4.1608
  347MOL0     H45764  10.983   3.198  10.515  0.6762  0.2530  0.3916
  347MOL0     H45765  10.927   3.367  10.468 -0.4752  0.6399  1.5786
  347MOL0     H45766  10.743   3.235  10.578 -2.3349 -2.5714  0.1142
  347MOL0     H45767  10.527   3.261  10.678  0.2070  1.2206 -2.9406
  347MOL0     H45768  10.383   3.354  11.203 -1.6091 -1.9858  1.2131
  347MOL0     H45769  10.145   3.297  11.284 -1.8214  0.4840 -0.4256
  347MOL0     H45770   9.953   3.455  11.390 -1.4750  2.2492 -0.1429
  347MOL0     H45771   9.907   3.284  11.358 -1.8929  0.2400  1.9771
  347MOL0     H45772   9.712   3.375  11.456  2.3461 -2.1275  0.5291
  347MOL0     H45773   9.693   3.314  11.291  1.7908  0.1505 -2.0369
  347MOL0     H45774   9.670   3.557  11.209 -1.0160  1.0191 -0.1882
  347MOL0     H45775   9.728   3.608  11.366  1.4807 -2.2068  0.1100
  347MOL0     H45776   9.505   3.544  11.463  0.3417  0.8977  0.0061
  347MOL0     H45777   9.493   3.628  11.305  1.7908  0.6435 -1.3677
  347MOL0     H45778   9.443   3.347  11.387 -0.1852 -1.3388 -1.9747
  347MOL0     H45779   9.488   3.381  11.225  1.0484  0.6170 -0.1591
  347MOL0     H45780   9.294   3.533  11.193  3.0224 -1.3595  0.0780
  347MOL0     H45781   9.240   3.498  11.358 -2.7823 -2.6934  0.0915
  347MOL0     H45782   9.280   3.310  11.117 -1.4281 -3.2376 -1.0888
  347MOL0     H45783   9.213   3.245  11.273 -4.6205 -0.7502 -3.0613
  347MOL0     H45784   9.072   3.464  11.101  0.2416 -1.1272 -0.6963
  347MOL0     H45785   9.043   3.419  11.271 -1.6534  0.8684 -0.1319
  347MOL0     H45786   9.987   3.577  10.996 -0.4994 -1.5032 -1.5608
  347MOL0     H45787  10.213   3.598  10.897  0.0799  0.9629 -0.2351
  347MOL0     H45788  10.683   3.554  10.950  1.4239  0.8873  0.7623
  347MOL0     H45789  10.912   3.533  10.838 -2.0632  1.4393  0.9120
  347MOL0     H45790  11.315   3.294   8.892  0.7255 -0.8126  1.2405
  347MOL0     H45791  11.081   3.237   8.831  0.9295 -0.9338 -0.8694
  347MOL0     H45792  10.769   2.692   8.798  2.2523  1.5220  0.2641
  347MOL0     H45793  10.543   2.672   8.685  1.8270  0.4934 -2.8840
  347MOL0     H45794  10.387   2.687   8.550 -0.4252  0.7805 -2.0009
  347MOL0     H45795  10.260   2.786   8.506 -2.1949 -1.5752  0.8132
  347MOL0     H45796  10.284   2.664   8.783  1.4804  1.4109 -0.0502
  347MOL0     H45797  10.151   2.766   8.699 -0.4303 -0.1233 -2.9623
  347MOL0     H45798  10.245   2.492   8.625 -0.5298 -0.5281  0.5776
  347MOL0     H45799  10.141   2.597   8.512 -1.5753  0.5650  0.1501
  347MOL0     H45800  10.039   2.561   8.785  0.5796 -0.8063  0.3050
  347MOL0     H45801   9.944   2.570   8.655 -2.4494 -1.8843  5.4589
  347MOL0     H45802  10.000   2.156   8.630  2.3851 -0.2698 -2.6729
  347MOL0     H45803  10.484   3.088   8.746 -0.9677 -0.6347  0.0042
  347MOL0     H45804  10.690   3.112   8.865 -0.1860  1.6576 -1.7645
  348MOL0     O45805   6.321   9.364   5.456  0.2230 -0.6417  0.2256
  348MOL0     C45806   6.223   9.359   5.383 -0.1358 -0.7788  0.2810
  348MOL0     O45807   6.159   9.243   5.336 -0.0219 -0.4764  0.1193
  348MOL0     C45808   6.198   9.117   5.373  0.0113  0.6361  0.0938
  348MOL0     C45809   6.326   9.068   5.339 -0.5147  0.9309  0.3867
  348MOL0     C45810   6.364   8.937   5.387 -0.6544 -0.8593 -0.0345
  348MOL0     C45811   6.277   8.868   5.466  0.2169  0.6499  0.2704
  348MOL0     O45812   6.295   8.737   5.512  0.0545  0.1735  0.0494
  348MOL0     C45813   6.400   8.661   5.448 -0.4008 -0.7163 -0.7421
  348MOL0     C45814   6.372   8.506   5.443 -0.3227 -1.6985  0.4115
  348MOL0     C45815   6.251   8.503   5.345  0.3470  0.5890  0.2074
  348MOL0     C45816   6.178   8.367   5.339  0.4193  0.5134 -0.3941
  348MOL0     C45817   6.033   8.371   5.290  0.4085  0.3754  0.1875
  348MOL0     C45818   5.956   8.239   5.298 -0.3109  0.3743 -0.3396
  348MOL0     C45819   5.806   8.255   5.252  0.3795  0.4213 -0.7133
  348MOL0     C45820   5.730   8.132   5.312 -0.1335 -0.2571  0.0563
  348MOL0     N45821   5.609   8.126   5.226  0.1179  0.3047 -0.5095
  348MOL0     C45822   5.520   8.021   5.226 -0.0158  0.1244 -0.4566
  348MOL0     C45823   5.427   8.061   5.130 -0.1378 -0.2673  0.4279
  348MOL0     C45824   5.299   7.980   5.093  0.2792  0.5584  0.3558
  348MOL0     C45825   5.281   7.941   4.946 -0.3267 -0.0752 -0.0693
  348MOL0     C45826   5.158   7.854   4.924  0.0354 -0.0015 -0.0611
  348MOL0     C45827   5.025   7.914   4.965 -0.0967  0.4388  0.2543
  348MOL0     O45828   5.002   8.035   4.892  0.2942 -0.1811 -0.0683
  348MOL0     C45829   4.886   8.108   4.893  0.0810  0.6341  0.1883
  348MOL0     C45830   4.882   8.218   4.800 -0.0907  0.3577  0.4152
  348MOL0     C45831   4.778   8.309   4.805  0.8228  1.1815  0.5006
  348MOL0     C45832   4.665   8.282   4.882  0.9518 -0.8869 -0.6264
  348MOL0     C45833   4.533   8.346   4.854 -0.2086 -0.7815  0.4347
  348MOL0     O45834   4.420   8.302   4.916 -0.2045 -0.2147 -0.2377
  348MOL0     C45835   4.302   8.377   4.913  0.1920 -0.2228  0.6437
  348MOL0     C45836   4.242   8.409   5.041 -1.0885  0.3086  0.0203
  348MOL0     C45837   4.128   8.475   5.041 -0.0583  0.4037  0.0500
  348MOL0     C45838   4.063   8.505   4.917  1.0757 -1.2534  0.1597
  348MOL0     O45839   3.934   8.574   4.915 -0.1204 -0.3373 -0.2119
  348MOL0     C45840   3.834   8.541   5.007 -0.1446 -0.1181  0.8687
  348MOL0     C45841   3.756   8.421   4.952 -0.4122 -0.1273  0.0939
  348MOL0     C45842   3.639   8.443   4.870 -0.6405 -0.2719  0.6482
  348MOL0     C45843   3.539   8.326   4.865 -0.2706  0.1247  0.5998
  348MOL0     C45844   3.406   8.383   4.837  0.6904  0.3158  0.1604
  348MOL0     C45845   3.290   8.283   4.812  0.0228 -0.1204  0.8476
  348MOL0     C45846   3.155   8.367   4.765 -1.0844  0.6757 -0.0917
  348MOL0     C45847   3.033   8.281   4.755 -0.8500  0.3574 -1.2355
  348MOL0    Cl45848   2.889   8.384   4.709 -0.0722 -0.5050 -0.5603
  348MOL0     C45849   4.127   8.485   4.796  0.7867  0.0156  0.0492
  348MOL0     C45850   4.246   8.422   4.792 -0.0543  0.0377  0.8574
  348MOL0     O45851   4.528   8.442   4.783  0.7632  0.5907 -0.3701
  348MOL0     C45852   4.665   8.175   4.972  0.2238  0.8580 -0.6469
  348MOL0     C45853   4.778   8.081   4.975  0.8667 -0.0262 -0.4001
  348MOL0     N45854   5.470   8.182   5.065  0.0424  0.1343 -0.2645
  348MOL0     N45855   5.581   8.220   5.130 -0.4374  0.4483  0.7020
  348MOL0     C45856   6.155   8.928   5.510  0.4753  0.0455 -0.7178
  348MOL0     C45857   6.115   9.046   5.462  1.2708 -0.3854  0.2153
  348MOL0     C45858   6.169   9.481   5.323 -0.2129 -1.1146  0.1051
  348MOL0     C45859   6.043   9.482   5.263 -0.0573  0.2907  0.9487
  348MOL0     C45860   5.990   9.589   5.199  0.3590  0.1100 -0.5234
  348MOL0     C45861   6.056   9.713   5.202  0.3065  0.5557  0.4776
  348MOL0     O45862   6.007   9.813   5.122  0.7282  0.3679 -0.5919
  348MOL0     C45863   6.069   9.937   5.138  0.2302  0.2111  0.4418
  348MOL0     C45864   5.966  10.040   5.077  0.3142 -0.3165  1.3019
  348MOL0     C45865   6.021  10.181   5.042  0.0129 -0.1970 -0.0458
  348MOL0     C45866   5.902  10.262   4.984 -0.3430  0.7011  0.9594
  348MOL0     C45867   5.928  10.407   4.965  1.0844  0.0559 -0.0481
  348MOL0     C45868   5.954  10.519   4.939 -0.4635  0.4453 -0.4648
  348MOL0     C45869   6.184   9.709   5.252  0.0409  0.7111  0.3966
  348MOL0     C45870   6.243   9.595   5.311  0.0882  0.0808  0.6270
  348MOL0     H45871   6.392   9.134   5.284 -1.8488  0.9988 -1.2035
  348MOL0     H45872   6.464   8.922   5.349 -0.9219 -0.9697 -0.7150
  348MOL0     H45873   6.491   8.678   5.508  1.8419  0.6410 -4.2268
  348MOL0     H45874   6.428   8.684   5.345  3.4039  2.0932  0.6697
  348MOL0     H45875   6.351   8.463   5.542  0.6448 -0.6472  1.1043
  348MOL0     H45876   6.456   8.451   5.402 -0.2288 -0.8554 -0.5621
  348MOL0     H45877   6.285   8.543   5.249  2.1965  1.7019  1.2674
  348MOL0     H45878   6.168   8.569   5.373 -1.1229 -0.4467 -1.4663
  348MOL0     H45879   6.231   8.298   5.272  1.0139 -1.1237  1.6545
  348MOL0     H45880   6.175   8.322   5.439 -2.1745 -0.8010 -0.9626
  348MOL0     H45881   6.033   8.404   5.186  3.2728 -0.4961 -0.1799
  348MOL0     H45882   5.974   8.442   5.348 -0.1704 -1.2090  1.6539
  348MOL0     H45883   5.966   8.204   5.401  0.7882 -2.6632 -1.3685
  348MOL0     H45884   6.006   8.174   5.226  1.4216 -0.7448  1.7655
  348MOL0     H45885   5.766   8.353   5.279  0.5457  0.2234  0.2878
  348MOL0     H45886   5.808   8.236   5.144 -5.0194 -3.7043 -0.5205
  348MOL0     H45887   5.698   8.162   5.412 -1.9807  0.0052 -0.5751
  348MOL0     H45888   5.782   8.035   5.319  0.8000  0.3261  3.5990
  348MOL0     H45889   5.517   7.930   5.284  3.7143  0.1360  0.0261
  348MOL0     H45890   5.228   8.061   5.114 -1.7913 -0.7437 -1.1356
  348MOL0     H45891   5.292   7.893   5.159  2.0787 -0.3019 -0.5213
  348MOL0     H45892   5.371   7.889   4.912 -1.6986 -2.3258 -0.4039
  348MOL0     H45893   5.270   8.040   4.900  1.8812  0.7935  1.1287
  348MOL0     H45894   5.144   7.827   4.819 -2.6863 -1.4232  0.5591
  348MOL0     H45895   5.164   7.764   4.986 -1.1102  0.3304  0.5598
  348MOL0     H45896   5.030   7.931   5.073  2.0387  0.8528  0.1229
  348MOL0     H45897   4.951   7.838   4.939  1.1067  0.3470 -3.3504
  348MOL0     H45898   4.968   8.242   4.739 -0.3201  0.7275  0.2336
  348MOL0     H45899   4.771   8.389   4.731 -3.1211  3.1442  2.6745
  348MOL0     H45900   4.278   8.377   5.138 -1.7982 -2.8454 -0.6418
  348MOL0     H45901   4.082   8.493   5.137 -1.0029  0.7652 -0.4562
  348MOL0     H45902   3.766   8.626   5.020 -1.3329 -1.0291  0.8344
  348MOL0     H45903   3.885   8.512   5.099 -2.4863 -1.9699  1.7051
  348MOL0     H45904   3.721   8.358   5.035 -0.3894 -0.8293 -0.4116
  348MOL0     H45905   3.828   8.346   4.916 -0.2629 -1.8866  3.5575
  348MOL0     H45906   3.682   8.470   4.772  0.3643  0.4250  1.2577
  348MOL0     H45907   3.598   8.536   4.909  3.3970  1.2687  1.7496
  348MOL0     H45908   3.562   8.255   4.786 -0.3933 -2.1948  2.5374
  348MOL0     H45909   3.541   8.277   4.963  4.6883  0.8577  1.1039
  348MOL0     H45910   3.413   8.444   4.746  2.4445  1.5278  1.0419
  348MOL0     H45911   3.388   8.460   4.913 -2.1513 -0.0294 -0.0459
  348MOL0     H45912   3.269   8.224   4.901  0.0149  0.1827  1.0482
  348MOL0     H45913   3.310   8.208   4.735 -0.9084 -0.4043  0.8718
  348MOL0     H45914   3.134   8.449   4.835  1.5656  2.2138 -0.9117
  348MOL0     H45915   3.176   8.430   4.678 -2.4298  1.7380  0.3177
  348MOL0     H45916   3.024   8.220   4.845  0.2272  2.2499  0.2453
  348MOL0     H45917   3.036   8.211   4.672 -3.8396  1.0157 -2.0352
  348MOL0     H45918   4.078   8.520   4.706 -1.3818  0.7370  1.4507
  348MOL0     H45919   4.288   8.413   4.692  1.5736  1.7794  1.3252
  348MOL0     H45920   4.577   8.174   5.037 -0.4382  1.6817 -1.4944
  348MOL0     H45921   4.792   7.998   5.043  0.3242 -0.7971 -1.1975
  348MOL0     H45922   6.091   8.879   5.583 -0.6061  1.4013 -0.6913
  348MOL0     H45923   6.022   9.098   5.482  1.6996  0.9021 -0.9359
  348MOL0     H45924   5.983   9.392   5.260  0.6114 -0.1817  1.4739
  348MOL0     H45925   5.896   9.583   5.145  1.1005  0.4660 -1.9103
  348MOL0     H45926   6.164   9.949   5.085 -0.4252  0.2416 -0.7618
  348MOL0     H45927   6.087   9.952   5.245 -0.0923 -4.0868  1.3039
  348MOL0     H45928   5.943   9.993   4.981 -0.3003  0.4829  1.0486
  348MOL0     H45929   5.883  10.044   5.148  0.2777  2.0416  1.1911
  348MOL0     H45930   6.101  10.189   4.967  0.0869  2.0462  0.2217
  348MOL0     H45931   6.059  10.229   5.133  1.4884 -1.3969  0.0110
  348MOL0     H45932   5.879  10.216   4.888  0.8351 -0.3053  1.1324
  348MOL0     H45933   5.817  10.243   5.050 -3.3796  2.7229 -2.0187
  348MOL0     H45934   5.974  10.620   4.910  0.3858  0.1625 -0.9217
  348MOL0     H45935   6.243   9.800   5.250 -0.0358  0.8090  1.7769
  348MOL0     H45936   6.347   9.599   5.341 -0.2019 -0.9178  1.8471
  349MOL0     O45937   9.632   5.468   8.543 -0.2197  0.8407  0.2034
  349MOL0     C45938   9.567   5.457   8.648 -0.3774  0.6545 -0.0801
  349MOL0     O45939   9.443   5.388   8.664  0.7575  0.1034  0.9482
  349MOL0     C45940   9.405   5.299   8.566  0.2944 -0.6834  0.7532
  349MOL0     C45941   9.304   5.345   8.482  0.0300 -0.8182 -1.6764
  349MOL0     C45942   9.262   5.262   8.375 -0.1630  0.5665  1.1528
  349MOL0     C45943   9.304   5.126   8.382  0.3325  1.3321  0.5371
  349MOL0     O45944   9.249   5.032   8.301 -0.2141  0.0554  0.3848
  349MOL0     C45945   9.346   4.980   8.208  0.0867  0.5984  0.4751
  349MOL0     C45946   9.343   4.829   8.209 -0.0400  1.0946  0.0258
  349MOL0     C45947   9.209   4.766   8.166 -0.2666 -0.0528  0.7643
  349MOL0     C45948   9.227   4.610   8.140 -0.2129  0.2280 -0.1836
  349MOL0     C45949   9.099   4.538   8.087 -0.3016 -0.2919  0.1952
  349MOL0     C45950   9.026   4.594   7.965 -0.1584 -0.3161 -0.1765
  349MOL0     C45951   9.091   4.578   7.835 -0.3980 -0.1790  0.7676
  349MOL0     C45952   9.043   4.664   7.721 -0.5073 -0.2616  0.2359
  349MOL0     N45953   8.897   4.641   7.697  0.2532  0.0029  0.1263
  349MOL0     C45954   8.800   4.742   7.682 -0.8409  0.0931 -0.2368
  349MOL0     C45955   8.700   4.659   7.643 -0.0909 -0.9592  0.3506
  349MOL0     C45956   8.576   4.729   7.603  0.4627  0.6206  0.1151
  349MOL0     C45957   8.590   4.841   7.504  0.1377 -0.2068 -0.7541
  349MOL0     C45958   8.471   4.893   7.441 -0.3237  0.3346  0.2617
  349MOL0     C45959   8.346   4.918   7.530 -0.4246  0.7386 -0.1268
  349MOL0     O45960   8.386   5.009   7.634  0.1256 -0.3394  0.2673
  349MOL0     C45961   8.279   5.057   7.708  0.2459  0.4036 -0.4031
  349MOL0     C45962   8.313   5.152   7.791 -0.5018 -0.1449 -0.1315
  349MOL0     C45963   8.217   5.222   7.866 -0.3145  0.0661 -0.9563
  349MOL0     C45964   8.086   5.188   7.873 -0.3368  1.1784  0.1098
  349MOL0     C45965   7.987   5.262   7.932  0.1379 -0.0115  0.1138
  349MOL0     O45966   7.859   5.232   7.897  0.0485 -0.2711 -0.4001
  349MOL0     C45967   7.753   5.288   7.966  0.0884 -0.5072 -0.4160
  349MOL0     C45968   7.629   5.282   7.891  0.5423  0.9261 -0.0295
  349MOL0     C45969   7.515   5.335   7.938 -0.4141  0.8049 -0.3789
  349MOL0     C45970   7.501   5.393   8.068 -0.7219 -0.8926  0.6703
  349MOL0     O45971   7.378   5.434   8.106  0.2645 -0.5874 -0.5948
  349MOL0     C45972   7.341   5.385   8.239 -0.9456 -0.8747  0.3469
  349MOL0     C45973   7.186   5.401   8.265 -0.2827 -0.3111  1.1181
  349MOL0     C45974   7.137   5.433   8.398  0.8771  0.4525 -0.7512
  349MOL0     C45975   7.183   5.561   8.455 -0.8032  0.1056 -0.3262
  349MOL0     C45976   7.077   5.622   8.549 -1.2402  0.5080  0.3774
  349MOL0     C45977   6.968   5.697   8.465 -0.5092  0.4726  0.2957
  349MOL0     C45978   6.881   5.780   8.559  0.3028 -0.4695  0.6623
  349MOL0     C45979   6.789   5.880   8.493  0.7007  0.0486 -0.1833
  349MOL0    Cl45980   6.861   5.995   8.376 -0.5069 -0.0434 -0.4992
  349MOL0     C45981   7.620   5.407   8.139 -1.2199 -0.3420 -0.4313
  349MOL0     C45982   7.735   5.335   8.097  1.3337  0.1630 -0.0416
  349MOL0     O45983   8.030   5.350   8.015  0.8132 -0.4226 -0.0865
  349MOL0     C45984   8.051   5.082   7.791  0.3121 -0.2460 -0.2103
  349MOL0     C45985   8.145   5.020   7.707  0.0196  0.1184  0.4770
  349MOL0     N45986   8.724   4.523   7.631 -1.4326 -0.8644  0.2152
  349MOL0     N45987   8.851   4.519   7.666 -0.6365 -0.0432  0.7746
  349MOL0     C45988   9.393   5.084   8.471 -1.0173  0.8037 -0.0234
  349MOL0     C45989   9.455   5.169   8.560  0.2598  0.0180  0.2544
  349MOL0     C45990   9.622   5.529   8.772  0.6863 -0.4988 -0.3133
  349MOL0     C45991   9.711   5.632   8.761 -0.0669 -0.6233 -0.1989
  349MOL0     C45992   9.762   5.700   8.875  0.3574 -0.0847  0.2693
  349MOL0     C45993   9.712   5.674   8.999  0.0123 -0.3996 -0.6466
  349MOL0     O45994   9.749   5.742   9.109  0.1838 -0.6466  0.3377
  349MOL0     C45995   9.792   5.874   9.092 -0.8359 -0.7202  0.1291
  349MOL0     C45996   9.664   5.956   9.053 -0.6956 -0.0429 -0.1864
  349MOL0     C45997   9.538   5.904   9.119  0.1886 -0.9207 -0.5889
  349MOL0     C45998   9.415   6.001   9.090  0.0691  0.4403  0.3348
  349MOL0     C45999   9.288   5.941   9.146 -0.6809  0.5007  0.7855
  349MOL0     C46000   9.199   5.891   9.210  1.2075  0.2914  0.1634
  349MOL0     C46001   9.622   5.570   9.013 -0.5420 -0.8638 -0.6271
  349MOL0     C46002   9.575   5.497   8.902  1.0569 -0.0662 -0.0256
  349MOL0     H46003   9.280   5.451   8.478  0.0267 -0.6522  0.9387
  349MOL0     H46004   9.209   5.299   8.288  2.3378  2.2285  0.2106
  349MOL0     H46005   9.451   5.000   8.231  1.7764 -3.0639 -2.8970
  349MOL0     H46006   9.319   5.012   8.107  0.8770 -1.6292 -0.5151
  349MOL0     H46007   9.368   4.783   8.304 -0.1659 -0.6796 -0.7589
  349MOL0     H46008   9.424   4.802   8.141 -0.7334 -1.0804  0.0071
  349MOL0     H46009   9.175   4.820   8.078 -4.3571 -2.2013  0.7718
  349MOL0     H46010   9.137   4.784   8.247 -0.7939  0.8260  0.1038
  349MOL0     H46011   9.304   4.598   8.063  0.6349 -0.6151  0.7589
  349MOL0     H46012   9.263   4.565   8.233 -1.6666 -1.5148 -0.3993
  349MOL0     H46013   9.028   4.540   8.170 -0.5028  0.9183  0.0034
  349MOL0     H46014   9.123   4.432   8.071  0.5296 -0.0130 -0.4625
  349MOL0     H46015   9.005   4.701   7.976 -0.8964 -0.2464 -1.9413
  349MOL0     H46016   8.930   4.543   7.951 -0.6062  0.6373 -0.7272
  349MOL0     H46017   9.197   4.607   7.841 -0.9067  2.0319  0.2419
  349MOL0     H46018   9.099   4.473   7.807  1.7949 -0.1234  0.9860
  349MOL0     H46019   9.102   4.628   7.637 -1.8933  0.3655 -1.0589
  349MOL0     H46020   9.052   4.772   7.732  0.3687 -0.3826  0.8133
  349MOL0     H46021   8.814   4.850   7.689  2.7652 -0.3307  0.5673
  349MOL0     H46022   8.523   4.766   7.691 -0.9095  1.3385 -0.9722
  349MOL0     H46023   8.507   4.655   7.561  0.2172  0.1737  1.2632
  349MOL0     H46024   8.652   4.797   7.425 -2.5644 -0.8379 -2.6581
  349MOL0     H46025   8.647   4.920   7.555  0.1671 -0.9514  0.3969
  349MOL0     H46026   8.496   4.992   7.400 -2.8184  1.2085  0.6800
  349MOL0     H46027   8.427   4.827   7.365  0.9895  0.0373 -0.2717
  349MOL0     H46028   8.316   4.820   7.569  1.6971  0.6082  1.3802
  349MOL0     H46029   8.261   4.951   7.470 -3.3602 -1.4536  2.5300
  349MOL0     H46030   8.416   5.184   7.784  0.2326 -2.4977 -1.2551
  349MOL0     H46031   8.244   5.313   7.919 -1.0931  0.5952 -1.4457
  349MOL0     H46032   7.622   5.223   7.800 -0.6797  1.0127  0.0007
  349MOL0     H46033   7.419   5.344   7.888  0.2886 -2.3922 -2.6454
  349MOL0     H46034   7.396   5.448   8.309 -0.2992  0.3187 -1.1694
  349MOL0     H46035   7.375   5.281   8.242  1.6774 -0.1005  0.2945
  349MOL0     H46036   7.126   5.321   8.222  1.2312  0.0107 -1.8908
  349MOL0     H46037   7.143   5.483   8.206 -1.2131 -1.1508  0.6027
  349MOL0     H46038   7.161   5.347   8.462  1.8010 -0.8557 -2.7606
  349MOL0     H46039   7.029   5.447   8.390  0.9197  1.9833  0.7871
  349MOL0     H46040   7.275   5.539   8.510 -0.1851  3.4874  0.2312
  349MOL0     H46041   7.231   5.629   8.384 -0.3468  0.1763  0.0369
  349MOL0     H46042   7.126   5.697   8.613  0.2577 -0.0402 -0.0980
  349MOL0     H46043   7.028   5.541   8.604 -0.7253 -2.1142 -2.7583
  349MOL0     H46044   6.906   5.626   8.409  0.9805 -1.4949  1.0144
  349MOL0     H46045   7.025   5.766   8.403 -0.6330 -1.0572 -1.6178
  349MOL0     H46046   6.810   5.710   8.603 -1.1610  0.6776  0.2081
  349MOL0     H46047   6.944   5.833   8.631 -0.3994  1.4012 -0.0276
  349MOL0     H46048   6.729   5.935   8.566  2.3048  2.1883 -0.3946
  349MOL0     H46049   6.708   5.835   8.434 -0.7306  1.9488  0.2207
  349MOL0     H46050   7.634   5.457   8.234  0.9990  0.5412 -1.1584
  349MOL0     H46051   7.810   5.322   8.174  0.0638  3.4233  1.9405
  349MOL0     H46052   7.953   5.036   7.801  1.4142 -2.1293  4.6336
  349MOL0     H46053   8.109   4.954   7.629  2.8291  1.0212 -1.7196
  349MOL0     H46054   9.411   4.977   8.472  0.5224  1.0201  2.2236
  349MOL0     H46055   9.533   5.122   8.619 -0.4764 -0.4954  0.8326
  349MOL0     H46056   9.754   5.674   8.671 -0.4665 -0.4587 -0.3146
  349MOL0     H46057   9.833   5.781   8.858 -1.4767  1.5462  0.0807
  349MOL0     H46058   9.875   5.879   9.021 -2.6075 -1.2919 -2.1312
  349MOL0     H46059   9.840   5.927   9.174 -2.0400  2.9914 -1.3580
  349MOL0     H46060   9.674   6.062   9.076 -1.0585 -0.4471  2.0963
  349MOL0     H46061   9.664   5.961   8.944  1.4745 -0.2230 -0.2324
  349MOL0     H46062   9.558   5.887   9.226  3.0965 -0.8535 -1.0557
  349MOL0     H46063   9.512   5.810   9.070 -2.2955 -0.0230 -1.1717
  349MOL0     H46064   9.437   6.095   9.141  0.7932  1.7964 -2.3482
  349MOL0     H46065   9.419   6.028   8.984  2.6896  1.2569  0.5625
  349MOL0     H46066   9.112   5.851   9.258  0.3455  1.8219 -0.0532
  349MOL0     H46067   9.595   5.568   9.118  1.2166  1.6244 -0.0136
  349MOL0     H46068   9.499   5.423   8.924 -0.4833  1.2801 -0.6191
  350MOL0     O46069   4.145   7.292   2.780  0.3981 -0.5372 -0.0617
  350MOL0     C46070   4.200   7.402   2.765  0.2533  0.3451  0.4707
  350MOL0     O46071   4.251   7.450   2.639 -0.7028  0.5460 -0.7439
  350MOL0     C46072   4.259   7.367   2.528 -0.3618  0.6560  0.0265
  350MOL0     C46073   4.287   7.436   2.409  0.8811 -0.0690  0.2915
  350MOL0     C46074   4.294   7.375   2.281 -0.3526  1.3488 -0.8244
  350MOL0     C46075   4.273   7.236   2.275 -0.8885 -0.0633  0.4224
  350MOL0     O46076   4.281   7.150   2.164  0.0702 -0.9821 -1.2188
  350MOL0     C46077   4.386   7.185   2.090  0.6141 -0.3946  0.7442
  350MOL0     C46078   4.364   7.111   1.957 -0.8198 -0.0336  0.2443
  350MOL0     C46079   4.390   6.959   1.965  0.2269  0.2161  0.7500
  350MOL0     C46080   4.531   6.923   2.018  0.3712  0.0237 -0.2143
  350MOL0     C46081   4.654   6.977   1.938  0.0044  0.0977 -1.1306
  350MOL0     C46082   4.671   6.882   1.813 -0.7964 -0.1176 -0.0727
  350MOL0     C46083   4.750   6.750   1.832  0.7636 -0.2252 -0.6731
  350MOL0     C46084   4.873   6.758   1.924 -0.0039  0.0115 -0.8490
  350MOL0     N46085   4.963   6.638   1.913 -0.0097 -0.0349  0.1979
  350MOL0     C46086   4.934   6.512   1.976 -0.5915  0.0391 -0.0043
  350MOL0     C46087   5.045   6.442   1.939  0.1237 -0.8747  0.6987
  350MOL0     C46088   5.049   6.295   1.945 -0.0383  0.1983  0.6023
  350MOL0     C46089   5.200   6.230   1.947  0.1282  0.4352 -0.5550
  350MOL0     C46090   5.251   6.187   1.806  1.7539 -0.8558  0.1694
  350MOL0     C46091   5.399   6.150   1.804 -0.8290  0.6756 -0.0553
  350MOL0     O46092   5.415   6.042   1.901  0.2932 -0.1651 -0.2496
  350MOL0     C46093   5.544   5.995   1.923 -0.3039  0.2511 -0.8737
  350MOL0     C46094   5.658   6.045   1.876 -0.9079 -0.5985  0.1298
  350MOL0     C46095   5.783   5.979   1.910 -0.9811  0.1136  0.6278
  350MOL0     C46096   5.785   5.860   1.971  0.6366 -0.6044 -0.0360
  350MOL0     C46097   5.917   5.788   1.997 -0.5210 -0.3207 -0.1702
  350MOL0     O46098   5.913   5.681   2.067  0.0791  0.8181 -0.2060
  350MOL0     C46099   6.031   5.600   2.082  0.6543  0.0687  0.5795
  350MOL0     C46100   6.030   5.462   2.030 -0.2463 -0.4298  0.0738
  350MOL0     C46101   6.148   5.388   2.054  0.0061  0.0297  0.0547
  350MOL0     C46102   6.251   5.434   2.135 -0.5317  1.1553  0.6918
  350MOL0     O46103   6.346   5.340   2.161 -0.7919  0.2023  0.4477
  350MOL0     C46104   6.453   5.376   2.253 -1.2084  0.5908  0.5452
  350MOL0     C46105   6.591   5.401   2.175 -1.2389 -0.5662  0.0737
  350MOL0     C46106   6.694   5.492   2.247  0.1582 -0.1454  1.2041
  350MOL0     C46107   6.824   5.492   2.169  0.4273  0.4015  0.2197
  350MOL0     C46108   6.941   5.535   2.256 -0.0472  0.2768  0.0384
  350MOL0     C46109   6.934   5.672   2.316  0.4541 -0.2554  1.4675
  350MOL0     C46110   7.064   5.711   2.368 -1.3206 -0.0461 -0.2700
  350MOL0     C46111   7.104   5.619   2.480  0.2285 -0.4864  0.1902
  350MOL0    Cl46112   7.251   5.687   2.552  0.1116  0.5541 -0.0485
  350MOL0     C46113   6.250   5.570   2.176 -0.2560 -0.2183 -0.8737
  350MOL0     C46114   6.145   5.651   2.147  0.2187 -0.3274 -0.7726
  350MOL0     O46115   6.016   5.831   1.945  0.0493  0.1167  0.3085
  350MOL0     C46116   5.667   5.795   2.001 -0.0045 -0.2690  0.0509
  350MOL0     C46117   5.553   5.872   1.992 -0.0108 -0.0227  0.1272
  350MOL0     N46118   5.135   6.529   1.871  0.4730 -0.2203 -0.4012
  350MOL0     N46119   5.091   6.646   1.859  0.0108 -0.3502 -0.7673
  350MOL0     C46120   4.238   7.164   2.392  0.3168 -0.3091  0.4200
  350MOL0     C46121   4.251   7.225   2.522 -0.2122 -0.1999  1.3872
  350MOL0     C46122   4.208   7.492   2.887 -1.2708 -0.0022  0.9950
  350MOL0     C46123   4.258   7.620   2.871  0.3519 -0.5129  0.7536
  350MOL0     C46124   4.248   7.713   2.965 -0.4949 -0.8062 -1.0561
  350MOL0     C46125   4.189   7.684   3.086  0.2715  0.0860  0.4821
  350MOL0     O46126   4.170   7.796   3.172  0.6142  0.2840  0.2465
  350MOL0     C46127   4.125   7.757   3.307  0.2987 -0.3066 -0.5856
  350MOL0     C46128   4.156   7.871   3.410  0.1673 -0.9058 -0.4729
  350MOL0     C46129   4.033   7.959   3.436 -0.3430 -0.1233  0.2944
  350MOL0     C46130   4.054   8.083   3.522 -0.9845  0.0957  0.0780
  350MOL0     C46131   3.954   8.188   3.511 -0.6940 -0.7758  1.1192
  350MOL0     C46132   3.872   8.280   3.508 -0.2660  0.8279 -0.1357
  350MOL0     C46133   4.143   7.553   3.113  0.4401  0.0436  0.6169
  350MOL0     C46134   4.153   7.458   3.012  0.1410  0.2275  0.0479
  350MOL0     H46135   4.299   7.544   2.413  1.2874  0.0579 -2.2739
  350MOL0     H46136   4.306   7.453   2.206 -1.5799  1.5102 -0.8778
  350MOL0     H46137   4.481   7.165   2.140  1.0487  2.0227  1.0118
  350MOL0     H46138   4.392   7.289   2.054  0.6994 -0.9370 -0.9170
  350MOL0     H46139   4.431   7.155   1.883 -0.7019 -0.8550 -0.1553
  350MOL0     H46140   4.267   7.124   1.908 -1.6179 -1.9708  1.1731
  350MOL0     H46141   4.385   6.918   1.864 -0.4401  0.1708  0.8016
  350MOL0     H46142   4.311   6.913   2.025 -1.3010  3.0418  1.0366
  350MOL0     H46143   4.541   6.945   2.124 -1.3765  1.0587 -0.2138
  350MOL0     H46144   4.528   6.816   2.000  0.6467  0.0493 -0.4292
  350MOL0     H46145   4.742   6.978   2.004  0.2935  0.0080 -1.5075
  350MOL0     H46146   4.629   7.083   1.930 -0.1469  0.1882  0.3884
  350MOL0     H46147   4.717   6.936   1.729  0.7850  0.9436  1.4057
  350MOL0     H46148   4.573   6.856   1.772  0.3481 -0.6458 -2.6648
  350MOL0     H46149   4.678   6.681   1.877  5.0576 -2.7697  3.1612
  350MOL0     H46150   4.773   6.711   1.732 -2.5819  0.5284 -1.8823
  350MOL0     H46151   4.842   6.768   2.028 -0.5984 -2.7955 -0.6836
  350MOL0     H46152   4.926   6.854   1.916  0.3492  0.1989  2.3711
  350MOL0     H46153   4.834   6.480   2.004 -3.0126  3.8454 -3.2652
  350MOL0     H46154   4.993   6.264   1.856  2.5972  2.1379 -1.9271
  350MOL0     H46155   5.000   6.257   2.035  3.1791 -2.4387  1.4282
  350MOL0     H46156   5.185   6.141   2.009 -0.1770  0.3135 -0.8033
  350MOL0     H46157   5.280   6.292   1.989  2.8557 -1.7656 -2.1334
  350MOL0     H46158   5.193   6.103   1.765 -0.2257  1.3298 -1.8520
  350MOL0     H46159   5.244   6.279   1.747 -2.6797 -1.5082 -0.6880
  350MOL0     H46160   5.470   6.232   1.817  1.3604 -1.0338 -0.4831
  350MOL0     H46161   5.434   6.114   1.707  0.7260  0.8073  0.4196
  350MOL0     H46162   5.664   6.138   1.821  0.3932 -1.2067 -0.8163
  350MOL0     H46163   5.878   6.017   1.873 -1.2606  1.6740  1.4066
  350MOL0     H46164   5.937   5.428   1.986 -0.0251  0.6152 -1.3035
  350MOL0     H46165   6.148   5.281   2.040  1.8534 -0.1645  1.1244
  350MOL0     H46166   6.467   5.295   2.324 -4.7255 -0.9940 -0.3240
  350MOL0     H46167   6.441   5.467   2.312  1.3870  1.3173  0.0753
  350MOL0     H46168   6.558   5.438   2.078  0.1903 -1.3439 -0.7423
  350MOL0     H46169   6.633   5.305   2.144  0.2404 -0.2887  1.1145
  350MOL0     H46170   6.708   5.472   2.354  2.7702  1.8093  1.3181
  350MOL0     H46171   6.651   5.592   2.245 -0.4435 -0.3951  1.3082
  350MOL0     H46172   6.833   5.393   2.125 -1.8722  0.1914  0.1246
  350MOL0     H46173   6.818   5.571   2.093 -1.0120  1.3257  1.2325
  350MOL0     H46174   7.032   5.510   2.201 -0.4669 -2.3559  0.3934
  350MOL0     H46175   6.932   5.467   2.341 -1.9589 -1.1887 -1.2222
  350MOL0     H46176   6.855   5.677   2.391 -0.3058  0.1157  0.6662
  350MOL0     H46177   6.917   5.740   2.232  2.2976 -1.7719 -0.2176
  350MOL0     H46178   7.149   5.710   2.298 -2.7804  3.3065 -2.3100
  350MOL0     H46179   7.060   5.815   2.400  1.8082 -0.4142  1.8244
  350MOL0     H46180   7.125   5.517   2.446 -0.6796 -2.1684  4.1921
  350MOL0     H46181   7.019   5.609   2.547 -0.7802 -0.9119 -1.1117
  350MOL0     H46182   6.330   5.612   2.237 -2.2502  4.3893 -1.0571
  350MOL0     H46183   6.140   5.757   2.170 -1.4452 -0.6719  0.7154
  350MOL0     H46184   5.665   5.695   2.043 -0.8730  0.3271  1.5122
  350MOL0     H46185   5.462   5.829   2.031  1.0492 -1.7166  0.8453
  350MOL0     H46186   4.212   7.059   2.399  0.3293 -0.2706  1.1148
  350MOL0     H46187   4.224   7.165   2.609  1.4427 -0.5183  1.7058
  350MOL0     H46188   4.301   7.653   2.777  1.8984  0.0562  1.6200
  350MOL0     H46189   4.295   7.809   2.947 -0.5662 -0.3199  1.0728
  350MOL0     H46190   4.172   7.663   3.336 -3.4132 -2.9388 -2.2073
  350MOL0     H46191   4.017   7.740   3.299  0.4997 -2.1519  0.1314
  350MOL0     H46192   4.175   7.828   3.509 -0.2397  1.1858  0.5717
  350MOL0     H46193   4.249   7.926   3.392  0.1535 -0.8914 -0.4999
  350MOL0     H46194   3.950   7.908   3.485 -1.3281  2.5063  1.5187
  350MOL0     H46195   4.004   7.989   3.335  0.0908 -3.5458 -0.9926
  350MOL0     H46196   4.058   8.044   3.624 -3.5319  0.7254  0.4813
  350MOL0     H46197   4.152   8.122   3.494 -0.8019 -0.3288  0.1169
  350MOL0     H46198   3.802   8.362   3.517  0.8837  1.9154 -0.7501
  350MOL0     H46199   4.093   7.519   3.204 -3.4189  2.6798 -0.2617
  350MOL0     H46200   4.118   7.357   3.031  0.3849  0.3116  0.9826
  351MOL0     O46201   8.688   1.029  11.217  0.3694  0.3674  0.2904
  351MOL0     C46202   8.626   0.973  11.121 -0.3170 -0.4990 -0.5617
  351MOL0     O46203   8.637   1.006  10.991  0.6252 -0.2312  0.1402
  351MOL0     C46204   8.756   1.060  10.948  0.9594  0.1801 -0.6671
  351MOL0     C46205   8.884   1.036  11.002  0.4023 -0.0349 -0.1791
  351MOL0     C46206   8.994   1.109  10.951  0.6047 -0.6292  0.0931
  351MOL0     C46207   8.984   1.176  10.832  0.1323  0.3057 -0.1471
  351MOL0     O46208   9.108   1.219  10.779  0.2288 -0.5772  0.1192
  351MOL0     C46209   9.095   1.311  10.676  0.5171  0.3793 -0.7280
  351MOL0     C46210   9.214   1.400  10.670  0.0156  0.1860 -0.2259
  351MOL0     C46211   9.179   1.555  10.663  0.5453 -0.0131 -0.3184
  351MOL0     C46212   9.308   1.624  10.654 -0.4766 -0.0557  0.4863
  351MOL0     C46213   9.287   1.760  10.590  0.4017 -0.7823  0.9309
  351MOL0     C46214   9.179   1.855  10.658 -0.0576  0.4985  0.5404
  351MOL0     C46215   9.220   1.945  10.782  1.1135  0.0935  0.0744
  351MOL0     C46216   9.098   2.032  10.832 -0.2332  1.1124  0.3188
  351MOL0     N46217   8.985   1.948  10.868  0.1375  0.1173  0.1591
  351MOL0     C46218   8.997   1.831  10.937 -1.1855  0.6413 -0.2567
  351MOL0     C46219   8.873   1.789  10.960 -0.4881 -0.4162  0.2418
  351MOL0     C46220   8.824   1.669  11.033 -0.1777 -0.5973 -0.9211
  351MOL0     C46221   8.693   1.607  10.985 -0.0550 -0.4821  0.5389
  351MOL0     C46222   8.697   1.580  10.834 -0.1718 -0.7907  0.0370
  351MOL0     C46223   8.593   1.474  10.799  0.2560 -0.2057 -0.0327
  351MOL0     O46224   8.589   1.458  10.657  0.2765 -0.1911 -0.3057
  351MOL0     C46225   8.474   1.418  10.601 -0.9314  0.8112 -0.6675
  351MOL0     C46226   8.375   1.346  10.668  0.9427  0.0055 -0.4453
  351MOL0     C46227   8.255   1.303  10.600  0.5930 -0.1743 -0.4468
  351MOL0     C46228   8.236   1.333  10.471 -1.0925  0.5207  0.0308
  351MOL0     C46229   8.114   1.274  10.406 -0.3110  0.6926 -0.2738
  351MOL0     O46230   8.003   1.239  10.490  0.9652  0.3620  0.5865
  351MOL0     C46231   7.898   1.182  10.417 -0.2756 -1.0811  0.3917
  351MOL0     C46232   7.777   1.258  10.410 -0.4963  0.0603  0.5710
  351MOL0     C46233   7.662   1.201  10.359 -0.3417 -0.0962  0.0354
  351MOL0     C46234   7.663   1.087  10.289  0.0954  0.0073 -0.3651
  351MOL0     O46235   7.546   1.056  10.229 -0.1883  0.2906 -0.0313
  351MOL0     C46236   7.549   0.922  10.177 -0.0154  0.6642  0.1750
  351MOL0     C46237   7.407   0.883  10.137  0.6048 -0.0999  1.1788
  351MOL0     C46238   7.345   0.958  10.026  0.2125 -0.2961  0.1978
  351MOL0     C46239   7.220   0.886   9.978 -1.0575 -0.6486 -0.1092
  351MOL0     C46240   7.118   0.996   9.928  1.2091 -0.5939  0.1065
  351MOL0     C46241   6.990   0.942   9.867  0.3485 -0.0288  0.0264
  351MOL0     C46242   6.927   0.824   9.947 -0.8849 -0.6357 -0.2325
  351MOL0     C46243   6.791   0.809   9.894  0.2524  0.0417  0.0125
  351MOL0    Cl46244   6.791   0.764   9.726  0.1634  0.3727 -0.3061
  351MOL0     C46245   7.783   1.014  10.290  0.6385  1.3203 -0.2965
  351MOL0     C46246   7.891   1.059  10.365 -0.6675  0.4716 -0.1674
  351MOL0     O46247   8.137   1.232  10.293  0.6975 -0.6317 -0.3398
  351MOL0     C46248   8.349   1.388  10.394 -0.4623 -1.1771  0.7069
  351MOL0     C46249   8.467   1.436  10.462  0.5384 -0.4591  0.3212
  351MOL0     N46250   8.790   1.883  10.905  0.1447  0.3422  0.2455
  351MOL0     N46251   8.853   1.979  10.856  0.0225  0.2301 -0.4518
  351MOL0     C46252   8.861   1.172  10.760 -0.9472  0.7738  1.1746
  351MOL0     C46253   8.747   1.126  10.822  0.0450  0.2270  0.0984
  351MOL0     C46254   8.551   0.857  11.161  0.2751 -0.1191  0.9216
  351MOL0     C46255   8.463   0.853  11.266  0.4484 -0.4923 -0.8229
  351MOL0     C46256   8.379   0.737  11.283 -0.0537  1.4622  0.1729
  351MOL0     C46257   8.389   0.622  11.197 -0.7659  0.1988  0.0818
  351MOL0     O46258   8.315   0.519  11.221 -0.5304 -0.6731 -0.0898
  351MOL0     C46259   8.182   0.526  11.179 -0.4066 -0.3173  1.4630
  351MOL0     C46260   8.082   0.553  11.292 -0.5862 -1.6106 -0.1252
  351MOL0     C46261   8.087   0.439  11.395 -0.2397  0.3553 -0.4168
  351MOL0     C46262   8.017   0.455  11.533 -0.4340 -0.1745  0.5407
  351MOL0     C46263   7.870   0.429  11.512 -0.4790 -0.4026  0.3416
  351MOL0     C46264   7.764   0.389  11.498 -0.2717  0.3887 -0.3414
  351MOL0     C46265   8.483   0.630  11.100  0.5141 -0.4479  0.0463
  351MOL0     C46266   8.561   0.740  11.077  0.4158  0.0274  0.4599
  351MOL0     H46267   8.901   0.982  11.095  0.1749  0.6602  0.2743
  351MOL0     H46268   9.095   1.087  10.985 -0.0581 -0.8462  2.0862
  351MOL0     H46269   9.006   1.373  10.687  0.2969  0.2063 -1.4512
  351MOL0     H46270   9.086   1.258  10.580 -0.3804 -0.6796 -0.0798
  351MOL0     H46271   9.271   1.379  10.579  0.0638 -2.1980  0.2732
  351MOL0     H46272   9.289   1.384  10.748  2.8303 -0.0561 -2.7895
  351MOL0     H46273   9.134   1.583  10.759  0.2918 -2.8557  0.4804
  351MOL0     H46274   9.115   1.565  10.575  0.1003 -0.5261 -0.0564
  351MOL0     H46275   9.358   1.638  10.751 -0.2973  3.2215  0.0426
  351MOL0     H46276   9.378   1.575  10.586 -1.7421 -0.2276 -0.7337
  351MOL0     H46277   9.250   1.739  10.489 -0.9453 -0.7550  1.4074
  351MOL0     H46278   9.385   1.808  10.584 -0.3513  0.6523 -2.3925
  351MOL0     H46279   9.093   1.791  10.680  1.5555 -2.1839 -0.4818
  351MOL0     H46280   9.166   1.931  10.580 -0.9478 -0.9341 -0.7638
  351MOL0     H46281   9.263   1.871  10.850  0.0434 -1.2049 -0.6237
  351MOL0     H46282   9.300   2.011  10.749  1.1674  0.8028  1.5348
  351MOL0     H46283   9.074   2.094  10.745  2.7997  2.5225  0.3567
  351MOL0     H46284   9.135   2.098  10.910  6.0052  0.0462 -1.1740
  351MOL0     H46285   9.094   1.789  10.962 -3.0349 -3.2741  1.1476
  351MOL0     H46286   8.811   1.707  11.135  2.2959 -1.6052 -0.1603
  351MOL0     H46287   8.905   1.597  11.036  1.4127  1.1151  1.0229
  351MOL0     H46288   8.599   1.659  11.005 -0.0827  0.2908 -1.3431
  351MOL0     H46289   8.684   1.502  11.012 -0.7962 -1.7064 -3.7669
  351MOL0     H46290   8.651   1.666  10.785  2.0438  0.7877  0.5193
  351MOL0     H46291   8.795   1.565  10.787 -0.1378  0.0031 -0.1650
  351MOL0     H46292   8.497   1.501  10.845 -0.4588 -0.0239 -1.5735
  351MOL0     H46293   8.631   1.381  10.843  0.0714 -1.6548 -2.7002
  351MOL0     H46294   8.385   1.319  10.772 -1.4252 -1.4767 -0.5344
  351MOL0     H46295   8.187   1.240  10.656 -0.3306 -2.8211 -4.1355
  351MOL0     H46296   7.796   1.359  10.446  4.2209 -0.6942  0.8210
  351MOL0     H46297   7.571   1.260  10.348 -1.7400 -1.5231  2.8185
  351MOL0     H46298   7.561   0.851  10.260 -2.5457  1.3788  1.2781
  351MOL0     H46299   7.622   0.902  10.099  0.4635 -2.5893  1.2861
  351MOL0     H46300   7.352   0.885  10.232  0.8595 -1.0375  1.3560
  351MOL0     H46301   7.410   0.778  10.106  2.2388  0.0600  0.6846
  351MOL0     H46302   7.416   0.979   9.946 -0.7903  0.0512 -0.6150
  351MOL0     H46303   7.329   1.062  10.055 -1.7180 -0.2954 -0.7541
  351MOL0     H46304   7.252   0.820   9.896  2.6400  2.8352 -1.8497
  351MOL0     H46305   7.172   0.829  10.058  0.4386  0.1816  1.4425
  351MOL0     H46306   7.179   1.066   9.870  4.1349 -0.7025  2.7493
  351MOL0     H46307   7.070   1.048  10.011  1.3015  2.7383 -1.7552
  351MOL0     H46308   6.998   0.915   9.762  0.4418  2.8974 -0.7909
  351MOL0     H46309   6.915   1.022   9.870 -1.4156 -1.4660 -2.4158
  351MOL0     H46310   6.986   0.734   9.927  2.9166  2.2485 -3.7973
  351MOL0     H46311   6.929   0.856  10.051 -0.4120  1.1195 -0.7483
  351MOL0     H46312   6.734   0.901   9.908  1.1288  0.8241 -1.3067
  351MOL0     H46313   6.738   0.734   9.952  2.1551 -0.2096  1.5170
  351MOL0     H46314   7.805   0.932  10.222  1.0040  0.7065  0.5328
  351MOL0     H46315   7.980   0.997  10.367 -3.3818 -3.8441  1.3445
  351MOL0     H46316   8.339   1.425  10.292  0.0845 -3.2842 -0.1584
  351MOL0     H46317   8.548   1.498  10.424  0.5751  0.6029  2.0320
  351MOL0     H46318   8.846   1.202  10.657 -3.0674  1.2890  1.6042
  351MOL0     H46319   8.660   1.126  10.758  0.4629 -2.1771 -0.5652
  351MOL0     H46320   8.440   0.947  11.314  0.0408 -1.2926  0.6053
  351MOL0     H46321   8.305   0.745  11.361 -1.2698  1.5972 -0.9659
  351MOL0     H46322   8.168   0.428  11.132 -2.9109 -0.0128  1.3931
  351MOL0     H46323   8.154   0.601  11.105 -1.1106  1.8862  3.8247
  351MOL0     H46324   8.108   0.652  11.333  0.4106 -0.7120 -2.6881
  351MOL0     H46325   7.983   0.558  11.246 -0.6569 -2.8224 -0.1363
  351MOL0     H46326   8.192   0.412  11.415 -0.1633  0.2081 -1.0066
  351MOL0     H46327   8.034   0.352  11.356 -0.4306  0.7435 -1.0397
  351MOL0     H46328   8.044   0.379  11.606  2.3031 -0.0280 -0.2159
  351MOL0     H46329   8.047   0.544  11.589 -0.3397  0.6623 -0.7885
  351MOL0     H46330   7.667   0.350  11.522 -0.5076  1.2304  0.1112
  351MOL0     H46331   8.505   0.541  11.043 -1.1573 -0.6179 -0.3971
  351MOL0     H46332   8.629   0.737  10.994  0.8260  0.2463  0.7872
  352MOL0     O46333   9.348   6.403   3.188  0.1651  0.7149 -0.5130
  352MOL0     C46334   9.256   6.380   3.268 -0.7290 -0.5955 -0.1511
  352MOL0     O46335   9.274   6.301   3.385 -0.4061 -0.1011  0.4861
  352MOL0     C46336   9.400   6.264   3.420  0.1542 -0.0268 -0.2908
  352MOL0     C46337   9.487   6.355   3.487  0.0177 -0.2455  0.1551
  352MOL0     C46338   9.620   6.327   3.518 -0.3199  1.1290 -0.9185
  352MOL0     C46339   9.664   6.194   3.492 -0.5109 -0.0592 -0.3210
  352MOL0     O46340   9.801   6.165   3.530  0.7390 -0.6464  0.1741
  352MOL0     C46341   9.884   6.166   3.412 -0.2141  0.0874 -0.4507
  352MOL0     C46342   9.927   6.308   3.376  0.2949 -0.2827  0.0744
  352MOL0     C46343  10.028   6.376   3.464 -1.0658  0.4216  0.0811
  352MOL0     C46344  10.162   6.301   3.462 -0.1591  0.7667  0.1578
  352MOL0     C46345  10.281   6.392   3.494  0.1527 -0.6520  0.3912
  352MOL0     C46346  10.244   6.497   3.604 -0.0541 -0.0190 -0.7479
  352MOL0     C46347  10.356   6.602   3.615 -0.2585 -0.1010 -0.6016
  352MOL0     C46348  10.384   6.681   3.489 -0.4166  0.5447 -0.1915
  352MOL0     N46349  10.498   6.774   3.505  0.0008  0.7807 -0.2464
  352MOL0     C46350  10.632   6.739   3.522 -0.0247  0.1791 -0.1253
  352MOL0     C46351  10.687   6.844   3.577 -0.1363 -0.0905 -0.5372
  352MOL0     C46352  10.826   6.864   3.625  0.5947 -0.0107  0.2951
  352MOL0     C46353  10.933   6.937   3.528 -0.5553 -0.0650  0.5940
  352MOL0     C46354  10.869   7.060   3.454 -0.0055  0.6289 -0.1283
  352MOL0     C46355  10.858   7.195   3.536 -0.0630  0.7734  0.7550
  352MOL0     O46356  10.986   7.217   3.595 -0.0764 -0.4385 -0.2045
  352MOL0     C46357  11.092   7.279   3.528 -0.5637 -0.3840 -0.4329
  352MOL0     C46358  11.083   7.337   3.399 -0.2125  0.9085  0.3923
  352MOL0     C46359  11.196   7.390   3.334 -0.0727  0.2916  0.4448
  352MOL0     C46360  11.326   7.373   3.393  0.5875 -0.5100 -0.1107
  352MOL0     C46361  11.447   7.424   3.326 -0.1792 -0.0848  0.2725
  352MOL0     O46362  11.568   7.387   3.383  0.9589 -0.1582  0.4306
  352MOL0     C46363  11.689   7.446   3.337 -0.5588 -0.6343  0.2734
  352MOL0     C46364  11.700   7.582   3.295  0.4701  1.4258  0.1276
  352MOL0     C46365  11.807   7.631   3.231  0.2003  0.4880  0.4654
  352MOL0     C46366  11.920   7.546   3.206  0.0526 -0.1991 -0.5955
  352MOL0     O46367  12.031   7.578   3.137 -0.1129  0.6304 -0.2719
  352MOL0     C46368  12.029   7.698   3.059 -0.3358  0.3654 -0.1428
  352MOL0     C46369  12.082   7.800   3.157 -0.0281 -0.9481  0.6287
  352MOL0     C46370  12.161   7.909   3.088 -0.3805 -0.5100  0.3571
  352MOL0     C46371  12.200   8.012   3.191 -0.5670 -0.1827  0.9271
  352MOL0     C46372  12.271   8.126   3.122  0.9255 -0.3165  0.2938
  352MOL0     C46373  12.169   8.221   3.053 -0.2072  0.3243 -0.6120
  352MOL0     C46374  12.236   8.354   3.021 -0.5618 -0.6652  0.0459
  352MOL0     C46375  12.280   8.367   2.874 -0.0729  0.5899  0.0974
  352MOL0    Cl46376  12.151   8.385   2.761  0.0262 -0.1663 -0.2082
  352MOL0     C46377  11.912   7.413   3.248  0.4549  0.2593 -1.1768
  352MOL0     C46378  11.799   7.356   3.308 -1.2004 -0.7581  0.0035
  352MOL0     O46379  11.424   7.511   3.238 -0.7665 -0.0702  0.3954
  352MOL0     C46380  11.329   7.331   3.526  0.4457 -0.0234  0.3183
  352MOL0     C46381  11.214   7.280   3.589 -0.4905 -0.4847  0.0180
  352MOL0     N46382  10.593   6.946   3.591  0.9566  0.7166  0.2143
  352MOL0     N46383  10.482   6.899   3.557 -0.8470 -0.1424  0.4218
  352MOL0     C46384   9.576   6.100   3.443 -0.3869  0.4036 -0.2213
  352MOL0     C46385   9.448   6.134   3.406 -1.4194 -1.0307 -0.2630
  352MOL0     C46386   9.116   6.422   3.232 -0.6565  0.1773  0.4267
  352MOL0     C46387   9.088   6.463   3.094  0.6031 -1.0470  0.7329
  352MOL0     C46388   8.955   6.500   3.062  0.2466  1.4158  0.2270
  352MOL0     C46389   8.851   6.480   3.153 -0.5015  0.0707 -1.2310
  352MOL0     O46390   8.715   6.483   3.129  0.8408 -0.5583 -0.4107
  352MOL0     C46391   8.662   6.426   3.011 -0.6910  0.1941 -0.6286
  352MOL0     C46392   8.508   6.433   3.037  0.3498  0.2108 -0.1823
  352MOL0     C46393   8.434   6.315   2.973  0.4968  0.3252  0.6883
  352MOL0     C46394   8.285   6.323   3.018  0.3858 -0.6161 -0.3592
  352MOL0     C46395   8.200   6.218   2.974 -0.0468 -0.7461  0.5548
  352MOL0     C46396   8.104   6.163   2.918 -0.4784 -0.3679 -0.6036
  352MOL0     C46397   8.880   6.429   3.283 -0.2588 -0.0371  0.0959
  352MOL0     C46398   9.012   6.402   3.323 -0.1349  1.4837  0.3660
  352MOL0     H46399   9.445   6.454   3.503  0.3758  0.0029 -0.4268
  352MOL0     H46400   9.690   6.394   3.568  0.3104  1.7892 -2.6289
  352MOL0     H46401   9.833   6.127   3.324 -1.1298  1.3546 -0.5101
  352MOL0     H46402   9.970   6.102   3.434 -0.3099 -0.8695 -2.6096
  352MOL0     H46403   9.840   6.375   3.379  0.4792  0.1259 -1.9578
  352MOL0     H46404   9.957   6.311   3.271  1.7761  0.0359  0.4958
  352MOL0     H46405   9.995   6.368   3.568 -2.4043  0.4529 -0.3225
  352MOL0     H46406  10.028   6.480   3.430  0.3047  0.1486 -0.8320
  352MOL0     H46407  10.155   6.227   3.543 -1.5235 -0.9436 -1.4427
  352MOL0     H46408  10.184   6.259   3.364 -1.1076  1.1059 -0.2100
  352MOL0     H46409  10.311   6.439   3.400 -1.6939 -1.4024 -0.6358
  352MOL0     H46410  10.364   6.332   3.531 -0.9663 -1.7132  1.2438
  352MOL0     H46411  10.241   6.442   3.698  4.8138  0.7140  0.0897
  352MOL0     H46412  10.152   6.553   3.584  0.6832  0.6000 -2.6800
  352MOL0     H46413  10.322   6.667   3.696  1.5984  1.1167 -0.7296
  352MOL0     H46414  10.454   6.556   3.631  0.0521 -0.6024 -3.4134
  352MOL0     H46415  10.293   6.738   3.473 -0.0419  1.1695 -0.1259
  352MOL0     H46416  10.403   6.608   3.409  1.8779 -1.7303  2.2045
  352MOL0     H46417  10.679   6.642   3.509 -1.0429 -0.7284  2.3302
  352MOL0     H46418  10.871   6.765   3.638  1.8898  0.7868  2.3219
  352MOL0     H46419  10.820   6.915   3.722 -0.6451 -2.7314  1.7890
  352MOL0     H46420  10.974   6.864   3.457 -0.3052 -0.3959  1.0691
  352MOL0     H46421  11.018   6.965   3.591  0.1199  0.3265 -0.4708
  352MOL0     H46422  10.932   7.080   3.367 -0.3906 -0.2265 -0.6070
  352MOL0     H46423  10.770   7.034   3.415  0.1110 -0.8761  0.5233
  352MOL0     H46424  10.784   7.176   3.615  0.1597 -2.6165  0.3186
  352MOL0     H46425  10.821   7.275   3.472 -3.0205 -1.2113 -0.2140
  352MOL0     H46426  10.990   7.336   3.342  1.1182  2.6075 -1.9718
  352MOL0     H46427  11.182   7.438   3.237  1.1884 -1.0140 -0.4295
  352MOL0     H46428  11.608   7.639   3.301 -1.8612 -2.1318  0.9329
  352MOL0     H46429  11.794   7.728   3.184 -0.0443 -1.0607 -2.9180
  352MOL0     H46430  11.932   7.732   3.022 -0.9890 -3.2460 -2.2245
  352MOL0     H46431  12.093   7.693   2.970  0.5266  1.6671  0.3828
  352MOL0     H46432  12.159   7.768   3.227  0.2389  0.6471  1.1035
  352MOL0     H46433  11.990   7.837   3.203  0.0358 -1.4905  1.1998
  352MOL0     H46434  12.105   7.951   3.004 -2.3782 -2.4576  0.6155
  352MOL0     H46435  12.255   7.865   3.055  0.0755 -0.0320  0.9916
  352MOL0     H46436  12.111   8.053   3.239 -1.6416  0.5520 -1.5402
  352MOL0     H46437  12.267   7.972   3.267  0.2283  0.6725  0.7010
  352MOL0     H46438  12.343   8.084   3.052  1.7428  0.4702  0.6478
  352MOL0     H46439  12.322   8.179   3.203  0.0745  1.3285 -0.1958
  352MOL0     H46440  12.079   8.232   3.114  0.2176  0.8130 -0.0548
  352MOL0     H46441  12.126   8.166   2.969 -2.2245 -1.5608  1.5219
  352MOL0     H46442  12.172   8.438   3.048  1.4672  1.2469 -0.7561
  352MOL0     H46443  12.319   8.356   3.093  0.1204 -1.0834 -0.7139
  352MOL0     H46444  12.338   8.279   2.844  1.5675  2.1865 -1.6122
  352MOL0     H46445  12.344   8.454   2.859 -0.1902  0.6543 -0.0229
  352MOL0     H46446  11.998   7.346   3.252 -0.3432 -0.7719 -0.2581
  352MOL0     H46447  11.799   7.250   3.333  2.3467 -0.5872  1.1734
  352MOL0     H46448  11.420   7.326   3.584  1.5002 -1.2157 -1.3420
  352MOL0     H46449  11.236   7.242   3.688  1.6410 -0.2894 -0.3409
  352MOL0     H46450   9.614   5.999   3.428  1.5534  1.0246  0.1405
  352MOL0     H46451   9.373   6.068   3.362 -0.0105 -1.3579 -2.3081
  352MOL0     H46452   9.173   6.473   3.028 -0.2168  1.3003 -0.0530
  352MOL0     H46453   8.933   6.534   2.962  1.6296  0.4266 -0.4457
  352MOL0     H46454   8.715   6.332   2.993  0.4405 -0.0057  2.8483
  352MOL0     H46455   8.688   6.478   2.918  4.3355  1.2002  0.9852
  352MOL0     H46456   8.507   6.403   3.142  0.3523  2.2243  0.4190
  352MOL0     H46457   8.463   6.530   3.014 -2.4967 -1.2096 -1.1371
  352MOL0     H46458   8.475   6.220   3.008  0.3452 -0.3047 -0.7990
  352MOL0     H46459   8.435   6.316   2.864 -0.4365  2.1640  0.6571
  352MOL0     H46460   8.283   6.339   3.126 -1.2177  1.0782 -0.5929
  352MOL0     H46461   8.251   6.415   2.969  0.1190 -0.5871 -0.1235
  352MOL0     H46462   8.033   6.099   2.868 -0.7871 -0.5509  0.0593
  352MOL0     H46463   8.804   6.415   3.360  0.5094 -0.4827  0.7868
  352MOL0     H46464   9.023   6.374   3.427 -2.3731  3.3118  1.1823
  353MOL0     O46465   7.550   7.944   5.370 -0.0509 -0.5871 -0.9059
  353MOL0     C46466   7.627   7.913   5.468 -0.3800 -0.9027 -0.4556
  353MOL0     O46467   7.683   7.787   5.483 -0.1288 -0.5918  0.1067
  353MOL0     C46468   7.677   7.706   5.378  0.1062 -0.3135 -0.1658
  353MOL0     C46469   7.609   7.575   5.389  0.6169  0.1395  0.0358
  353MOL0     C46470   7.604   7.488   5.281 -0.2675  0.2551 -0.0649
  353MOL0     C46471   7.663   7.512   5.157 -0.4872  1.1888  0.5522
  353MOL0     O46472   7.655   7.436   5.046 -0.2989 -0.3314  0.9258
  353MOL0     C46473   7.600   7.311   5.062  0.8404  0.3090  0.2764
  353MOL0     C46474   7.606   7.225   4.932  0.0151  0.1076  0.6239
  353MOL0     C46475   7.566   7.084   4.979  0.5016 -0.2744  0.2033
  353MOL0     C46476   7.489   7.013   4.863  0.6169  0.7358 -0.5897
  353MOL0     C46477   7.409   6.887   4.923  0.0210  0.3611  0.6896
  353MOL0     C46478   7.302   6.847   4.833  0.0899 -0.2532 -0.0226
  353MOL0     C46479   7.180   6.813   4.911  0.7703 -0.1775 -0.7507
  353MOL0     C46480   7.094   6.724   4.832  0.0404  0.4436  0.5133
  353MOL0     N46481   6.979   6.707   4.921 -0.4204 -0.1380 -0.2020
  353MOL0     C46482   6.978   6.617   5.029 -0.3991  0.0766  0.2081
  353MOL0     C46483   6.871   6.637   5.096 -0.2206 -1.1377  0.2032
  353MOL0     C46484   6.827   6.561   5.217  0.0218 -0.0075  0.3720
  353MOL0     C46485   6.923   6.576   5.339 -0.3504  0.2660  0.1124
  353MOL0     C46486   6.941   6.452   5.416  0.6908 -0.0242  0.3510
  353MOL0     C46487   7.036   6.483   5.538 -0.7160 -0.1756  0.3777
  353MOL0     O46488   7.166   6.510   5.487 -0.5543  0.0919 -0.2063
  353MOL0     C46489   7.245   6.401   5.458 -0.7948 -0.5292  0.1990
  353MOL0     C46490   7.217   6.259   5.443  0.4839 -0.2537  0.2137
  353MOL0     C46491   7.323   6.166   5.431  0.9966  0.6854 -0.2984
  353MOL0     C46492   7.457   6.221   5.447  0.9336 -0.2110 -0.2584
  353MOL0     C46493   7.561   6.125   5.473 -0.2540  0.0481  0.0705
  353MOL0     O46494   7.678   6.181   5.495  1.3913  0.0415  0.6180
  353MOL0     C46495   7.784   6.110   5.522 -0.4206 -0.5879 -0.1279
  353MOL0     C46496   7.838   6.103   5.652  0.2458 -0.0140  0.2519
  353MOL0     C46497   7.958   6.031   5.659  0.9472  0.0039 -0.5280
  353MOL0     C46498   8.019   5.977   5.543 -0.9927  0.3618 -0.0490
  353MOL0     O46499   8.137   5.905   5.551  0.1656 -0.5470  0.2751
  353MOL0     C46500   8.188   5.854   5.671 -0.1891 -0.1115  0.5269
  353MOL0     C46501   8.291   5.953   5.730  0.7693  0.6832  0.5756
  353MOL0     C46502   8.413   5.943   5.640 -0.4317 -1.0381 -0.2737
  353MOL0     C46503   8.522   6.035   5.709 -0.0046  0.6351 -0.0513
  353MOL0     C46504   8.655   6.026   5.635  0.4533 -0.5158 -0.0399
  353MOL0     C46505   8.738   6.155   5.658  0.4588  0.2794 -0.7778
  353MOL0     C46506   8.869   6.161   5.577  0.0206  0.0834  0.0808
  353MOL0     C46507   8.956   6.295   5.599  0.4754 -0.0639  0.5807
  353MOL0    Cl46508   9.095   6.281   5.482 -0.0125 -0.1357  0.2408
  353MOL0     C46509   7.963   5.985   5.424 -0.1266 -0.1183 -0.6646
  353MOL0     C46510   7.840   6.048   5.415 -0.2359 -0.2582  0.1110
  353MOL0     O46511   7.537   6.008   5.472  0.2322  0.5502 -0.1741
  353MOL0     C46512   7.480   6.357   5.430 -0.4294 -1.1502 -0.4521
  353MOL0     C46513   7.375   6.443   5.433  0.2363 -0.6362 -0.3944
  353MOL0     N46514   6.807   6.750   5.039  0.7070  0.0849  0.3386
  353MOL0     N46515   6.867   6.787   4.937 -0.3321  0.2222  1.1707
  353MOL0     C46516   7.722   7.640   5.141  0.6056 -0.4306 -0.5158
  353MOL0     C46517   7.718   7.739   5.245  0.1716 -0.0361 -0.2953
  353MOL0     C46518   7.663   8.013   5.570  0.6310 -0.3654  0.1518
  353MOL0     C46519   7.602   8.146   5.565  0.8316  0.4799 -0.0072
  353MOL0     C46520   7.623   8.229   5.671 -0.9366  0.1900 -0.4841
  353MOL0     C46521   7.708   8.201   5.777 -0.3115 -0.3564 -0.6549
  353MOL0     O46522   7.732   8.271   5.893 -1.0739  0.2626 -0.0681
  353MOL0     C46523   7.687   8.399   5.916  0.8691  0.0491 -0.5818
  353MOL0     C46524   7.716   8.415   6.070 -0.3370 -0.5092 -0.0124
  353MOL0     C46525   7.656   8.546   6.111 -0.4817  0.3280  0.4563
  353MOL0     C46526   7.743   8.658   6.054  0.7739 -0.0023 -0.5538
  353MOL0     C46527   7.713   8.789   6.125  0.0274 -0.1369 -0.0763
  353MOL0     C46528   7.703   8.887   6.191 -0.1255 -0.7107  0.5300
  353MOL0     C46529   7.784   8.077   5.780 -0.0904  0.1897  0.3948
  353MOL0     C46530   7.764   7.986   5.670  0.3574  0.8996 -0.2800
  353MOL0     H46531   7.555   7.568   5.482  1.9423  0.6403  0.8762
  353MOL0     H46532   7.542   7.400   5.299 -0.0901 -0.6923 -3.4091
  353MOL0     H46533   7.494   7.332   5.078  0.4473 -1.4688  0.2113
  353MOL0     H46534   7.640   7.252   5.146  0.9856 -0.4518 -0.3146
  353MOL0     H46535   7.702   7.222   4.881 -0.9327 -2.8936 -1.2245
  353MOL0     H46536   7.534   7.264   4.859 -1.0647 -0.2560  1.4618
  353MOL0     H46537   7.504   7.097   5.068 -1.4239  3.2097 -1.4259
  353MOL0     H46538   7.659   7.032   5.001  0.1918  0.2076  3.0120
  353MOL0     H46539   7.416   7.076   4.810 -0.7603  1.4298  1.9609
  353MOL0     H46540   7.560   6.985   4.785  1.0533 -0.4778  0.2173
  353MOL0     H46541   7.375   6.903   5.026  2.6919 -1.7907  2.0488
  353MOL0     H46542   7.482   6.806   4.929 -0.8150 -0.5864 -1.1970
  353MOL0     H46543   7.343   6.762   4.777 -2.1736 -3.3594  2.5931
  353MOL0     H46544   7.284   6.924   4.758  4.8202 -0.1656 -1.3496
  353MOL0     H46545   7.211   6.753   4.997  1.8656  0.7386 -0.4802
  353MOL0     H46546   7.126   6.899   4.950  3.4011  0.2900  2.2580
  353MOL0     H46547   7.145   6.632   4.804  2.4632  1.8997 -0.1373
  353MOL0     H46548   7.064   6.779   4.742  3.9768  1.5533 -0.3135
  353MOL0     H46549   7.055   6.542   5.044 -0.9562 -0.5104  0.1410
  353MOL0     H46550   6.806   6.459   5.183 -2.6132  0.6622 -0.2128
  353MOL0     H46551   6.728   6.603   5.235 -1.0296 -2.6991  1.4140
  353MOL0     H46552   6.894   6.658   5.406  0.4296  2.0427 -1.6357
  353MOL0     H46553   7.020   6.608   5.299 -0.7386  0.9572 -0.2944
  353MOL0     H46554   6.845   6.411   5.448  0.4019  0.8158  0.5981
  353MOL0     H46555   6.977   6.377   5.346 -3.4636 -0.5523 -1.5201
  353MOL0     H46556   7.049   6.389   5.593 -0.0510 -0.6294 -0.5324
  353MOL0     H46557   7.006   6.572   5.595 -1.6088  2.0925 -3.3082
  353MOL0     H46558   7.112   6.232   5.446 -0.0057  1.4922 -0.2221
  353MOL0     H46559   7.305   6.061   5.411  5.1009 -0.1843 -0.2582
  353MOL0     H46560   7.795   6.160   5.734  0.5970 -0.7305  0.9521
  353MOL0     H46561   7.988   6.026   5.763 -1.6182 -1.1627  0.2583
  353MOL0     H46562   8.236   5.761   5.641  0.4552  0.8300 -1.5091
  353MOL0     H46563   8.113   5.817   5.742  0.7198 -0.1003  1.5302
  353MOL0     H46564   8.318   5.924   5.832 -1.3584 -2.1408  0.4686
  353MOL0     H46565   8.248   6.054   5.731  0.9991  0.7851  1.6960
  353MOL0     H46566   8.390   5.975   5.538  1.0114 -2.4048 -1.0720
  353MOL0     H46567   8.456   5.842   5.645  2.4613 -0.1307 -3.0238
  353MOL0     H46568   8.492   6.140   5.701  3.2627  1.6181 -1.1076
  353MOL0     H46569   8.535   6.002   5.812  0.8271 -1.4382 -0.7706
  353MOL0     H46570   8.636   6.016   5.527 -2.7555  2.1276  0.1133
  353MOL0     H46571   8.705   5.938   5.677  0.8060 -1.9688 -3.1928
  353MOL0     H46572   8.764   6.179   5.761 -0.1332  3.3251 -1.2382
  353MOL0     H46573   8.675   6.240   5.631 -1.0383  0.1342  1.9624
  353MOL0     H46574   8.928   6.078   5.617 -0.6073 -1.3202 -1.7939
  353MOL0     H46575   8.854   6.137   5.472  2.9875  2.4839 -1.0546
  353MOL0     H46576   8.993   6.298   5.702 -2.0259 -1.0065  1.5740
  353MOL0     H46577   8.899   6.386   5.581 -1.5516 -1.7744 -2.6784
  353MOL0     H46578   8.008   5.941   5.335 -0.5810 -3.9351  0.8361
  353MOL0     H46579   7.804   6.049   5.313 -0.9504  0.6820  0.3601
  353MOL0     H46580   7.580   6.399   5.418 -0.4994 -0.8133  0.1185
  353MOL0     H46581   7.394   6.550   5.427  1.0224 -0.7056  0.7302
  353MOL0     H46582   7.756   7.652   5.039 -0.2447 -2.1620 -1.0443
  353MOL0     H46583   7.750   7.839   5.217 -0.8022 -0.3335 -2.6988
  353MOL0     H46584   7.547   8.174   5.477 -1.9874 -0.8761  1.2036
  353MOL0     H46585   7.569   8.323   5.673 -1.5547 -0.1573  1.6505
  353MOL0     H46586   7.581   8.415   5.893  0.7916 -0.2633 -0.4351
  353MOL0     H46587   7.742   8.467   5.850  0.8121  1.0863  0.4016
  353MOL0     H46588   7.674   8.328   6.123 -0.1937 -1.6010 -1.6342
  353MOL0     H46589   7.821   8.428   6.098 -1.4306  1.6074  3.8569
  353MOL0     H46590   7.654   8.552   6.220  2.7649 -1.7577  0.7912
  353MOL0     H46591   7.553   8.560   6.078 -0.9431 -0.6869  1.4156
  353MOL0     H46592   7.849   8.640   6.073  1.9466  3.9607 -2.3158
  353MOL0     H46593   7.734   8.671   5.945 -1.6357  0.7906 -0.3088
  353MOL0     H46594   7.713   8.963   6.266  1.1564 -0.0767 -0.2757
  353MOL0     H46595   7.840   8.037   5.864 -2.7067 -1.2615  1.6053
  353MOL0     H46596   7.799   7.884   5.678 -6.7199 -2.2127 -1.4490
  354MOL0     O46597   7.319   8.164   4.985 -0.1690  0.0907 -0.1431
  354MOL0     C46598   7.382   8.056   4.998  0.3000 -0.0282 -0.7083
  354MOL0     O46599   7.509   8.039   5.045  0.3160 -0.3840  0.3914
  354MOL0     C46600   7.573   8.150   5.091 -0.2048 -0.1477  0.1134
  354MOL0     C46601   7.680   8.119   5.177 -0.8243 -0.4652  0.1840
  354MOL0     C46602   7.741   8.227   5.251  0.4528 -0.1531 -0.7643
  354MOL0     C46603   7.713   8.356   5.233 -0.1174  0.7137  0.0739
  354MOL0     O46604   7.762   8.460   5.297 -0.4307 -0.5725  0.2709
  354MOL0     C46605   7.825   8.434   5.420 -0.1481 -0.4112  0.9893
  354MOL0     C46606   7.854   8.571   5.493  0.0748 -0.5114  0.5168
  354MOL0     C46607   7.721   8.661   5.505  0.1946  0.1316 -0.0232
  354MOL0     C46608   7.600   8.577   5.559 -0.2743  0.7900  0.1310
  354MOL0     C46609   7.493   8.690   5.578 -0.5307 -0.4650 -0.1169
  354MOL0     C46610   7.370   8.660   5.653  1.3944  0.5464 -0.2374
  354MOL0     C46611   7.272   8.779   5.682 -0.8096 -0.4453 -0.1989
  354MOL0     C46612   7.295   8.861   5.821 -1.0891 -1.2490  0.0053
  354MOL0     N46613   7.262   8.786   5.944 -0.2292 -0.6907 -0.1135
  354MOL0     C46614   7.144   8.726   5.977 -0.7559 -0.0713  0.1316
  354MOL0     C46615   7.170   8.661   6.095  0.2220 -0.8882  0.7772
  354MOL0     C46616   7.081   8.583   6.175  0.1713 -0.9122  0.2751
  354MOL0     C46617   7.066   8.436   6.136 -0.1331  0.5310 -0.4832
  354MOL0     C46618   7.187   8.381   6.081 -0.8497  0.3812  0.5922
  354MOL0     C46619   7.308   8.361   6.170 -1.1474  0.2788 -0.6275
  354MOL0     O46620   7.331   8.221   6.212  0.5765 -0.6525  0.4432
  354MOL0     C46621   7.454   8.163   6.244 -0.3436  0.4369 -0.6076
  354MOL0     C46622   7.490   8.033   6.202 -0.7910  0.5359 -0.3468
  354MOL0     C46623   7.596   7.960   6.261  1.5299 -0.8926  0.2953
  354MOL0     C46624   7.693   8.022   6.349 -0.2689  0.6516  0.6767
  354MOL0     C46625   7.815   7.956   6.397 -0.2031 -0.1619 -0.1010
  354MOL0     O46626   7.887   8.017   6.497 -0.0241  0.4701  0.8941
  354MOL0     C46627   7.981   7.946   6.569 -0.7125  0.5325 -0.1013
  354MOL0     C46628   7.957   7.812   6.602 -0.1240 -0.6491 -0.1026
  354MOL0     C46629   8.049   7.755   6.693  0.6934 -0.4200 -0.1644
  354MOL0     C46630   8.147   7.824   6.754 -0.7066  0.2253  0.6756
  354MOL0     O46631   8.219   7.734   6.835 -0.7297  0.5490  0.0672
  354MOL0     C46632   8.351   7.764   6.844 -0.0866 -0.1440 -1.2508
  354MOL0     C46633   8.414   7.645   6.921  1.0176  0.2101  0.6381
  354MOL0     C46634   8.570   7.643   6.935 -0.1548 -0.5623  0.8352
  354MOL0     C46635   8.638   7.773   6.980 -0.0531 -0.1405 -0.0664
  354MOL0     C46636   8.791   7.756   7.000 -0.1164  0.7230 -0.3131
  354MOL0     C46637   8.819   7.649   7.113 -0.1813 -0.6991 -0.2640
  354MOL0     C46638   8.950   7.673   7.193  0.5090  0.2164  0.6393
  354MOL0     C46639   8.929   7.770   7.300  0.2922 -0.2974  0.2425
  354MOL0    Cl46640   8.885   7.682   7.450  0.1542  0.0197  0.1847
  354MOL0     C46641   8.178   7.957   6.720  0.8235  0.0014 -0.7687
  354MOL0     C46642   8.088   8.020   6.623 -0.3819  0.4219  0.0108
  354MOL0     O46643   7.850   7.854   6.338 -0.1100 -0.6194  0.3585
  354MOL0     C46644   7.660   8.153   6.389  0.1132 -0.2901  0.7288
  354MOL0     C46645   7.541   8.217   6.344 -0.0611  0.2394 -0.2813
  354MOL0     N46646   7.302   8.686   6.127  0.5278 -1.3511 -0.1793
  354MOL0     N46647   7.358   8.763   6.039  0.0577 -0.7071  0.4428
  354MOL0     C46648   7.615   8.381   5.130 -0.7499  0.4626 -0.4149
  354MOL0     C46649   7.545   8.283   5.061 -0.9708  0.8027 -1.2265
  354MOL0     C46650   7.320   7.929   4.968  0.5043 -0.3939 -0.3110
  354MOL0     C46651   7.368   7.806   5.016 -0.0071  1.0008  0.0019
  354MOL0     C46652   7.294   7.685   4.987  0.5355 -0.4685 -0.2669
  354MOL0     C46653   7.165   7.693   4.935  0.2828 -0.2856  1.1054
  354MOL0     O46654   7.099   7.581   4.912 -0.1724  0.7062  0.3352
  354MOL0     C46655   7.028   7.555   4.790  0.0213 -0.0144 -0.8177
  354MOL0     C46656   7.009   7.402   4.780  0.5889  0.2603  0.5084
  354MOL0     C46657   7.128   7.312   4.815  0.2378 -0.3068  0.0376
  354MOL0     C46658   7.113   7.166   4.778 -0.5709 -0.2789  0.6406
  354MOL0     C46659   7.132   7.140   4.632 -0.4380 -0.0683 -0.6990
  354MOL0     C46660   7.133   7.121   4.514  0.1627 -1.0387  0.2003
  354MOL0     C46661   7.116   7.818   4.896 -0.0448 -0.7045  0.2321
  354MOL0     C46662   7.191   7.931   4.909  0.0070 -0.2195  0.5831
  354MOL0     H46663   7.711   8.017   5.195  1.1936  0.2878  1.1865
  354MOL0     H46664   7.818   8.214   5.326 -1.2081  3.5437  1.8855
  354MOL0     H46665   7.923   8.388   5.406  0.6286  0.9422  1.7119
  354MOL0     H46666   7.762   8.377   5.489 -2.8484  1.1153 -0.0410
  354MOL0     H46667   7.936   8.625   5.445  0.0515 -0.3605  0.6445
  354MOL0     H46668   7.876   8.545   5.597 -0.6255  2.0123  1.3693
  354MOL0     H46669   7.677   8.694   5.411  2.8775 -0.6693 -1.6694
  354MOL0     H46670   7.737   8.744   5.575  1.5622 -1.2093  1.3203
  354MOL0     H46671   7.575   8.494   5.493 -3.4999  1.0860  0.8207
  354MOL0     H46672   7.627   8.535   5.656  0.5768 -1.1057 -0.8784
  354MOL0     H46673   7.467   8.727   5.479  0.4034 -3.4158 -1.5837
  354MOL0     H46674   7.550   8.767   5.632  1.9712 -0.5584 -2.4387
  354MOL0     H46675   7.391   8.620   5.752 -1.3904  4.2746  2.1275
  354MOL0     H46676   7.318   8.591   5.586 -1.8419  2.0130  0.5691
  354MOL0     H46677   7.281   8.849   5.599  0.3509  1.9015  1.7724
  354MOL0     H46678   7.170   8.742   5.678 -0.8788 -0.6789  2.1526
  354MOL0     H46679   7.238   8.955   5.830  1.7960  0.4263  2.6739
  354MOL0     H46680   7.397   8.898   5.834 -1.9504  1.7160 -0.9414
  354MOL0     H46681   7.051   8.726   5.921 -0.6202 -1.0255 -0.1031
  354MOL0     H46682   6.986   8.636   6.161  1.6398  1.6582 -0.5103
  354MOL0     H46683   7.120   8.597   6.276  1.4710 -0.2639 -0.2997
  354MOL0     H46684   6.986   8.418   6.064 -0.8419  1.1740  0.1312
  354MOL0     H46685   7.044   8.380   6.227 -1.3829 -0.9584 -1.6486
  354MOL0     H46686   7.158   8.282   6.046  1.4341  0.9343 -3.4760
  354MOL0     H46687   7.229   8.427   5.991 -0.8153 -0.6007  0.0950
  354MOL0     H46688   7.288   8.409   6.266 -0.1876  1.7824 -1.1401
  354MOL0     H46689   7.392   8.407   6.117  1.1876 -1.6289  1.2166
  354MOL0     H46690   7.421   7.994   6.128 -0.8331  0.8139 -0.4560
  354MOL0     H46691   7.612   7.855   6.237  2.8268 -0.9813  1.3893
  354MOL0     H46692   7.876   7.748   6.566  1.3008 -4.8390  3.2648
  354MOL0     H46693   8.026   7.651   6.714 -0.0815 -0.4427 -1.0330
  354MOL0     H46694   8.369   7.845   6.916 -0.7590 -0.6661 -0.4784
  354MOL0     H46695   8.398   7.785   6.748 -0.3351  1.6056 -1.0282
  354MOL0     H46696   8.388   7.556   6.863 -1.1119  1.0564  0.2119
  354MOL0     H46697   8.371   7.637   7.021  1.3837 -0.3176  0.7605
  354MOL0     H46698   8.614   7.603   6.843 -2.5804 -0.9908 -0.2020
  354MOL0     H46699   8.591   7.564   7.008 -1.3807 -1.5431  0.1628
  354MOL0     H46700   8.627   7.848   6.901  0.6278 -2.0774 -2.1107
  354MOL0     H46701   8.583   7.813   7.066  0.0246 -3.1055  1.5150
  354MOL0     H46702   8.836   7.851   7.031  1.2608 -0.8968  3.2732
  354MOL0     H46703   8.843   7.719   6.912  0.7127 -0.4867  0.6535
  354MOL0     H46704   8.804   7.551   7.067  0.5625  0.9394 -4.5192
  354MOL0     H46705   8.742   7.660   7.190 -1.2866 -3.8189 -0.7870
  354MOL0     H46706   8.981   7.577   7.236  0.4506 -0.7524 -1.3684
  354MOL0     H46707   9.026   7.700   7.120  0.4893 -1.9360 -0.2649
  354MOL0     H46708   8.849   7.841   7.280  1.3471  0.9111  0.1540
  354MOL0     H46709   9.026   7.815   7.325  0.1630 -0.7000  1.5617
  354MOL0     H46710   8.258   8.009   6.771 -2.6538  1.4995  3.8883
  354MOL0     H46711   8.092   8.125   6.595 -1.5333 -0.1106 -2.4024
  354MOL0     H46712   7.721   8.202   6.464  0.2949 -0.6207  0.8008
  354MOL0     H46713   7.532   8.319   6.380 -0.4607 -0.4654  1.6929
  354MOL0     H46714   7.607   8.486   5.102  2.4062  0.8628 -0.2005
  354MOL0     H46715   7.478   8.313   4.981  0.4278 -0.3000 -2.9022
  354MOL0     H46716   7.464   7.811   5.066  0.0036  2.4572 -0.1067
  354MOL0     H46717   7.329   7.585   5.011  1.5915 -0.2029 -0.6343
  354MOL0     H46718   7.070   7.592   4.696 -2.4099  1.4268 -1.4319
  354MOL0     H46719   6.930   7.602   4.805  0.3707  0.2761  0.6977
  354MOL0     H46720   6.935   7.369   4.854 -0.1900  0.5441 -0.1328
  354MOL0     H46721   6.987   7.375   4.677 -0.1418  0.6460  0.5601
  354MOL0     H46722   7.125   7.322   4.924 -2.1227 -0.2124  0.0044
  354MOL0     H46723   7.225   7.349   4.779 -0.2136  1.3692  0.4387
  354MOL0     H46724   7.191   7.113   4.834  2.2016  1.7930 -1.0084
  354MOL0     H46725   7.014   7.129   4.807 -1.4084  0.6351 -0.9039
  354MOL0     H46726   7.121   7.078   4.416 -0.3713  0.5190 -0.4690
  354MOL0     H46727   7.018   7.831   4.853 -1.0020  1.4371  2.8360
  354MOL0     H46728   7.145   8.025   4.881  3.0762  1.3682  0.3991
  355MOL0     O46729   2.058   5.289   1.705  0.0484 -0.3723  0.1718
  355MOL0     C46730   2.040   5.345   1.597  0.3778  0.5063  0.0427
  355MOL0     O46731   2.117   5.442   1.539 -0.1595 -0.3040  0.4579
  355MOL0     C46732   2.233   5.458   1.600  0.2754  0.0213 -0.1672
  355MOL0     C46733   2.267   5.596   1.611 -0.3174 -0.3801 -0.4497
  355MOL0     C46734   2.386   5.631   1.668  0.4944 -0.8810  0.4390
  355MOL0     C46735   2.477   5.529   1.706  0.0754 -0.6827  0.4234
  355MOL0     O46736   2.598   5.570   1.761  0.0861  0.5641  0.3052
  355MOL0     C46737   2.618   5.709   1.806 -0.3846  0.3788 -0.7205
  355MOL0     C46738   2.752   5.714   1.879  0.4508 -0.4384 -0.0065
  355MOL0     C46739   2.745   5.678   2.016 -0.9710  0.6880 -0.1323
  355MOL0     C46740   2.880   5.719   2.099 -0.6483  0.6309  0.1576
  355MOL0     C46741   2.860   5.686   2.240 -0.2700  0.0446 -0.0423
  355MOL0     C46742   2.848   5.537   2.282  0.0883 -0.4607  0.6931
  355MOL0     C46743   2.978   5.467   2.235  1.2461 -0.6715  0.3447
  355MOL0     C46744   3.111   5.532   2.268 -1.2427  0.9781  0.3316
  355MOL0     N46745   3.143   5.545   2.415 -0.2740  0.2936 -0.4486
  355MOL0     C46746   3.122   5.464   2.530 -0.2472 -0.3103  0.0532
  355MOL0     C46747   3.183   5.527   2.633  0.5936  0.2179  0.0083
  355MOL0     C46748   3.183   5.471   2.777 -0.6170  0.6844  0.2337
  355MOL0     C46749   3.234   5.329   2.792  0.2574  0.0012  0.2352
  355MOL0     C46750   3.376   5.299   2.722 -0.0555  0.2230  0.6765
  355MOL0     C46751   3.481   5.402   2.753 -0.0431 -0.9214 -0.3306
  355MOL0     O46752   3.604   5.410   2.674  0.7221  0.4528 -0.2806
  355MOL0     C46753   3.583   5.401   2.541 -0.4023 -0.3045 -1.0002
  355MOL0     C46754   3.521   5.515   2.478  0.0178  0.8933 -0.5604
  355MOL0     C46755   3.502   5.511   2.340 -0.3020 -1.5979 -0.2473
  355MOL0     C46756   3.525   5.400   2.262  0.9791  0.5879 -0.5856
  355MOL0     C46757   3.478   5.406   2.118 -0.6115 -1.0851 -0.3671
  355MOL0     O46758   3.388   5.498   2.081 -0.0740 -0.7917  0.3125
  355MOL0     C46759   3.306   5.493   1.979 -0.8814  0.2629  0.4520
  355MOL0     C46760   3.270   5.610   1.918  0.5542  0.4651 -1.1625
  355MOL0     C46761   3.170   5.605   1.818 -0.1808  0.3556 -0.3835
  355MOL0     C46762   3.120   5.485   1.769  0.0704 -0.2173  0.4868
  355MOL0     O46763   3.030   5.465   1.666  0.0842  0.2121  0.4660
  355MOL0     C46764   3.010   5.576   1.573 -0.2335 -0.0741  0.2914
  355MOL0     C46765   2.945   5.533   1.441  0.3559 -0.0106  0.4118
  355MOL0     C46766   2.788   5.496   1.460  0.7169 -0.2001  0.1525
  355MOL0     C46767   2.746   5.426   1.324 -0.0316  0.0996  0.8955
  355MOL0     C46768   2.594   5.447   1.287 -0.9732  0.5409  0.6728
  355MOL0     C46769   2.544   5.368   1.163 -0.7498  0.8407 -0.0002
  355MOL0     C46770   2.416   5.306   1.195 -0.3716  0.0679 -0.5887
  355MOL0     C46771   2.390   5.181   1.111 -0.8385  0.3436  0.6993
  355MOL0    Cl46772   2.231   5.106   1.145  0.5039  0.1999  0.3764
  355MOL0     C46773   3.161   5.369   1.835 -0.4290  0.8549  0.0217
  355MOL0     C46774   3.253   5.365   1.936  0.8077  0.2124 -0.1025
  355MOL0     O46775   3.543   5.334   2.039 -0.6165  0.0625 -0.6709
  355MOL0     C46776   3.583   5.294   2.330 -0.9088 -1.0076 -0.3256
  355MOL0     C46777   3.618   5.289   2.465  0.2675  0.0902  0.1356
  355MOL0     N46778   3.232   5.654   2.584  0.2035  0.0831 -0.8831
  355MOL0     N46779   3.213   5.659   2.460 -0.1296  0.6475  0.2046
  355MOL0     C46780   2.444   5.398   1.699  0.0526 -0.1760  0.2110
  355MOL0     C46781   2.327   5.364   1.639 -0.0999  1.1764 -0.8042
  355MOL0     C46782   1.922   5.299   1.529  0.2194 -0.0777 -0.6225
  355MOL0     C46783   1.918   5.301   1.389 -0.6161 -0.2655  0.2062
  355MOL0     C46784   1.798   5.271   1.323 -0.5457  0.7558 -0.7123
  355MOL0     C46785   1.684   5.243   1.388  0.5510  1.2207 -1.1691
  355MOL0     O46786   1.569   5.197   1.324  0.2879  0.4536 -0.4129
  355MOL0     C46787   1.558   5.197   1.185  0.5936 -0.0971 -0.4069
  355MOL0     C46788   1.481   5.316   1.143 -0.0713  0.0045  0.5492
  355MOL0     C46789   1.345   5.324   1.226  0.3054 -0.2513  0.6822
  355MOL0     C46790   1.262   5.450   1.196 -0.7114  0.1078 -0.0872
  355MOL0     C46791   1.126   5.442   1.252 -1.1570  0.4038  0.8736
  355MOL0     C46792   1.023   5.432   1.312  1.1949 -0.5552  0.5043
  355MOL0     C46793   1.684   5.242   1.530 -0.7337 -0.3036  0.0494
  355MOL0     C46794   1.801   5.263   1.599 -0.4660 -0.1203  0.1544
  355MOL0     H46795   2.211   5.681   1.575  1.2787  1.0534  0.3214
  355MOL0     H46796   2.408   5.737   1.678  0.8954 -1.0991  2.3978
  355MOL0     H46797   2.535   5.735   1.872 -1.0097 -2.1324 -0.4160
  355MOL0     H46798   2.631   5.769   1.715 -0.8012 -0.1852 -1.1547
  355MOL0     H46799   2.786   5.818   1.881 -0.7339  0.0581  4.4190
  355MOL0     H46800   2.825   5.644   1.836 -0.1443 -0.3405 -1.2177
  355MOL0     H46801   2.736   5.569   2.018 -0.2626  0.6143  1.7612
  355MOL0     H46802   2.661   5.721   2.070 -2.1891 -2.6128  0.8665
  355MOL0     H46803   2.963   5.660   2.060 -3.2444 -1.2519 -3.0311
  355MOL0     H46804   2.906   5.825   2.095 -1.5602  0.8328 -1.3636
  355MOL0     H46805   2.771   5.745   2.265  0.3614  1.2105 -0.4387
  355MOL0     H46806   2.937   5.725   2.307  1.3260 -0.5421 -1.4798
  355MOL0     H46807   2.765   5.487   2.232  1.4059 -2.7366  0.6658
  355MOL0     H46808   2.834   5.519   2.389 -0.5311 -1.3392  0.4717
  355MOL0     H46809   2.978   5.367   2.279  1.9893  0.8057  4.0278
  355MOL0     H46810   2.970   5.450   2.127  1.6084 -0.5003  0.2902
  355MOL0     H46811   3.125   5.629   2.218  0.5767  1.0860  0.9684
  355MOL0     H46812   3.188   5.468   2.224 -1.6430  2.0613 -2.1167
  355MOL0     H46813   3.065   5.373   2.545 -1.3804  0.4151  0.2534
  355MOL0     H46814   3.084   5.468   2.824 -0.5218 -0.0984  0.4030
  355MOL0     H46815   3.252   5.530   2.837  1.0673  1.0923 -1.9866
  355MOL0     H46816   3.160   5.260   2.750 -0.2191  0.4837  0.2741
  355MOL0     H46817   3.248   5.321   2.900  2.7360  0.3683 -0.0142
  355MOL0     H46818   3.406   5.200   2.757 -0.6191 -0.0131  0.5122
  355MOL0     H46819   3.376   5.283   2.613  4.2330  2.1821  0.1838
  355MOL0     H46820   3.502   5.413   2.860 -0.5959  1.3800 -0.3915
  355MOL0     H46821   3.431   5.498   2.733 -0.7778 -1.4370 -0.9972
  355MOL0     H46822   3.509   5.599   2.545  5.8299  0.6895  1.2771
  355MOL0     H46823   3.457   5.600   2.297 -1.2155 -1.2425  1.3633
  355MOL0     H46824   3.320   5.700   1.952  0.5468 -0.5525  1.8643
  355MOL0     H46825   3.140   5.699   1.772  0.3831  0.4398 -0.5879
  355MOL0     H46826   3.104   5.633   1.563  1.6816 -2.6599  2.1725
  355MOL0     H46827   2.937   5.642   1.621  0.0060  0.3611  0.0666
  355MOL0     H46828   3.008   5.450   1.406 -1.9893 -2.3396  1.3808
  355MOL0     H46829   2.950   5.627   1.385 -1.8148  0.0104  0.1771
  355MOL0     H46830   2.730   5.588   1.468 -0.3940 -0.8477 -0.3226
  355MOL0     H46831   2.783   5.442   1.555 -1.5042  0.8457  0.6807
  355MOL0     H46832   2.789   5.476   1.237 -3.0117  0.6813 -0.3342
  355MOL0     H46833   2.767   5.319   1.335  0.6535 -0.1779 -2.1027
  355MOL0     H46834   2.579   5.554   1.275  0.2923  1.0497  2.9388
  355MOL0     H46835   2.532   5.426   1.374  1.6242  1.2064  2.8218
  355MOL0     H46836   2.607   5.282   1.136 -1.0404  1.3365 -2.5597
  355MOL0     H46837   2.556   5.430   1.073  0.8381 -0.7409 -0.9446
  355MOL0     H46838   2.409   5.283   1.302  2.2132 -0.4868 -0.4720
  355MOL0     H46839   2.334   5.373   1.168 -0.9146  1.0904  3.0912
  355MOL0     H46840   2.467   5.110   1.142 -1.7771 -0.8692  0.3363
  355MOL0     H46841   2.395   5.215   1.007  1.6786 -0.6467  0.4277
  355MOL0     H46842   3.113   5.273   1.815  1.5243  0.2551 -2.2589
  355MOL0     H46843   3.279   5.281   2.000 -0.6569 -0.9905 -1.0389
  355MOL0     H46844   3.603   5.204   2.273 -0.7385  0.1841 -2.2417
  355MOL0     H46845   3.679   5.215   2.516 -0.4476 -0.1595  0.6490
  355MOL0     H46846   2.509   5.314   1.721  0.2795  0.5240  2.4985
  355MOL0     H46847   2.291   5.262   1.649 -1.2377  1.6373  0.0532
  355MOL0     H46848   2.007   5.323   1.331  0.0233  0.1586  1.3230
  355MOL0     H46849   1.803   5.285   1.215  4.4494  1.1221 -0.7020
  355MOL0     H46850   1.493   5.111   1.164 -1.4010  1.0579  0.7213
  355MOL0     H46851   1.648   5.180   1.125  1.3599  1.0046  0.3991
  355MOL0     H46852   1.524   5.416   1.147  0.4463  0.0332 -2.8498
  355MOL0     H46853   1.442   5.305   1.041 -2.7047  3.7267  0.9489
  355MOL0     H46854   1.364   5.330   1.334 -1.6328  0.7170  1.0106
  355MOL0     H46855   1.289   5.233   1.202  1.0939 -0.5107 -0.1979
  355MOL0     H46856   1.321   5.540   1.216 -1.2152  0.5184 -0.4064
  355MOL0     H46857   1.263   5.448   1.087  1.2069 -1.7853 -0.1079
  355MOL0     H46858   0.928   5.426   1.363  1.0424  2.4494  0.7553
  355MOL0     H46859   1.585   5.235   1.573 -1.2147 -0.3594 -1.0234
  355MOL0     H46860   1.788   5.271   1.707  2.2942 -0.7555  0.6133
  356MOL0     O46861   7.629  10.457   7.779  0.3393  0.2134 -0.1343
  356MOL0     C46862   7.673  10.457   7.665  0.3689  0.0610  0.8539
  356MOL0     O46863   7.790  10.518   7.626 -0.5325  0.5664 -0.5903
  356MOL0     C46864   7.881  10.543   7.730 -0.7574 -0.6128 -0.2328
  356MOL0     C46865   7.940  10.673   7.735 -0.0668  0.7598 -1.3101
  356MOL0     C46866   8.024  10.700   7.839  0.2394 -1.2067  0.0163
  356MOL0     C46867   8.059  10.601   7.937 -0.2446  0.0222  0.6475
  356MOL0     O46868   8.139  10.649   8.041  0.2567  0.1798 -0.5500
  356MOL0     C46869   8.201  10.559   8.133 -0.0283 -0.1793 -0.1151
  356MOL0     C46870   8.266  10.642   8.243 -0.2266  0.6468 -0.1365
  356MOL0     C46871   8.309  10.562   8.367  0.0410 -0.0372  0.1546
  356MOL0     C46872   8.336  10.663   8.481  0.6593  0.8904  0.1718
  356MOL0     C46873   8.467  10.611   8.553  0.4806 -0.2583  0.1696
  356MOL0     C46874   8.450  10.482   8.636 -0.7695 -0.5673 -0.0326
  356MOL0     C46875   8.586  10.451   8.699  0.0782 -0.4973  0.0179
  356MOL0     C46876   8.565  10.347   8.812  0.0432 -0.1402  0.5398
  356MOL0     N46877   8.542  10.413   8.942  0.4355 -0.4146  0.3320
  356MOL0     C46878   8.424  10.471   8.982  0.1058  0.1064 -0.2737
  356MOL0     C46879   8.462  10.548   9.094  0.3535 -0.4081  0.4294
  356MOL0     C46880   8.372  10.641   9.165 -0.0918  0.1022  0.8193
  356MOL0     C46881   8.403  10.653   9.311 -0.8915  0.4939  0.3259
  356MOL0     C46882   8.347  10.776   9.377 -0.5757 -0.1874 -0.2722
  356MOL0     C46883   8.191  10.772   9.405  0.1071 -0.6637 -0.2488
  356MOL0     O46884   8.120  10.800   9.281  0.3882 -0.9427  0.6458
  356MOL0     C46885   8.095  10.925   9.233 -0.8663 -1.0234  0.2471
  356MOL0     C46886   8.112  11.043   9.321  0.8479 -0.2516 -0.8210
  356MOL0     C46887   8.085  11.171   9.278  0.2212 -0.8920  0.7997
  356MOL0     C46888   8.057  11.190   9.134 -0.8152 -0.6384 -0.0607
  356MOL0     C46889   8.051  11.329   9.082  0.6928 -0.9140 -0.4361
  356MOL0     O46890   8.071  11.442   9.168  0.9318  0.8199 -0.0816
  356MOL0     C46891   8.085  11.557   9.100 -1.1166  0.0490 -0.5495
  356MOL0     C46892   8.001  11.665   9.127  0.6139  1.0396 -0.1376
  356MOL0     C46893   8.008  11.789   9.055 -0.0708 -0.5340  0.4486
  356MOL0     C46894   8.118  11.807   8.971 -0.7733 -0.6054 -0.0981
  356MOL0     O46895   8.131  11.929   8.912  0.0317 -0.6270  0.5979
  356MOL0     C46896   8.253  11.967   8.855 -0.0189  0.6673 -0.5467
  356MOL0     C46897   8.258  12.122   8.858 -0.1062 -0.0397  0.2940
  356MOL0     C46898   8.241  12.187   9.003  0.8633 -0.0593  0.6956
  356MOL0     C46899   8.298  12.331   8.989 -0.4458  0.4316 -0.1021
  356MOL0     C46900   8.304  12.390   9.128 -0.0555 -0.4513  0.4039
  356MOL0     C46901   8.375  12.530   9.140 -0.0476 -0.1060  0.0760
  356MOL0     C46902   8.310  12.642   9.063 -0.3956 -0.0650  0.2174
  356MOL0     C46903   8.398  12.772   9.072 -0.6448 -0.7968  0.3834
  356MOL0    Cl46904   8.296  12.906   9.009  0.4236  0.1219 -0.5373
  356MOL0     C46905   8.199  11.698   8.940  0.1444 -0.7528  0.4061
  356MOL0     C46906   8.180  11.576   9.005 -0.1780  0.4883  0.4216
  356MOL0     O46907   8.018  11.332   8.961  0.7711 -0.0752 -0.5449
  356MOL0     C46908   8.057  11.081   9.050 -0.6731 -0.0126 -0.2638
  356MOL0     C46909   8.084  10.955   9.094 -0.8838 -0.2340 -0.1039
  356MOL0     N46910   8.602  10.531   9.116 -0.2048 -0.2272 -0.3026
  356MOL0     N46911   8.644  10.443   9.021 -0.4485 -0.0857 -0.2942
  356MOL0     C46912   8.022  10.467   7.919  1.1319 -0.1547 -0.3273
  356MOL0     C46913   7.934  10.439   7.814 -0.1228 -0.7520  0.2656
  356MOL0     C46914   7.590  10.384   7.560 -0.4058 -0.7995  0.3264
  356MOL0     C46915   7.582  10.435   7.430 -0.5026 -0.0236 -0.1723
  356MOL0     C46916   7.507  10.363   7.336 -0.3898 -0.3601  0.0281
  356MOL0     C46917   7.451  10.246   7.356 -0.2681  0.6362  1.4504
  356MOL0     O46918   7.375  10.185   7.257  0.1351  0.1266  1.0382
  356MOL0     C46919   7.365  10.044   7.262 -0.3698 -0.5360 -0.0293
  356MOL0     C46920   7.402   9.970   7.135 -0.4200  0.2451  1.0933
  356MOL0     C46921   7.315  10.008   7.015 -0.2239  1.0356  0.2774
  356MOL0     C46922   7.180   9.929   6.994  0.1471  0.7236  0.5655
  356MOL0     C46923   7.101   9.992   6.882 -0.0402  0.6747 -0.0922
  356MOL0     C46924   7.049  10.044   6.789  0.0496  0.1402 -0.0894
  356MOL0     C46925   7.456  10.196   7.488 -0.2477 -0.0679  0.2196
  356MOL0     C46926   7.521  10.266   7.589 -0.1695  1.0148 -0.7705
  356MOL0     H46927   7.904  10.751   7.669  0.2204 -1.1191 -3.7905
  356MOL0     H46928   8.058  10.800   7.863 -0.2387 -1.6271  2.7592
  356MOL0     H46929   8.282  10.508   8.078  1.7116  2.2567  0.0507
  356MOL0     H46930   8.126  10.496   8.181 -0.0429 -0.8907 -1.0348
  356MOL0     H46931   8.201  10.720   8.281  0.3768  1.3834 -0.5954
  356MOL0     H46932   8.356  10.676   8.191  2.2870  0.3397  3.6579
  356MOL0     H46933   8.403  10.518   8.331 -0.5691 -4.0526  2.7698
  356MOL0     H46934   8.243  10.475   8.380  1.2837 -1.4427 -2.2352
  356MOL0     H46935   8.375  10.754   8.434  1.8749 -0.4007 -1.4573
  356MOL0     H46936   8.245  10.676   8.540  1.1924  2.1257  0.7452
  356MOL0     H46937   8.488  10.688   8.627  4.5936 -0.5545 -0.4928
  356MOL0     H46938   8.550  10.607   8.482 -0.7879  4.7250 -2.0609
  356MOL0     H46939   8.402  10.402   8.577  2.0899 -1.0847 -1.8343
  356MOL0     H46940   8.378  10.501   8.717 -1.4640  1.3914 -1.0607
  356MOL0     H46941   8.652  10.404   8.625  1.8110  0.5216  0.8367
  356MOL0     H46942   8.638  10.537   8.741  0.6647 -1.6083  1.6669
  356MOL0     H46943   8.655  10.285   8.824  0.7721  0.6060 -0.7570
  356MOL0     H46944   8.484  10.280   8.781 -0.4851  0.4390  0.6558
  356MOL0     H46945   8.322  10.460   8.947 -0.0440 -0.3743  0.2829
  356MOL0     H46946   8.269  10.608   9.149 -0.3783  0.3421  2.0634
  356MOL0     H46947   8.387  10.738   9.115  1.1952 -3.4039 -7.1560
  356MOL0     H46948   8.511  10.651   9.326 -0.6382 -2.3939 -1.0762
  356MOL0     H46949   8.350  10.570   9.358 -0.6903 -1.4142 -2.5426
  356MOL0     H46950   8.402  10.797   9.469  2.0641  1.1939 -2.0421
  356MOL0     H46951   8.360  10.866   9.316 -1.8765 -0.3234 -0.7814
  356MOL0     H46952   8.162  10.844   9.482 -1.1275  1.4697 -2.5643
  356MOL0     H46953   8.170  10.672   9.445 -0.1985  0.9184  4.0415
  356MOL0     H46954   8.136  11.041   9.426  1.0079 -1.8396 -0.8687
  356MOL0     H46955   8.088  11.263   9.336 -2.6996  1.3337 -2.2101
  356MOL0     H46956   7.924  11.646   9.201  0.8348  2.4812  0.4934
  356MOL0     H46957   7.932  11.865   9.068 -1.6260 -1.9393 -0.0149
  356MOL0     H46958   8.265  11.925   8.755  1.1619 -0.5142  0.0613
  356MOL0     H46959   8.334  11.934   8.920 -0.4007  1.1756  0.1945
  356MOL0     H46960   8.190  12.167   8.785  1.3692 -0.5062 -1.4382
  356MOL0     H46961   8.360  12.147   8.827 -0.8489  0.6007 -1.8332
  356MOL0     H46962   8.307  12.141   9.078  3.0397 -0.4398 -1.3482
  356MOL0     H46963   8.139  12.187   9.041  0.2501  0.3072 -0.8848
  356MOL0     H46964   8.397  12.317   8.944 -0.1741  0.6974  0.4033
  356MOL0     H46965   8.242  12.390   8.916  1.3062  2.6925  0.2886
  356MOL0     H46966   8.352  12.328   9.205 -2.6108  0.3178  2.7644
  356MOL0     H46967   8.203  12.404   9.166  0.8101  3.2556  1.8761
  356MOL0     H46968   8.474  12.522   9.092 -0.0409  2.0601 -0.3485
  356MOL0     H46969   8.379  12.553   9.246  3.0634 -0.4661  0.1417
  356MOL0     H46970   8.289  12.610   8.960  0.2016 -2.1982  0.6910
  356MOL0     H46971   8.222  12.655   9.126  0.7855  1.6874  1.6013
  356MOL0     H46972   8.492  12.767   9.017 -1.1175  0.0650 -0.5341
  356MOL0     H46973   8.408  12.787   9.180 -0.8964 -1.7607  0.5545
  356MOL0     H46974   8.279  11.722   8.871 -0.4263  3.3020  0.9067
  356MOL0     H46975   8.253  11.497   8.996  0.4025  0.8927  1.4605
  356MOL0     H46976   8.044  11.105   8.945 -3.4620  1.8164  0.4033
  356MOL0     H46977   8.091  10.871   9.027 -0.8254  0.3242 -0.8081
  356MOL0     H46978   8.046  10.381   7.981 -1.4010 -2.1169 -1.8660
  356MOL0     H46979   7.886  10.342   7.800 -1.2278 -0.6377  2.7526
  356MOL0     H46980   7.632  10.523   7.391  2.2850 -1.5040 -0.1544
  356MOL0     H46981   7.495  10.414   7.241  1.5095  1.6357  0.7656
  356MOL0     H46982   7.261  10.026   7.292 -1.0864 -0.6851 -2.3248
  356MOL0     H46983   7.439  10.003   7.331 -0.5771 -0.1448  0.4302
  356MOL0     H46984   7.508   9.996   7.126 -0.0858 -1.5623 -1.1391
  356MOL0     H46985   7.412   9.862   7.153  2.6939  0.0405 -1.0450
  356MOL0     H46986   7.371   9.993   6.922  0.4264 -0.2416  0.8538
  356MOL0     H46987   7.295  10.115   7.027  2.8550  1.5876  1.4961
  356MOL0     H46988   7.196   9.823   6.974  0.5477  1.2584 -2.4488
  356MOL0     H46989   7.122   9.945   7.085 -0.2882  1.1058  0.2259
  356MOL0     H46990   7.006  10.079   6.697  1.8867  1.0788 -0.6394
  356MOL0     H46991   7.395  10.108   7.508 -1.7880  0.6574 -1.0854
  356MOL0     H46992   7.536  10.217   7.684  0.9730  2.7652  0.0150
  357MOL0     O46993   8.869   5.119   7.575 -0.0594  0.1354  0.2696
  357MOL0     C46994   8.891   5.207   7.657  0.2963 -0.6804 -0.1663
  357MOL0     O46995   8.885   5.189   7.796  0.2155 -0.1776  0.3887
  357MOL0     C46996   8.807   5.089   7.855  0.5204  0.7476 -0.0881
  357MOL0     C46997   8.682   5.056   7.809  0.4571  0.3832 -0.0166
  357MOL0     C46998   8.596   4.967   7.877 -0.1873 -0.3321  0.0513
  357MOL0     C46999   8.657   4.881   7.981  0.2467  0.5089 -0.4767
  357MOL0     O47000   8.574   4.784   8.032  0.2497 -0.6019  0.2645
  357MOL0     C47001   8.604   4.732   8.162 -0.1075 -0.2651  0.0469
  357MOL0     C47002   8.501   4.626   8.198 -0.1751  0.3201  0.2639
  357MOL0     C47003   8.481   4.503   8.104 -0.0845  0.0968 -0.7690
  357MOL0     C47004   8.388   4.524   7.987  0.4822  0.1946 -0.8887
  357MOL0     C47005   8.386   4.406   7.877  0.1888  0.1093  1.6402
  357MOL0     C47006   8.296   4.420   7.743 -0.1213  1.0352  0.1101
  357MOL0     C47007   8.158   4.480   7.769 -0.4459  0.5268 -0.0306
  357MOL0     C47008   8.168   4.630   7.747  0.2204  0.1327  0.4230
  357MOL0     N47009   8.036   4.694   7.738 -0.3293  0.1765  0.2415
  357MOL0     C47010   7.945   4.700   7.844  0.1535 -0.0091  1.3654
  357MOL0     C47011   7.833   4.754   7.790  0.0775 -0.3130  0.0681
  357MOL0     C47012   7.693   4.770   7.848 -0.7488  0.4729  0.6601
  357MOL0     C47013   7.588   4.674   7.779 -0.2485 -0.3131  0.0118
  357MOL0     C47014   7.457   4.648   7.855  0.0326  0.2826 -0.2222
  357MOL0     C47015   7.473   4.568   7.987 -0.1637 -0.1382 -0.9795
  357MOL0     O47016   7.359   4.561   8.071  0.6719 -0.2917 -0.0037
  357MOL0     C47017   7.317   4.674   8.142  0.6184  0.2541 -0.8895
  357MOL0     C47018   7.360   4.806   8.126  0.8102  0.6163 -0.4356
  357MOL0     C47019   7.306   4.910   8.204  0.4837 -0.7172  0.7805
  357MOL0     C47020   7.196   4.883   8.292 -0.6781  0.6418 -0.4447
  357MOL0     C47021   7.139   4.988   8.383  0.4472  0.5429  0.8624
  357MOL0     O47022   7.006   4.978   8.417 -0.1907 -0.4693  0.4274
  357MOL0     C47023   6.949   5.091   8.471 -0.2880 -0.1566  0.0842
  357MOL0     C47024   6.892   5.180   8.385  0.5324 -0.0126  0.1834
  357MOL0     C47025   6.823   5.290   8.433  0.1675  0.5328  0.2527
  357MOL0     C47026   6.820   5.312   8.580 -0.6976 -0.7174 -0.5351
  357MOL0     O47027   6.752   5.415   8.614  0.4978 -0.6693  0.3614
  357MOL0     C47028   6.698   5.430   8.743  0.4854  0.3656  0.0128
  357MOL0     C47029   6.798   5.516   8.830  0.3665  0.7460  0.2868
  357MOL0     C47030   6.782   5.477   8.988 -0.7027 -0.0363  0.1163
  357MOL0     C47031   6.833   5.596   9.077  0.7857 -0.0600  0.4892
  357MOL0     C47032   6.895   5.547   9.211 -0.4038 -0.8394 -0.4531
  357MOL0     C47033   6.933   5.669   9.303 -0.3030  0.1102  0.3082
  357MOL0     C47034   6.941   5.627   9.441  0.3570  0.6539  0.2709
  357MOL0     C47035   6.975   5.732   9.538 -0.7854 -0.6434 -0.4797
  357MOL0    Cl47036   7.156   5.705   9.562  0.4047 -0.1639  0.2873
  357MOL0     C47037   6.897   5.227   8.663  0.6482  0.3467  1.0680
  357MOL0     C47038   6.950   5.118   8.609 -0.4681 -0.0164 -0.3327
  357MOL0     O47039   7.218   5.084   8.408  0.0176 -0.6788  0.2681
  357MOL0     C47040   7.140   4.758   8.289  0.0672  0.8174  0.3348
  357MOL0     C47041   7.198   4.656   8.219  0.1015  0.2668  0.6714
  357MOL0     N47042   7.856   4.773   7.651  0.7144  0.2573 -0.7830
  357MOL0     N47043   7.976   4.732   7.625 -0.1768  0.3386  0.8616
  357MOL0     C47044   8.795   4.914   8.025 -0.1038 -0.0920 -0.1378
  357MOL0     C47045   8.863   5.021   7.965  0.7297  0.2531  0.4646
  357MOL0     C47046   8.917   5.341   7.598 -2.1609 -0.1801  0.6379
  357MOL0     C47047   8.935   5.372   7.461  0.0325  0.2361  0.4596
  357MOL0     C47048   8.980   5.496   7.422  0.2071 -0.1863 -0.4641
  357MOL0     C47049   9.000   5.601   7.505 -0.2231  0.9325 -0.1419
  357MOL0     O47050   9.023   5.719   7.451  0.2607 -0.1302 -0.9739
  357MOL0     C47051   9.154   5.780   7.492  0.0478 -0.0434  0.1730
  357MOL0     C47052   9.280   5.709   7.430  0.1043 -0.0003  0.3239
  357MOL0     C47053   9.261   5.730   7.273 -0.7612  0.8216 -0.8974
  357MOL0     C47054   9.359   5.665   7.184 -0.4041  0.1617  0.2557
  357MOL0     C47055   9.354   5.515   7.197 -0.9457 -0.3577  1.7515
  357MOL0     C47056   9.334   5.396   7.209 -1.5346 -0.3396 -0.4401
  357MOL0     C47057   8.976   5.577   7.645 -0.1262  0.5586 -0.4544
  357MOL0     C47058   8.935   5.447   7.690 -0.0060  0.3773 -0.1225
  357MOL0     H47059   8.642   5.113   7.726  1.0149 -1.7648 -1.8404
  357MOL0     H47060   8.494   4.937   7.853 -0.0537 -0.9270  0.2077
  357MOL0     H47061   8.603   4.813   8.235  0.4303 -0.6536  0.4964
  357MOL0     H47062   8.702   4.683   8.162  1.5396  2.7965 -0.1806
  357MOL0     H47063   8.406   4.678   8.217 -1.8131 -1.4787 -2.3273
  357MOL0     H47064   8.522   4.590   8.299 -3.4397 -2.7920  0.0006
  357MOL0     H47065   8.437   4.418   8.156 -0.0928 -1.4881 -3.2076
  357MOL0     H47066   8.571   4.456   8.062 -2.4246 -3.6481 -2.0526
  357MOL0     H47067   8.288   4.535   8.030  0.2691  2.3649 -1.7744
  357MOL0     H47068   8.412   4.616   7.931  1.8955 -2.1646 -4.5152
  357MOL0     H47069   8.381   4.311   7.931 -0.1264  0.1400  1.6656
  357MOL0     H47070   8.484   4.413   7.830 -0.6802 -0.3006 -0.3664
  357MOL0     H47071   8.275   4.322   7.699 -0.1281  1.4360 -0.7943
  357MOL0     H47072   8.352   4.475   7.667  0.1474 -0.5654 -0.8909
  357MOL0     H47073   8.090   4.445   7.691  0.3108  2.1652 -1.5084
  357MOL0     H47074   8.129   4.453   7.870  1.9659  0.9911  0.8502
  357MOL0     H47075   8.218   4.649   7.652  0.4682  1.6263  0.8196
  357MOL0     H47076   8.239   4.671   7.819  1.3515 -3.9276  1.8991
  357MOL0     H47077   7.956   4.673   7.949  3.0288 -0.8835  0.9409
  357MOL0     H47078   7.658   4.873   7.839 -0.5930  0.5307  0.6987
  357MOL0     H47079   7.695   4.754   7.956  1.4880  0.7827  0.7166
  357MOL0     H47080   7.634   4.575   7.769 -1.0991 -0.9223  1.7450
  357MOL0     H47081   7.570   4.713   7.679 -0.2375  0.1175  0.1738
  357MOL0     H47082   7.406   4.742   7.877  0.5555  0.2195  1.3931
  357MOL0     H47083   7.391   4.590   7.790  0.2398 -1.2219  0.8497
  357MOL0     H47084   7.547   4.620   8.048  0.9762  1.2498 -3.3805
  357MOL0     H47085   7.499   4.462   7.975 -2.0097 -0.9306  1.2957
  357MOL0     H47086   7.445   4.829   8.062  0.7467  4.0234  0.4898
  357MOL0     H47087   7.336   5.014   8.209 -1.1319 -0.1915 -0.0453
  357MOL0     H47088   6.887   5.172   8.277  0.6234  0.2677  0.1575
  357MOL0     H47089   6.756   5.346   8.369  0.1698 -0.0603 -0.2811
  357MOL0     H47090   6.679   5.336   8.796 -1.0994  0.4652 -0.3068
  357MOL0     H47091   6.603   5.485   8.734  0.4695 -0.0164 -2.9016
  357MOL0     H47092   6.767   5.620   8.816 -1.1073  0.4178  0.9324
  357MOL0     H47093   6.902   5.500   8.800  0.0871 -1.3890  0.2842
  357MOL0     H47094   6.836   5.383   9.003 -0.3369  0.0064 -0.8453
  357MOL0     H47095   6.675   5.468   9.005 -0.4735 -1.3219  1.0014
  357MOL0     H47096   6.915   5.649   9.028  1.4440 -1.3943  0.1012
  357MOL0     H47097   6.752   5.668   9.089  1.3372  0.8263 -0.9013
  357MOL0     H47098   6.989   5.498   9.183  0.7052  0.2374  1.2471
  357MOL0     H47099   6.839   5.467   9.261  0.0295 -2.0858 -1.8656
  357MOL0     H47100   6.868   5.756   9.294 -1.8456 -0.5183  3.7001
  357MOL0     H47101   7.027   5.711   9.266  1.3638 -2.8139  0.9220
  357MOL0     H47102   6.838   5.596   9.462  0.2436  0.9789  0.1957
  357MOL0     H47103   7.014   5.546   9.447 -1.4499 -1.1150 -0.3157
  357MOL0     H47104   6.922   5.712   9.631 -1.2312  1.8866 -0.1356
  357MOL0     H47105   6.947   5.833   9.510 -1.7559 -0.5314  0.8548
  357MOL0     H47106   6.890   5.246   8.770  1.2254  0.9714  1.0051
  357MOL0     H47107   7.010   5.044   8.661 -0.5085  0.7612  0.8600
  357MOL0     H47108   7.058   4.753   8.359 -1.9307  1.2912 -1.8331
  357MOL0     H47109   7.154   4.559   8.240  2.2250 -0.3832  2.4785
  357MOL0     H47110   8.844   4.871   8.111  0.5066  1.3614  0.2790
  357MOL0     H47111   8.956   5.056   8.008 -0.7415  2.9412  1.7387
  357MOL0     H47112   8.918   5.296   7.385  0.3166  1.7618 -1.2016
  357MOL0     H47113   8.986   5.509   7.315 -0.1746 -2.4517 -0.8142
  357MOL0     H47114   9.152   5.801   7.599 -1.0306 -1.7932  0.5511
  357MOL0     H47115   9.144   5.876   7.441  0.4447 -0.3144 -0.4272
  357MOL0     H47116   9.368   5.764   7.464 -1.0864  0.7499  2.3677
  357MOL0     H47117   9.290   5.606   7.467  4.2453  0.8652  2.2407
  357MOL0     H47118   9.274   5.837   7.256 -1.0472  0.6597 -2.2490
  357MOL0     H47119   9.157   5.720   7.241 -1.7793  3.4623  1.2095
  357MOL0     H47120   9.344   5.691   7.079  2.7438  0.3235 -0.2546
  357MOL0     H47121   9.460   5.696   7.213  0.3880 -1.1456 -0.9486
  357MOL0     H47122   9.331   5.289   7.208  0.5260 -0.4338 -0.4814
  357MOL0     H47123   8.982   5.651   7.725 -0.8936  1.9681 -1.6396
  357MOL0     H47124   8.914   5.440   7.797  1.1129 -1.0156  0.0441
  358MOL0     O47125  10.698   3.429   3.547 -0.2478  0.1668 -0.7272
  358MOL0     C47126  10.776   3.470   3.638 -0.5312 -0.3533  0.0425
  358MOL0     O47127  10.896   3.520   3.620 -0.4578 -0.0797  0.3382
  358MOL0     C47128  10.934   3.553   3.482  0.0608 -0.1960 -0.5089
  358MOL0     C47129  10.904   3.482   3.364  0.7457  0.0152  0.3016
  358MOL0     C47130  10.951   3.527   3.237 -1.0246 -0.3762 -0.2779
  358MOL0     C47131  11.038   3.635   3.219  0.0282  0.0084  0.2485
  358MOL0     O47132  11.089   3.677   3.107  0.3915 -0.8236  0.0001
  358MOL0     C47133  11.208   3.605   3.071 -0.1156  0.8778 -0.5345
  358MOL0     C47134  11.333   3.671   3.128 -0.9601  0.1955 -1.0479
  358MOL0     C47135  11.458   3.602   3.066  0.2541 -0.4237  0.3120
  358MOL0     C47136  11.572   3.686   3.088 -0.6662  0.1699 -0.8017
  358MOL0     C47137  11.706   3.638   3.021 -0.4652 -0.3536  0.3009
  358MOL0     C47138  11.711   3.676   2.878 -0.7337  0.0673  0.8335
  358MOL0     C47139  11.826   3.598   2.808 -0.3869  0.3385  0.4043
  358MOL0     C47140  11.831   3.596   2.653  0.0485  0.3662 -0.3765
  358MOL0     N47141  11.966   3.567   2.601 -0.2579  0.5956  0.0798
  358MOL0     C47142  12.014   3.440   2.565  1.0305 -0.5744  0.8472
  358MOL0     C47143  12.135   3.457   2.520 -0.3060 -0.1723 -0.2866
  358MOL0     C47144  12.230   3.345   2.484 -0.2776 -0.3037  0.9802
  358MOL0     C47145  12.338   3.394   2.386  0.3635 -0.7968  0.0701
  358MOL0     C47146  12.457   3.295   2.396 -0.3606  1.1133  0.4659
  358MOL0     C47147  12.588   3.362   2.340 -0.3194  0.1262  0.0059
  358MOL0     O47148  12.689   3.261   2.337 -0.1982  0.1189  0.3379
  358MOL0     C47149  12.825   3.294   2.332  0.4251 -0.5563  0.1298
  358MOL0     C47150  12.915   3.183   2.339 -0.4667 -0.3962  0.6371
  358MOL0     C47151  13.054   3.212   2.349 -0.3699 -0.7254 -0.4728
  358MOL0     C47152  13.102   3.349   2.343  0.0758  0.6703 -0.2710
  358MOL0     C47153  13.239   3.385   2.381 -0.2310 -0.8521 -0.1626
  358MOL0     O47154  13.324   3.281   2.415  1.1320 -0.0421  0.1042
  358MOL0     C47155  13.454   3.320   2.420 -0.0879  0.7785 -0.6650
  358MOL0     C47156  13.535   3.280   2.311  0.2588 -0.0445  0.2072
  358MOL0     C47157  13.677   3.296   2.320 -0.1059  0.6793  0.0545
  358MOL0     C47158  13.731   3.348   2.439 -0.1395 -0.1675  0.0158
  358MOL0     O47159  13.867   3.361   2.447 -0.6376  0.1571  0.6542
  358MOL0     C47160  13.914   3.477   2.523 -0.3223  0.0356 -0.1696
  358MOL0     C47161  14.066   3.486   2.497 -0.2876  0.1633 -1.1596
  358MOL0     C47162  14.077   3.540   2.353 -0.1826 -0.4611 -0.5509
  358MOL0     C47163  14.227   3.514   2.314 -0.8638  0.1181  0.2938
  358MOL0     C47164  14.275   3.554   2.175  0.9315 -0.5936 -0.1920
  358MOL0     C47165  14.421   3.621   2.187 -0.4961  0.4635 -0.2001
  358MOL0     C47166  14.477   3.674   2.061  0.9033 -0.1724 -0.4662
  358MOL0     C47167  14.616   3.727   2.083  0.6550  0.4228  0.4973
  358MOL0    Cl47168  14.616   3.869   2.179 -0.0064  0.2410 -0.1424
  358MOL0     C47169  13.646   3.389   2.543 -0.9293 -0.9133  0.7339
  358MOL0     C47170  13.509   3.379   2.541 -0.4814 -0.2637  0.2482
  358MOL0     O47171  13.271   3.504   2.360  0.7184  0.8445 -0.3560
  358MOL0     C47172  13.014   3.450   2.316 -0.0173 -0.1514  0.6993
  358MOL0     C47173  12.877   3.422   2.315 -0.4461  1.3083  0.0906
  358MOL0     N47174  12.168   3.588   2.519  0.4070  0.4119  0.2706
  358MOL0     N47175  12.059   3.650   2.556 -0.2138 -0.3267  0.4568
  358MOL0     C47176  11.074   3.702   3.340  0.1344 -0.7792 -0.2413
  358MOL0     C47177  11.022   3.666   3.466 -1.4308  0.2643  0.4939
  358MOL0     C47178  10.727   3.479   3.778  0.2738 -0.4044  0.1927
  358MOL0     C47179  10.605   3.410   3.820  0.6308 -0.4664  0.5986
  358MOL0     C47180  10.577   3.406   3.950 -0.2920  0.6812 -0.8551
  358MOL0     C47181  10.649   3.477   4.047  0.4190  0.1603  1.3518
  358MOL0     O47182  10.612   3.446   4.171  0.7926 -0.2967 -0.2077
  358MOL0     C47183  10.627   3.545   4.273 -0.0706  0.2414  0.2116
  358MOL0     C47184  10.541   3.493   4.388 -0.3575  0.1318 -0.7074
  358MOL0     C47185  10.555   3.601   4.495 -0.0709  0.2163 -0.4201
  358MOL0     C47186  10.476   3.538   4.606 -0.0059  0.5940 -0.9377
  358MOL0     C47187  10.442   3.647   4.701 -0.3745 -0.4559  0.1186
  358MOL0     C47188  10.427   3.732   4.787  0.0075  0.5495  0.2282
  358MOL0     C47189  10.762   3.534   4.005 -0.6219 -0.3443  0.6783
  358MOL0     C47190  10.802   3.546   3.868 -0.2640  0.7439 -0.4912
  358MOL0     H47191  10.840   3.394   3.371 -0.1757  0.6416 -0.0554
  358MOL0     H47192  10.919   3.478   3.147 -0.1418 -1.1540 -0.1817
  358MOL0     H47193  11.204   3.599   2.962  3.5579  0.5442 -0.7816
  358MOL0     H47194  11.220   3.502   3.106 -0.5392  0.6656 -1.0039
  358MOL0     H47195  11.329   3.662   3.237  1.6726 -2.7761 -1.0351
  358MOL0     H47196  11.324   3.774   3.094  0.5786  0.1924 -1.5209
  358MOL0     H47197  11.426   3.590   2.962 -1.6601 -1.2815  0.9529
  358MOL0     H47198  11.459   3.501   3.109 -0.9282 -0.9557 -0.8605
  358MOL0     H47199  11.552   3.788   3.053  0.1786 -0.0625 -2.0116
  358MOL0     H47200  11.589   3.707   3.194  1.2631 -0.7556 -0.8836
  358MOL0     H47201  11.723   3.533   3.045  0.3782 -0.6331 -1.3451
  358MOL0     H47202  11.793   3.687   3.065  1.3321 -3.2256  0.1730
  358MOL0     H47203  11.716   3.786   2.881  0.6048  0.0317  3.7378
  358MOL0     H47204  11.620   3.649   2.824  0.2370  2.3612 -2.2239
  358MOL0     H47205  11.921   3.640   2.844 -0.0956 -0.2875  0.3722
  358MOL0     H47206  11.837   3.495   2.843 -0.0667  0.2346  0.0060
  358MOL0     H47207  11.801   3.698   2.629  1.7021  0.6271 -1.4501
  358MOL0     H47208  11.759   3.521   2.618  1.2527 -0.9300 -0.2055
  358MOL0     H47209  11.980   3.342   2.595  6.0349 -2.7763  0.1870
  358MOL0     H47210  12.178   3.260   2.438 -0.5525 -0.0840  0.8831
  358MOL0     H47211  12.286   3.322   2.575  2.1893 -0.6473 -0.5187
  358MOL0     H47212  12.362   3.498   2.407 -0.5323 -0.3115 -1.1680
  358MOL0     H47213  12.310   3.386   2.280  1.3908 -1.3478 -0.1760
  358MOL0     H47214  12.467   3.248   2.495 -0.4269 -4.4800 -1.8312
  358MOL0     H47215  12.448   3.209   2.329  1.3892  0.8211  0.5404
  358MOL0     H47216  12.615   3.447   2.403 -1.5274  1.3415 -1.0562
  358MOL0     H47217  12.570   3.407   2.242 -1.7922  0.8962  0.5942
  358MOL0     H47218  12.891   3.077   2.340  0.7202 -0.6888 -0.5362
  358MOL0     H47219  13.116   3.126   2.370 -1.2938 -1.0956  0.8666
  358MOL0     H47220  13.501   3.235   2.219  0.4484  1.6231 -0.7173
  358MOL0     H47221  13.737   3.257   2.239  0.4252  1.7593 -0.0956
  358MOL0     H47222  13.890   3.469   2.629 -0.9009  1.3084 -0.1920
  358MOL0     H47223  13.871   3.566   2.477  3.9198  1.9417 -0.9743
  358MOL0     H47224  14.108   3.386   2.509  0.4605  0.6234  0.3509
  358MOL0     H47225  14.117   3.548   2.572  1.4074 -1.2806 -1.0623
  358MOL0     H47226  14.065   3.648   2.346  0.9133 -0.3128 -0.2335
  358MOL0     H47227  14.003   3.492   2.287 -0.8170  1.6096 -1.4100
  358MOL0     H47228  14.292   3.572   2.379  0.5259  1.2616 -1.9696
  358MOL0     H47229  14.256   3.410   2.328 -0.6466  0.5292  3.5473
  358MOL0     H47230  14.197   3.625   2.147  0.3269 -0.9918  0.4575
  358MOL0     H47231  14.269   3.476   2.099 -5.2216 -2.0194  1.2534
  358MOL0     H47232  14.496   3.550   2.224  1.1795  0.0925 -3.9255
  358MOL0     H47233  14.415   3.702   2.261 -0.0647  0.5863 -0.3016
  358MOL0     H47234  14.489   3.592   1.990  2.0024  0.4248 -0.9922
  358MOL0     H47235  14.426   3.759   2.015  0.1709 -0.0096  0.6181
  358MOL0     H47236  14.656   3.744   1.983 -1.5743 -1.5352 -0.8205
  358MOL0     H47237  14.680   3.650   2.127 -0.1574  0.0932  1.1214
  358MOL0     H47238  13.685   3.429   2.636  0.2545 -1.4675  0.5004
  358MOL0     H47239  13.454   3.412   2.628 -1.0322  2.2417 -0.9346
  358MOL0     H47240  13.062   3.545   2.298 -2.1005  0.4916 -2.1921
  358MOL0     H47241  12.823   3.516   2.308  3.0919  3.6344  1.3895
  358MOL0     H47242  11.147   3.781   3.326 -0.9953 -0.2374 -4.9274
  358MOL0     H47243  11.081   3.719   3.541  3.1361  2.1135 -3.8487
  358MOL0     H47244  10.538   3.354   3.755  1.4266  0.7245 -1.3386
  358MOL0     H47245  10.491   3.359   3.997  0.9242  2.0019  3.0763
  358MOL0     H47246  10.582   3.636   4.232 -0.6639  0.0432  0.4070
  358MOL0     H47247  10.733   3.562   4.295  0.1896  0.2473 -0.9902
  358MOL0     H47248  10.440   3.484   4.347  0.2839  3.1603 -3.3082
  358MOL0     H47249  10.587   3.398   4.417  2.4384  1.5376 -0.1598
  358MOL0     H47250  10.523   3.700   4.463  0.4789  2.4877  4.8914
  358MOL0     H47251  10.659   3.617   4.526  0.0908  0.9419 -1.3011
  358MOL0     H47252  10.384   3.494   4.567 -1.6275  1.3903  1.7280
  358MOL0     H47253  10.524   3.457   4.661 -1.1303 -0.0941 -0.9538
  358MOL0     H47254  10.425   3.810   4.860 -2.1965 -0.5202  1.3973
  358MOL0     H47255  10.831   3.573   4.080 -0.3973 -3.5066  2.3015
  358MOL0     H47256  10.890   3.605   3.843  0.9221 -1.1399 -0.9356
  359MOL0     O47257   9.824   7.299   1.547  0.6034  0.6318 -0.0983
  359MOL0     C47258   9.850   7.417   1.518 -0.2912 -0.1431  0.5359
  359MOL0     O47259   9.815   7.484   1.400  0.6549  0.6555  0.8127
  359MOL0     C47260   9.716   7.418   1.328  0.5205  0.1305 -0.2997
  359MOL0     C47261   9.749   7.326   1.230 -0.5738  0.2586 -0.0238
  359MOL0     C47262   9.646   7.267   1.149 -0.0461  0.5404  0.6706
  359MOL0     C47263   9.512   7.302   1.155 -0.4164 -0.5489  0.5387
  359MOL0     O47264   9.410   7.260   1.062 -0.2355  0.3213  0.3173
  359MOL0     C47265   9.419   7.121   1.024 -0.0822 -0.1664  0.8721
  359MOL0     C47266   9.283   7.059   0.985 -0.1833 -0.5738  0.1524
  359MOL0     C47267   9.207   7.144   0.883  0.3658  0.8992  0.0423
  359MOL0     C47268   9.094   7.061   0.814  0.0977 -0.0543 -0.3669
  359MOL0     C47269   9.013   6.957   0.903 -0.8159 -0.2750 -0.5947
  359MOL0     C47270   8.907   6.870   0.825 -0.3027  0.1529  0.3106
  359MOL0     C47271   8.785   6.967   0.802  0.2294 -0.0604  0.2914
  359MOL0     C47272   8.695   6.899   0.697 -0.6764 -0.6965 -0.4234
  359MOL0     N47273   8.584   6.987   0.649 -0.5257  0.8551 -0.6398
  359MOL0     C47274   8.476   7.029   0.724  0.0115  0.4746 -0.0885
  359MOL0     C47275   8.402   7.109   0.640  0.1235  0.8032 -1.3783
  359MOL0     C47276   8.274   7.181   0.665  0.4865 -1.0557 -0.4628
  359MOL0     C47277   8.143   7.096   0.681  0.2909 -0.5675 -0.1180
  359MOL0     C47278   8.086   7.050   0.537 -0.3305  0.2837 -0.7962
  359MOL0     C47279   8.044   7.170   0.444  0.3892 -0.4401 -0.3489
  359MOL0     O47280   7.985   7.117   0.326 -0.3590  0.4097  0.2685
  359MOL0     C47281   7.855   7.108   0.318 -0.3754 -0.6917  1.0934
  359MOL0     C47282   7.813   7.091   0.182 -0.6225  0.1893  0.6401
  359MOL0     C47283   7.678   7.060   0.161 -0.1273 -0.5858  0.2269
  359MOL0     C47284   7.588   7.056   0.269 -0.0787 -0.1160  0.8449
  359MOL0     C47285   7.444   7.057   0.241  0.5769  0.0224  0.4398
  359MOL0     O47286   7.389   7.007   0.121 -0.0741  0.0469 -0.1945
  359MOL0     C47287   7.253   7.014   0.122  0.9279  0.1363  1.2686
  359MOL0     C47288   7.187   7.122   0.062 -0.7409 -1.2289 -0.7619
  359MOL0     C47289   7.048   7.136   0.075 -0.4861 -0.0830  0.2571
  359MOL0     C47290   6.971   7.049   0.154  0.0452  0.6025  0.0437
  359MOL0     O47291   6.832   7.068   0.170  0.9482  0.5639 -0.5665
  359MOL0     C47292   6.775   7.115   0.291  0.0332 -0.1713 -0.4592
  359MOL0     C47293   6.795   7.258   0.311  0.0675 -1.4275 -0.7542
  359MOL0     C47294   6.735   7.319   0.438  0.2433 -0.5195  0.5894
  359MOL0     C47295   6.787   7.460   0.473 -0.9931  0.5561  0.4474
  359MOL0     C47296   6.746   7.521   0.614  0.0500  0.1056  0.0345
  359MOL0     C47297   6.768   7.421   0.736 -0.5349  1.4193 -0.0092
  359MOL0     C47298   6.724   7.457   0.872  0.7157 -0.0048 -0.1091
  359MOL0     C47299   6.571   7.501   0.874 -0.3918 -1.1339 -0.0535
  359MOL0    Cl47300   6.541   7.673   0.866 -0.3214 -0.1084 -0.0321
  359MOL0     C47301   7.033   6.944   0.221 -0.7657 -0.1914 -0.1454
  359MOL0     C47302   7.175   6.931   0.200  1.0537 -0.4290  0.1752
  359MOL0     O47303   7.373   7.098   0.335  0.4210  0.2002 -0.4530
  359MOL0     C47304   7.636   7.067   0.393  0.5509 -0.1204  0.0793
  359MOL0     C47305   7.768   7.100   0.419 -0.9969 -1.2696 -0.0014
  359MOL0     N47306   8.462   7.095   0.518 -0.5675 -0.5758  0.3933
  359MOL0     N47307   8.576   7.047   0.522 -0.3105  0.0598 -0.5211
  359MOL0     C47308   9.484   7.405   1.246 -0.3782 -0.4548 -0.2064
  359MOL0     C47309   9.581   7.467   1.329  0.3664 -0.1515 -0.5378
  359MOL0     C47310   9.887   7.497   1.637 -0.3614 -0.0733  1.1199
  359MOL0     C47311   9.927   7.442   1.754 -0.5066 -0.0303  0.3192
  359MOL0     C47312   9.967   7.519   1.865  0.3331 -0.4727 -0.6647
  359MOL0     C47313   9.965   7.658   1.857  0.0305 -0.5934 -0.2763
  359MOL0     O47314  10.000   7.744   1.964 -0.0638 -0.4990 -0.2586
  359MOL0     C47315  10.083   7.864   1.928 -0.1750  0.5389 -0.0822
  359MOL0     C47316  10.230   7.819   1.940 -1.0272 -1.0064  0.8982
  359MOL0     C47317  10.266   7.770   2.084  0.7222  0.7289  0.4674
  359MOL0     C47318  10.222   7.637   2.125 -0.4007  0.1925 -0.0219
  359MOL0     C47319  10.338   7.569   2.194  0.0468 -0.2879  1.3105
  359MOL0     C47320  10.427   7.512   2.245  0.4051  0.2055 -0.4740
  359MOL0     C47321   9.914   7.717   1.740  0.0175 -0.0136 -0.3384
  359MOL0     C47322   9.874   7.637   1.626 -0.8796 -0.6091  0.9630
  359MOL0     H47323   9.849   7.286   1.214 -0.9564  0.2259 -2.9250
  359MOL0     H47324   9.670   7.180   1.088 -0.3409  0.9020  0.0191
  359MOL0     H47325   9.476   7.058   1.092  1.2008 -2.3663 -1.9911
  359MOL0     H47326   9.470   7.117   0.927 -1.7319 -1.7549  0.0059
  359MOL0     H47327   9.209   7.055   1.065  0.6437  2.7345  1.2607
  359MOL0     H47328   9.291   6.961   0.939 -0.8195 -1.5905  2.0950
  359MOL0     H47329   9.276   7.175   0.804 -0.7840 -2.0501 -2.2880
  359MOL0     H47330   9.173   7.233   0.936 -1.6361 -1.0498  2.2621
  359MOL0     H47331   9.025   7.134   0.769  0.3907 -0.8814 -2.2541
  359MOL0     H47332   9.134   7.000   0.732  0.4907 -1.5248  0.8739
  359MOL0     H47333   8.963   7.021   0.976 -0.3603  1.4069 -1.7226
  359MOL0     H47334   9.078   6.886   0.955 -0.9164  1.0879  1.4703
  359MOL0     H47335   8.873   6.787   0.888  2.9843 -1.3054  0.3616
  359MOL0     H47336   8.943   6.839   0.727  0.9308  2.0920  0.1087
  359MOL0     H47337   8.719   6.975   0.889  2.0449  0.6732  1.6807
  359MOL0     H47338   8.816   7.068   0.773 -1.0935 -0.0244 -1.1475
  359MOL0     H47339   8.656   6.802   0.728  1.4039 -1.4344  0.0889
  359MOL0     H47340   8.764   6.878   0.614 -0.6578 -1.5944 -0.1941
  359MOL0     H47341   8.476   7.016   0.832  0.4715  2.4416  0.1983
  359MOL0     H47342   8.262   7.245   0.577 -1.6259  3.8753  2.9382
  359MOL0     H47343   8.285   7.244   0.754 -0.1024 -0.0187 -1.0991
  359MOL0     H47344   8.065   7.156   0.728 -0.8501 -0.4237 -2.0608
  359MOL0     H47345   8.150   7.018   0.757 -2.5306 -2.1160 -1.2898
  359MOL0     H47346   8.160   7.004   0.470 -1.4811 -0.7053 -1.4381
  359MOL0     H47347   8.001   6.984   0.559  1.3860 -1.6641  0.3812
  359MOL0     H47348   8.126   7.239   0.421 -2.6961  4.2368  1.0586
  359MOL0     H47349   7.972   7.230   0.501 -0.2659 -0.8843 -0.7093
  359MOL0     H47350   7.881   7.075   0.099  1.0541  1.6770  1.6621
  359MOL0     H47351   7.645   7.039   0.060 -0.3534 -1.5953  0.5032
  359MOL0     H47352   7.240   7.197   0.005  1.0378 -0.7323  1.4287
  359MOL0     H47353   7.010   7.228   0.032  2.4877  0.8910 -0.5718
  359MOL0     H47354   6.817   7.057   0.373 -0.9554 -0.3543 -0.0705
  359MOL0     H47355   6.667   7.110   0.276 -0.2094  2.4933 -0.2150
  359MOL0     H47356   6.752   7.317   0.230  2.2820  1.0793 -0.2814
  359MOL0     H47357   6.903   7.272   0.299  0.2382 -0.7739  1.0530
  359MOL0     H47358   6.736   7.246   0.519  0.6852 -1.9121 -0.6216
  359MOL0     H47359   6.630   7.330   0.407  0.9265 -2.6031 -2.9073
  359MOL0     H47360   6.896   7.460   0.475 -1.0071  0.4512  1.8585
  359MOL0     H47361   6.753   7.522   0.389  2.2971  1.2939 -0.4682
  359MOL0     H47362   6.639   7.544   0.608  0.4099  1.9783  0.2208
  359MOL0     H47363   6.789   7.621   0.622  1.8586 -0.6663  0.4673
  359MOL0     H47364   6.877   7.412   0.733 -0.7634 -2.9113 -2.3922
  359MOL0     H47365   6.721   7.326   0.711 -2.1556  2.6287 -1.8601
  359MOL0     H47366   6.747   7.378   0.944 -0.8317 -0.8557 -0.5136
  359MOL0     H47367   6.787   7.537   0.915  0.9526 -0.7281  0.9323
  359MOL0     H47368   6.521   7.468   0.966 -1.0298  1.3000  0.5361
  359MOL0     H47369   6.508   7.448   0.801 -0.2960 -0.6068 -0.5207
  359MOL0     H47370   6.975   6.875   0.282  1.2062 -3.0143 -1.1938
  359MOL0     H47371   7.226   6.845   0.241 -0.0148 -2.1710 -1.9216
  359MOL0     H47372   7.574   7.064   0.481  0.3327  2.2546  0.0643
  359MOL0     H47373   7.817   7.103   0.516 -0.3591 -0.7434 -0.3371
  359MOL0     H47374   9.384   7.447   1.240 -0.0417  0.7000  1.6204
  359MOL0     H47375   9.569   7.562   1.380  4.6202  1.0073 -1.2827
  359MOL0     H47376   9.932   7.333   1.756 -1.7055 -0.2105 -2.3584
  359MOL0     H47377   9.996   7.458   1.951 -0.7815 -3.4318 -2.2475
  359MOL0     H47378  10.062   7.947   1.996 -3.1586  1.7427 -2.2219
  359MOL0     H47379  10.075   7.892   1.823  0.0524  2.1004  0.2928
  359MOL0     H47380  10.248   7.731   1.876 -0.8805  1.2103 -2.3484
  359MOL0     H47381  10.307   7.893   1.914  0.7873 -2.5374  1.6575
  359MOL0     H47382  10.220   7.835   2.159  0.0347  0.3701  0.3587
  359MOL0     H47383  10.375   7.778   2.088  0.9255  0.0411 -1.8783
  359MOL0     H47384  10.139   7.647   2.195 -0.7117 -0.5421 -0.2674
  359MOL0     H47385  10.183   7.585   2.037  1.8208  0.5314 -1.2880
  359MOL0     H47386  10.499   7.440   2.278  1.2747  1.5134  0.5488
  359MOL0     H47387   9.898   7.824   1.744 -0.0771 -0.0397 -0.0103
  359MOL0     H47388   9.817   7.684   1.546 -2.0689 -0.9066  1.6052
  360MOL0     O47389   1.167   6.147   7.726 -0.4225 -0.2977  0.5389
  360MOL0     C47390   1.197   6.192   7.831  0.6920 -1.1563 -1.0982
  360MOL0     O47391   1.303   6.284   7.849  0.0798  0.0858 -0.6586
  360MOL0     C47392   1.390   6.323   7.744 -0.0940 -0.2180 -0.8373
  360MOL0     C47393   1.469   6.436   7.770 -0.7098  0.7637 -0.3722
  360MOL0     C47394   1.560   6.480   7.674 -0.4258 -0.1665  0.1093
  360MOL0     C47395   1.581   6.408   7.555 -0.4686  0.1829 -0.4286
  360MOL0     O47396   1.677   6.456   7.467 -0.8540  0.1786  0.2667
  360MOL0     C47397   1.701   6.378   7.353  0.3011  0.4948 -0.2161
  360MOL0     C47398   1.775   6.452   7.248 -0.4463  0.2883 -0.8868
  360MOL0     C47399   1.913   6.505   7.298 -0.9933 -0.6437  0.4999
  360MOL0     C47400   1.989   6.552   7.174 -0.0434  0.6081  0.2740
  360MOL0     C47401   2.077   6.439   7.112 -0.8866  0.1990  0.2386
  360MOL0     C47402   2.099   6.471   6.962  1.1874  0.0661 -0.2775
  360MOL0     C47403   2.168   6.354   6.893 -0.8195 -0.7182 -0.0390
  360MOL0     C47404   2.221   6.407   6.757 -0.1612  0.0401 -0.4766
  360MOL0     N47405   2.132   6.363   6.649  0.4131 -0.6005  0.4548
  360MOL0     C47406   2.038   6.437   6.592 -0.8275 -1.0305  0.1156
  360MOL0     C47407   2.002   6.380   6.474  0.4022 -0.6146 -0.8024
  360MOL0     C47408   1.897   6.441   6.384  0.0086 -0.5964  0.2401
  360MOL0     C47409   1.756   6.412   6.436  0.0314 -0.5606  1.0578
  360MOL0     C47410   1.648   6.438   6.338  0.8071  0.2237 -0.3671
  360MOL0     C47411   1.672   6.568   6.255  0.7192 -0.2497  0.2235
  360MOL0     O47412   1.556   6.608   6.181  0.2176  0.4955  0.2818
  360MOL0     C47413   1.452   6.639   6.272 -0.0214 -0.8072 -0.9192
  360MOL0     C47414   1.458   6.741   6.380  1.4619  0.5623 -0.4922
  360MOL0     C47415   1.339   6.775   6.450 -0.4188  0.0059  0.3789
  360MOL0     C47416   1.219   6.715   6.413  0.1599 -0.6199 -0.4013
  360MOL0     C47417   1.096   6.749   6.480  0.0837 -0.3797  0.3560
  360MOL0     O47418   0.979   6.735   6.421 -0.1170  0.3982  0.5899
  360MOL0     C47419   0.862   6.745   6.494 -0.3075  0.4246  0.2655
  360MOL0     C47420   0.810   6.628   6.544 -0.7508  0.3301  0.2020
  360MOL0     C47421   0.701   6.621   6.627 -1.0912  0.8397 -0.0540
  360MOL0     C47422   0.647   6.746   6.670 -0.1093  0.2142 -0.2410
  360MOL0     O47423   0.543   6.742   6.759 -0.3064  0.5958  0.0450
  360MOL0     C47424   0.575   6.796   6.884  0.4811 -0.5858 -0.2412
  360MOL0     C47425   0.659   6.700   6.965 -1.0331  0.2115  0.1441
  360MOL0     C47426   0.733   6.761   7.083  0.1270 -0.7152  0.6256
  360MOL0     C47427   0.645   6.863   7.163 -0.1063  0.6704  0.3962
  360MOL0     C47428   0.708   6.872   7.297 -0.1974  0.0278 -0.0459
  360MOL0     C47429   0.858   6.930   7.289 -0.3481 -0.0695 -0.7420
  360MOL0     C47430   0.924   6.961   7.422  0.2716  0.1722  0.4237
  360MOL0     C47431   0.917   6.840   7.521 -0.4050  0.1496  0.3834
  360MOL0    Cl47432   1.002   6.697   7.451 -0.1606  0.0642 -0.3956
  360MOL0     C47433   0.679   6.864   6.608  0.4815  0.0910  0.9552
  360MOL0     C47434   0.790   6.862   6.518 -0.3876  0.3764 -0.5610
  360MOL0     O47435   1.113   6.789   6.595 -0.2477 -0.1696 -0.4439
  360MOL0     C47436   1.213   6.616   6.313  0.6365  0.4229 -1.1687
  360MOL0     C47437   1.332   6.581   6.247 -0.5354  0.5260 -0.5387
  360MOL0     N47438   2.070   6.259   6.462  1.3858 -0.4205 -0.1441
  360MOL0     N47439   2.160   6.260   6.561 -0.2622 -0.7297 -1.3174
  360MOL0     C47440   1.502   6.294   7.540  0.4811 -0.3971  0.0987
  360MOL0     C47441   1.396   6.263   7.621  0.2248  0.2800 -0.5666
  360MOL0     C47442   1.113   6.163   7.946 -0.2832  0.1415  0.6937
  360MOL0     C47443   1.116   6.237   8.067 -0.6252  0.7062  0.4482
  360MOL0     C47444   1.024   6.210   8.166 -0.1510  0.8771 -0.7584
  360MOL0     C47445   0.929   6.107   8.157 -0.0591 -0.3144  1.1122
  360MOL0     O47446   0.832   6.078   8.246 -0.2134 -0.7137  0.5420
  360MOL0     C47447   0.848   6.120   8.378 -0.0317  0.5295 -0.1830
  360MOL0     C47448   0.916   6.005   8.461  0.3056  0.3965  0.1181
  360MOL0     C47449   0.849   5.870   8.429  0.2046  0.1168 -0.8744
  360MOL0     C47450   0.702   5.856   8.468 -0.1297 -0.0180 -0.0867
  360MOL0     C47451   0.652   5.722   8.444  0.6326 -0.0661 -0.0315
  360MOL0     C47452   0.608   5.605   8.424 -0.4971 -0.6324 -0.8494
  360MOL0     C47453   0.941   6.018   8.049  0.1312 -0.3453 -0.0722
  360MOL0     C47454   1.023   6.052   7.942 -0.1487  0.3609 -1.2803
  360MOL0     H47455   1.451   6.499   7.856 -3.4404 -2.5795  1.7615
  360MOL0     H47456   1.628   6.557   7.710 -0.8500 -0.7780  2.3526
  360MOL0     H47457   1.600   6.359   7.317  0.4244 -2.6197  0.7817
  360MOL0     H47458   1.748   6.280   7.370  0.3238  0.4303 -0.6275
  360MOL0     H47459   1.705   6.534   7.229  0.1648  0.9392 -0.3914
  360MOL0     H47460   1.788   6.388   7.160 -1.4056  0.4994 -1.1893
  360MOL0     H47461   1.962   6.422   7.351 -0.2595  0.4644  1.6066
  360MOL0     H47462   1.907   6.595   7.360  2.8501  1.0017 -1.2188
  360MOL0     H47463   1.926   6.598   7.098  0.1453 -1.0414 -0.9375
  360MOL0     H47464   2.053   6.633   7.210 -0.2302  0.0192  2.0275
  360MOL0     H47465   2.027   6.342   7.110 -0.8877  0.2085 -1.1162
  360MOL0     H47466   2.175   6.428   7.161  0.3677  1.3677 -1.8782
  360MOL0     H47467   2.156   6.565   6.959  1.2820  0.0684  0.9901
  360MOL0     H47468   2.004   6.491   6.911  1.0986 -2.8502 -1.4469
  360MOL0     H47469   2.262   6.325   6.940  1.0326 -1.2161 -3.6584
  360MOL0     H47470   2.119   6.256   6.890  1.4720 -1.9347 -1.5296
  360MOL0     H47471   2.320   6.363   6.745 -0.2329 -1.7587  3.8370
  360MOL0     H47472   2.231   6.516   6.758  0.5465  0.0232  2.3493
  360MOL0     H47473   2.002   6.533   6.627 -2.5199 -0.5589 -2.5540
  360MOL0     H47474   1.909   6.402   6.283  0.2141  2.7867 -1.1513
  360MOL0     H47475   1.932   6.542   6.364  2.8415 -2.0365 -3.0238
  360MOL0     H47476   1.738   6.482   6.518 -0.2209  1.6916 -0.8132
  360MOL0     H47477   1.752   6.308   6.471 -2.2391 -0.4402  1.2964
  360MOL0     H47478   1.648   6.352   6.270  1.2958  1.3971 -1.9129
  360MOL0     H47479   1.549   6.438   6.385  1.0984 -0.1861  0.2747
  360MOL0     H47480   1.751   6.545   6.183  1.5726  1.5184  0.5430
  360MOL0     H47481   1.711   6.647   6.320  0.1905  2.2344 -2.2734
  360MOL0     H47482   1.553   6.792   6.394 -0.2844  3.7994  0.4429
  360MOL0     H47483   1.345   6.847   6.531 -1.0106  1.9762 -1.2061
  360MOL0     H47484   0.876   6.542   6.529 -2.4206 -1.0981  0.7275
  360MOL0     H47485   0.662   6.523   6.653  1.9049 -0.8713 -1.5096
  360MOL0     H47486   0.477   6.814   6.930 -0.2359 -1.4142 -1.3788
  360MOL0     H47487   0.633   6.887   6.868 -1.3356  0.5927 -0.4376
  360MOL0     H47488   0.739   6.659   6.903 -0.9079  0.1838  0.3230
  360MOL0     H47489   0.598   6.611   6.983 -3.1388  1.2259 -1.4641
  360MOL0     H47490   0.812   6.825   7.043 -1.8009 -0.4922 -3.3210
  360MOL0     H47491   0.777   6.684   7.147  0.0610 -0.2609  1.2305
  360MOL0     H47492   0.629   6.955   7.107  0.3512  0.1379 -0.6518
  360MOL0     H47493   0.545   6.821   7.172  0.2983 -0.1321  1.3684
  360MOL0     H47494   0.696   6.771   7.337 -0.8316 -0.1935 -0.7731
  360MOL0     H47495   0.655   6.944   7.360  0.1217 -0.3484  0.6610
  360MOL0     H47496   0.861   7.026   7.237  1.7125  0.3656  0.1160
  360MOL0     H47497   0.925   6.860   7.239  0.4081 -0.1771  0.4014
  360MOL0     H47498   1.030   6.983   7.408  0.3934 -0.6960 -0.0643
  360MOL0     H47499   0.881   7.052   7.464  2.0750 -0.1446  3.2648
  360MOL0     H47500   0.813   6.811   7.533 -1.5786  2.8432 -1.9825
  360MOL0     H47501   0.962   6.867   7.617 -0.7167 -0.8297  0.8179
  360MOL0     H47502   0.629   6.955   6.640  3.0156  2.6634 -1.7437
  360MOL0     H47503   0.818   6.957   6.473 -0.7879  0.8156  0.0875
  360MOL0     H47504   1.114   6.574   6.296  1.5481 -2.1262 -0.6678
  360MOL0     H47505   1.331   6.516   6.160 -2.2862 -0.4278  0.1493
  360MOL0     H47506   1.509   6.239   7.447 -1.1267  0.3574 -0.5088
  360MOL0     H47507   1.323   6.187   7.597 -2.0446  1.1675  2.7319
  360MOL0     H47508   1.191   6.315   8.083  3.3327 -2.2957 -1.6276
  360MOL0     H47509   1.015   6.282   8.247 -2.4654  1.0286 -1.0695
  360MOL0     H47510   0.754   6.148   8.426  0.8107  2.4076  0.4582
  360MOL0     H47511   0.899   6.215   8.396 -0.0050 -0.2063  5.2789
  360MOL0     H47512   1.022   6.000   8.432 -0.5644  1.2036 -3.8341
  360MOL0     H47513   0.903   6.029   8.567 -2.5085 -3.0127  0.7094
  360MOL0     H47514   0.908   5.798   8.487 -1.4504  0.2160  1.0331
  360MOL0     H47515   0.857   5.845   8.323  0.9680 -2.4449 -0.2943
  360MOL0     H47516   0.695   5.879   8.574 -1.4158 -1.8964  0.2756
  360MOL0     H47517   0.646   5.922   8.401 -2.3196 -0.4685  1.2197
  360MOL0     H47518   0.572   5.504   8.417  0.1424 -0.9326  0.0136
  360MOL0     H47519   0.868   5.938   8.044  0.2908 -0.6481  1.8119
  360MOL0     H47520   1.020   5.989   7.854 -2.4494  0.0119 -1.0206
  361MOL0     O47521   4.407   8.114   1.099 -0.4908  0.0916 -0.1730
  361MOL0     C47522   4.447   8.202   1.177  0.2485 -0.3966  0.8428
  361MOL0     O47523   4.396   8.321   1.188  0.5704  0.8932  0.4330
  361MOL0     C47524   4.337   8.362   1.079 -0.4674  0.1744 -0.6887
  361MOL0     C47525   4.389   8.473   1.017  0.5040 -0.1771  0.1311
  361MOL0     C47526   4.297   8.550   0.933  0.4644 -0.8731  0.1897
  361MOL0     C47527   4.173   8.495   0.893 -1.5131  0.2086  0.0730
  361MOL0     O47528   4.106   8.575   0.800 -0.1497  0.2998  0.7778
  361MOL0     C47529   4.056   8.499   0.687  0.2098 -1.0520 -0.1217
  361MOL0     C47530   3.905   8.474   0.697  0.0487  0.4437 -0.6785
  361MOL0     C47531   3.822   8.602   0.695  0.2721  0.0420  0.2559
  361MOL0     C47532   3.683   8.563   0.724  0.1318 -0.3969 -0.0592
  361MOL0     C47533   3.597   8.680   0.678 -0.3920  0.2663  0.2709
  361MOL0     C47534   3.463   8.624   0.660 -0.6804 -0.3244  0.4056
  361MOL0     C47535   3.364   8.730   0.637  0.2997 -0.0414 -0.1401
  361MOL0     C47536   3.220   8.666   0.654  0.0243 -0.2260  0.6144
  361MOL0     N47537   3.185   8.648   0.799 -0.0854 -0.2768  0.5252
  361MOL0     C47538   3.192   8.534   0.874 -0.1034  0.8176 -0.3294
  361MOL0     C47539   3.124   8.565   0.995  1.2250  1.2084 -0.3789
  361MOL0     C47540   3.092   8.453   1.090  0.2817 -0.2671  0.1038
  361MOL0     C47541   2.967   8.381   1.076  0.4137  0.7263  0.4777
  361MOL0     C47542   2.978   8.288   0.948 -0.0749  0.0393 -0.4815
  361MOL0     C47543   2.854   8.206   0.933  1.3352 -0.8002  0.0903
  361MOL0     O47544   2.840   8.135   0.805 -0.4715 -0.1491 -0.8804
  361MOL0     C47545   2.715   8.078   0.783 -0.1162 -0.5191  0.6537
  361MOL0     C47546   2.705   8.003   0.664  0.3449  0.2242  0.2286
  361MOL0     C47547   2.583   7.930   0.634 -0.7532 -0.0963 -0.6747
  361MOL0     C47548   2.469   7.926   0.720 -0.2837  0.3644  0.0586
  361MOL0     C47549   2.340   7.867   0.681  0.6452  0.2475 -0.3148
  361MOL0     O47550   2.324   7.826   0.553 -0.1249 -0.4295  0.0206
  361MOL0     C47551   2.201   7.804   0.495 -0.1491 -1.1214  0.5594
  361MOL0     C47552   2.185   7.673   0.436  0.2917 -1.0981 -0.4895
  361MOL0     C47553   2.061   7.632   0.378 -0.2708 -0.3988  0.2433
  361MOL0     C47554   1.950   7.718   0.369 -0.5931 -0.3874 -0.3458
  361MOL0     O47555   1.851   7.676   0.285  0.0012 -0.0840 -1.0893
  361MOL0     C47556   1.720   7.693   0.339  0.8428 -0.6004 -0.6035
  361MOL0     C47557   1.614   7.702   0.235  0.9453 -0.8132 -0.3291
  361MOL0     C47558   1.622   7.825   0.148  1.0379  0.3862  0.2306
  361MOL0     C47559   1.508   7.851   0.049 -0.9828 -0.7033  0.4895
  361MOL0     C47560   1.380   7.887   0.134  0.1611 -0.4092  0.3566
  361MOL0     C47561   1.325   8.014   0.075  0.2711 -0.7217 -1.4310
  361MOL0     C47562   1.203   8.077   0.145 -0.3651  0.3077  0.0332
  361MOL0     C47563   1.090   7.970   0.150 -0.3890  0.2885  0.5734
  361MOL0    Cl47564   1.049   7.878  -0.015 -0.3302 -0.3501  0.1901
  361MOL0     C47565   1.958   7.842   0.433 -0.1435 -0.1625  0.1417
  361MOL0     C47566   2.088   7.887   0.497  0.4744 -0.4162 -0.3620
  361MOL0     O47567   2.247   7.870   0.762  0.0326 -0.7475  0.2061
  361MOL0     C47568   2.494   8.009   0.832 -0.0632 -0.2958 -0.3363
  361MOL0     C47569   2.604   8.088   0.868  0.0359 -0.3778 -0.1878
  361MOL0     N47570   3.088   8.696   0.983  0.0336  0.3044 -1.1391
  361MOL0     N47571   3.129   8.751   0.875  0.3781 -0.0582 -0.0098
  361MOL0     C47572   4.138   8.369   0.944 -0.1962  0.3784 -0.0398
  361MOL0     C47573   4.213   8.311   1.043 -0.0351  0.3725 -0.0686
  361MOL0     C47574   4.540   8.167   1.280  0.0562  0.2745 -0.2186
  361MOL0     C47575   4.552   8.241   1.398 -0.4593  0.9309 -0.3547
  361MOL0     C47576   4.637   8.211   1.499  0.2201  0.1179  0.8515
  361MOL0     C47577   4.725   8.102   1.482 -0.0263  0.6439 -0.2277
  361MOL0     O47578   4.796   8.037   1.580 -0.1449 -0.4769  0.1405
  361MOL0     C47579   4.768   8.073   1.712  0.0098 -0.6033  0.0600
  361MOL0     C47580   4.637   8.010   1.753  0.2198 -0.3863 -0.1680
  361MOL0     C47581   4.644   8.023   1.911  0.6883 -0.3910 -0.0211
  361MOL0     C47582   4.534   7.943   1.980 -0.9919  0.4788 -0.5752
  361MOL0     C47583   4.404   7.969   1.922 -0.4755  1.3962 -0.4773
  361MOL0     C47584   4.308   8.004   1.860 -0.0435 -1.0231  0.1449
  361MOL0     C47585   4.726   8.028   1.363  0.1237  0.3901  1.1688
  361MOL0     C47586   4.633   8.057   1.263 -0.1428  0.5058  0.6587
  361MOL0     H47587   4.491   8.500   1.040 -0.0052  0.7752  1.3973
  361MOL0     H47588   4.333   8.649   0.907  0.7988 -0.7534  1.0722
  361MOL0     H47589   4.115   8.408   0.675  1.6993 -0.3505  1.3526
  361MOL0     H47590   4.076   8.562   0.600  0.2617  0.3920  0.8885
  361MOL0     H47591   3.883   8.425   0.792  2.4804 -3.4657 -1.9169
  361MOL0     H47592   3.884   8.407   0.613  1.3389 -1.5256  0.4945
  361MOL0     H47593   3.821   8.648   0.596 -1.0116 -0.6549 -0.0714
  361MOL0     H47594   3.852   8.683   0.763 -2.9441 -0.5444  2.6355
  361MOL0     H47595   3.673   8.467   0.671  0.9044 -0.7413  0.4004
  361MOL0     H47596   3.664   8.553   0.831  0.8511  1.6599  0.3016
  361MOL0     H47597   3.619   8.718   0.578  2.1037 -0.6001  0.4271
  361MOL0     H47598   3.596   8.758   0.755  1.7282  1.2438 -0.6208
  361MOL0     H47599   3.441   8.556   0.742  2.6248 -1.6158  0.4029
  361MOL0     H47600   3.466   8.562   0.569  1.4868 -0.2000  0.3363
  361MOL0     H47601   3.377   8.807   0.713  1.0357  0.6533 -0.9633
  361MOL0     H47602   3.366   8.759   0.531  4.3161 -1.7000 -0.6739
  361MOL0     H47603   3.223   8.568   0.605 -2.3450  0.6074 -1.4501
  361MOL0     H47604   3.143   8.728   0.607 -2.6866 -3.2287  0.7979
  361MOL0     H47605   3.239   8.444   0.836 -1.9541  0.5596 -2.2323
  361MOL0     H47606   3.093   8.503   1.187 -1.5426  0.8032 -0.3690
  361MOL0     H47607   3.168   8.375   1.095 -1.1687 -1.8528 -1.3846
  361MOL0     H47608   2.889   8.455   1.060  0.6677  0.5825 -1.8760
  361MOL0     H47609   2.942   8.322   1.165  0.1329 -0.4494 -0.3389
  361MOL0     H47610   3.005   8.347   0.860  3.4007 -0.8674 -0.1637
  361MOL0     H47611   3.068   8.228   0.965  0.0268  0.8233  2.1550
  361MOL0     H47612   2.767   8.271   0.936  1.1906 -0.9895  0.0098
  361MOL0     H47613   2.849   8.131   1.012  1.3925 -2.4675 -1.4050
  361MOL0     H47614   2.786   8.007   0.592  0.0629 -1.6673 -0.2431
  361MOL0     H47615   2.574   7.879   0.538 -0.0757  0.7084 -1.1774
  361MOL0     H47616   2.265   7.600   0.438  1.0748 -0.2605 -0.2490
  361MOL0     H47617   2.046   7.533   0.337 -0.8319  0.1569 -0.9457
  361MOL0     H47618   1.704   7.787   0.391  0.0823  0.6795 -3.0029
  361MOL0     H47619   1.697   7.603   0.397 -0.2227  1.1083  1.7580
  361MOL0     H47620   1.520   7.698   0.290  0.1746 -3.3268 -1.6634
  361MOL0     H47621   1.623   7.618   0.165  0.5795 -0.7704 -0.4273
  361MOL0     H47622   1.709   7.803   0.085  0.5434 -0.6651 -0.1076
  361MOL0     H47623   1.629   7.915   0.209  1.7935  1.4378 -1.3441
  361MOL0     H47624   1.541   7.931  -0.017 -1.1573 -1.1439 -0.1378
  361MOL0     H47625   1.476   7.774  -0.022  0.5260 -1.1634  0.2685
  361MOL0     H47626   1.402   7.910   0.239  3.0528  0.4954 -0.3660
  361MOL0     H47627   1.307   7.806   0.125  1.9274 -2.1524  1.1475
  361MOL0     H47628   1.290   8.001  -0.027 -2.9066 -0.7073 -0.4408
  361MOL0     H47629   1.399   8.095   0.068 -0.5415  0.1003 -0.8209
  361MOL0     H47630   1.219   8.128   0.240 -2.9651  1.1937  0.0912
  361MOL0     H47631   1.171   8.159   0.081  2.5481 -0.7776 -3.1333
  361MOL0     H47632   0.995   8.019   0.175 -0.6384  0.3506 -0.4816
  361MOL0     H47633   1.101   7.888   0.222 -1.2716 -1.0676 -0.7877
  361MOL0     H47634   1.883   7.921   0.434  2.2547  2.2750 -0.6683
  361MOL0     H47635   2.087   7.989   0.535 -1.2433  0.0458 -1.5251
  361MOL0     H47636   2.408   8.011   0.898  2.5046 -2.6891  3.4919
  361MOL0     H47637   2.605   8.144   0.961 -1.6835  2.1540 -1.5981
  361MOL0     H47638   4.039   8.327   0.928 -1.8055  3.4211  1.0357
  361MOL0     H47639   4.175   8.218   1.086 -2.9907  1.1181 -0.7936
  361MOL0     H47640   4.488   8.327   1.415 -1.3078  0.8054 -2.6365
  361MOL0     H47641   4.624   8.282   1.580  0.9709  0.2631  0.8471
  361MOL0     H47642   4.759   8.181   1.726  2.7738 -0.6449  3.4967
  361MOL0     H47643   4.852   8.050   1.779  0.3955  2.2665  0.6776
  361MOL0     H47644   4.557   8.060   1.698  2.4952  0.8802 -2.5457
  361MOL0     H47645   4.640   7.904   1.728 -0.1298 -1.2860  3.0395
  361MOL0     H47646   4.640   8.131   1.931  0.9369  0.2769 -3.0479
  361MOL0     H47647   4.737   7.989   1.956  0.0384 -0.4041  1.3730
  361MOL0     H47648   4.574   7.842   1.991  1.2835  1.5696  3.7040
  361MOL0     H47649   4.530   7.980   2.083 -0.9359 -0.5374 -0.1915
  361MOL0     H47650   4.220   8.036   1.808  2.3685 -0.1110 -3.8285
  361MOL0     H47651   4.807   7.958   1.350 -0.3955  0.0866 -0.8201
  361MOL0     H47652   4.646   8.000   1.172  0.4423 -0.9068  1.5952
  362MOL0     O47653   7.386   0.986   7.372  0.2196 -0.2942 -0.2706
  362MOL0     C47654   7.445   0.904   7.293  0.6800 -1.0531 -0.2248
  362MOL0     O47655   7.419   0.769   7.290  0.3266  0.4303 -0.3627
  362MOL0     C47656   7.304   0.722   7.349  0.9283 -0.0715 -0.0345
  362MOL0     C47657   7.302   0.701   7.491  0.3126 -0.7998  0.3575
  362MOL0     C47658   7.183   0.654   7.543  0.0844 -0.4461 -0.1165
  362MOL0     C47659   7.063   0.645   7.475  0.1029  0.4517  0.2589
  362MOL0     O47660   6.941   0.617   7.537 -0.7536  0.1180  0.2186
  362MOL0     C47661   6.827   0.605   7.441  0.0685 -0.4925 -0.1716
  362MOL0     C47662   6.702   0.581   7.522 -0.5857  0.3825  0.7197
  362MOL0     C47663   6.579   0.572   7.438  0.9801 -0.4851  0.0744
  362MOL0     C47664   6.454   0.566   7.520  0.6673 -0.9825  0.5246
  362MOL0     C47665   6.450   0.467   7.635  0.3963  0.5222 -0.1090
  362MOL0     C47666   6.304   0.443   7.685 -0.1406  0.1146  0.1447
  362MOL0     C47667   6.224   0.351   7.586  0.0268 -0.9207 -0.2198
  362MOL0     C47668   6.073   0.361   7.624  0.3165  0.1015  1.3768
  362MOL0     N47669   6.043   0.288   7.745  0.4689  0.4238  0.1210
  362MOL0     C47670   6.004   0.345   7.865  0.3690 -0.9812 -0.6011
  362MOL0     C47671   5.993   0.238   7.942  0.3989 -0.4093 -0.5483
  362MOL0     C47672   5.943   0.243   8.086  0.4343  0.0801 -0.4581
  362MOL0     C47673   5.790   0.243   8.097  1.1979 -0.4358  0.4419
  362MOL0     C47674   5.743   0.263   8.245  0.9252  0.4982 -0.0706
  362MOL0     C47675   5.594   0.250   8.270 -0.2694 -0.3962  0.6224
  362MOL0     O47676   5.531   0.349   8.198 -0.1178 -0.8661  0.4540
  362MOL0     C47677   5.413   0.327   8.141  0.6498  0.5615  0.0143
  362MOL0     C47678   5.383   0.376   8.016 -0.6949 -0.1700 -0.0302
  362MOL0     C47679   5.259   0.351   7.963 -0.2085 -0.4575 -0.4381
  362MOL0     C47680   5.159   0.299   8.041 -0.8952  0.3280 -0.4786
  362MOL0     C47681   5.027   0.278   7.978 -0.6220 -0.4025 -0.9407
  362MOL0     O47682   4.933   0.196   8.044 -0.6526  0.3460 -0.0744
  362MOL0     C47683   4.806   0.204   8.000  0.8640 -0.3600 -0.1115
  362MOL0     C47684   4.725   0.316   8.017 -0.1960 -0.2364  0.4950
  362MOL0     C47685   4.583   0.308   8.009  0.5150  0.1152 -0.1531
  362MOL0     C47686   4.514   0.189   7.981  0.2245 -0.1751 -0.1010
  362MOL0     O47687   4.374   0.188   7.990  0.5192 -0.3051 -0.7342
  362MOL0     C47688   4.330   0.146   8.114  0.0567 -0.0908  0.2122
  362MOL0     C47689   4.178   0.124   8.111  0.2452 -0.6338  0.6644
  362MOL0     C47690   4.094   0.252   8.104  1.0424 -0.6349 -0.4864
  362MOL0     C47691   3.944   0.212   8.107  0.3804  0.0606 -0.1169
  362MOL0     C47692   3.882   0.297   8.210  0.2855  0.6608  0.2226
  362MOL0     C47693   3.730   0.277   8.221  0.1666 -0.3266 -0.5741
  362MOL0     C47694   3.673   0.363   8.334  0.5260 -0.5404  0.5126
  362MOL0     C47695   3.519   0.370   8.328  0.0715  0.1011  0.0275
  362MOL0    Cl47696   3.476   0.213   8.400 -0.2283 -0.8844 -0.0303
  362MOL0     C47697   4.594   0.077   7.943 -0.1788 -0.0333  0.1570
  362MOL0     C47698   4.737   0.082   7.944  0.4786 -1.1352 -0.0360
  362MOL0     O47699   5.006   0.347   7.885  0.3021 -0.9862 -0.1797
  362MOL0     C47700   5.188   0.243   8.164 -0.1922 -0.0280  0.2487
  362MOL0     C47701   5.318   0.257   8.217  0.5537  0.3943  0.0189
  362MOL0     N47702   6.017   0.126   7.861  0.0313  1.2081 -1.2680
  362MOL0     N47703   6.055   0.158   7.748 -0.2773 -0.1100  0.6492
  362MOL0     C47704   7.070   0.670   7.336  0.1497  0.2571  0.6912
  362MOL0     C47705   7.187   0.703   7.274 -0.2714 -0.0390  0.2804
  362MOL0     C47706   7.557   0.946   7.214 -0.4542  0.4600  1.2841
  362MOL0     C47707   7.601   0.869   7.101 -0.3788 -0.9745  0.2576
  362MOL0     C47708   7.720   0.901   7.042 -0.9788  0.5240 -0.0152
  362MOL0     C47709   7.795   1.012   7.079 -0.1503 -0.6628 -0.1986
  362MOL0     O47710   7.908   1.034   7.008  0.3464 -0.3317  0.7593
  362MOL0     C47711   7.969   1.159   7.032 -0.1383 -0.6584 -0.0576
  362MOL0     C47712   8.085   1.168   6.932  0.1770 -0.2628 -0.3095
  362MOL0     C47713   8.178   1.284   6.958 -0.9705 -0.4380 -0.0892
  362MOL0     C47714   8.223   1.363   6.831 -0.4884  0.6306  0.3027
  362MOL0     C47715   8.280   1.487   6.877 -0.1150 -0.1132  0.7812
  362MOL0     C47716   8.334   1.588   6.932  1.0880  0.2168  0.1585
  362MOL0     C47717   7.740   1.099   7.176 -0.6916  0.7229  0.4432
  362MOL0     C47718   7.631   1.062   7.245  0.2447 -0.2117 -0.5720
  362MOL0     H47719   7.396   0.712   7.544  1.4824 -0.6782 -1.6608
  362MOL0     H47720   7.184   0.639   7.651  0.6339 -2.4058 -0.3494
  362MOL0     H47721   6.845   0.528   7.366 -0.4361 -1.6923  0.8987
  362MOL0     H47722   6.809   0.696   7.382 -4.9632 -0.8303  0.4718
  362MOL0     H47723   6.696   0.660   7.597 -1.1592  1.0336  0.0085
  362MOL0     H47724   6.713   0.484   7.570 -1.2260 -1.8894 -3.2612
  362MOL0     H47725   6.582   0.481   7.377  4.8663 -3.2377  3.7418
  362MOL0     H47726   6.580   0.654   7.367  3.8904 -1.4279 -1.1011
  362MOL0     H47727   6.436   0.665   7.563  0.6929 -1.7089  2.2823
  362MOL0     H47728   6.363   0.547   7.462 -0.2781  1.0454  1.2436
  362MOL0     H47729   6.515   0.495   7.719  0.6994 -1.6288  0.4457
  362MOL0     H47730   6.482   0.369   7.596 -1.7381 -1.2386  2.1879
  362MOL0     H47731   6.263   0.543   7.700  2.5436  1.0064  2.7615
  362MOL0     H47732   6.308   0.394   7.783  1.7029 -1.6012 -0.7187
  362MOL0     H47733   6.233   0.388   7.483  0.3895  0.8660  0.4254
  362MOL0     H47734   6.264   0.250   7.595  0.1575 -0.7655  1.0478
  362MOL0     H47735   6.017   0.320   7.540  0.1689 -2.2302  2.5430
  362MOL0     H47736   6.054   0.466   7.648 -1.5064 -0.0366  0.6697
  362MOL0     H47737   5.990   0.452   7.879  4.7344 -0.0716 -1.4272
  362MOL0     H47738   5.987   0.321   8.148 -0.9025 -1.8000  3.1546
  362MOL0     H47739   5.971   0.145   8.127 -0.9002 -0.8375 -1.6570
  362MOL0     H47740   5.744   0.153   8.053 -2.3568  0.2507  2.3313
  362MOL0     H47741   5.751   0.324   8.035 -2.8019 -3.1169 -1.0390
  362MOL0     H47742   5.795   0.190   8.307 -0.9620 -0.4421  0.5047
  362MOL0     H47743   5.768   0.361   8.285  0.9704 -0.0120  1.2003
  362MOL0     H47744   5.575   0.253   8.377  3.4635  0.2843  1.4041
  362MOL0     H47745   5.549   0.156   8.236  2.3050 -1.7176  0.5799
  362MOL0     H47746   5.459   0.436   7.967  0.7075 -1.8877 -0.0537
  362MOL0     H47747   5.239   0.394   7.865  2.0982  1.5578 -0.1389
  362MOL0     H47748   4.771   0.407   8.053 -0.3146 -0.9646  2.6494
  362MOL0     H47749   4.528   0.401   8.026  1.5712  0.8084 -0.4095
  362MOL0     H47750   4.353   0.225   8.186  1.5403  1.9622 -2.3227
  362MOL0     H47751   4.370   0.052   8.152 -0.5996 -0.3848  0.1745
  362MOL0     H47752   4.152   0.063   8.198 -0.1335  0.0470  1.0321
  362MOL0     H47753   4.155   0.069   8.019 -0.2400  1.7290 -0.7090
  362MOL0     H47754   4.118   0.295   8.006  1.8886 -1.1321 -0.5062
  362MOL0     H47755   4.123   0.319   8.185 -1.6831  2.1445 -1.5890
  362MOL0     H47756   3.901   0.237   8.010  1.3263 -0.7029 -0.7437
  362MOL0     H47757   3.927   0.106   8.129 -0.3650  0.2166  0.1093
  362MOL0     H47758   3.899   0.403   8.186 -1.2285  0.9268  0.2522
  362MOL0     H47759   3.924   0.278   8.309  1.8102  0.7826 -0.3760
  362MOL0     H47760   3.699   0.178   8.256  0.6093 -0.9210 -1.8062
  362MOL0     H47761   3.677   0.294   8.126 -2.3588  2.0933  1.0922
  362MOL0     H47762   3.709   0.318   8.427  0.4902 -0.8074  0.4019
  362MOL0     H47763   3.730   0.455   8.330 -0.6698  0.2918 -4.2971
  362MOL0     H47764   3.487   0.380   8.223  1.8582  1.5333 -0.4413
  362MOL0     H47765   3.480   0.451   8.390  1.5852  0.6793  0.2697
  362MOL0     H47766   4.540  -0.014   7.917  1.4816 -1.3026  0.9321
  362MOL0     H47767   4.792  -0.007   7.916  0.8177 -1.5365  1.7503
  362MOL0     H47768   5.118   0.177   8.213  0.8986 -0.5057  1.2387
  362MOL0     H47769   5.332   0.226   8.320  1.6841  0.8894  0.0310
  362MOL0     H47770   6.991   0.656   7.263 -0.3034 -3.5672  1.6574
  362MOL0     H47771   7.179   0.732   7.170  1.4626  0.3279  0.2103
  362MOL0     H47772   7.540   0.781   7.083  1.3334 -2.0070 -0.7840
  362MOL0     H47773   7.766   0.835   6.969  0.5870 -0.2760  1.6109
  362MOL0     H47774   8.014   1.165   7.131 -0.7510  1.5547  0.1287
  362MOL0     H47775   7.891   1.234   7.021 -0.2091 -0.9260 -1.6557
  362MOL0     H47776   8.142   1.076   6.915 -0.2483 -0.9655  1.7268
  362MOL0     H47777   8.051   1.183   6.829  3.1757  1.0970 -1.2068
  362MOL0     H47778   8.266   1.256   7.017  0.0355  3.3267  0.4229
  362MOL0     H47779   8.117   1.355   7.014 -2.7003  0.4989 -2.9431
  362MOL0     H47780   8.290   1.309   6.763 -2.1119 -1.7549  0.4663
  362MOL0     H47781   8.132   1.380   6.772 -0.3622 -1.1211 -0.4742
  362MOL0     H47782   8.396   1.658   6.984  1.7121 -0.8121  0.8395
  362MOL0     H47783   7.769   1.198   7.210 -2.1782  0.5052  2.5853
  362MOL0     H47784   7.592   1.124   7.325  0.5362  0.8701 -1.2574
  363MOL0     O47785   1.675   7.010   0.557  0.9775 -0.1301  0.5390
  363MOL0     C47786   1.760   7.017   0.648  0.2451 -0.4033  0.3877
  363MOL0     O47787   1.738   7.049   0.781 -0.0888  0.7857 -0.2361
  363MOL0     C47788   1.612   7.041   0.835 -0.3604 -0.9649  1.3982
  363MOL0     C47789   1.500   7.097   0.763 -1.0255  1.0448 -0.1378
  363MOL0     C47790   1.378   7.067   0.815 -0.3341  0.2582 -0.5418
  363MOL0     C47791   1.362   6.984   0.926 -0.0866  0.2805 -1.1302
  363MOL0     O47792   1.230   6.954   0.974 -0.4653 -0.4475 -0.6652
  363MOL0     C47793   1.210   6.840   1.055 -0.2309  0.0553 -0.2745
  363MOL0     C47794   1.061   6.794   1.068  0.4081  0.8150  0.1886
  363MOL0     C47795   1.018   6.732   1.190 -0.7761  0.1785 -0.3780
  363MOL0     C47796   0.876   6.694   1.179  0.0537  0.9447  0.0330
  363MOL0     C47797   0.820   6.622   1.298  0.7278 -1.0924  0.6747
  363MOL0     C47798   0.672   6.604   1.297 -0.0300  0.5242 -0.0019
  363MOL0     C47799   0.594   6.507   1.213  0.6738  0.1376 -0.1713
  363MOL0     C47800   0.527   6.575   1.099  0.7566 -0.5245 -0.0524
  363MOL0     N47801   0.458   6.466   1.033 -0.3546 -0.1709  0.0191
  363MOL0     C47802   0.519   6.368   0.958  0.0830  0.2313  0.6961
  363MOL0     C47803   0.414   6.280   0.954  0.1807 -0.9223 -0.1331
  363MOL0     C47804   0.435   6.148   0.887  0.3478  0.9081 -0.0765
  363MOL0     C47805   0.498   6.048   0.981 -0.2808  0.4107 -0.1756
  363MOL0     C47806   0.418   6.006   1.106  0.2782  0.0017  0.1721
  363MOL0     C47807   0.272   5.960   1.076  1.0762  0.5852  0.3786
  363MOL0     O47808   0.220   5.879   1.183  0.3587  0.9145  0.9447
  363MOL0     C47809   0.093   5.821   1.164  0.5623  1.1797  0.1067
  363MOL0     C47810   0.068   5.709   1.249 -0.0513 -0.9961  0.2777
  363MOL0     C47811  -0.054   5.652   1.247  0.2623  0.6666  0.5468
  363MOL0     C47812  -0.155   5.689   1.150 -0.1024 -1.0499 -0.7802
  363MOL0     C47813  -0.287   5.632   1.177  0.2374 -0.7152  0.7974
  363MOL0     O47814  -0.282   5.491   1.173 -0.0695 -0.4600  0.5152
  363MOL0     C47815  -0.411   5.449   1.195  0.2945  0.0521 -0.7223
  363MOL0     C47816  -0.469   5.365   1.091  0.1128  0.1654 -0.6851
  363MOL0     C47817  -0.606   5.319   1.106  0.9926 -1.2060  0.7082
  363MOL0     C47818  -0.676   5.333   1.228 -0.1785 -0.3735 -0.4402
  363MOL0     O47819  -0.796   5.284   1.246 -0.2727  0.0222  0.3911
  363MOL0     C47820  -0.845   5.182   1.160 -0.6728 -0.7601 -0.0502
  363MOL0     C47821  -0.972   5.110   1.220 -0.1982 -0.3322 -0.6880
  363MOL0     C47822  -0.945   5.087   1.369  0.3878 -0.1403  0.6387
  363MOL0     C47823  -0.834   4.991   1.408 -0.5044  1.0893  0.1091
  363MOL0     C47824  -0.838   4.960   1.556  0.2564 -0.2641 -0.5706
  363MOL0     C47825  -0.753   4.840   1.606  1.4873  0.2656  1.0606
  363MOL0     C47826  -0.831   4.716   1.598  0.1849 -0.3837 -0.6950
  363MOL0     C47827  -0.732   4.594   1.624 -0.8016 -0.0917  0.6426
  363MOL0    Cl47828  -0.672   4.588   1.798 -0.1388 -0.7123  0.6767
  363MOL0     C47829  -0.617   5.402   1.332 -0.7689  0.2814 -0.1401
  363MOL0     C47830  -0.483   5.451   1.315 -0.0581 -0.1399  0.9145
  363MOL0     O47831  -0.387   5.707   1.178 -1.1347  0.0567  0.2456
  363MOL0     C47832  -0.136   5.803   1.069 -0.3253 -0.2867 -0.1038
  363MOL0     C47833  -0.010   5.869   1.085  0.5895 -0.3568  0.2028
  363MOL0     N47834   0.299   6.330   1.029  0.4156 -0.3388  0.2671
  363MOL0     N47835   0.324   6.447   1.071 -0.2259 -0.1121  0.0906
  363MOL0     C47836   1.472   6.934   1.005  0.6704 -0.8419  0.8032
  363MOL0     C47837   1.595   6.972   0.954 -0.7499  0.0771 -0.6336
  363MOL0     C47838   1.902   6.994   0.600 -0.1693  0.2989 -0.6018
  363MOL0     C47839   1.934   6.955   0.471  1.1790 -0.4439 -0.5125
  363MOL0     C47840   2.065   6.932   0.423  0.5212  0.3164 -0.4713
  363MOL0     C47841   2.172   6.950   0.513  0.0546 -0.1717 -0.0268
  363MOL0     O47842   2.303   6.922   0.465  0.5973  0.6869 -0.2347
  363MOL0     C47843   2.411   6.956   0.555 -0.4051 -0.1130  0.2494
  363MOL0     C47844   2.543   6.955   0.489  0.0052 -0.0338 -1.2081
  363MOL0     C47845   2.646   7.001   0.594 -0.3482 -0.0789 -0.0566
  363MOL0     C47846   2.783   7.021   0.525  0.7562 -0.2464 -0.2416
  363MOL0     C47847   2.863   7.103   0.614 -0.2993  0.0595 -0.0483
  363MOL0     C47848   2.946   7.155   0.680  0.1232  0.0541  0.3128
  363MOL0     C47849   2.150   6.981   0.640  0.1019 -0.6309 -0.9601
  363MOL0     C47850   2.014   7.005   0.689 -0.4371 -0.4249 -0.7545
  363MOL0     H47851   1.499   7.153   0.670 -0.4052 -0.3893 -1.0298
  363MOL0     H47852   1.281   7.091   0.773 -1.4755 -0.4156  1.6018
  363MOL0     H47853   1.253   6.860   1.154 -0.9773  2.9605 -0.4532
  363MOL0     H47854   1.271   6.756   1.021  0.3791  1.0869 -1.8135
  363MOL0     H47855   1.026   6.737   0.982 -0.1638 -0.1796  1.0641
  363MOL0     H47856   1.020   6.896   1.071  3.8372  2.3161  0.7646
  363MOL0     H47857   1.020   6.797   1.277 -0.6240 -5.1808  4.2322
  363MOL0     H47858   1.084   6.648   1.216 -1.5248  0.2592  1.9253
  363MOL0     H47859   0.825   6.784   1.144 -0.5455  0.2725 -0.8592
  363MOL0     H47860   0.857   6.621   1.100 -1.9407  2.8039 -1.3422
  363MOL0     H47861   0.852   6.673   1.390 -0.1516  3.6205 -1.3525
  363MOL0     H47862   0.870   6.525   1.301  0.8811 -1.1437 -1.9570
  363MOL0     H47863   0.635   6.706   1.283 -1.9515  0.0038  0.9789
  363MOL0     H47864   0.650   6.575   1.400 -1.5339 -1.6478 -0.8626
  363MOL0     H47865   0.664   6.431   1.177  0.5050  0.2116 -0.6658
  363MOL0     H47866   0.516   6.468   1.278  1.5638  1.7288  1.9952
  363MOL0     H47867   0.596   6.633   1.037  2.2566  2.0569  3.6765
  363MOL0     H47868   0.453   6.642   1.143  0.2761 -0.3790 -1.0627
  363MOL0     H47869   0.620   6.347   0.924 -0.1854  1.0596 -0.7009
  363MOL0     H47870   0.494   6.156   0.795 -0.8053 -0.7700 -1.0348
  363MOL0     H47871   0.337   6.105   0.860  0.0065 -0.6640  3.2134
  363MOL0     H47872   0.598   6.075   1.014 -0.0882  0.5427 -0.8505
  363MOL0     H47873   0.515   5.954   0.928 -0.6988 -0.4760  1.2120
  363MOL0     H47874   0.472   5.927   1.157  2.1862  2.2038  1.7793
  363MOL0     H47875   0.414   6.087   1.180 -0.3996 -0.9771  1.2324
  363MOL0     H47876   0.278   5.905   0.982 -3.3994  3.3224 -1.8501
  363MOL0     H47877   0.209   6.049   1.064  1.8526  1.6906  3.4862
  363MOL0     H47878   0.143   5.697   1.326 -2.4528  0.9863  3.1843
  363MOL0     H47879  -0.087   5.580   1.321 -3.2477  0.6745 -0.7746
  363MOL0     H47880  -0.408   5.343   1.004  0.0516  0.8879 -0.9152
  363MOL0     H47881  -0.647   5.273   1.017  0.1008  1.7840 -0.5361
  363MOL0     H47882  -0.769   5.104   1.152 -2.4660 -2.5879  0.1541
  363MOL0     H47883  -0.871   5.224   1.062  3.2581 -1.5935 -1.6409
  363MOL0     H47884  -1.004   5.019   1.169  0.5353 -0.2515 -1.3281
  363MOL0     H47885  -1.059   5.176   1.213 -1.5844 -2.0443 -0.1927
  363MOL0     H47886  -1.040   5.047   1.406 -0.2492  1.4640  0.8450
  363MOL0     H47887  -0.934   5.182   1.423  0.7388  0.2842 -0.1712
  363MOL0     H47888  -0.862   4.901   1.353  2.9423 -1.7964  2.5878
  363MOL0     H47889  -0.736   5.029   1.377  0.3966 -0.2852  1.1490
  363MOL0     H47890  -0.941   4.945   1.590  0.0533  0.6525 -0.7566
  363MOL0     H47891  -0.807   5.055   1.601  1.2723 -1.7935  2.2410
  363MOL0     H47892  -0.732   4.859   1.712 -1.1962 -0.2148  1.7592
  363MOL0     H47893  -0.662   4.833   1.546  0.3564  1.9311 -0.9892
  363MOL0     H47894  -0.917   4.698   1.663  0.5695  1.5614  0.4208
  363MOL0     H47895  -0.868   4.707   1.496 -0.0830  1.8993 -0.8403
  363MOL0     H47896  -0.642   4.604   1.562  0.3486 -2.0229  1.9127
  363MOL0     H47897  -0.775   4.497   1.596  1.1424 -1.0837  0.9374
  363MOL0     H47898  -0.658   5.422   1.430  1.8637  0.7621  0.9439
  363MOL0     H47899  -0.431   5.501   1.396  0.5160 -0.9759  1.0669
  363MOL0     H47900  -0.216   5.842   1.007  0.6194 -2.0838 -2.6048
  363MOL0     H47901   0.021   5.962   1.038 -0.1202 -0.5766 -0.7293
  363MOL0     H47902   1.476   6.875   1.096  1.1792 -0.1737  1.2252
  363MOL0     H47903   1.684   6.956   1.014 -0.8491 -0.6754 -0.6795
  363MOL0     H47904   1.857   6.940   0.396  0.8379  0.0503 -0.2742
  363MOL0     H47905   2.069   6.905   0.318  0.6711  0.7169 -0.5696
  363MOL0     H47906   2.421   6.877   0.629  3.2529 -1.1141 -1.0995
  363MOL0     H47907   2.400   7.050   0.610 -0.9594  0.7185 -1.2001
  363MOL0     H47908   2.583   6.855   0.467 -2.3610 -1.0395 -1.2913
  363MOL0     H47909   2.546   7.018   0.400 -0.0831  0.7599 -0.6592
  363MOL0     H47910   2.659   6.932   0.678  0.1756 -0.2068 -0.2405
  363MOL0     H47911   2.622   7.094   0.646  2.2980 -0.9190  2.9394
  363MOL0     H47912   2.836   6.930   0.495  0.9944  0.0683 -0.7905
  363MOL0     H47913   2.779   7.084   0.435 -0.6319 -1.1527 -0.8450
  363MOL0     H47914   3.021   7.193   0.746 -0.2010 -0.7072  1.1256
  363MOL0     H47915   2.221   6.986   0.721 -0.9132 -1.4029  0.0196
  363MOL0     H47916   1.999   7.033   0.792 -1.9837 -1.2916 -0.7164
  364MOL0     O47917   3.896   1.760   8.655  0.3457  0.1852  0.9619
  364MOL0     C47918   3.945   1.752   8.540 -0.2071  1.0768 -0.0344
  364MOL0     O47919   4.075   1.714   8.507 -0.1308 -0.6698  0.7798
  364MOL0     C47920   4.172   1.660   8.589  0.9952 -0.2243 -0.7973
  364MOL0     C47921   4.143   1.568   8.689  0.4167 -0.4367 -0.0255
  364MOL0     C47922   4.248   1.526   8.768 -0.8321  0.2119  0.0394
  364MOL0     C47923   4.379   1.570   8.736 -0.5007  0.2094 -0.3907
  364MOL0     O47924   4.483   1.481   8.767 -0.3077  1.0867 -0.4638
  364MOL0     C47925   4.445   1.335   8.764 -0.1064  0.3276 -0.5238
  364MOL0     C47926   4.558   1.237   8.794 -0.0088 -0.2737 -0.0577
  364MOL0     C47927   4.527   1.092   8.758 -0.8135  1.1057  0.8101
  364MOL0     C47928   4.409   1.030   8.825  0.3691 -0.3313 -0.4928
  364MOL0     C47929   4.403   0.888   8.859  0.7455 -0.2724  0.0928
  364MOL0     C47930   4.258   0.852   8.901  0.0494 -0.2525  0.6304
  364MOL0     C47931   4.221   0.703   8.909  0.5249 -0.0133 -0.2683
  364MOL0     C47932   4.299   0.621   9.015  0.4599 -0.0471 -0.6396
  364MOL0     N47933   4.244   0.668   9.154  0.2740  0.5067  0.8296
  364MOL0     C47934   4.115   0.659   9.193  0.1964  0.6939 -0.3340
  364MOL0     C47935   4.109   0.747   9.299 -0.8593  0.2379 -0.2388
  364MOL0     C47936   3.982   0.785   9.369  0.3789 -0.1404  0.0142
  364MOL0     C47937   3.912   0.661   9.429 -0.4634  0.2084 -0.3883
  364MOL0     C47938   3.799   0.715   9.520  0.0554  0.9326 -0.2767
  364MOL0     C47939   3.696   0.619   9.576 -0.5878  0.1335 -0.3860
  364MOL0     O47940   3.759   0.513   9.652  0.1961 -0.4846  0.6084
  364MOL0     C47941   3.661   0.456   9.740  0.0075  1.0501  0.2510
  364MOL0     C47942   3.709   0.406   9.868 -1.1316  0.3024  0.8252
  364MOL0     C47943   3.629   0.335   9.962  0.6170 -0.3323 -0.8748
  364MOL0     C47944   3.496   0.316   9.926  0.6272  0.2196  0.3575
  364MOL0     C47945   3.404   0.242  10.014 -0.5670 -0.1689 -0.7088
  364MOL0     O47946   3.285   0.195   9.955 -0.0591 -0.3011  0.1892
  364MOL0     C47947   3.187   0.141  10.039 -0.1787 -0.3006  0.1438
  364MOL0     C47948   3.090   0.214  10.094 -0.2221 -0.7184 -0.5724
  364MOL0     C47949   2.987   0.171  10.171  0.5494  0.0710 -0.4530
  364MOL0     C47950   2.965   0.033  10.175 -0.3353 -0.5734 -0.4700
  364MOL0     O47951   2.866  -0.028  10.259  0.4934  0.0407  0.0119
  364MOL0     C47952   2.856   0.022  10.393  0.1673  0.2747  0.4876
  364MOL0     C47953   2.714   0.008  10.450  0.6208 -0.3598  0.9276
  364MOL0     C47954   2.610   0.084  10.363 -0.1575 -0.1305  0.2056
  364MOL0     C47955   2.487   0.087  10.452  0.3350 -0.1944 -0.0128
  364MOL0     C47956   2.374   0.172  10.406 -0.3086 -0.6459  0.3551
  364MOL0     C47957   2.313   0.114  10.271 -0.3729  0.1653 -0.0200
  364MOL0     C47958   2.230   0.221  10.202  0.5825 -1.3465 -0.8183
  364MOL0     C47959   2.169   0.182  10.059 -1.6443  0.8611  0.1675
  364MOL0    Cl47960   2.293   0.093   9.965 -0.2932  0.4973 -0.2457
  364MOL0     C47961   3.066  -0.053  10.120 -0.3174  0.9912  0.1219
  364MOL0     C47962   3.176   0.002  10.049 -0.4428 -0.6923 -0.2555
  364MOL0     O47963   3.439   0.213  10.127 -0.1416 -0.2947 -0.2944
  364MOL0     C47964   3.446   0.370   9.809  0.3578 -0.4535  0.4354
  364MOL0     C47965   3.526   0.429   9.719 -0.1058 -0.2172 -0.6009
  364MOL0     N47966   4.238   0.789   9.329 -0.6275  0.3688  0.1948
  364MOL0     N47967   4.315   0.746   9.235 -0.0879 -0.1448  0.6216
  364MOL0     C47968   4.405   1.665   8.638  0.4257  0.1769 -0.4156
  364MOL0     C47969   4.298   1.707   8.561 -0.1472  0.0482 -0.1395
  364MOL0     C47970   3.860   1.766   8.426  0.4425 -0.5750  0.1836
  364MOL0     C47971   3.726   1.807   8.441  0.5175 -0.3191  0.5954
  364MOL0     C47972   3.649   1.834   8.329  0.3025  0.5696 -0.0077
  364MOL0     C47973   3.687   1.826   8.197 -0.1871  0.3747 -0.5623
  364MOL0     O47974   3.580   1.851   8.103 -0.2501  0.5724  0.5634
  364MOL0     C47975   3.613   1.831   7.960 -0.7811 -0.0276 -0.0045
  364MOL0     C47976   3.533   1.930   7.881  0.0881  0.1457 -1.1659
  364MOL0     C47977   3.381   1.900   7.890  0.3252  0.3367 -0.5962
  364MOL0     C47978   3.295   2.012   7.828 -0.7455 -0.2272 -0.4774
  364MOL0     C47979   3.297   2.010   7.681  0.3111  0.6284 -1.2518
  364MOL0     C47980   3.308   2.023   7.565 -0.3271 -0.2024  0.7490
  364MOL0     C47981   3.823   1.790   8.177 -0.0530 -0.3104 -0.4137
  364MOL0     C47982   3.903   1.762   8.288 -0.1047 -0.9466  0.6884
  364MOL0     H47983   4.042   1.533   8.705 -1.2445  2.7570 -2.2935
  364MOL0     H47984   4.230   1.460   8.852  0.4781 -0.0773  0.1152
  364MOL0     H47985   4.394   1.308   8.671 -0.3218 -0.4756 -0.1828
  364MOL0     H47986   4.368   1.320   8.840 -0.0307  3.0071  0.1951
  364MOL0     H47987   4.593   1.240   8.898  1.1448  3.6415 -0.4118
  364MOL0     H47988   4.652   1.246   8.739 -0.4611 -2.5549 -1.3500
  364MOL0     H47989   4.617   1.034   8.782 -2.0502 -1.1169  0.3279
  364MOL0     H47990   4.521   1.075   8.650 -0.0506 -0.1111  0.9264
  364MOL0     H47991   4.391   1.084   8.919 -1.4791  1.9850 -2.0424
  364MOL0     H47992   4.318   1.051   8.769 -1.4959  0.9015  2.7011
  364MOL0     H47993   4.465   0.868   8.948  1.0333  3.4711  0.8648
  364MOL0     H47994   4.447   0.838   8.772  1.9910 -0.9124  1.0466
  364MOL0     H47995   4.190   0.889   8.824 -0.1313  0.3014  1.0504
  364MOL0     H47996   4.231   0.898   8.997 -1.6161  0.1411  0.0156
  364MOL0     H47997   4.112   0.696   8.914  0.4997  0.1287 -0.5709
  364MOL0     H47998   4.244   0.655   8.813  0.5042 -1.7283  0.5497
  364MOL0     H47999   4.407   0.631   9.001  0.0882  0.4321 -4.2433
  364MOL0     H48000   4.274   0.515   9.003  1.3768 -0.2281 -1.0579
  364MOL0     H48001   4.031   0.607   9.148  2.6023 -3.5546 -0.4648
  364MOL0     H48002   3.914   0.837   9.301  1.0586  0.1991 -0.4234
  364MOL0     H48003   4.005   0.858   9.447 -0.8276  2.4240 -1.8855
  364MOL0     H48004   3.975   0.591   9.485  0.1886 -0.0328 -1.4031
  364MOL0     H48005   3.866   0.603   9.349 -0.5790  0.6486 -0.6399
  364MOL0     H48006   3.856   0.756   9.604  1.1995  1.2107 -1.1666
  364MOL0     H48007   3.740   0.798   9.480 -1.4079  0.6129  1.1015
  364MOL0     H48008   3.634   0.573   9.498 -1.9501 -2.4220  2.0224
  364MOL0     H48009   3.623   0.678   9.631  1.4858  2.4143  0.0862
  364MOL0     H48010   3.813   0.430   9.886 -0.5581 -2.6968  2.1849
  364MOL0     H48011   3.679   0.286  10.045  1.0131 -1.4325 -1.7448
  364MOL0     H48012   3.097   0.322  10.081  0.4413 -0.6297  0.4574
  364MOL0     H48013   2.913   0.232  10.222 -0.1502  1.0674 -2.5301
  364MOL0     H48014   2.886   0.125  10.418  1.5754  0.7252 -2.6264
  364MOL0     H48015   2.916  -0.043  10.457  1.8180  1.1832 -0.0862
  364MOL0     H48016   2.712   0.066  10.543 -0.9453  1.1009  0.0411
  364MOL0     H48017   2.676  -0.094  10.452 -3.5409  1.0156  1.7657
  364MOL0     H48018   2.597   0.038  10.264  0.1409 -2.2713  1.1068
  364MOL0     H48019   2.645   0.187  10.349 -1.5857  0.0922 -2.3967
  364MOL0     H48020   2.462  -0.019  10.463  3.5322 -0.9979  0.4651
  364MOL0     H48021   2.508   0.125  10.553 -1.8866  2.6366 -0.4862
  364MOL0     H48022   2.415   0.273  10.398  0.7816 -1.0256  1.0036
  364MOL0     H48023   2.285   0.167  10.469  0.0597 -1.2083  0.8456
  364MOL0     H48024   2.252   0.023  10.281  2.8852 -2.2752 -0.8540
  364MOL0     H48025   2.388   0.079  10.201 -1.2349  1.2870 -1.5592
  364MOL0     H48026   2.136   0.248  10.251  0.0899  1.2436 -2.9582
  364MOL0     H48027   2.278   0.318  10.187  1.7447 -1.4858  1.4267
  364MOL0     H48028   2.128   0.272  10.014  0.1884  1.4041 -0.4752
  364MOL0     H48029   2.090   0.107  10.073 -1.3121 -0.2269 -3.0504
  364MOL0     H48030   3.056  -0.159  10.140  0.9974  1.0503  1.2685
  364MOL0     H48031   3.247  -0.055   9.988  1.6449 -0.1739  1.5608
  364MOL0     H48032   3.341   0.353   9.786  0.8758 -1.3342 -1.4805
  364MOL0     H48033   3.484   0.464   9.625 -1.3133  0.5696  0.2069
  364MOL0     H48034   4.504   1.695   8.606 -0.0329  2.9507  0.4727
  364MOL0     H48035   4.310   1.780   8.481  1.3557  0.1388  0.1405
  364MOL0     H48036   3.691   1.824   8.542  2.9614 -1.9701  1.8320
  364MOL0     H48037   3.549   1.874   8.343 -0.0515  0.2995 -1.6168
  364MOL0     H48038   3.593   1.731   7.920  0.9963  0.2429 -1.7594
  364MOL0     H48039   3.719   1.840   7.935 -1.3396  1.9329 -1.9646
  364MOL0     H48040   3.543   2.032   7.920 -1.6810 -0.3764  0.8620
  364MOL0     H48041   3.570   1.918   7.779  4.4055 -1.2722  0.3440
  364MOL0     H48042   3.351   1.875   7.992  0.4359 -2.1491 -1.1203
  364MOL0     H48043   3.364   1.812   7.828  0.4438  0.5320 -0.9127
  364MOL0     H48044   3.191   2.013   7.861 -0.7556 -5.4288  0.4785
  364MOL0     H48045   3.334   2.112   7.851 -0.7573 -0.3051 -0.1052
  364MOL0     H48046   3.321   2.029   7.459  0.7552  0.7988  0.9077
  364MOL0     H48047   3.865   1.772   8.078  0.5328 -0.7801 -0.0832
  364MOL0     H48048   4.007   1.743   8.264 -0.0077 -1.3107  1.3673
  365MOL0     O48049   9.377   7.935   9.187  0.2901  0.4749 -0.7576
  365MOL0     C48050   9.395   7.936   9.312  0.6235  0.2597  1.0047
  365MOL0     O48051   9.501   7.984   9.369 -0.2425 -0.4648 -0.5569
  365MOL0     C48052   9.561   8.093   9.302  0.0465 -0.1642 -0.8414
  365MOL0     C48053   9.682   8.070   9.253  0.0811  0.6112 -0.2373
  365MOL0     C48054   9.743   8.164   9.180 -1.2517  0.1229 -0.3798
  365MOL0     C48055   9.694   8.295   9.169  0.0313 -0.1081 -0.1402
  365MOL0     O48056   9.757   8.397   9.107 -0.1145 -0.4506  0.1498
  365MOL0     C48057   9.879   8.378   9.033  0.2700  0.2246 -0.5425
  365MOL0     C48058   9.862   8.308   8.902 -0.9276 -0.1840 -0.1064
  365MOL0     C48059   9.748   8.372   8.826  1.0686  0.7442  0.0310
  365MOL0     C48060   9.722   8.304   8.685 -0.0720  0.1338 -0.0880
  365MOL0     C48061   9.814   8.357   8.561  0.6945  0.4152  0.0084
  365MOL0     C48062   9.771   8.291   8.428  0.4280 -0.4838 -0.5219
  365MOL0     C48063   9.791   8.143   8.423  0.6386 -0.2833 -0.2832
  365MOL0     C48064   9.671   8.058   8.381  0.2967  0.3169 -0.0119
  365MOL0     N48065   9.652   8.048   8.241  0.8136 -0.9808 -0.6200
  365MOL0     C48066   9.726   7.969   8.164  0.5666  0.1512  0.5323
  365MOL0     C48067   9.682   7.995   8.037 -0.4770 -0.4300  0.0459
  365MOL0     C48068   9.717   7.910   7.913  0.4686 -0.6150  0.0075
  365MOL0     C48069   9.825   7.973   7.823  0.4353  0.0069  0.0258
  365MOL0     C48070   9.860   7.889   7.698  0.1027 -0.2421  0.1924
  365MOL0     C48071   9.756   7.897   7.584 -0.9110  0.2940 -0.6988
  365MOL0     O48072   9.640   7.822   7.614  0.0387 -0.3405 -0.8847
  365MOL0     C48073   9.558   7.779   7.505 -0.0098 -0.3060  1.6795
  365MOL0     C48074   9.473   7.670   7.519  0.4296  0.3508  0.9597
  365MOL0     C48075   9.400   7.622   7.410 -0.0609  0.2577  0.4958
  365MOL0     C48076   9.403   7.679   7.282  0.6583  0.1411  0.4939
  365MOL0     C48077   9.316   7.630   7.164 -0.1276 -0.4988  0.0832
  365MOL0     O48078   9.329   7.694   7.040  0.0937 -0.2144  0.2341
  365MOL0     C48079   9.249   7.674   6.924  0.0425 -0.9994 -0.5687
  365MOL0     C48080   9.250   7.780   6.836 -0.8375 -0.4910 -0.0253
  365MOL0     C48081   9.168   7.785   6.718  0.4346 -0.2953  0.2086
  365MOL0     C48082   9.072   7.682   6.704  0.3031  1.4855 -0.0687
  365MOL0     O48083   9.008   7.650   6.589  0.3194 -0.1473 -0.2506
  365MOL0     C48084   8.973   7.743   6.484 -0.3547  0.4145 -0.2106
  365MOL0     C48085   8.874   7.697   6.375 -0.9001 -0.2835 -0.9612
  365MOL0     C48086   8.747   7.631   6.434  0.0629 -0.5029 -0.6967
  365MOL0     C48087   8.643   7.603   6.327 -0.7615 -0.0231  0.1427
  365MOL0     C48088   8.502   7.574   6.383 -1.3724 -0.2212 -1.1894
  365MOL0     C48089   8.442   7.701   6.445 -0.3721  0.0699  0.5083
  365MOL0     C48090   8.405   7.804   6.334  0.4664  0.2468 -0.7982
  365MOL0     C48091   8.352   7.927   6.401  1.3702 -0.0616  0.6411
  365MOL0    Cl48092   8.269   8.045   6.283 -0.1421  0.4027 -0.3473
  365MOL0     C48093   9.069   7.576   6.802  0.3438  0.1674  0.6828
  365MOL0     C48094   9.162   7.564   6.905 -0.0877  0.5689  0.1873
  365MOL0     O48095   9.241   7.536   7.188  0.0596 -0.6621 -0.5682
  365MOL0     C48096   9.491   7.790   7.263  1.2535 -0.4462 -0.0786
  365MOL0     C48097   9.571   7.834   7.376 -0.7676  0.3216 -0.2907
  365MOL0     N48098   9.582   8.088   8.045  0.0099  1.0263  0.7843
  365MOL0     N48099   9.565   8.116   8.170 -0.0732 -0.8348  0.0359
  365MOL0     C48100   9.566   8.321   9.223  0.4613  0.2005  0.2117
  365MOL0     C48101   9.500   8.220   9.297  0.1009  0.3834  0.6182
  365MOL0     C48102   9.279   7.877   9.399 -0.5046  0.8254  0.9135
  365MOL0     C48103   9.282   7.911   9.532  0.3143  0.7543  0.5241
  365MOL0     C48104   9.188   7.849   9.617  0.1575 -0.8795 -0.3971
  365MOL0     C48105   9.093   7.761   9.578  0.7866 -0.6067 -0.3929
  365MOL0     O48106   9.007   7.724   9.681 -0.3913 -0.0239  0.0055
  365MOL0     C48107   8.892   7.652   9.653  0.6815 -0.0428 -0.7646
  365MOL0     C48108   8.800   7.632   9.770 -0.3371  0.6691  0.0146
  365MOL0     C48109   8.683   7.522   9.743 -1.1371 -0.8616  0.5545
  365MOL0     C48110   8.587   7.484   9.846 -0.2106 -0.2108 -0.0166
  365MOL0     C48111   8.650   7.391   9.944 -0.3948 -0.3358  0.4748
  365MOL0     C48112   8.679   7.314  10.032 -0.0774 -0.0522  0.2569
  365MOL0     C48113   9.092   7.716   9.445 -0.4155 -0.5848  0.1867
  365MOL0     C48114   9.194   7.767   9.359  0.6867 -0.2826  0.8201
  365MOL0     H48115   9.720   7.968   9.258  1.6309  1.1284 -1.0597
  365MOL0     H48116   9.823   8.114   9.126 -1.7997 -0.9797 -0.1988
  365MOL0     H48117   9.951   8.320   9.091 -1.1869  1.5389  2.8472
  365MOL0     H48118   9.926   8.477   9.027  1.1339  0.4328  4.6627
  365MOL0     H48119   9.849   8.202   8.923  0.6874 -0.4963 -0.5305
  365MOL0     H48120   9.956   8.314   8.846 -0.2372 -4.4831  0.2655
  365MOL0     H48121   9.771   8.477   8.808 -1.7326  1.0115 -3.0745
  365MOL0     H48122   9.656   8.364   8.885 -0.1612  6.0738 -0.6443
  365MOL0     H48123   9.733   8.195   8.693  2.1705  0.0309 -2.9242
  365MOL0     H48124   9.617   8.320   8.658  0.0761  3.3943  0.8371
  365MOL0     H48125   9.921   8.344   8.580  0.1798  0.6528  3.8838
  365MOL0     H48126   9.797   8.464   8.556  1.0864  0.6839  2.9394
  365MOL0     H48127   9.834   8.326   8.346 -0.3864 -0.8620 -1.3353
  365MOL0     H48128   9.667   8.321   8.412  1.3642  3.8604  0.0993
  365MOL0     H48129   9.877   8.118   8.359  0.9530 -1.4737  0.5672
  365MOL0     H48130   9.817   8.102   8.521  1.4233 -0.1909 -0.4386
  365MOL0     H48131   9.578   8.101   8.420  0.0509  0.7277 -1.0095
  365MOL0     H48132   9.680   7.957   8.423 -1.5129  0.0251 -0.2294
  365MOL0     H48133   9.793   7.891   8.197  2.7837  1.2475 -1.0799
  365MOL0     H48134   9.636   7.896   7.840  1.6700 -3.0082 -1.0060
  365MOL0     H48135   9.755   7.811   7.940  1.8590 -0.9457 -2.7057
  365MOL0     H48136   9.919   7.967   7.877 -0.6509  0.6461  2.0956
  365MOL0     H48137   9.809   8.073   7.782 -0.0027 -0.6565 -1.5079
  365MOL0     H48138   9.950   7.934   7.658  0.2847 -1.1657 -0.4678
  365MOL0     H48139   9.889   7.788   7.731 -0.5596 -0.1053  1.2726
  365MOL0     H48140   9.800   7.865   7.489 -4.4646 -0.0392 -2.4142
  365MOL0     H48141   9.731   8.000   7.557  1.4296  0.2485 -3.5443
  365MOL0     H48142   9.478   7.619   7.614  0.3724  0.1012  0.8308
  365MOL0     H48143   9.350   7.529   7.432  2.7066 -1.1804  1.1105
  365MOL0     H48144   9.314   7.865   6.856 -3.5594  1.6450  0.2117
  365MOL0     H48145   9.159   7.862   6.643 -0.8231 -0.1030  0.5399
  365MOL0     H48146   9.054   7.794   6.431 -1.8244  0.5814 -2.4258
  365MOL0     H48147   8.911   7.822   6.526 -3.1923 -0.3658 -2.5757
  365MOL0     H48148   8.921   7.624   6.308  1.1143 -1.6232  1.7432
  365MOL0     H48149   8.837   7.783   6.319  0.8657  1.1933  0.0505
  365MOL0     H48150   8.716   7.695   6.517  0.0295  3.0356 -3.2107
  365MOL0     H48151   8.776   7.535   6.476 -0.8222  0.3464  2.0568
  365MOL0     H48152   8.637   7.690   6.260  1.9182  1.7477  2.0193
  365MOL0     H48153   8.671   7.522   6.259 -0.1135 -1.0651  1.5975
  365MOL0     H48154   8.522   7.507   6.467  2.9142  2.1253 -0.0366
  365MOL0     H48155   8.436   7.522   6.313 -3.3444 -2.4733  2.0993
  365MOL0     H48156   8.511   7.748   6.516  1.0968  1.5405 -1.7612
  365MOL0     H48157   8.343   7.690   6.491 -1.4471  0.2291 -1.6380
  365MOL0     H48158   8.496   7.837   6.283  0.2354 -1.0481 -2.1209
  365MOL0     H48159   8.337   7.752   6.266 -0.4471  1.1550 -0.5950
  365MOL0     H48160   8.437   7.982   6.444  1.0561  1.2218 -0.3342
  365MOL0     H48161   8.273   7.900   6.472 -2.1852  0.1076 -2.9097
  365MOL0     H48162   9.000   7.493   6.787  1.2928 -0.6578  0.8257
  365MOL0     H48163   9.183   7.480   6.970 -1.1141  0.6525  0.6461
  365MOL0     H48164   9.499   7.845   7.170  2.2502 -0.4227  0.0084
  365MOL0     H48165   9.641   7.915   7.357  2.4696 -2.3122 -0.4620
  365MOL0     H48166   9.521   8.419   9.211  0.6396  0.2810  0.2035
  365MOL0     H48167   9.398   8.230   9.333 -1.2534 -2.5441 -1.9128
  365MOL0     H48168   9.373   7.956   9.570  2.8248 -2.2428 -1.5108
  365MOL0     H48169   9.205   7.884   9.718 -0.6131 -0.0104 -0.5485
  365MOL0     H48170   8.914   7.554   9.609  2.2850  0.6460 -1.5714
  365MOL0     H48171   8.841   7.704   9.572  2.4118  0.5077 -1.5472
  365MOL0     H48172   8.873   7.610   9.849 -2.0189 -1.3485  1.1115
  365MOL0     H48173   8.742   7.721   9.793 -1.0375  0.9860 -2.6609
  365MOL0     H48174   8.727   7.435   9.693 -3.4589 -0.0562 -3.3498
  365MOL0     H48175   8.611   7.555   9.667 -1.0071  0.3382  0.9283
  365MOL0     H48176   8.568   7.574   9.905  0.3938 -0.4368  0.5335
  365MOL0     H48177   8.492   7.450   9.804 -0.4301  0.5579 -0.1711
  365MOL0     H48178   8.702   7.249  10.114 -1.6133 -0.6853  0.2185
  365MOL0     H48179   9.012   7.649   9.412  1.5387 -2.0942 -1.7484
  365MOL0     H48180   9.192   7.725   9.259 -0.2547  0.1807  0.6374
  366MOL0     O48181   8.821   4.046   6.084 -0.2739 -0.2646  0.0176
  366MOL0     C48182   8.702   4.037   6.039 -0.0965  0.2011 -0.3431
  366MOL0     O48183   8.651   3.932   5.974  0.2207  0.8217  0.7171
  366MOL0     C48184   8.714   3.814   5.961  0.6535 -0.5369 -0.5828
  366MOL0     C48185   8.799   3.761   6.053  0.0184  0.3078  0.4206
  366MOL0     C48186   8.859   3.636   6.022 -0.3618  1.1767 -0.1614
  366MOL0     C48187   8.838   3.577   5.899  0.5518  0.3121  1.1587
  366MOL0     O48188   8.923   3.480   5.842  0.6282  0.3657  0.6538
  366MOL0     C48189   9.025   3.421   5.924 -0.7639  0.1154  0.4039
  366MOL0     C48190   9.095   3.294   5.865  0.7090 -0.3721 -0.9075
  366MOL0     C48191   9.000   3.173   5.860  0.7084  0.3964  0.8664
  366MOL0     C48192   9.032   3.053   5.769  0.1516 -0.1109  0.0227
  366MOL0     C48193   9.185   3.029   5.754 -1.1380 -0.4739 -0.2865
  366MOL0     C48194   9.222   2.926   5.648  0.6542  1.0918 -0.5398
  366MOL0     C48195   9.375   2.934   5.616  0.8659 -0.1471  0.6816
  366MOL0     C48196   9.443   2.797   5.583  0.3075  0.3974  0.3955
  366MOL0     N48197   9.574   2.806   5.521  0.2161  0.6042  0.1744
  366MOL0     C48198   9.629   2.721   5.427  0.1050 -0.3493 -0.7782
  366MOL0     C48199   9.764   2.757   5.418  0.2607 -0.6338  0.5483
  366MOL0     C48200   9.859   2.711   5.316 -0.6113 -0.2038  0.1924
  366MOL0     C48201   9.929   2.572   5.351 -0.0900 -0.4071 -0.2833
  366MOL0     C48202  10.000   2.513   5.230 -0.1006  0.1657  0.7417
  366MOL0     C48203  10.081   2.390   5.275  0.2435 -0.3806  0.0715
  366MOL0     O48204  10.122   2.324   5.159  0.9122  0.1848  0.9251
  366MOL0     C48205  10.207   2.384   5.070 -1.2668  0.3830  0.0865
  366MOL0     C48206  10.218   2.336   4.935 -0.3482  0.9734 -0.5979
  366MOL0     C48207  10.297   2.402   4.836  0.2884 -0.0081  0.0503
  366MOL0     C48208  10.379   2.511   4.866  0.1303  0.7041 -0.4601
  366MOL0     C48209  10.481   2.572   4.768  0.6290  0.2919  0.0854
  366MOL0     O48210  10.552   2.685   4.802  0.3251  0.6388 -0.2867
  366MOL0     C48211  10.623   2.734   4.698 -0.0719 -0.9161  0.0594
  366MOL0     C48212  10.564   2.830   4.614  0.4308  0.4418 -0.1685
  366MOL0     C48213  10.631   2.886   4.498  0.4467  0.5019  1.1947
  366MOL0     C48214  10.770   2.847   4.479 -0.5172 -1.3229  0.1558
  366MOL0     O48215  10.861   2.911   4.392 -0.4016 -0.4197 -0.1352
  366MOL0     C48216  10.812   2.996   4.291 -0.1767  0.6842 -0.2565
  366MOL0     C48217  10.893   2.972   4.154 -0.3011  0.2705 -1.1528
  366MOL0     C48218  10.811   3.037   4.036 -0.8051  0.4786  0.1116
  366MOL0     C48219  10.878   2.992   3.906 -0.2657 -0.8609  1.2779
  366MOL0     C48220  10.846   3.096   3.800 -0.0942 -0.1977 -0.5817
  366MOL0     C48221  10.890   3.049   3.664  0.2213 -0.1665  0.5899
  366MOL0     C48222  10.884   3.155   3.564 -0.2923 -0.5315 -0.3709
  366MOL0     C48223  10.955   3.123   3.431  0.0153  0.7709 -0.1933
  366MOL0    Cl48224  11.125   3.064   3.456 -0.0419  0.1326 -0.0039
  366MOL0     C48225  10.828   2.758   4.568  0.2836  0.2522 -0.0555
  366MOL0     C48226  10.749   2.699   4.669  0.5648  0.6107 -0.3445
  366MOL0     O48227  10.481   2.521   4.655 -0.0374  0.9550 -0.2754
  366MOL0     C48228  10.379   2.542   5.006 -0.3089  1.1695  0.3793
  366MOL0     C48229  10.286   2.490   5.103 -0.0931  1.1251 -0.0581
  366MOL0     N48230   9.785   2.866   5.497 -0.8137 -0.9610  0.0300
  366MOL0     N48231   9.672   2.880   5.567  0.0009 -1.0710  0.5654
  366MOL0     C48232   8.740   3.624   5.818  0.3870  0.3628  0.0509
  366MOL0     C48233   8.676   3.748   5.847  0.3759  1.0045  0.5602
  366MOL0     C48234   8.626   4.164   6.031  0.3609  0.2896  0.8137
  366MOL0     C48235   8.489   4.164   6.051 -0.3349 -0.1699 -0.0263
  366MOL0     C48236   8.419   4.283   6.080 -0.3290 -0.1962 -0.0994
  366MOL0     C48237   8.478   4.406   6.069  0.0603 -0.8872 -0.1633
  366MOL0     O48238   8.418   4.520   6.111  0.4740  0.0469 -0.2307
  366MOL0     C48239   8.486   4.610   6.195  0.3078  0.0934  0.2617
  366MOL0     C48240   8.411   4.740   6.205  0.0241 -0.4928 -0.6559
  366MOL0     C48241   8.373   4.796   6.068  0.9201 -1.0038  0.0138
  366MOL0     C48242   8.310   4.933   6.103 -0.4457  0.2651 -0.7240
  366MOL0     C48243   8.191   4.934   6.184  1.0372 -0.0358  0.4060
  366MOL0     C48244   8.084   4.937   6.248 -0.2430 -0.4238  0.5216
  366MOL0     C48245   8.623   4.404   6.027 -0.9167 -0.2955 -0.3654
  366MOL0     C48246   8.693   4.287   6.013 -0.4584  0.1337  0.2184
  366MOL0     H48247   8.825   3.816   6.142  2.5352 -1.9827  1.2204
  366MOL0     H48248   8.942   3.607   6.086 -0.0642  1.2451 -0.5170
  366MOL0     H48249   8.974   3.379   6.012  0.8786  0.8050  1.7559
  366MOL0     H48250   9.108   3.491   5.938 -0.0006 -0.9623  1.5581
  366MOL0     H48251   9.170   3.274   5.942 -2.6094 -1.9532  2.2082
  366MOL0     H48252   9.138   3.314   5.766  0.1717 -1.0174 -1.2822
  366MOL0     H48253   8.896   3.195   5.838  0.6526  0.1968  0.9183
  366MOL0     H48254   9.000   3.137   5.963 -1.0602  0.7802  1.0248
  366MOL0     H48255   8.978   2.965   5.805  0.1977 -1.2419 -2.4647
  366MOL0     H48256   8.991   3.064   5.668  1.4397  2.0377 -0.3243
  366MOL0     H48257   9.227   2.997   5.850 -0.0982 -1.9252 -1.1932
  366MOL0     H48258   9.230   3.125   5.726 -1.7424  0.4235  1.6176
  366MOL0     H48259   9.165   2.948   5.557 -0.3954  0.6478 -0.0057
  366MOL0     H48260   9.187   2.828   5.681 -0.8892  2.3027  1.6634
  366MOL0     H48261   9.378   3.004   5.532 -1.1078  0.2809  0.9265
  366MOL0     H48262   9.446   2.965   5.694  1.3989  0.5139 -0.0423
  366MOL0     H48263   9.369   2.748   5.518 -1.4215  0.9379  1.8617
  366MOL0     H48264   9.456   2.746   5.679  2.8599 -0.7559 -0.4815
  366MOL0     H48265   9.582   2.650   5.360  2.1532 -1.3065 -1.2565
  366MOL0     H48266   9.926   2.794   5.290 -2.5382  1.5479  0.6224
  366MOL0     H48267   9.813   2.698   5.218 -3.7580  3.8520  0.8781
  366MOL0     H48268   9.856   2.503   5.394 -1.0287  0.5458 -0.3228
  366MOL0     H48269  10.002   2.593   5.430 -0.8729 -1.6349  0.8127
  366MOL0     H48270   9.925   2.496   5.152  0.5529 -2.0150  0.5265
  366MOL0     H48271  10.063   2.593   5.190  0.3787 -1.0108 -0.9715
  366MOL0     H48272  10.010   2.324   5.326 -2.3871  3.4528  1.8859
  366MOL0     H48273  10.158   2.422   5.345 -2.1101 -0.8789  3.1141
  366MOL0     H48274  10.150   2.253   4.922 -1.2567  1.7797 -1.1533
  366MOL0     H48275  10.315   2.373   4.733  2.2114 -1.0820  0.6508
  366MOL0     H48276  10.462   2.863   4.629  0.0846 -0.1738 -1.1023
  366MOL0     H48277  10.581   2.967   4.445  1.6801 -0.7214 -2.0588
  366MOL0     H48278  10.822   3.096   4.334 -0.0313  1.1124 -1.2541
  366MOL0     H48279  10.705   2.984   4.271 -1.5865  6.8667  1.4236
  366MOL0     H48280  10.893   2.865   4.129 -0.9604 -0.3189  1.0926
  366MOL0     H48281  10.995   3.010   4.165 -0.3267  0.8297 -2.5928
  366MOL0     H48282  10.829   3.144   4.049  2.2832 -0.0949  1.6089
  366MOL0     H48283  10.703   3.021   4.038 -0.8876  0.8437  2.6526
  366MOL0     H48284  10.986   2.971   3.910  0.2584  1.6675  2.5153
  366MOL0     H48285  10.833   2.895   3.883 -2.2534  0.0918  0.9803
  366MOL0     H48286  10.902   3.188   3.816  0.1025  0.1823 -3.0312
  366MOL0     H48287  10.740   3.124   3.794  0.1912  0.8421 -0.8990
  366MOL0     H48288  10.820   2.970   3.635 -2.3462  2.3088 -0.4214
  366MOL0     H48289  10.995   3.021   3.658  0.5458  0.6354  2.1237
  366MOL0     H48290  10.780   3.187   3.550  0.7795  2.4932 -2.5656
  366MOL0     H48291  10.943   3.238   3.604 -0.9633  1.4109 -3.1041
  366MOL0     H48292  10.957   3.211   3.366  2.0226  0.6511 -0.3577
  366MOL0     H48293  10.899   3.042   3.382 -0.3691 -0.2807  1.8485
  366MOL0     H48294  10.928   2.721   4.548  0.9754  0.4732  2.6278
  366MOL0     H48295  10.793   2.628   4.738  0.2168  0.7467  0.0148
  366MOL0     H48296  10.466   2.586   5.054 -0.2434  0.0136  1.3991
  366MOL0     H48297  10.292   2.537   5.201  1.9542  0.2069  0.3166
  366MOL0     H48298   8.721   3.588   5.717  2.4413  1.6948 -0.8972
  366MOL0     H48299   8.606   3.789   5.774 -2.7809 -0.5582  2.5268
  366MOL0     H48300   8.422   4.079   6.064 -2.2874  1.4910  1.3621
  366MOL0     H48301   8.317   4.283   6.117 -0.8353 -3.1017 -1.2309
  366MOL0     H48302   8.586   4.630   6.156 -0.1286 -1.9495 -2.1861
  366MOL0     H48303   8.508   4.566   6.292 -1.5818  1.9568  1.6156
  366MOL0     H48304   8.320   4.724   6.265  0.6875 -3.5547 -0.3414
  366MOL0     H48305   8.474   4.811   6.260  0.0656 -0.4900 -0.7085
  366MOL0     H48306   8.300   4.732   6.017 -2.0639  1.0910  1.3011
  366MOL0     H48307   8.465   4.804   6.010 -0.3887 -3.0362 -2.5289
  366MOL0     H48308   8.392   4.992   6.146  2.1006 -3.0167 -0.7476
  366MOL0     H48309   8.289   4.986   6.009  1.5338 -0.5181 -1.6817
  366MOL0     H48310   8.000   4.931   6.314  1.1086 -2.8918  2.1637
  366MOL0     H48311   8.669   4.501   6.009  1.6163 -1.4488 -0.6168
  366MOL0     H48312   8.801   4.288   6.011 -0.2426  4.9188  2.2839
  367MOL0     O48313   0.078   7.173   1.320  0.4072 -0.0634  0.2031
  367MOL0     C48314   0.191   7.133   1.320 -0.1678  0.7220  0.8470
  367MOL0     O48315   0.228   7.015   1.280 -0.1123 -0.1641 -0.0552
  367MOL0     C48316   0.146   6.903   1.267 -0.3495 -1.0674  0.1911
  367MOL0     C48317   0.038   6.890   1.361  0.3341  0.3125  0.2374
  367MOL0     C48318  -0.041   6.779   1.370  0.9974  0.5986  0.1399
  367MOL0     C48319  -0.026   6.667   1.281  0.0095 -0.0273 -0.2108
  367MOL0     O48320  -0.105   6.555   1.289  0.3531  0.2753 -0.7852
  367MOL0     C48321  -0.059   6.428   1.242 -0.1104  0.2550 -0.2487
  367MOL0     C48322  -0.130   6.292   1.292  0.9502 -0.1383 -0.5276
  367MOL0     C48323  -0.262   6.259   1.211 -0.0832  0.0724  0.0704
  367MOL0     C48324  -0.332   6.130   1.262  0.3863  0.3387 -0.2420
  367MOL0     C48325  -0.474   6.108   1.208 -0.8528 -0.8187 -0.2865
  367MOL0     C48326  -0.531   5.989   1.277  0.4427 -0.9307 -1.0492
  367MOL0     C48327  -0.656   5.947   1.202 -0.0905  0.2105  0.2738
  367MOL0     C48328  -0.703   5.814   1.270 -0.0895 -0.0064 -0.0314
  367MOL0     N48329  -0.832   5.777   1.222 -0.4490 -0.0311 -0.3866
  367MOL0     C48330  -0.857   5.643   1.183  0.1780 -0.5553 -0.4636
  367MOL0     C48331  -0.992   5.657   1.151 -0.2176  0.1458 -0.4351
  367MOL0     C48332  -1.047   5.524   1.097  0.2710 -1.3538  0.1417
  367MOL0     C48333  -1.173   5.558   1.017  0.3684 -0.3841 -0.5076
  367MOL0     C48334  -1.160   5.644   0.894  0.1196 -0.9567  0.3557
  367MOL0     C48335  -1.288   5.662   0.815  0.4179 -0.4842 -0.1806
  367MOL0     O48336  -1.320   5.540   0.766  0.3018  0.1449  0.4839
  367MOL0     C48337  -1.450   5.525   0.707 -0.4847  0.1022  0.2441
  367MOL0     C48338  -1.476   5.400   0.657 -0.7508  0.1402 -0.2256
  367MOL0     C48339  -1.596   5.365   0.596 -0.6245  0.0094 -0.6934
  367MOL0     C48340  -1.697   5.462   0.584 -0.1868 -0.2679  0.2479
  367MOL0     C48341  -1.826   5.424   0.513 -0.3564  0.3885  0.2978
  367MOL0     O48342  -1.924   5.523   0.495 -0.3902  0.8571  0.1807
  367MOL0     C48343  -2.035   5.470   0.446  0.7492  0.0229 -0.6402
  367MOL0     C48344  -2.126   5.411   0.527  0.5061 -0.5287 -0.7290
  367MOL0     C48345  -2.255   5.369   0.484 -0.2687  0.5256  0.2908
  367MOL0     C48346  -2.293   5.386   0.355 -0.4324 -0.1987  0.5349
  367MOL0     O48347  -2.419   5.353   0.314  0.6333 -0.5765  0.6104
  367MOL0     C48348  -2.494   5.474   0.316  0.0625 -0.2622  0.1578
  367MOL0     C48349  -2.613   5.456   0.222 -1.0987  0.0032 -0.6843
  367MOL0     C48350  -2.577   5.528   0.096  0.1934  0.0967 -0.1236
  367MOL0     C48351  -2.682   5.518  -0.022  0.1481  0.1894 -0.7132
  367MOL0     C48352  -2.630   5.588  -0.152  0.1565  0.2429 -0.0167
  367MOL0     C48353  -2.652   5.737  -0.156 -0.0725  0.3684  0.0465
  367MOL0     C48354  -2.534   5.809  -0.236  0.0439  0.4440 -0.6861
  367MOL0     C48355  -2.584   5.869  -0.362 -1.1607  0.1121  0.5923
  367MOL0    Cl48356  -2.689   5.769  -0.461 -0.0217 -0.2246  0.1421
  367MOL0     C48357  -2.208   5.469   0.274  0.3855  0.1643  0.4817
  367MOL0     C48358  -2.078   5.503   0.316  0.2232 -0.3034 -0.3370
  367MOL0     O48359  -1.830   5.311   0.466  0.4731  0.2182  0.4626
  367MOL0     C48360  -1.672   5.600   0.635 -0.0148  1.0539  1.1649
  367MOL0     C48361  -1.545   5.625   0.692  1.1217 -0.1326 -1.2820
  367MOL0     N48362  -1.031   5.793   1.161  0.5115 -0.3963 -0.3919
  367MOL0     N48363  -0.937   5.865   1.210 -0.1168 -0.8562  0.7752
  367MOL0     C48364   0.077   6.689   1.186  0.8462  0.1884 -0.0441
  367MOL0     C48365   0.170   6.796   1.183  0.6750  0.0593 -0.7840
  367MOL0     C48366   0.299   7.233   1.350  0.2548 -0.1072 -1.1950
  367MOL0     C48367   0.279   7.367   1.367 -0.3365  0.4116  0.0074
  367MOL0     C48368   0.394   7.450   1.399  0.0698 -0.3271  0.1513
  367MOL0     C48369   0.522   7.399   1.428 -0.7416  0.6015  0.3732
  367MOL0     O48370   0.638   7.469   1.435 -0.0626 -0.1709 -0.6229
  367MOL0     C48371   0.651   7.576   1.347 -0.1954 -1.4928  1.1793
  367MOL0     C48372   0.750   7.679   1.419  0.1760  0.6920  0.3052
  367MOL0     C48373   0.798   7.791   1.326  0.8512 -0.3456  1.3316
  367MOL0     C48374   0.733   7.924   1.337  0.4860  0.4484 -0.4707
  367MOL0     C48375   0.665   7.974   1.219  0.0971  0.0757  0.0777
  367MOL0     C48376   0.622   8.041   1.127 -0.2098  0.0419 -0.3265
  367MOL0     C48377   0.532   7.262   1.409 -0.2742  0.1378  0.3103
  367MOL0     C48378   0.428   7.188   1.382 -0.2563  1.6162 -1.4636
  367MOL0     H48379   0.009   6.963   1.436 -4.7157 -1.1388  0.0431
  367MOL0     H48380  -0.122   6.764   1.441  2.7844 -0.5832  2.0557
  367MOL0     H48381   0.048   6.422   1.267  0.2804  3.8096 -0.5484
  367MOL0     H48382  -0.066   6.428   1.133  2.8365 -2.2847 -0.6027
  367MOL0     H48383  -0.174   6.297   1.392  1.8374  0.0126 -0.1307
  367MOL0     H48384  -0.066   6.204   1.279 -1.6268 -1.9372 -1.7958
  367MOL0     H48385  -0.241   6.252   1.104 -0.2244  4.6450 -0.4284
  367MOL0     H48386  -0.341   6.334   1.220 -0.3938 -0.3990  1.5792
  367MOL0     H48387  -0.270   6.040   1.254  0.7660  0.3635  1.8127
  367MOL0     H48388  -0.343   6.135   1.371 -1.6490  0.4543 -0.4109
  367MOL0     H48389  -0.476   6.089   1.100  1.4270  3.3064 -1.2357
  367MOL0     H48390  -0.540   6.194   1.221  0.8116  0.7757 -1.7850
  367MOL0     H48391  -0.550   6.016   1.381  2.5608  3.5680 -1.5646
  367MOL0     H48392  -0.461   5.906   1.289  0.1896 -0.7343  3.0452
  367MOL0     H48393  -0.732   6.025   1.196  0.0196  0.1897 -2.2786
  367MOL0     H48394  -0.629   5.915   1.101 -0.7635  2.1011 -0.5324
  367MOL0     H48395  -0.711   5.828   1.378  1.9619 -1.8955  0.4375
  367MOL0     H48396  -0.631   5.733   1.253 -0.8975 -0.5341 -1.0636
  367MOL0     H48397  -0.793   5.555   1.183 -1.0779 -1.5048  0.1526
  367MOL0     H48398  -1.064   5.451   1.177 -2.6438 -1.2740 -0.2868
  367MOL0     H48399  -0.974   5.475   1.032  0.1963 -1.2761 -0.0002
  367MOL0     H48400  -1.251   5.589   1.086 -1.4425 -0.2474 -2.4890
  367MOL0     H48401  -1.200   5.459   0.978  3.7495 -1.7050  0.1385
  367MOL0     H48402  -1.136   5.747   0.925 -1.2124  0.1302 -1.9463
  367MOL0     H48403  -1.077   5.606   0.833  1.0803 -0.0598  1.0605
  367MOL0     H48404  -1.255   5.731   0.737  1.2580 -1.3786 -0.6340
  367MOL0     H48405  -1.365   5.724   0.863  0.1494 -1.0932  0.1912
  367MOL0     H48406  -1.396   5.327   0.659  0.7145  1.6652 -0.7804
  367MOL0     H48407  -1.617   5.261   0.573 -1.0558  0.2854 -1.5952
  367MOL0     H48408  -2.103   5.418   0.633  1.2368  0.1242 -0.9212
  367MOL0     H48409  -2.333   5.345   0.556 -0.2341  3.5471  1.4775
  367MOL0     H48410  -2.434   5.556   0.275  0.2057 -1.5118 -2.3390
  367MOL0     H48411  -2.524   5.507   0.416 -2.2259 -3.7227  0.7870
  367MOL0     H48412  -2.699   5.509   0.265 -2.3349 -1.7094 -0.9321
  367MOL0     H48413  -2.623   5.347   0.215  0.3267 -0.0415 -2.8692
  367MOL0     H48414  -2.480   5.490   0.064  2.2754  1.6035  3.7348
  367MOL0     H48415  -2.574   5.634   0.124  1.7240 -0.1864  0.8958
  367MOL0     H48416  -2.699   5.414  -0.052  1.4791 -0.2109 -0.1547
  367MOL0     H48417  -2.774   5.565   0.014  0.4326 -1.2389  2.1231
  367MOL0     H48418  -2.687   5.545  -0.235 -0.2985 -1.9198  1.3579
  367MOL0     H48419  -2.533   5.540  -0.171 -0.8591 -1.3150 -1.6612
  367MOL0     H48420  -2.653   5.780  -0.055 -0.0844  1.7244 -0.5028
  367MOL0     H48421  -2.753   5.753  -0.195 -0.4054  0.6232  0.9659
  367MOL0     H48422  -2.487   5.892  -0.182  0.7746  0.8119 -1.8579
  367MOL0     H48423  -2.456   5.738  -0.264  1.3777  0.9432  1.5561
  367MOL0     H48424  -2.498   5.908  -0.417 -0.3714 -3.4997 -1.0215
  367MOL0     H48425  -2.642   5.958  -0.335 -1.4511 -0.2644  1.2288
  367MOL0     H48426  -2.241   5.505   0.177 -2.6644 -0.4959  1.1640
  367MOL0     H48427  -2.008   5.552   0.249 -0.4863 -0.9889 -1.6144
  367MOL0     H48428  -1.749   5.675   0.617 -1.6451 -1.0016 -1.1393
  367MOL0     H48429  -1.533   5.731   0.714 -2.2763  0.1218  0.0548
  367MOL0     H48430   0.091   6.602   1.122 -2.3072 -0.5856  0.1280
  367MOL0     H48431   0.268   6.777   1.141  1.7479 -2.4571  2.4857
  367MOL0     H48432   0.189   7.423   1.345 -1.0724 -0.5563  0.4620
  367MOL0     H48433   0.371   7.556   1.394 -0.8443 -0.4934  0.7501
  367MOL0     H48434   0.562   7.637   1.331  0.8761  0.0667  0.9485
  367MOL0     H48435   0.686   7.544   1.248  1.5419  2.1327  0.4498
  367MOL0     H48436   0.708   7.725   1.509 -0.7006  2.1645 -0.8069
  367MOL0     H48437   0.833   7.618   1.454  1.5191 -0.1703 -3.8785
  367MOL0     H48438   0.777   7.748   1.228  0.6327 -0.5300  1.4576
  367MOL0     H48439   0.906   7.809   1.333  1.1375 -1.0711 -0.6049
  367MOL0     H48440   0.656   7.917   1.414 -0.3980 -0.5444 -1.4276
  367MOL0     H48441   0.802   8.004   1.369 -2.3206  2.3417  1.2973
  367MOL0     H48442   0.584   8.108   1.052  0.6678 -0.5041 -1.2936
  367MOL0     H48443   0.623   7.202   1.412 -1.8683 -2.4712 -0.0036
  367MOL0     H48444   0.470   7.088   1.384 -0.4168  1.3727  3.6326
  368MOL0     O48445   6.530   8.722   1.167 -0.2584 -0.7898  0.8598
  368MOL0     C48446   6.457   8.619   1.146 -0.9449  0.0301 -0.2334
  368MOL0     O48447   6.466   8.494   1.210  0.5536  0.4059 -0.2513
  368MOL0     C48448   6.590   8.449   1.243  0.1429 -1.0128 -0.5686
  368MOL0     C48449   6.630   8.434   1.373 -0.0374 -0.5101 -0.4443
  368MOL0     C48450   6.769   8.415   1.403  0.2809 -0.7819 -0.2551
  368MOL0     C48451   6.862   8.423   1.302  0.4199 -0.0498  0.4898
  368MOL0     O48452   6.990   8.395   1.344  0.2334 -0.3336 -0.0201
  368MOL0     C48453   7.097   8.427   1.258 -0.2304  0.4494 -1.6417
  368MOL0     C48454   7.225   8.373   1.329  0.0977  0.0749  0.9987
  368MOL0     C48455   7.248   8.432   1.468  0.0935 -0.2390 -0.6435
  368MOL0     C48456   7.374   8.373   1.538 -0.2810 -0.0088 -0.2315
  368MOL0     C48457   7.508   8.413   1.484  0.7747 -0.1180  0.0557
  368MOL0     C48458   7.622   8.395   1.580  0.1120 -0.4223  0.5852
  368MOL0     C48459   7.760   8.406   1.505 -0.1331 -0.5190  0.2368
  368MOL0     C48460   7.888   8.394   1.582  0.0027 -0.6958  0.3560
  368MOL0     N48461   7.910   8.266   1.639 -0.0160 -0.6236 -1.1126
  368MOL0     C48462   7.915   8.151   1.566  0.6930 -0.1599 -0.7691
  368MOL0     C48463   7.929   8.047   1.655  0.2025 -0.8830  0.0393
  368MOL0     C48464   7.917   7.894   1.642 -0.2542 -0.7005  0.1095
  368MOL0     C48465   7.801   7.825   1.722 -1.0142  1.1236  0.2376
  368MOL0     C48466   7.821   7.680   1.719  0.9626  1.0942  0.2736
  368MOL0     C48467   7.703   7.604   1.780 -0.5193 -0.3452 -0.0116
  368MOL0     O48468   7.753   7.477   1.836 -0.1937  0.7360  0.2248
  368MOL0     C48469   7.672   7.372   1.806  0.1931  1.1855 -0.6909
  368MOL0     C48470   7.531   7.377   1.785  0.0770 -0.2191 -0.6219
  368MOL0     C48471   7.453   7.259   1.768  0.7394  0.2088  0.0653
  368MOL0     C48472   7.512   7.134   1.759 -0.5470  0.2663 -0.5832
  368MOL0     C48473   7.445   7.006   1.735  0.1186  0.0648  0.5453
  368MOL0     O48474   7.305   7.012   1.734 -0.6945 -1.3775  0.2597
  368MOL0     C48475   7.229   6.902   1.733 -0.1360 -0.6020 -0.3031
  368MOL0     C48476   7.149   6.883   1.845 -0.2307  0.5170  0.1856
  368MOL0     C48477   7.069   6.771   1.860  0.5550  0.4047  0.3847
  368MOL0     C48478   7.058   6.675   1.758 -0.3146  0.5008 -0.1643
  368MOL0     O48479   6.984   6.554   1.766 -0.3795  0.2374  0.9653
  368MOL0     C48480   6.877   6.558   1.862  0.1321  0.0395  0.3300
  368MOL0     C48481   6.780   6.440   1.862 -0.8327  0.7334  0.3682
  368MOL0     C48482   6.681   6.453   1.977 -0.6035 -1.5011  0.7170
  368MOL0     C48483   6.540   6.398   1.933  0.0970 -0.0329  0.3852
  368MOL0     C48484   6.543   6.253   1.886  0.0752 -0.0055  0.0649
  368MOL0     C48485   6.412   6.174   1.869 -0.7639 -0.2854 -0.1195
  368MOL0     C48486   6.300   6.221   1.776  1.6857  0.5817  0.6688
  368MOL0     C48487   6.163   6.186   1.822 -0.3863  0.2141  0.0253
  368MOL0    Cl48488   6.063   6.229   1.681 -0.4570 -0.1888  0.1241
  368MOL0     C48489   7.147   6.687   1.650 -0.2427  1.0730 -0.0678
  368MOL0     C48490   7.231   6.800   1.639 -1.1046  0.4708  0.3304
  368MOL0     O48491   7.513   6.906   1.715 -0.2185  0.0990  0.1158
  368MOL0     C48492   7.653   7.128   1.773 -0.1659 -0.1871 -0.2601
  368MOL0     C48493   7.727   7.247   1.796  0.3047  0.0491  0.4000
  368MOL0     N48494   7.942   8.110   1.777 -0.0491 -0.8597 -0.5481
  368MOL0     N48495   7.923   8.243   1.767  0.3972  0.2125  0.4795
  368MOL0     C48496   6.821   8.444   1.169  0.5446 -0.8328  0.3154
  368MOL0     C48497   6.684   8.454   1.139  0.0005  0.3933  0.1530
  368MOL0     C48498   6.337   8.633   1.058  0.7353  0.5422  1.3932
  368MOL0     C48499   6.234   8.544   1.072  0.4026  0.3753  0.8752
  368MOL0     C48500   6.119   8.545   0.988 -0.4319  0.0269  0.4281
  368MOL0     C48501   6.105   8.645   0.887 -0.2853  0.3399 -0.0801
  368MOL0     O48502   5.996   8.628   0.805  1.0617  0.2676  0.0942
  368MOL0     C48503   5.935   8.747   0.736  0.3009  1.4817  0.0929
  368MOL0     C48504   5.815   8.690   0.661 -0.7499  0.3642  0.1929
  368MOL0     C48505   5.870   8.636   0.524 -0.9172 -0.1779  0.7119
  368MOL0     C48506   5.749   8.606   0.428 -0.1994 -0.1070 -0.1513
  368MOL0     C48507   5.798   8.617   0.295 -0.0044  0.4849 -0.6644
  368MOL0     C48508   5.813   8.639   0.174 -0.6883  0.1654 -0.1484
  368MOL0     C48509   6.205   8.747   0.880 -0.4426 -0.2496  1.0417
  368MOL0     C48510   6.318   8.739   0.966 -0.1948  0.6388  0.5161
  368MOL0     H48511   6.568   8.450   1.461 -0.3381  1.5232 -0.9687
  368MOL0     H48512   6.812   8.387   1.499 -1.9001  1.6997  1.5954
  368MOL0     H48513   7.112   8.535   1.247 -0.5510  0.6897 -0.0440
  368MOL0     H48514   7.078   8.382   1.160  3.2722 -1.9900 -1.3675
  368MOL0     H48515   7.308   8.382   1.259  0.2152 -0.8558  1.0074
  368MOL0     H48516   7.219   8.264   1.338  0.4392  0.1389  2.1359
  368MOL0     H48517   7.158   8.409   1.526  0.7567 -0.3772  0.3392
  368MOL0     H48518   7.250   8.540   1.457 -1.3997 -0.3442 -2.9489
  368MOL0     H48519   7.385   8.416   1.638 -0.7571  1.2249 -0.6862
  368MOL0     H48520   7.378   8.265   1.551  1.3477 -0.0842 -1.0386
  368MOL0     H48521   7.502   8.520   1.463  1.9967  0.8535  3.8569
  368MOL0     H48522   7.528   8.352   1.395  2.5071 -1.4759  1.2907
  368MOL0     H48523   7.610   8.295   1.621 -1.5980 -1.0020 -1.1770
  368MOL0     H48524   7.607   8.469   1.659  0.8193 -0.7932  1.0739
  368MOL0     H48525   7.755   8.331   1.426  0.7627 -0.8046  0.4401
  368MOL0     H48526   7.772   8.500   1.449  0.8887  0.6589  2.2935
  368MOL0     H48527   7.888   8.467   1.663  0.2347 -0.2821 -0.0069
  368MOL0     H48528   7.976   8.427   1.525 -1.9235  3.2424 -0.7243
  368MOL0     H48529   7.890   8.149   1.460 -0.2236  1.1875 -0.6011
  368MOL0     H48530   8.006   7.841   1.677  0.4651  0.7352  0.5495
  368MOL0     H48531   7.910   7.876   1.534 -1.2207  0.4320 -0.0468
  368MOL0     H48532   7.698   7.850   1.696 -1.5832  1.2785  2.3820
  368MOL0     H48533   7.802   7.855   1.828 -1.2504  0.7361  0.3532
  368MOL0     H48534   7.820   7.643   1.616  0.4433 -4.4531  1.9352
  368MOL0     H48535   7.918   7.660   1.765  1.0580  3.1723  1.1081
  368MOL0     H48536   7.618   7.602   1.712 -1.4012  0.1993  1.0314
  368MOL0     H48537   7.668   7.652   1.872 -0.1322 -3.1716  1.7343
  368MOL0     H48538   7.479   7.472   1.789 -1.0282 -0.7195 -2.0896
  368MOL0     H48539   7.346   7.270   1.759  0.9531  3.7506  0.7426
  368MOL0     H48540   7.146   6.952   1.929 -3.9270  0.3484  0.3273
  368MOL0     H48541   7.009   6.774   1.950  0.3072  2.2277  0.1937
  368MOL0     H48542   6.814   6.643   1.835  0.0272 -0.1135  0.0936
  368MOL0     H48543   6.906   6.565   1.967 -0.7636 -0.6522  0.6427
  368MOL0     H48544   6.851   6.358   1.857  0.6029  1.9788 -2.5356
  368MOL0     H48545   6.727   6.433   1.766 -0.6452  0.1400  0.3080
  368MOL0     H48546   6.673   6.560   1.993 -0.7866 -0.9018 -2.6349
  368MOL0     H48547   6.728   6.401   2.061 -1.6279 -1.7078  1.1780
  368MOL0     H48548   6.459   6.413   2.004 -2.0387  3.6795 -2.4580
  368MOL0     H48549   6.507   6.451   1.843 -0.3302  0.3253  0.7463
  368MOL0     H48550   6.606   6.197   1.956  2.0340  2.7623  0.7159
  368MOL0     H48551   6.590   6.234   1.789 -0.8188 -0.1394 -0.3482
  368MOL0     H48552   6.372   6.155   1.969 -2.3265 -0.4236 -0.7393
  368MOL0     H48553   6.445   6.075   1.836 -1.3255 -0.6974  0.5095
  368MOL0     H48554   6.286   6.329   1.787  0.9280  0.5621 -0.0337
  368MOL0     H48555   6.314   6.189   1.673  3.3512 -2.7181  1.8038
  368MOL0     H48556   6.133   6.243   1.911  1.4758 -0.3450  1.0746
  368MOL0     H48557   6.151   6.080   1.848  1.6047 -0.5149 -1.6902
  368MOL0     H48558   7.162   6.612   1.573  1.3892 -0.6002  1.7865
  368MOL0     H48559   7.295   6.825   1.555 -0.3609 -2.0894  0.0467
  368MOL0     H48560   7.701   7.030   1.776  1.6948  0.7084  0.4940
  368MOL0     H48561   7.834   7.243   1.815  0.1373  0.4972  1.5017
  368MOL0     H48562   6.887   8.457   1.084 -1.8499 -2.1013 -1.8949
  368MOL0     H48563   6.650   8.461   1.037  0.7465 -0.0007 -0.1292
  368MOL0     H48564   6.256   8.453   1.127 -1.9544 -0.9306 -0.1674
  368MOL0     H48565   6.056   8.458   0.999 -0.7298 -0.7310 -4.7678
  368MOL0     H48566   6.006   8.789   0.665 -0.9805  1.1239 -1.4739
  368MOL0     H48567   5.904   8.827   0.804 -0.3997  2.2911 -1.1640
  368MOL0     H48568   5.758   8.614   0.716  0.9678 -1.7979 -0.8765
  368MOL0     H48569   5.753   8.780   0.644  0.7054  0.9975 -2.2349
  368MOL0     H48570   5.927   8.544   0.538 -0.5467  0.1587  1.4602
  368MOL0     H48571   5.936   8.708   0.476 -2.1490  1.1074  0.8525
  368MOL0     H48572   5.692   8.514   0.442 -0.8597  0.4098  0.6335
  368MOL0     H48573   5.670   8.679   0.451  0.1259  0.4040 -0.6161
  368MOL0     H48574   5.814   8.639   0.067 -2.7058  1.5013 -0.2143
  368MOL0     H48575   6.197   8.831   0.812 -0.9067  0.5045  1.9998
  368MOL0     H48576   6.410   8.794   0.951  0.9896 -0.5972  2.6605
  369MOL0     O48577  11.111  10.132  10.230  0.2520 -0.2325  0.2444
  369MOL0     C48578  11.003  10.188  10.257 -0.0620 -0.4130  0.6154
  369MOL0     O48579  10.905  10.220  10.168 -0.6370 -0.0802 -0.0134
  369MOL0     C48580  10.935  10.256  10.046 -0.4655  0.4354  0.4213
  369MOL0     C48581  11.027  10.354  10.003  0.1446 -0.2718 -0.0503
  369MOL0     C48582  11.050  10.398   9.875  0.2918 -0.3300 -1.3377
  369MOL0     C48583  10.993  10.325   9.772  1.1149  0.4645  0.3420
  369MOL0     O48584  11.002  10.359   9.641 -0.2222  0.1084 -0.4561
  369MOL0     C48585  11.006  10.493   9.608 -0.5608 -0.8099 -0.1916
  369MOL0     C48586  11.152  10.522   9.560 -0.0943 -0.2397 -0.3893
  369MOL0     C48587  11.167  10.521   9.408  0.0134  0.2979 -0.3990
  369MOL0     C48588  11.305  10.575   9.369  0.0673  0.4598 -0.4057
  369MOL0     C48589  11.325  10.554   9.215 -0.0860 -0.1238  0.0666
  369MOL0     C48590  11.462  10.588   9.170  0.2148  0.1957  0.4238
  369MOL0     C48591  11.578  10.501   9.225 -0.8973  0.1918  1.4218
  369MOL0     C48592  11.556  10.350   9.205  0.2099 -0.2932  1.3394
  369MOL0     N48593  11.644  10.260   9.283  0.2374 -0.3486  0.1732
  369MOL0     C48594  11.757  10.294   9.344  0.0381 -0.2112 -0.2119
  369MOL0     C48595  11.811  10.174   9.379  0.4551 -1.0990 -0.6181
  369MOL0     C48596  11.945  10.141   9.426  0.0564  0.0603 -0.4261
  369MOL0     C48597  11.948  10.028   9.528 -0.2285  0.2965 -0.3610
  369MOL0     C48598  11.881  10.056   9.669 -0.3866  0.3407  0.0109
  369MOL0     C48599  11.983  10.107   9.766 -0.0220 -0.1726  0.3851
  369MOL0     O48600  12.056  10.224   9.716  0.1449  0.0066 -0.9493
  369MOL0     C48601  12.076  10.323   9.805  1.4568  0.6248  0.9648
  369MOL0     C48602  12.207  10.361   9.823 -0.1073  0.5405 -0.0631
  369MOL0     C48603  12.243  10.478   9.885  0.6107 -0.2454 -0.4888
  369MOL0     C48604  12.145  10.551   9.951  0.0087 -0.4260 -0.6175
  369MOL0     C48605  12.192  10.651  10.064  0.3401  0.6509 -0.5007
  369MOL0     O48606  12.329  10.662  10.094  0.7485  0.7337  0.4701
  369MOL0     C48607  12.367  10.761  10.183  0.5768  0.3397 -1.5738
  369MOL0     C48608  12.357  10.758  10.326  0.5356  0.1258 -0.4040
  369MOL0     C48609  12.409  10.849  10.408  0.0232 -0.6147  0.0421
  369MOL0     C48610  12.489  10.953  10.345 -0.0217 -1.0560 -0.2353
  369MOL0     O48611  12.538  11.052  10.421 -0.0955  0.3766  0.6844
  369MOL0     C48612  12.669  11.032  10.476  0.1608 -0.7016 -0.1681
  369MOL0     C48613  12.700  11.151  10.560  0.4650  1.3121  0.2854
  369MOL0     C48614  12.596  11.151  10.676  0.2610 -0.0321 -0.3802
  369MOL0     C48615  12.628  11.282  10.744 -0.0779 -0.0320 -1.0770
  369MOL0     C48616  12.555  11.310  10.871  0.3936  0.9922 -0.5824
  369MOL0     C48617  12.542  11.459  10.915  0.0022 -0.6793  0.0664
  369MOL0     C48618  12.500  11.478  11.065 -0.3366  0.5028 -0.6704
  369MOL0     C48619  12.479  11.617  11.118  0.7697  0.6439 -0.0331
  369MOL0    Cl48620  12.632  11.713  11.128  0.3865  0.1307 -0.0985
  369MOL0     C48621  12.497  10.969  10.205  0.0615 -0.4640 -0.0413
  369MOL0     C48622  12.431  10.871  10.124 -0.3991 -0.0786 -0.6691
  369MOL0     O48623  12.096  10.701  10.126  0.2348 -0.0546 -0.0403
  369MOL0     C48624  12.001  10.520   9.932 -0.5424 -0.7129 -0.0408
  369MOL0     C48625  11.972  10.399   9.860  0.3168 -0.5038  0.1624
  369MOL0     N48626  11.717  10.079   9.345 -0.3892  0.0148 -0.1377
  369MOL0     N48627  11.616  10.129   9.295  0.2087  0.8080  0.0885
  369MOL0     C48628  10.886  10.238   9.799 -0.8398  0.0816  1.0601
  369MOL0     C48629  10.854  10.208   9.936  0.4154  0.2750  0.6590
  369MOL0     C48630  10.963  10.208  10.399 -0.8234 -0.2027  0.3683
  369MOL0     C48631  10.850  10.287  10.432  0.3776  0.4549 -0.0099
  369MOL0     C48632  10.802  10.303  10.557 -0.4175  0.0222  0.2883
  369MOL0     C48633  10.869  10.244  10.658 -0.4141  0.4484 -0.5262
  369MOL0     O48634  10.803  10.248  10.785 -1.1053  0.2654 -0.1016
  369MOL0     C48635  10.870  10.180  10.899 -0.7786 -0.9952 -0.5014
  369MOL0     C48636  10.801  10.196  11.040 -1.0328 -0.2446  0.5652
  369MOL0     C48637  10.669  10.259  11.028  0.0424 -0.2128  0.4025
  369MOL0     C48638  10.569  10.247  11.144 -0.0141  0.5215  0.4528
  369MOL0     C48639  10.538  10.110  11.188  0.5306 -0.8769  0.4338
  369MOL0     C48640  10.511   9.999  11.237 -0.4589 -0.0382 -0.2160
  369MOL0     C48641  10.996  10.172  10.639  0.7888 -0.4491  0.3636
  369MOL0     C48642  11.034  10.156  10.505 -0.0966  0.7385  0.4661
  369MOL0     H48643  11.100  10.387  10.077  0.4488 -0.4855 -0.2554
  369MOL0     H48644  11.115  10.482   9.852 -2.7685  2.4680 -0.5379
  369MOL0     H48645  10.981  10.551   9.697  0.7184 -0.1181 -0.2544
  369MOL0     H48646  10.931  10.526   9.535 -3.2642 -3.1757  1.3441
  369MOL0     H48647  11.214  10.444   9.606 -0.5969 -0.6336 -0.3663
  369MOL0     H48648  11.196  10.617   9.591  0.3631  0.0530 -1.8372
  369MOL0     H48649  11.097  10.584   9.353  1.3092  0.2462 -2.1645
  369MOL0     H48650  11.159  10.419   9.370 -0.0075  0.6755 -1.4314
  369MOL0     H48651  11.321  10.677   9.404  0.8105  0.2946 -0.2569
  369MOL0     H48652  11.381  10.514   9.417 -1.0119  0.8945  1.9949
  369MOL0     H48653  11.255  10.616   9.158  4.1074  2.9970 -2.3312
  369MOL0     H48654  11.309  10.451   9.182  0.9118 -0.5798  0.9651
  369MOL0     H48655  11.485  10.692   9.198 -2.0472  0.8395  0.1084
  369MOL0     H48656  11.453  10.578   9.061  1.6216  0.9306  0.2143
  369MOL0     H48657  11.667  10.526   9.166  0.2071 -2.7736  1.6732
  369MOL0     H48658  11.604  10.524   9.329  0.1596 -0.9705  1.4316
  369MOL0     H48659  11.578  10.329   9.099  0.4917  2.5262  0.7645
  369MOL0     H48660  11.461  10.315   9.245 -1.2729 -1.1923 -2.5453
  369MOL0     H48661  11.802  10.393   9.351 -0.2432  0.0842 -2.0731
  369MOL0     H48662  11.975  10.239   9.462 -3.0373  0.4132  1.6116
  369MOL0     H48663  11.998  10.111   9.335 -0.1541 -1.0965 -0.1854
  369MOL0     H48664  12.054  10.001   9.540 -0.5758 -0.3634  1.5256
  369MOL0     H48665  11.915   9.937   9.477  3.6628 -0.6122 -1.6019
  369MOL0     H48666  11.803  10.132   9.655  1.9721  3.1155  1.0863
  369MOL0     H48667  11.846   9.958   9.704  1.1394 -0.6081 -0.9813
  369MOL0     H48668  12.063  10.034   9.780  2.1474  2.2383  1.3340
  369MOL0     H48669  11.932  10.120   9.862 -2.2483  0.2297 -0.7832
  369MOL0     H48670  12.279  10.299   9.772 -1.4795 -1.0645 -0.1143
  369MOL0     H48671  12.351  10.490   9.892  0.7163 -0.3609 -1.7273
  369MOL0     H48672  12.309  10.671  10.370  0.0904  1.2252  1.3823
  369MOL0     H48673  12.379  10.841  10.512 -2.2403  1.9072 -0.3106
  369MOL0     H48674  12.740  11.018  10.394 -0.9644 -2.8730 -0.8547
  369MOL0     H48675  12.670  10.939  10.533 -2.1575 -0.7072 -0.0602
  369MOL0     H48676  12.683  11.234  10.491  0.5469  1.9171  0.9737
  369MOL0     H48677  12.809  11.155  10.575  0.9359 -0.8183 -2.0100
  369MOL0     H48678  12.606  11.060  10.736  0.1784  0.2103  0.0041
  369MOL0     H48679  12.492  11.153  10.642 -0.6381  2.2760  2.1437
  369MOL0     H48680  12.735  11.278  10.765 -0.2768  0.7738  0.1935
  369MOL0     H48681  12.610  11.371  10.684  2.7169  1.1285 -0.3555
  369MOL0     H48682  12.619  11.257  10.943  1.6355 -0.0307 -2.3675
  369MOL0     H48683  12.452  11.273  10.871  0.1315  1.6584 -2.2005
  369MOL0     H48684  12.467  11.514  10.857  0.5205  0.8017  0.7527
  369MOL0     H48685  12.638  11.509  10.905 -0.0241  0.0764  2.6830
  369MOL0     H48686  12.416  11.414  11.095 -0.9519  0.6907 -1.9319
  369MOL0     H48687  12.592  11.439  11.110  0.9399  1.9870 -1.8852
  369MOL0     H48688  12.445  11.616  11.222  1.0121  1.9412  0.0823
  369MOL0     H48689  12.406  11.678  11.064 -0.7756 -2.2515 -1.4190
  369MOL0     H48690  12.556  11.047  10.159  0.5276 -1.2597 -0.8269
  369MOL0     H48691  12.425  10.877  10.016  2.0645  0.3962 -0.8239
  369MOL0     H48692  11.921  10.581   9.973 -0.9899  0.4564 -2.4704
  369MOL0     H48693  11.870  10.364   9.850  0.4448 -0.3399 -2.5576
  369MOL0     H48694  10.829  10.194   9.718  2.5536  0.7626 -1.9835
  369MOL0     H48695  10.768  10.146   9.960  0.7734 -1.1583 -1.5374
  369MOL0     H48696  10.803  10.331  10.344 -0.9518 -2.5155 -0.9103
  369MOL0     H48697  10.723  10.375  10.575 -0.2507  0.6581 -1.3929
  369MOL0     H48698  10.974  10.213  10.904 -0.8530 -0.9577  1.7823
  369MOL0     H48699  10.872  10.072  10.883  0.4744 -0.5159 -4.4713
  369MOL0     H48700  10.787  10.098  11.086  1.7306 -1.7736 -1.5668
  369MOL0     H48701  10.864  10.251  11.111 -1.6306  0.1526  0.7987
  369MOL0     H48702  10.625  10.201  10.946  1.7249  0.3270 -0.9344
  369MOL0     H48703  10.676  10.365  11.002  0.9217 -0.4040 -0.1514
  369MOL0     H48704  10.610  10.303  11.229  1.5692  0.2099 -0.0754
  369MOL0     H48705  10.469  10.288  11.125  0.1975  1.4349  1.2217
  369MOL0     H48706  10.483   9.908  11.285 -0.5732  0.4620  0.6828
  369MOL0     H48707  11.058  10.124  10.714  1.6776  4.5403  3.3248
  369MOL0     H48708  11.125  10.105  10.476  0.6851  2.3939 -0.1096
  370MOL0     O48709  10.716   1.629   4.220  0.1052  0.4453 -0.3254
  370MOL0     C48710  10.616   1.599   4.277  0.1688 -0.2278  0.3762
  370MOL0     O48711  10.488   1.620   4.231 -0.1326 -0.0366  0.3260
  370MOL0     C48712  10.462   1.667   4.108  0.1456  0.1928 -0.1843
  370MOL0     C48713  10.419   1.583   4.003  0.7149  1.4675 -0.0816
  370MOL0     C48714  10.394   1.638   3.876 -0.2550  0.4101  0.1376
  370MOL0     C48715  10.407   1.781   3.862 -0.1757  0.7753 -0.2321
  370MOL0     O48716  10.382   1.831   3.742 -0.7799 -0.0793  0.5907
  370MOL0     C48717  10.285   1.779   3.649  0.5416  0.2655 -0.5536
  370MOL0     C48718  10.283   1.862   3.523  0.1496 -0.0701  0.2724
  370MOL0     C48719  10.164   1.850   3.415  0.3633  0.0414 -0.2363
  370MOL0     C48720  10.196   1.931   3.296  0.4256  0.6718 -0.1844
  370MOL0     C48721  10.073   1.941   3.202 -0.6679 -0.3352  0.5134
  370MOL0     C48722  10.108   1.994   3.057  0.3736 -0.8038 -0.5492
  370MOL0     C48723   9.986   2.041   2.978  0.0617  0.7114 -0.8772
  370MOL0     C48724   9.882   1.923   2.974  0.2762 -0.3374  0.2983
  370MOL0     N48725   9.771   1.932   2.871 -0.1282  0.2232  0.3381
  370MOL0     C48726   9.731   2.053   2.825 -0.6959  0.3619  0.3766
  370MOL0     C48727   9.616   2.026   2.756  0.1114 -0.9645  0.6057
  370MOL0     C48728   9.563   2.138   2.670 -0.7187  0.7877  0.0466
  370MOL0     C48729   9.409   2.105   2.630  0.3106 -0.3819  0.3608
  370MOL0     C48730   9.380   2.186   2.498 -0.6493 -1.0569 -0.0697
  370MOL0     C48731   9.246   2.153   2.440  0.6732 -0.0150 -0.4654
  370MOL0     O48732   9.227   2.250   2.339 -0.3003 -0.5661 -0.1860
  370MOL0     C48733   9.099   2.260   2.278  0.5150  0.6109 -0.2246
  370MOL0     C48734   8.989   2.169   2.304  0.0067 -0.4757  0.0226
  370MOL0     C48735   8.872   2.185   2.235  1.4720  0.0356 -0.0004
  370MOL0     C48736   8.852   2.278   2.135 -1.3881 -1.1327  0.2170
  370MOL0     C48737   8.726   2.294   2.058  0.0002  0.4159 -0.4718
  370MOL0     O48738   8.689   2.426   2.027  0.1830 -0.1839  0.7324
  370MOL0     C48739   8.581   2.453   1.941 -1.1097 -0.9430 -1.2333
  370MOL0     C48740   8.471   2.364   1.927  0.5377  0.1763  0.0135
  370MOL0     C48741   8.374   2.378   1.828 -1.1792  0.4238 -0.0640
  370MOL0     C48742   8.380   2.490   1.739  0.0581 -0.1314 -0.2397
  370MOL0     O48743   8.298   2.517   1.631 -0.1076 -0.7141  0.6568
  370MOL0     C48744   8.234   2.407   1.564 -0.4701  0.1695 -0.3014
  370MOL0     C48745   8.171   2.449   1.435 -0.1152 -0.0154  0.0509
  370MOL0     C48746   8.047   2.532   1.473  0.1341 -0.3141 -0.2166
  370MOL0     C48747   7.961   2.556   1.341 -1.0969 -0.3949  0.5028
  370MOL0     C48748   7.867   2.679   1.338  0.0321  0.0752  0.1388
  370MOL0     C48749   7.784   2.660   1.214 -0.1700  0.4213  0.5364
  370MOL0     C48750   7.667   2.759   1.195  0.1170  0.0631 -0.1630
  370MOL0     C48751   7.591   2.749   1.065  0.2022 -0.4111  0.1375
  370MOL0    Cl48752   7.515   2.593   1.032  0.1886  0.1889 -0.3281
  370MOL0     C48753   8.485   2.586   1.766 -0.3521 -0.0306  0.3373
  370MOL0     C48754   8.586   2.564   1.862 -0.5773 -1.1834  0.6126
  370MOL0     O48755   8.676   2.189   2.020 -0.0480 -0.2305 -0.4262
  370MOL0     C48756   8.958   2.366   2.100 -0.1409 -0.3951 -0.0703
  370MOL0     C48757   9.087   2.358   2.170  0.4427  0.2621 -0.1277
  370MOL0     N48758   9.582   1.898   2.775  0.2547  0.3446 -0.2824
  370MOL0     N48759   9.681   1.838   2.850 -0.8232  0.1096 -0.5314
  370MOL0     C48760  10.437   1.862   3.969 -0.5433  0.2176  0.6707
  370MOL0     C48761  10.470   1.807   4.095 -0.0700 -0.1825  0.7561
  370MOL0     C48762  10.634   1.520   4.404  1.0879  0.6517 -0.1705
  370MOL0     C48763  10.747   1.436   4.419 -0.6318 -0.5801 -0.2969
  370MOL0     C48764  10.752   1.363   4.542  0.7342  0.0196  0.3916
  370MOL0     C48765  10.656   1.367   4.639  0.9780 -0.0211  0.7903
  370MOL0     O48766  10.682   1.304   4.763 -0.2908 -0.1134 -0.1291
  370MOL0     C48767  10.581   1.301   4.864  0.3397  0.4519  0.5829
  370MOL0     C48768  10.606   1.171   4.944  0.1235 -0.0217  0.1472
  370MOL0     C48769  10.528   1.168   5.077 -1.2659 -1.1066 -0.1681
  370MOL0     C48770  10.541   1.035   5.157 -0.5123  0.2396  0.3780
  370MOL0     C48771  10.437   1.013   5.255  0.5073 -0.1569  0.1878
  370MOL0     C48772  10.346   0.989   5.331  0.0242 -0.8094 -0.4472
  370MOL0     C48773  10.552   1.457   4.617  0.5305  0.0136 -0.6319
  370MOL0     C48774  10.535   1.529   4.502  1.0256  0.4542 -0.1388
  370MOL0     H48775  10.402   1.477   4.015  0.8947  1.6506  2.0759
  370MOL0     H48776  10.358   1.580   3.792 -1.0468  1.7429 -0.4679
  370MOL0     H48777  10.191   1.781   3.705  1.5630  1.7289  1.2020
  370MOL0     H48778  10.317   1.678   3.621  2.0542 -0.1437  2.3017
  370MOL0     H48779  10.378   1.848   3.470  0.5178  1.0402  0.6052
  370MOL0     H48780  10.282   1.971   3.535  0.7217  0.0632 -0.7193
  370MOL0     H48781  10.072   1.878   3.468  0.2833 -1.1942  0.3273
  370MOL0     H48782  10.148   1.746   3.382  2.6317  0.5098 -3.2003
  370MOL0     H48783  10.231   2.033   3.315  0.7512  0.4086  0.6985
  370MOL0     H48784  10.281   1.878   3.253  1.0926 -0.8117  2.7276
  370MOL0     H48785  10.003   2.016   3.239 -1.0994 -1.5013  2.1816
  370MOL0     H48786  10.030   1.840   3.201 -0.7304 -0.3064  0.2429
  370MOL0     H48787  10.168   1.922   3.003 -1.3079 -2.7765  0.0540
  370MOL0     H48788  10.180   2.076   3.061  1.7148 -1.9711 -0.4715
  370MOL0     H48789   9.955   2.134   3.027  0.7041 -0.0164  0.9930
  370MOL0     H48790  10.025   2.058   2.877  2.9626 -2.3468 -0.4074
  370MOL0     H48791   9.835   1.907   3.071 -1.9640 -4.6763 -1.2358
  370MOL0     H48792   9.930   1.827   2.955 -2.5436 -1.1978 -3.7334
  370MOL0     H48793   9.784   2.148   2.828  0.4989 -0.2247 -1.0119
  370MOL0     H48794   9.620   2.141   2.576 -0.0511 -1.4018  0.3347
  370MOL0     H48795   9.586   2.225   2.732  1.8168  1.3663 -1.5576
  370MOL0     H48796   9.347   2.129   2.717 -1.8790 -2.3955 -0.5425
  370MOL0     H48797   9.393   2.000   2.603 -0.2581 -0.1304 -0.2846
  370MOL0     H48798   9.385   2.294   2.517  1.3906 -0.4080 -3.5091
  370MOL0     H48799   9.455   2.175   2.419 -2.2752 -0.4903 -1.7569
  370MOL0     H48800   9.177   2.175   2.522  3.8592  2.9097  1.7193
  370MOL0     H48801   9.241   2.048   2.410 -2.6782  0.2278 -1.0618
  370MOL0     H48802   8.991   2.091   2.379 -0.7703 -0.5074  0.0237
  370MOL0     H48803   8.802   2.102   2.241  1.6859 -0.1388  0.1413
  370MOL0     H48804   8.451   2.284   1.997 -3.3849  0.8779 -0.0890
  370MOL0     H48805   8.287   2.313   1.831  1.4484 -3.4494  0.1514
  370MOL0     H48806   8.164   2.355   1.630  2.2807 -0.8582  1.9819
  370MOL0     H48807   8.313   2.337   1.537  0.7808  1.1514  0.7220
  370MOL0     H48808   8.159   2.357   1.377 -0.7077 -1.9600  3.0202
  370MOL0     H48809   8.229   2.527   1.384  0.6653  0.0244  0.9823
  370MOL0     H48810   8.077   2.633   1.502 -0.3751 -0.1022 -0.4123
  370MOL0     H48811   7.983   2.498   1.555  0.1517  1.4554  0.5794
  370MOL0     H48812   8.028   2.584   1.260 -0.5125  0.1189  1.1480
  370MOL0     H48813   7.914   2.464   1.306  0.5530 -0.3306 -2.1349
  370MOL0     H48814   7.913   2.778   1.338  0.4351 -0.0714  1.9707
  370MOL0     H48815   7.807   2.658   1.427  0.8250 -2.8683  0.1039
  370MOL0     H48816   7.739   2.561   1.222 -1.5982  0.6613 -2.8231
  370MOL0     H48817   7.843   2.672   1.122 -0.5331 -0.4944  0.1736
  370MOL0     H48818   7.602   2.737   1.281 -0.6347  0.5135 -0.6050
  370MOL0     H48819   7.694   2.864   1.209  0.5841  0.0619 -1.0092
  370MOL0     H48820   7.662   2.774   0.986  0.3159  0.7774  0.5986
  370MOL0     H48821   7.516   2.828   1.067  1.3026  0.6631  1.5879
  370MOL0     H48822   8.481   2.681   1.714 -4.2210  2.2335  4.1037
  370MOL0     H48823   8.668   2.633   1.876 -1.0663 -0.5660  0.4580
  370MOL0     H48824   8.943   2.449   2.032  1.9149  1.0530  1.1200
  370MOL0     H48825   9.177   2.414   2.145  4.7255 -4.6168  2.5181
  370MOL0     H48826  10.437   1.968   3.947  1.0209  0.1128  0.0301
  370MOL0     H48827  10.499   1.883   4.166  1.2364  2.7932 -2.6447
  370MOL0     H48828  10.834   1.443   4.355 -0.3896  2.2642  0.1743
  370MOL0     H48829  10.846   1.310   4.558  1.0897  0.7828  0.9071
  370MOL0     H48830  10.478   1.305   4.827  0.6761  0.8153 -0.3485
  370MOL0     H48831  10.587   1.388   4.930 -3.5393  1.3582  0.0331
  370MOL0     H48832  10.586   1.080   4.888 -0.5260 -1.0283  1.9555
  370MOL0     H48833  10.714   1.172   4.963 -0.0813  0.0364  1.3688
  370MOL0     H48834  10.425   1.199   5.060 -0.2572  1.8643 -1.4400
  370MOL0     H48835  10.565   1.248   5.142  1.4674 -1.9285 -0.5684
  370MOL0     H48836  10.519   0.955   5.087 -0.1794  0.7968 -0.3784
  370MOL0     H48837  10.631   1.028   5.220 -0.3519 -1.3448  0.0070
  370MOL0     H48838  10.255   0.981   5.386 -0.7170 -1.0040 -1.6586
  370MOL0     H48839  10.477   1.486   4.690 -0.6381 -3.2042 -0.4050
  370MOL0     H48840  10.440   1.579   4.493 -0.9285 -3.0847 -1.0357
  371MOL0     O48841   9.801   8.817   0.328  0.1268 -0.3810  0.8498
  371MOL0     C48842   9.819   8.941   0.343  1.3127 -0.6372  0.9668
  371MOL0     O48843   9.722   9.042   0.336 -0.0594 -0.3455  0.9171
  371MOL0     C48844   9.593   9.014   0.306 -1.1546  0.2210  0.5239
  371MOL0     C48845   9.532   9.078   0.200 -0.5582 -0.3043 -1.1797
  371MOL0     C48846   9.398   9.046   0.170 -0.1621  0.0874  0.1564
  371MOL0     C48847   9.322   8.954   0.240  0.0005  1.4527 -0.7469
  371MOL0     O48848   9.192   8.916   0.226 -0.0336 -0.0945  0.6135
  371MOL0     C48849   9.180   8.809   0.132  0.6843 -0.1375  0.6440
  371MOL0     C48850   9.027   8.780   0.123 -0.0842  0.4889 -0.0168
  371MOL0     C48851   8.969   8.735   0.254 -1.7906 -1.0709 -1.2744
  371MOL0     C48852   8.824   8.688   0.236  0.5126  0.0266  0.5069
  371MOL0     C48853   8.796   8.539   0.262 -0.0552  0.0250 -0.4155
  371MOL0     C48854   8.848   8.472   0.129  0.3173 -0.9930  0.1155
  371MOL0     C48855   8.837   8.329   0.132  0.2851  0.1029  0.3627
  371MOL0     C48856   8.864   8.258  -0.009 -0.2825 -0.1010 -1.0366
  371MOL0     N48857   8.761   8.301  -0.104  0.0125 -0.7538 -0.0893
  371MOL0     C48858   8.629   8.266  -0.089  0.5601 -0.1315  1.2864
  371MOL0     C48859   8.564   8.357  -0.171 -0.4865  0.5257 -0.8485
  371MOL0     C48860   8.412   8.363  -0.179  0.1813 -0.2368 -0.7102
  371MOL0     C48861   8.352   8.328  -0.313  0.7832  0.1257  0.3838
  371MOL0     C48862   8.203   8.359  -0.299 -0.5201 -0.8652 -0.7096
  371MOL0     C48863   8.143   8.322  -0.433  0.7213  0.4532 -0.0576
  371MOL0     O48864   8.006   8.336  -0.406  0.3086 -0.9444  0.3470
  371MOL0     C48865   7.903   8.286  -0.491 -0.2591 -0.1285 -0.9098
  371MOL0     C48866   7.797   8.376  -0.518  0.4016  0.7566  0.1991
  371MOL0     C48867   7.683   8.340  -0.600  0.8895  0.5089  0.5863
  371MOL0     C48868   7.677   8.212  -0.651  1.0409  0.3187  0.2285
  371MOL0     C48869   7.553   8.175  -0.728  0.3977  0.2280 -0.6026
  371MOL0     O48870   7.477   8.280  -0.774 -0.3238 -0.3573  0.0221
  371MOL0     C48871   7.354   8.244  -0.822  0.4813  0.2234 -0.5089
  371MOL0     C48872   7.318   8.243  -0.957 -0.2468  0.4578  0.2395
  371MOL0     C48873   7.197   8.196  -0.999 -0.0586 -0.3762  1.1038
  371MOL0     C48874   7.107   8.144  -0.912 -0.0003 -0.1345  0.0224
  371MOL0     O48875   7.001   8.080  -0.968 -0.1313 -0.0534 -0.0829
  371MOL0     C48876   6.943   7.970  -0.899 -0.7298 -0.5870 -0.8496
  371MOL0     C48877   6.853   7.897  -0.995  0.6253  0.2958 -0.3960
  371MOL0     C48878   6.790   7.768  -0.938 -0.1901 -0.2085  0.0578
  371MOL0     C48879   6.884   7.662  -0.869 -1.1235 -0.3972  0.5847
  371MOL0     C48880   6.998   7.625  -0.960 -0.0031  0.0126 -0.1023
  371MOL0     C48881   7.059   7.492  -0.901 -0.9284  0.1581 -0.6445
  371MOL0     C48882   7.127   7.504  -0.771  0.5538  0.5961 -0.2222
  371MOL0     C48883   7.179   7.366  -0.723  0.4483 -0.1580  0.5559
  371MOL0    Cl48884   7.253   7.257  -0.849 -0.0716  0.3130 -0.2030
  371MOL0     C48885   7.140   8.153  -0.774 -1.3702 -0.2983 -0.4321
  371MOL0     C48886   7.265   8.204  -0.722 -0.0909  0.1125 -0.2780
  371MOL0     O48887   7.523   8.055  -0.748 -0.1950 -0.5858  0.4265
  371MOL0     C48888   7.791   8.125  -0.644 -0.7864 -0.1263 -0.7795
  371MOL0     C48889   7.900   8.162  -0.557  0.2151 -1.1923 -0.0726
  371MOL0     N48890   8.657   8.439  -0.227  0.1184 -0.0281  0.4015
  371MOL0     N48891   8.776   8.415  -0.182 -0.4849 -0.6692  0.5305
  371MOL0     C48892   9.387   8.894   0.359  0.3995 -0.1064 -0.1679
  371MOL0     C48893   9.525   8.913   0.380 -0.9293  0.5491 -0.1425
  371MOL0     C48894   9.959   8.982   0.362  0.5366 -0.0550 -0.4935
  371MOL0     C48895  10.060   8.910   0.295  0.1200 -0.4111  0.0867
  371MOL0     C48896  10.197   8.950   0.318  0.0054  1.1084  0.6458
  371MOL0     C48897  10.229   9.056   0.404  0.5603 -0.1017 -0.7527
  371MOL0     O48898  10.356   9.097   0.443 -0.7008  0.0226  0.2851
  371MOL0     C48899  10.459   9.052   0.360 -0.5901 -0.2652 -0.3221
  371MOL0     C48900  10.576   9.147   0.378 -0.6606 -0.4596  0.0564
  371MOL0     C48901  10.535   9.286   0.336  0.2491  0.1449  0.4701
  371MOL0     C48902  10.600   9.401   0.415 -0.6411 -0.0347  0.1522
  371MOL0     C48903  10.545   9.406   0.552 -0.1035  1.2933  0.5652
  371MOL0     C48904  10.506   9.399   0.666 -0.3216 -0.2306 -0.2932
  371MOL0     C48905  10.131   9.140   0.458 -0.2378  0.4524  0.1430
  371MOL0     C48906   9.993   9.106   0.430 -0.7279 -0.1870  0.9267
  371MOL0     H48907   9.575   9.161   0.146 -2.1886 -0.0976 -2.2514
  371MOL0     H48908   9.362   9.100   0.083 -1.3478  1.8531  1.6662
  371MOL0     H48909   9.235   8.728   0.182 -0.2580  0.6656  3.1076
  371MOL0     H48910   9.224   8.839   0.036 -2.9946  1.1569 -0.8135
  371MOL0     H48911   9.003   8.703   0.050 -0.3472 -2.1281  2.6654
  371MOL0     H48912   8.972   8.870   0.092  0.4679  0.0856 -2.3793
  371MOL0     H48913   8.989   8.815   0.325 -2.4372 -0.4474 -1.7795
  371MOL0     H48914   9.028   8.647   0.280  0.0882 -0.0707 -1.9253
  371MOL0     H48915   8.765   8.740   0.312  0.0031 -1.4264  1.1363
  371MOL0     H48916   8.794   8.712   0.134 -0.8362  0.0944  0.9057
  371MOL0     H48917   8.688   8.523   0.267  0.0441 -1.3360 -1.8359
  371MOL0     H48918   8.842   8.497   0.352 -1.1818 -2.5114 -0.9374
  371MOL0     H48919   8.950   8.496   0.097  1.0228 -0.8336  2.2888
  371MOL0     H48920   8.782   8.517   0.055 -2.2126 -0.0258  2.7545
  371MOL0     H48921   8.903   8.275   0.201 -1.2507 -1.4649  0.6568
  371MOL0     H48922   8.730   8.315   0.149  0.3862  0.1599  1.0839
  371MOL0     H48923   8.846   8.152   0.010 -3.0263  0.5409  0.4310
  371MOL0     H48924   8.970   8.270  -0.033  0.5262 -0.7774  1.7303
  371MOL0     H48925   8.583   8.187  -0.030 -1.4810  2.0311  2.7251
  371MOL0     H48926   8.390   8.467  -0.152  2.7131 -0.5704  3.6381
  371MOL0     H48927   8.375   8.311  -0.089  4.3630  0.7557  1.8454
  371MOL0     H48928   8.360   8.219  -0.318  0.4529  0.1537 -1.7300
  371MOL0     H48929   8.400   8.373  -0.401 -0.9348 -1.1170 -1.2736
  371MOL0     H48930   8.165   8.303  -0.213  2.2794  0.4680  1.5755
  371MOL0     H48931   8.175   8.464  -0.282 -0.3535 -1.1327  1.4743
  371MOL0     H48932   8.155   8.218  -0.465  1.2909  1.1492 -2.2917
  371MOL0     H48933   8.181   8.386  -0.513 -0.1375  0.0010 -0.8413
  371MOL0     H48934   7.784   8.478  -0.485  2.0485  1.9155 -2.4627
  371MOL0     H48935   7.620   8.426  -0.621  0.6185 -0.1137 -1.3931
  371MOL0     H48936   7.408   8.245  -1.018  0.0001  1.4842  0.6179
  371MOL0     H48937   7.181   8.181  -1.105  0.0776 -1.0334  1.1736
  371MOL0     H48938   6.885   8.002  -0.813 -3.2984  0.8406 -2.9541
  371MOL0     H48939   7.018   7.901  -0.857 -0.4310  0.4162  0.3084
  371MOL0     H48940   6.892   7.887  -1.097  3.2005  2.4319  0.2488
  371MOL0     H48941   6.764   7.961  -0.991 -0.1072 -0.5525 -2.1445
  371MOL0     H48942   6.741   7.711  -1.017  0.5971  0.3609 -0.8648
  371MOL0     H48943   6.715   7.798  -0.864 -2.0759 -1.3654 -1.3041
  371MOL0     H48944   6.927   7.710  -0.781  0.6049 -2.2914  0.8396
  371MOL0     H48945   6.831   7.577  -0.824  0.7303 -3.1147 -1.9987
  371MOL0     H48946   7.076   7.701  -0.966 -0.4023  0.6751  2.2926
  371MOL0     H48947   6.963   7.597  -1.060 -0.4247 -1.5747  0.4593
  371MOL0     H48948   7.133   7.456  -0.973 -1.4422 -4.3418  0.7757
  371MOL0     H48949   6.977   7.420  -0.898 -1.7876  1.0962  2.5235
  371MOL0     H48950   7.208   7.576  -0.784  1.6570 -0.7450 -1.0464
  371MOL0     H48951   7.059   7.542  -0.695 -2.3642 -1.3411 -1.6855
  371MOL0     H48952   7.095   7.309  -0.682 -1.0601  1.1511 -0.5520
  371MOL0     H48953   7.259   7.390  -0.653  1.4368 -0.7662 -0.3427
  371MOL0     H48954   7.068   8.121  -0.700 -2.1093 -0.1231 -1.0528
  371MOL0     H48955   7.285   8.215  -0.616 -2.3594 -1.1769  0.3523
  371MOL0     H48956   7.804   8.028  -0.690  2.8018 -0.7282  1.1482
  371MOL0     H48957   7.988   8.098  -0.554  3.3712  2.7179  0.3122
  371MOL0     H48958   9.329   8.819   0.411  1.1954 -0.9363 -0.4442
  371MOL0     H48959   9.578   8.852   0.452 -1.8171  0.2715  0.2927
  371MOL0     H48960  10.040   8.836   0.219 -1.0551 -1.5853  1.4752
  371MOL0     H48961  10.277   8.903   0.262 -0.8969  0.5453 -0.1895
  371MOL0     H48962  10.427   9.056   0.255 -1.4237 -1.8016 -0.1492
  371MOL0     H48963  10.495   8.955   0.393  1.3652  0.2951 -0.6955
  371MOL0     H48964  10.619   9.164   0.478  0.5648  1.0379 -0.6870
  371MOL0     H48965  10.662   9.107   0.324  0.9866  1.5401  1.0655
  371MOL0     H48966  10.427   9.295   0.326  0.5463  3.4283 -1.3456
  371MOL0     H48967  10.565   9.305   0.232  1.8606 -2.5164  0.3691
  371MOL0     H48968  10.706   9.376   0.426 -1.3710 -3.4248  0.9350
  371MOL0     H48969  10.591   9.503   0.377  2.0893  1.8139  3.7386
  371MOL0     H48970  10.459   9.405   0.762 -1.5930 -1.4371 -0.8053
  371MOL0     H48971  10.150   9.224   0.524 -1.8461  1.4093 -0.5371
  371MOL0     H48972   9.906   9.164   0.462 -0.1469  0.1926  1.8437
  372MOL0     O48973   3.939   3.563  11.047 -0.2009  0.2270  0.7026
  372MOL0     C48974   3.984   3.678  11.046  0.2378 -0.7804  0.4545
  372MOL0     O48975   3.934   3.783  10.970 -0.2788 -0.4025 -0.2310
  372MOL0     C48976   3.839   3.752  10.879  0.3268 -0.2583  0.2454
  372MOL0     C48977   3.710   3.722  10.912  0.0570 -0.0090  0.5315
  372MOL0     C48978   3.612   3.666  10.832  0.2670 -0.3901 -0.5644
  372MOL0     C48979   3.642   3.637  10.696 -0.0548 -0.6295 -0.2093
  372MOL0     O48980   3.547   3.581  10.619  0.6160  0.1966  0.4589
  372MOL0     C48981   3.487   3.452  10.665 -0.9206 -0.8870  0.8677
  372MOL0     C48982   3.338   3.475  10.706 -0.0843  0.2534  0.2664
  372MOL0     C48983   3.247   3.544  10.604  0.6859  0.3991 -0.7182
  372MOL0     C48984   3.101   3.562  10.650  0.7103 -0.5454 -1.1312
  372MOL0     C48985   2.992   3.565  10.537  0.1046  0.8457  0.2596
  372MOL0     C48986   2.851   3.532  10.594 -0.0014 -1.0105 -0.4074
  372MOL0     C48987   2.742   3.532  10.484 -0.2243  0.7295 -0.6707
  372MOL0     C48988   2.715   3.388  10.418 -0.3867 -0.9756 -0.2640
  372MOL0     N48989   2.574   3.372  10.384 -0.0594 -0.2025  1.1025
  372MOL0     C48990   2.491   3.456  10.316  0.1382 -0.1307  0.2743
  372MOL0     C48991   2.381   3.382  10.286 -0.5802 -0.2889  0.2822
  372MOL0     C48992   2.263   3.427  10.198 -0.5316 -0.4589 -0.2543
  372MOL0     C48993   2.151   3.501  10.279 -0.1651  0.3179 -0.3716
  372MOL0     C48994   2.032   3.516  10.191  0.7657 -0.5691 -1.2299
  372MOL0     C48995   1.935   3.638  10.226  0.0708 -0.4301  0.2776
  372MOL0     O48996   1.831   3.644  10.116 -0.3184  0.5906  0.2474
  372MOL0     C48997   1.715   3.701  10.158 -0.2087 -0.2189 -0.0813
  372MOL0     C48998   1.690   3.809  10.255 -0.2043  0.5060 -0.6598
  372MOL0     C48999   1.569   3.867  10.273  1.1308  0.1674  0.8146
  372MOL0     C49000   1.456   3.821  10.195 -0.2660 -0.2451  0.8422
  372MOL0     C49001   1.321   3.886  10.210  0.4607 -0.3732 -0.5443
  372MOL0     O49002   1.296   3.983  10.306 -0.1264  0.2692  0.9330
  372MOL0     C49003   1.170   4.015  10.340 -0.4005 -0.4753  0.5253
  372MOL0     C49004   1.058   3.942  10.324  2.1391  0.2047 -0.3312
  372MOL0     C49005   0.933   3.989  10.361  0.3610 -0.2694 -0.2026
  372MOL0     C49006   0.918   4.116  10.420 -0.6160  0.2130 -0.4996
  372MOL0     O49007   0.790   4.154  10.439 -0.0052 -0.3793 -0.1791
  372MOL0     C49008   0.756   4.293  10.458 -0.8027 -0.3138  0.3667
  372MOL0     C49009   0.615   4.306  10.505  0.3943 -0.2694  0.5918
  372MOL0     C49010   0.510   4.269  10.391 -0.3445  0.9137 -0.2877
  372MOL0     C49011   0.364   4.281  10.434 -0.2333 -0.4525 -0.0614
  372MOL0     C49012   0.313   4.421  10.426  0.6806  0.2905  0.3026
  372MOL0     C49013   0.235   4.470  10.550 -0.2250  0.7231  0.1683
  372MOL0     C49014   0.206   4.622  10.565  0.0583 -0.2174 -0.9161
  372MOL0     C49015   0.296   4.684  10.659  0.6170  0.8332 -0.6159
  372MOL0    Cl49016   0.266   4.845  10.671 -0.1215 -0.3545  0.6001
  372MOL0     C49017   1.037   4.177  10.453 -0.4954 -0.4028 -0.1732
  372MOL0     C49018   1.164   4.131  10.422 -0.8086 -0.7745  0.4634
  372MOL0     O49019   1.238   3.828  10.142  0.2791  0.0748 -0.5611
  372MOL0     C49020   1.485   3.719  10.104  0.1136  0.0060  0.0233
  372MOL0     C49021   1.604   3.665  10.080 -0.6027  0.1458 -0.3933
  372MOL0     N49022   2.385   3.257  10.348  0.0439  0.6725  0.6842
  372MOL0     N49023   2.499   3.263  10.411 -0.6627  0.8021 -0.2319
  372MOL0     C49024   3.771   3.665  10.653 -0.4550 -0.2258 -0.0163
  372MOL0     C49025   3.868   3.727  10.742  0.6016  0.2700  0.5186
  372MOL0     C49026   4.108   3.722  11.124  0.7488 -1.0198 -0.2674
  372MOL0     C49027   4.142   3.858  11.135  0.3589  0.3208 -0.4245
  372MOL0     C49028   4.244   3.900  11.223 -0.0544 -0.8878  0.3105
  372MOL0     C49029   4.320   3.791  11.289  0.0645 -0.9672 -0.1167
  372MOL0     O49030   4.420   3.816  11.384 -0.7676  0.1172  0.4235
  372MOL0     C49031   4.485   3.947  11.398 -0.4774  0.2908 -0.3973
  372MOL0     C49032   4.594   3.973  11.284 -0.6453 -0.1563 -0.0199
  372MOL0     C49033   4.702   4.072  11.323  0.7815  0.2809  0.1863
  372MOL0     C49034   4.804   4.102  11.214 -0.3151  0.0442  0.2576
  372MOL0     C49035   4.833   4.243  11.219 -0.2004  0.5764 -0.8030
  372MOL0     C49036   4.858   4.358  11.222  0.3100 -0.5469 -0.4541
  372MOL0     C49037   4.292   3.656  11.266  0.2825  0.1059 -0.4427
  372MOL0     C49038   4.182   3.623  11.189 -0.2744  0.4292  0.1915
  372MOL0     H49039   3.684   3.750  11.013 -3.3298 -1.6338  0.2385
  372MOL0     H49040   3.510   3.634  10.854 -0.8963  2.5279 -1.2220
  372MOL0     H49041   3.545   3.415  10.750  1.2588  1.4654  0.5551
  372MOL0     H49042   3.490   3.381  10.583  1.2939 -1.9466  1.7828
  372MOL0     H49043   3.318   3.510  10.808 -4.6431 -2.8969  0.7654
  372MOL0     H49044   3.290   3.377  10.708 -1.8548  1.0520 -0.8754
  372MOL0     H49045   3.257   3.488  10.510  1.8191 -0.6926  0.0145
  372MOL0     H49046   3.278   3.648  10.593 -2.7434  1.2462 -4.9770
  372MOL0     H49047   3.075   3.489  10.727 -0.8847  1.1976  0.0605
  372MOL0     H49048   3.086   3.655  10.706 -2.1668 -0.3446 -2.0658
  372MOL0     H49049   3.008   3.488  10.462  0.7914 -2.1007  3.2184
  372MOL0     H49050   2.984   3.658  10.479 -2.0924 -0.3892 -1.6047
  372MOL0     H49051   2.818   3.599  10.674  3.1716  1.8201 -1.2585
  372MOL0     H49052   2.850   3.438  10.650 -1.1668 -0.4453  0.5773
  372MOL0     H49053   2.645   3.560  10.527 -1.4021 -0.9533 -2.0436
  372MOL0     H49054   2.769   3.609  10.412  1.1266  1.2800  0.3850
  372MOL0     H49055   2.740   3.306  10.486 -2.6710 -1.7155 -0.2541
  372MOL0     H49056   2.771   3.394  10.324  1.5354  1.4099  0.9123
  372MOL0     H49057   2.510   3.557  10.280  0.6058  0.2295  1.4988
  372MOL0     H49058   2.219   3.341  10.146  0.6419  0.3027 -2.6965
  372MOL0     H49059   2.308   3.501  10.131  0.6197  0.1005  1.0843
  372MOL0     H49060   2.184   3.593  10.328  2.6376 -0.5274 -0.5061
  372MOL0     H49061   2.131   3.430  10.359  1.1558 -0.2359 -0.4989
  372MOL0     H49062   2.069   3.514  10.089  2.7041 -1.6077 -0.5539
  372MOL0     H49063   1.981   3.421  10.209  2.3016 -0.8789  2.3676
  372MOL0     H49064   1.992   3.731  10.221 -0.0810 -0.3893 -2.9806
  372MOL0     H49065   1.883   3.620  10.320 -3.3209  1.4250 -1.0869
  372MOL0     H49066   1.773   3.842  10.317 -0.7332  0.0136  0.3171
  372MOL0     H49067   1.540   3.935  10.352 -2.4301  1.8887 -1.7324
  372MOL0     H49068   1.060   3.850  10.266 -1.3841  1.4767 -2.7952
  372MOL0     H49069   0.845   3.933  10.333  0.1843  0.1107 -0.4019
  372MOL0     H49070   0.771   4.335  10.358  0.3652  1.4115  1.2360
  372MOL0     H49071   0.823   4.336  10.532  0.6878 -1.1663 -0.4317
  372MOL0     H49072   0.591   4.411  10.524 -0.3004  0.1521 -2.1361
  372MOL0     H49073   0.592   4.244  10.592 -0.0914 -0.5168  0.2910
  372MOL0     H49074   0.539   4.168  10.360 -1.7205  0.7415 -1.0581
  372MOL0     H49075   0.518   4.335  10.304 -2.8767 -1.0419 -2.1417
  372MOL0     H49076   0.310   4.226  10.357  3.2237 -0.2981 -2.8547
  372MOL0     H49077   0.346   4.232  10.530 -0.4697  0.2766  0.2719
  372MOL0     H49078   0.243   4.421  10.342  1.2364  0.2630 -0.1602
  372MOL0     H49079   0.401   4.484  10.412  1.5848 -0.7012  1.3277
  372MOL0     H49080   0.292   4.430  10.634  1.3833 -0.3004 -1.3598
  372MOL0     H49081   0.138   4.420  10.545  0.5240 -0.9078  1.2233
  372MOL0     H49082   0.213   4.672  10.468  2.5972 -0.4414 -0.9256
  372MOL0     H49083   0.102   4.635  10.594  1.3350  2.9504  3.3704
  372MOL0     H49084   0.399   4.658  10.633  0.6822  1.4984 -1.0506
  372MOL0     H49085   0.272   4.652  10.760  1.2734 -1.3864 -1.0951
  372MOL0     H49086   1.029   4.277  10.494  3.6863 -0.6152  1.6574
  372MOL0     H49087   1.251   4.192  10.442 -2.9164  2.4468  0.4899
  372MOL0     H49088   1.404   3.673  10.048 -0.9194  0.5702  1.0172
  372MOL0     H49089   1.618   3.585  10.008  2.8325  1.1341 -0.9763
  372MOL0     H49090   3.793   3.642  10.549 -1.2775  0.7030 -0.4071
  372MOL0     H49091   3.968   3.754  10.712  1.6800 -4.2818 -0.6476
  372MOL0     H49092   4.099   3.940  11.079 -0.2127  0.9993  0.9785
  372MOL0     H49093   4.261   4.005  11.243 -2.0594  0.0780 -2.4269
  372MOL0     H49094   4.537   3.957  11.494 -1.7253  1.9567  0.1545
  372MOL0     H49095   4.415   4.030  11.383  0.3695  0.7595 -1.9190
  372MOL0     H49096   4.650   3.880  11.274  2.6736  1.3513  2.4518
  372MOL0     H49097   4.548   4.007  11.191 -0.1860 -1.7831 -0.8636
  372MOL0     H49098   4.758   4.034  11.410 -2.0903 -0.7915  1.6888
  372MOL0     H49099   4.643   4.159  11.352  1.5690 -0.0238  2.9624
  372MOL0     H49100   4.890   4.036  11.228 -0.9690 -1.5229 -2.4448
  372MOL0     H49101   4.767   4.089  11.112  1.6400  3.3855 -1.0532
  372MOL0     H49102   4.862   4.465  11.215 -1.3372 -0.3543  0.7912
  372MOL0     H49103   4.355   3.581  11.314  1.2234 -0.1080 -1.9473
  372MOL0     H49104   4.148   3.520  11.191  0.0674  0.3135  0.1951
  373MOL0     O49105  11.366   7.666   3.691  0.9185 -0.1004  0.4809
  373MOL0     C49106  11.317   7.778   3.685  0.1122  0.1327 -0.1439
  373MOL0     O49107  11.223   7.825   3.770 -0.0413 -0.3384  0.5531
  373MOL0     C49108  11.137   7.740   3.831  1.1761 -0.8354 -0.3269
  373MOL0     C49109  11.083   7.773   3.961  0.0485 -0.5286  1.0039
  373MOL0     C49110  11.006   7.679   4.033 -0.1406 -0.3048  0.4753
  373MOL0     C49111  10.963   7.559   3.971  0.3605  0.3632 -0.3521
  373MOL0     O49112  10.889   7.468   4.031 -0.2087  0.1967  0.1363
  373MOL0     C49113  10.777   7.498   4.113 -0.1838  0.3021  0.8038
  373MOL0     C49114  10.697   7.370   4.126  0.5319  0.0480  0.1119
  373MOL0     C49115  10.574   7.381   4.225  0.5726  0.7249  0.1368
  373MOL0     C49116  10.559   7.252   4.299  0.9155 -0.4595  0.0362
  373MOL0     C49117  10.414   7.229   4.360  0.2524  0.0642 -0.1621
  373MOL0     C49118  10.315   7.201   4.241  0.1062 -1.6907 -0.3875
  373MOL0     C49119  10.165   7.202   4.282  0.1742 -0.5769  0.9844
  373MOL0     C49120  10.084   7.121   4.183  0.6187 -0.3190 -1.1251
  373MOL0     N49121  10.101   7.181   4.046 -0.8940  0.7931 -0.8165
  373MOL0     C49122  10.176   7.131   3.944 -0.6707 -0.2602 -0.4846
  373MOL0     C49123  10.194   7.250   3.868 -0.2700 -0.2558  0.3601
  373MOL0     C49124  10.273   7.250   3.745  0.7082 -0.0092 -0.9759
  373MOL0     C49125  10.356   7.370   3.742  0.2599  0.0861  0.4899
  373MOL0     C49126  10.463   7.379   3.648 -0.0208  0.1200  0.9108
  373MOL0     C49127  10.535   7.514   3.644  0.6656 -0.4652  0.5424
  373MOL0     O49128  10.633   7.525   3.545 -0.2671  0.1614 -0.3533
  373MOL0     C49129  10.704   7.640   3.548  0.0697 -0.8745 -0.6765
  373MOL0     C49130  10.709   7.714   3.431 -0.1788  0.1867 -0.7475
  373MOL0     C49131  10.776   7.832   3.439  0.0716  0.0733  0.5465
  373MOL0     C49132  10.853   7.880   3.543  0.7443 -0.3962  0.0686
  373MOL0     C49133  10.926   8.006   3.548  1.3237  0.1923  0.0209
  373MOL0     O49134  10.860   8.110   3.493 -0.3870 -0.3075 -0.0937
  373MOL0     C49135  10.887   8.244   3.514 -0.4448 -0.3734 -0.3503
  373MOL0     C49136  10.940   8.288   3.640  0.1591 -0.1857  0.7532
  373MOL0     C49137  10.970   8.428   3.661  1.4103 -0.0491  0.3451
  373MOL0     C49138  10.935   8.523   3.561  0.6130  0.2987 -0.0735
  373MOL0     O49139  10.944   8.658   3.573 -0.6772 -0.4608 -0.0123
  373MOL0     C49140  11.001   8.704   3.697  0.4878 -0.6830 -0.9373
  373MOL0     C49141  11.042   8.857   3.699 -0.6870  0.0221 -0.4124
  373MOL0     C49142  10.933   8.952   3.645 -0.1345 -0.0267 -0.1158
  373MOL0     C49143  10.791   8.923   3.704  0.3687  0.0624  0.1622
  373MOL0     C49144  10.712   9.051   3.693 -0.0611 -0.0584  0.3790
  373MOL0     C49145  10.705   9.129   3.556  0.0207 -0.3657  0.7176
  373MOL0     C49146  10.640   9.042   3.449 -0.8380  0.0913 -0.0062
  373MOL0     C49147  10.594   9.119   3.322 -0.7147 -0.3567 -0.0995
  373MOL0    Cl49148  10.453   9.213   3.395 -0.0221  0.4216  0.1411
  373MOL0     C49149  10.899   8.471   3.435 -0.1445  0.3274 -0.7010
  373MOL0     C49150  10.878   8.334   3.410  0.9060 -0.9985  0.5064
  373MOL0     O49151  11.030   8.017   3.608  0.5625  0.3198  0.1808
  373MOL0     C49152  10.842   7.808   3.664  0.3969  0.0571  0.6637
  373MOL0     C49153  10.767   7.685   3.666 -0.3794 -0.9352  0.6404
  373MOL0     N49154  10.115   7.353   3.915  0.1531 -0.8356 -0.5518
  373MOL0     N49155  10.054   7.305   4.015  0.2661 -0.3866 -0.2935
  373MOL0     C49156  11.001   7.531   3.842  0.4493 -0.1956  0.9608
  373MOL0     C49157  11.088   7.618   3.773  0.1410 -0.5420  0.3641
  373MOL0     C49158  11.384   7.876   3.599 -0.5049 -0.2277 -0.0654
  373MOL0     C49159  11.455   7.832   3.486 -0.5178  0.9814  0.0027
  373MOL0     C49160  11.527   7.927   3.404  0.1422 -0.0620  0.5904
  373MOL0     C49161  11.506   8.062   3.420 -0.0215 -0.4422  0.7106
  373MOL0     O49162  11.563   8.155   3.336 -0.7244  0.2443  0.0380
  373MOL0     C49163  11.665   8.250   3.380  1.7246 -0.3113  0.0175
  373MOL0     C49164  11.691   8.349   3.270  0.3123 -0.2834  0.3180
  373MOL0     C49165  11.829   8.402   3.300 -0.5293  0.2325  1.0019
  373MOL0     C49166  11.860   8.522   3.215  0.5386  0.1904 -0.1479
  373MOL0     C49167  11.882   8.498   3.073  0.3962  0.6491  0.6543
  373MOL0     C49168  11.889   8.507   2.953  0.4665 -0.3914 -0.1691
  373MOL0     C49169  11.416   8.102   3.519 -0.0387 -0.3596 -0.1595
  373MOL0     C49170  11.363   8.009   3.610  0.4124 -0.6148  0.8193
  373MOL0     H49171  11.103   7.874   3.994 -2.1978  1.4604 -2.9307
  373MOL0     H49172  10.982   7.689   4.139  2.4382 -0.7547  1.1884
  373MOL0     H49173  10.719   7.580   4.068  2.4037  2.2338  0.7449
  373MOL0     H49174  10.812   7.522   4.214 -0.5204  0.0027  0.9907
  373MOL0     H49175  10.758   7.280   4.129  0.0058 -0.3987 -1.6789
  373MOL0     H49176  10.648   7.361   4.029  0.0018  1.5466  0.2110
  373MOL0     H49177  10.487   7.418   4.172 -0.0312 -2.6772 -1.5580
  373MOL0     H49178  10.598   7.464   4.292  2.0000 -1.3418  2.3496
  373MOL0     H49179  10.582   7.167   4.234 -0.4668 -0.7166 -0.1658
  373MOL0     H49180  10.624   7.248   4.387  1.6929  1.5678 -0.3889
  373MOL0     H49181  10.379   7.292   4.442 -0.1035 -3.4083  2.5554
  373MOL0     H49182  10.416   7.131   4.408  1.1638 -0.0917 -0.5008
  373MOL0     H49183  10.330   7.102   4.198 -3.3703 -1.2318 -3.1414
  373MOL0     H49184  10.323   7.275   4.162  1.9122  1.2874  2.3515
  373MOL0     H49185  10.157   7.167   4.386  1.1103 -2.3510  0.5012
  373MOL0     H49186  10.146   7.310   4.284  0.8765 -0.3909 -0.7861
  373MOL0     H49187   9.977   7.124   4.206  0.6369 -1.2668 -0.8923
  373MOL0     H49188  10.122   7.018   4.181  0.6986 -0.2850 -1.8202
  373MOL0     H49189  10.213   7.030   3.929 -0.4000 -0.3520  0.7010
  373MOL0     H49190  10.210   7.244   3.656 -0.5332 -0.5240 -0.0870
  373MOL0     H49191  10.330   7.158   3.732 -2.8763 -2.3943 -1.2800
  373MOL0     H49192  10.390   7.394   3.844 -0.6715 -0.2118  0.8798
  373MOL0     H49193  10.290   7.455   3.726 -0.3535 -0.3256  0.7899
  373MOL0     H49194  10.544   7.307   3.664  0.5110  0.5765  0.3307
  373MOL0     H49195  10.418   7.362   3.550 -1.8093 -1.7210  1.9656
  373MOL0     H49196  10.581   7.520   3.743  0.4509 -3.2480  0.8989
  373MOL0     H49197  10.463   7.595   3.635 -1.8623 -2.5328  0.8575
  373MOL0     H49198  10.672   7.678   3.336  0.7649  1.0380 -1.4594
  373MOL0     H49199  10.755   7.901   3.357  1.6170  0.8855  0.7977
  373MOL0     H49200  10.947   8.224   3.728 -3.5316  2.9356  3.6672
  373MOL0     H49201  10.998   8.473   3.756  1.5580 -0.1123  0.3312
  373MOL0     H49202  11.098   8.658   3.720 -0.1036 -2.0003 -1.0123
  373MOL0     H49203  10.931   8.677   3.777  0.4100 -1.8660 -1.3788
  373MOL0     H49204  11.135   8.860   3.641  1.2133  1.1437  2.4935
  373MOL0     H49205  11.086   8.871   3.798 -1.8257 -3.3028  0.6853
  373MOL0     H49206  10.924   8.938   3.537  1.9603 -1.8405 -0.1188
  373MOL0     H49207  10.959   9.058   3.658  0.8369 -0.1436 -0.9381
  373MOL0     H49208  10.739   8.840   3.655 -1.0835  1.6204 -1.0525
  373MOL0     H49209  10.807   8.899   3.809  1.6784  0.0264 -0.0258
  373MOL0     H49210  10.767   9.125   3.751  1.5679 -0.0354 -1.0935
  373MOL0     H49211  10.614   9.027   3.736  0.5282 -0.0910  1.7358
  373MOL0     H49212  10.805   9.163   3.526 -0.4161 -0.0569 -0.4576
  373MOL0     H49213  10.644   9.219   3.571  0.3194  0.0764 -0.5874
  373MOL0     H49214  10.704   8.965   3.406  0.4867  0.6177  0.9090
  373MOL0     H49215  10.561   8.986   3.500 -1.2521 -1.1875 -1.9701
  373MOL0     H49216  10.565   9.054   3.239 -1.5651 -1.5725  1.1133
  373MOL0     H49217  10.674   9.187   3.290  2.6228 -3.1566  1.5345
  373MOL0     H49218  10.890   8.550   3.361  3.5084  1.6704  0.0821
  373MOL0     H49219  10.865   8.310   3.305  0.2557  0.0169  0.3416
  373MOL0     H49220  10.879   7.831   3.764 -0.0204  1.4199  0.5237
  373MOL0     H49221  10.755   7.632   3.760 -1.5690 -1.1970  0.3535
  373MOL0     H49222  10.987   7.431   3.803  2.9216 -0.7765  1.3541
  373MOL0     H49223  11.126   7.582   3.678 -0.8850 -1.9425  0.4610
  373MOL0     H49224  11.471   7.727   3.464 -0.9444  1.0201 -0.5309
  373MOL0     H49225  11.580   7.881   3.321 -0.6564  2.1242 -1.2056
  373MOL0     H49226  11.755   8.189   3.394  0.1050 -2.3324  2.5924
  373MOL0     H49227  11.645   8.304   3.474 -1.1257 -2.5546  0.8522
  373MOL0     H49228  11.686   8.306   3.169 -0.9743  1.6547 -0.5101
  373MOL0     H49229  11.615   8.428   3.274 -2.0456 -2.4230  0.1884
  373MOL0     H49230  11.908   8.327   3.297  1.3489  2.1369  0.3027
  373MOL0     H49231  11.827   8.438   3.403  4.3377  0.1651  1.3333
  373MOL0     H49232  11.776   8.586   3.243  1.0175  0.6280  0.3084
  373MOL0     H49233  11.939   8.591   3.247 -0.0444 -0.0417  1.9159
  373MOL0     H49234  11.919   8.536   2.854  2.5052 -0.3778  0.4153
  373MOL0     H49235  11.387   8.204   3.545 -0.0893 -0.8292  1.8083
  373MOL0     H49236  11.292   8.043   3.686 -0.3848 -2.6063  1.0299
  374MOL0     O49237   2.767   4.854   2.966  0.2649  0.5187  0.3113
  374MOL0     C49238   2.684   4.945   2.963  0.7210  0.4455 -0.0467
  374MOL0     O49239   2.680   5.051   2.876 -0.3500  0.1924  0.0893
  374MOL0     C49240   2.769   5.069   2.771  0.5163 -0.1815 -0.1809
  374MOL0     C49241   2.730   5.132   2.648 -1.2943  0.1580 -0.2697
  374MOL0     C49242   2.817   5.143   2.544 -0.9368 -0.2110 -0.4886
  374MOL0     C49243   2.945   5.087   2.542  0.3269 -0.2711  0.0776
  374MOL0     O49244   3.033   5.099   2.426  1.5111  0.4147 -0.2721
  374MOL0     C49245   3.179   5.100   2.448  0.5520 -1.1344 -0.1359
  374MOL0     C49246   3.216   4.969   2.383  0.1452 -0.0014  0.4665
  374MOL0     C49247   3.373   4.939   2.387  0.3065 -0.5473 -0.3359
  374MOL0     C49248   3.403   4.809   2.321  0.7117 -0.2528 -0.3113
  374MOL0     C49249   3.387   4.809   2.169  0.4395 -0.6749 -0.0101
  374MOL0     C49250   3.450   4.694   2.097 -0.2516  0.2108 -0.4282
  374MOL0     C49251   3.410   4.547   2.156 -0.3260  0.4186 -0.0870
  374MOL0     C49252   3.271   4.486   2.126 -0.3485  0.5565  0.3888
  374MOL0     N49253   3.161   4.567   2.179 -0.6898 -1.1109  0.2188
  374MOL0     C49254   3.130   4.579   2.313 -0.2113 -0.0066 -0.8188
  374MOL0     C49255   3.017   4.657   2.321 -0.6207 -0.3146  0.3461
  374MOL0     C49256   2.941   4.687   2.445 -0.4652 -0.9614 -0.5940
  374MOL0     C49257   2.802   4.735   2.405  0.2451 -0.7474 -0.2578
  374MOL0     C49258   2.710   4.769   2.533 -0.0452  0.0547  0.9736
  374MOL0     C49259   2.597   4.862   2.480 -0.6406 -0.3256  0.0154
  374MOL0     O49260   2.525   4.902   2.598  0.1946  0.2183 -0.0109
  374MOL0     C49261   2.424   4.815   2.654 -0.1395 -0.0214  0.3610
  374MOL0     C49262   2.368   4.860   2.775  0.5570  0.1521 -0.2169
  374MOL0     C49263   2.259   4.790   2.833  0.8360 -0.4387  0.3743
  374MOL0     C49264   2.210   4.674   2.771  0.2294 -0.2501 -1.0011
  374MOL0     C49265   2.113   4.581   2.839 -0.3942 -0.2468  0.3928
  374MOL0     O49266   2.059   4.479   2.764 -0.3387 -0.3755 -0.1187
  374MOL0     C49267   1.970   4.395   2.830 -0.6053 -0.4930  0.0617
  374MOL0     C49268   1.851   4.454   2.876  0.1715  0.0514 -0.5855
  374MOL0     C49269   1.766   4.385   2.963  0.6422  1.2697  0.3374
  374MOL0     C49270   1.772   4.248   2.966 -0.1935 -0.0101 -0.1765
  374MOL0     O49271   1.688   4.184   3.055 -0.0345 -0.3778 -0.0298
  374MOL0     C49272   1.584   4.101   3.000  0.7673 -0.3140 -0.2783
  374MOL0     C49273   1.439   4.153   3.045 -0.6365  0.0285  0.8897
  374MOL0     C49274   1.411   4.124   3.190  0.8769 -0.0101 -0.0015
  374MOL0     C49275   1.270   4.177   3.226  0.4673 -0.3731  0.6241
  374MOL0     C49276   1.203   4.077   3.313 -0.2889 -0.2322 -0.4221
  374MOL0     C49277   1.068   4.117   3.354  0.1841 -0.0646 -0.0155
  374MOL0     C49278   1.008   4.018   3.461  0.0775 -0.9276 -0.4639
  374MOL0     C49279   0.897   4.094   3.540 -0.1287  0.0670 -0.5934
  374MOL0    Cl49280   0.839   4.004   3.677  0.2946 -0.3970 -0.3909
  374MOL0     C49281   1.885   4.187   2.913 -0.0187  0.0006  0.4846
  374MOL0     C49282   1.977   4.257   2.844  0.5216  0.4135  0.1535
  374MOL0     O49283   2.095   4.598   2.957 -0.0149  0.7897  0.5687
  374MOL0     C49284   2.260   4.635   2.641 -0.5234 -0.1200 -0.1853
  374MOL0     C49285   2.373   4.713   2.586  0.0036  0.0790 -0.4693
  374MOL0     N49286   3.002   4.706   2.191  0.5763  0.0943 -0.3027
  374MOL0     N49287   3.084   4.655   2.109  0.1814 -1.0863 -0.7687
  374MOL0     C49288   2.976   5.021   2.663 -0.5945 -0.4099  1.1089
  374MOL0     C49289   2.900   5.017   2.777  0.3491 -0.2858 -0.0468
  374MOL0     C49290   2.552   4.936   3.043  0.4099 -0.4769 -0.6977
  374MOL0     C49291   2.473   5.046   3.082 -0.8326 -0.1018 -0.0465
  374MOL0     C49292   2.347   5.028   3.139 -0.1211 -0.2556  0.2717
  374MOL0     C49293   2.300   4.896   3.166 -0.0062  0.0604  0.8371
  374MOL0     O49294   2.169   4.879   3.206 -0.2744  0.7864  0.2983
  374MOL0     C49295   2.124   4.753   3.256 -0.6827 -0.5669  0.3805
  374MOL0     C49296   1.984   4.768   3.301  0.2405 -0.0891  0.2853
  374MOL0     C49297   1.889   4.779   3.175 -0.6118  0.3721  0.5740
  374MOL0     C49298   1.773   4.876   3.210  0.2341  0.2108  0.3426
  374MOL0     C49299   1.669   4.873   3.107  0.5507  0.0583  0.3327
  374MOL0     C49300   1.578   4.862   3.031 -0.6088 -1.0489  0.0436
  374MOL0     C49301   2.380   4.788   3.142 -0.7510  0.2669  0.5169
  374MOL0     C49302   2.508   4.808   3.081  0.0253  0.4015 -0.0414
  374MOL0     H49303   2.629   5.169   2.638 -1.8199 -1.7378 -3.0078
  374MOL0     H49304   2.771   5.206   2.468  0.8175  1.6593 -0.0666
  374MOL0     H49305   3.204   5.114   2.554  0.0867 -2.5852  0.1832
  374MOL0     H49306   3.220   5.181   2.388  0.9244 -1.1841  0.0477
  374MOL0     H49307   3.177   4.954   2.281 -0.3481 -3.8375  1.0698
  374MOL0     H49308   3.166   4.893   2.444  0.9258 -0.3117  0.7316
  374MOL0     H49309   3.409   4.932   2.490  0.6763 -0.1696 -0.4383
  374MOL0     H49310   3.432   5.018   2.339 -0.4059 -0.7012 -1.5130
  374MOL0     H49311   3.500   4.774   2.359  1.1841  0.7319 -0.5662
  374MOL0     H49312   3.340   4.729   2.360 -3.1915  2.3924 -0.7307
  374MOL0     H49313   3.440   4.898   2.134  1.0951 -1.0980 -0.1155
  374MOL0     H49314   3.282   4.818   2.138  0.6662  3.8002 -0.0432
  374MOL0     H49315   3.555   4.707   2.125 -0.6485 -1.4346  2.1042
  374MOL0     H49316   3.441   4.700   1.988 -2.0810  0.8398 -0.2680
  374MOL0     H49317   3.480   4.470   2.122  0.0571 -0.0020  1.5926
  374MOL0     H49318   3.417   4.554   2.265 -1.6903  1.2236 -0.0212
  374MOL0     H49319   3.259   4.385   2.165 -1.3998  0.4698 -0.1268
  374MOL0     H49320   3.254   4.468   2.020 -0.4675  1.9605  0.1457
  374MOL0     H49321   3.178   4.519   2.390 -0.9834  3.2252  2.4877
  374MOL0     H49322   2.991   4.765   2.502  0.5198 -0.2529 -2.3483
  374MOL0     H49323   2.925   4.595   2.503 -1.8070 -1.3120 -1.4684
  374MOL0     H49324   2.748   4.657   2.351 -3.3165 -0.2491  2.2860
  374MOL0     H49325   2.812   4.827   2.347 -0.9516 -0.3729  0.1165
  374MOL0     H49326   2.694   4.680   2.595  2.0707 -0.6074  0.6620
  374MOL0     H49327   2.771   4.837   2.593  2.2713 -0.9467 -0.1383
  374MOL0     H49328   2.539   4.810   2.403 -2.1794 -1.7988  2.0385
  374MOL0     H49329   2.646   4.951   2.440  1.5413 -2.1441 -1.5661
  374MOL0     H49330   2.397   4.950   2.829 -2.0055  1.3697 -0.7125
  374MOL0     H49331   2.221   4.812   2.932 -0.7278  0.5033 -0.3948
  374MOL0     H49332   1.849   4.561   2.893  1.8423 -0.1307  1.1478
  374MOL0     H49333   1.676   4.418   3.014 -0.4663 -1.1854  0.0974
  374MOL0     H49334   1.608   4.006   3.050 -1.6320 -1.2317 -0.6986
  374MOL0     H49335   1.582   4.078   2.893 -1.5983 -0.2692 -0.3016
  374MOL0     H49336   1.363   4.098   2.989 -0.6559 -0.6481  1.5551
  374MOL0     H49337   1.429   4.259   3.022  4.8715  0.3915 -1.6710
  374MOL0     H49338   1.481   4.172   3.259  0.3443  0.3380  0.3055
  374MOL0     H49339   1.410   4.015   3.200 -1.4378  0.1357  2.1791
  374MOL0     H49340   1.286   4.274   3.274 -0.2828 -0.3663  0.8748
  374MOL0     H49341   1.207   4.185   3.137 -0.2638 -1.8211  0.9829
  374MOL0     H49342   1.268   4.060   3.400 -0.9512 -1.5081 -0.1529
  374MOL0     H49343   1.191   3.985   3.254 -0.3853  0.1002 -0.9246
  374MOL0     H49344   1.020   4.114   3.255 -0.8143  1.7692  0.3802
  374MOL0     H49345   1.073   4.217   3.397 -1.3683 -0.6131  1.5550
  374MOL0     H49346   0.971   3.927   3.413  0.8864 -1.3847 -0.2455
  374MOL0     H49347   1.096   4.007   3.525 -0.1352 -5.1573 -0.6471
  374MOL0     H49348   0.816   4.125   3.473 -0.4550  1.2159  0.3092
  374MOL0     H49349   0.945   4.182   3.584 -0.2681  0.9159 -2.0634
  374MOL0     H49350   1.909   4.082   2.926 -0.4320 -0.3160 -1.0767
  374MOL0     H49351   2.060   4.201   2.801 -0.7687 -0.6239 -1.0988
  374MOL0     H49352   2.222   4.544   2.596  2.2229  0.3014 -3.9006
  374MOL0     H49353   2.417   4.690   2.490  1.5165 -1.6924  0.5857
  374MOL0     H49354   3.073   4.972   2.668  0.1200  0.2241 -2.9751
  374MOL0     H49355   2.945   4.990   2.872  0.7426  1.5187  0.3148
  374MOL0     H49356   2.512   5.137   3.039  0.1085 -1.0906 -1.3856
  374MOL0     H49357   2.283   5.115   3.150  0.3692  0.3349 -1.2385
  374MOL0     H49358   2.187   4.715   3.337  0.8612 -2.5821 -1.6256
  374MOL0     H49359   2.131   4.667   3.188 -2.3655  1.0606 -2.0038
  374MOL0     H49360   1.944   4.680   3.352  1.2474  0.2576  1.7395
  374MOL0     H49361   1.971   4.854   3.367 -0.0345 -0.0704  0.2073
  374MOL0     H49362   1.855   4.675   3.169  0.8941 -0.2569  2.1627
  374MOL0     H49363   1.949   4.804   3.087 -0.5337  0.2729  0.5991
  374MOL0     H49364   1.735   4.835   3.305 -2.6248  0.2935 -0.6612
  374MOL0     H49365   1.800   4.981   3.223 -2.9940  1.5293 -2.0988
  374MOL0     H49366   1.497   4.858   2.961 -0.9383  3.0281 -0.0256
  374MOL0     H49367   2.346   4.686   3.155 -1.9214  0.4967 -0.4696
  374MOL0     H49368   2.569   4.722   3.058  0.3709  0.8595 -0.8714
  375MOL0     O49369   5.085   7.413   3.855  0.2152  0.4857 -0.2041
  375MOL0     C49370   5.185   7.454   3.916 -0.6107 -0.1481 -0.4882
  375MOL0     O49371   5.277   7.377   3.977  0.0751  0.3040 -0.0599
  375MOL0     C49372   5.254   7.242   3.960  0.0716  0.3270 -0.6292
  375MOL0     C49373   5.360   7.174   3.897 -0.6575 -0.7312  1.0833
  375MOL0     C49374   5.361   7.036   3.891  0.0210 -0.6249 -0.5797
  375MOL0     C49375   5.248   6.963   3.951 -0.0740 -0.2012 -0.7837
  375MOL0     O49376   5.245   6.826   3.940 -0.0884  0.5743 -1.0354
  375MOL0     C49377   5.143   6.783   3.862  0.5903 -0.0808 -0.3238
  375MOL0     C49378   5.133   6.631   3.864 -0.9072  0.4697  0.0561
  375MOL0     C49379   5.244   6.563   3.788  0.7356 -0.4957 -0.0053
  375MOL0     C49380   5.230   6.411   3.790 -0.2840  0.4541  0.8639
  375MOL0     C49381   5.363   6.361   3.714  0.3036 -0.3293 -0.6658
  375MOL0     C49382   5.360   6.377   3.560  1.3282 -0.0977 -0.6838
  375MOL0     C49383   5.226   6.319   3.507  0.8859 -0.2941  1.0234
  375MOL0     C49384   5.240   6.304   3.356  0.7684  0.4909 -0.5948
  375MOL0     N49385   5.100   6.291   3.293 -0.3027 -0.3415 -0.7019
  375MOL0     C49386   5.010   6.187   3.296  0.0375 -0.7226 -1.5519
  375MOL0     C49387   4.903   6.231   3.229  0.2353  0.4130 -0.6933
  375MOL0     C49388   4.782   6.146   3.230 -0.2266 -0.6215  0.5664
  375MOL0     C49389   4.769   6.065   3.095  0.2332 -0.5352 -0.3345
  375MOL0     C49390   4.760   6.154   2.969 -1.0444 -0.1548  1.2571
  375MOL0     C49391   4.643   6.264   2.976 -1.1411  0.8965 -0.5155
  375MOL0     O49392   4.591   6.300   2.850  0.1463 -0.0404  0.3290
  375MOL0     C49393   4.486   6.388   2.837  0.3881  0.7476  0.1386
  375MOL0     C49394   4.441   6.407   2.709  1.2942 -0.4920 -0.1781
  375MOL0     C49395   4.349   6.507   2.671  0.3037 -0.0211  0.2134
  375MOL0     C49396   4.295   6.589   2.771 -0.3678  0.4436 -0.1570
  375MOL0     C49397   4.193   6.692   2.741  0.1202 -0.2549 -0.4265
  375MOL0     O49398   4.184   6.721   2.605 -0.0796  0.5439 -0.6997
  375MOL0     C49399   4.089   6.803   2.567  0.2577 -0.2398 -0.6344
  375MOL0     C49400   4.025   6.769   2.453 -0.0085 -1.0899  0.7381
  375MOL0     C49401   3.925   6.854   2.401 -0.1738 -0.1873  0.9341
  375MOL0     C49402   3.895   6.973   2.460 -0.1406  0.0650 -0.2326
  375MOL0     O49403   3.801   7.069   2.421 -0.1305 -0.3173 -0.4820
  375MOL0     C49404   3.738   7.054   2.292  0.0221  0.1340 -0.9707
  375MOL0     C49405   3.754   7.187   2.216 -0.9830 -0.3765 -0.4401
  375MOL0     C49406   3.661   7.184   2.100  1.1667  0.4155  0.8702
  375MOL0     C49407   3.651   7.324   2.034  0.5919  0.3954  0.9901
  375MOL0     C49408   3.534   7.343   1.923 -0.6142 -0.5387 -0.1005
  375MOL0     C49409   3.552   7.460   1.819  0.0487 -0.9970 -1.1887
  375MOL0     C49410   3.542   7.603   1.879 -0.0756  0.9264  0.0247
  375MOL0     C49411   3.407   7.660   1.884 -0.0193  0.3238  0.7039
  375MOL0    Cl49412   3.304   7.566   2.013 -0.4425 -0.3981 -0.5837
  375MOL0     C49413   3.950   7.009   2.580 -0.0775  0.5887  0.7385
  375MOL0     C49414   4.047   6.926   2.636 -0.4823  0.6772 -0.4680
  375MOL0     O49415   4.127   6.744   2.833 -0.8899 -0.3435 -0.0222
  375MOL0     C49416   4.328   6.564   2.903  0.2672  0.2962 -0.6080
  375MOL0     C49417   4.418   6.464   2.936 -0.0002 -0.5788 -0.3099
  375MOL0     N49418   4.923   6.356   3.187 -0.2915 -1.2051  0.4387
  375MOL0     N49419   5.043   6.390   3.214  0.6985 -0.2836 -0.3679
  375MOL0     C49420   5.138   7.034   4.006  0.7360 -0.3567 -0.1556
  375MOL0     C49421   5.149   7.174   4.013 -0.1682  0.0679 -0.1529
  375MOL0     C49422   5.193   7.600   3.953 -0.1454  0.5850 -0.3173
  375MOL0     C49423   5.307   7.651   4.011  0.8375  0.2011 -0.4215
  375MOL0     C49424   5.310   7.785   4.039  0.5942 -0.1587 -0.0167
  375MOL0     C49425   5.208   7.871   4.004 -0.8421  0.5127 -0.3059
  375MOL0     O49426   5.225   7.997   4.049 -0.3530  0.1461  0.5185
  375MOL0     C49427   5.156   8.099   3.971 -0.5294  0.9171  0.2969
  375MOL0     C49428   5.189   8.227   4.044  0.6441  0.6449  0.2116
  375MOL0     C49429   5.082   8.326   4.025  0.3625  0.2619 -0.3064
  375MOL0     C49430   5.076   8.405   4.158 -0.8622  0.1619  0.2050
  375MOL0     C49431   5.053   8.545   4.126 -0.2606  1.6278  0.1790
  375MOL0     C49432   5.053   8.658   4.099  0.1616  0.5495 -1.0474
  375MOL0     C49433   5.099   7.819   3.938 -0.0367 -0.9234 -0.6829
  375MOL0     C49434   5.082   7.685   3.920  0.5141 -0.9436  0.9749
  375MOL0     H49435   5.449   7.226   3.863 -0.9709  0.5349  2.1271
  375MOL0     H49436   5.445   6.975   3.860  1.2733 -0.0590  1.4764
  375MOL0     H49437   5.160   6.813   3.758  1.3436  0.0670 -0.1693
  375MOL0     H49438   5.049   6.823   3.901  0.1418 -1.4734  0.0740
  375MOL0     H49439   5.040   6.590   3.823  1.0275 -1.4157 -2.8047
  375MOL0     H49440   5.135   6.603   3.969 -0.3277  1.7997  0.4117
  375MOL0     H49441   5.336   6.596   3.839  0.2940  0.8554 -0.0415
  375MOL0     H49442   5.237   6.601   3.686 -1.1764 -1.5106 -0.2857
  375MOL0     H49443   5.215   6.368   3.890 -1.2917 -0.4732  0.3326
  375MOL0     H49444   5.136   6.397   3.737  1.9490 -1.6218 -3.0063
  375MOL0     H49445   5.361   6.255   3.742 -2.2894 -0.3969 -0.8834
  375MOL0     H49446   5.451   6.407   3.759 -0.8101  1.4642 -0.2281
  375MOL0     H49447   5.444   6.320   3.520  0.3680 -1.6205 -0.6255
  375MOL0     H49448   5.360   6.482   3.529 -0.0171  0.1353  0.0081
  375MOL0     H49449   5.193   6.228   3.557 -5.2144  0.1217 -1.3940
  375MOL0     H49450   5.143   6.389   3.518 -0.7477 -1.2970 -3.0296
  375MOL0     H49451   5.291   6.208   3.346  0.1153 -0.5842  3.9358
  375MOL0     H49452   5.283   6.390   3.303 -0.9238  0.4835 -2.0932
  375MOL0     H49453   5.027   6.096   3.354 -1.1129 -0.1793 -0.3189
  375MOL0     H49454   4.694   6.206   3.254  1.1284  1.5676  0.2654
  375MOL0     H49455   4.801   6.078   3.313 -0.7788  0.4322  1.5811
  375MOL0     H49456   4.678   6.005   3.110 -1.4048  2.1748  1.4152
  375MOL0     H49457   4.852   5.999   3.067  0.1420  0.2195 -2.5964
  375MOL0     H49458   4.862   6.191   2.953 -1.3867  0.8776  1.4250
  375MOL0     H49459   4.734   6.082   2.891 -2.2363 -0.1589  1.6394
  375MOL0     H49460   4.673   6.355   3.028  1.7322 -0.2763  0.0608
  375MOL0     H49461   4.566   6.208   3.030  1.1487  1.8222  4.1505
  375MOL0     H49462   4.476   6.342   2.629  1.1397  1.0955 -1.5981
  375MOL0     H49463   4.286   6.493   2.584  0.2127 -1.9258  0.5440
  375MOL0     H49464   4.047   6.677   2.400 -0.7683  0.0162 -1.6280
  375MOL0     H49465   3.880   6.814   2.311  2.7716 -0.3007 -0.6198
  375MOL0     H49466   3.629   7.049   2.302 -0.0388  1.4799 -0.7314
  375MOL0     H49467   3.787   6.982   2.226 -2.5599 -2.0108 -0.6813
  375MOL0     H49468   3.861   7.196   2.193 -0.7651  0.2393  0.6867
  375MOL0     H49469   3.732   7.272   2.281  2.8351  0.0838  0.4763
  375MOL0     H49470   3.562   7.157   2.138  2.0435 -2.1835  1.5779
  375MOL0     H49471   3.674   7.106   2.023 -2.5465 -0.0058  0.4902
  375MOL0     H49472   3.637   7.403   2.109  0.4781  0.1282  1.2481
  375MOL0     H49473   3.740   7.334   1.972 -2.2795  1.2587 -3.5384
  375MOL0     H49474   3.439   7.346   1.976  1.9504  0.0840  5.0190
  375MOL0     H49475   3.537   7.243   1.877  2.6841 -0.5777 -0.0491
  375MOL0     H49476   3.482   7.453   1.735  0.6173  2.4268 -2.1050
  375MOL0     H49477   3.653   7.453   1.777  0.7348  3.9421 -1.0340
  375MOL0     H49478   3.588   7.593   1.978 -0.2551 -0.2620  0.0112
  375MOL0     H49479   3.598   7.678   1.823 -0.2906 -1.3575 -3.6241
  375MOL0     H49480   3.360   7.671   1.786  2.1242 -0.9720 -0.5496
  375MOL0     H49481   3.411   7.763   1.921 -3.8896 -0.6301  4.7833
  375MOL0     H49482   3.915   7.100   2.627 -0.0429  1.1490 -0.2885
  375MOL0     H49483   4.077   6.963   2.733 -5.3169  3.7195  0.2078
  375MOL0     H49484   4.275   6.612   2.986 -1.5922 -3.0149  0.2761
  375MOL0     H49485   4.448   6.443   3.038  1.4339  0.9126 -0.3940
  375MOL0     H49486   5.047   6.988   4.043  1.4455 -1.3638  0.3927
  375MOL0     H49487   5.067   7.227   4.059  0.5055  1.9374 -1.0098
  375MOL0     H49488   5.394   7.591   4.035  1.6868  1.1915 -0.9411
  375MOL0     H49489   5.392   7.806   4.107 -1.4598 -0.4709  2.7607
  375MOL0     H49490   5.049   8.082   3.978  0.0853 -4.8852  0.5606
  375MOL0     H49491   5.189   8.087   3.868 -3.5300  0.3353 -0.6821
  375MOL0     H49492   5.182   8.190   4.147 -2.1020 -0.2075 -0.1878
  375MOL0     H49493   5.289   8.261   4.017  1.1958  1.2494  2.7439
  375MOL0     H49494   4.985   8.277   4.012  0.2190  0.5384 -0.2838
  375MOL0     H49495   5.095   8.384   3.933 -1.0241  2.2821  0.6892
  375MOL0     H49496   5.004   8.358   4.226 -1.0154 -1.6257 -1.1175
  375MOL0     H49497   5.172   8.404   4.211 -1.2433  0.0652  0.9107
  375MOL0     H49498   5.061   8.762   4.077  0.5855  0.7977  0.1739
  375MOL0     H49499   5.015   7.885   3.918  1.5140  0.4912 -2.8397
  375MOL0     H49500   4.988   7.652   3.877  0.8564  0.0811 -0.6140
  376MOL0     O49501   4.591   3.095   9.682  0.1926 -0.6774 -0.3103
  376MOL0     C49502   4.526   3.097   9.784  0.3075 -0.5183  0.8312
  376MOL0     O49503   4.575   3.087   9.908  0.3497 -0.4200 -0.0634
  376MOL0     C49504   4.703   3.074   9.946 -0.4093 -0.6282 -0.2114
  376MOL0     C49505   4.735   3.029  10.081  0.0751 -1.5746 -0.0020
  376MOL0     C49506   4.865   2.994  10.121 -1.2657 -0.8013 -0.6365
  376MOL0     C49507   4.971   2.998  10.040  0.0705 -0.0453  0.3724
  376MOL0     O49508   5.094   2.963  10.092  0.3916  0.1057 -0.3734
  376MOL0     C49509   5.190   3.059  10.106 -0.1999  0.3224 -0.3130
  376MOL0     C49510   5.313   3.016  10.034 -0.2677  0.1001  0.1986
  376MOL0     C49511   5.431   3.108  10.063 -0.2337  0.4545  0.2316
  376MOL0     C49512   5.558   3.068   9.991 -0.4812  0.7105  0.7665
  376MOL0     C49513   5.677   3.149  10.035 -0.1787  0.3395 -0.7650
  376MOL0     C49514   5.798   3.104   9.955  1.1098  0.8546 -0.3152
  376MOL0     C49515   5.912   3.198   9.986  0.0599 -0.0289 -0.5883
  376MOL0     C49516   6.016   3.168   9.878  0.2518  0.6194  0.1842
  376MOL0     N49517   6.110   3.060   9.895  0.6249 -0.8021 -0.0035
  376MOL0     C49518   6.066   2.932   9.905 -0.5138 -0.0781 -0.4726
  376MOL0     C49519   6.163   2.874   9.988  0.2804  0.2155  0.2974
  376MOL0     C49520   6.154   2.735  10.049 -0.2032  0.3313 -0.1611
  376MOL0     C49521   6.104   2.622   9.954  0.0105 -0.5831  0.0358
  376MOL0     C49522   5.975   2.565  10.014 -0.2038  0.4783 -0.5697
  376MOL0     C49523   5.844   2.637   9.965 -0.8057  1.4684  0.0472
  376MOL0     O49524   5.808   2.751  10.047  0.1543  0.0316  0.3321
  376MOL0     C49525   5.765   2.733  10.172  1.7115  0.9548 -0.1030
  376MOL0     C49526   5.756   2.840  10.252  1.1235 -0.0895 -0.1908
  376MOL0     C49527   5.703   2.844  10.385  0.0731  0.5193  0.2475
  376MOL0     C49528   5.662   2.721  10.444  0.2817 -0.4416  0.5873
  376MOL0     C49529   5.616   2.716  10.585  0.2991  0.0879  0.0261
  376MOL0     O49530   5.577   2.596  10.642  0.3163 -0.6255 -0.2969
  376MOL0     C49531   5.527   2.610  10.770  0.1272 -0.2663 -0.3867
  376MOL0     C49532   5.613   2.626  10.881  0.8106 -0.4304  0.4966
  376MOL0     C49533   5.564   2.649  11.008 -0.3201  0.3620 -0.6089
  376MOL0     C49534   5.427   2.657  11.030 -0.0472  0.0348  0.1335
  376MOL0     O49535   5.370   2.659  11.153  0.1610 -0.9231  0.6910
  376MOL0     C49536   5.452   2.640  11.270 -0.6707  0.8308 -0.0083
  376MOL0     C49537   5.372   2.642  11.400  0.8668  0.0829  0.1775
  376MOL0     C49538   5.295   2.513  11.424 -0.5422  0.6884 -1.5032
  376MOL0     C49539   5.202   2.527  11.548  0.3146  0.4250  0.2735
  376MOL0     C49540   5.097   2.415  11.550  0.1570  1.1835  0.7778
  376MOL0     C49541   4.965   2.453  11.485 -0.0793  0.1238  0.0925
  376MOL0     C49542   4.884   2.561  11.558  0.2724  0.6319  0.2494
  376MOL0     C49543   4.738   2.548  11.501  0.6082  0.4366 -0.1726
  376MOL0    Cl49544   4.648   2.691  11.568 -0.6689 -0.1521  0.6739
  376MOL0     C49545   5.340   2.644  10.921  0.0452 -0.1425 -0.2930
  376MOL0     C49546   5.392   2.623  10.791  0.0484  0.2086 -0.2631
  376MOL0     O49547   5.618   2.830  10.644 -0.3764  0.2966  0.5443
  376MOL0     C49548   5.703   2.607  10.375 -0.8078 -0.2178  0.7555
  376MOL0     C49549   5.736   2.606  10.236  0.4226 -0.6345  1.1032
  376MOL0     N49550   6.269   2.962  10.004  0.6780  0.0194 -0.1127
  376MOL0     N49551   6.235   3.076   9.957 -0.1234  0.3265 -0.2246
  376MOL0     C49552   4.948   3.043   9.909 -0.1608  0.0170 -0.6193
  376MOL0     C49553   4.821   3.081   9.857  0.7707  0.2899  0.6952
  376MOL0     C49554   4.377   3.115   9.770 -0.6992  1.0303  0.0326
  376MOL0     C49555   4.292   3.119   9.880  0.2008 -0.5358  1.0970
  376MOL0     C49556   4.150   3.131   9.871  0.2748  0.0668  0.6446
  376MOL0     C49557   4.090   3.153   9.743  0.0941  1.1433 -0.4699
  376MOL0     O49558   3.953   3.171   9.732  0.6491  0.0685  0.2294
  376MOL0     C49559   3.878   3.164   9.610 -0.0226  0.0058 -0.2778
  376MOL0     C49560   3.912   3.291   9.539  0.0740 -0.5119 -0.4789
  376MOL0     C49561   3.806   3.407   9.565 -0.2163  0.5010 -0.0586
  376MOL0     C49562   3.680   3.386   9.477  0.6927  0.7018 -0.5174
  376MOL0     C49563   3.592   3.503   9.472  0.7102  0.1610 -0.4419
  376MOL0     C49564   3.532   3.612   9.489  0.5120 -0.1723  0.1454
  376MOL0     C49565   4.179   3.144   9.634 -0.0146  0.7879  0.3346
  376MOL0     C49566   4.320   3.127   9.643 -0.6650  0.3092 -0.4677
  376MOL0     H49567   4.652   3.030  10.151 -0.4966  0.3886 -0.6339
  376MOL0     H49568   4.890   2.950  10.217 -1.4001  0.2990 -0.0861
  376MOL0     H49569   5.217   3.070  10.212  2.1354 -4.9236 -0.0817
  376MOL0     H49570   5.150   3.154  10.070  1.3095  1.4708  0.9026
  376MOL0     H49571   5.275   3.019   9.932 -3.5353 -0.3411  1.2805
  376MOL0     H49572   5.335   2.909  10.049 -0.6734  0.0730  0.6210
  376MOL0     H49573   5.459   3.112  10.169  1.9143 -1.8074 -0.1712
  376MOL0     H49574   5.411   3.214  10.045 -2.5848  0.1884  0.8423
  376MOL0     H49575   5.566   2.961  10.011 -1.0949  0.1847 -1.4645
  376MOL0     H49576   5.551   3.081   9.883 -2.2547 -0.1570  0.7441
  376MOL0     H49577   5.699   3.116  10.137  0.1944 -1.8630 -1.4987
  376MOL0     H49578   5.649   3.255  10.030  0.5677  0.6527  1.1309
  376MOL0     H49579   5.775   3.104   9.848 -1.7700 -2.0976  0.1214
  376MOL0     H49580   5.826   2.998   9.968 -0.4748  0.3239 -1.0181
  376MOL0     H49581   5.867   3.298   9.987 -4.5071 -1.8228 -0.2570
  376MOL0     H49582   5.959   3.180  10.083  0.3890  1.0071 -0.5489
  376MOL0     H49583   6.075   3.259   9.859  2.0787 -0.6857 -0.6963
  376MOL0     H49584   5.964   3.159   9.782 -2.6556 -1.6964  1.8188
  376MOL0     H49585   5.980   2.876   9.869 -0.2531 -1.6301  1.1700
  376MOL0     H49586   6.076   2.756  10.123  0.2295  3.3169 -0.4437
  376MOL0     H49587   6.240   2.699  10.106 -0.0180 -1.0495 -1.2359
  376MOL0     H49588   6.181   2.546   9.939  0.6738 -0.2605  1.5563
  376MOL0     H49589   6.063   2.654   9.858  0.7514 -0.8348 -0.3711
  376MOL0     H49590   5.958   2.459   9.990 -0.0297  0.0181  1.1824
  376MOL0     H49591   5.992   2.573  10.122 -0.2982  0.8572 -0.5822
  376MOL0     H49592   5.763   2.564   9.958  0.9184 -0.5493  0.3649
  376MOL0     H49593   5.863   2.674   9.864 -1.7517 -0.3795 -0.8546
  376MOL0     H49594   5.787   2.926  10.194 -1.2221 -1.5216 -3.9573
  376MOL0     H49595   5.710   2.940  10.436  0.1618  0.7797 -0.2516
  376MOL0     H49596   5.721   2.619  10.875  0.9648  1.8666 -0.7046
  376MOL0     H49597   5.632   2.648  11.093 -0.4454  1.0899 -0.4863
  376MOL0     H49598   5.514   2.729  11.281 -1.7738  1.4721  1.3443
  376MOL0     H49599   5.517   2.552  11.273  1.7884  2.5358  2.8337
  376MOL0     H49600   5.293   2.718  11.401 -3.6688 -4.1298  2.1947
  376MOL0     H49601   5.436   2.662  11.486 -0.4140  0.3476  1.1031
  376MOL0     H49602   5.368   2.438  11.457 -0.6704  1.3918  0.5248
  376MOL0     H49603   5.243   2.472  11.337 -0.7550 -2.7195  0.0463
  376MOL0     H49604   5.261   2.523  11.640 -0.6110  0.4287  0.8807
  376MOL0     H49605   5.146   2.621  11.550  0.3912  0.5102 -0.9272
  376MOL0     H49606   5.084   2.386  11.655  2.0490 -2.1906  0.2109
  376MOL0     H49607   5.129   2.331  11.489  1.8902  1.0365  1.8192
  376MOL0     H49608   4.901   2.364  11.484  1.1651 -0.8124 -2.0607
  376MOL0     H49609   4.986   2.474  11.380  2.9427 -2.6552 -0.0183
  376MOL0     H49610   4.893   2.542  11.666  0.8652  0.3289  0.1547
  376MOL0     H49611   4.917   2.665  11.550 -1.5386  1.7355  4.4475
  376MOL0     H49612   4.708   2.447  11.531  1.1751 -0.3526 -2.1466
  376MOL0     H49613   4.731   2.552  11.392  0.4429 -0.6225 -0.2096
  376MOL0     H49614   5.233   2.655  10.935 -0.4348  0.4287 -3.5704
  376MOL0     H49615   5.315   2.629  10.714 -1.9982  3.9680  1.7628
  376MOL0     H49616   5.698   2.514  10.430 -1.4194 -2.3390 -2.5610
  376MOL0     H49617   5.760   2.506  10.203 -0.4223 -0.7017  0.6696
  376MOL0     H49618   5.031   3.018   9.843  0.5563 -1.0726  0.6182
  376MOL0     H49619   4.809   3.096   9.750  1.2829 -0.2490  0.5561
  376MOL0     H49620   4.338   3.119   9.978 -0.6242 -2.5518  1.5240
  376MOL0     H49621   4.089   3.112   9.959  2.2112  0.7128  2.1878
  376MOL0     H49622   3.773   3.152   9.640 -0.3166 -0.9725 -1.5858
  376MOL0     H49623   3.905   3.082   9.542  0.0702  2.4675 -3.4273
  376MOL0     H49624   4.014   3.321   9.562  0.9239 -2.5960 -1.3591
  376MOL0     H49625   3.909   3.263   9.433  0.6560  4.0224 -1.9050
  376MOL0     H49626   3.857   3.502   9.547 -2.6585  1.6949 -1.2782
  376MOL0     H49627   3.773   3.402   9.669 -0.4340  1.0711 -0.0955
  376MOL0     H49628   3.704   3.357   9.375  0.5418 -1.8075  0.0822
  376MOL0     H49629   3.626   3.301   9.520  2.2588 -0.1683 -0.2003
  376MOL0     H49630   3.483   3.707   9.501 -0.2978 -0.2535 -2.1094
  376MOL0     H49631   4.134   3.139   9.536  0.5612  2.4574 -0.0389
  376MOL0     H49632   4.388   3.134   9.558 -1.3613  0.2784 -1.0336
  377MOL0     O49633  10.071   2.276   7.990  0.1796  0.7915  0.9896
  377MOL0     C49634  10.080   2.175   8.060 -0.2547 -0.9447  0.6225
  377MOL0     O49635  10.177   2.150   8.145  0.7301  0.0442 -0.0199
  377MOL0     C49636  10.264   2.248   8.159 -1.0790  1.1570  0.0448
  377MOL0     C49637  10.235   2.360   8.237 -0.1017 -0.4784 -0.1022
  377MOL0     C49638  10.337   2.460   8.261 -1.1074 -0.4871 -0.9424
  377MOL0     C49639  10.452   2.460   8.180  0.0141 -0.3479  0.0954
  377MOL0     O49640  10.541   2.564   8.181 -0.0956  0.1159 -0.4730
  377MOL0     C49641  10.479   2.695   8.164 -0.1475 -0.0265  0.4065
  377MOL0     C49642  10.560   2.774   8.061  0.2609 -0.2968  0.6906
  377MOL0     C49643  10.659   2.860   8.136  0.4112 -0.8176 -0.3458
  377MOL0     C49644  10.768   2.907   8.037  0.6853  0.4824  0.4683
  377MOL0     C49645  10.883   2.968   8.100  0.1858 -0.5680  0.1478
  377MOL0     C49646  10.998   2.970   8.005 -0.1632 -0.2308 -0.2075
  377MOL0     C49647  10.972   3.051   7.880  0.3965  0.0687 -0.1748
  377MOL0     C49648  10.997   2.967   7.757 -0.5455 -1.0204  0.0961
  377MOL0     N49649  10.929   3.022   7.642  0.0228 -0.6258  0.1025
  377MOL0     C49650  10.977   3.025   7.513  0.9098 -0.1036  0.1972
  377MOL0     C49651  10.857   3.024   7.443  0.5820 -0.2845 -0.0400
  377MOL0     C49652  10.855   3.029   7.288 -0.4928  0.0137  0.2584
  377MOL0     C49653  10.788   3.156   7.240  0.7823 -0.3104 -0.6997
  377MOL0     C49654  10.812   3.182   7.097  0.1303  0.5922  1.4885
  377MOL0     C49655  10.775   3.331   7.070  0.2722 -0.7527  0.5078
  377MOL0     O49656  10.819   3.377   6.948  0.6311 -0.2253 -0.1534
  377MOL0     C49657  10.725   3.430   6.863 -0.4374  0.0570  0.3272
  377MOL0     C49658  10.733   3.557   6.806  0.2104  0.2320 -1.1436
  377MOL0     C49659  10.632   3.604   6.723 -0.0703 -0.2577 -0.1592
  377MOL0     C49660  10.523   3.522   6.684 -0.0051  0.3946 -0.2847
  377MOL0     C49661  10.423   3.585   6.597 -1.2795 -0.6887  0.1374
  377MOL0     O49662  10.310   3.507   6.584  0.8497 -0.8510 -0.2945
  377MOL0     C49663  10.199   3.547   6.508 -0.2135 -0.1531 -0.0480
  377MOL0     C49664  10.133   3.436   6.447  0.4401 -0.5519  0.1973
  377MOL0     C49665  10.027   3.464   6.364  1.2754  0.0974 -0.3781
  377MOL0     C49666   9.986   3.600   6.335 -0.5771  0.8807  0.0808
  377MOL0     O49667   9.871   3.649   6.286 -0.2729 -0.3273 -0.1687
  377MOL0     C49668   9.803   3.579   6.182  0.0686 -0.1784 -0.8530
  377MOL0     C49669   9.804   3.649   6.046  0.0973  0.0469  0.6328
  377MOL0     C49670   9.742   3.794   6.050 -0.1269 -0.2881 -0.5033
  377MOL0     C49671   9.846   3.899   6.085 -0.0232  0.8114 -0.3257
  377MOL0     C49672   9.799   4.032   6.135 -0.7382  0.0426  0.0339
  377MOL0     C49673   9.723   4.121   6.031  0.0013  0.7217  0.4114
  377MOL0     C49674   9.705   4.258   6.090  0.6484  0.5684 -0.1378
  377MOL0     C49675   9.599   4.259   6.210 -0.1019 -0.6261  0.5751
  377MOL0    Cl49676   9.447   4.257   6.142  0.1341  0.0201 -0.0776
  377MOL0     C49677  10.062   3.703   6.386  0.1360  0.5462  0.9068
  377MOL0     C49678  10.163   3.678   6.478  0.2428  0.1904 -0.4630
  377MOL0     O49679  10.453   3.690   6.552 -0.5495  0.4342  1.3698
  377MOL0     C49680  10.515   3.394   6.740 -0.2153  0.6027  0.1344
  377MOL0     C49681  10.621   3.346   6.823 -0.5456 -0.1947  1.1947
  377MOL0     N49682  10.747   3.060   7.522 -0.2473 -0.4923 -0.0088
  377MOL0     N49683  10.801   3.058   7.634 -0.2895  0.0860 -1.0633
  377MOL0     C49684  10.484   2.344   8.106  0.1010  0.0936  0.1062
  377MOL0     C49685  10.392   2.237   8.111 -1.2853 -0.0093  0.5500
  377MOL0     C49686   9.976   2.072   8.034  0.8240 -1.2498 -0.6920
  377MOL0     C49687   9.951   1.976   8.128  0.4118 -0.5329  0.5491
  377MOL0     C49688   9.852   1.875   8.119  0.0017  0.8873  0.0540
  377MOL0     C49689   9.771   1.880   8.005 -0.7457  0.1373  0.0804
  377MOL0     O49690   9.664   1.787   7.999 -0.1282 -0.0099 -0.6346
  377MOL0     C49691   9.554   1.815   7.909 -0.2201 -0.1703 -0.3302
  377MOL0     C49692   9.421   1.767   7.954  0.6066 -0.0961 -0.5302
  377MOL0     C49693   9.316   1.790   7.846 -0.0538 -0.4695  0.5580
  377MOL0     C49694   9.308   1.667   7.753  0.5121  0.0046 -0.5454
  377MOL0     C49695   9.189   1.694   7.674  0.2956 -0.2840 -0.6047
  377MOL0     C49696   9.082   1.722   7.619  1.1269  0.2189 -0.0685
  377MOL0     C49697   9.802   1.977   7.904 -0.0928 -0.0164  0.2153
  377MOL0     C49698   9.895   2.087   7.916 -0.7812 -0.3244  0.2713
  377MOL0     H49699  10.146   2.352   8.300  0.7630 -2.1943  0.9743
  377MOL0     H49700  10.315   2.529   8.342 -1.3667 -1.0075 -0.5718
  377MOL0     H49701  10.472   2.750   8.258 -0.4866  0.2681  0.2151
  377MOL0     H49702  10.374   2.683   8.135 -0.4877 -0.7635  1.8509
  377MOL0     H49703  10.490   2.834   8.002  0.3129  0.1236  1.0457
  377MOL0     H49704  10.603   2.705   7.988  1.3386  0.2129  0.8191
  377MOL0     H49705  10.710   2.802   8.213  1.6683 -0.4856 -0.9022
  377MOL0     H49706  10.619   2.952   8.180  0.4644 -0.3510 -1.2425
  377MOL0     H49707  10.801   2.819   7.981  0.7486  0.0270  1.2083
  377MOL0     H49708  10.725   2.973   7.961  4.9139  1.3422 -1.4454
  377MOL0     H49709  10.912   2.916   8.191  1.8463  0.1353  0.0635
  377MOL0     H49710  10.865   3.074   8.119 -1.5621 -0.5968 -1.1257
  377MOL0     H49711  11.001   2.863   7.984 -1.3997  0.0202 -1.8710
  377MOL0     H49712  11.087   3.004   8.059 -1.5546  1.0261  1.4036
  377MOL0     H49713  10.870   3.089   7.880 -0.3754 -1.8185 -2.0022
  377MOL0     H49714  11.053   3.124   7.872  0.4889 -0.1834 -1.7929
  377MOL0     H49715  10.958   2.866   7.772 -2.2972 -0.2280  1.2827
  377MOL0     H49716  11.105   2.955   7.743 -0.6792 -0.0934 -2.2777
  377MOL0     H49717  11.069   2.999   7.463 -1.2567 -1.0521 -3.7067
  377MOL0     H49718  10.802   2.939   7.253  0.5916  0.2409 -2.1790
  377MOL0     H49719  10.956   3.008   7.251 -0.8992 -0.2994 -0.7272
  377MOL0     H49720  10.827   3.241   7.297 -2.9351 -0.2108  2.1087
  377MOL0     H49721  10.680   3.150   7.256  0.7137  1.7517  0.0013
  377MOL0     H49722  10.921   3.188   7.086  0.1157  1.8822  1.8343
  377MOL0     H49723  10.764   3.118   7.023 -1.0602  2.9558  0.1012
  377MOL0     H49724  10.825   3.387   7.150  0.6453  0.5096 -0.5861
  377MOL0     H49725  10.668   3.343   7.089  0.6292  0.5338  1.8678
  377MOL0     H49726  10.818   3.622   6.823  1.6894 -2.3482  2.9605
  377MOL0     H49727  10.652   3.706   6.694 -0.4236 -0.2503 -0.3853
  377MOL0     H49728  10.152   3.330   6.453 -0.3016 -0.6319  1.2560
  377MOL0     H49729   9.967   3.377   6.341  0.2977  0.2229  1.5237
  377MOL0     H49730   9.702   3.561   6.219 -1.0562  3.8958 -1.4231
  377MOL0     H49731   9.844   3.478   6.175  0.5852 -0.2247  1.8427
  377MOL0     H49732   9.757   3.581   5.975  1.9897  1.6098 -2.3400
  377MOL0     H49733   9.904   3.671   6.006  0.8452  1.3838  3.0197
  377MOL0     H49734   9.658   3.809   6.118 -0.5408  4.6873 -1.7769
  377MOL0     H49735   9.693   3.801   5.953 -4.6762 -1.4878  1.4358
  377MOL0     H49736   9.899   3.865   6.174 -1.9249 -1.0206  0.1887
  377MOL0     H49737   9.915   3.927   6.005 -2.6904  2.3861 -2.2690
  377MOL0     H49738   9.890   4.085   6.163  0.2113  0.0509 -2.8162
  377MOL0     H49739   9.732   4.026   6.222 -2.9888  0.7948 -1.5402
  377MOL0     H49740   9.623   4.085   6.005  0.7558 -0.7044 -0.6709
  377MOL0     H49741   9.785   4.131   5.942  1.9442  0.7226  1.6960
  377MOL0     H49742   9.801   4.301   6.119  1.5046 -1.0405 -0.4775
  377MOL0     H49743   9.668   4.329   6.016 -3.9198 -0.5320  0.7868
  377MOL0     H49744   9.610   4.356   6.259 -1.1864  2.5656 -4.7169
  377MOL0     H49745   9.610   4.183   6.288  0.7689  1.7511  2.9108
  377MOL0     H49746  10.030   3.804   6.362  1.7780  0.4923 -1.9107
  377MOL0     H49747  10.197   3.772   6.520  2.6307 -1.4625  1.6910
  377MOL0     H49748  10.442   3.316   6.719  1.9373 -1.2022 -0.9955
  377MOL0     H49749  10.621   3.240   6.850  2.0913 -0.5727  0.0755
  377MOL0     H49750  10.570   2.321   8.045 -2.4657 -2.8646 -2.7847
  377MOL0     H49751  10.421   2.150   8.052  4.1986  2.8401 -1.6531
  377MOL0     H49752  10.010   1.979   8.219  3.1606 -0.7439 -1.1096
  377MOL0     H49753   9.839   1.803   8.198  0.2777  0.5487 -0.2035
  377MOL0     H49754   9.566   1.773   7.809 -2.1182  0.2908 -0.8002
  377MOL0     H49755   9.545   1.923   7.895 -2.1969  0.0692  1.9831
  377MOL0     H49756   9.424   1.660   7.977 -3.5246  0.1788  2.3813
  377MOL0     H49757   9.400   1.813   8.052  0.4536 -2.5983  0.6840
  377MOL0     H49758   9.326   1.886   7.796 -0.4153 -0.2098  0.9771
  377MOL0     H49759   9.218   1.799   7.893 -0.1880 -2.3008  0.6959
  377MOL0     H49760   9.399   1.645   7.697 -0.4346  1.3991 -2.7376
  377MOL0     H49761   9.278   1.583   7.816 -0.4131 -0.0941 -1.0985
  377MOL0     H49762   8.998   1.749   7.557  1.5747  3.7743  0.6621
  377MOL0     H49763   9.747   1.981   7.810  2.8088  1.9574 -1.5914
  377MOL0     H49764   9.904   2.165   7.841 -0.4791 -1.4307 -0.8768
  378MOL0     O49765   6.196   2.405   3.047  0.4991 -0.0393  0.0089
  378MOL0     C49766   6.207   2.526   3.078 -0.1331  0.9514 -0.3246
  378MOL0     O49767   6.313   2.605   3.048  0.8172 -0.9977 -0.2202
  378MOL0     C49768   6.421   2.553   2.982  0.4930  0.4690  0.1160
  378MOL0     C49769   6.552   2.592   3.020  0.2714 -0.7318  0.0440
  378MOL0     C49770   6.668   2.545   2.957 -0.4800  0.2818 -1.1487
  378MOL0     C49771   6.660   2.438   2.866  0.0839 -1.0722 -0.2537
  378MOL0     O49772   6.781   2.401   2.809  0.5296  0.7448 -0.3870
  378MOL0     C49773   6.792   2.261   2.778  0.6172 -0.7972  0.1583
  378MOL0     C49774   6.933   2.234   2.722 -0.2871  0.2890 -1.7129
  378MOL0     C49775   7.056   2.269   2.812 -0.0828 -0.2268 -0.1763
  378MOL0     C49776   7.192   2.252   2.728 -0.4337 -0.0716  0.1542
  378MOL0     C49777   7.321   2.288   2.805 -0.4307  0.3491  0.5828
  378MOL0     C49778   7.438   2.287   2.717 -0.2884  0.2404 -0.3721
  378MOL0     C49779   7.564   2.339   2.782 -0.3837 -0.1860  0.7856
  378MOL0     C49780   7.687   2.316   2.686  0.2467 -0.3575 -0.1056
  378MOL0     N49781   7.823   2.325   2.749  0.2304 -0.8232  0.3242
  378MOL0     C49782   7.862   2.247   2.854  0.1681  1.2218 -0.7098
  378MOL0     C49783   7.978   2.309   2.900  0.6818  0.3759  0.4062
  378MOL0     C49784   8.070   2.236   3.005 -0.5818 -0.5388 -0.1843
  378MOL0     C49785   8.192   2.168   2.942 -0.0975 -0.1067  0.5329
  378MOL0     C49786   8.267   2.086   3.045 -0.4287 -0.5300  0.7988
  378MOL0     C49787   8.366   1.982   2.981 -0.3352 -0.2544  0.7714
  378MOL0     O49788   8.409   1.903   3.083 -0.1044  0.3074  0.3032
  378MOL0     C49789   8.525   1.924   3.159  0.1083 -0.6312 -0.5268
  378MOL0     C49790   8.579   2.046   3.189 -0.1397 -1.0928 -0.2570
  378MOL0     C49791   8.700   2.059   3.259 -0.4760  0.8804  0.4320
  378MOL0     C49792   8.774   1.937   3.299  0.5544 -1.7003  0.0652
  378MOL0     C49793   8.893   1.950   3.385  0.2778  0.3062  0.8201
  378MOL0     O49794   8.952   1.833   3.415  0.0525 -0.4486 -0.1388
  378MOL0     C49795   9.063   1.837   3.497 -0.6766  0.7591  0.2712
  378MOL0     C49796   9.054   1.837   3.638  0.3876 -0.1985 -0.4863
  378MOL0     C49797   9.171   1.832   3.726 -0.1019 -0.7670  0.3423
  378MOL0     C49798   9.302   1.843   3.667  0.4542 -0.5690 -0.4355
  378MOL0     O49799   9.416   1.839   3.737  0.2930  0.4893  0.0553
  378MOL0     C49800   9.407   1.837   3.887 -0.1944 -0.0313 -0.0771
  378MOL0     C49801   9.378   1.705   3.964 -1.0061  0.4708  0.0402
  378MOL0     C49802   9.500   1.613   3.950 -0.3565 -0.2806 -0.4779
  378MOL0     C49803   9.507   1.543   3.806  0.3198 -1.1243 -1.3929
  378MOL0     C49804   9.578   1.402   3.800  0.2393 -0.8344  0.7712
  378MOL0     C49805   9.582   1.338   3.659  0.0695 -0.1219  0.2813
  378MOL0     C49806   9.641   1.200   3.665 -0.8992 -0.0785  0.3731
  378MOL0     C49807   9.685   1.158   3.522 -0.2559 -0.5457 -0.4693
  378MOL0    Cl49808   9.805   1.276   3.454  0.1999  0.1616 -0.2035
  378MOL0     C49809   9.312   1.847   3.522  0.2097 -0.3347 -0.8125
  378MOL0     C49810   9.193   1.847   3.442  0.2841  0.0711  0.2664
  378MOL0     O49811   8.937   2.062   3.409  0.5285 -0.6550  0.0594
  378MOL0     C49812   8.713   1.815   3.269  0.3568  0.2532 -0.0849
  378MOL0     C49813   8.588   1.810   3.203 -0.2601  0.1567 -0.2328
  378MOL0     N49814   7.987   2.424   2.820  0.2075 -0.1977 -0.7649
  378MOL0     N49815   7.904   2.431   2.720  0.1721 -0.6470 -1.0398
  378MOL0     C49816   6.528   2.393   2.833  0.1776 -0.3987  0.2638
  378MOL0     C49817   6.412   2.462   2.878  0.3713  0.2724 -0.1591
  378MOL0     C49818   6.092   2.599   3.127  0.6443 -0.6580  0.1055
  378MOL0     C49819   6.087   2.738   3.145  0.2761 -0.0548 -0.4132
  378MOL0     C49820   5.983   2.807   3.208  0.5053  0.7197 -0.2045
  378MOL0     C49821   5.870   2.737   3.249 -0.8699  0.3550  0.1154
  378MOL0     O49822   5.761   2.790   3.313 -0.4611  0.7848  0.6471
  378MOL0     C49823   5.726   2.922   3.264 -0.3133 -0.3508 -0.2846
  378MOL0     C49824   5.577   2.965   3.296  0.7491 -0.6054 -0.7226
  378MOL0     C49825   5.552   2.967   3.451 -0.4990 -0.9408  0.7502
  378MOL0     C49826   5.610   3.095   3.531 -0.3924  0.2829  0.2952
  378MOL0     C49827   5.519   3.124   3.641 -0.1084 -0.7805 -0.8413
  378MOL0     C49828   5.442   3.159   3.729  0.9848  0.3384  0.5181
  378MOL0     C49829   5.871   2.596   3.225 -0.9660 -0.3151 -0.9419
  378MOL0     C49830   5.973   2.532   3.159  0.0654 -0.3444  0.3658
  378MOL0     H49831   6.563   2.665   3.099 -2.7445  0.8995 -0.8989
  378MOL0     H49832   6.767   2.580   2.984 -0.4811 -0.2613 -0.3963
  378MOL0     H49833   6.726   2.227   2.698  3.2672 -1.7016 -1.8238
  378MOL0     H49834   6.784   2.189   2.860  0.1698 -2.9100 -1.6388
  378MOL0     H49835   6.934   2.298   2.633 -1.5513  2.6149 -0.1663
  378MOL0     H49836   6.940   2.128   2.696  2.2234 -0.3460  1.0335
  378MOL0     H49837   7.066   2.195   2.892  2.1784 -2.7024 -2.5146
  378MOL0     H49838   7.054   2.373   2.844  1.0441  2.0860 -6.2222
  378MOL0     H49839   7.204   2.148   2.696  2.8902  0.2379  0.0323
  378MOL0     H49840   7.194   2.322   2.643  0.9965  2.8493  2.4147
  378MOL0     H49841   7.344   2.209   2.876 -0.5475  0.1846  0.4417
  378MOL0     H49842   7.311   2.384   2.856 -0.5315  0.5623  0.1683
  378MOL0     H49843   7.413   2.362   2.641 -0.7301  1.0242  0.5415
  378MOL0     H49844   7.453   2.186   2.676  2.4822  0.2541  0.3924
  378MOL0     H49845   7.570   2.447   2.796  1.5841 -0.3153  1.2481
  378MOL0     H49846   7.589   2.280   2.871  1.3754 -1.6419 -0.5945
  378MOL0     H49847   7.677   2.389   2.605 -5.0787 -1.3155 -0.6945
  378MOL0     H49848   7.679   2.226   2.626  1.9127  0.6383 -1.9290
  378MOL0     H49849   7.817   2.154   2.886  0.7613  0.3148 -2.4265
  378MOL0     H49850   8.010   2.158   3.052 -0.9597 -1.0992 -1.5255
  378MOL0     H49851   8.104   2.309   3.079 -1.6247 -0.4868  0.2605
  378MOL0     H49852   8.260   2.242   2.901  0.6838 -0.0970  1.7969
  378MOL0     H49853   8.142   2.111   2.862 -3.1870 -3.9808  4.6764
  378MOL0     H49854   8.315   2.155   3.116 -2.8685  0.4626  1.6098
  378MOL0     H49855   8.201   2.014   3.095 -0.1858 -2.1287 -1.0703
  378MOL0     H49856   8.458   2.026   2.942  0.6722 -1.3933  1.7659
  378MOL0     H49857   8.318   1.922   2.902  0.9790 -0.3782  0.0414
  378MOL0     H49858   8.530   2.135   3.152  2.7949  0.7609  0.0102
  378MOL0     H49859   8.730   2.161   3.279 -1.3250  1.1270  0.5114
  378MOL0     H49860   8.957   1.823   3.685  1.7054  0.8394  2.8539
  378MOL0     H49861   9.155   1.815   3.832 -0.2030  0.0222  0.4596
  378MOL0     H49862   9.335   1.916   3.914 -0.4874  1.1605 -3.7543
  378MOL0     H49863   9.499   1.869   3.936 -1.8713 -0.3972  3.7165
  378MOL0     H49864   9.286   1.659   3.927 -0.9551  1.2272 -1.0752
  378MOL0     H49865   9.372   1.736   4.068  2.0844  2.7968 -0.3443
  378MOL0     H49866   9.492   1.532   4.023 -1.4984  0.6004  0.4126
  378MOL0     H49867   9.591   1.668   3.974 -1.0658  0.1109  1.4590
  378MOL0     H49868   9.409   1.532   3.760  0.3047  0.2284 -1.7131
  378MOL0     H49869   9.558   1.615   3.741 -0.0479 -0.2065 -0.6709
  378MOL0     H49870   9.529   1.344   3.879  2.4770  1.2873  3.9137
  378MOL0     H49871   9.681   1.428   3.824 -0.1669  2.5979 -0.6780
  378MOL0     H49872   9.634   1.403   3.588 -0.2027  0.6924  0.8141
  378MOL0     H49873   9.479   1.331   3.622 -0.0390 -1.0712  0.7283
  378MOL0     H49874   9.728   1.198   3.731 -1.2133  1.2968  0.8722
  378MOL0     H49875   9.554   1.141   3.695 -1.3026  1.6340  2.9524
  378MOL0     H49876   9.597   1.161   3.457 -0.9144  1.1015  0.4387
  378MOL0     H49877   9.730   1.059   3.537 -1.9056 -0.9891  2.0353
  378MOL0     H49878   9.409   1.849   3.473 -1.4516 -1.6067 -4.5197
  378MOL0     H49879   9.198   1.838   3.334 -2.4382  0.8404 -0.0017
  378MOL0     H49880   8.746   1.724   3.318  0.7122 -0.7569 -2.0966
  378MOL0     H49881   8.546   1.713   3.177 -1.1098  0.5844 -0.5166
  378MOL0     H49882   6.512   2.328   2.747  1.5257  0.1909 -0.4705
  378MOL0     H49883   6.318   2.424   2.839  2.0646  0.0241 -4.6195
  378MOL0     H49884   6.170   2.801   3.116 -2.0479  1.7216 -3.9670
  378MOL0     H49885   5.993   2.913   3.228  0.3192  0.1203  3.7415
  378MOL0     H49886   5.743   2.918   3.156  3.2133  0.3849  0.1010
  378MOL0     H49887   5.796   2.988   3.316  0.2969 -3.4607  3.3021
  378MOL0     H49888   5.561   3.062   3.246  0.6600  0.0114  0.4611
  378MOL0     H49889   5.510   2.888   3.258 -2.1463  0.0435  2.5174
  378MOL0     H49890   5.582   2.868   3.488  1.0060 -1.6236 -1.9630
  378MOL0     H49891   5.444   2.956   3.459 -0.4043 -0.7643  2.6912
  378MOL0     H49892   5.713   3.078   3.565 -0.8006 -0.1103  1.3749
  378MOL0     H49893   5.606   3.189   3.476 -3.3740  0.0887  0.0550
  378MOL0     H49894   5.370   3.202   3.797  0.2203  0.1167 -0.1396
  378MOL0     H49895   5.788   2.537   3.264 -0.2409 -0.2528  0.7671
  378MOL0     H49896   5.952   2.428   3.137 -0.7008 -0.0957 -0.1015
  379MOL0     O49897   4.223  10.767   4.612  0.1637 -0.0207  0.0433
  379MOL0     C49898   4.115  10.743   4.662  0.4558  0.1783 -0.0243
  379MOL0     O49899   4.090  10.684   4.785  0.9557  0.6653  0.2827
  379MOL0     C49900   4.198  10.635   4.849  0.2845  0.9835  0.7892
  379MOL0     C49901   4.249  10.687   4.966 -1.1091 -0.4207 -0.1197
  379MOL0     C49902   4.361  10.633   5.032  0.4834 -0.5266  0.1176
  379MOL0     C49903   4.431  10.528   4.973 -0.8864  0.2229 -0.3672
  379MOL0     O49904   4.542  10.501   5.049 -0.1864 -0.5947  0.4109
  379MOL0     C49905   4.650  10.427   4.983  0.4122 -0.1489 -0.0023
  379MOL0     C49906   4.752  10.380   5.081 -0.1868  0.8250  0.0325
  379MOL0     C49907   4.877  10.322   5.011 -0.0352 -0.0677 -0.7837
  379MOL0     C49908   4.984  10.291   5.119 -0.8007  0.6080  0.8677
  379MOL0     C49909   5.111  10.214   5.066 -0.0465  1.1182  0.3602
  379MOL0     C49910   5.071  10.095   4.976  0.3365  0.6430  0.5471
  379MOL0     C49911   5.187   9.998   4.950  0.8334  0.2836 -0.9406
  379MOL0     C49912   5.199   9.869   5.035 -0.1576 -0.6943 -0.4288
  379MOL0     N49913   5.084   9.778   5.002  0.3162 -0.5838  0.4380
  379MOL0     C49914   4.992   9.726   5.091  1.0005 -0.4996 -0.0495
  379MOL0     C49915   4.933   9.620   5.026 -0.5387  0.4323  0.6424
  379MOL0     C49916   4.826   9.518   5.084  0.0608  0.6105  0.0493
  379MOL0     C49917   4.769   9.410   4.995  0.7412  0.7347 -0.1879
  379MOL0     C49918   4.658   9.331   5.055  0.6691  0.1432 -0.3375
  379MOL0     C49919   4.610   9.220   4.958 -1.5529  0.6123  0.5087
  379MOL0     O49920   4.496   9.138   5.009 -0.1947 -0.3025  0.0468
  379MOL0     C49921   4.522   9.067   5.123 -0.4515  0.3289  0.0225
  379MOL0     C49922   4.433   9.079   5.219 -0.5838  0.4372 -0.1397
  379MOL0     C49923   4.456   9.020   5.346  1.1198  0.4330 -0.7616
  379MOL0     C49924   4.575   8.938   5.367 -0.4326  0.5196 -0.7170
  379MOL0     C49925   4.603   8.870   5.492  0.6755  0.0902 -0.4640
  379MOL0     O49926   4.515   8.911   5.594  0.4419  0.1991 -0.6440
  379MOL0     C49927   4.509   8.848   5.715 -0.7302 -0.4752  0.5301
  379MOL0     C49928   4.497   8.941   5.821 -0.6288  0.7274  0.1323
  379MOL0     C49929   4.471   8.897   5.946 -0.3693 -0.5648 -0.3641
  379MOL0     C49930   4.469   8.758   5.978 -0.6150  0.0916  0.2666
  379MOL0     O49931   4.428   8.736   6.106 -0.0580  0.3271  0.1342
  379MOL0     C49932   4.435   8.610   6.171  0.0953 -0.3445  0.4045
  379MOL0     C49933   4.479   8.617   6.309 -0.5618  0.3959 -0.1506
  379MOL0     C49934   4.412   8.718   6.404  0.2038  0.6473 -0.0060
  379MOL0     C49935   4.261   8.705   6.405  0.7216  0.1437 -0.3743
  379MOL0     C49936   4.185   8.747   6.535 -0.3300  0.6697 -0.2727
  379MOL0     C49937   4.233   8.882   6.581  0.0746  0.1712  0.6112
  379MOL0     C49938   4.134   8.953   6.676 -0.1590 -0.1468 -0.2906
  379MOL0     C49939   4.199   9.002   6.811 -0.6953  0.7108 -0.0888
  379MOL0    Cl49940   4.362   9.076   6.806  0.5802  0.3365 -0.2343
  379MOL0     C49941   4.491   8.670   5.878  0.4422  0.2628 -0.5436
  379MOL0     C49942   4.500   8.707   5.738  0.2805 -0.1819 -1.3368
  379MOL0     O49943   4.683   8.773   5.498 -0.2769 -0.7145 -0.4286
  379MOL0     C49944   4.669   8.936   5.266  0.1246 -0.6362 -0.3201
  379MOL0     C49945   4.640   8.996   5.143  0.3937 -0.2517  0.8250
  379MOL0     N49946   4.996   9.609   4.902 -0.0768  0.7346 -0.8368
  379MOL0     N49947   5.082   9.703   4.891  0.2008  0.2526 -0.1643
  379MOL0     C49948   4.378  10.462   4.857  0.2836  0.1581  0.2376
  379MOL0     C49949   4.259  10.515   4.800 -0.2205  0.9228  0.5362
  379MOL0     C49950   3.985  10.792   4.597 -0.8472 -0.8340  0.0825
  379MOL0     C49951   3.871  10.787   4.668  0.2208  0.0858 -0.0258
  379MOL0     C49952   3.745  10.813   4.602 -0.5328 -0.4437  0.0564
  379MOL0     C49953   3.745  10.857   4.470 -0.1012 -0.6595  0.0239
  379MOL0     O49954   3.637  10.867   4.383  0.0119 -1.2335 -0.7105
  379MOL0     C49955   3.509  10.816   4.422  0.7912  0.5704  0.2849
  379MOL0     C49956   3.398  10.885   4.352 -0.1019 -0.1721 -0.5682
  379MOL0     C49957   3.412  10.851   4.195  0.2283  0.0241  0.1559
  379MOL0     C49958   3.356  10.970   4.117 -0.0627 -0.1955  0.2886
  379MOL0     C49959   3.462  11.065   4.095  0.6377 -0.1555 -0.0343
  379MOL0     C49960   3.535  11.151   4.052 -0.7505  0.5399 -0.3049
  379MOL0     C49961   3.871  10.883   4.408  0.6462 -0.5472  0.1477
  379MOL0     C49962   3.991  10.854   4.474 -0.1034 -0.6709 -0.1728
  379MOL0     H49963   4.209  10.780   5.005  1.4283  1.7941 -2.3994
  379MOL0     H49964   4.412  10.691   5.108 -0.3858 -1.5227  1.5226
  379MOL0     H49965   4.698  10.491   4.908  1.3267  1.2430  1.7044
  379MOL0     H49966   4.605  10.337   4.940  0.3946  0.3185 -0.9926
  379MOL0     H49967   4.700  10.305   5.141  0.7397 -1.0383 -1.3988
  379MOL0     H49968   4.775  10.456   5.156 -0.5098  0.9215  0.0355
  379MOL0     H49969   4.928  10.396   4.949  4.5509 -0.3631  2.0926
  379MOL0     H49970   4.848  10.232   4.957 -0.3806 -0.6440  0.3357
  379MOL0     H49971   5.027  10.384   5.159  1.8649 -0.1502  0.0031
  379MOL0     H49972   4.924  10.247   5.199 -0.3701  2.2524  2.1554
  379MOL0     H49973   5.153  10.190   5.164  0.4086 -0.7505 -0.2399
  379MOL0     H49974   5.174  10.279   5.005  3.2470  0.4729  2.8225
  379MOL0     H49975   5.057  10.153   4.885 -0.4557 -1.2720 -0.6212
  379MOL0     H49976   4.979  10.040   4.995  1.0762  0.0796  2.8581
  379MOL0     H49977   5.181   9.950   4.852 -3.3161 -3.2019  0.7052
  379MOL0     H49978   5.279  10.057   4.944  1.0650  0.6500  3.4112
  379MOL0     H49979   5.205   9.893   5.142 -2.4827 -1.1794 -0.1534
  379MOL0     H49980   5.292   9.821   5.003  1.7094  1.4911  1.3306
  379MOL0     H49981   4.980   9.766   5.191  3.0874 -0.8918  0.3921
  379MOL0     H49982   4.743   9.575   5.125  0.1150 -0.8330  2.3081
  379MOL0     H49983   4.874   9.465   5.167 -0.4461  0.0601 -0.0065
  379MOL0     H49984   4.856   9.348   4.971  2.4844  3.3163 -0.9681
  379MOL0     H49985   4.730   9.459   4.906 -1.2404  2.7517  1.6635
  379MOL0     H49986   4.690   9.289   5.151 -0.1090 -0.3158 -0.2714
  379MOL0     H49987   4.582   9.404   5.083  0.9366  0.4977 -0.5345
  379MOL0     H49988   4.697   9.156   4.943 -0.6453  1.8756  0.2270
  379MOL0     H49989   4.597   9.258   4.857 -2.5659  0.9674  0.7622
  379MOL0     H49990   4.337   9.127   5.205 -2.0393 -2.4515 -1.0099
  379MOL0     H49991   4.383   9.036   5.424  1.0956 -4.6180  0.6067
  379MOL0     H49992   4.507   9.049   5.811  2.8337  0.6363  1.2448
  379MOL0     H49993   4.456   8.966   6.028 -1.4514 -1.0326 -0.1548
  379MOL0     H49994   4.502   8.549   6.110  0.2745  2.5089 -2.5638
  379MOL0     H49995   4.333   8.572   6.161  1.3788 -3.5813 -2.2237
  379MOL0     H49996   4.588   8.620   6.320 -0.4878 -3.8388  2.4511
  379MOL0     H49997   4.453   8.515   6.338 -4.5110  0.4016 -2.8408
  379MOL0     H49998   4.430   8.819   6.365  0.2229  1.3865  1.8042
  379MOL0     H49999   4.465   8.705   6.499 -1.7647 -1.7802  0.8887
  379MOL0     H50000   4.222   8.766   6.323 -1.3888  1.3580  1.4217
  379MOL0     H50001   4.233   8.600   6.391 -1.4382  0.5385  0.5635
  379MOL0     H50002   4.198   8.679   6.620  2.5982  0.2232 -0.9963
  379MOL0     H50003   4.077   8.756   6.521 -0.0079  1.8902 -2.2766
  379MOL0     H50004   4.240   8.939   6.487  2.5894 -3.7120 -1.8261
  379MOL0     H50005   4.329   8.868   6.631 -0.8485 -0.0194  2.4047
  379MOL0     H50006   4.099   9.042   6.622 -1.8666 -0.7956 -0.3328
  379MOL0     H50007   4.048   8.891   6.702  0.3096 -1.0540 -0.8810
  379MOL0     H50008   4.197   8.923   6.888  2.5214  2.2974  1.8284
  379MOL0     H50009   4.142   9.084   6.855  1.1071  2.6102 -1.1810
  379MOL0     H50010   4.495   8.565   5.904 -4.0252 -0.5193 -2.0798
  379MOL0     H50011   4.500   8.636   5.656  2.0953 -2.4992  0.5361
  379MOL0     H50012   4.768   8.897   5.286  0.8755  0.7255 -1.2763
  379MOL0     H50013   4.725   8.999   5.076  1.1308  0.6083  1.7873
  379MOL0     H50014   4.422  10.372   4.815 -4.9043 -3.7833  2.1538
  379MOL0     H50015   4.223  10.471   4.708  1.3996  3.4397 -1.4328
  379MOL0     H50016   3.864  10.743   4.767  0.3048  0.1693  0.0178
  379MOL0     H50017   3.650  10.795   4.650 -0.2993  1.1585  1.1970
  379MOL0     H50018   3.488  10.841   4.526 -1.2896  1.8447 -0.3824
  379MOL0     H50019   3.491  10.712   4.394 -3.5952  1.3357 -0.4115
  379MOL0     H50020   3.302  10.849   4.391 -0.3308  1.1294  0.1438
  379MOL0     H50021   3.403  10.993   4.374 -0.3129 -0.6491  2.1719
  379MOL0     H50022   3.361  10.756   4.178  0.1799 -0.2742  1.8145
  379MOL0     H50023   3.512  10.816   4.168  0.3160 -2.7591  3.4527
  379MOL0     H50024   3.321  10.931   4.021  3.6352 -0.7648 -0.9708
  379MOL0     H50025   3.277  11.019   4.176  2.0082  5.5218 -1.0588
  379MOL0     H50026   3.601  11.228   4.015  1.8619 -2.6036 -2.8089
  379MOL0     H50027   3.874  10.935   4.313  3.3168  0.8462  0.8776
  379MOL0     H50028   4.082  10.887   4.426 -0.6881  3.0859  0.9647
  380MOL0     O50029   5.504   7.108   6.018 -0.6271  0.3318 -0.8500
  380MOL0     C50030   5.505   7.216   6.068 -0.4752 -0.2848  0.1594
  380MOL0     O50031   5.417   7.323   6.054  0.8520  0.0908 -0.1177
  380MOL0     C50032   5.294   7.308   5.986  1.4055 -0.6201 -0.5201
  380MOL0     C50033   5.254   7.210   5.898 -0.6478  0.2914 -0.0543
  380MOL0     C50034   5.128   7.198   5.848 -0.3378 -0.2517  0.7743
  380MOL0     C50035   5.027   7.300   5.878 -0.6275  0.5430 -0.4021
  380MOL0     O50036   4.903   7.321   5.831 -0.1810 -0.9849 -0.2842
  380MOL0     C50037   4.839   7.227   5.747  0.7383 -0.1260  0.5893
  380MOL0     C50038   4.706   7.297   5.704 -0.4961  0.5412 -0.3074
  380MOL0     C50039   4.657   7.264   5.562  0.3085  0.6146  0.1426
  380MOL0     C50040   4.621   7.112   5.552  0.2477  0.3898  1.5845
  380MOL0     C50041   4.562   7.069   5.413  0.3909  0.0086  0.0550
  380MOL0     C50042   4.423   7.122   5.394  0.5721 -0.2132  0.6916
  380MOL0     C50043   4.342   7.046   5.281 -0.1756  0.2946  0.3350
  380MOL0     C50044   4.206   7.110   5.268  0.3098  0.0964  0.6040
  380MOL0     N50045   4.204   7.254   5.238  0.0983  0.1158 -0.0863
  380MOL0     C50046   4.175   7.356   5.327  0.5475  0.1816 -0.0006
  380MOL0     C50047   4.189   7.471   5.261 -0.2489 -0.4600  0.1466
  380MOL0     C50048   4.151   7.603   5.313 -0.5028 -0.5367  0.4763
  380MOL0     C50049   4.005   7.610   5.375 -1.0232 -0.2014 -0.2271
  380MOL0     C50050   3.979   7.735   5.451 -0.6864  0.2464 -0.5707
  380MOL0     C50051   3.830   7.746   5.493  0.1612  0.1094 -0.2428
  380MOL0     O50052   3.751   7.642   5.436 -0.4217  0.0289  0.5684
  380MOL0     C50053   3.615   7.664   5.421  0.4812 -0.7201  0.2312
  380MOL0     C50054   3.541   7.588   5.334  0.0482 -0.2246  0.4724
  380MOL0     C50055   3.404   7.615   5.321  0.5284 -0.5239 -0.5646
  380MOL0     C50056   3.331   7.694   5.405 -0.0336 -0.9433 -1.0980
  380MOL0     C50057   3.190   7.716   5.378  0.4225 -0.7699 -0.5980
  380MOL0     O50058   3.127   7.808   5.453  0.2072  0.0520 -0.1262
  380MOL0     C50059   2.989   7.834   5.445 -0.4395  0.5707 -0.3069
  380MOL0     C50060   2.887   7.749   5.401 -1.1017  0.1108 -0.3308
  380MOL0     C50061   2.754   7.796   5.412  0.4699 -0.4362  0.4904
  380MOL0     C50062   2.721   7.918   5.473 -0.6624 -0.5164 -0.1922
  380MOL0     O50063   2.591   7.958   5.476 -0.1937  0.7399 -0.6348
  380MOL0     C50064   2.543   8.065   5.560 -0.4011  0.4476 -0.5975
  380MOL0     C50065   2.391   8.056   5.598  0.3400 -0.4079 -0.1741
  380MOL0     C50066   2.346   8.170   5.683  0.3365 -0.6127 -0.1932
  380MOL0     C50067   2.204   8.219   5.652  0.6815  0.5513 -0.5224
  380MOL0     C50068   2.168   8.335   5.752  1.0831  0.0985  0.5324
  380MOL0     C50069   2.023   8.377   5.751 -0.2990  0.0149  0.3137
  380MOL0     C50070   1.986   8.485   5.852 -0.8762 -0.5486 -0.2670
  380MOL0     C50071   1.835   8.487   5.883 -0.1108 -0.0807 -0.1701
  380MOL0    Cl50072   1.789   8.336   5.962 -0.0141 -0.0822 -0.3374
  380MOL0     C50073   2.824   7.995   5.524 -0.1808  0.1581  0.5082
  380MOL0     C50074   2.953   7.955   5.501  0.6696 -0.4561  0.1243
  380MOL0     O50075   3.142   7.657   5.282  0.0836  0.4458  0.6410
  380MOL0     C50076   3.405   7.779   5.494 -0.0049  0.4016  0.5541
  380MOL0     C50077   3.545   7.757   5.500 -0.4517  0.5069  0.1352
  380MOL0     N50078   4.225   7.442   5.127  0.0566  0.6189 -0.6914
  380MOL0     N50079   4.231   7.313   5.120  0.5594  0.8977 -0.2638
  380MOL0     C50080   5.064   7.397   5.970 -0.8072 -1.8463  0.9499
  380MOL0     C50081   5.200   7.410   6.010 -0.4888  0.5077 -0.6958
  380MOL0     C50082   5.633   7.249   6.134  0.0882  0.0067  0.8538
  380MOL0     C50083   5.649   7.374   6.187 -0.3279  0.0650  0.3183
  380MOL0     C50084   5.771   7.406   6.252  0.3231  0.3796  0.9306
  380MOL0     C50085   5.881   7.316   6.259  0.1619  0.0781  0.7898
  380MOL0     O50086   5.992   7.360   6.332  0.3946  0.6235 -0.9520
  380MOL0     C50087   6.075   7.248   6.377 -0.3129  0.5152  0.1687
  380MOL0     C50088   6.172   7.305   6.487 -0.7203 -0.0482 -0.3511
  380MOL0     C50089   6.096   7.317   6.622 -0.4029 -0.3015  0.2407
  380MOL0     C50090   6.202   7.360   6.734  0.3674  0.0171  0.3517
  380MOL0     C50091   6.257   7.496   6.712  0.8097  0.3129 -0.3799
  380MOL0     C50092   6.281   7.619   6.697  0.1221 -0.4344  0.3470
  380MOL0     C50093   5.855   7.194   6.197  0.0346  0.5936  0.4911
  380MOL0     C50094   5.730   7.145   6.153  0.0981 -0.0371 -0.1007
  380MOL0     H50095   5.327   7.136   5.867 -2.7058 -1.7115 -0.4468
  380MOL0     H50096   5.106   7.108   5.791  0.4634  0.4745 -0.7179
  380MOL0     H50097   4.812   7.128   5.783  1.5891 -0.9875 -0.9938
  380MOL0     H50098   4.901   7.212   5.658 -2.0323 -1.3315 -1.2614
  380MOL0     H50099   4.712   7.406   5.714  0.2831  0.4487  0.3800
  380MOL0     H50100   4.635   7.260   5.779 -0.4233  1.3267  0.1594
  380MOL0     H50101   4.737   7.277   5.488  0.8931 -0.5297  0.5432
  380MOL0     H50102   4.572   7.327   5.533 -0.3327  0.4287  1.5240
  380MOL0     H50103   4.708   7.051   5.578  0.3172  0.8228  2.4072
  380MOL0     H50104   4.541   7.080   5.620 -0.5102 -1.2954 -0.0029
  380MOL0     H50105   4.559   6.960   5.412  0.6371 -0.0654 -2.7821
  380MOL0     H50106   4.629   7.099   5.331  2.5370  0.3282  1.8359
  380MOL0     H50107   4.430   7.223   5.354  1.0325 -0.9993 -1.3120
  380MOL0     H50108   4.362   7.121   5.485  0.9204  1.1220  0.9592
  380MOL0     H50109   4.400   7.065   5.191  0.6530 -1.6059  0.4204
  380MOL0     H50110   4.331   6.938   5.294  0.5084  0.4452  2.5789
  380MOL0     H50111   4.159   7.101   5.366 -1.2743  0.6770 -0.0634
  380MOL0     H50112   4.150   7.059   5.189  0.7450  1.3809 -0.5904
  380MOL0     H50113   4.147   7.344   5.431  1.9483  0.4604  0.4243
  380MOL0     H50114   4.157   7.675   5.232  0.5697 -0.1149  0.9078
  380MOL0     H50115   4.226   7.639   5.384  0.5777  0.4998 -1.1332
  380MOL0     H50116   3.981   7.523   5.436  1.8372 -1.0639 -0.1745
  380MOL0     H50117   3.938   7.598   5.290 -1.4101  0.2991  0.0024
  380MOL0     H50118   4.040   7.732   5.541 -3.8550  0.2306  1.7594
  380MOL0     H50119   4.006   7.823   5.393  0.0141  2.3122  2.6663
  380MOL0     H50120   3.787   7.844   5.470  0.8644  0.5034  0.0946
  380MOL0     H50121   3.825   7.730   5.601  1.4165  0.6236 -0.0881
  380MOL0     H50122   3.585   7.503   5.284  2.5356  1.9977 -1.4081
  380MOL0     H50123   3.356   7.558   5.242 -3.3064  4.6256 -2.5533
  380MOL0     H50124   2.898   7.649   5.358 -1.3203  0.5643 -1.4675
  380MOL0     H50125   2.663   7.753   5.372 -0.8622  1.5913  1.2002
  380MOL0     H50126   2.567   8.162   5.515  1.3344 -0.0796 -0.9050
  380MOL0     H50127   2.599   8.052   5.653  0.3377 -0.1608 -1.1187
  380MOL0     H50128   2.374   7.958   5.644 -0.1183  0.1790  0.9395
  380MOL0     H50129   2.345   8.048   5.498  2.0440 -0.4444 -0.9946
  380MOL0     H50130   2.413   8.253   5.660  0.4279 -0.4415  0.6667
  380MOL0     H50131   2.355   8.154   5.791  1.7667  1.3441  0.0287
  380MOL0     H50132   2.190   8.246   5.547 -1.0239  1.6296 -0.0667
  380MOL0     H50133   2.149   8.128   5.679  1.5655 -0.4000 -1.8026
  380MOL0     H50134   2.228   8.421   5.722  2.5781 -0.7433  1.0299
  380MOL0     H50135   2.200   8.302   5.852 -1.5844  1.5379  1.9872
  380MOL0     H50136   1.979   8.282   5.780 -1.5961  0.6044  0.3337
  380MOL0     H50137   1.983   8.410   5.655 -1.9772 -1.0059  0.6277
  380MOL0     H50138   2.042   8.470   5.944  0.2281  0.1393 -0.8151
  380MOL0     H50139   2.016   8.583   5.814 -5.7031  1.1551 -0.4174
  380MOL0     H50140   1.769   8.508   5.799  0.4070  1.1985 -0.2879
  380MOL0     H50141   1.835   8.574   5.950  1.7597 -0.0381 -0.1565
  380MOL0     H50142   2.801   8.095   5.560  1.1780  0.5260  0.4409
  380MOL0     H50143   3.032   8.023   5.530 -0.1479  0.4374  0.2993
  380MOL0     H50144   3.367   7.856   5.560 -0.3294  2.0021 -1.4354
  380MOL0     H50145   3.597   7.813   5.577 -0.0427  1.7123 -0.9650
  380MOL0     H50146   4.986   7.470   5.988 -0.3965 -0.1923 -2.9254
  380MOL0     H50147   5.220   7.484   6.086 -1.9174 -0.6818  0.9490
  380MOL0     H50148   5.576   7.451   6.167  0.9532  1.9659  2.4251
  380MOL0     H50149   5.781   7.509   6.287 -0.2317 -0.6803  4.5803
  380MOL0     H50150   6.138   7.224   6.291 -1.4009  0.6475 -0.6993
  380MOL0     H50151   6.010   7.166   6.407 -2.5740  2.3329  0.5913
  380MOL0     H50152   6.256   7.239   6.507 -0.3799  1.2305  3.1785
  380MOL0     H50153   6.206   7.405   6.461 -2.5754  0.8330  0.3707
  380MOL0     H50154   6.054   7.220   6.648 -1.7474 -0.4796 -2.2425
  380MOL0     H50155   6.020   7.394   6.610  2.1529  2.2563 -0.9785
  380MOL0     H50156   6.136   7.360   6.822  0.8966  0.0270  0.7517
  380MOL0     H50157   6.276   7.280   6.741  0.0570 -0.4191 -1.0300
  380MOL0     H50158   6.303   7.720   6.669  1.1275 -0.9151 -0.7091
  380MOL0     H50159   5.930   7.117   6.206 -1.2106 -0.8403 -0.6979
  380MOL0     H50160   5.710   7.049   6.107  2.2859  0.7933 -3.0610
  381MOL0     O50161   8.970   8.994   8.611 -1.2875  0.1606  0.1116
  381MOL0     C50162   9.047   8.921   8.546 -0.5389  0.8485  0.1978
  381MOL0     O50163   9.024   8.866   8.424 -0.4263 -0.0319  0.6212
  381MOL0     C50164   8.889   8.858   8.389  0.1039  0.6112  0.3833
  381MOL0     C50165   8.795   8.782   8.465  0.3395  0.0841  0.9753
  381MOL0     C50166   8.663   8.769   8.425 -0.0234 -0.3366  0.1769
  381MOL0     C50167   8.625   8.825   8.299  0.7873 -0.0586  0.4848
  381MOL0     O50168   8.499   8.793   8.258  0.6957  0.2669  0.5120
  381MOL0     C50169   8.449   8.837   8.136 -0.1589  0.2598  0.0846
  381MOL0     C50170   8.305   8.790   8.150  0.0080  0.0126  0.5091
  381MOL0     C50171   8.215   8.829   8.036 -0.6073 -0.7521  0.2968
  381MOL0     C50172   8.071   8.780   8.069 -0.4803 -0.1388  0.5978
  381MOL0     C50173   7.983   8.862   7.979  0.4322  0.0374 -0.4154
  381MOL0     C50174   7.839   8.845   8.011  0.9310 -0.0275  0.8727
  381MOL0     C50175   7.769   8.918   7.896  0.9352  0.0002 -0.1549
  381MOL0     C50176   7.611   8.906   7.918  0.6053 -0.5444 -1.1583
  381MOL0     N50177   7.571   9.021   7.994 -0.0916  0.5587 -0.2343
  381MOL0     C50178   7.531   9.145   7.945  0.6131  0.5414 -0.2081
  381MOL0     C50179   7.495   9.216   8.059 -0.5730  0.4943 -0.5613
  381MOL0     C50180   7.459   9.364   8.063 -0.3435  0.4801 -0.8965
  381MOL0     C50181   7.592   9.444   8.087  0.4883  0.1354 -0.3911
  381MOL0     C50182   7.575   9.594   8.055  0.8696  0.2053  0.0377
  381MOL0     C50183   7.478   9.668   8.159 -0.2283 -0.6987  0.3591
  381MOL0     O50184   7.339   9.652   8.121  0.8509  0.1893  0.5661
  381MOL0     C50185   7.292   9.715   8.007  0.9371  0.2270 -0.4206
  381MOL0     C50186   7.162   9.691   7.972  0.3286 -0.6128  1.0000
  381MOL0     C50187   7.096   9.757   7.869  0.7327 -0.4040  0.2652
  381MOL0     C50188   7.151   9.861   7.802  1.0399 -0.4144  0.2911
  381MOL0     C50189   7.082   9.944   7.697 -0.6907 -0.1781 -0.4898
  381MOL0     O50190   7.142  10.053   7.647  1.1179 -0.4949 -0.0943
  381MOL0     C50191   7.103  10.102   7.521  0.2096 -0.0249 -0.0314
  381MOL0     C50192   7.150  10.229   7.491 -0.4554  0.4933  0.1503
  381MOL0     C50193   7.115  10.296   7.367 -0.0763 -0.2768 -0.0935
  381MOL0     C50194   7.043  10.225   7.269  0.8142  0.5795  0.5679
  381MOL0     O50195   7.012  10.257   7.139  0.6494 -0.4811 -0.6689
  381MOL0     C50196   7.041  10.390   7.096 -0.1297 -0.7946  0.5103
  381MOL0     C50197   6.981  10.388   6.954  0.4887  0.4066 -0.1286
  381MOL0     C50198   6.993  10.530   6.889 -0.1173 -1.2676 -0.7375
  381MOL0     C50199   6.914  10.649   6.946  0.0435 -0.0137  0.7927
  381MOL0     C50200   6.911  10.778   6.861 -0.4803  0.1262 -0.3423
  381MOL0     C50201   6.839  10.762   6.728 -0.3230  0.3312 -0.5734
  381MOL0     C50202   6.864  10.886   6.645  0.6003 -0.4085  0.1687
  381MOL0     C50203   6.792  11.005   6.703  0.3672 -0.9590  0.1044
  381MOL0    Cl50204   6.798  11.147   6.591 -0.0689 -0.1267  0.0708
  381MOL0     C50205   6.985  10.101   7.302  0.1140  0.5898  0.4617
  381MOL0     C50206   7.017  10.039   7.425  0.5296 -0.8338  0.1171
  381MOL0     O50207   6.965   9.911   7.674  0.1018  0.0031  0.0114
  381MOL0     C50208   7.289   9.893   7.829  0.0985  0.1176 -0.1840
  381MOL0     C50209   7.348   9.825   7.937  0.5919  0.5490 -0.2275
  381MOL0     N50210   7.533   9.143   8.169  0.6712 -0.2758 -0.9064
  381MOL0     N50211   7.564   9.017   8.135 -0.7272 -0.2234 -0.0078
  381MOL0     C50212   8.715   8.902   8.216 -0.5298  0.9912 -0.0672
  381MOL0     C50213   8.847   8.911   8.264 -0.6246 -0.0980  0.1680
  381MOL0     C50214   9.180   8.889   8.601 -0.5049  0.2562  0.4804
  381MOL0     C50215   9.271   8.799   8.535  0.8807  0.4550 -0.5621
  381MOL0     C50216   9.397   8.763   8.583 -0.8542  0.6337  0.0041
  381MOL0     C50217   9.445   8.836   8.694  0.9555  0.2368 -0.7720
  381MOL0     O50218   9.574   8.830   8.747  0.2604  0.5218  0.1346
  381MOL0     C50219   9.670   8.746   8.685 -0.3479  0.1234  0.0233
  381MOL0     C50220   9.812   8.800   8.713  0.8118 -0.6963 -0.7591
  381MOL0     C50221   9.841   8.778   8.863  0.5313 -0.4194  0.2228
  381MOL0     C50222   9.997   8.758   8.897  0.3898 -0.4571  0.3971
  381MOL0     C50223  10.054   8.892   8.888 -0.4453 -1.0349 -0.9213
  381MOL0     C50224  10.119   8.997   8.893  1.2644  0.0451 -0.6048
  381MOL0     C50225   9.359   8.930   8.757 -1.0889  0.5066 -0.2407
  381MOL0     C50226   9.229   8.949   8.712 -0.8267  0.0755  0.3570
  381MOL0     H50227   8.824   8.742   8.562 -1.7320  2.6013  2.7765
  381MOL0     H50228   8.588   8.711   8.479 -2.2304  0.6829 -1.6419
  381MOL0     H50229   8.502   8.784   8.056 -0.9365 -2.3228  1.1491
  381MOL0     H50230   8.448   8.946   8.130  0.5337  0.2161 -1.1988
  381MOL0     H50231   8.263   8.825   8.245 -2.3387 -1.6115  0.1574
  381MOL0     H50232   8.309   8.681   8.149  3.1686  0.0275 -1.4861
  381MOL0     H50233   8.270   8.788   7.950  0.8759 -0.2683  0.9916
  381MOL0     H50234   8.214   8.937   8.021 -2.4621 -0.8855 -0.9545
  381MOL0     H50235   8.076   8.671   8.058  0.2640 -0.1336  0.8873
  381MOL0     H50236   8.047   8.804   8.173 -3.2005  2.1451 -0.4175
  381MOL0     H50237   8.010   8.849   7.874  0.6569  0.9640 -0.4790
  381MOL0     H50238   8.005   8.965   8.008 -3.2765  0.3312  2.1766
  381MOL0     H50239   7.804   8.888   8.106 -0.8948 -1.6998  1.0268
  381MOL0     H50240   7.815   8.738   8.002 -3.6913  0.7863  0.8787
  381MOL0     H50241   7.800   9.022   7.879  1.5966 -0.3198 -0.9965
  381MOL0     H50242   7.796   8.850   7.815 -3.5695 -1.1759 -0.9508
  381MOL0     H50243   7.585   8.815   7.973  1.1570 -0.9303 -1.5296
  381MOL0     H50244   7.558   8.902   7.822 -0.1635 -1.4438 -0.7182
  381MOL0     H50245   7.519   9.178   7.842 -0.0147 -3.1402 -1.4556
  381MOL0     H50246   7.392   9.376   8.148  0.1464 -0.8261 -0.2922
  381MOL0     H50247   7.411   9.391   7.968  0.3076 -1.4650 -1.8372
  381MOL0     H50248   7.664   9.398   8.020 -0.7059 -1.4118 -0.6592
  381MOL0     H50249   7.619   9.423   8.191 -7.1324  2.1694  2.7228
  381MOL0     H50250   7.674   9.640   8.062  1.2592  0.2077 -3.5176
  381MOL0     H50251   7.544   9.618   7.953  0.3883 -0.9909 -0.1071
  381MOL0     H50252   7.497   9.776   8.154 -1.3617 -0.5197 -0.5085
  381MOL0     H50253   7.488   9.630   8.261  1.0187  1.6219  1.1727
  381MOL0     H50254   7.124   9.609   8.032  2.4743 -2.2481  0.2558
  381MOL0     H50255   6.995   9.729   7.843  0.1241  1.3267  0.6181
  381MOL0     H50256   7.212  10.281   7.564 -1.1204  2.0096 -0.3306
  381MOL0     H50257   7.170  10.387   7.346  1.5878 -1.5964 -1.7576
  381MOL0     H50258   7.149  10.407   7.101 -0.3887  0.6563  1.6322
  381MOL0     H50259   7.001  10.471   7.158 -1.3163 -1.8545  1.1860
  381MOL0     H50260   6.881  10.345   6.963  0.9289 -0.1630  2.9650
  381MOL0     H50261   7.028  10.306   6.899 -1.6651 -1.2030  0.3149
  381MOL0     H50262   6.966  10.521   6.784  2.7633  2.7163 -2.0291
  381MOL0     H50263   7.099  10.557   6.892 -0.7999  1.7560 -0.9142
  381MOL0     H50264   6.812  10.612   6.951  0.6876 -2.2109 -0.9680
  381MOL0     H50265   6.953  10.680   7.044 -1.2299  2.7401  0.5299
  381MOL0     H50266   7.016  10.803   6.841 -0.4960  0.4382 -0.0468
  381MOL0     H50267   6.874  10.865   6.915  1.3314 -1.1219  3.2757
  381MOL0     H50268   6.735  10.734   6.743 -1.0955  1.4605 -3.2448
  381MOL0     H50269   6.889  10.686   6.667 -0.6067  2.3873 -3.6189
  381MOL0     H50270   6.970  10.912   6.653  0.3174  0.7533  0.4281
  381MOL0     H50271   6.836  10.874   6.539  1.7125  0.5498 -0.2583
  381MOL0     H50272   6.836  11.034   6.798 -0.1900  1.8749 -0.4080
  381MOL0     H50273   6.685  10.994   6.723 -0.1195 -0.1888 -1.7716
  381MOL0     H50274   6.928  10.048   7.226  2.1410  2.9997 -2.9909
  381MOL0     H50275   6.987   9.935   7.426  0.5221 -1.0535 -4.6245
  381MOL0     H50276   7.348   9.975   7.790 -2.1368  2.8964  1.9336
  381MOL0     H50277   7.444   9.865   7.968  0.5083  2.0048 -1.7143
  381MOL0     H50278   8.685   8.955   8.127 -0.2723  1.9953  0.4306
  381MOL0     H50279   8.924   8.964   8.207  0.7828  0.2737  2.3069
  381MOL0     H50280   9.243   8.760   8.438 -0.7361  3.5482 -1.4883
  381MOL0     H50281   9.447   8.686   8.526 -1.6144 -0.3914  0.6951
  381MOL0     H50282   9.669   8.729   8.577  2.0027  0.0560 -0.0374
  381MOL0     H50283   9.658   8.642   8.719  1.1025  0.0904  0.5128
  381MOL0     H50284   9.884   8.751   8.647 -0.4860  0.8851 -3.5529
  381MOL0     H50285   9.827   8.905   8.685 -0.4306 -0.3143 -0.0526
  381MOL0     H50286   9.793   8.686   8.898 -0.7843  0.7499  1.6247
  381MOL0     H50287   9.806   8.868   8.914  0.0298 -0.5941  0.1900
  381MOL0     H50288  10.003   8.728   9.002  0.8653  1.6257  1.0153
  381MOL0     H50289  10.054   8.684   8.839  2.5111  1.2224  0.1817
  381MOL0     H50290  10.160   9.096   8.895 -0.4274  0.8282  2.8910
  381MOL0     H50291   9.390   8.990   8.842 -0.3096  3.1879 -2.2846
  381MOL0     H50292   9.165   9.020   8.762 -2.7669 -1.2666 -0.0802
  382MOL0     O50293   8.956   9.443  10.995 -0.7642 -0.0225  0.9698
  382MOL0     C50294   8.933   9.541  10.925 -0.0496  0.5085  0.2899
  382MOL0     O50295   8.802   9.579  10.878 -0.6644  0.2435 -0.1338
  382MOL0     C50296   8.701   9.524  10.954  0.7061  0.8457 -0.1612
  382MOL0     C50297   8.598   9.462  10.886  0.1479 -0.7500  0.0165
  382MOL0     C50298   8.489   9.405  10.947  0.7125  0.3383  0.8143
  382MOL0     C50299   8.494   9.393  11.085  0.0296  0.3085 -0.8862
  382MOL0     O50300   8.394   9.342  11.158 -0.7314 -0.2634 -0.3741
  382MOL0     C50301   8.383   9.202  11.138  0.8662 -0.3461 -0.8401
  382MOL0     C50302   8.315   9.130  11.262 -0.2996  0.4056 -0.1487
  382MOL0     C50303   8.166   9.102  11.230 -0.0524 -0.0871 -1.1077
  382MOL0     C50304   8.139   8.954  11.274  0.3845 -1.7504  0.1704
  382MOL0     C50305   7.980   8.948  11.278 -0.4482  0.3815 -0.7715
  382MOL0     C50306   7.940   8.802  11.314 -0.4923  0.2390  0.0319
  382MOL0     C50307   7.788   8.785  11.313  0.6340  0.1492 -0.2791
  382MOL0     C50308   7.743   8.642  11.307 -0.7526 -0.0012 -0.5525
  382MOL0     N50309   7.626   8.627  11.221 -0.4127 -0.3485 -0.2969
  382MOL0     C50310   7.498   8.611  11.264 -0.0733  0.5092 -0.1941
  382MOL0     C50311   7.421   8.600  11.148 -0.5479  0.4049 -0.6128
  382MOL0     C50312   7.274   8.576  11.141 -0.5016  0.0716  0.0824
  382MOL0     C50313   7.216   8.609  11.003 -0.8837 -0.3159 -0.4153
  382MOL0     C50314   7.210   8.498  10.891  0.0756 -0.6061  0.3569
  382MOL0     C50315   7.140   8.550  10.768  0.8249 -0.2761  0.6264
  382MOL0     O50316   7.010   8.598  10.793 -0.0662 -0.7112 -0.3933
  382MOL0     C50317   6.896   8.561  10.725 -0.9955 -0.1024 -0.6681
  382MOL0     C50318   6.880   8.481  10.614  0.2243  0.5557  0.0531
  382MOL0     C50319   6.755   8.458  10.557  0.5885  0.5072  0.3716
  382MOL0     C50320   6.645   8.546  10.600 -0.1653  0.9359 -0.6683
  382MOL0     C50321   6.520   8.533  10.529 -0.2789 -0.6305  0.0941
  382MOL0     O50322   6.517   8.492  10.396  0.6447  0.2707  0.4484
  382MOL0     C50323   6.404   8.525  10.325  0.1111  0.5447 -0.1479
  382MOL0     C50324   6.279   8.470  10.358 -0.3771 -0.0989  1.0685
  382MOL0     C50325   6.172   8.498  10.270 -0.3574 -0.3107  1.2810
  382MOL0     C50326   6.180   8.590  10.168  0.2698  1.1713  0.3097
  382MOL0     O50327   6.079   8.598  10.082  0.6713 -0.2765  0.6392
  382MOL0     C50328   6.071   8.698   9.983 -0.2904 -0.1597 -0.5554
  382MOL0     C50329   6.105   8.634   9.847  0.5089 -0.5326  0.5576
  382MOL0     C50330   6.115   8.745   9.741  0.2752 -0.0092 -0.0770
  382MOL0     C50331   5.974   8.792   9.689  0.4012  0.7363 -0.9915
  382MOL0     C50332   5.987   8.918   9.611 -0.3834 -0.4746 -1.0483
  382MOL0     C50333   5.860   8.976   9.541 -0.0473 -0.4494 -0.7247
  382MOL0     C50334   5.773   8.873   9.463  0.0616 -0.2655  0.2891
  382MOL0     C50335   5.837   8.784   9.356  0.0977  0.8715  0.9591
  382MOL0    Cl50336   5.947   8.884   9.260  0.1737  0.2866  0.1256
  382MOL0     C50337   6.310   8.652  10.140  0.3362  0.4672  0.4313
  382MOL0     C50338   6.421   8.606  10.208 -0.5552 -0.4467 -0.5921
  382MOL0     O50339   6.424   8.571  10.592  0.4167 -0.1520  0.5225
  382MOL0     C50340   6.669   8.635  10.704  0.5445  0.0114 -0.3734
  382MOL0     C50341   6.793   8.645  10.777 -0.0394  0.2741  0.2317
  382MOL0     N50342   7.516   8.614  11.039  0.0967  0.1651 -0.5584
  382MOL0     N50343   7.636   8.637  11.088 -0.1332 -0.0938  0.2497
  382MOL0     C50344   8.596   9.464  11.148 -0.4636  0.2481 -1.6586
  382MOL0     C50345   8.704   9.520  11.091 -0.6171  0.5887  0.3230
  382MOL0     C50346   9.038   9.640  10.880  0.3777  0.6617 -0.1978
  382MOL0     C50347   9.170   9.619  10.909  0.2820  0.7483 -0.0179
  382MOL0     C50348   9.269   9.713  10.892  0.4275 -0.7393  0.3780
  382MOL0     C50349   9.228   9.843  10.841 -0.0546 -0.1076 -0.4466
  382MOL0     O50350   9.310   9.952  10.831  0.4407 -0.7664  1.0730
  382MOL0     C50351   9.447   9.938  10.876  0.2735  1.3184 -0.7447
  382MOL0     C50352   9.518  10.064  10.842  0.7281  0.0929 -0.0966
  382MOL0     C50353   9.470  10.174  10.940  0.2438 -0.1221 -0.3889
  382MOL0     C50354   9.572  10.289  10.962 -0.3402 -0.1840  0.1688
  382MOL0     C50355   9.617  10.345  10.826  0.2548  0.3904  0.1734
  382MOL0     C50356   9.667  10.392  10.722 -0.5151 -0.2690  0.6479
  382MOL0     C50357   9.092   9.864  10.814  0.0044  0.4243  0.3434
  382MOL0     C50358   8.997   9.758  10.823 -0.2241 -1.5554  0.0695
  382MOL0     H50359   8.605   9.454  10.778 -0.6565  0.0783 -0.1062
  382MOL0     H50360   8.411   9.352  10.894  0.0231 -2.2955  4.1795
  382MOL0     H50361   8.484   9.161  11.139  1.1490  0.3432  0.8157
  382MOL0     H50362   8.323   9.191  11.047 -1.8973  0.4833  0.7337
  382MOL0     H50363   8.312   9.188  11.354 -0.3987  0.6829 -0.3262
  382MOL0     H50364   8.355   9.029  11.276 -0.0420  0.5149 -0.0973
  382MOL0     H50365   8.134   9.131  11.130 -1.1570 -2.9728 -1.6940
  382MOL0     H50366   8.116   9.171  11.298 -1.9121 -1.0502 -1.4335
  382MOL0     H50367   8.169   8.884  11.196  1.5844 -1.8165  0.6831
  382MOL0     H50368   8.189   8.924  11.366  1.4264  2.3311  1.1458
  382MOL0     H50369   7.940   8.983  11.182 -2.2199  1.0765  0.1674
  382MOL0     H50370   7.945   9.022  11.351 -0.7690  0.8076 -1.3425
  382MOL0     H50371   7.982   8.770  11.410  0.2282  1.8034  0.2743
  382MOL0     H50372   7.983   8.741  11.234  1.9421 -0.9942  2.1425
  382MOL0     H50373   7.733   8.832  11.396 -2.6978 -0.8669 -1.7574
  382MOL0     H50374   7.756   8.831  11.219  2.2257  2.7417  0.3678
  382MOL0     H50375   7.720   8.612  11.409  0.0014 -0.7416 -0.5903
  382MOL0     H50376   7.819   8.579  11.260 -0.0792 -0.6668  1.3658
  382MOL0     H50377   7.453   8.589  11.361 -1.3166  2.2086 -0.3323
  382MOL0     H50378   7.216   8.632  11.214 -0.2442  0.2510  0.1521
  382MOL0     H50379   7.259   8.470  11.165  2.6639 -0.0905  1.8765
  382MOL0     H50380   7.261   8.702  10.966 -1.1759  0.5120  1.2293
  382MOL0     H50381   7.112   8.640  11.020 -0.3052  0.9787  0.9560
  382MOL0     H50382   7.313   8.488  10.855 -0.3604  0.1185 -1.1805
  382MOL0     H50383   7.168   8.405  10.931 -0.5955 -0.6513 -0.4309
  382MOL0     H50384   7.138   8.481  10.683  3.1002 -0.8930  1.0087
  382MOL0     H50385   7.196   8.633  10.723  0.5028 -0.5115 -0.2319
  382MOL0     H50386   6.969   8.426  10.585  1.3995  2.0877  0.6308
  382MOL0     H50387   6.736   8.395  10.471  1.9727  0.2391  0.2377
  382MOL0     H50388   6.260   8.384  10.422 -0.4250 -1.0160 -0.1277
  382MOL0     H50389   6.075   8.450  10.275 -1.3727  1.1057 -2.0559
  382MOL0     H50390   6.133   8.787   9.997  0.8446 -0.7027 -1.8251
  382MOL0     H50391   5.965   8.725   9.983 -1.4058 -3.8735  1.8466
  382MOL0     H50392   6.022   8.568   9.822 -1.0278  0.8253  1.8051
  382MOL0     H50393   6.193   8.570   9.856  0.6681 -0.6151 -1.2565
  382MOL0     H50394   6.179   8.695   9.667 -0.5042 -1.7386  0.3766
  382MOL0     H50395   6.172   8.822   9.794 -0.2689 -1.2282  2.3973
  382MOL0     H50396   5.928   8.708   9.636  0.0470 -0.0879  0.5300
  382MOL0     H50397   5.902   8.803   9.771 -0.3354  1.6489 -1.7510
  382MOL0     H50398   6.063   8.923   9.531 -1.2328 -1.0573 -1.9140
  382MOL0     H50399   6.004   8.997   9.684  1.3846 -0.5184 -1.3677
  382MOL0     H50400   5.884   9.059   9.474 -1.1368  1.4182  1.0691
  382MOL0     H50401   5.804   9.017   9.626 -0.0710 -3.0144  0.5857
  382MOL0     H50402   5.736   8.817   9.550 -0.4372 -0.5069 -0.0724
  382MOL0     H50403   5.692   8.932   9.420 -0.7198 -1.1940  0.4331
  382MOL0     H50404   5.759   8.741   9.293  1.4055  3.2556 -2.5896
  382MOL0     H50405   5.889   8.700   9.404  0.3171 -0.5976 -1.6331
  382MOL0     H50406   6.313   8.701  10.043  0.8859  2.4428  1.4008
  382MOL0     H50407   6.516   8.648  10.176 -1.5324  0.3279 -2.7203
  382MOL0     H50408   6.587   8.702  10.727 -0.9055 -1.1722 -1.8557
  382MOL0     H50409   6.787   8.706  10.867 -3.5004 -2.5744  2.1712
  382MOL0     H50410   8.576   9.459  11.254  0.2928  0.7029 -1.4911
  382MOL0     H50411   8.785   9.568  11.143  1.9724 -0.8428 -2.0882
  382MOL0     H50412   9.204   9.526  10.952  1.3365  0.5328 -1.2818
  382MOL0     H50413   9.368   9.686  10.929  0.9301 -1.2590 -1.2289
  382MOL0     H50414   9.487   9.849  10.827  0.1360 -1.0969  3.1333
  382MOL0     H50415   9.449   9.916  10.983 -0.0748 -1.1405 -1.2023
  382MOL0     H50416   9.626  10.049  10.857  0.6082 -0.4371  0.2600
  382MOL0     H50417   9.490  10.081  10.738 -2.1842 -3.8922 -0.1868
  382MOL0     H50418   9.462  10.133  11.041  0.4565  1.0443  0.1114
  382MOL0     H50419   9.373  10.216  10.912 -0.3843 -0.0843  1.6790
  382MOL0     H50420   9.521  10.361  11.027 -0.0047 -0.1431  0.3850
  382MOL0     H50421   9.657  10.245  11.014 -0.6044 -0.4230  0.4024
  382MOL0     H50422   9.719  10.430  10.636  0.6167  0.2151  1.5125
  382MOL0     H50423   9.051   9.958  10.780 -2.2734  0.2131  2.2491
  382MOL0     H50424   8.896   9.791  10.802  0.4857  0.1661 -0.8996
  383MOL0     O50425   4.175   5.189   6.285 -0.1385 -1.3052 -0.0062
  383MOL0     C50426   4.172   5.224   6.405 -0.4212  0.5730 -0.4406
  383MOL0     O50427   4.062   5.253   6.480  0.1631  0.0734 -0.2117
  383MOL0     C50428   3.938   5.259   6.422 -0.1388  0.7625  0.8061
  383MOL0     C50429   3.850   5.147   6.409  0.1928 -0.4928  0.2593
  383MOL0     C50430   3.729   5.161   6.342  0.6824  0.4804  0.0283
  383MOL0     C50431   3.687   5.278   6.281  1.1195 -0.3173 -0.0572
  383MOL0     O50432   3.567   5.283   6.208 -0.1440  0.2741 -0.9003
  383MOL0     C50433   3.503   5.411   6.193  0.7983 -0.6153 -0.2285
  383MOL0     C50434   3.363   5.399   6.139  0.4120  0.8936 -0.0669
  383MOL0     C50435   3.268   5.315   6.228  0.0284 -0.3391  0.1439
  383MOL0     C50436   3.123   5.309   6.164 -0.2392 -0.5844 -0.1179
  383MOL0     C50437   3.023   5.229   6.250 -1.0135  0.0467  0.3610
  383MOL0     C50438   2.886   5.225   6.184 -0.3658 -0.5545 -0.7391
  383MOL0     C50439   2.806   5.354   6.229  0.3446  0.3306  0.1932
  383MOL0     C50440   2.670   5.362   6.169  0.1455 -0.8386  0.2315
  383MOL0     N50441   2.581   5.275   6.249 -0.1452  0.1274 -0.2759
  383MOL0     C50442   2.503   5.323   6.355  0.7473  0.3067  0.5293
  383MOL0     C50443   2.444   5.209   6.401 -0.0817 -0.2637 -0.1466
  383MOL0     C50444   2.355   5.184   6.514 -1.3794  0.7267 -0.3976
  383MOL0     C50445   2.366   5.264   6.644 -0.2987  0.8960 -0.8327
  383MOL0     C50446   2.513   5.297   6.680  0.8588  0.4107 -0.1551
  383MOL0     C50447   2.614   5.177   6.674  0.2656  0.6578  0.7420
  383MOL0     O50448   2.682   5.181   6.799  0.1066 -0.7797 -0.1769
  383MOL0     C50449   2.797   5.099   6.817  0.6411 -0.2223  0.0972
  383MOL0     C50450   2.864   5.109   6.938  0.5720  0.3739  0.4368
  383MOL0     C50451   2.972   5.018   6.970 -0.0432 -1.0407  1.3759
  383MOL0     C50452   3.006   4.915   6.880 -0.3926 -0.8806  0.2470
  383MOL0     C50453   3.118   4.825   6.909  0.0524  0.4639  0.3944
  383MOL0     O50454   3.206   4.869   7.002  1.0298 -0.8553 -0.7825
  383MOL0     C50455   3.305   4.782   7.049 -0.0139 -0.3452 -0.2481
  383MOL0     C50456   3.283   4.646   7.072 -0.2348 -0.0202 -0.3432
  383MOL0     C50457   3.380   4.567   7.146  0.1089 -0.3824  0.5361
  383MOL0     C50458   3.487   4.632   7.207 -0.4323 -0.6380  0.9319
  383MOL0     O50459   3.558   4.548   7.278  0.0516  0.3583 -0.4004
  383MOL0     C50460   3.672   4.602   7.345 -0.1511  0.9239 -0.9294
  383MOL0     C50461   3.780   4.599   7.240  0.3195 -0.5114  0.1884
  383MOL0     C50462   3.913   4.563   7.297 -0.2283  0.0173  0.9993
  383MOL0     C50463   3.928   4.417   7.321 -0.4001  0.4362 -0.1275
  383MOL0     C50464   4.056   4.380   7.407 -0.6462  0.6830  0.9201
  383MOL0     C50465   4.076   4.221   7.420 -1.0040  0.8948 -0.1286
  383MOL0     C50466   4.138   4.180   7.557  0.3317  0.2526 -0.5211
  383MOL0     C50467   4.262   4.263   7.604  0.5256 -0.5047  0.2836
  383MOL0    Cl50468   4.375   4.281   7.459 -0.2550 -0.6288  0.2914
  383MOL0     C50469   3.505   4.771   7.181  0.3168  0.8704 -0.0829
  383MOL0     C50470   3.422   4.834   7.098  0.9658 -0.4414 -0.5020
  383MOL0     O50471   3.125   4.724   6.836  0.1619  0.0417  0.0573
  383MOL0     C50472   2.934   4.913   6.763 -0.9698 -0.0459  0.0900
  383MOL0     C50473   2.836   4.997   6.728  0.0037 -0.4529 -0.8189
  383MOL0     N50474   2.474   5.105   6.318 -0.1780 -0.3688  0.4822
  383MOL0     N50475   2.547   5.145   6.220  0.2654 -0.2330  0.4449
  383MOL0     C50476   3.776   5.388   6.292  0.9134 -0.8275  0.6854
  383MOL0     C50477   3.897   5.378   6.368  0.4803  0.5017  0.1798
  383MOL0     C50478   4.300   5.228   6.476  0.0091 -0.0212 -0.3066
  383MOL0     C50479   4.314   5.313   6.589  0.2812  0.7186  1.4002
  383MOL0     C50480   4.425   5.293   6.673 -0.2565 -0.0509  0.2317
  383MOL0     C50481   4.529   5.217   6.637 -0.9870 -0.4805  0.5398
  383MOL0     O50482   4.630   5.221   6.736  0.0466 -0.9873 -0.8140
  383MOL0     C50483   4.750   5.149   6.701 -0.9727  0.7132 -0.1073
  383MOL0     C50484   4.841   5.158   6.820 -0.5418 -0.6864  0.9671
  383MOL0     C50485   4.789   5.099   6.951  0.1356  0.3030  0.4850
  383MOL0     C50486   4.908   5.030   7.019  0.3883  0.1435 -0.0117
  383MOL0     C50487   4.860   5.008   7.153 -0.3520 -0.6747 -0.4255
  383MOL0     C50488   4.824   4.995   7.265 -0.4301  0.2850  0.3928
  383MOL0     C50489   4.521   5.136   6.519 -0.7164 -0.7809 -0.8033
  383MOL0     C50490   4.403   5.141   6.436 -0.2452 -0.2833 -0.5603
  383MOL0     H50491   3.863   5.054   6.463 -0.1040  0.6911  2.5305
  383MOL0     H50492   3.661   5.079   6.323 -1.1942  1.9726 -0.0967
  383MOL0     H50493   3.559   5.474   6.123  0.5644  0.1041  0.2194
  383MOL0     H50494   3.512   5.446   6.296  3.0357 -2.1438  0.1575
  383MOL0     H50495   3.381   5.356   6.040  5.2875 -0.8818  1.2803
  383MOL0     H50496   3.330   5.502   6.124  1.5136  1.5760  1.8718
  383MOL0     H50497   3.257   5.373   6.321  0.5824 -0.9217  0.5789
  383MOL0     H50498   3.304   5.214   6.249  0.8624 -0.4647 -1.7880
  383MOL0     H50499   3.087   5.412   6.157  1.0848 -0.1472 -0.9179
  383MOL0     H50500   3.130   5.269   6.063  3.8816 -2.9531  0.8454
  383MOL0     H50501   3.016   5.255   6.356  0.2015 -0.0194  0.4704
  383MOL0     H50502   3.069   5.130   6.260  2.1177  1.4236  0.9521
  383MOL0     H50503   2.836   5.132   6.211 -0.7007 -0.1731 -0.0042
  383MOL0     H50504   2.905   5.226   6.076  1.5966 -0.1983 -0.4147
  383MOL0     H50505   2.786   5.350   6.336 -0.1794  3.9523  0.3714
  383MOL0     H50506   2.865   5.445   6.212  1.0006 -0.1509 -0.1596
  383MOL0     H50507   2.666   5.334   6.063 -3.3368  1.0484 -0.3027
  383MOL0     H50508   2.635   5.466   6.176  2.1931 -0.1584  1.4697
  383MOL0     H50509   2.503   5.428   6.383 -2.8168  1.6232 -3.4045
  383MOL0     H50510   2.366   5.081   6.547  2.7534  1.6221  1.6765
  383MOL0     H50511   2.254   5.197   6.473 -1.6321 -0.2076 -0.0972
  383MOL0     H50512   2.330   5.198   6.723 -2.3767 -0.5019 -2.8233
  383MOL0     H50513   2.297   5.349   6.648 -1.5330 -0.0866 -0.5849
  383MOL0     H50514   2.540   5.378   6.612  0.6057 -0.2139 -1.0198
  383MOL0     H50515   2.537   5.341   6.777  3.8020  2.4475 -1.6360
  383MOL0     H50516   2.678   5.185   6.586 -3.0588 -0.2160 -1.9599
  383MOL0     H50517   2.576   5.075   6.670  2.1109 -0.0793  0.6492
  383MOL0     H50518   2.827   5.189   7.001 -0.0482  0.1704  0.3390
  383MOL0     H50519   3.007   5.007   7.073  0.1064 -0.2775  1.4132
  383MOL0     H50520   3.194   4.603   7.028 -0.6420 -1.6037  1.8690
  383MOL0     H50521   3.373   4.460   7.164  1.4105 -0.4163  0.9862
  383MOL0     H50522   3.685   4.535   7.430 -1.1402  1.9901  0.1000
  383MOL0     H50523   3.643   4.700   7.383 -2.4012  0.2846 -0.8494
  383MOL0     H50524   3.772   4.695   7.189  1.5809 -0.2956  0.3776
  383MOL0     H50525   3.747   4.531   7.160  0.9442 -1.3873  0.6544
  383MOL0     H50526   3.926   4.618   7.390  1.6870  0.5909  0.4312
  383MOL0     H50527   3.985   4.606   7.227 -0.0719 -0.8716  0.5992
  383MOL0     H50528   3.835   4.374   7.361  0.1706 -1.1219 -0.3782
  383MOL0     H50529   3.934   4.368   7.223  3.8520  0.3609  0.0052
  383MOL0     H50530   4.045   4.416   7.510  0.1674  2.0337  0.5660
  383MOL0     H50531   4.151   4.420   7.370 -0.4852  1.0944  1.7448
  383MOL0     H50532   4.139   4.186   7.338 -1.0262  0.8576 -0.1293
  383MOL0     H50533   3.985   4.162   7.413 -2.1090  2.3339  1.3491
  383MOL0     H50534   4.063   4.182   7.637  0.8241  0.2209 -0.0522
  383MOL0     H50535   4.169   4.075   7.559 -0.2382  0.0875  0.6731
  383MOL0     H50536   4.316   4.218   7.689  0.4987 -4.1698 -1.4342
  383MOL0     H50537   4.223   4.356   7.646  2.5929  1.2419 -1.4120
  383MOL0     H50538   3.584   4.830   7.228  3.2848 -1.5423 -1.6680
  383MOL0     H50539   3.434   4.942   7.093 -0.1228 -0.2257  0.8997
  383MOL0     H50540   2.960   4.832   6.696  0.3157  1.3802 -1.1990
  383MOL0     H50541   2.779   4.971   6.640  0.6530 -1.2810 -1.0078
  383MOL0     H50542   3.750   5.486   6.252  3.6698  0.6350  2.2414
  383MOL0     H50543   3.972   5.456   6.371  1.1840 -0.1190  3.5633
  383MOL0     H50544   4.241   5.393   6.597 -1.2164 -0.2753 -1.0824
  383MOL0     H50545   4.447   5.351   6.762  1.0372 -2.0978  1.3219
  383MOL0     H50546   4.810   5.177   6.614  3.5300 -0.6632  2.2485
  383MOL0     H50547   4.727   5.043   6.687 -0.1258  0.6506 -1.1435
  383MOL0     H50548   4.933   5.107   6.791  1.6762  2.5968  1.6985
  383MOL0     H50549   4.864   5.263   6.842 -2.0470 -0.8162  3.5794
  383MOL0     H50550   4.711   5.023   6.953 -0.2732  0.6625 -0.8327
  383MOL0     H50551   4.748   5.173   7.020 -0.5231 -2.2717  3.0415
  383MOL0     H50552   4.935   4.941   6.961 -0.1652 -0.3715  0.5072
  383MOL0     H50553   4.993   5.099   7.020 -0.2155  1.0383  3.6606
  383MOL0     H50554   4.804   4.982   7.369  0.3918  2.2274  0.8353
  383MOL0     H50555   4.616   5.091   6.489  1.1353  2.9353 -1.1109
  383MOL0     H50556   4.387   5.086   6.344  0.9744 -3.0203  0.7707
  384MOL0     O50557   8.546   7.122   3.432  0.3383  0.3596  0.2183
  384MOL0     C50558   8.467   7.193   3.380  0.8076 -0.7538 -0.2182
  384MOL0     O50559   8.500   7.317   3.321 -0.9075  0.2285 -0.4959
  384MOL0     C50560   8.635   7.343   3.317 -0.4543 -0.1661 -0.8924
  384MOL0     C50561   8.685   7.375   3.193 -0.9625  0.0077 -0.5333
  384MOL0     C50562   8.813   7.433   3.193  0.1511  0.7668  0.1502
  384MOL0     C50563   8.886   7.457   3.306 -0.5156  0.8877 -0.1020
  384MOL0     O50564   9.005   7.510   3.275  0.0932 -0.1278 -0.3511
  384MOL0     C50565   9.106   7.508   3.377  0.0348  0.0097  0.1820
  384MOL0     C50566   9.241   7.490   3.309 -0.1908 -0.3386  0.0024
  384MOL0     C50567   9.347   7.454   3.406 -0.4816 -0.2662 -0.2125
  384MOL0     C50568   9.482   7.450   3.333  0.7927  0.5662 -0.5651
  384MOL0     C50569   9.569   7.564   3.337 -0.5494 -0.2850 -0.2560
  384MOL0     C50570   9.703   7.524   3.265  0.4430 -0.4344  0.8178
  384MOL0     C50571   9.804   7.638   3.252  0.8964 -0.0208 -0.2610
  384MOL0     C50572   9.749   7.733   3.147 -0.4836 -0.5869 -0.4634
  384MOL0     N50573   9.862   7.815   3.101 -0.1155 -0.2170  0.5965
  384MOL0     C50574   9.868   7.904   2.992  0.6816  0.8195  0.5814
  384MOL0     C50575   9.996   7.936   2.967  0.3433  0.4422  0.3275
  384MOL0     C50576  10.047   8.030   2.873  0.1615 -0.4606  0.9882
  384MOL0     C50577  10.071   7.960   2.730 -0.1791  0.1967  0.2118
  384MOL0     C50578  10.174   7.839   2.727 -0.3102 -0.4191 -0.0320
  384MOL0     C50579  10.307   7.905   2.766 -0.0083 -0.2985  0.1005
  384MOL0     O50580  10.417   7.811   2.750  0.5570 -0.2915  0.8478
  384MOL0     C50581  10.514   7.859   2.654  0.6814  0.0385 -0.4279
  384MOL0     C50582  10.618   7.945   2.685  0.3549  0.1297 -0.2968
  384MOL0     C50583  10.721   7.984   2.593  0.7602 -0.3093  0.2506
  384MOL0     C50584  10.724   7.922   2.463 -0.5372  0.4900 -0.6312
  384MOL0     C50585  10.822   7.962   2.369 -0.1630  0.6081 -0.4023
  384MOL0     O50586  10.913   8.054   2.414  0.2714 -0.0062  0.3062
  384MOL0     C50587  11.041   8.074   2.367 -0.2330  0.1562 -0.6716
  384MOL0     C50588  11.102   7.991   2.277  0.0687  1.0455  0.4623
  384MOL0     C50589  11.235   8.004   2.244 -0.2288  0.1679 -0.8053
  384MOL0     C50590  11.304   8.107   2.304  0.0562 -0.2494 -0.1723
  384MOL0     O50591  11.436   8.143   2.273 -0.2725 -0.6966  0.6187
  384MOL0     C50592  11.538   8.042   2.260  1.3956 -0.3457 -0.5879
  384MOL0     C50593  11.655   8.119   2.311  0.5139 -0.2732  0.2862
  384MOL0     C50594  11.644   8.146   2.462 -0.0110 -0.0643 -0.1544
  384MOL0     C50595  11.781   8.179   2.520 -0.1721  0.2134 -0.0683
  384MOL0     C50596  11.802   8.202   2.674  0.6006  0.4436 -0.3237
  384MOL0     C50597  11.762   8.074   2.757 -0.1252  0.4007  0.5596
  384MOL0     C50598  11.791   8.106   2.906 -0.0510 -1.0470  0.5782
  384MOL0     C50599  11.737   8.003   2.995  0.6025  0.3455  0.6437
  384MOL0    Cl50600  11.771   8.032   3.162  0.0089 -0.1622 -0.1385
  384MOL0     C50601  11.243   8.200   2.388 -0.2284 -0.0164  0.6100
  384MOL0     C50602  11.109   8.184   2.430 -0.7520 -0.6040  0.9230
  384MOL0     O50603  10.811   7.923   2.257  0.1397  0.2483 -0.3737
  384MOL0     C50604  10.613   7.835   2.431  0.7894 -0.4229 -0.3392
  384MOL0     C50605  10.515   7.813   2.526 -0.5875 -0.2853  0.3890
  384MOL0     N50606  10.066   7.875   3.071 -0.5060  0.3505 -0.7225
  384MOL0     N50607   9.986   7.831   3.163  1.4716  0.3082 -0.7239
  384MOL0     C50608   8.835   7.420   3.424  0.5926  0.1004 -0.5792
  384MOL0     C50609   8.709   7.362   3.429 -0.3895 -0.5119  0.7308
  384MOL0     C50610   8.335   7.146   3.331 -0.5212  0.1730  0.8650
  384MOL0     C50611   8.250   7.239   3.266  0.1227  0.7436  0.5105
  384MOL0     C50612   8.121   7.196   3.229  0.4223  1.2111 -0.9851
  384MOL0     C50613   8.072   7.063   3.269  0.9633 -0.5173  0.5023
  384MOL0     O50614   7.937   7.035   3.232  0.7381  0.4706 -0.0859
  384MOL0     C50615   7.881   6.923   3.289  0.3697 -0.7010  0.4307
  384MOL0     C50616   7.725   6.936   3.265  0.6937 -0.2458  0.5414
  384MOL0     C50617   7.651   6.802   3.256 -0.3830 -0.0938 -0.3624
  384MOL0     C50618   7.678   6.706   3.372  0.5609  0.6978  0.4882
  384MOL0     C50619   7.585   6.593   3.367  0.0217 -0.1574  1.2944
  384MOL0     C50620   7.494   6.510   3.373  0.7387  0.7653 -0.8227
  384MOL0     C50621   8.153   6.986   3.346  0.8387  0.5098 -0.5437
  384MOL0     C50622   8.281   7.024   3.375  0.4290 -0.1499  0.3599
  384MOL0     H50623   8.621   7.349   3.109  0.0924 -2.1836 -0.7532
  384MOL0     H50624   8.855   7.465   3.098  2.9903 -2.3043  0.2063
  384MOL0     H50625   9.085   7.425   3.445  0.7955  1.5592  2.3998
  384MOL0     H50626   9.106   7.601   3.433  1.7504  0.5954 -0.7183
  384MOL0     H50627   9.272   7.583   3.259 -0.2304 -0.6189 -0.5515
  384MOL0     H50628   9.235   7.404   3.242 -1.1507  1.7153 -2.7651
  384MOL0     H50629   9.321   7.355   3.446 -0.7122 -0.1683 -0.1136
  384MOL0     H50630   9.355   7.524   3.490  1.3250  0.3421 -0.8524
  384MOL0     H50631   9.543   7.377   3.387  1.7044  1.5388 -0.2627
  384MOL0     H50632   9.460   7.414   3.232  1.4774 -1.2613 -0.1010
  384MOL0     H50633   9.603   7.592   3.437  1.1175  0.4380 -0.9855
  384MOL0     H50634   9.514   7.653   3.306 -2.0252 -1.2394 -0.4952
  384MOL0     H50635   9.682   7.496   3.162 -2.5102  2.8149  0.3341
  384MOL0     H50636   9.747   7.441   3.320 -1.4088 -1.0621  1.4286
  384MOL0     H50637   9.823   7.696   3.343  0.6098 -0.3191 -0.0067
  384MOL0     H50638   9.902   7.595   3.228 -0.3371 -2.6715 -0.9212
  384MOL0     H50639   9.677   7.798   3.198  1.2664  1.4055 -0.3765
  384MOL0     H50640   9.712   7.678   3.060 -2.6759 -0.5422  0.3993
  384MOL0     H50641   9.775   7.935   2.945  0.7650  0.0101 -0.1506
  384MOL0     H50642  10.135   8.080   2.913 -1.9194  2.3668  2.3419
  384MOL0     H50643   9.969   8.104   2.853 -1.8772 -2.8099 -0.3847
  384MOL0     H50644  10.107   8.032   2.656  0.0752 -0.8505 -0.7183
  384MOL0     H50645   9.978   7.949   2.673  0.6276  2.2196 -1.6432
  384MOL0     H50646  10.148   7.758   2.796  1.8176  0.5742  2.0960
  384MOL0     H50647  10.188   7.800   2.626  0.6232  3.0665 -1.4044
  384MOL0     H50648  10.302   7.947   2.867  2.7778 -2.3829  1.2302
  384MOL0     H50649  10.327   7.990   2.700 -0.0092  0.1102  0.6261
  384MOL0     H50650  10.618   7.996   2.780 -1.6152  0.9850 -0.7078
  384MOL0     H50651  10.795   8.056   2.626  0.6693  0.6015 -1.4453
  384MOL0     H50652  11.039   7.915   2.232 -0.8305  1.2221  1.3860
  384MOL0     H50653  11.279   7.930   2.177  0.4342 -1.2994  1.1433
  384MOL0     H50654  11.539   8.024   2.152 -1.3206  2.6995 -1.2760
  384MOL0     H50655  11.515   7.950   2.316  3.0541 -2.0095 -2.4790
  384MOL0     H50656  11.671   8.217   2.265  2.2120 -1.2268 -1.2446
  384MOL0     H50657  11.743   8.060   2.283 -0.8909 -1.6883 -1.3718
  384MOL0     H50658  11.609   8.062   2.522 -1.5470 -1.5863 -2.9425
  384MOL0     H50659  11.578   8.229   2.488 -0.9788 -0.9700  0.3680
  384MOL0     H50660  11.840   8.089   2.500 -1.7637 -2.1731  4.6183
  384MOL0     H50661  11.825   8.270   2.476  1.0248  0.0622  0.7540
  384MOL0     H50662  11.737   8.287   2.700 -0.1819  0.3296 -1.8164
  384MOL0     H50663  11.905   8.237   2.683  0.3571  2.1987 -3.2157
  384MOL0     H50664  11.833   8.001   2.716 -0.6256  0.4701 -0.4692
  384MOL0     H50665  11.661   8.036   2.743  0.6044 -1.4673 -0.0244
  384MOL0     H50666  11.899   8.102   2.922 -0.1805 -1.1681  1.4699
  384MOL0     H50667  11.751   8.202   2.938  0.1473 -1.3040  1.6533
  384MOL0     H50668  11.783   7.913   2.955  0.8480  0.5681  0.4189
  384MOL0     H50669  11.630   7.990   2.979  0.7004  0.7296 -0.4110
  384MOL0     H50670  11.301   8.278   2.436 -0.1006  1.4063 -1.7254
  384MOL0     H50671  11.063   8.255   2.497 -0.5716  0.6631 -0.2545
  384MOL0     H50672  10.597   7.794   2.331 -0.9211  0.2798 -0.3806
  384MOL0     H50673  10.428   7.751   2.506  0.0766 -1.9661  2.3257
  384MOL0     H50674   8.885   7.442   3.517  1.2844  3.8804 -1.6604
  384MOL0     H50675   8.663   7.337   3.524 -0.4905  0.5964  0.9826
  384MOL0     H50676   8.288   7.340   3.249  0.9605  0.3596  0.0474
  384MOL0     H50677   8.045   7.248   3.171 -1.3334 -0.0091  0.1023
  384MOL0     H50678   7.904   6.931   3.395 -1.3786 -0.0458  0.7880
  384MOL0     H50679   7.920   6.835   3.235 -1.5662 -0.2714 -1.8545
  384MOL0     H50680   7.684   7.007   3.338 -0.8212  2.3061 -2.5329
  384MOL0     H50681   7.718   6.985   3.167 -2.0421 -3.3598 -1.0764
  384MOL0     H50682   7.683   6.749   3.165  1.9968  1.6790 -0.6649
  384MOL0     H50683   7.544   6.820   3.253 -0.3627 -0.0517 -2.1919
  384MOL0     H50684   7.782   6.673   3.366  0.4346  0.5871 -2.4211
  384MOL0     H50685   7.653   6.748   3.470 -3.2965 -2.1734  0.9466
  384MOL0     H50686   7.413   6.442   3.392  0.1068  1.5264 -0.7606
  384MOL0     H50687   8.124   6.884   3.370  0.2755  0.2284 -2.2726
  384MOL0     H50688   8.337   6.952   3.433 -0.9207 -2.9682 -1.5779
  385MOL0     O50689   2.170   7.357   0.917  0.6418 -0.0906  0.8406
  385MOL0     C50690   2.135   7.437   0.837 -0.6248 -1.4237 -0.6548
  385MOL0     O50691   2.217   7.512   0.753  0.3774 -0.2975 -0.1962
  385MOL0     C50692   2.352   7.518   0.792 -0.0497  0.4654 -0.0738
  385MOL0     C50693   2.452   7.507   0.690  0.7964  0.5458  0.7837
  385MOL0     C50694   2.587   7.542   0.728  0.3584  0.3019 -0.2067
  385MOL0     C50695   2.621   7.559   0.868  0.6550 -0.9301  0.2468
  385MOL0     O50696   2.754   7.590   0.888 -0.0218  0.3535 -0.0420
  385MOL0     C50697   2.797   7.628   1.021 -0.4666  0.1043  0.4587
  385MOL0     C50698   2.941   7.663   1.000 -0.6063 -0.1707 -0.9666
  385MOL0     C50699   3.003   7.714   1.128  0.0724  0.0256  1.6392
  385MOL0     C50700   3.018   7.594   1.224 -0.6561 -0.7115  1.0159
  385MOL0     C50701   3.119   7.634   1.329 -0.0635 -0.0827 -0.3731
  385MOL0     C50702   3.059   7.725   1.441  0.1677 -0.5317  0.3064
  385MOL0     C50703   3.160   7.754   1.553  0.6806 -0.0342  0.4670
  385MOL0     C50704   3.111   7.840   1.669  0.1433  0.0484  0.2079
  385MOL0     N50705   3.008   7.764   1.748 -0.6344  0.1728  0.3249
  385MOL0     C50706   2.881   7.739   1.709  1.2642 -0.1275  0.0654
  385MOL0     C50707   2.837   7.640   1.783  0.8806 -1.8212  0.7571
  385MOL0     C50708   2.701   7.573   1.751 -0.3175  0.1244 -0.7302
  385MOL0     C50709   2.703   7.502   1.622 -0.0698 -0.2332  0.0224
  385MOL0     C50710   2.764   7.368   1.637 -0.5196 -0.7301 -0.1747
  385MOL0     C50711   2.805   7.324   1.503 -0.3864 -0.2137  0.4640
  385MOL0     O50712   2.867   7.198   1.503  0.5441  0.1915 -0.2671
  385MOL0     C50713   3.007   7.187   1.531 -1.1041 -0.5042  1.1264
  385MOL0     C50714   3.065   7.062   1.499 -0.4096 -0.5530  0.3976
  385MOL0     C50715   3.203   7.047   1.505 -0.1595 -0.7210 -0.1573
  385MOL0     C50716   3.295   7.145   1.548 -0.3070  0.1878  0.1567
  385MOL0     C50717   3.443   7.116   1.547  0.1820 -0.3260 -0.0343
  385MOL0     O50718   3.472   6.977   1.512 -0.3578  0.2142  1.0069
  385MOL0     C50719   3.599   6.929   1.487 -0.0184 -0.9411 -0.6430
  385MOL0     C50720   3.637   6.807   1.543  0.7201 -0.0109 -0.0708
  385MOL0     C50721   3.764   6.759   1.533  0.2302 -0.4574 -0.6044
  385MOL0     C50722   3.860   6.828   1.464 -0.1009  0.1530 -0.2871
  385MOL0     O50723   3.993   6.780   1.451  1.0056 -0.2259 -0.1701
  385MOL0     C50724   4.060   6.728   1.563  0.1554 -0.4108  0.7437
  385MOL0     C50725   4.198   6.696   1.519 -0.3853 -0.1435 -0.1610
  385MOL0     C50726   4.266   6.826   1.498 -0.4174  0.2451  0.3707
  385MOL0     C50727   4.418   6.815   1.477 -0.1979 -0.2946  0.7575
  385MOL0     C50728   4.473   6.952   1.435  1.0180  0.2475 -0.6707
  385MOL0     C50729   4.621   6.947   1.402  0.0629 -1.0753  0.2415
  385MOL0     C50730   4.689   7.085   1.406 -0.2229 -0.6119 -0.0274
  385MOL0     C50731   4.830   7.077   1.360 -0.5705  0.7996 -0.0558
  385MOL0    Cl50732   4.849   7.080   1.177 -0.3208  0.7146  0.2310
  385MOL0     C50733   3.830   6.953   1.398 -0.8498  0.1524 -0.6465
  385MOL0     C50734   3.704   7.002   1.424 -0.0300 -0.4385  0.5175
  385MOL0     O50735   3.536   7.206   1.558  0.3943 -0.5350  0.4011
  385MOL0     C50736   3.236   7.269   1.580  1.4373 -0.7416 -0.2373
  385MOL0     C50737   3.095   7.289   1.569 -0.3443  0.2150  0.1701
  385MOL0     N50738   2.927   7.608   1.877  0.4502 -0.1813 -0.1386
  385MOL0     N50739   3.022   7.686   1.859 -1.0749 -0.6619 -0.5117
  385MOL0     C50740   2.520   7.565   0.969  0.9994 -0.7081  0.7252
  385MOL0     C50741   2.387   7.550   0.923 -0.7080 -1.1397 -0.6870
  385MOL0     C50742   1.996   7.460   0.820  0.9861  0.1780 -0.4245
  385MOL0     C50743   1.952   7.581   0.770  0.0609 -0.8880  0.4296
  385MOL0     C50744   1.816   7.604   0.744 -0.3843  0.2768 -0.3806
  385MOL0     C50745   1.720   7.508   0.780 -0.9938  0.2208  0.0435
  385MOL0     O50746   1.589   7.538   0.762  0.0368 -0.1122 -0.2311
  385MOL0     C50747   1.494   7.455   0.817 -0.2408  1.1937 -0.7670
  385MOL0     C50748   1.357   7.531   0.787 -0.9832  0.5923 -0.4091
  385MOL0     C50749   1.303   7.502   0.651  0.6737 -0.4440  0.7167
  385MOL0     C50750   1.406   7.524   0.542 -0.2797  0.1458  0.4787
  385MOL0     C50751   1.349   7.535   0.409  0.6058  0.2653  0.2307
  385MOL0     C50752   1.303   7.551   0.294  0.0163 -0.9134 -1.7870
  385MOL0     C50753   1.762   7.392   0.844 -0.1749  0.2216  0.3464
  385MOL0     C50754   1.903   7.365   0.861  1.2455 -0.0140 -0.5369
  385MOL0     H50755   2.421   7.505   0.586  0.7632  3.0995  0.6614
  385MOL0     H50756   2.665   7.540   0.652 -1.5653 -2.4588 -2.3197
  385MOL0     H50757   2.768   7.546   1.087 -2.6443  0.2172 -0.2950
  385MOL0     H50758   2.747   7.715   1.066  2.7460  1.6928  1.2807
  385MOL0     H50759   2.948   7.737   0.921 -1.3584 -1.0861 -1.9309
  385MOL0     H50760   2.994   7.574   0.965 -0.5998 -0.6510  0.2267
  385MOL0     H50761   2.940   7.794   1.168 -2.5298  0.5053 -2.7169
  385MOL0     H50762   3.100   7.761   1.107  0.0340 -0.3664  0.5468
  385MOL0     H50763   2.916   7.573   1.259 -1.7309 -0.3543 -1.6642
  385MOL0     H50764   3.051   7.504   1.170  1.0526  1.0707 -1.0816
  385MOL0     H50765   3.197   7.698   1.289 -0.3980  2.2070  2.3138
  385MOL0     H50766   3.170   7.546   1.369  0.1423  0.9460  1.7699
  385MOL0     H50767   2.977   7.668   1.487 -1.4139 -0.1386 -1.8709
  385MOL0     H50768   3.025   7.814   1.387  1.4882 -1.0997 -1.5559
  385MOL0     H50769   3.197   7.658   1.591  3.0349  0.2033 -1.0208
  385MOL0     H50770   3.244   7.799   1.500  0.9139 -1.6821 -0.6256
  385MOL0     H50771   3.080   7.938   1.631  1.8380  1.6422  2.6505
  385MOL0     H50772   3.188   7.874   1.739 -1.6931  2.6967  1.1250
  385MOL0     H50773   2.821   7.789   1.633 -1.0493 -2.0648  0.5192
  385MOL0     H50774   2.616   7.643   1.750 -2.0609 -1.8803 -0.8280
  385MOL0     H50775   2.676   7.506   1.834 -0.7829  3.4502  2.0614
  385MOL0     H50776   2.753   7.563   1.546  0.5237 -0.2436  0.3945
  385MOL0     H50777   2.599   7.489   1.591  0.0507 -0.2692 -0.3771
  385MOL0     H50778   2.846   7.375   1.709  1.4458 -1.2658 -2.2323
  385MOL0     H50779   2.688   7.301   1.679  0.6836 -0.6592  2.2576
  385MOL0     H50780   2.871   7.399   1.458 -2.1537 -0.3002 -2.5381
  385MOL0     H50781   2.719   7.319   1.435  0.7069  0.5832 -1.0327
  385MOL0     H50782   3.012   6.976   1.460  1.6755 -1.9067  0.3536
  385MOL0     H50783   3.250   6.952   1.481  2.2635  0.4010 -0.1625
  385MOL0     H50784   3.562   6.746   1.593 -1.1080  1.1728 -1.2208
  385MOL0     H50785   3.791   6.660   1.567 -4.1416 -2.4556 -2.1929
  385MOL0     H50786   4.019   6.635   1.604  1.2520 -0.2975  2.1840
  385MOL0     H50787   4.060   6.797   1.648  1.4003 -0.8470  1.1216
  385MOL0     H50788   4.187   6.618   1.442 -0.1749  0.3702 -0.7155
  385MOL0     H50789   4.253   6.652   1.603  1.4634  0.0106 -1.2379
  385MOL0     H50790   4.256   6.899   1.579  2.3432  1.4296 -0.2642
  385MOL0     H50791   4.212   6.870   1.414 -0.9697 -0.7094  0.2045
  385MOL0     H50792   4.472   6.784   1.567  0.9015  2.5984  1.2069
  385MOL0     H50793   4.438   6.743   1.396 -1.8005  0.7976 -0.6754
  385MOL0     H50794   4.457   7.025   1.514 -1.8912  0.1527 -1.0806
  385MOL0     H50795   4.419   6.975   1.343  3.7772 -2.8747 -3.3521
  385MOL0     H50796   4.627   6.907   1.300  1.5771 -1.7767  0.5886
  385MOL0     H50797   4.668   6.893   1.484 -2.1704 -1.0032  1.6441
  385MOL0     H50798   4.639   7.162   1.347 -0.1951  0.4842  1.3256
  385MOL0     H50799   4.690   7.122   1.509 -1.3307 -3.2644  1.0362
  385MOL0     H50800   4.879   6.986   1.395 -4.4919 -1.5898 -0.3151
  385MOL0     H50801   4.881   7.165   1.400 -0.8366 -0.6186  3.8146
  385MOL0     H50802   3.904   7.010   1.343 -1.2829  2.0253  0.6461
  385MOL0     H50803   3.690   7.101   1.382  0.5356 -0.3789  0.4597
  385MOL0     H50804   3.289   7.358   1.613 -2.8361  2.6921 -1.6616
  385MOL0     H50805   3.057   7.380   1.615  1.0694 -0.4571  2.8672
  385MOL0     H50806   2.552   7.589   1.070  0.0126 -0.4713  0.9889
  385MOL0     H50807   2.308   7.565   0.997 -0.9422  2.6057 -1.4847
  385MOL0     H50808   2.022   7.662   0.751 -1.4801  0.6983  1.1970
  385MOL0     H50809   1.775   7.698   0.708 -1.8943 -0.9733 -2.1035
  385MOL0     H50810   1.521   7.451   0.923  4.2932 -0.1663 -1.7416
  385MOL0     H50811   1.504   7.352   0.783 -0.0366  0.6225  0.9305
  385MOL0     H50812   1.276   7.505   0.857 -1.1122  2.3979  0.1463
  385MOL0     H50813   1.366   7.639   0.786  0.7849  0.5639  2.2603
  385MOL0     H50814   1.221   7.575   0.651  1.2406  0.2173 -0.2123
  385MOL0     H50815   1.272   7.398   0.645  1.7682 -0.7368 -0.1333
  385MOL0     H50816   1.465   7.614   0.560 -0.2146  0.2675 -0.3136
  385MOL0     H50817   1.485   7.449   0.540 -0.1419  0.3144 -1.2021
  385MOL0     H50818   1.268   7.564   0.193  0.1727  1.1809 -1.6156
  385MOL0     H50819   1.703   7.308   0.876  1.0233 -0.3209  1.2024
  385MOL0     H50820   1.914   7.273   0.918 -3.0398 -0.8885 -0.7765
  386MOL0     O50821   2.379   2.102   4.521  0.0353  0.1976  0.0481
  386MOL0     C50822   2.324   2.206   4.550  1.2786 -0.4474 -0.5098
  386MOL0     O50823   2.388   2.326   4.568 -0.0422 -0.1099 -0.9975
  386MOL0     C50824   2.528   2.339   4.586  0.2839 -1.1291 -0.1298
  386MOL0     C50825   2.559   2.464   4.636  0.4268  0.1519 -0.4216
  386MOL0     C50826   2.685   2.510   4.658  0.0501  0.1707 -0.1652
  386MOL0     C50827   2.788   2.419   4.618  0.3767  0.5424 -0.6366
  386MOL0     O50828   2.918   2.451   4.610 -0.7908  0.1896 -0.3399
  386MOL0     C50829   2.968   2.584   4.646  0.2709 -1.0110  1.4307
  386MOL0     C50830   2.979   2.597   4.796 -0.1506  0.5543 -0.5113
  386MOL0     C50831   3.056   2.714   4.852 -0.1749 -0.1900 -0.5722
  386MOL0     C50832   2.984   2.849   4.825  0.7753  0.3566  0.1472
  386MOL0     C50833   3.054   2.961   4.896 -0.7799 -0.5550 -0.1429
  386MOL0     C50834   2.975   3.096   4.865  0.2795  0.1435 -0.0923
  386MOL0     C50835   3.052   3.212   4.921  0.6534 -0.0071 -1.0223
  386MOL0     C50836   3.105   3.197   5.066 -0.0759 -0.7093 -0.4261
  386MOL0     N50837   3.132   3.323   5.130 -0.9979 -0.5436  0.1221
  386MOL0     C50838   3.229   3.415   5.096  1.0060 -0.8303 -0.6132
  386MOL0     C50839   3.218   3.511   5.192 -1.2056  0.1425  0.4298
  386MOL0     C50840   3.315   3.629   5.215 -0.2337 -0.0477  0.4559
  386MOL0     C50841   3.459   3.576   5.243  0.4006 -0.6682  0.2689
  386MOL0     C50842   3.479   3.503   5.371 -0.0258  0.4730  0.0497
  386MOL0     C50843   3.445   3.594   5.488  0.0670  1.2922  0.4489
  386MOL0     O50844   3.539   3.705   5.506  0.2512  1.7098 -0.6722
  386MOL0     C50845   3.666   3.675   5.554  0.0867 -0.4478 -0.9869
  386MOL0     C50846   3.761   3.774   5.535 -0.1496 -0.0204  0.8518
  386MOL0     C50847   3.894   3.752   5.571 -0.3543 -0.6699  0.5865
  386MOL0     C50848   3.941   3.641   5.639  0.5139  0.1012 -0.0705
  386MOL0     C50849   4.086   3.628   5.668  0.0298 -0.3946 -0.3305
  386MOL0     O50850   4.160   3.732   5.639 -0.1178  0.0673  0.1057
  386MOL0     C50851   4.271   3.741   5.709  0.2969  0.2928 -0.3322
  386MOL0     C50852   4.261   3.814   5.827  0.8446  0.0424  0.3982
  386MOL0     C50853   4.383   3.848   5.894  0.2854  0.0180  0.3185
  386MOL0     C50854   4.503   3.812   5.837 -0.2839 -0.1688 -0.4260
  386MOL0     O50855   4.624   3.837   5.885 -0.2877 -0.1605 -0.2253
  386MOL0     C50856   4.653   3.959   5.948  0.4905 -0.7176  0.2877
  386MOL0     C50857   4.801   3.995   5.940 -0.0795  0.3481  0.3668
  386MOL0     C50858   4.851   4.005   5.795 -0.3194  0.8825 -0.0962
  386MOL0     C50859   4.789   4.118   5.714 -0.7674  0.2123  0.4788
  386MOL0     C50860   4.859   4.118   5.573 -0.0173  0.4398  0.6744
  386MOL0     C50861   4.775   4.202   5.479 -0.4376 -0.2074  0.3777
  386MOL0     C50862   4.766   4.348   5.506  0.7478 -0.3634  0.1713
  386MOL0     C50863   4.887   4.417   5.548  0.1828 -0.5875  0.2733
  386MOL0    Cl50864   5.001   4.419   5.407  0.1652  0.0619 -0.2004
  386MOL0     C50865   4.506   3.739   5.715  0.0182  0.5980 -0.3788
  386MOL0     C50866   4.387   3.694   5.653 -0.0006 -0.0587 -0.1784
  386MOL0     O50867   4.111   3.520   5.720 -0.5729 -0.0750 -0.0806
  386MOL0     C50868   3.848   3.543   5.651 -0.1283 -0.6726 -0.8397
  386MOL0     C50869   3.707   3.552   5.608 -0.8019 -0.4683  0.1647
  386MOL0     N50870   3.118   3.476   5.282  0.1027  0.7658 -0.1620
  386MOL0     N50871   3.063   3.364   5.241  0.6474  0.2626 -0.2133
  386MOL0     C50872   2.770   2.293   4.571 -0.1792  0.3060  0.3628
  386MOL0     C50873   2.635   2.252   4.555  0.7172 -0.2918 -0.2070
  386MOL0     C50874   2.180   2.206   4.549  0.6247  0.3853  0.0973
  386MOL0     C50875   2.095   2.316   4.506 -0.4534  0.0153  1.0215
  386MOL0     C50876   1.952   2.306   4.505 -0.0773  0.2979  0.0648
  386MOL0     C50877   1.884   2.186   4.524  0.2605  0.6807  0.6066
  386MOL0     O50878   1.739   2.164   4.512 -0.5852  0.3430 -0.1454
  386MOL0     C50879   1.653   2.269   4.491 -0.1924 -0.1141  0.3323
  386MOL0     C50880   1.517   2.213   4.510  0.5414  0.2096  0.0784
  386MOL0     C50881   1.418   2.318   4.461  0.4003 -0.7794 -0.3748
  386MOL0     C50882   1.269   2.279   4.464  0.0735  0.2723 -1.0015
  386MOL0     C50883   1.233   2.174   4.375 -0.7752  0.3189  1.5135
  386MOL0     C50884   1.205   2.080   4.305  0.1025  0.4354  0.2929
  386MOL0     C50885   1.974   2.075   4.573  0.4857 -0.6367 -0.1831
  386MOL0     C50886   2.115   2.080   4.576  0.1982 -1.6270 -0.1687
  386MOL0     H50887   2.481   2.531   4.670  0.0094  1.0275 -2.9258
  386MOL0     H50888   2.687   2.612   4.693 -2.6933 -0.3980  2.0281
  386MOL0     H50889   2.906   2.662   4.600 -1.3469 -4.0961 -2.1964
  386MOL0     H50890   3.066   2.595   4.600 -0.1811 -1.9393  0.2021
  386MOL0     H50891   3.011   2.501   4.838 -0.8591  1.1849  1.6071
  386MOL0     H50892   2.876   2.601   4.833 -0.2972 -0.3909 -0.7662
  386MOL0     H50893   3.155   2.723   4.805 -0.3640  0.9869 -0.7712
  386MOL0     H50894   3.081   2.709   4.959  0.4181  2.7813 -0.4874
  386MOL0     H50895   2.971   2.873   4.719  1.2582 -1.7033 -0.4145
  386MOL0     H50896   2.887   2.839   4.873  0.6435  1.1230  0.0642
  386MOL0     H50897   3.154   2.985   4.858 -0.7798  2.9855  1.7221
  386MOL0     H50898   3.070   2.932   5.000  0.6946  2.8550  0.7176
  386MOL0     H50899   2.870   3.091   4.896  0.9496 -1.3641  2.1847
  386MOL0     H50900   2.965   3.102   4.756 -1.2451 -1.3285 -0.0762
  386MOL0     H50901   3.135   3.226   4.851  0.9913  0.2513 -0.5821
  386MOL0     H50902   2.975   3.290   4.917  1.1659  0.6770  0.9252
  386MOL0     H50903   3.196   3.139   5.053  0.6706  0.3838 -0.1888
  386MOL0     H50904   3.028   3.150   5.128 -1.4886 -1.1231 -2.3881
  386MOL0     H50905   3.284   3.415   5.002 -0.4748  0.0927 -1.5296
  386MOL0     H50906   3.277   3.689   5.299  0.9287 -0.7304  1.5022
  386MOL0     H50907   3.310   3.687   5.123  0.9846  1.7493  1.4666
  386MOL0     H50908   3.525   3.663   5.252 -2.5079  1.6920  0.6489
  386MOL0     H50909   3.490   3.504   5.167 -3.7425 -2.5146  0.0392
  386MOL0     H50910   3.428   3.406   5.371  2.3240 -0.9848 -3.4541
  386MOL0     H50911   3.582   3.482   5.400  0.1814  1.7366  0.3079
  386MOL0     H50912   3.445   3.531   5.577 -1.6391  0.6147  0.0093
  386MOL0     H50913   3.344   3.638   5.485 -0.1568  0.8106  0.8055
  386MOL0     H50914   3.732   3.867   5.488  2.8490  0.7546  0.2992
  386MOL0     H50915   3.974   3.824   5.555  1.4002 -2.2586  1.7971
  386MOL0     H50916   4.165   3.849   5.862  0.6121  1.1970 -1.2450
  386MOL0     H50917   4.377   3.913   5.981 -2.8354  0.9057 -0.4336
  386MOL0     H50918   4.621   3.970   6.051  1.0010  1.0952  0.2797
  386MOL0     H50919   4.592   4.037   5.902 -4.1627 -3.9132  0.3798
  386MOL0     H50920   4.864   3.923   5.993 -1.2395 -0.6331  0.4514
  386MOL0     H50921   4.831   4.093   5.978 -1.8696  0.8780  0.5161
  386MOL0     H50922   4.820   3.909   5.753 -2.4673  1.3826  0.2569
  386MOL0     H50923   4.960   4.019   5.793 -0.0547 -0.8094  0.9362
  386MOL0     H50924   4.682   4.102   5.698 -1.0517  1.7490  0.6911
  386MOL0     H50925   4.819   4.212   5.761 -0.8704 -0.4836  2.0019
  386MOL0     H50926   4.873   4.021   5.524 -2.4054  0.9795 -1.3046
  386MOL0     H50927   4.955   4.168   5.588  1.4423 -1.8416 -0.5124
  386MOL0     H50928   4.681   4.154   5.453 -0.2912  0.8930 -2.5569
  386MOL0     H50929   4.832   4.187   5.387 -0.9834 -2.0802  0.3150
  386MOL0     H50930   4.729   4.407   5.421 -1.9159  0.5324  1.8091
  386MOL0     H50931   4.698   4.357   5.592  0.5604 -0.9487  0.0895
  386MOL0     H50932   4.930   4.378   5.640  1.0365  2.2416  1.1630
  386MOL0     H50933   4.861   4.520   5.573  0.4124 -0.8225  1.5757
  386MOL0     H50934   4.601   3.718   5.667  2.7989  5.3299  2.3044
  386MOL0     H50935   4.395   3.637   5.561  1.8155 -3.3808  1.7961
  386MOL0     H50936   3.882   3.455   5.703 -0.9425  0.5997  2.0103
  386MOL0     H50937   3.634   3.476   5.635 -1.9496  0.7470  0.6048
  386MOL0     H50938   2.853   2.229   4.540 -0.2512  0.0897  0.6162
  386MOL0     H50939   2.613   2.152   4.519 -1.4938  0.6322 -1.6482
  386MOL0     H50940   2.145   2.410   4.484  1.2449 -1.1194 -0.2744
  386MOL0     H50941   1.898   2.394   4.474  0.7381  0.9966  0.5881
  386MOL0     H50942   1.666   2.313   4.392  1.8310 -0.4030  0.4352
  386MOL0     H50943   1.672   2.342   4.570  2.7793  0.1013 -0.4618
  386MOL0     H50944   1.502   2.119   4.455  2.7944 -1.1210  1.5571
  386MOL0     H50945   1.511   2.201   4.618  2.8451  0.6576  0.3174
  386MOL0     H50946   1.444   2.362   4.364  3.8194  1.4743  1.3719
  386MOL0     H50947   1.425   2.398   4.535 -1.1450 -0.6435 -0.3475
  386MOL0     H50948   1.252   2.249   4.568  1.6646 -2.0615 -1.3267
  386MOL0     H50949   1.205   2.362   4.435 -0.6664  0.3357  0.7054
  386MOL0     H50950   1.183   1.989   4.253 -2.3423  0.0735  1.8000
  386MOL0     H50951   1.918   1.986   4.602 -1.5152  0.9773  1.1622
  386MOL0     H50952   2.180   2.004   4.618 -0.7155 -2.4337 -0.1966
  387MOL0     O50953   6.824   9.706   0.575  0.3662 -0.4054 -0.3964
  387MOL0     C50954   6.811   9.758   0.685  0.6753 -0.5649 -0.4755
  387MOL0     O50955   6.699   9.758   0.756  0.2628  0.0256  1.4374
  387MOL0     C50956   6.591   9.692   0.708 -0.2188 -0.1278  0.1577
  387MOL0     C50957   6.546   9.580   0.783 -0.5689  0.3032 -0.1543
  387MOL0     C50958   6.427   9.518   0.750  0.0942  0.3947  0.7219
  387MOL0     C50959   6.334   9.569   0.651 -0.8802 -0.7957 -0.0414
  387MOL0     O50960   6.216   9.496   0.626 -0.3463 -0.3352  0.0801
  387MOL0     C50961   6.121   9.550   0.538  0.4533 -0.3387 -0.4935
  387MOL0     C50962   6.003   9.447   0.513 -0.9131 -0.8093  0.9996
  387MOL0     C50963   5.893   9.496   0.418  0.2840 -0.4507 -0.1857
  387MOL0     C50964   5.798   9.380   0.390 -0.7174  0.5046  0.0063
  387MOL0     C50965   5.698   9.409   0.277  0.4369  0.5623  0.2730
  387MOL0     C50966   5.583   9.306   0.280 -0.3768  0.0541  0.3240
  387MOL0     C50967   5.476   9.344   0.175  0.1428  0.8180 -0.2956
  387MOL0     C50968   5.352   9.256   0.187 -0.1532 -0.2730 -0.5181
  387MOL0     N50969   5.265   9.288   0.075  0.0894 -0.0511 -0.2827
  387MOL0     C50970   5.131   9.275   0.072  0.2298  1.3052 -0.1403
  387MOL0     C50971   5.087   9.311  -0.050 -0.1401  0.2970 -0.1576
  387MOL0     C50972   4.949   9.320  -0.105  0.5284 -0.1457  0.9207
  387MOL0     C50973   4.940   9.286  -0.252 -0.1334  0.4757  0.0341
  387MOL0     C50974   4.794   9.316  -0.307  0.4820  0.4466 -0.6943
  387MOL0     C50975   4.705   9.195  -0.274  0.1403  0.6237  0.4805
  387MOL0     O50976   4.584   9.201  -0.349  0.1148 -0.2528 -0.2941
  387MOL0     C50977   4.469   9.166  -0.281 -0.0439 -0.1247 -0.3189
  387MOL0     C50978   4.464   9.062  -0.190  0.0975  0.1885  0.5381
  387MOL0     C50979   4.346   9.038  -0.122 -0.2912  1.0127 -0.9107
  387MOL0     C50980   4.239   9.121  -0.124  0.8494 -1.0677 -0.3233
  387MOL0     C50981   4.112   9.098  -0.057 -0.5576  0.0020  0.6954
  387MOL0     O50982   4.019   9.199  -0.051  0.0199 -0.2476  0.0209
  387MOL0     C50983   3.895   9.167   0.003  1.0464  0.4276  0.1937
  387MOL0     C50984   3.859   9.109   0.120 -0.0400  0.3584  0.4072
  387MOL0     C50985   3.722   9.078   0.154  0.1264  0.2600  0.2744
  387MOL0     C50986   3.615   9.126   0.080  0.3064  0.6511 -0.0567
  387MOL0     O50987   3.494   9.119   0.143 -0.6240  0.0527  0.1033
  387MOL0     C50988   3.384   9.159   0.061 -0.0754  0.1191  0.0957
  387MOL0     C50989   3.263   9.112   0.134 -0.2922 -0.6640  0.4781
  387MOL0     C50990   3.124   9.164   0.073  0.6624 -1.4206 -0.5794
  387MOL0     C50991   3.017   9.127   0.170  0.5783 -0.0384 -1.1769
  387MOL0     C50992   2.890   9.210   0.150 -0.6315  0.6384  0.4001
  387MOL0     C50993   2.788   9.179   0.268 -0.4603  0.4491  0.1435
  387MOL0     C50994   2.745   9.032   0.283  0.1048 -0.5564 -0.7059
  387MOL0     C50995   2.630   8.998   0.382  0.0056  0.1838  0.9997
  387MOL0    Cl50996   2.475   9.056   0.311  0.2944 -0.2787 -0.0783
  387MOL0     C50997   3.649   9.182  -0.044 -0.6820  0.4674 -1.5728
  387MOL0     C50998   3.784   9.211  -0.073 -0.3588 -0.1402 -0.9173
  387MOL0     O50999   4.095   8.984  -0.006 -0.0533  0.1816 -0.1610
  387MOL0     C51000   4.236   9.221  -0.222 -0.4363 -0.1778  0.1094
  387MOL0     C51001   4.348   9.246  -0.309  1.4691 -0.3460 -1.1852
  387MOL0     N51002   5.205   9.351  -0.118  0.0077 -0.2997 -0.0002
  387MOL0     N51003   5.305   9.339  -0.043  0.5116 -0.8147 -0.2921
  387MOL0     C51004   6.375   9.685   0.587  0.6434  0.1858  0.2816
  387MOL0     C51005   6.497   9.738   0.611 -0.1644 -0.4546 -0.9424
  387MOL0     C51006   6.920   9.847   0.735  0.1448  0.3813  1.1116
  387MOL0     C51007   6.903   9.916   0.860  0.0890 -0.1587  0.1846
  387MOL0     C51008   7.016   9.987   0.908  0.2900 -0.2177  0.3859
  387MOL0     C51009   7.142   9.987   0.838  0.0471 -0.5108  0.2085
  387MOL0     O51010   7.255  10.061   0.878 -0.1491  0.4035 -0.2521
  387MOL0     C51011   7.261  10.149   0.988 -0.5443  1.4111  1.5470
  387MOL0     C51012   7.244  10.303   0.949 -0.0114  0.9014 -0.7338
  387MOL0     C51013   7.326  10.415   1.024  1.1656 -0.8393  0.7580
  387MOL0     C51014   7.258  10.547   0.995  0.1548 -0.3137 -0.6756
  387MOL0     C51015   7.254  10.569   0.845  1.6537 -0.7045 -0.0179
  387MOL0     C51016   7.271  10.569   0.728  0.4490 -0.8707  0.0428
  387MOL0     C51017   7.154   9.902   0.726 -0.6149  0.2724 -0.9655
  387MOL0     C51018   7.045   9.843   0.673 -0.3121  0.1827  0.7676
  387MOL0     H51019   6.603   9.560   0.873  1.5648  3.1200 -0.7493
  387MOL0     H51020   6.409   9.421   0.795 -0.6960  0.2733  0.1666
  387MOL0     H51021   6.169   9.571   0.442  2.2939  2.7999  0.9420
  387MOL0     H51022   6.078   9.642   0.579 -1.5994 -0.8111 -1.4893
  387MOL0     H51023   5.960   9.431   0.612  0.8063 -0.8684  1.7869
  387MOL0     H51024   6.054   9.357   0.478  0.0150 -0.5052  1.5042
  387MOL0     H51025   5.945   9.520   0.325  0.5692 -0.9613 -0.1632
  387MOL0     H51026   5.844   9.585   0.459  1.9781  0.8093 -0.7911
  387MOL0     H51027   5.859   9.292   0.367  1.0526  1.5725  0.3896
  387MOL0     H51028   5.746   9.362   0.485 -1.2064  1.3703 -0.0901
  387MOL0     H51029   5.751   9.394   0.183 -0.9143  3.6707 -1.1100
  387MOL0     H51030   5.668   9.514   0.277 -3.0896 -0.3473 -0.1997
  387MOL0     H51031   5.542   9.318   0.380 -2.4344  2.1536 -0.6790
  387MOL0     H51032   5.623   9.204   0.278  1.5471  0.6859  2.7884
  387MOL0     H51033   5.464   9.452   0.178  2.1906  1.1108 -1.2494
  387MOL0     H51034   5.516   9.330   0.074  0.1178  0.7138 -0.2917
  387MOL0     H51035   5.300   9.261   0.283 -1.9020 -2.2765 -1.2853
  387MOL0     H51036   5.362   9.149   0.170  0.8472 -0.7062  2.2963
  387MOL0     H51037   5.069   9.243   0.156  1.7490  2.6480  1.5691
  387MOL0     H51038   4.919   9.419  -0.072  1.9266 -0.0732  2.0630
  387MOL0     H51039   4.893   9.245  -0.048  0.5252 -2.2320 -1.6335
  387MOL0     H51040   4.957   9.178  -0.265  2.4102  0.8291 -0.2301
  387MOL0     H51041   5.013   9.335  -0.317  1.1156 -2.0006 -0.5697
  387MOL0     H51042   4.758   9.401  -0.248 -1.7884 -3.3757  4.1725
  387MOL0     H51043   4.791   9.356  -0.409 -2.6080 -2.4529 -1.9462
  387MOL0     H51044   4.686   9.179  -0.167  1.8975 -0.8862  0.6126
  387MOL0     H51045   4.746   9.103  -0.317  1.3173  1.4254 -0.1587
  387MOL0     H51046   4.549   8.995  -0.176  0.1816 -0.0660 -0.9803
  387MOL0     H51047   4.361   8.969  -0.039  1.8854  1.7613 -0.6196
  387MOL0     H51048   3.938   9.100   0.194  1.3532  1.2191 -0.9321
  387MOL0     H51049   3.706   9.025   0.247  2.1378 -1.5040 -0.3112
  387MOL0     H51050   3.385   9.101  -0.032  0.0134 -1.4427  1.0241
  387MOL0     H51051   3.390   9.265   0.034  0.1493  0.0648 -0.0745
  387MOL0     H51052   3.267   9.151   0.236 -1.1075 -0.9704  0.6347
  387MOL0     H51053   3.272   9.003   0.139 -0.6957 -0.6731  1.1066
  387MOL0     H51054   3.113   9.112  -0.022  1.1533 -1.3548 -0.6746
  387MOL0     H51055   3.142   9.271   0.058  3.1004 -1.5681  0.6983
  387MOL0     H51056   3.003   9.019   0.153  2.1720 -0.7431  1.4359
  387MOL0     H51057   3.048   9.136   0.274 -1.3044 -1.7813 -0.3799
  387MOL0     H51058   2.840   9.191   0.054 -1.5239  2.2066  0.5288
  387MOL0     H51059   2.917   9.315   0.159 -2.3203  0.9451  2.8095
  387MOL0     H51060   2.696   9.235   0.246  0.9440  2.2842 -1.5056
  387MOL0     H51061   2.832   9.211   0.362 -0.7907  0.8359  0.1696
  387MOL0     H51062   2.711   9.013   0.181  1.5056 -0.5841 -1.1869
  387MOL0     H51063   2.834   8.975   0.309 -0.2990 -1.0887 -0.4747
  387MOL0     H51064   2.637   9.016   0.490 -1.5579  4.3609  0.5607
  387MOL0     H51065   2.636   8.889   0.380  1.5581  0.2579 -0.3577
  387MOL0     H51066   3.568   9.230  -0.100 -0.4036  1.8136 -0.8582
  387MOL0     H51067   3.817   9.258  -0.166  4.9827  2.6095  1.9010
  387MOL0     H51068   4.150   9.286  -0.230  2.2280  3.5067 -1.4470
  387MOL0     H51069   4.363   9.338  -0.366 -0.1261  0.5368 -0.2619
  387MOL0     H51070   6.309   9.747   0.526 -2.2816  0.9782  3.8555
  387MOL0     H51071   6.525   9.832   0.563  1.2171 -0.4386 -0.1491
  387MOL0     H51072   6.807   9.914   0.910 -0.4498 -0.1617 -0.8089
  387MOL0     H51073   6.982  10.051   0.989  0.5015 -0.2469  0.4959
  387MOL0     H51074   7.361  10.136   1.029  0.3890 -1.2233 -1.1622
  387MOL0     H51075   7.185  10.111   1.057 -0.6498  1.2218  1.3284
  387MOL0     H51076   7.258  10.317   0.841 -3.0402 -1.8421 -1.6488
  387MOL0     H51077   7.139  10.328   0.960 -0.3730 -0.3500 -1.1852
  387MOL0     H51078   7.426  10.441   0.987  0.2697 -1.4047 -2.3634
  387MOL0     H51079   7.341  10.390   1.130 -0.7147 -1.8083  0.8332
  387MOL0     H51080   7.158  10.541   1.040  0.8594 -1.1871  0.8427
  387MOL0     H51081   7.307  10.637   1.033  1.0256 -1.1979  0.3184
  387MOL0     H51082   7.277  10.584   0.622  0.2528 -1.8465 -0.1173
  387MOL0     H51083   7.248   9.894   0.672 -1.2147 -0.7372 -1.9050
  387MOL0     H51084   7.055   9.782   0.584 -2.3582 -0.3635  0.8604
  388MOL0     O51085   4.002   4.374   3.795 -0.0073  0.7455 -1.0545
  388MOL0     C51086   4.044   4.312   3.892 -0.2639 -0.3144  0.0886
  388MOL0     O51087   4.021   4.177   3.919 -0.0295 -0.8592 -0.9095
  388MOL0     C51088   3.901   4.117   3.876 -0.1078  0.6593  0.2881
  388MOL0     C51089   3.916   3.991   3.818 -0.0588  0.4589 -0.2679
  388MOL0     C51090   3.805   3.901   3.797  0.6352  0.2104  0.2430
  388MOL0     C51091   3.676   3.938   3.839 -0.0942  0.5877  0.7174
  388MOL0     O51092   3.590   3.840   3.805 -0.1489 -0.0294 -0.1561
  388MOL0     C51093   3.446   3.836   3.840 -0.9151  0.1405 -0.4719
  388MOL0     C51094   3.358   3.930   3.767  0.0757  0.0135 -0.0324
  388MOL0     C51095   3.217   3.934   3.823  0.7793  0.4002  0.3993
  388MOL0     C51096   3.215   4.002   3.959 -0.8972 -0.5870  0.5734
  388MOL0     C51097   3.258   4.146   3.972 -0.2149 -0.8891 -0.0274
  388MOL0     C51098   3.163   4.245   3.900 -0.5293  0.9754 -0.1556
  388MOL0     C51099   3.165   4.388   3.957 -0.1571 -0.0036  0.4345
  388MOL0     C51100   3.046   4.458   3.887  0.2051  0.0510  0.8374
  388MOL0     N51101   2.914   4.425   3.932  0.1928 -0.6778  0.0167
  388MOL0     C51102   2.856   4.449   4.051  0.0962  0.0531  0.1256
  388MOL0     C51103   2.728   4.394   4.051  0.2933  0.1343  0.3883
  388MOL0     C51104   2.647   4.361   4.179  0.0518 -0.2771  0.9031
  388MOL0     C51105   2.577   4.224   4.182  0.4082 -0.8199  0.6219
  388MOL0     C51106   2.667   4.100   4.139 -0.8795 -0.0531  0.1519
  388MOL0     C51107   2.809   4.095   4.192 -0.7056  0.3103  0.0086
  388MOL0     O51108   2.804   4.087   4.342 -0.3308  0.1648 -0.1878
  388MOL0     C51109   2.917   4.100   4.415  0.4998 -0.3944  0.4378
  388MOL0     C51110   2.901   4.064   4.545 -0.5217  1.1623  0.2136
  388MOL0     C51111   3.007   4.078   4.639  0.5506 -1.5433 -0.0351
  388MOL0     C51112   3.131   4.113   4.592  0.3709  0.4019 -0.0095
  388MOL0     C51113   3.239   4.118   4.689  0.5342  0.0338 -1.4008
  388MOL0     O51114   3.222   4.064   4.813 -0.4080 -0.4485 -0.3066
  388MOL0     C51115   3.337   4.062   4.894  0.3966  0.0816  0.3676
  388MOL0     C51116   3.405   4.172   4.937 -0.0253  0.1689 -1.1014
  388MOL0     C51117   3.533   4.152   4.996 -0.6514  0.2234  0.1692
  388MOL0     C51118   3.585   4.027   5.030 -0.1160 -0.2020 -0.0202
  388MOL0     O51119   3.700   4.002   5.107  0.1120  0.1483  0.2727
  388MOL0     C51120   3.787   4.111   5.134 -0.8563  0.5539 -0.4392
  388MOL0     C51121   3.906   4.031   5.194 -0.3625  0.2403  0.8380
  388MOL0     C51122   4.017   4.132   5.232  0.6634 -0.0190  0.3862
  388MOL0     C51123   4.121   4.064   5.320  0.4156 -0.1936 -0.0940
  388MOL0     C51124   4.240   4.149   5.335 -0.1968 -0.0991  0.3062
  388MOL0     C51125   4.370   4.083   5.398 -0.0230 -0.1016  0.3305
  388MOL0     C51126   4.369   4.039   5.541 -0.4379 -0.0178  0.1824
  388MOL0     C51127   4.344   4.152   5.643 -0.8320 -0.1190 -0.3974
  388MOL0    Cl51128   4.477   4.270   5.641 -0.1277  0.2333  0.3321
  388MOL0     C51129   3.506   3.922   4.992  0.3078  0.8397 -0.3234
  388MOL0     C51130   3.389   3.935   4.920  0.0047 -0.5286 -0.1681
  388MOL0     O51131   3.342   4.172   4.645  0.6211 -0.1610 -0.0334
  388MOL0     C51132   3.154   4.147   4.460  1.4180 -0.1282  0.2478
  388MOL0     C51133   3.044   4.138   4.368 -0.1054  0.7435  0.2146
  388MOL0     N51134   2.726   4.330   3.927 -0.3193 -0.8702 -0.2607
  388MOL0     N51135   2.824   4.359   3.850  0.4461 -0.3552  0.6189
  388MOL0     C51136   3.658   4.056   3.908 -0.0034  0.2618 -0.5742
  388MOL0     C51137   3.772   4.149   3.924  0.4065 -0.1763 -0.7980
  388MOL0     C51138   4.144   4.380   3.978 -0.1127 -0.3353  0.2009
  388MOL0     C51139   4.207   4.310   4.072  1.3631 -0.6326 -0.3411
  388MOL0     C51140   4.298   4.364   4.161  1.5258 -0.8211  0.0420
  388MOL0     C51141   4.328   4.511   4.151  0.1253  0.0282  0.1470
  388MOL0     O51142   4.409   4.579   4.236 -0.3376  0.5001 -0.1177
  388MOL0     C51143   4.470   4.508   4.338  0.5477 -0.0229  0.3134
  388MOL0     C51144   4.519   4.609   4.439  0.2836  0.0440  0.5448
  388MOL0     C51145   4.633   4.698   4.376 -0.2649 -0.0808 -0.9861
  388MOL0     C51146   4.717   4.770   4.479  0.3197 -0.6757 -0.6914
  388MOL0     C51147   4.662   4.909   4.482 -1.3735 -0.8856 -0.9463
  388MOL0     C51148   4.651   5.028   4.513  0.0957  0.6625 -0.4615
  388MOL0     C51149   4.255   4.580   4.047 -0.7930  0.6350  0.2361
  388MOL0     C51150   4.166   4.516   3.964  0.3430 -0.4140  0.2252
  388MOL0     H51151   4.016   3.963   3.788  0.0301  1.8061 -1.3378
  388MOL0     H51152   3.812   3.803   3.752 -0.1077  0.0571  0.4488
  388MOL0     H51153   3.448   3.861   3.946 -2.6221  1.4198 -0.7052
  388MOL0     H51154   3.412   3.733   3.834  1.6469 -0.8580  0.4505
  388MOL0     H51155   3.344   3.897   3.664  0.1728  1.2337 -0.4486
  388MOL0     H51156   3.404   4.029   3.757 -1.0549  0.5274 -0.3328
  388MOL0     H51157   3.195   3.829   3.842 -0.5929  1.4046  6.2701
  388MOL0     H51158   3.141   3.972   3.754 -3.1162 -3.7747  1.8687
  388MOL0     H51159   3.121   4.005   4.016 -1.1160  2.9467  0.2665
  388MOL0     H51160   3.280   3.934   4.016  1.2993 -0.9259 -2.1301
  388MOL0     H51161   3.361   4.146   3.934 -0.0577  0.6341  0.3380
  388MOL0     H51162   3.247   4.173   4.077 -5.2100  0.4757 -0.6620
  388MOL0     H51163   3.064   4.198   3.910 -0.3838 -0.2860 -3.5920
  388MOL0     H51164   3.177   4.242   3.792 -1.6559  0.2932 -0.3008
  388MOL0     H51165   3.162   4.385   4.067  2.4982  0.1880  0.5775
  388MOL0     H51166   3.254   4.442   3.923 -0.3537  0.7007  1.0097
  388MOL0     H51167   3.049   4.439   3.780 -2.7705  3.3045 -0.0089
  388MOL0     H51168   3.053   4.567   3.897 -3.7027  1.0943 -3.8403
  388MOL0     H51169   2.902   4.506   4.131 -1.4271  1.0795  0.3207
  388MOL0     H51170   2.579   4.444   4.200  0.6799  0.8999 -1.4543
  388MOL0     H51171   2.720   4.361   4.261 -0.4650  0.8228  1.3780
  388MOL0     H51172   2.496   4.230   4.109  0.3453  1.5612  0.7878
  388MOL0     H51173   2.533   4.218   4.282 -0.2614  2.4841  0.6518
  388MOL0     H51174   2.617   4.010   4.176 -0.6779  0.1646  0.9603
  388MOL0     H51175   2.668   4.107   4.030 -3.2474 -1.1540  0.0065
  388MOL0     H51176   2.874   4.176   4.157 -0.9380  0.4792 -0.0296
  388MOL0     H51177   2.859   4.004   4.159 -0.8526 -0.7111  2.3884
  388MOL0     H51178   2.797   4.035   4.555 -0.8650  2.0193 -0.6889
  388MOL0     H51179   2.992   4.065   4.746  1.3311  2.3437  0.7239
  388MOL0     H51180   3.374   4.276   4.935 -3.7200 -0.5368  3.4707
  388MOL0     H51181   3.590   4.239   5.028  0.8668  0.6102 -3.1184
  388MOL0     H51182   3.752   4.177   5.214 -0.2667 -0.7317  0.9280
  388MOL0     H51183   3.824   4.166   5.047 -0.6304  0.3626 -0.4645
  388MOL0     H51184   3.942   3.952   5.127 -1.9387  1.6865 -1.9057
  388MOL0     H51185   3.872   3.977   5.283  2.3451 -0.8227  1.3289
  388MOL0     H51186   3.974   4.219   5.283 -2.0098  0.2608 -2.0787
  388MOL0     H51187   4.075   4.172   5.148 -0.3562  2.2351  0.6770
  388MOL0     H51188   4.082   4.039   5.420  1.4517  1.1625  0.6788
  388MOL0     H51189   4.129   3.963   5.278 -2.9129 -0.3833 -0.5551
  388MOL0     H51190   4.215   4.238   5.393 -1.2642 -0.8737  1.0759
  388MOL0     H51191   4.267   4.181   5.234 -0.4464 -1.5293 -0.2455
  388MOL0     H51192   4.445   4.160   5.381 -0.4483  0.3781  0.6145
  388MOL0     H51193   4.393   3.993   5.339  1.2356 -0.5687  1.4890
  388MOL0     H51194   4.296   3.961   5.564  0.4757 -0.6352  1.1224
  388MOL0     H51195   4.461   3.981   5.553 -0.2281  0.6238  2.0221
  388MOL0     H51196   4.334   4.107   5.742 -0.8573  1.9640  0.5813
  388MOL0     H51197   4.249   4.198   5.615 -0.5960  0.5926 -0.0457
  388MOL0     H51198   3.547   3.825   5.017  0.7681  1.6966  2.5522
  388MOL0     H51199   3.336   3.845   4.890  1.9096 -3.0921  3.3664
  388MOL0     H51200   3.255   4.171   4.428  1.9671 -0.5961  1.5593
  388MOL0     H51201   3.059   4.181   4.270 -0.6191  1.8693  0.6198
  388MOL0     H51202   3.559   4.073   3.949 -1.1831  1.4018 -3.6115
  388MOL0     H51203   3.758   4.246   3.971 -0.5621 -0.3981 -0.6216
  388MOL0     H51204   4.191   4.203   4.068  1.2298 -0.6673  0.7717
  388MOL0     H51205   4.345   4.295   4.231  0.1873 -3.5655 -1.6039
  388MOL0     H51206   4.555   4.464   4.286  0.4221  1.3549 -1.1579
  388MOL0     H51207   4.406   4.432   4.384  1.6717 -1.6292 -0.6678
  388MOL0     H51208   4.418   4.647   4.461 -1.5632 -3.3825 -1.2275
  388MOL0     H51209   4.555   4.557   4.528  3.7414  1.0452 -0.1267
  388MOL0     H51210   4.593   4.762   4.297  0.6415 -1.5584 -2.7216
  388MOL0     H51211   4.708   4.643   4.319  1.4797  1.6968 -0.4783
  388MOL0     H51212   4.702   4.734   4.581 -1.1801  2.5454  0.3841
  388MOL0     H51213   4.823   4.767   4.453 -0.2481 -3.1551 -3.1622
  388MOL0     H51214   4.663   5.132   4.535  0.4690  0.7228 -0.9312
  388MOL0     H51215   4.256   4.689   4.041  0.0734  0.6805  1.0151
  388MOL0     H51216   4.106   4.575   3.895  1.8047 -0.5594 -1.2492
  389MOL0     O51217   9.987   9.863   4.694 -0.0792  0.5323  0.1616
  389MOL0     C51218   9.966   9.790   4.592  0.3413 -0.1604  0.0443
  389MOL0     O51219  10.062   9.750   4.492 -0.3671  0.4883 -0.8204
  389MOL0     C51220  10.193   9.785   4.518 -0.5032  0.3533 -0.7741
  389MOL0     C51221  10.278   9.698   4.579 -0.2854  0.1949  0.9861
  389MOL0     C51222  10.412   9.733   4.600  0.5160 -0.7887  0.0307
  389MOL0     C51223  10.464   9.853   4.559  0.0467  0.0881 -0.1406
  389MOL0     O51224  10.596   9.870   4.585 -0.8827 -0.2621 -0.1064
  389MOL0     C51225  10.670   9.917   4.470 -0.0564  0.0462 -0.4135
  389MOL0     C51226  10.809   9.954   4.503  0.1667  1.3140  0.3378
  389MOL0     C51227  10.903   9.835   4.546 -0.2786 -0.7133 -0.5456
  389MOL0     C51228  11.046   9.869   4.525  0.0894  0.1396 -0.7255
  389MOL0     C51229  11.141   9.768   4.587 -0.0395 -0.7804 -0.5289
  389MOL0     C51230  11.288   9.795   4.533 -0.4353  0.8907  0.5271
  389MOL0     C51231  11.393   9.677   4.562  0.8097  0.0961 -0.2218
  389MOL0     C51232  11.523   9.719   4.493  0.5999 -0.7848  0.9586
  389MOL0     N51233  11.613   9.785   4.584 -0.3273  0.2497  1.1023
  389MOL0     C51234  11.730   9.737   4.637  0.1816  0.2049  0.0380
  389MOL0     C51235  11.766   9.824   4.730  0.2381  0.6037 -0.8798
  389MOL0     C51236  11.889   9.808   4.815  0.1626  0.0118  1.2167
  389MOL0     C51237  12.030   9.812   4.736  0.0146  0.3062  0.4900
  389MOL0     C51238  12.072   9.954   4.716 -0.3741  0.2145  0.0994
  389MOL0     C51239  12.227   9.977   4.686  0.2396 -0.1790 -0.8038
  389MOL0     O51240  12.271  10.102   4.645  0.5190 -0.5025  0.2167
  389MOL0     C51241  12.402  10.123   4.680 -0.1568  0.3412 -0.2413
  389MOL0     C51242  12.454  10.246   4.726 -0.2682 -0.8473  0.2362
  389MOL0     C51243  12.584  10.262   4.740  0.5041  0.4260  0.3896
  389MOL0     C51244  12.672  10.157   4.724 -0.2554 -0.0857  0.4167
  389MOL0     C51245  12.817  10.177   4.758 -0.1616  0.6317  0.2641
  389MOL0     O51246  12.903  10.067   4.729  0.7549 -0.4038 -0.0867
  389MOL0     C51247  13.043  10.073   4.747 -0.6112  0.6942 -0.4202
  389MOL0     C51248  13.102   9.947   4.762 -0.3666  0.4258  1.2051
  389MOL0     C51249  13.245   9.940   4.762  0.3051  0.3933  0.2278
  389MOL0     C51250  13.323  10.042   4.740  0.1730 -0.1922 -0.3063
  389MOL0     O51251  13.456  10.046   4.705 -0.1830 -0.1500 -1.0300
  389MOL0     C51252  13.524   9.939   4.632  0.7489  0.2230  0.7851
  389MOL0     C51253  13.637   9.874   4.705 -0.5404  0.6840  0.6972
  389MOL0     C51254  13.752   9.964   4.748 -0.3583 -0.0855 -0.2153
  389MOL0     C51255  13.832   9.919   4.876  0.6325  0.8582  0.9198
  389MOL0     C51256  13.878  10.022   4.975  0.0860 -0.3061 -0.1427
  389MOL0     C51257  13.770  10.058   5.077 -0.1817  0.1599  0.9605
  389MOL0     C51258  13.617  10.072   5.024  0.4568  1.1096 -0.6327
  389MOL0     C51259  13.526  10.116   5.140 -0.4337  0.7862  0.7425
  389MOL0    Cl51260  13.574  10.271   5.227  0.0087  0.1790  0.1261
  389MOL0     C51261  13.254  10.170   4.729 -0.4552  1.3105 -0.1286
  389MOL0     C51262  13.117  10.188   4.745 -1.3716  0.0508  0.5897
  389MOL0     O51263  12.856  10.276   4.807  0.1681 -0.5219  0.0741
  389MOL0     C51264  12.625  10.027   4.702 -0.3726 -0.8439 -1.0543
  389MOL0     C51265  12.493  10.017   4.666  0.2902  0.2741 -1.3861
  389MOL0     N51266  11.675   9.937   4.731 -0.7122 -0.0357 -0.0225
  389MOL0     N51267  11.584   9.903   4.649 -0.2779  0.3341 -0.4065
  389MOL0     C51268  10.375   9.945   4.494  0.1817 -0.4224 -1.2998
  389MOL0     C51269  10.234   9.911   4.477 -0.2397 -0.2211  0.1106
  389MOL0     C51270   9.835   9.725   4.588  0.7555 -0.0619  0.0280
  389MOL0     C51271   9.721   9.774   4.655 -0.3090 -0.4179 -0.3854
  389MOL0     C51272   9.593   9.717   4.623 -0.1168 -0.3318 -0.9899
  389MOL0     C51273   9.574   9.614   4.525 -0.0179  0.9896 -1.2189
  389MOL0     O51274   9.461   9.547   4.503 -0.2598  0.0959 -0.3470
  389MOL0     C51275   9.361   9.552   4.605  0.1467 -0.3389 -0.8948
  389MOL0     C51276   9.378   9.454   4.720 -0.8428 -0.3588  0.2072
  389MOL0     C51277   9.262   9.457   4.819 -0.7883  1.3438  0.7687
  389MOL0     C51278   9.236   9.327   4.897 -0.6816 -0.2608 -0.6728
  389MOL0     C51279   9.194   9.226   4.810 -0.9455 -0.4667 -0.4202
  389MOL0     C51280   9.139   9.152   4.736 -1.0294  0.4010  0.3922
  389MOL0     C51281   9.687   9.567   4.463 -0.4293  0.1251  0.1909
  389MOL0     C51282   9.812   9.624   4.491 -0.5406 -0.1795  0.4481
  389MOL0     H51283  10.240   9.604   4.618 -0.3674  0.7005  2.1920
  389MOL0     H51284  10.468   9.661   4.658 -0.2299 -2.7486 -1.5637
  389MOL0     H51285  10.627  10.011   4.433  0.1939  0.0342 -0.7457
  389MOL0     H51286  10.675   9.843   4.389 -0.7955 -0.9813  0.4602
  389MOL0     H51287  10.819  10.039   4.570 -1.0106  0.4476  1.6582
  389MOL0     H51288  10.846  10.001   4.411  0.0231  1.2028  0.2209
  389MOL0     H51289  10.884   9.743   4.490 -0.6254 -0.1339 -1.4048
  389MOL0     H51290  10.878   9.801   4.647 -0.5727 -0.6366 -0.5918
  389MOL0     H51291  11.064   9.882   4.418 -0.2292 -3.0583 -1.2623
  389MOL0     H51292  11.067   9.963   4.578 -1.4408 -0.6263  1.4212
  389MOL0     H51293  11.108   9.665   4.572  0.1204 -1.1150  1.1911
  389MOL0     H51294  11.124   9.781   4.694 -3.2497 -3.1183 -0.6247
  389MOL0     H51295  11.332   9.889   4.568 -0.5639  1.6025 -1.1479
  389MOL0     H51296  11.274   9.819   4.427  0.4204 -0.9195 -0.0513
  389MOL0     H51297  11.400   9.664   4.671 -4.0650  0.2768  0.3538
  389MOL0     H51298  11.363   9.582   4.517 -0.1549  0.6696 -0.8252
  389MOL0     H51299  11.499   9.795   4.418 -0.8183 -1.8473  0.3050
  389MOL0     H51300  11.575   9.636   4.445 -0.4371 -1.7944  1.5400
  389MOL0     H51301  11.784   9.644   4.622  3.2839  1.5496  1.7854
  389MOL0     H51302  11.881   9.709   4.861 -1.1438  1.1147  3.4960
  389MOL0     H51303  11.902   9.876   4.899  2.4580 -0.0073  0.9626
  389MOL0     H51304  12.026   9.751   4.646  0.4830  0.1791  0.5500
  389MOL0     H51305  12.102   9.759   4.799  0.6727 -0.0957 -0.5882
  389MOL0     H51306  12.028   9.992   4.623 -1.0015  2.0542  1.1068
  389MOL0     H51307  12.042  10.017   4.800 -2.4525  0.6099 -0.8849
  389MOL0     H51308  12.260   9.917   4.601  0.5090 -1.1781 -0.0118
  389MOL0     H51309  12.282   9.932   4.769 -0.1072  0.6797 -0.0932
  389MOL0     H51310  12.398  10.338   4.743 -0.5923 -1.3047  1.8757
  389MOL0     H51311  12.628  10.355   4.777  1.7771 -1.2869  3.6039
  389MOL0     H51312  13.044   9.856   4.769  0.0049 -0.0010 -0.7533
  389MOL0     H51313  13.299   9.852   4.797 -1.6366 -0.2501  1.8360
  389MOL0     H51314  13.567   9.977   4.539  0.3924  2.0314  1.3201
  389MOL0     H51315  13.452   9.859   4.612  0.4439  1.4223 -4.0211
  389MOL0     H51316  13.664   9.796   4.633  0.9318 -0.3470  2.2760
  389MOL0     H51317  13.605   9.816   4.793 -2.7819  2.8018  1.3966
  389MOL0     H51318  13.708  10.063   4.761 -1.1946 -0.5368  0.4972
  389MOL0     H51319  13.824   9.981   4.667 -0.2990  1.7436  0.1854
  389MOL0     H51320  13.781   9.847   4.941  0.9809  0.1647  0.4320
  389MOL0     H51321  13.918   9.861   4.844 -3.3147 -5.0757 -0.5514
  389MOL0     H51322  13.906  10.116   4.926  1.3317 -0.0922  0.9349
  389MOL0     H51323  13.968   9.992   5.029  0.0857  2.0466  1.3390
  389MOL0     H51324  13.797  10.153   5.124 -2.0647 -0.0174  2.5504
  389MOL0     H51325  13.774   9.978   5.151 -1.8002  1.3791  2.4694
  389MOL0     H51326  13.618  10.135   4.934  1.5473  2.0388  0.0069
  389MOL0     H51327  13.589   9.970   4.998  0.5830  0.9865 -0.2913
  389MOL0     H51328  13.525  10.038   5.216  0.2294 -0.0373 -0.0744
  389MOL0     H51329  13.426  10.137   5.102 -1.2023 -0.3925  2.0381
  389MOL0     H51330  13.320  10.253   4.703 -0.3356  1.1607 -0.3096
  389MOL0     H51331  13.078  10.285   4.716  0.4854  0.7094  0.1269
  389MOL0     H51332  12.691   9.941   4.705  0.6706 -0.0931  1.8835
  389MOL0     H51333  12.468   9.914   4.642 -0.1202 -0.0006  0.0784
  389MOL0     H51334  10.391  10.043   4.449 -3.2696 -0.4959 -3.0051
  389MOL0     H51335  10.159   9.977   4.433  1.0533  0.2919 -1.4294
  389MOL0     H51336   9.724   9.858   4.723 -3.2924 -2.2456  2.2223
  389MOL0     H51337   9.509   9.760   4.676  0.0127  0.0767 -1.1144
  389MOL0     H51338   9.265   9.514   4.569 -0.9816  0.4677  1.0892
  389MOL0     H51339   9.339   9.651   4.646  0.2796 -1.3235  1.7436
  389MOL0     H51340   9.403   9.354   4.682  1.0073 -0.1554  0.7733
  389MOL0     H51341   9.462   9.486   4.782 -3.8274 -0.2516  4.6443
  389MOL0     H51342   9.170   9.481   4.766 -0.9714  0.2866  0.5883
  389MOL0     H51343   9.291   9.528   4.898  2.5358 -0.8396  1.7658
  389MOL0     H51344   9.325   9.306   4.957 -0.1332  1.1631 -0.9410
  389MOL0     H51345   9.163   9.356   4.974  2.0752  3.4281  0.9049
  389MOL0     H51346   9.087   9.079   4.677 -2.7386  1.0508  1.0238
  389MOL0     H51347   9.676   9.480   4.400 -0.0929  0.2775 -0.0807
  389MOL0     H51348   9.892   9.589   4.426 -0.6879  3.1983 -1.7487
  390MOL0     O51349  10.432   9.221   8.634  0.1974  0.0532  0.5441
  390MOL0     C51350  10.548   9.189   8.613 -0.2508 -0.8298 -0.0953
  390MOL0     O51351  10.646   9.160   8.706  0.7398 -0.2281 -0.0066
  390MOL0     C51352  10.607   9.169   8.837 -0.6613 -0.2193 -0.3457
  390MOL0     C51353  10.616   9.285   8.914 -0.2713 -0.4201 -0.7667
  390MOL0     C51354  10.573   9.281   9.047  0.4175  0.1407 -0.5734
  390MOL0     C51355  10.519   9.170   9.111 -0.4922 -0.6358  0.8615
  390MOL0     O51356  10.459   9.192   9.239  0.1135 -0.2327  0.9539
  390MOL0     C51357  10.414   9.069   9.310  0.1950  0.2154  0.1152
  390MOL0     C51358  10.407   9.117   9.453 -1.3397 -0.8687 -0.6187
  390MOL0     C51359  10.377   9.007   9.553 -0.6547 -0.0307 -0.4751
  390MOL0     C51360  10.300   9.063   9.671 -0.9029 -0.4315  0.7189
  390MOL0     C51361  10.247   8.946   9.769  0.3764 -0.3674 -0.0242
  390MOL0     C51362  10.361   8.870   9.832 -0.7275  0.6701  0.1920
  390MOL0     C51363  10.462   8.944   9.922 -0.5061  0.2563  0.4086
  390MOL0     C51364  10.383   9.042  10.009  0.1693  0.0627  0.1296
  390MOL0     N51365  10.455   9.097  10.129  0.5089  0.1064  1.0304
  390MOL0     C51366  10.407   9.123  10.256 -0.1420 -1.0221 -0.2016
  390MOL0     C51367  10.502   9.188  10.321  0.6819  0.5565 -0.2646
  390MOL0     C51368  10.504   9.211  10.471  0.2455  0.0983 -0.3861
  390MOL0     C51369  10.614   9.309  10.527  0.4890 -0.3406 -0.1854
  390MOL0     C51370  10.580   9.452  10.479  0.4568 -0.0839  0.1483
  390MOL0     C51371  10.644   9.555  10.582 -0.2053  0.3309  1.2842
  390MOL0     O51372  10.783   9.582  10.553 -0.4649  0.0336 -0.5732
  390MOL0     C51373  10.856   9.640  10.649  0.1179  0.1703 -0.6475
  390MOL0     C51374  10.804   9.690  10.769 -0.6356  0.2537  0.9230
  390MOL0     C51375  10.886   9.751  10.864 -0.2982 -0.4166 -0.2842
  390MOL0     C51376  11.022   9.769  10.840  0.5673  0.0033 -0.7544
  390MOL0     C51377  11.120   9.825  10.946  1.0140 -0.4148  0.7901
  390MOL0     O51378  11.254   9.830  10.917 -0.3584 -0.0689 -0.4326
  390MOL0     C51379  11.341   9.884  11.014  0.0239 -0.3693 -0.3164
  390MOL0     C51380  11.433   9.798  11.069 -0.0908  0.2365  0.1199
  390MOL0     C51381  11.535   9.851  11.145  0.2012  0.1666 -0.1283
  390MOL0     C51382  11.541   9.983  11.181  0.2557  0.3855 -0.0790
  390MOL0     O51383  11.638  10.006  11.276 -0.1411 -0.5905  0.2547
  390MOL0     C51384  11.672  10.138  11.323 -0.6574  0.2815  0.4428
  390MOL0     C51385  11.823  10.144  11.341  1.1319  0.2562  0.6385
  390MOL0     C51386  11.900  10.078  11.225 -0.5867 -0.0556 -0.0170
  390MOL0     C51387  12.053  10.081  11.240  0.8279  0.8344  0.1253
  390MOL0     C51388  12.123  10.015  11.115  0.2385 -0.5098 -0.5531
  390MOL0     C51389  12.280  10.013  11.130  0.0096  0.7993 -0.1644
  390MOL0     C51390  12.352  10.136  11.087  0.5138 -0.2452  0.3339
  390MOL0     C51391  12.498  10.127  11.107 -0.5339  0.2673  0.0643
  390MOL0    Cl51392  12.573  10.027  10.993 -0.1169  0.2435  0.3040
  390MOL0     C51393  11.449  10.072  11.125  0.0183  0.1124  0.2526
  390MOL0     C51394  11.342  10.028  11.043 -1.1070  0.7495  0.6188
  390MOL0     O51395  11.071   9.866  11.049 -0.4599 -0.3102  0.8058
  390MOL0     C51396  11.074   9.727  10.712 -0.1424 -0.4055  0.5465
  390MOL0     C51397  10.989   9.657  10.625 -0.1368  0.4565  0.9190
  390MOL0     N51398  10.612   9.210  10.233  0.5845  0.3259 -0.3415
  390MOL0     N51399  10.576   9.161  10.121  0.5232  0.5713  0.1170
  390MOL0     C51400  10.507   9.054   9.030  0.1110  0.2413  0.5662
  390MOL0     C51401  10.557   9.057   8.897 -0.0701 -0.3048  0.2594
  390MOL0     C51402  10.593   9.183   8.470  0.2965 -0.0810 -0.2282
  390MOL0     C51403  10.520   9.237   8.366  0.4553 -0.6667 -0.0117
  390MOL0     C51404  10.569   9.220   8.236 -0.5733  1.0344  0.4610
  390MOL0     C51405  10.693   9.165   8.204  0.2271 -0.2143  0.6193
  390MOL0     O51406  10.731   9.154   8.078  0.5821  0.0601 -0.4411
  390MOL0     C51407  10.848   9.084   8.041  0.6000 -0.7470  0.2286
  390MOL0     C51408  10.862   9.058   7.885 -0.2465 -1.1836  0.8908
  390MOL0     C51409  10.739   8.969   7.834 -0.0717 -0.0843  0.8120
  390MOL0     C51410  10.756   8.888   7.711 -0.0512  0.4394  0.4646
  390MOL0     C51411  10.719   8.968   7.595 -0.0518  0.5977 -0.3044
  390MOL0     C51412  10.702   9.021   7.487 -0.2072 -0.1222  0.6188
  390MOL0     C51413  10.771   9.127   8.308 -0.0737 -1.0785 -0.2756
  390MOL0     C51414  10.722   9.132   8.441 -1.7085  0.1073 -0.0746
  390MOL0     H51415  10.665   9.377   8.885  0.7766 -0.3889  0.9612
  390MOL0     H51416  10.565   9.374   9.103 -4.0938  0.3220 -1.1810
  390MOL0     H51417  10.494   8.994   9.300  3.2007  3.3462 -1.2686
  390MOL0     H51418  10.319   9.029   9.273 -1.4397  0.4242  3.7479
  390MOL0     H51419  10.344   9.207   9.450  2.8782  2.4136 -0.3259
  390MOL0     H51420  10.505   9.159   9.479 -0.3379 -2.2140 -2.0911
  390MOL0     H51421  10.470   8.957   9.580  0.2053  1.0170 -1.3466
  390MOL0     H51422  10.312   8.931   9.510  1.3606 -2.7018  0.9213
  390MOL0     H51423  10.363   9.141   9.716 -0.2636 -0.9943  0.8034
  390MOL0     H51424  10.207   9.112   9.639 -0.2585  0.6078  0.3783
  390MOL0     H51425  10.181   8.883   9.710 -1.0576  0.6960  0.3688
  390MOL0     H51426  10.185   8.982   9.852 -0.8713 -1.6909 -0.3507
  390MOL0     H51427  10.408   8.805   9.758 -0.1072 -1.4562  2.3207
  390MOL0     H51428  10.315   8.794   9.896  0.7577 -3.1576 -2.8447
  390MOL0     H51429  10.530   8.879   9.978 -1.1222  0.8092  1.8566
  390MOL0     H51430  10.526   9.005   9.857 -1.4686  1.7905  0.8584
  390MOL0     H51431  10.306   8.984  10.062  0.4013  1.1224  1.6848
  390MOL0     H51432  10.341   9.119   9.943 -1.9722 -1.3977 -0.3129
  390MOL0     H51433  10.318   9.079  10.300 -1.2468 -0.1512 -1.4837
  390MOL0     H51434  10.514   9.111  10.513 -0.4456 -0.0994 -0.6731
  390MOL0     H51435  10.405   9.238  10.507  0.8982 -0.1938  1.7824
  390MOL0     H51436  10.710   9.277  10.486  1.1909  0.1355  1.0349
  390MOL0     H51437  10.620   9.296  10.635 -0.8607 -3.7765 -0.3728
  390MOL0     H51438  10.616   9.481  10.380 -0.4773  0.2475 -0.1102
  390MOL0     H51439  10.472   9.468  10.470  0.1210 -2.3618 -0.4597
  390MOL0     H51440  10.614   9.519  10.681 -0.6932  1.8168  1.7048
  390MOL0     H51441  10.600   9.653  10.562  2.2035  1.0209 -1.3056
  390MOL0     H51442  10.697   9.688  10.787 -0.9143  1.0062 -0.5213
  390MOL0     H51443  10.839   9.785  10.956  0.1741  1.7693 -0.8168
  390MOL0     H51444  11.418   9.692  11.055  3.6614 -0.4062 -0.0257
  390MOL0     H51445  11.602   9.779  11.192 -1.8328 -2.0434 -0.4047
  390MOL0     H51446  11.618  10.154  11.417 -2.2749 -0.3637 -0.3260
  390MOL0     H51447  11.636  10.214  11.252 -1.5120 -1.7055 -1.3519
  390MOL0     H51448  11.853  10.078  11.424  2.9658  0.7686  0.4257
  390MOL0     H51449  11.855  10.247  11.357 -0.4354  0.3856  3.8598
  390MOL0     H51450  11.876  10.143  11.140  0.6712 -1.3028 -1.3868
  390MOL0     H51451  11.870   9.974  11.205 -2.7991  0.3231  1.0374
  390MOL0     H51452  12.078  10.186  11.258 -0.6239  1.5050 -1.4983
  390MOL0     H51453  12.090  10.031  11.331 -0.7385 -0.8525 -0.1142
  390MOL0     H51454  12.094  10.070  11.026  0.8266 -2.4644 -2.0279
  390MOL0     H51455  12.094   9.910  11.103  2.9499 -1.4031 -0.1390
  390MOL0     H51456  12.320   9.935  11.064  1.4659  0.4299  1.0743
  390MOL0     H51457  12.305   9.986  11.233  0.6642 -1.7846 -0.9250
  390MOL0     H51458  12.347  10.152  10.979 -1.0447  4.4284  0.8929
  390MOL0     H51459  12.318  10.227  11.138  0.1308  0.2294 -0.7503
  390MOL0     H51460  12.520  10.082  11.204 -3.4794 -3.5605 -0.8082
  390MOL0     H51461  12.549  10.224  11.101  2.3619 -1.2019 -5.0696
  390MOL0     H51462  11.479  10.176  11.123  1.9139 -0.4005 -0.2949
  390MOL0     H51463  11.272  10.076  10.975 -0.0753  1.3782 -0.0130
  390MOL0     H51464  11.182   9.714  10.710  0.6099  4.1273 -1.8815
  390MOL0     H51465  11.034   9.616  10.535 -3.1434  2.8094 -1.9048
  390MOL0     H51466  10.464   8.960   9.063  3.0164 -1.4499 -0.0907
  390MOL0     H51467  10.558   8.965   8.839  1.4159 -0.6771  0.8245
  390MOL0     H51468  10.423   9.280   8.389 -1.8372 -3.3695 -3.4160
  390MOL0     H51469  10.500   9.262   8.163 -1.8676 -0.0072  1.0568
  390MOL0     H51470  10.855   8.987   8.091  0.3509 -0.0132  1.7569
  390MOL0     H51471  10.941   9.138   8.060  1.6767 -1.8936 -1.4632
  390MOL0     H51472  10.857   9.153   7.831 -2.3550  0.3420  3.5404
  390MOL0     H51473  10.953   9.005   7.856 -0.4604 -1.5381  0.8435
  390MOL0     H51474  10.656   9.036   7.812  0.3857 -0.6876 -3.9246
  390MOL0     H51475  10.712   8.894   7.909 -0.2508  0.0393  0.8711
  390MOL0     H51476  10.860   8.862   7.688  0.6740  4.4917 -1.6844
  390MOL0     H51477  10.692   8.800   7.710 -0.3535  0.6598  0.4810
  390MOL0     H51478  10.691   9.042   7.382 -0.0846 -0.9234  0.4446
  390MOL0     H51479  10.874   9.102   8.284  0.5899 -0.0007  1.2656
  390MOL0     H51480  10.786   9.091   8.518 -0.7458 -0.4194 -1.1357
  391MOL0     O51481   1.916   6.982   2.800 -0.1211 -0.9527 -0.2641
  391MOL0     C51482   1.984   6.969   2.891  0.0453 -0.2934 -1.0550
  391MOL0     O51483   1.975   6.874   2.984 -0.0279 -0.0113 -0.2323
  391MOL0     C51484   1.868   6.787   3.004 -0.2852  0.6685  0.0857
  391MOL0     C51485   1.762   6.762   2.914 -0.0542 -0.4405 -0.6061
  391MOL0     C51486   1.673   6.658   2.933 -0.8809  0.2220  0.0356
  391MOL0     C51487   1.678   6.586   3.055  0.8440 -0.8675 -0.7167
  391MOL0     O51488   1.598   6.477   3.085 -0.1947 -0.2780  0.3369
  391MOL0     C51489   1.556   6.402   2.967  0.0120 -0.9861  1.4713
  391MOL0     C51490   1.527   6.258   2.996  0.8248  0.1738 -0.2024
  391MOL0     C51491   1.391   6.232   3.071  0.0491  0.6402 -0.9448
  391MOL0     C51492   1.357   6.079   3.074  0.1911 -1.2217 -0.9499
  391MOL0     C51493   1.256   6.040   3.177  0.9169 -0.2676 -0.1329
  391MOL0     C51494   1.271   5.882   3.185 -1.2365  1.3284 -1.1911
  391MOL0     C51495   1.192   5.813   3.078 -0.5138  0.1607 -0.2947
  391MOL0     C51496   1.209   5.654   3.102  0.7508 -1.0219  0.5206
  391MOL0     N51497   1.123   5.593   2.996  0.4696 -0.1111 -0.5615
  391MOL0     C51498   0.991   5.556   3.022  0.2779 -0.2636 -0.0509
  391MOL0     C51499   0.955   5.497   2.905  0.8044  0.3756 -0.5188
  391MOL0     C51500   0.812   5.466   2.868  0.2560 -0.3665  0.2613
  391MOL0     C51501   0.779   5.337   2.940  1.5482 -0.3531  0.2224
  391MOL0     C51502   0.852   5.217   2.884 -0.5275  0.0033  0.2087
  391MOL0     C51503   0.769   5.095   2.868  0.6599  0.2311  0.4015
  391MOL0     O51504   0.647   5.135   2.797  0.2694  0.6874 -0.0872
  391MOL0     C51505   0.554   5.047   2.750  0.4656  0.0454 -0.1067
  391MOL0     C51506   0.440   5.096   2.681 -0.9564 -0.0107 -0.6195
  391MOL0     C51507   0.332   5.014   2.650 -0.4554 -0.0313  1.0870
  391MOL0     C51508   0.328   4.878   2.681 -0.7357  0.1362  0.0805
  391MOL0     C51509   0.216   4.793   2.639  0.8179 -0.9844 -0.7821
  391MOL0     O51510   0.137   4.843   2.540  0.0952 -0.6243  0.7636
  391MOL0     C51511   0.018   4.799   2.524  0.4631  0.0058  0.7158
  391MOL0     C51512  -0.046   4.850   2.419  0.0092  0.3640 -0.3301
  391MOL0     C51513  -0.178   4.821   2.382  0.5935 -0.8226 -0.4586
  391MOL0     C51514  -0.258   4.751   2.481  0.5152  0.1802 -0.7597
  391MOL0     O51515  -0.390   4.748   2.454  0.1810  0.5910 -0.3919
  391MOL0     C51516  -0.451   4.631   2.511 -0.3653  0.3217 -0.1679
  391MOL0     C51517  -0.586   4.618   2.445  0.8766  0.7123 -0.2351
  391MOL0     C51518  -0.681   4.497   2.491 -0.7627  0.5498 -0.1522
  391MOL0     C51519  -0.838   4.526   2.477 -0.2499  0.3468 -0.9459
  391MOL0     C51520  -0.913   4.412   2.551  0.2681  0.2052 -0.1842
  391MOL0     C51521  -1.069   4.432   2.537  0.0859 -0.2443  0.4987
  391MOL0     C51522  -1.119   4.372   2.408  0.8953  0.3052  0.9393
  391MOL0     C51523  -1.268   4.402   2.372  0.4084 -0.0560  0.6471
  391MOL0    Cl51524  -1.384   4.313   2.487 -0.3409  0.3972  0.0126
  391MOL0     C51525  -0.197   4.713   2.605  0.1106  0.2817 -0.2774
  391MOL0     C51526  -0.061   4.742   2.624  0.3315  0.3531  0.2231
  391MOL0     O51527   0.216   4.675   2.676 -0.6008 -0.4549  0.5432
  391MOL0     C51528   0.446   4.826   2.732  0.3248 -1.0411 -0.6130
  391MOL0     C51529   0.564   4.901   2.760  0.2117 -0.5086 -0.3531
  391MOL0     N51530   1.057   5.488   2.819  0.2432 -0.4633 -0.3991
  391MOL0     N51531   1.158   5.532   2.883  0.1818  0.8067  0.7230
  391MOL0     C51532   1.770   6.613   3.155 -0.0901 -0.3452  0.0029
  391MOL0     C51533   1.875   6.708   3.126 -0.2027 -0.3726 -0.3809
  391MOL0     C51534   2.086   7.066   2.892 -1.3134 -0.1911 -0.5470
  391MOL0     C51535   2.204   7.046   2.974 -0.4215  0.0198  0.6018
  391MOL0     C51536   2.310   7.139   2.963  0.9571  0.3772  0.3233
  391MOL0     C51537   2.293   7.262   2.896 -0.5601  0.5327  0.1484
  391MOL0     O51538   2.399   7.356   2.879 -0.4626  0.1947  0.8086
  391MOL0     C51539   2.528   7.337   2.956  0.4099 -1.3076 -0.1851
  391MOL0     C51540   2.627   7.246   2.884 -0.0500 -0.0385 -0.7606
  391MOL0     C51541   2.747   7.209   2.978 -0.1245 -1.0229  0.4172
  391MOL0     C51542   2.856   7.153   2.897 -1.0210  0.1249  0.1041
  391MOL0     C51543   2.984   7.124   2.966  1.4030  0.2320  0.1165
  391MOL0     C51544   3.076   7.102   3.037  0.2938  0.2702 -0.7536
  391MOL0     C51545   2.173   7.288   2.831 -0.6576 -1.1538 -0.0392
  391MOL0     C51546   2.075   7.196   2.821 -0.0918 -0.1649 -0.4685
  391MOL0     H51547   1.758   6.813   2.819 -2.2340 -0.6589 -0.6872
  391MOL0     H51548   1.611   6.634   2.847  0.5701  0.8800 -1.2432
  391MOL0     H51549   1.623   6.394   2.881 -0.1312 -1.3344  1.3894
  391MOL0     H51550   1.457   6.439   2.939 -0.6142 -3.2648  0.3800
  391MOL0     H51551   1.604   6.203   3.051  1.1074 -0.3580 -1.1146
  391MOL0     H51552   1.524   6.204   2.901  2.1169  2.5903 -1.7058
  391MOL0     H51553   1.313   6.288   3.020  1.1898  1.9634 -1.3122
  391MOL0     H51554   1.400   6.257   3.178 -2.1694 -1.6691 -0.1068
  391MOL0     H51555   1.305   6.044   2.985  0.0729 -0.5773 -1.1397
  391MOL0     H51556   1.446   6.018   3.092 -1.4226 -3.2400  0.6419
  391MOL0     H51557   1.156   6.081   3.161  0.8152  0.3955  1.8391
  391MOL0     H51558   1.285   6.077   3.276  2.6175 -0.1497 -0.6493
  391MOL0     H51559   1.236   5.851   3.284  3.3902 -2.0890 -0.2975
  391MOL0     H51560   1.376   5.855   3.193 -1.3545  1.2941  0.4677
  391MOL0     H51561   1.087   5.843   3.090 -0.1324  0.3899  3.5869
  391MOL0     H51562   1.234   5.836   2.979  2.1000  2.0834  1.1495
  391MOL0     H51563   1.156   5.631   3.195 -1.5697  2.5666  0.2757
  391MOL0     H51564   1.312   5.622   3.084  1.4790 -0.1903  2.7685
  391MOL0     H51565   0.924   5.582   3.103 -0.8121  2.3625 -1.6659
  391MOL0     H51566   0.803   5.460   2.760  2.5647 -0.7131  0.0237
  391MOL0     H51567   0.739   5.542   2.897 -0.0946  0.2628 -2.0849
  391MOL0     H51568   0.672   5.323   2.922  1.0953 -2.0754  3.5272
  391MOL0     H51569   0.789   5.349   3.048 -1.5172  3.5755  0.3199
  391MOL0     H51570   0.896   5.244   2.787 -1.5020  1.8294  0.2298
  391MOL0     H51571   0.937   5.195   2.949 -0.2532  1.5092  0.3859
  391MOL0     H51572   0.734   5.056   2.963 -0.3071  1.0391  0.3861
  391MOL0     H51573   0.819   5.013   2.815  2.5533  1.4937  0.0896
  391MOL0     H51574   0.425   5.203   2.671 -0.1447  0.2134  0.3676
  391MOL0     H51575   0.251   5.070   2.603 -0.2451 -1.0622 -0.6049
  391MOL0     H51576   0.016   4.898   2.344  2.0721  0.9146  1.6193
  391MOL0     H51577  -0.213   4.857   2.286  0.3854  0.9358  0.2381
  391MOL0     H51578  -0.468   4.637   2.619  2.5928 -0.5546  0.4306
  391MOL0     H51579  -0.392   4.541   2.491 -1.4938 -0.2293 -1.1438
  391MOL0     H51580  -0.580   4.605   2.337 -1.9634 -4.4751 -0.1190
  391MOL0     H51581  -0.633   4.711   2.477  5.8664  4.4697 -2.5898
  391MOL0     H51582  -0.664   4.478   2.597  2.1156  3.3388  0.0467
  391MOL0     H51583  -0.645   4.409   2.437  1.2883  0.6068  0.9969
  391MOL0     H51584  -0.858   4.627   2.515 -0.4944  0.1616 -0.5828
  391MOL0     H51585  -0.867   4.523   2.371 -1.4863 -1.6807 -0.5880
  391MOL0     H51586  -0.878   4.404   2.654 -0.1487 -0.3823 -0.0771
  391MOL0     H51587  -0.880   4.314   2.515  2.5599  0.4424  1.0761
  391MOL0     H51588  -1.089   4.539   2.542  0.2697  0.0733 -3.0961
  391MOL0     H51589  -1.130   4.387   2.616 -0.1571 -0.0800  0.4048
  391MOL0     H51590  -1.061   4.400   2.319 -0.2069 -2.1880 -0.6982
  391MOL0     H51591  -1.101   4.264   2.404  2.0996  0.5304 -0.6634
  391MOL0     H51592  -1.293   4.379   2.269 -1.6885 -0.5751  1.2279
  391MOL0     H51593  -1.283   4.508   2.395  2.1852  0.0233  1.6497
  391MOL0     H51594  -0.253   4.668   2.687 -1.0663 -0.3334 -1.3872
  391MOL0     H51595  -0.018   4.705   2.716  0.0681  1.5302  0.8379
  391MOL0     H51596   0.440   4.718   2.748  0.2176 -1.1760 -1.5302
  391MOL0     H51597   0.645   4.854   2.815  0.9985  0.9875 -0.2038
  391MOL0     H51598   1.767   6.550   3.243 -2.9939 -2.6125 -1.5331
  391MOL0     H51599   1.937   6.736   3.211  0.0826 -2.7493  0.2598
  391MOL0     H51600   2.204   6.953   3.030 -0.2039  0.7789  1.8732
  391MOL0     H51601   2.407   7.109   3.000  1.5907 -1.0251 -2.2499
  391MOL0     H51602   2.518   7.304   3.060 -1.0834  0.2626  0.2097
  391MOL0     H51603   2.583   7.431   2.957  0.5345 -1.3403 -1.4930
  391MOL0     H51604   2.569   7.164   2.839 -1.2343  0.1979  0.2779
  391MOL0     H51605   2.672   7.311   2.808  3.0496 -0.4097  0.6109
  391MOL0     H51606   2.727   7.138   3.059  3.9171 -1.3223  1.3853
  391MOL0     H51607   2.777   7.304   3.023 -0.6781 -0.0074 -1.2927
  391MOL0     H51608   2.822   7.060   2.849  0.9939 -0.0249 -1.1529
  391MOL0     H51609   2.874   7.215   2.808  0.7583  1.9561  1.6315
  391MOL0     H51610   3.166   7.097   3.094 -0.0247  2.5840  0.0529
  391MOL0     H51611   2.153   7.388   2.794 -2.1683 -0.4443  2.4100
  391MOL0     H51612   1.985   7.219   2.764 -0.5469  2.8124  1.2276
  392MOL0     O51613   8.452   4.849   0.581 -0.1625  0.0829  0.1814
  392MOL0     C51614   8.359   4.785   0.541  0.0002 -0.1085  1.4468
  392MOL0     O51615   8.327   4.664   0.575  0.3540  0.9270  0.5019
  392MOL0     C51616   8.415   4.597   0.660  0.2232 -1.0510 -0.3106
  392MOL0     C51617   8.485   4.493   0.595  0.2385  0.1572 -0.7914
  392MOL0     C51618   8.579   4.410   0.669 -0.2604 -0.3544  0.8301
  392MOL0     C51619   8.622   4.452   0.800  0.0436  0.5587 -1.0935
  392MOL0     O51620   8.727   4.402   0.869 -0.0913  0.5738 -0.7026
  392MOL0     C51621   8.781   4.270   0.845 -0.2305 -0.6766 -0.2639
  392MOL0     C51622   8.726   4.176   0.955 -0.1040  0.0372  0.1457
  392MOL0     C51623   8.568   4.161   0.965 -1.1075 -0.3526  1.0481
  392MOL0     C51624   8.516   4.105   1.100  0.2682 -0.2690 -0.8418
  392MOL0     C51625   8.379   4.166   1.129 -0.5956  0.2969 -0.4180
  392MOL0     C51626   8.306   4.109   1.246  0.0191 -0.4315 -0.6849
  392MOL0     C51627   8.284   3.954   1.233 -0.1609  0.6814 -0.0029
  392MOL0     C51628   8.196   3.886   1.346 -0.2683  0.0941 -0.2480
  392MOL0     N51629   8.231   3.928   1.484  0.1610  0.1978  0.3627
  392MOL0     C51630   8.357   3.959   1.534 -0.3449  0.3182 -0.0973
  392MOL0     C51631   8.332   3.979   1.668  0.2789 -0.5612 -0.6665
  392MOL0     C51632   8.442   3.997   1.772 -0.3533 -0.4652  0.3970
  392MOL0     C51633   8.403   4.125   1.835  0.6543 -0.1343  0.6472
  392MOL0     C51634   8.503   4.194   1.929 -0.7592  0.6041 -0.8399
  392MOL0     C51635   8.453   4.336   1.950 -1.1314  0.0709 -0.2228
  392MOL0     O51636   8.324   4.344   2.005  0.4817  0.3959 -0.6664
  392MOL0     C51637   8.308   4.285   2.128  0.5096  0.4553  0.5009
  392MOL0     C51638   8.408   4.266   2.225  1.1221 -0.3491  0.0087
  392MOL0     C51639   8.390   4.178   2.336  0.0211 -0.4169 -0.5422
  392MOL0     C51640   8.265   4.114   2.351 -0.6235 -0.6472 -0.8477
  392MOL0     C51641   8.244   4.038   2.480 -1.0304  0.2719  0.0239
  392MOL0     O51642   8.332   4.063   2.588  0.0397  0.2850 -0.1094
  392MOL0     C51643   8.313   3.987   2.700 -0.2301 -0.3471 -0.2900
  392MOL0     C51644   8.300   4.052   2.822 -0.1294  0.0602 -0.0492
  392MOL0     C51645   8.266   3.970   2.936  0.3472  0.5219  0.0032
  392MOL0     C51646   8.255   3.831   2.927 -0.5839 -0.2366  0.9917
  392MOL0     O51647   8.229   3.758   3.034  0.3761  0.0827 -0.5463
  392MOL0     C51648   8.261   3.616   3.044 -0.1220  0.4880 -0.0238
  392MOL0     C51649   8.237   3.563   3.178  0.3219 -0.3542  0.1100
  392MOL0     C51650   8.092   3.542   3.222  0.2337 -0.0823 -0.1985
  392MOL0     C51651   8.073   3.491   3.374 -0.1964 -0.6028  0.3467
  392MOL0     C51652   7.919   3.489   3.415 -0.6096  0.9895  0.6238
  392MOL0     C51653   7.893   3.402   3.546 -0.4606  1.3741  0.2507
  392MOL0     C51654   7.914   3.248   3.523  0.6432 -0.3099 -0.0826
  392MOL0     C51655   7.941   3.180   3.661 -0.7430  0.4634  0.0955
  392MOL0    Cl51656   8.092   3.230   3.732  0.8257 -0.1770  0.2953
  392MOL0     C51657   8.284   3.764   2.799  0.4731 -0.4036  0.2469
  392MOL0     C51658   8.301   3.839   2.691 -0.7704 -1.5305 -0.3774
  392MOL0     O51659   8.143   3.976   2.484  0.4070  0.0044 -0.3791
  392MOL0     C51660   8.163   4.145   2.263 -0.4986 -0.8040 -0.5975
  392MOL0     C51661   8.191   4.221   2.151  0.7107 -0.1120 -0.4065
  392MOL0     N51662   8.199   3.969   1.692  0.0521  0.0282  0.4693
  392MOL0     N51663   8.132   3.936   1.585 -0.2281 -0.1310  0.4770
  392MOL0     C51664   8.553   4.558   0.849 -0.0880 -0.2319  0.4959
  392MOL0     C51665   8.448   4.632   0.785  0.5071  0.9186 -0.1363
  392MOL0     C51666   8.270   4.864   0.450  0.7612 -0.0984 -0.1588
  392MOL0     C51667   8.148   4.808   0.396 -0.5206 -0.0671 -0.3534
  392MOL0     C51668   8.053   4.879   0.318  0.1717 -0.5384 -0.5832
  392MOL0     C51669   8.073   5.017   0.306 -0.2881  0.4094  0.4022
  392MOL0     O51670   7.979   5.095   0.242 -0.7498 -0.2455  0.3176
  392MOL0     C51671   8.040   5.197   0.152 -0.1065  0.0707 -0.6838
  392MOL0     C51672   7.950   5.240   0.041 -0.5431 -0.2815  0.4281
  392MOL0     C51673   7.999   5.361  -0.047 -0.5730 -0.5596 -0.6356
  392MOL0     C51674   8.130   5.337  -0.128  0.4873 -0.2698  0.0652
  392MOL0     C51675   8.248   5.323  -0.041 -0.1544 -0.4426  0.4485
  392MOL0     C51676   8.352   5.306   0.015 -0.0932  0.5052 -0.5409
  392MOL0     C51677   8.185   5.073   0.362 -0.0483 -0.2156  0.5553
  392MOL0     C51678   8.285   5.003   0.429  0.4636 -0.4250  0.1608
  392MOL0     H51679   8.458   4.467   0.493 -1.4478  3.5690 -1.3451
  392MOL0     H51680   8.605   4.312   0.631 -2.3907 -1.8243  2.8558
  392MOL0     H51681   8.890   4.282   0.848 -0.3688  1.1673 -1.1246
  392MOL0     H51682   8.753   4.236   0.745  0.7338 -0.3039 -0.6775
  392MOL0     H51683   8.754   4.217   1.053  1.5238 -1.1291  0.2021
  392MOL0     H51684   8.784   4.083   0.957 -1.3824 -0.8310 -1.3524
  392MOL0     H51685   8.532   4.108   0.876  2.7159 -0.5537 -0.5902
  392MOL0     H51686   8.529   4.263   0.962  1.5668  0.8755  3.2120
  392MOL0     H51687   8.501   3.997   1.099 -0.4382 -0.2033  0.4917
  392MOL0     H51688   8.579   4.134   1.184 -1.5964  1.2781  0.0961
  392MOL0     H51689   8.322   4.164   1.036  2.4978 -0.4695 -2.4327
  392MOL0     H51690   8.395   4.272   1.151  2.9144 -0.3481  0.7699
  392MOL0     H51691   8.210   4.159   1.259 -0.7434 -1.4926 -2.0038
  392MOL0     H51692   8.372   4.118   1.333  2.1723  0.7618 -2.3471
  392MOL0     H51693   8.231   3.936   1.139  0.9606  0.4291 -0.6046
  392MOL0     H51694   8.383   3.909   1.241  0.9687  3.2299  1.6758
  392MOL0     H51695   8.206   3.777   1.345 -0.4362  0.0701 -1.6224
  392MOL0     H51696   8.089   3.907   1.332 -0.8671 -1.2577  1.8882
  392MOL0     H51697   8.451   3.970   1.482  0.8981  0.7250  2.0855
  392MOL0     H51698   8.531   4.016   1.710  1.3014 -5.3047  0.8271
  392MOL0     H51699   8.463   3.912   1.838  1.8367 -0.0917  0.2807
  392MOL0     H51700   8.308   4.105   1.885 -0.3081 -1.3264 -1.5309
  392MOL0     H51701   8.391   4.203   1.758  0.0534  1.0626  1.9108
  392MOL0     H51702   8.521   4.130   2.016 -0.3695  1.1952 -0.4777
  392MOL0     H51703   8.604   4.195   1.888  0.0907 -1.9264  0.9990
  392MOL0     H51704   8.446   4.381   1.851 -0.5544  0.1731 -0.2177
  392MOL0     H51705   8.529   4.389   2.008  0.5422 -0.6404 -1.6967
  392MOL0     H51706   8.498   4.326   2.225 -0.7361  2.6517  0.9988
  392MOL0     H51707   8.462   4.167   2.416 -2.3716  2.3303  2.2160
  392MOL0     H51708   8.325   4.158   2.830  2.9995 -0.7113  1.9212
  392MOL0     H51709   8.237   4.019   3.029  1.8605  2.6195 -0.5496
  392MOL0     H51710   8.369   3.619   3.023  0.3255  1.3545  2.1804
  392MOL0     H51711   8.206   3.559   2.969 -1.3353  2.2202 -0.5176
  392MOL0     H51712   8.290   3.633   3.245 -0.8435  0.6552  0.0151
  392MOL0     H51713   8.279   3.463   3.188  1.1709  0.1459  2.0308
  392MOL0     H51714   8.038   3.467   3.165  0.4306  1.5130 -2.6375
  392MOL0     H51715   8.041   3.637   3.205 -0.7677 -0.2730  1.5198
  392MOL0     H51716   8.129   3.398   3.383  0.5126 -0.1359  0.8329
  392MOL0     H51717   8.121   3.554   3.450 -2.1262  1.4743 -0.0163
  392MOL0     H51718   7.861   3.459   3.328 -1.6372  1.9608  0.9554
  392MOL0     H51719   7.886   3.591   3.433  0.7482  1.0380  3.4287
  392MOL0     H51720   7.793   3.417   3.586 -1.0471 -1.8858  0.2383
  392MOL0     H51721   7.964   3.439   3.620  0.7100  3.0147 -1.5890
  392MOL0     H51722   7.816   3.225   3.481 -0.3649  1.3630  1.2142
  392MOL0     H51723   7.991   3.216   3.452  1.8941 -2.8268  2.2154
  392MOL0     H51724   7.936   3.071   3.662 -2.4050  0.5069  0.5280
  392MOL0     H51725   7.863   3.215   3.729 -2.1787 -2.8577  0.3597
  392MOL0     H51726   8.260   3.658   2.789 -2.9513 -0.2666  4.0591
  392MOL0     H51727   8.306   3.793   2.593 -0.2327 -0.4700 -0.8632
  392MOL0     H51728   8.061   4.113   2.283 -1.6057  3.6188  2.0793
  392MOL0     H51729   8.118   4.226   2.070  1.0984  0.4213 -0.7242
  392MOL0     H51730   8.575   4.589   0.950  1.2681  0.6641 -0.0419
  392MOL0     H51731   8.400   4.717   0.833 -1.6208 -0.1860 -0.2162
  392MOL0     H51732   8.134   4.701   0.404 -1.9068  0.2181  2.1736
  392MOL0     H51733   7.967   4.831   0.274 -1.9463  2.4415 -0.0154
  392MOL0     H51734   8.128   5.148   0.108 -1.4505 -1.1325 -2.1388
  392MOL0     H51735   8.064   5.292   0.201  3.7419  0.4763 -2.9546
  392MOL0     H51736   7.932   5.148  -0.016 -0.4827 -3.2260  4.6805
  392MOL0     H51737   7.858   5.274   0.091 -0.5422 -1.0950  0.9868
  392MOL0     H51738   7.995   5.455   0.010 -1.9562 -1.4596  0.8196
  392MOL0     H51739   7.918   5.374  -0.119  1.0150  0.8036 -2.2589
  392MOL0     H51740   8.111   5.244  -0.182 -0.4436 -0.9805  1.5305
  392MOL0     H51741   8.138   5.421  -0.197 -1.5002 -1.7178 -2.0663
  392MOL0     H51742   8.443   5.286   0.068  1.3677 -1.7916 -3.5799
  392MOL0     H51743   8.178   5.181   0.358  0.0044 -0.2396 -0.5051
  392MOL0     H51744   8.351   5.058   0.495  0.1482 -2.6052  2.4943
  393MOL0     O51745   8.956   8.872   7.812  0.1041 -0.7917 -0.0418
  393MOL0     C51746   9.038   8.949   7.762  0.7883  0.6986  0.4325
  393MOL0     O51747   9.013   9.022   7.647  0.0231  0.7224 -0.4282
  393MOL0     C51748   8.925   8.971   7.555 -1.4069  1.0336 -0.3070
  393MOL0     C51749   8.826   9.055   7.512  0.3895 -0.5633  0.5035
  393MOL0     C51750   8.736   9.018   7.412  0.2129 -0.1340 -0.4034
  393MOL0     C51751   8.738   8.892   7.358 -0.4173  0.4839  0.8295
  393MOL0     O51752   8.642   8.851   7.261 -0.3682  0.3698 -0.6518
  393MOL0     C51753   8.514   8.927   7.263  0.9783 -0.2005  0.5010
  393MOL0     C51754   8.422   8.870   7.154  0.0182 -0.4290 -0.3301
  393MOL0     C51755   8.286   8.938   7.160  0.2483 -0.2068  0.3846
  393MOL0     C51756   8.183   8.874   7.065 -1.0151 -0.3808 -0.6738
  393MOL0     C51757   8.054   8.963   7.062  0.3421  0.7671 -0.2956
  393MOL0     C51758   7.953   8.889   6.974  0.5338 -0.3841  1.0573
  393MOL0     C51759   7.808   8.944   6.998 -0.4739 -1.2682 -0.0444
  393MOL0     C51760   7.791   9.086   6.939 -0.1219  0.3209  0.7461
  393MOL0     N51761   7.793   9.080   6.785 -0.2692  0.9692  0.3228
  393MOL0     C51762   7.896   9.117   6.714 -0.2596 -0.2415  0.1734
  393MOL0     C51763   7.852   9.115   6.585  1.5458 -0.4815  0.4167
  393MOL0     C51764   7.934   9.150   6.458  0.8180  0.7507  0.1986
  393MOL0     C51765   7.912   9.295   6.405  0.3284  0.4603 -0.4751
  393MOL0     C51766   8.004   9.337   6.282  0.4020  0.0526 -1.3148
  393MOL0     C51767   7.990   9.477   6.239  0.1113 -0.3000 -0.4390
  393MOL0     O51768   8.093   9.541   6.302 -0.1294  0.0198 -0.3532
  393MOL0     C51769   8.120   9.679   6.279  0.2451  0.4877 -0.0480
  393MOL0     C51770   8.224   9.732   6.352  0.3045 -0.6396  0.4908
  393MOL0     C51771   8.252   9.872   6.331  0.4553 -0.8187 -0.3223
  393MOL0     C51772   8.175   9.952   6.245 -0.4244  0.1756 -0.7784
  393MOL0     C51773   8.200  10.094   6.247  0.3677 -0.3297 -0.3794
  393MOL0     O51774   8.183  10.160   6.120  0.0011  0.8027  0.1408
  393MOL0     C51775   8.244  10.275   6.115 -0.9923  0.5149  0.4916
  393MOL0     C51776   8.337  10.298   6.016 -0.7819 -0.5862 -0.4770
  393MOL0     C51777   8.393  10.416   5.982 -0.6189 -0.0199 -0.8691
  393MOL0     C51778   8.345  10.533   6.045 -0.7536  0.1866 -0.3654
  393MOL0     O51779   8.407  10.651   6.034  0.3891 -0.2898 -0.0502
  393MOL0     C51780   8.319  10.764   6.023  0.0589 -0.0261 -0.1256
  393MOL0     C51781   8.404  10.887   6.019 -0.1914  0.0146  0.7236
  393MOL0     C51782   8.315  11.015   5.977  0.5287 -0.0081 -0.3895
  393MOL0     C51783   8.296  11.020   5.819  0.3901 -1.0833  0.0480
  393MOL0     C51784   8.149  11.039   5.787 -0.2042  0.4653  0.3237
  393MOL0     C51785   8.130  11.048   5.632 -0.2995 -0.0803  0.3745
  393MOL0     C51786   7.987  11.059   5.588 -0.2515 -0.4343 -0.2736
  393MOL0     C51787   7.907  11.191   5.618 -0.0803  0.5356  0.1481
  393MOL0    Cl51788   7.960  11.323   5.519  0.1524 -0.0177 -0.2432
  393MOL0     C51789   8.241  10.516   6.146 -0.3195 -0.6089 -1.0216
  393MOL0     C51790   8.195  10.390   6.180  0.3358  0.5368 -0.5319
  393MOL0     O51791   8.247  10.151   6.354  0.2732  0.9945 -0.7697
  393MOL0     C51792   8.062   9.903   6.181  0.4336 -1.1689  0.0007
  393MOL0     C51793   8.045   9.761   6.194  0.2202  0.2790  0.8692
  393MOL0     N51794   7.715   9.083   6.581 -0.7840  0.1348  0.5059
  393MOL0     N51795   7.686   9.080   6.702 -0.3679 -0.7665 -0.4035
  393MOL0     C51796   8.845   8.805   7.392 -0.4400 -0.5997 -0.1162
  393MOL0     C51797   8.937   8.852   7.486 -0.0697  0.6649 -0.1725
  393MOL0     C51798   9.154   8.977   7.848  0.1262  0.2366  0.9834
  393MOL0     C51799   9.164   8.917   7.976  0.9766  0.5142 -0.5966
  393MOL0     C51800   9.282   8.947   8.043  0.1387 -0.1143 -0.1598
  393MOL0     C51801   9.386   9.034   8.004 -1.0308  0.9989  0.6062
  393MOL0     O51802   9.490   9.060   8.097 -0.1640 -0.1835 -0.5979
  393MOL0     C51803   9.600   9.141   8.056 -0.4284 -0.6900 -0.4732
  393MOL0     C51804   9.570   9.295   8.015 -0.1570 -0.1118  0.0547
  393MOL0     C51805   9.589   9.403   8.125 -0.6044 -0.9049 -0.7774
  393MOL0     C51806   9.663   9.531   8.065  0.0141  1.0943  0.4784
  393MOL0     C51807   9.689   9.633   8.166 -0.6976  0.2497  0.3843
  393MOL0     C51808   9.714   9.720   8.249 -0.2758  0.6862 -0.0272
  393MOL0     C51809   9.370   9.083   7.874  0.4033  0.1298  0.3396
  393MOL0     C51810   9.257   9.057   7.798  0.3694 -0.0388  0.2092
  393MOL0     H51811   8.830   9.150   7.565  1.4957  1.2729 -2.5758
  393MOL0     H51812   8.659   9.089   7.384 -4.2553 -3.9570  0.9401
  393MOL0     H51813   8.529   9.032   7.238  0.6854 -0.5223 -1.0893
  393MOL0     H51814   8.457   8.923   7.357  1.2597 -2.8166  0.6437
  393MOL0     H51815   8.404   8.762   7.164 -1.3692 -0.2154 -0.2060
  393MOL0     H51816   8.465   8.884   7.055 -2.8566 -2.8749 -2.1138
  393MOL0     H51817   8.298   9.032   7.104  1.8047 -2.4867 -3.4966
  393MOL0     H51818   8.249   8.955   7.261  0.5319 -1.6002  0.7411
  393MOL0     H51819   8.218   8.868   6.961 -4.0932  1.0647 -1.9213
  393MOL0     H51820   8.170   8.774   7.106  1.5567 -0.3273  0.4768
  393MOL0     H51821   8.080   9.058   7.016 -2.4282  2.4957  1.3990
  393MOL0     H51822   8.019   8.976   7.165 -1.3796 -2.1888 -0.3982
  393MOL0     H51823   7.941   8.793   7.024  0.3712  0.1691  2.1021
  393MOL0     H51824   7.971   8.891   6.866 -1.0541  3.0909  0.7264
  393MOL0     H51825   7.746   8.868   6.951  1.1218 -1.6640 -1.6434
  393MOL0     H51826   7.784   8.939   7.104 -2.0730  5.9261  0.4496
  393MOL0     H51827   7.856   9.159   6.989  1.9285 -2.6061  2.7275
  393MOL0     H51828   7.689   9.122   6.951 -0.4702  1.6617 -4.1903
  393MOL0     H51829   7.991   9.123   6.767 -2.3129 -0.7901  4.3079
  393MOL0     H51830   7.914   9.083   6.374  1.0698 -1.1265  1.5937
  393MOL0     H51831   8.039   9.137   6.485  0.8346 -0.6418 -0.4508
  393MOL0     H51832   7.925   9.368   6.485 -1.1642 -0.9559  1.1611
  393MOL0     H51833   7.804   9.301   6.385 -0.2890  3.1108  2.7513
  393MOL0     H51834   8.109   9.326   6.311 -0.3141 -1.0710  1.0874
  393MOL0     H51835   7.989   9.265   6.201  2.0868 -0.3196 -1.3216
  393MOL0     H51836   7.890   9.514   6.263  0.2663  1.8106 -2.5801
  393MOL0     H51837   7.999   9.465   6.130 -3.7653 -1.2504 -0.8292
  393MOL0     H51838   8.288   9.670   6.414  0.1840  0.1903  1.4671
  393MOL0     H51839   8.342   9.918   6.371  0.0149  4.2765 -4.1352
  393MOL0     H51840   8.371  10.214   5.957 -2.3305 -1.3376 -0.3358
  393MOL0     H51841   8.454  10.439   5.895  0.9058  4.2713  1.0899
  393MOL0     H51842   8.245  10.768   6.103  2.3196 -0.1447  2.0951
  393MOL0     H51843   8.262  10.757   5.930 -0.8316  0.3506  0.3825
  393MOL0     H51844   8.489  10.875   5.952 -0.2736  1.6796  0.2778
  393MOL0     H51845   8.435  10.919   6.118 -1.4032  0.9709  0.8290
  393MOL0     H51846   8.346  11.112   6.015 -2.1160  0.1182  1.7480
  393MOL0     H51847   8.216  11.008   6.023 -0.4717  1.4268 -2.2010
  393MOL0     H51848   8.357  11.103   5.780  1.7400 -0.9233  2.3251
  393MOL0     H51849   8.336  10.931   5.770  1.4387  0.4440 -2.0895
  393MOL0     H51850   8.102  11.119   5.843 -0.5396  0.5607 -0.0877
  393MOL0     H51851   8.093  10.949   5.817  2.4647 -0.8228  1.7767
  393MOL0     H51852   8.180  10.962   5.588  0.8754 -0.2997  2.0341
  393MOL0     H51853   8.179  11.139   5.596  2.6538 -1.4075  0.7495
  393MOL0     H51854   7.988  11.034   5.481 -1.6575  2.1072 -0.9692
  393MOL0     H51855   7.932  10.975   5.630  0.1137  0.3411  1.8966
  393MOL0     H51856   7.922  11.209   5.725  5.5514 -3.7371  0.5029
  393MOL0     H51857   7.801  11.171   5.602 -0.4181  1.7773  0.7006
  393MOL0     H51858   8.191  10.589   6.209 -0.3277 -1.6628  0.2313
  393MOL0     H51859   8.116  10.374   6.252 -0.4519  1.0804 -1.2561
  393MOL0     H51860   8.000   9.973   6.126 -0.9203 -0.0478  2.7290
  393MOL0     H51861   7.968   9.716   6.132  1.0979 -0.6821  0.4482
  393MOL0     H51862   8.856   8.709   7.343  0.7299  0.3958 -1.9142
  393MOL0     H51863   9.021   8.793   7.520 -0.6530 -0.6744 -0.9915
  393MOL0     H51864   9.095   8.852   8.028  1.6150 -0.1731 -0.5907
  393MOL0     H51865   9.277   8.904   8.143  1.5382 -0.5296 -0.2554
  393MOL0     H51866   9.628   9.094   7.962  1.5705 -2.8367  1.0912
  393MOL0     H51867   9.684   9.131   8.125  0.1149 -0.3248 -1.0738
  393MOL0     H51868   9.633   9.313   7.928 -0.8845 -0.4008 -0.5395
  393MOL0     H51869   9.468   9.311   7.982  0.3639 -0.0792 -1.6404
  393MOL0     H51870   9.641   9.370   8.216 -1.4049  4.4687  2.0447
  393MOL0     H51871   9.496   9.436   8.173  1.4228  1.2614  2.0745
  393MOL0     H51872   9.753   9.498   8.012 -0.0241  0.7656  0.6150
  393MOL0     H51873   9.599   9.581   7.991 -1.8774  1.4783  2.2967
  393MOL0     H51874   9.717   9.789   8.331  1.3131 -0.3093  0.8074
  393MOL0     H51875   9.451   9.153   7.858 -0.0241  0.6645  0.4681
  393MOL0     H51876   9.251   9.096   7.697 -3.3888  1.1714  0.7486
  394MOL0     O51877   1.288   7.966  10.673 -0.3175  0.2012  0.1131
  394MOL0     C51878   1.289   7.858  10.611 -0.4559  0.0592  0.0597
  394MOL0     O51879   1.382   7.761  10.630 -0.4141 -0.6361 -0.1136
  394MOL0     C51880   1.481   7.792  10.720  0.0726 -0.8465 -0.5828
  394MOL0     C51881   1.506   7.707  10.827 -0.9822  0.5903  0.0335
  394MOL0     C51882   1.633   7.727  10.891  1.1708  0.1065  0.3398
  394MOL0     C51883   1.731   7.818  10.852 -0.3035 -0.8256 -0.7699
  394MOL0     O51884   1.840   7.835  10.929 -0.6853 -0.0165  0.5206
  394MOL0     C51885   1.949   7.912  10.870 -0.2006 -0.0474 -1.0268
  394MOL0     C51886   2.068   7.875  10.963 -0.2666  0.3586  0.1716
  394MOL0     C51887   2.088   7.961  11.088 -0.0009 -0.2006 -0.3151
  394MOL0     C51888   2.211   7.912  11.178  0.4573 -0.3360 -0.3778
  394MOL0     C51889   2.347   7.948  11.127  0.3437  0.2583 -0.0540
  394MOL0     C51890   2.455   7.871  11.207 -0.5558 -0.6496  0.1805
  394MOL0     C51891   2.586   7.888  11.129 -0.6177 -0.4522  0.4324
  394MOL0     C51892   2.706   7.818  11.196 -0.0594 -0.8856  0.4922
  394MOL0     N51893   2.826   7.831  11.112  1.2332 -0.9170  0.0501
  394MOL0     C51894   2.938   7.887  11.145  0.3308  1.1177 -0.8322
  394MOL0     C51895   3.017   7.862  11.043 -0.5850 -0.5293 -0.9806
  394MOL0     C51896   3.156   7.915  11.036  0.6305 -1.3528  0.5549
  394MOL0     C51897   3.143   8.041  10.942 -0.0006 -0.2203 -0.1031
  394MOL0     C51898   3.271   8.119  10.903 -0.0869  0.5008  0.4309
  394MOL0     C51899   3.352   8.152  11.032  0.1961  0.3144 -0.3442
  394MOL0     O51900   3.259   8.216  11.126  0.7927 -1.1639 -0.2864
  394MOL0     C51901   3.300   8.248  11.253  0.2613  0.0812 -0.7278
  394MOL0     C51902   3.438   8.240  11.294  0.3363 -0.8901 -0.0489
  394MOL0     C51903   3.464   8.234  11.427  0.9325 -0.1339 -0.1328
  394MOL0     C51904   3.362   8.251  11.528  0.0642 -0.3349  0.8467
  394MOL0     C51905   3.380   8.236  11.680  0.8964  0.5181  0.0742
  394MOL0     O51906   3.506   8.238  11.728  0.5101  0.4860 -0.2528
  394MOL0     C51907   3.537   8.227  11.858 -0.4298 -0.6519 -0.0513
  394MOL0     C51908   3.468   8.271  11.963  0.4978  0.7389 -0.6063
  394MOL0     C51909   3.510   8.237  12.099 -0.1111 -0.3104  0.5061
  394MOL0     C51910   3.635   8.183  12.111  1.0009 -0.2132 -0.0277
  394MOL0     O51911   3.686   8.176  12.236  0.5118 -0.0581 -0.2918
  394MOL0     C51912   3.741   8.053  12.272 -0.7094  0.6051 -0.1830
  394MOL0     C51913   3.797   8.075  12.409  0.4538  0.2315 -0.6592
  394MOL0     C51914   3.890   7.959  12.445  0.3565  0.4058 -0.2989
  394MOL0     C51915   3.930   7.991  12.594  0.0577  1.1131  0.7865
  394MOL0     C51916   4.058   7.922  12.630  0.0075  0.4305  0.0953
  394MOL0     C51917   4.123   7.978  12.760  0.0709  0.4744  0.4411
  394MOL0     C51918   4.251   7.887  12.776 -0.0170 -1.1304  0.0485
  394MOL0     C51919   4.318   7.928  12.903 -0.1056  0.4669  0.0195
  394MOL0    Cl51920   4.446   7.810  12.961 -0.3091 -0.1649  0.2760
  394MOL0     C51921   3.717   8.175  12.001  0.4344 -0.1842 -0.4465
  394MOL0     C51922   3.675   8.196  11.876 -0.3385  0.2216  0.1003
  394MOL0     O51923   3.273   8.233  11.741 -0.2445 -0.0086  0.5469
  394MOL0     C51924   3.237   8.282  11.472 -0.5290 -0.0091 -0.4201
  394MOL0     C51925   3.200   8.278  11.338  0.1673  0.1910 -0.1717
  394MOL0     N51926   2.950   7.781  10.957  0.3746 -0.4321  0.2915
  394MOL0     N51927   2.834   7.765  10.991 -0.2932  0.4611 -0.0875
  394MOL0     C51928   1.706   7.897  10.736  0.0921 -0.1482  0.0084
  394MOL0     C51929   1.579   7.893  10.682  0.1329 -0.3953 -0.7036
  394MOL0     C51930   1.165   7.823  10.539 -0.5733  0.5367  0.3480
  394MOL0     C51931   1.163   7.712  10.444 -1.1369 -0.1716  0.1164
  394MOL0     C51932   1.056   7.690  10.364  0.1727  1.0071 -0.4512
  394MOL0     C51933   0.943   7.763  10.365  1.4203 -0.7089 -0.1437
  394MOL0     O51934   0.841   7.755  10.274  0.2467  0.0220 -0.2590
  394MOL0     C51935   0.811   7.635  10.207 -0.0885  0.5516  0.8512
  394MOL0     C51936   0.666   7.654  10.135 -0.0232  0.9620  0.0886
  394MOL0     C51937   0.666   7.583   9.992  0.9112  0.3263 -0.1786
  394MOL0     C51938   0.537   7.609   9.915  0.0906  0.2291 -0.5143
  394MOL0     C51939   0.518   7.523   9.800 -0.5670 -0.0401  0.3900
  394MOL0     C51940   0.500   7.446   9.707 -0.0686 -0.0568 -0.2996
  394MOL0     C51941   0.941   7.867  10.459 -0.2289 -0.5473 -1.1663
  394MOL0     C51942   1.047   7.897  10.549  0.7140  0.6066 -0.3396
  394MOL0     H51943   1.441   7.623  10.851  3.3621 -3.7912 -1.9145
  394MOL0     H51944   1.667   7.664  10.972  0.6178  0.9525  1.2596
  394MOL0     H51945   1.930   8.020  10.876  2.4202  0.3875  2.4262
  394MOL0     H51946   1.967   7.884  10.766  0.4772 -0.3288 -0.8375
  394MOL0     H51947   2.156   7.897  10.901 -1.3475  2.3970 -0.7052
  394MOL0     H51948   2.062   7.767  10.979  1.0033  0.1317 -0.7256
  394MOL0     H51949   1.993   7.951  11.141  0.3250  1.6992  0.7031
  394MOL0     H51950   2.097   8.067  11.064 -1.4724 -0.4404 -2.1046
  394MOL0     H51951   2.203   7.952  11.279  2.7829 -1.4190  0.3031
  394MOL0     H51952   2.200   7.804  11.190  3.1555 -0.4978  1.4388
  394MOL0     H51953   2.358   8.057  11.128  2.5568  0.4679 -5.7271
  394MOL0     H51954   2.354   7.924  11.020  0.5328 -1.2894  0.2916
  394MOL0     H51955   2.434   7.764  11.220  1.1395 -1.7163 -4.2371
  394MOL0     H51956   2.471   7.929  11.299  2.1368  1.6518 -1.5796
  394MOL0     H51957   2.573   7.832  11.036 -0.2577 -1.6706  1.0845
  394MOL0     H51958   2.611   7.993  11.116 -0.4034 -0.0514  3.3948
  394MOL0     H51959   2.683   7.711  11.200  0.9093 -1.0625  2.1424
  394MOL0     H51960   2.719   7.864  11.294  1.1894 -0.5457  0.1893
  394MOL0     H51961   2.966   7.936  11.238  1.9372  0.1843 -0.7816
  394MOL0     H51962   3.224   7.839  10.996  0.7483 -1.4249  0.8801
  394MOL0     H51963   3.184   7.932  11.141 -1.1617 -2.2248  1.2284
  394MOL0     H51964   3.077   8.115  10.988  1.1342  0.8691 -0.1824
  394MOL0     H51965   3.101   8.009  10.846  0.6762  1.2160 -0.9115
  394MOL0     H51966   3.324   8.066  10.823 -2.0076  3.5542 -3.1717
  394MOL0     H51967   3.248   8.217  10.862  0.6380 -0.1872 -1.7521
  394MOL0     H51968   3.421   8.231  11.002 -1.5282  1.3318 -1.8542
  394MOL0     H51969   3.403   8.065  11.074  0.3091 -0.0573 -1.2474
  394MOL0     H51970   3.513   8.207  11.224  0.9952 -2.6382  1.3965
  394MOL0     H51971   3.566   8.221  11.464  0.9260 -1.5458 -0.5521
  394MOL0     H51972   3.368   8.310  11.949  0.3843  1.1832  1.1765
  394MOL0     H51973   3.450   8.259  12.187  0.4938 -1.9764  1.3908
  394MOL0     H51974   3.814   8.022  12.196 -0.3015  0.5944  0.2112
  394MOL0     H51975   3.665   7.975  12.282  0.7039 -0.6591  1.1133
  394MOL0     H51976   3.715   8.093  12.479  0.2094  3.1150 -1.5699
  394MOL0     H51977   3.850   8.170  12.405 -1.6746  1.4323 -2.1797
  394MOL0     H51978   3.978   7.941  12.384 -1.7242 -1.8054 -2.9096
  394MOL0     H51979   3.832   7.866  12.446 -0.3804  0.8561 -0.4351
  394MOL0     H51980   3.941   8.099  12.606  0.2966  0.9130  2.5570
  394MOL0     H51981   3.854   7.954  12.663 -0.2909  1.2251  0.4622
  394MOL0     H51982   4.139   7.940  12.559 -0.6200  0.1428 -0.7082
  394MOL0     H51983   4.055   7.815  12.651  0.5061  0.8462  2.5023
  394MOL0     H51984   4.056   7.958  12.845 -0.1373  0.5726  0.2990
  394MOL0     H51985   4.167   8.077  12.752  3.6279 -0.9955  0.0523
  394MOL0     H51986   4.222   7.783  12.790  1.7875 -2.0696 -2.5721
  394MOL0     H51987   4.323   7.898  12.694 -2.9938 -2.8375 -3.0795
  394MOL0     H51988   4.240   7.958  12.973  1.1808 -0.7195  2.0555
  394MOL0     H51989   4.381   8.016  12.886  2.9888 -0.5978  4.3499
  394MOL0     H51990   3.822   8.154  12.020  0.1834 -0.0985  1.1691
  394MOL0     H51991   3.739   8.193  11.789 -1.3383  1.4097 -0.7125
  394MOL0     H51992   3.161   8.306  11.546  0.6012  2.5633  0.0033
  394MOL0     H51993   3.095   8.280  11.309 -1.2301 -5.2198  2.9591
  394MOL0     H51994   1.774   7.967  10.688  0.6094  2.5569  4.2074
  394MOL0     H51995   1.571   7.951  10.591 -1.8201  1.8988  0.8047
  394MOL0     H51996   1.259   7.664  10.428  1.3003  2.3963  4.8534
  394MOL0     H51997   1.080   7.623  10.282  1.0880  1.8626 -0.9084
  394MOL0     H51998   0.812   7.547  10.271 -2.8983  0.7093  1.2565
  394MOL0     H51999   0.877   7.617  10.122 -3.1206  0.2135 -1.6482
  394MOL0     H52000   0.579   7.620  10.191  0.9876 -0.9436  0.5752
  394MOL0     H52001   0.654   7.762  10.118  1.4131  0.8062 -2.5610
  394MOL0     H52002   0.677   7.478  10.018 -0.4923 -0.1222 -1.2652
  394MOL0     H52003   0.751   7.625   9.938  0.5735  0.9599 -0.2309
  394MOL0     H52004   0.453   7.600   9.984  0.1473  2.4030 -0.0998
  394MOL0     H52005   0.530   7.711   9.876 -3.6278  0.6069  0.8078
  394MOL0     H52006   0.494   7.369   9.632 -0.4508  1.8675 -2.3604
  394MOL0     H52007   0.848   7.922  10.469  0.5016  0.6588 -0.7008
  394MOL0     H52008   1.035   7.975  10.623 -2.8558 -0.3189  0.2547
  395MOL0     O52009  11.207   7.036   4.702 -0.3152  0.5275 -0.0382
  395MOL0     C52010  11.113   7.095   4.665 -0.1884 -0.2222  1.4528
  395MOL0     O52011  11.033   7.171   4.744  0.4373  0.9441  0.3027
  395MOL0     C52012  11.075   7.217   4.868  0.2729 -1.0410 -0.4982
  395MOL0     C52013  11.197   7.196   4.943  0.1805 -0.0293  0.2036
  395MOL0     C52014  11.218   7.236   5.076  0.0397 -0.0878 -0.9761
  395MOL0     C52015  11.127   7.315   5.141  0.1688  0.3064  0.4262
  395MOL0     O52016  11.154   7.350   5.272  0.5638  0.4616  0.6155
  395MOL0     C52017  11.043   7.404   5.342  0.5492  1.3441 -0.3546
  395MOL0     C52018  11.088   7.444   5.486  0.5658 -0.2100  0.5382
  395MOL0     C52019  10.972   7.509   5.568  0.2530 -0.3566 -0.1352
  395MOL0     C52020  11.018   7.533   5.717 -0.0770  0.0592  1.0667
  395MOL0     C52021  10.894   7.573   5.808 -0.1246  0.7707 -0.6051
  395MOL0     C52022  10.943   7.568   5.953 -0.5603 -0.2158  0.2698
  395MOL0     C52023  10.828   7.567   6.062 -0.4415  0.0786  0.4699
  395MOL0     C52024  10.760   7.700   6.063 -0.4211 -0.1300  0.6199
  395MOL0     N52025  10.640   7.718   6.156 -1.4608 -0.2424 -0.5088
  395MOL0     C52026  10.639   7.740   6.290 -0.7594 -0.7172 -0.1348
  395MOL0     C52027  10.524   7.688   6.332 -0.2573  0.2684  0.0136
  395MOL0     C52028  10.464   7.686   6.473 -0.1780 -0.7132 -0.2104
  395MOL0     C52029  10.433   7.835   6.525  0.1239 -0.5818 -0.3621
  395MOL0     C52030  10.322   7.897   6.446  0.3462  0.3943  0.2771
  395MOL0     C52031  10.300   8.040   6.499  0.5095  1.1881 -0.2315
  395MOL0     O52032  10.273   8.062   6.639 -0.2355 -0.3607 -0.5631
  395MOL0     C52033  10.303   8.188   6.695  0.2256 -0.2125  0.5570
  395MOL0     C52034  10.315   8.306   6.618 -0.1896  0.5803 -0.6261
  395MOL0     C52035  10.338   8.430   6.674 -0.3852 -0.1378 -0.5467
  395MOL0     C52036  10.377   8.433   6.815  0.1984  0.9864 -0.1873
  395MOL0     C52037  10.388   8.561   6.883 -0.4888 -0.0291 -1.0724
  395MOL0     O52038  10.389   8.555   7.023 -0.3010 -1.4360  0.4517
  395MOL0     C52039  10.389   8.683   7.082 -0.5818 -0.4824 -0.3498
  395MOL0     C52040  10.478   8.721   7.184  0.7955 -0.0925  0.3808
  395MOL0     C52041  10.472   8.845   7.244  1.3677 -1.5876  0.6454
  395MOL0     C52042  10.371   8.938   7.206  0.9260  0.1565  0.4911
  395MOL0     O52043  10.362   9.051   7.275 -0.1086 -0.2049  0.4423
  395MOL0     C52044  10.234   9.119   7.294  0.0565 -0.4317  0.9430
  395MOL0     C52045  10.147   9.055   7.399 -0.4649 -0.2549  0.6322
  395MOL0     C52046  10.018   9.126   7.412  0.0616  0.1000  0.7142
  395MOL0     C52047   9.909   9.078   7.308  0.0637  0.7339  0.0928
  395MOL0     C52048   9.807   9.200   7.282  0.4669 -0.5955  1.3889
  395MOL0     C52049   9.713   9.162   7.162 -0.1693 -0.9258  0.9035
  395MOL0     C52050   9.615   9.283   7.146  1.3743  0.7751 -0.6955
  395MOL0     C52051   9.507   9.262   7.039  0.6987 -0.2543  0.5455
  395MOL0    Cl52052   9.373   9.162   7.085 -0.0140  0.8041  0.6013
  395MOL0     C52053  10.287   8.910   7.093  1.0271  0.3697  0.1628
  395MOL0     C52054  10.301   8.785   7.042  0.7942 -0.1588  0.3982
  395MOL0     O52055  10.416   8.661   6.817  0.6827  0.3151 -0.5244
  395MOL0     C52056  10.370   8.309   6.889  0.2539  0.7269  0.0254
  395MOL0     C52057  10.331   8.186   6.830 -0.8956 -0.0613  0.5657
  395MOL0     N52058  10.454   7.643   6.218 -0.1150  0.6261 -0.0504
  395MOL0     N52059  10.531   7.658   6.110  0.6884 -0.9905  0.5491
  395MOL0     C52060  11.004   7.339   5.075 -0.7380  0.2084  0.6797
  395MOL0     C52061  10.985   7.303   4.935 -0.5564 -0.8190 -0.6355
  395MOL0     C52062  11.074   7.083   4.522  0.8426 -0.0679  0.4162
  395MOL0     C52063  11.172   7.052   4.428  0.1776  0.5701  0.0935
  395MOL0     C52064  11.137   7.039   4.287  0.8787 -0.4493 -0.1972
  395MOL0     C52065  11.003   7.083   4.249  0.3062 -0.1112  0.8664
  395MOL0     O52066  10.957   7.079   4.116 -0.5553  0.4316  0.6973
  395MOL0     C52067  11.043   7.018   4.013 -0.0660 -1.3088  0.5618
  395MOL0     C52068  11.153   7.114   3.974  0.2893 -0.4153 -0.5253
  395MOL0     C52069  11.277   7.056   3.904 -0.0684 -0.1533  0.5324
  395MOL0     C52070  11.398   7.157   3.882  0.0449  0.5263 -0.1886
  395MOL0     C52071  11.492   7.098   3.777  0.1496 -0.2551 -0.3259
  395MOL0     C52072  11.574   7.053   3.702 -0.4332 -0.4500  0.1828
  395MOL0     C52073  10.910   7.113   4.347  0.1797 -0.0180 -0.3615
  395MOL0     C52074  10.944   7.104   4.484  0.1289 -0.4007 -0.0469
  395MOL0     H52075  11.281   7.141   4.900 -0.2987 -2.7499  2.4284
  395MOL0     H52076  11.315   7.210   5.117  0.5791  2.5078 -0.4436
  395MOL0     H52077  10.967   7.326   5.337  4.0259 -2.2303 -2.9326
  395MOL0     H52078  11.000   7.495   5.299  0.3543  2.4018  1.9417
  395MOL0     H52079  11.171   7.515   5.488  0.5174 -0.1602  1.8756
  395MOL0     H52080  11.129   7.356   5.536 -0.3173 -0.1632  1.3722
  395MOL0     H52081  10.879   7.451   5.566  0.6117 -1.2363  3.1743
  395MOL0     H52082  10.938   7.603   5.523 -2.2064 -0.8698  0.5061
  395MOL0     H52083  11.051   7.440   5.764 -0.0095  0.0769  1.0533
  395MOL0     H52084  11.098   7.606   5.732  0.5214 -0.0666 -1.1489
  395MOL0     H52085  10.817   7.496   5.801  2.4415 -2.5915  3.3217
  395MOL0     H52086  10.864   7.667   5.761 -2.2415 -0.4524 -1.8376
  395MOL0     H52087  11.013   7.652   5.966 -0.8739 -0.1407  1.6713
  395MOL0     H52088  11.006   7.481   5.970 -0.5394  0.1086  2.0705
  395MOL0     H52089  10.755   7.490   6.033 -0.0398 -0.8027  1.7000
  395MOL0     H52090  10.859   7.545   6.165  1.4847 -0.0669 -0.1199
  395MOL0     H52091  10.714   7.700   5.964 -1.5198 -1.7427  1.0860
  395MOL0     H52092  10.840   7.774   6.074  1.2980 -1.6874 -0.9124
  395MOL0     H52093  10.714   7.786   6.353 -0.7435  1.0993 -1.4127
  395MOL0     H52094  10.539   7.626   6.525  0.5251 -0.4143 -0.8646
  395MOL0     H52095  10.373   7.626   6.462  1.1005 -2.6254 -1.0838
  395MOL0     H52096  10.517   7.903   6.511 -1.7147  2.0554  0.5459
  395MOL0     H52097  10.438   7.837   6.634  2.6714 -4.1372 -0.2297
  395MOL0     H52098  10.338   7.902   6.338 -4.0768  1.7115 -0.5196
  395MOL0     H52099  10.230   7.838   6.458 -0.2215  1.4711  1.4809
  395MOL0     H52100  10.209   8.081   6.455 -3.0806 -4.0013  1.3256
  395MOL0     H52101  10.391   8.089   6.465  1.9436 -1.3894 -0.3845
  395MOL0     H52102  10.294   8.305   6.512 -0.1788  4.1591 -0.8036
  395MOL0     H52103  10.347   8.524   6.621  0.6298  0.1045  0.0209
  395MOL0     H52104  10.556   8.662   7.229  0.3303  0.0408  1.3785
  395MOL0     H52105  10.528   8.880   7.330  1.2943 -0.1807  0.1577
  395MOL0     H52106  10.181   9.131   7.199 -0.0635 -2.4084  0.7148
  395MOL0     H52107  10.270   9.221   7.310  1.7644 -0.4105 -2.1478
  395MOL0     H52108  10.216   9.046   7.484  2.2484 -2.3568 -1.6095
  395MOL0     H52109  10.123   8.952   7.370 -1.6806  0.2193 -0.0999
  395MOL0     H52110  10.045   9.232   7.408  0.4365  0.0491  1.5773
  395MOL0     H52111   9.977   9.098   7.509  1.7263 -1.7189  0.9450
  395MOL0     H52112   9.960   9.050   7.215 -0.4807 -0.0490  0.0236
  395MOL0     H52113   9.863   8.987   7.348 -1.0382  0.4510 -1.6997
  395MOL0     H52114   9.860   9.284   7.235 -1.6219 -0.8314 -1.7478
  395MOL0     H52115   9.752   9.236   7.370 -1.2128 -0.0386  0.1902
  395MOL0     H52116   9.652   9.074   7.185 -0.5800 -0.2938  2.3476
  395MOL0     H52117   9.770   9.148   7.070 -0.4108  2.0858  0.2177
  395MOL0     H52118   9.556   9.279   7.238  2.0487 -2.9408 -0.2353
  395MOL0     H52119   9.674   9.374   7.136  2.8013 -0.0548 -0.0533
  395MOL0     H52120   9.564   9.250   6.946  0.1071  1.8854 -0.1676
  395MOL0     H52121   9.464   9.360   7.014  0.1131 -0.3491  1.1455
  395MOL0     H52122  10.211   8.980   7.059  0.9787  0.6679  0.8659
  395MOL0     H52123  10.222   8.769   6.970  1.5131 -0.5883 -0.3066
  395MOL0     H52124  10.401   8.310   6.993 -0.7033 -1.4318  0.3978
  395MOL0     H52125  10.318   8.091   6.879 -1.4609 -1.0121 -1.3111
  395MOL0     H52126  10.919   7.400   5.101 -2.4824  0.1425 -3.8954
  395MOL0     H52127  10.900   7.337   4.877  2.0699  2.6595 -2.7860
  395MOL0     H52128  11.273   7.038   4.464  0.9314  3.7048 -0.5027
  395MOL0     H52129  11.207   7.010   4.209 -0.2874 -1.4576 -0.8951
  395MOL0     H52130  10.990   6.979   3.925  1.4015 -1.0572 -0.4627
  395MOL0     H52131  11.078   6.928   4.064 -3.5296 -3.2423 -0.1591
  395MOL0     H52132  11.099   7.182   3.908  2.1066 -0.6239 -2.3419
  395MOL0     H52133  11.181   7.180   4.057 -2.2814  2.7446 -1.9262
  395MOL0     H52134  11.238   7.011   3.813 -0.7283  0.0417  0.7148
  395MOL0     H52135  11.305   6.963   3.954 -0.2059 -0.3581  0.2314
  395MOL0     H52136  11.356   7.254   3.857 -0.7012  0.0207 -0.9187
  395MOL0     H52137  11.456   7.174   3.974  0.5174  0.0052 -0.3802
  395MOL0     H52138  11.663   7.023   3.650 -0.6459  1.8133 -1.6228
  395MOL0     H52139  10.814   7.135   4.301 -0.2569  1.4607  1.1435
  395MOL0     H52140  10.868   7.123   4.559  2.8251  2.3290  2.2386
  396MOL0     O52141   0.251   2.065   9.837  0.1524  0.7995 -0.2653
  396MOL0     C52142   0.225   2.146   9.750 -0.4734  0.7495 -0.0860
  396MOL0     O52143   0.109   2.157   9.694  0.2742 -0.9230  0.6033
  396MOL0     C52144  -0.003   2.087   9.736 -0.6384 -0.0326 -1.8007
  396MOL0     C52145  -0.092   2.053   9.643 -0.5018 -1.0782 -0.3541
  396MOL0     C52146  -0.201   1.966   9.670  0.0513  0.0639 -0.1361
  396MOL0     C52147  -0.226   1.937   9.805  0.3014 -0.4746  0.2823
  396MOL0     O52148  -0.335   1.868   9.852  0.5566 -0.5482  0.1038
  396MOL0     C52149  -0.437   1.831   9.751  0.1188 -0.8482  0.0347
  396MOL0     C52150  -0.541   1.746   9.814  1.6379  0.4152  0.5213
  396MOL0     C52151  -0.483   1.610   9.858  0.4619 -0.4691 -0.4674
  396MOL0     C52152  -0.588   1.499   9.871  0.6160  0.1211  0.4321
  396MOL0     C52153  -0.512   1.358   9.871 -0.8501  0.4463 -0.2631
  396MOL0     C52154  -0.431   1.328  10.000 -0.2698  1.2086  0.3204
  396MOL0     C52155  -0.529   1.299  10.116  0.4645  0.2187 -1.0235
  396MOL0     C52156  -0.457   1.246  10.241 -0.0423  0.4847 -0.1705
  396MOL0     N52157  -0.551   1.271  10.357 -0.7660  0.0311  0.3103
  396MOL0     C52158  -0.652   1.192  10.398  0.1230  0.2234  0.3182
  396MOL0     C52159  -0.692   1.240  10.512 -0.3849  0.6408  0.5227
  396MOL0     C52160  -0.808   1.160  10.586  0.4741 -0.4312  0.5317
  396MOL0     C52161  -0.834   1.204  10.728  0.8278  0.2462  0.2517
  396MOL0     C52162  -0.961   1.123  10.780 -0.3767 -0.4037 -0.0404
  396MOL0     C52163  -0.982   1.137  10.937 -0.6380  0.2904 -0.0713
  396MOL0     O52164  -1.074   1.030  10.972  0.4391 -0.3445 -0.9215
  396MOL0     C52165  -1.203   1.059  11.023 -0.2954  0.0409 -0.8930
  396MOL0     C52166  -1.246   1.169  11.111  0.3650  0.4319  0.5784
  396MOL0     C52167  -1.379   1.183  11.144 -0.5736 -0.2014  0.0272
  396MOL0     C52168  -1.488   1.090  11.111 -1.0506 -0.3445  0.9498
  396MOL0     C52169  -1.626   1.111  11.139 -1.1114  0.1456 -0.1090
  396MOL0     O52170  -1.716   1.018  11.116 -0.0516 -0.4351  0.4378
  396MOL0     C52171  -1.849   1.017  11.154 -0.6874 -0.1928  1.6257
  396MOL0     C52172  -1.917   0.906  11.101  0.1593  0.2291  0.5377
  396MOL0     C52173  -2.050   0.898  11.123  0.7714  0.3635 -0.0976
  396MOL0     C52174  -2.119   0.981  11.213 -0.2484 -0.2460 -0.7847
  396MOL0     O52175  -2.252   0.967  11.236 -0.1591 -0.4763  0.6016
  396MOL0     C52176  -2.319   0.842  11.232 -0.1860 -0.0247  0.0866
  396MOL0     C52177  -2.435   0.842  11.328 -0.1841 -0.3285  0.9557
  396MOL0     C52178  -2.514   0.708  11.310  0.1571 -0.2438 -0.0967
  396MOL0     C52179  -2.618   0.695  11.427  0.3349  0.6058  0.1254
  396MOL0     C52180  -2.712   0.576  11.411 -0.2903  0.7090  0.0800
  396MOL0     C52181  -2.814   0.559  11.529  0.9072 -0.2077 -0.0480
  396MOL0     C52182  -2.754   0.515  11.663  0.9302  0.2330 -0.5670
  396MOL0     C52183  -2.658   0.395  11.652  0.3445  1.4404  0.4398
  396MOL0    Cl52184  -2.743   0.271  11.557  0.2356 -0.0400  0.0002
  396MOL0     C52185  -2.049   1.084  11.276  0.2813  1.0386 -0.4507
  396MOL0     C52186  -1.918   1.101  11.232 -0.4922  0.2341 -1.2848
  396MOL0     O52187  -1.640   1.206  11.212 -0.1269  0.1880 -0.3974
  396MOL0     C52188  -1.440   0.984  11.021 -0.4232  0.3781 -1.4214
  396MOL0     C52189  -1.301   0.970  10.992  0.9111 -0.0606  0.0171
  396MOL0     N52190  -0.632   1.363  10.531  0.0494  0.2314 -0.2493
  396MOL0     N52191  -0.549   1.381  10.436  0.1243 -0.0830  0.6427
  396MOL0     C52192  -0.146   1.989   9.901 -0.8421 -0.3562 -0.4227
  396MOL0     C52193  -0.033   2.057   9.868 -0.5894  0.8224  0.1448
  396MOL0     C52194   0.347   2.223   9.715  0.2233  0.0621  0.8489
  396MOL0     C52195   0.479   2.197   9.761 -0.5403 -0.0345  0.4133
  396MOL0     C52196   0.588   2.270   9.710 -0.7243 -0.0725 -0.0495
  396MOL0     C52197   0.572   2.357   9.602  0.6498 -0.2189 -0.3080
  396MOL0     O52198   0.682   2.411   9.559  0.5623 -0.0688  0.0369
  396MOL0     C52199   0.679   2.517   9.465 -0.0054 -0.5962 -0.0261
  396MOL0     C52200   0.802   2.593   9.443 -0.0384  0.4728  0.0266
  396MOL0     C52201   0.787   2.738   9.393 -0.1464  0.0221  0.2401
  396MOL0     C52202   0.715   2.758   9.257 -0.2425  0.3884  0.0041
  396MOL0     C52203   0.781   2.871   9.177  0.9609  0.6738  0.1254
  396MOL0     C52204   0.815   2.959   9.094  0.9859 -0.4045  0.5536
  396MOL0     C52205   0.441   2.391   9.565  0.4965  0.8319  0.6008
  396MOL0     C52206   0.329   2.319   9.608  0.3800  0.0539 -0.3552
  396MOL0     H52207  -0.071   2.072   9.538 -1.4859  0.1135 -0.3545
  396MOL0     H52208  -0.253   1.936   9.579 -1.6770  0.1641  0.7981
  396MOL0     H52209  -0.386   1.776   9.671  1.1042  1.8829 -1.3356
  396MOL0     H52210  -0.484   1.913   9.696 -2.2726 -0.0511  2.9680
  396MOL0     H52211  -0.614   1.723   9.736  1.3825 -2.1468  1.4263
  396MOL0     H52212  -0.597   1.801   9.890  1.6343  1.2035 -0.0297
  396MOL0     H52213  -0.434   1.619   9.956  1.5483 -0.0742 -1.0336
  396MOL0     H52214  -0.406   1.580   9.787  0.1979 -2.4101  0.0195
  396MOL0     H52215  -0.651   1.518   9.958  2.7128  2.1392  1.6064
  396MOL0     H52216  -0.643   1.512   9.778  0.3035  3.0287  0.9250
  396MOL0     H52217  -0.448   1.357   9.782 -3.5764 -2.0221 -2.3929
  396MOL0     H52218  -0.583   1.278   9.851  1.3820 -1.4761 -1.0345
  396MOL0     H52219  -0.363   1.409  10.029  0.9620  0.0105  0.8628
  396MOL0     H52220  -0.373   1.236   9.991  2.4782  2.9386 -0.7377
  396MOL0     H52221  -0.584   1.389  10.146 -0.7400 -1.0041  0.6567
  396MOL0     H52222  -0.593   1.217  10.083  0.0717 -0.3204  0.9493
  396MOL0     H52223  -0.355   1.281  10.253  0.8049 -2.2024  1.0646
  396MOL0     H52224  -0.436   1.139  10.233  0.1626  0.5786 -1.0018
  396MOL0     H52225  -0.671   1.092  10.360  3.4761 -1.4746  2.6437
  396MOL0     H52226  -0.786   1.053  10.579  1.2758 -0.3714  1.8222
  396MOL0     H52227  -0.901   1.173  10.529  2.4049  0.9930 -2.5843
  396MOL0     H52228  -0.858   1.310  10.739 -1.7527 -0.3962  1.7814
  396MOL0     H52229  -0.752   1.176  10.795  1.4820  0.2313 -0.5379
  396MOL0     H52230  -1.047   1.161  10.725 -1.8543 -1.6466  1.3223
  396MOL0     H52231  -0.955   1.016  10.758  1.8218 -0.7171  1.6559
  396MOL0     H52232  -1.021   1.238  10.952  0.9621  0.7710  1.1024
  396MOL0     H52233  -0.897   1.116  11.004 -0.8653 -0.8476 -0.1144
  396MOL0     H52234  -1.171   1.244  11.135  1.0095 -0.4611  1.4707
  396MOL0     H52235  -1.396   1.269  11.209 -1.0861 -0.7301  0.6059
  396MOL0     H52236  -1.871   0.833  11.035 -0.0644  1.8423 -1.4705
  396MOL0     H52237  -2.098   0.820  11.066  2.3183  0.9013 -2.2351
  396MOL0     H52238  -2.250   0.758  11.246 -3.0814 -2.5842 -0.1729
  396MOL0     H52239  -2.361   0.823  11.133 -0.8797 -0.3370  0.4379
  396MOL0     H52240  -2.501   0.928  11.338  1.3049  0.8101  1.2965
  396MOL0     H52241  -2.383   0.833  11.424  2.7622 -0.1233 -0.5086
  396MOL0     H52242  -2.438   0.629  11.308  1.2279  0.7528 -1.9703
  396MOL0     H52243  -2.566   0.696  11.215 -2.0826 -3.7676  1.3613
  396MOL0     H52244  -2.554   0.687  11.515  1.8508 -0.7300 -1.0456
  396MOL0     H52245  -2.683   0.783  11.435 -1.7660 -1.0198  2.1599
  396MOL0     H52246  -2.655   0.483  11.401  0.3125  1.1665 -0.8544
  396MOL0     H52247  -2.768   0.593  11.319  0.1560 -0.7566 -0.4903
  396MOL0     H52248  -2.897   0.494  11.501 -0.2042  1.2833 -0.3099
  396MOL0     H52249  -2.856   0.659  11.545  3.0289  0.6055  0.8236
  396MOL0     H52250  -2.693   0.591  11.714  1.3111 -0.4818  0.0588
  396MOL0     H52251  -2.839   0.487  11.725  1.8012  1.4707  1.3260
  396MOL0     H52252  -2.626   0.350  11.747 -1.8701 -1.7852 -0.1813
  396MOL0     H52253  -2.569   0.428  11.598  1.3211 -0.4805  0.7665
  396MOL0     H52254  -2.101   1.150  11.345 -0.8716 -0.4786  0.1949
  396MOL0     H52255  -1.865   1.190  11.263 -1.1858  0.8823 -1.9033
  396MOL0     H52256  -1.501   0.911  10.968 -1.4898  0.1623  0.0318
  396MOL0     H52257  -1.282   0.883  10.930  3.4877  2.2283 -2.6666
  396MOL0     H52258  -0.168   1.972  10.006 -0.6553 -0.2011 -0.3577
  396MOL0     H52259   0.037   2.096   9.942 -1.5653  2.8964  0.0545
  396MOL0     H52260   0.485   2.107   9.821 -2.3984  1.3293  2.8180
  396MOL0     H52261   0.686   2.230   9.736  0.7013  2.2934 -1.4270
  396MOL0     H52262   0.608   2.590   9.504  0.5225  1.9725 -3.4477
  396MOL0     H52263   0.636   2.482   9.370 -2.6040 -1.2827  1.3086
  396MOL0     H52264   0.865   2.606   9.531  2.4485  1.6762 -1.7945
  396MOL0     H52265   0.859   2.532   9.373  0.7764  0.3467  0.7896
  396MOL0     H52266   0.885   2.784   9.382 -0.4175  0.6653  0.4808
  396MOL0     H52267   0.728   2.794   9.467 -2.0477 -2.7081  0.9732
  396MOL0     H52268   0.721   2.667   9.197 -1.7283  0.3701 -0.1638
  396MOL0     H52269   0.608   2.776   9.268 -0.2171  1.4697 -1.2349
  396MOL0     H52270   0.862   3.025   9.023 -1.0409  0.6650  0.1426
  396MOL0     H52271   0.424   2.461   9.484  0.1688 -0.5513 -0.5800
  396MOL0     H52272   0.235   2.345   9.560 -0.8275 -0.6165  1.5482
  397MOL0     O52273   6.758   7.961  11.295  0.2875  0.4706  0.4048
  397MOL0     C52274   6.742   7.966  11.416  0.2508 -0.6952  0.1332
  397MOL0     O52275   6.623   8.000  11.483 -0.6934  0.1190 -0.5747
  397MOL0     C52276   6.510   8.004  11.402 -0.0126 -0.1507 -0.2302
  397MOL0     C52277   6.431   7.889  11.408 -0.1692 -0.9729 -0.1926
  397MOL0     C52278   6.310   7.899  11.356  0.2903  0.1489  0.1603
  397MOL0     C52279   6.277   7.999  11.267 -0.3272  0.5651  0.0701
  397MOL0     O52280   6.145   7.991  11.229  0.0686  0.3765  0.2683
  397MOL0     C52281   6.072   8.111  11.257  0.0074  0.0939  0.9140
  397MOL0     C52282   5.930   8.098  11.202  0.5877  0.4808 -0.8371
  397MOL0     C52283   5.874   8.244  11.205  0.3388 -0.3675  0.4457
  397MOL0     C52284   5.718   8.246  11.185  0.8179  0.1924  0.3913
  397MOL0     C52285   5.661   8.390  11.202 -0.8663  0.1336 -0.1606
  397MOL0     C52286   5.503   8.394  11.236 -0.6480 -0.6998  0.0957
  397MOL0     C52287   5.452   8.539  11.288  0.0567 -0.2242 -0.5253
  397MOL0     C52288   5.297   8.544  11.281  1.1902  0.1273  0.7016
  397MOL0     N52289   5.223   8.434  11.352 -0.0579 -0.6306  0.6046
  397MOL0     C52290   5.194   8.308  11.307  0.8080 -0.7841  0.0462
  397MOL0     C52291   5.113   8.251  11.394 -0.3811 -0.5184  0.0185
  397MOL0     C52292   5.076   8.111  11.405  0.4474  0.5717  0.1523
  397MOL0     C52293   5.210   8.030  11.418  0.1985 -0.0839 -0.2875
  397MOL0     C52294   5.178   7.880  11.461  0.5960 -0.0410 -0.0142
  397MOL0     C52295   5.286   7.804  11.526 -0.4058 -0.4485 -1.3314
  397MOL0     O52296   5.381   7.752  11.435  0.1757  0.3001 -0.4057
  397MOL0     C52297   5.514   7.781  11.448 -0.5474 -0.3113 -0.4887
  397MOL0     C52298   5.598   7.674  11.433  0.1643 -0.1997 -0.2368
  397MOL0     C52299   5.729   7.685  11.471  0.2525  0.4121  0.2103
  397MOL0     C52300   5.788   7.810  11.510 -0.9625  0.2579 -0.8498
  397MOL0     C52301   5.922   7.805  11.573  1.0276  0.3673  0.4734
  397MOL0     O52302   5.973   7.928  11.601  0.6427 -0.7331  0.3758
  397MOL0     C52303   6.092   7.957  11.655  0.0234 -0.6239  0.2072
  397MOL0     C52304   6.121   8.095  11.647 -0.0869  0.0060  0.0407
  397MOL0     C52305   6.245   8.141  11.692  0.5491 -0.1097  0.1346
  397MOL0     C52306   6.342   8.052  11.737  0.3188 -0.2777  0.5141
  397MOL0     O52307   6.470   8.098  11.771  0.7497 -0.8925 -0.7319
  397MOL0     C52308   6.530   8.038  11.891 -0.0974 -0.8168  0.9815
  397MOL0     C52309   6.654   8.123  11.940  0.0225 -0.3231 -1.0272
  397MOL0     C52310   6.669   8.119  12.093 -0.1318 -0.3857 -0.0178
  397MOL0     C52311   6.809   8.187  12.136  0.0345 -0.1903 -0.3327
  397MOL0     C52312   6.916   8.091  12.131 -0.0955 -0.1629 -0.3428
  397MOL0     C52313   7.045   8.156  12.196  0.4968  0.4947 -0.6440
  397MOL0     C52314   7.033   8.169  12.341 -0.1535 -0.4481  0.6444
  397MOL0     C52315   7.019   8.037  12.418 -0.2707  0.1976 -0.2944
  397MOL0    Cl52316   7.039   8.084  12.592 -0.5094  0.4545 -0.5135
  397MOL0     C52317   6.311   7.914  11.747 -0.4953  0.1133 -0.3225
  397MOL0     C52318   6.190   7.865  11.706  0.8562  0.3099 -0.9145
  397MOL0     O52319   5.974   7.698  11.588 -0.9727  0.4397 -0.1415
  397MOL0     C52320   5.702   7.921  11.505 -0.6290  0.7122  0.5206
  397MOL0     C52321   5.564   7.909  11.479  0.3687  1.0158 -0.1676
  397MOL0     N52322   5.093   8.353  11.496 -0.1492 -0.0399  0.5693
  397MOL0     N52323   5.158   8.456  11.466 -0.1889 -0.0397 -0.2465
  397MOL0     C52324   6.353   8.113  11.257  0.2329  0.7594  1.3075
  397MOL0     C52325   6.473   8.121  11.328 -0.5530  0.6444  0.1124
  397MOL0     C52326   6.862   7.955  11.501 -0.6641 -0.6192 -0.3276
  397MOL0     C52327   6.990   7.998  11.449 -0.3576  0.6509 -0.3846
  397MOL0     C52328   7.097   7.992  11.544  0.8023  0.9289  0.2299
  397MOL0     C52329   7.082   7.962  11.681 -0.2115  0.1392  0.2837
  397MOL0     O52330   7.186   7.978  11.771  0.1016 -0.1177  0.0928
  397MOL0     C52331   7.327   7.985  11.720  0.1631 -0.9759  0.0467
  397MOL0     C52332   7.421   8.000  11.837 -0.3948  0.9075 -0.6849
  397MOL0     C52333   7.566   7.970  11.794 -0.3902 -0.5093 -0.5761
  397MOL0     C52334   7.670   8.017  11.902 -0.5997  0.2281  0.0106
  397MOL0     C52335   7.809   8.000  11.856  0.2080 -0.0525  0.5368
  397MOL0     C52336   7.930   8.011  11.841  0.4981  0.0757 -0.4169
  397MOL0     C52337   6.952   7.922  11.729 -1.1544 -0.1341  1.0257
  397MOL0     C52338   6.847   7.922  11.633 -0.3947  0.3406 -1.0206
  397MOL0     H52339   6.463   7.800  11.463  1.6464 -0.5791 -0.5548
  397MOL0     H52340   6.244   7.815  11.373  1.3740 -0.8629 -0.4879
  397MOL0     H52341   6.123   8.190  11.201 -0.1274  0.8522  1.8316
  397MOL0     H52342   6.072   8.128  11.365  1.2210 -0.3573  1.0074
  397MOL0     H52343   5.873   8.027  11.262  2.1781 -0.2178 -0.0956
  397MOL0     H52344   5.917   8.063  11.099 -1.5336  0.3661 -0.5886
  397MOL0     H52345   5.922   8.300  11.125 -3.3255  3.2301  0.5013
  397MOL0     H52346   5.897   8.298  11.298 -1.9098  2.5645 -0.5448
  397MOL0     H52347   5.700   8.224  11.079  1.4686  1.0075  0.0906
  397MOL0     H52348   5.668   8.180  11.256 -0.0042  1.4929  1.0513
  397MOL0     H52349   5.691   8.447  11.113  0.7293 -1.2734 -0.5760
  397MOL0     H52350   5.711   8.438  11.286 -1.2446 -0.0352  0.1625
  397MOL0     H52351   5.469   8.329  11.317 -0.2073  0.3501  1.1526
  397MOL0     H52352   5.457   8.358  11.143 -2.2583 -0.1526  0.6401
  397MOL0     H52353   5.476   8.564  11.392 -0.6049  0.0033 -0.4243
  397MOL0     H52354   5.500   8.619  11.232  0.5267 -0.4314 -0.4290
  397MOL0     H52355   5.248   8.544  11.183 -0.1602 -0.7236  1.3523
  397MOL0     H52356   5.278   8.637  11.335 -0.0180 -2.0777  4.4564
  397MOL0     H52357   5.246   8.274  11.218 -2.7764  2.6112 -3.7841
  397MOL0     H52358   5.019   8.097  11.312  1.4609  3.6312 -1.0768
  397MOL0     H52359   5.011   8.093  11.491  3.8967  0.7991  2.9794
  397MOL0     H52360   5.265   8.077  11.499 -0.3262 -0.5014  0.3217
  397MOL0     H52361   5.272   8.031  11.328 -2.0934  0.4051 -1.9576
  397MOL0     H52362   5.094   7.894  11.529  0.4316  2.9804 -0.7021
  397MOL0     H52363   5.146   7.813  11.380  2.6534 -2.7333  1.2208
  397MOL0     H52364   5.239   7.725  11.586 -0.8276  1.1659  0.5540
  397MOL0     H52365   5.342   7.869  11.594  2.1306 -3.7192 -0.0212
  397MOL0     H52366   5.553   7.587  11.387 -1.0766  1.6846 -2.8525
  397MOL0     H52367   5.793   7.597  11.475 -2.3105 -1.5415  2.9258
  397MOL0     H52368   6.060   8.172  11.601  1.7872  1.1751 -0.5804
  397MOL0     H52369   6.272   8.245  11.680 -2.2168  0.4021 -3.0959
  397MOL0     H52370   6.577   7.941  11.868 -1.6138 -1.8502  2.0619
  397MOL0     H52371   6.458   8.031  11.973 -0.0776  2.8301  1.4482
  397MOL0     H52372   6.628   8.227  11.918  1.5016  0.1846 -0.4568
  397MOL0     H52373   6.738   8.094  11.876 -0.6628 -0.9183 -1.6803
  397MOL0     H52374   6.672   8.015  12.129  1.4263 -0.7381 -1.0714
  397MOL0     H52375   6.582   8.162  12.145 -1.0555 -0.4198 -1.4949
  397MOL0     H52376   6.828   8.261  12.057 -0.3368 -0.3862 -0.6134
  397MOL0     H52377   6.800   8.235  12.233  2.6185 -0.5115  0.1340
  397MOL0     H52378   6.931   8.094  12.023 -2.3709  1.5075 -0.6751
  397MOL0     H52379   6.884   7.991  12.161 -1.6639  0.9370  1.9756
  397MOL0     H52380   7.065   8.256  12.156 -0.1199  0.7499 -0.3168
  397MOL0     H52381   7.136   8.101  12.169 -0.9940 -1.6682 -1.5127
  397MOL0     H52382   7.124   8.213  12.384 -1.8365  2.7778  1.2349
  397MOL0     H52383   6.954   8.242  12.362 -0.3704 -0.8472  1.2334
  397MOL0     H52384   7.096   7.966  12.388 -0.9937 -0.2494 -1.1335
  397MOL0     H52385   6.924   7.984  12.407  0.1215 -0.7211  0.6227
  397MOL0     H52386   6.386   7.845  11.785  2.8478  4.5995  2.0651
  397MOL0     H52387   6.179   7.757  11.702  1.2163  0.2842 -3.6499
  397MOL0     H52388   5.746   8.019  11.518  1.2098 -0.2409  1.9011
  397MOL0     H52389   5.499   7.995  11.481 -1.9362 -0.6301  2.0504
  397MOL0     H52390   6.330   8.193  11.186 -2.6993 -2.5568 -1.9256
  397MOL0     H52391   6.526   8.215  11.343 -2.7713  1.6997  2.1572
  397MOL0     H52392   6.995   8.023  11.344  2.1011 -0.9984 -0.7482
  397MOL0     H52393   7.193   8.014  11.498  0.2602 -1.2121 -2.1759
  397MOL0     H52394   7.342   8.070  11.652 -0.9814  0.1430  1.1466
  397MOL0     H52395   7.348   7.894  11.663  3.8115 -1.1240  1.3539
  397MOL0     H52396   7.410   8.103  11.873  2.3897  0.3130  2.3702
  397MOL0     H52397   7.399   7.927  11.916  1.2287 -0.2262 -1.2398
  397MOL0     H52398   7.589   8.031  11.707 -2.1113  0.3893 -0.4515
  397MOL0     H52399   7.581   7.863  11.776  0.4710  0.2409 -5.6320
  397MOL0     H52400   7.662   8.124  11.926 -0.6194  0.4153 -0.8233
  397MOL0     H52401   7.644   7.962  11.994 -2.7843  2.0058  0.5578
  397MOL0     H52402   8.036   8.012  11.823  0.2164  0.5013 -2.3026
  397MOL0     H52403   6.946   7.895  11.834  1.4954 -0.0345  1.2724
  397MOL0     H52404   6.756   7.891  11.684 -0.1715 -0.6185 -1.1977
  398MOL0     O52405   0.893   0.112   2.330 -0.0344 -0.0029  0.3026
  398MOL0     C52406   0.889   0.126   2.210 -0.8651  0.6868  0.1942
  398MOL0     O52407   0.778   0.119   2.133 -0.1125 -0.6949  0.1771
  398MOL0     C52408   0.657   0.124   2.195  1.5353  0.0047 -0.1385
  398MOL0     C52409   0.569   0.236   2.198  0.1567 -0.3017 -1.3531
  398MOL0     C52410   0.438   0.220   2.242 -0.4258 -0.3726 -0.0449
  398MOL0     C52411   0.407   0.097   2.306 -0.6014  0.4234  0.7015
  398MOL0     O52412   0.285   0.062   2.364  0.1573 -0.2647  0.8093
  398MOL0     C52413   0.177   0.149   2.326  0.2615 -1.0276 -0.2750
  398MOL0     C52414   0.047   0.109   2.384  1.0965  0.6826 -0.7525
  398MOL0     C52415   0.014   0.134   2.534  0.0974  0.6688 -0.4717
  398MOL0     C52416  -0.101   0.034   2.585 -0.5212 -0.3275  1.0222
  398MOL0     C52417  -0.150   0.077   2.720 -0.0742  1.1472  0.2792
  398MOL0     C52418  -0.288   0.017   2.766  0.3950  0.7782  0.3485
  398MOL0     C52419  -0.287  -0.132   2.794 -0.2504  0.5043 -0.0133
  398MOL0     C52420  -0.416  -0.179   2.867 -0.1284  0.7976  0.3478
  398MOL0     N52421  -0.529  -0.199   2.767 -0.1083 -0.1287 -0.4733
  398MOL0     C52422  -0.659  -0.157   2.782  0.5921  0.1613  1.1236
  398MOL0     C52423  -0.716  -0.187   2.661  1.5908  0.3804 -0.0069
  398MOL0     C52424  -0.860  -0.166   2.626 -0.6380  0.6445  0.1848
  398MOL0     C52425  -0.899  -0.030   2.584  0.1379 -0.9296  0.6697
  398MOL0     C52426  -0.841   0.014   2.449  0.5189  0.4253  0.6533
  398MOL0     C52427  -0.890  -0.083   2.334 -0.0269 -0.2281  0.4263
  398MOL0     O52428  -1.039  -0.088   2.325 -0.5319  0.1582 -0.2937
  398MOL0     C52429  -1.088   0.034   2.279  0.0163  0.4797  0.0901
  398MOL0     C52430  -1.172   0.101   2.358 -0.2114  0.7009  0.0264
  398MOL0     C52431  -1.233   0.214   2.318 -0.1145  0.3997 -0.3682
  398MOL0     C52432  -1.231   0.258   2.187 -0.0270 -0.0291 -0.3837
  398MOL0     C52433  -1.300   0.382   2.142  0.5640  0.7425 -0.0135
  398MOL0     O52434  -1.305   0.390   2.008 -0.2558 -0.7013 -0.3810
  398MOL0     C52435  -1.368   0.503   1.965  0.1615  0.2144 -0.4382
  398MOL0     C52436  -1.282   0.604   1.928 -0.6552  0.5478  0.8372
  398MOL0     C52437  -1.340   0.713   1.857 -0.8157 -0.0196  0.1461
  398MOL0     C52438  -1.473   0.716   1.818  0.1642  0.8178 -0.2808
  398MOL0     O52439  -1.524   0.820   1.755 -0.1303 -0.0894 -0.1290
  398MOL0     C52440  -1.663   0.858   1.773  0.4116  0.5945  0.3106
  398MOL0     C52441  -1.691   0.987   1.701  0.4042  0.1973  0.4231
  398MOL0     C52442  -1.639   1.111   1.777  0.2345 -0.2291 -0.0986
  398MOL0     C52443  -1.489   1.143   1.755  0.9753  0.1988  0.5549
  398MOL0     C52444  -1.429   1.262   1.831  0.0364 -0.3083  0.3383
  398MOL0     C52445  -1.286   1.282   1.779 -0.0091 -0.1141 -0.0674
  398MOL0     C52446  -1.215   1.401   1.855 -0.1984 -0.7987 -0.3695
  398MOL0     C52447  -1.278   1.532   1.813 -0.1339 -0.1604 -0.3620
  398MOL0    Cl52448  -1.264   1.559   1.636  0.1959  0.2000 -0.0682
  398MOL0     C52449  -1.550   0.599   1.848 -0.2605  0.4303  0.3151
  398MOL0     C52450  -1.497   0.495   1.930  0.6848 -0.3532  1.3655
  398MOL0     O52451  -1.352   0.466   2.229 -0.3807  0.2968 -0.2524
  398MOL0     C52452  -1.146   0.180   2.102  0.0083 -0.0553 -0.0776
  398MOL0     C52453  -1.064   0.077   2.150 -0.2438 -1.1794  1.0572
  398MOL0     N52454  -0.621  -0.247   2.585 -0.5883  0.0636  0.3477
  398MOL0     N52455  -0.512  -0.263   2.648 -0.4492  0.4731  0.0151
  398MOL0     C52456   0.494  -0.011   2.303 -0.4706  0.5807  0.4745
  398MOL0     C52457   0.613   0.002   2.235 -0.2018 -0.0114 -0.4403
  398MOL0     C52458   1.022   0.166   2.150 -0.9783  0.3051  0.4225
  398MOL0     C52459   1.140   0.148   2.227  0.2277  0.1740  0.6998
  398MOL0     C52460   1.259   0.192   2.166 -0.6937 -0.2067  0.2466
  398MOL0     C52461   1.263   0.256   2.042 -1.2172 -0.1074  0.8170
  398MOL0     O52462   1.388   0.282   1.983  0.1506 -0.1582 -0.2502
  398MOL0     C52463   1.425   0.411   2.019  0.3236 -0.8109  0.7102
  398MOL0     C52464   1.552   0.451   1.941 -0.1550 -0.2420 -0.3222
  398MOL0     C52465   1.551   0.412   1.790 -0.1249  0.2022 -0.5932
  398MOL0     C52466   1.590   0.260   1.759 -1.2587 -0.3004  0.4560
  398MOL0     C52467   1.739   0.239   1.769  0.1056  1.0987  0.3805
  398MOL0     C52468   1.855   0.209   1.787  0.0962  0.4826  0.2430
  398MOL0     C52469   1.148   0.266   1.971 -0.6491  0.3657  1.0915
  398MOL0     C52470   1.023   0.232   2.027 -1.1361 -0.1490 -0.4886
  398MOL0     H52471   0.610   0.329   2.163  1.4664  0.4499  1.7935
  398MOL0     H52472   0.365   0.300   2.242 -2.2421 -1.9286 -0.6580
  398MOL0     H52473   0.173   0.158   2.217 -0.2333  3.9383 -0.0874
  398MOL0     H52474   0.202   0.249   2.362 -1.3896 -1.0748  1.1315
  398MOL0     H52475   0.022   0.005   2.361 -1.3040  0.9808  0.2485
  398MOL0     H52476  -0.034   0.160   2.332  1.6592 -0.1976 -2.5804
  398MOL0     H52477  -0.011   0.240   2.536  0.2213  0.7416 -1.7723
  398MOL0     H52478   0.107   0.118   2.590 -0.1810 -0.1766 -0.2388
  398MOL0     H52479  -0.185   0.040   2.516  0.1844 -1.2618  0.0401
  398MOL0     H52480  -0.052  -0.064   2.580  3.9825  1.7305 -0.2123
  398MOL0     H52481  -0.172   0.184   2.729 -1.1354  1.0004 -0.4155
  398MOL0     H52482  -0.075   0.061   2.797  1.8205  2.7019 -1.1326
  398MOL0     H52483  -0.362   0.025   2.685  3.5685 -0.5666 -2.9475
  398MOL0     H52484  -0.330   0.075   2.848 -3.0254  1.7076 -1.8330
  398MOL0     H52485  -0.244  -0.191   2.712  0.8546  1.0588  0.1478
  398MOL0     H52486  -0.199  -0.135   2.859  1.9294 -2.2066 -2.7887
  398MOL0     H52487  -0.441  -0.129   2.961  2.6133  1.8447  0.6394
  398MOL0     H52488  -0.397  -0.283   2.893 -1.1124 -0.7863 -4.3472
  398MOL0     H52489  -0.719  -0.109   2.858  0.3858  2.7497 -0.5603
  398MOL0     H52490  -0.923  -0.204   2.707  0.1685  2.2155  1.6054
  398MOL0     H52491  -0.881  -0.243   2.552  1.9376 -0.9067  0.9330
  398MOL0     H52492  -0.872   0.038   2.665 -4.8324  1.1803  0.9334
  398MOL0     H52493  -1.008  -0.024   2.579  0.2429  0.1808 -1.3134
  398MOL0     H52494  -0.879   0.114   2.428  1.7287  0.5331 -1.2001
  398MOL0     H52495  -0.732   0.017   2.450  0.5116  2.5391 -0.0357
  398MOL0     H52496  -0.852  -0.183   2.356 -0.5005 -0.4405  0.2865
  398MOL0     H52497  -0.844  -0.042   2.243  0.0578  2.9084  1.7309
  398MOL0     H52498  -1.184   0.052   2.455 -0.0949 -1.6859 -1.0813
  398MOL0     H52499  -1.302   0.260   2.388 -1.2739 -3.8916  1.5927
  398MOL0     H52500  -1.179   0.602   1.962  0.0807 -0.7014 -1.2547
  398MOL0     H52501  -1.275   0.794   1.825  0.2687 -0.8427  0.2251
  398MOL0     H52502  -1.678   0.867   1.881  0.3800  0.0827  0.3549
  398MOL0     H52503  -1.738   0.786   1.739  0.9190  1.2056 -2.3149
  398MOL0     H52504  -1.800   0.998   1.690  0.4033 -0.8835 -0.8919
  398MOL0     H52505  -1.662   0.990   1.596 -2.1170 -0.8643 -0.3871
  398MOL0     H52506  -1.646   1.088   1.883 -0.2362  0.9675  0.1470
  398MOL0     H52507  -1.694   1.200   1.746  1.2850  0.2036 -0.7794
  398MOL0     H52508  -1.432   1.056   1.790  2.4384  1.4592  1.4401
  398MOL0     H52509  -1.466   1.156   1.649  1.8915  0.9542  0.8344
  398MOL0     H52510  -1.422   1.231   1.936 -1.1469 -1.0613  0.2167
  398MOL0     H52511  -1.495   1.348   1.816  0.2163 -0.4964 -1.8335
  398MOL0     H52512  -1.294   1.304   1.672  0.0321  0.8183  0.1088
  398MOL0     H52513  -1.230   1.189   1.788  2.4721  1.3577  0.7065
  398MOL0     H52514  -1.213   1.380   1.962 -0.8775 -2.3925 -0.6362
  398MOL0     H52515  -1.113   1.401   1.816  0.6559 -1.1140  1.7715
  398MOL0     H52516  -1.221   1.615   1.856 -0.8315 -0.1503  0.5752
  398MOL0     H52517  -1.382   1.545   1.844 -0.4760 -1.3850 -0.9409
  398MOL0     H52518  -1.657   0.601   1.826 -0.1853 -0.9145 -0.2588
  398MOL0     H52519  -1.560   0.407   1.941 -1.8642  0.5970 -3.2157
  398MOL0     H52520  -1.134   0.205   1.997  1.2521 -2.8531 -0.6925
  398MOL0     H52521  -0.991   0.028   2.086  1.5278  1.5489  0.8424
  398MOL0     H52522   0.472  -0.100   2.360  3.3528 -1.8044 -1.3932
  398MOL0     H52523   0.677  -0.084   2.217 -1.8482 -1.1667 -1.0197
  398MOL0     H52524   1.125   0.095   2.320 -1.5687 -2.4161 -0.9188
  398MOL0     H52525   1.350   0.190   2.225 -1.5420  0.2745  1.6392
  398MOL0     H52526   1.445   0.411   2.127 -2.6019  2.1699  1.4274
  398MOL0     H52527   1.334   0.472   2.007  1.7717  1.8695  2.2567
  398MOL0     H52528   1.556   0.560   1.937  0.1325 -0.0080  3.0788
  398MOL0     H52529   1.636   0.407   1.997  0.6167  1.4730 -0.0767
  398MOL0     H52530   1.619   0.476   1.733 -0.0540 -0.3464 -1.1327
  398MOL0     H52531   1.447   0.422   1.757 -0.9897 -3.8077  0.3651
  398MOL0     H52532   1.546   0.189   1.830 -2.9691  1.3851  1.1680
  398MOL0     H52533   1.551   0.257   1.657  0.0515  1.9648 -0.1753
  398MOL0     H52534   1.957   0.188   1.815  0.2307 -1.2004 -1.3292
  398MOL0     H52535   1.141   0.295   1.867  1.1933  0.4312  0.9643
  398MOL0     H52536   0.927   0.250   1.979 -1.8633  0.6242  1.1941
  399MOL0     O52537   2.075   4.767   9.129  0.0017  0.0262 -0.5081
  399MOL0     C52538   2.151   4.814   9.039 -0.5395  0.5816  0.3018
  399MOL0     O52539   2.134   4.800   8.912 -0.0408  0.6242 -0.6813
  399MOL0     C52540   2.028   4.731   8.866  0.0437  0.7039  0.3456
  399MOL0     C52541   1.892   4.733   8.905  0.3751 -0.4386  0.5300
  399MOL0     C52542   1.797   4.650   8.851  0.3450 -0.2295 -0.1697
  399MOL0     C52543   1.838   4.563   8.739 -1.3608  0.3769  0.3615
  399MOL0     O52544   1.766   4.465   8.673 -0.0380  0.2684  0.6320
  399MOL0     C52545   1.631   4.450   8.705 -0.6663 -0.7003 -1.2022
  399MOL0     C52546   1.553   4.374   8.598 -0.2178  0.0927 -0.6876
  399MOL0     C52547   1.425   4.326   8.655  0.1876  0.0060 -0.8054
  399MOL0     C52548   1.323   4.305   8.539  0.3800  1.2069  0.1225
  399MOL0     C52549   1.222   4.184   8.579 -1.1698  0.7469 -1.3519
  399MOL0     C52550   1.075   4.220   8.598 -0.3911 -1.2168 -0.2392
  399MOL0     C52551   0.988   4.128   8.692  0.7101 -0.8564 -0.2988
  399MOL0     C52552   0.851   4.186   8.695 -0.3829  0.4662 -0.5899
  399MOL0     N52553   0.749   4.084   8.741  0.5519 -0.5232  0.0239
  399MOL0     C52554   0.669   4.002   8.668  0.4854  0.1048  0.2687
  399MOL0     C52555   0.600   3.930   8.766 -0.3192  0.1656 -0.0247
  399MOL0     C52556   0.507   3.818   8.729  0.9155 -0.5576  0.1806
  399MOL0     C52557   0.371   3.878   8.683  0.2164  0.2827  0.3846
  399MOL0     C52558   0.294   3.776   8.604  0.3676  0.3074  0.3496
  399MOL0     C52559   0.163   3.844   8.555  0.0593 -0.4459 -0.8154
  399MOL0     O52560   0.072   3.855   8.670 -0.0971 -0.8337  0.6242
  399MOL0     C52561  -0.042   3.937   8.647  1.0524 -0.2571 -0.5013
  399MOL0     C52562  -0.081   3.993   8.524 -0.7025  0.5439 -0.2017
  399MOL0     C52563  -0.193   4.071   8.510 -0.4285 -0.6040 -0.2333
  399MOL0     C52564  -0.282   4.082   8.616 -0.4725  0.1705 -0.1426
  399MOL0     C52565  -0.413   4.143   8.589 -0.1667  0.3464  0.1481
  399MOL0     O52566  -0.440   4.191   8.465  0.3241  0.6042 -0.0936
  399MOL0     C52567  -0.576   4.203   8.448 -0.2753  0.7277 -0.1892
  399MOL0     C52568  -0.632   4.326   8.473  0.3134 -0.5777 -0.3348
  399MOL0     C52569  -0.776   4.333   8.473  0.1764 -1.3022  0.3795
  399MOL0     C52570  -0.853   4.225   8.414  0.0008 -0.5851  0.5526
  399MOL0     O52571  -0.985   4.227   8.383  0.4023  0.0737 -0.1588
  399MOL0     C52572  -1.063   4.342   8.438  0.8343  0.5034  0.0450
  399MOL0     C52573  -1.039   4.465   8.346 -0.7686 -0.0832  0.0565
  399MOL0     C52574  -1.065   4.595   8.422  0.8922 -0.4836 -0.6826
  399MOL0     C52575  -1.001   4.717   8.350  0.1757  0.0356 -0.4957
  399MOL0     C52576  -1.074   4.852   8.370 -0.0648  0.6839 -0.2613
  399MOL0     C52577  -1.006   4.975   8.296  0.9708  0.1168 -0.1336
  399MOL0     C52578  -1.079   5.104   8.282  0.5863  0.6448  0.6443
  399MOL0     C52579  -1.000   5.219   8.217 -0.8751  0.5282 -1.0019
  399MOL0    Cl52580  -0.860   5.250   8.320  0.3319 -0.5332  0.1437
  399MOL0     C52581  -0.790   4.106   8.386 -0.5308 -0.9025  0.1738
  399MOL0     C52582  -0.655   4.102   8.394 -0.2902  0.7648 -0.5790
  399MOL0     O52583  -0.497   4.140   8.683  0.7353  0.4902 -0.1822
  399MOL0     C52584  -0.255   4.013   8.738  0.7053 -1.2490  0.8678
  399MOL0     C52585  -0.141   3.942   8.750  0.0750 -0.8938 -0.0198
  399MOL0     N52586   0.618   3.993   8.880 -0.3467 -0.1199 -0.0612
  399MOL0     N52587   0.710   4.088   8.871 -0.6956 -0.0100  0.3676
  399MOL0     C52588   1.969   4.580   8.686 -0.0106  0.7834  0.0855
  399MOL0     C52589   2.067   4.654   8.756 -0.1428 -0.0435 -1.2373
  399MOL0     C52590   2.262   4.894   9.084 -0.2205 -0.2654  0.6865
  399MOL0     C52591   2.303   4.909   9.220  0.1217  0.2677 -0.2670
  399MOL0     C52592   2.416   4.978   9.267 -0.6304 -0.2344  0.7848
  399MOL0     C52593   2.494   5.053   9.172 -0.4178  0.0407  0.4223
  399MOL0     O52594   2.591   5.142   9.197  0.9053 -0.1368 -0.0712
  399MOL0     C52595   2.712   5.114   9.127 -0.9075  0.9699 -0.4190
  399MOL0     C52596   2.815   5.070   9.231 -0.5885 -0.9578  0.3759
  399MOL0     C52597   2.772   4.934   9.281  0.6450  0.2606  0.0024
  399MOL0     C52598   2.886   4.866   9.352 -0.3430  0.0580 -0.8330
  399MOL0     C52599   3.005   4.850   9.271  0.1251 -0.7231  0.1604
  399MOL0     C52600   3.097   4.831   9.190  0.6271  0.6893 -0.9115
  399MOL0     C52601   2.456   5.040   9.042  0.8775 -0.1818  0.5063
  399MOL0     C52602   2.347   4.963   8.999 -0.6113  0.0919  0.7685
  399MOL0     H52603   1.874   4.791   8.994 -1.1766 -2.6337  1.7390
  399MOL0     H52604   1.693   4.668   8.880  0.2284  3.3530 -2.3003
  399MOL0     H52605   1.592   4.552   8.700  0.2872 -0.3614 -2.2004
  399MOL0     H52606   1.622   4.402   8.803 -2.2913 -0.3551 -1.1474
  399MOL0     H52607   1.615   4.291   8.562  1.0200  1.1773 -1.1272
  399MOL0     H52608   1.521   4.434   8.513 -2.9931  0.5774  0.5904
  399MOL0     H52609   1.382   4.396   8.727  2.4208  1.4691 -0.7863
  399MOL0     H52610   1.448   4.234   8.710 -0.3850  1.4049  1.9274
  399MOL0     H52611   1.268   4.397   8.515  0.7566  1.1650 -0.9780
  399MOL0     H52612   1.377   4.284   8.446  3.6194  3.6869  1.2726
  399MOL0     H52613   1.264   4.145   8.672 -0.7961  2.6219 -0.6965
  399MOL0     H52614   1.226   4.109   8.499 -4.2204 -1.3062  0.2496
  399MOL0     H52615   1.030   4.241   8.500  0.9010  0.5457 -0.5046
  399MOL0     H52616   1.080   4.318   8.646  1.6444 -2.2535  1.8216
  399MOL0     H52617   0.988   4.035   8.634 -0.6993 -1.2494  0.2733
  399MOL0     H52618   1.028   4.104   8.791  0.2696 -1.2508 -0.2136
  399MOL0     H52619   0.827   4.208   8.591  0.2519 -1.4209 -1.1632
  399MOL0     H52620   0.841   4.274   8.760 -0.5846 -1.6308  2.4049
  399MOL0     H52621   0.652   3.996   8.561 -0.5574  0.3935  0.3987
  399MOL0     H52622   0.485   3.754   8.815  2.8198  0.8539  1.8322
  399MOL0     H52623   0.548   3.755   8.650  0.9442  2.1590 -2.1597
  399MOL0     H52624   0.383   3.969   8.625 -0.0917  0.3015  0.3502
  399MOL0     H52625   0.316   3.916   8.769 -0.0570  1.0145 -0.1101
  399MOL0     H52626   0.354   3.737   8.522  1.1204  0.2365  0.9268
  399MOL0     H52627   0.273   3.697   8.676 -0.5858  0.4469  0.2433
  399MOL0     H52628   0.119   3.772   8.486  2.4709 -4.1165  1.1758
  399MOL0     H52629   0.180   3.939   8.504 -0.5526  0.4976  0.6571
  399MOL0     H52630  -0.031   3.980   8.429  1.6952 -1.8053  1.2136
  399MOL0     H52631  -0.213   4.100   8.407  1.9482  0.7775 -0.3767
  399MOL0     H52632  -0.569   4.410   8.500 -0.6272  0.6321 -1.7852
  399MOL0     H52633  -0.813   4.430   8.508 -1.2403 -2.1102  1.2311
  399MOL0     H52634  -1.031   4.344   8.542 -2.5600 -2.0405  1.3382
  399MOL0     H52635  -1.171   4.328   8.444  0.9811 -2.1724 -1.5942
  399MOL0     H52636  -1.092   4.452   8.251  0.7351  0.7711 -0.9269
  399MOL0     H52637  -0.936   4.469   8.311 -0.9975  1.0581 -0.5157
  399MOL0     H52638  -1.016   4.601   8.520 -1.0241  0.1371  0.2904
  399MOL0     H52639  -1.172   4.613   8.433  0.6363 -1.3417 -1.6378
  399MOL0     H52640  -0.896   4.710   8.380 -0.3456 -2.0069  1.1268
  399MOL0     H52641  -1.010   4.695   8.243  0.8547  1.8973 -0.9648
  399MOL0     H52642  -1.093   4.876   8.475  1.9281  0.9134  0.0976
  399MOL0     H52643  -1.173   4.851   8.324 -0.1527  0.5085 -0.0736
  399MOL0     H52644  -0.977   4.940   8.197 -1.0585  0.2111 -0.8100
  399MOL0     H52645  -0.921   4.999   8.360  0.9561 -0.5231  0.1395
  399MOL0     H52646  -1.180   5.092   8.240  0.2285 -0.8250  1.8444
  399MOL0     H52647  -1.105   5.128   8.385  2.1532 -0.7762  1.4072
  399MOL0     H52648  -1.064   5.307   8.204 -0.9049  0.5081 -0.9884
  399MOL0     H52649  -0.971   5.192   8.116  0.0440  2.8451 -1.4112
  399MOL0     H52650  -0.848   4.028   8.337 -1.8364 -0.3398  0.7788
  399MOL0     H52651  -0.598   4.013   8.371 -1.2561 -0.2215  0.7477
  399MOL0     H52652  -0.327   4.024   8.819 -1.2188 -0.5528 -0.8376
  399MOL0     H52653  -0.114   3.890   8.842 -1.3336 -1.9510 -0.1627
  399MOL0     H52654   2.005   4.526   8.600 -1.8571 -0.5520  0.0808
  399MOL0     H52655   2.169   4.675   8.726 -0.5098  0.9354 -1.8656
  399MOL0     H52656   2.254   4.857   9.302 -0.0768  3.8164  2.0462
  399MOL0     H52657   2.437   4.981   9.373 -3.7879  0.3344  1.4970
  399MOL0     H52658   2.747   5.212   9.093  2.2996  1.0876  2.6181
  399MOL0     H52659   2.703   5.046   9.042  0.0999 -1.0074  0.9852
  399MOL0     H52660   2.913   5.074   9.182 -0.4535 -1.6369  0.5799
  399MOL0     H52661   2.812   5.141   9.314  0.5115 -1.2054  0.6448
  399MOL0     H52662   2.741   4.876   9.194 -3.3748  3.8231 -1.3162
  399MOL0     H52663   2.689   4.943   9.352 -1.2407  0.7007 -2.1426
  399MOL0     H52664   2.913   4.937   9.431  1.9446 -4.3872  2.9271
  399MOL0     H52665   2.855   4.777   9.408 -0.1401  0.6622  0.2695
  399MOL0     H52666   3.186   4.810   9.133  1.3704 -1.6508  0.9339
  399MOL0     H52667   2.516   5.090   8.967  1.3436 -0.9008  0.3888
  399MOL0     H52668   2.334   4.956   8.891 -3.9196 -2.7059  1.2115
  400MOL0     O52669   0.589   9.465   3.704  0.2146  0.1490 -0.5172
  400MOL0     C52670   0.520   9.500   3.802 -0.4331  0.1532 -0.6903
  400MOL0     O52671   0.564   9.557   3.918 -0.3658  0.7871 -0.7299
  400MOL0     C52672   0.704   9.567   3.927 -0.1910 -0.1591 -0.3753
  400MOL0     C52673   0.783   9.455   3.954  0.5428 -0.7038  0.3522
  400MOL0     C52674   0.917   9.467   3.999  0.3490 -0.1404  0.1624
  400MOL0     C52675   0.972   9.593   4.000 -0.0766  0.0125 -0.5551
  400MOL0     O52676   1.101   9.621   4.051  0.5875 -0.1394  0.6457
  400MOL0     C52677   1.139   9.588   4.185 -0.4109  0.2994 -0.5144
  400MOL0     C52678   1.231   9.693   4.239  0.2240 -0.8771  0.6616
  400MOL0     C52679   1.376   9.676   4.233 -0.0206  0.4788 -0.1081
  400MOL0     C52680   1.439   9.624   4.367  0.1993  0.5745  0.3730
  400MOL0     C52681   1.595   9.602   4.340 -0.0483 -0.0385 -0.0834
  400MOL0     C52682   1.675   9.646   4.480 -0.9101  0.7930 -0.2997
  400MOL0     C52683   1.824   9.604   4.480  0.6272 -0.8776 -0.0332
  400MOL0     C52684   1.924   9.697   4.403  0.9347 -0.9934  0.8321
  400MOL0     N52685   2.063   9.657   4.415  0.4758  0.2531  0.2366
  400MOL0     C52686   2.165   9.714   4.343  0.0858 -0.1308 -0.0697
  400MOL0     C52687   2.273   9.636   4.373  0.7466 -0.2597 -0.1495
  400MOL0     C52688   2.412   9.653   4.323 -0.5125  0.0822  0.0497
  400MOL0     C52689   2.502   9.533   4.347  0.1789  0.7161 -0.2223
  400MOL0     C52690   2.625   9.557   4.270 -0.0845  0.7053  0.1693
  400MOL0     C52691   2.728   9.451   4.290  0.9537 -0.0039 -0.1853
  400MOL0     O52692   2.767   9.453   4.433 -0.3562  0.3512 -0.5879
  400MOL0     C52693   2.877   9.517   4.498  0.3517 -0.1414  0.0605
  400MOL0     C52694   2.931   9.453   4.611 -0.1809 -0.0558 -0.3078
  400MOL0     C52695   3.036   9.503   4.686 -0.2923 -0.3896 -0.4870
  400MOL0     C52696   3.103   9.618   4.634  0.1616 -0.0690  0.8024
  400MOL0     C52697   3.228   9.669   4.694  0.3664  0.5218 -0.6518
  400MOL0     O52698   3.273   9.786   4.650  0.0162 -0.3387 -0.6524
  400MOL0     C52699   3.404   9.826   4.678 -0.2098  1.1671 -0.4217
  400MOL0     C52700   3.512   9.741   4.678  0.0777  0.4450  0.2811
  400MOL0     C52701   3.632   9.791   4.702 -0.6160  0.8107  1.2270
  400MOL0     C52702   3.663   9.926   4.721  0.6872  0.2562 -0.1576
  400MOL0     O52703   3.791   9.957   4.733 -0.3776 -1.1078  0.2513
  400MOL0     C52704   3.834  10.097   4.693  0.1575  0.0163  0.1657
  400MOL0     C52705   3.978  10.091   4.655 -0.1713  0.4139 -0.3346
  400MOL0     C52706   4.062  10.022   4.766  0.0091 -0.0589 -0.2763
  400MOL0     C52707   4.208  10.039   4.741 -0.0165 -0.6983 -0.1162
  400MOL0     C52708   4.291   9.957   4.847  0.3303  0.7926 -0.0531
  400MOL0     C52709   4.446   9.943   4.820  0.5348 -1.8321 -0.3374
  400MOL0     C52710   4.514   9.852   4.922 -0.0723  0.2455 -0.0046
  400MOL0     C52711   4.655   9.885   4.940  0.5057 -0.0450  1.0566
  400MOL0    Cl52712   4.668  10.022   5.047  0.3646  0.1735 -0.4788
  400MOL0     C52713   3.548  10.014   4.739 -0.8319  0.2731  0.6128
  400MOL0     C52714   3.430   9.959   4.706  0.4466  0.4358 -0.6026
  400MOL0     O52715   3.273   9.600   4.790 -0.6352 -0.3728  0.2711
  400MOL0     C52716   3.053   9.678   4.503  0.0532 -0.7105 -0.3130
  400MOL0     C52717   2.943   9.621   4.437 -1.3231  1.1386 -0.5259
  400MOL0     N52718   2.238   9.538   4.467 -0.4356  0.1701  0.4141
  400MOL0     N52719   2.115   9.551   4.498  1.0129 -0.0275 -0.3185
  400MOL0     C52720   0.899   9.706   3.963 -0.0615 -0.6592  0.2253
  400MOL0     C52721   0.766   9.693   3.929 -0.8434 -0.4820  0.2549
  400MOL0     C52722   0.383   9.503   3.773  0.3690  0.6297 -0.5825
  400MOL0     C52723   0.280   9.446   3.863 -0.5668  0.8152 -0.4550
  400MOL0     C52724   0.151   9.444   3.812 -0.2907 -0.6374 -0.0822
  400MOL0     C52725   0.120   9.478   3.683 -0.6921  1.1185  0.4393
  400MOL0     O52726  -0.013   9.466   3.647 -0.5113  0.1703  0.1679
  400MOL0     C52727  -0.046   9.511   3.515  0.3062 -0.3205 -0.2116
  400MOL0     C52728  -0.171   9.448   3.464  0.3834  0.1009 -0.1624
  400MOL0     C52729  -0.294   9.514   3.544 -1.1614  0.8105  0.1253
  400MOL0     C52730  -0.391   9.408   3.568 -0.6599 -0.1254 -0.5874
  400MOL0     C52731  -0.500   9.449   3.661  0.2192 -0.7034 -0.8308
  400MOL0     C52732  -0.593   9.483   3.736  0.4178 -0.0790  0.1094
  400MOL0     C52733   0.225   9.533   3.596 -0.0937 -0.2461 -0.0233
  400MOL0     C52734   0.352   9.550   3.646 -0.4477  1.1737  0.1355
  400MOL0     H52735   0.728   9.363   3.964  1.5723 -1.6756 -2.0640
  400MOL0     H52736   0.970   9.377   4.028  2.2086  0.5829 -0.8431
  400MOL0     H52737   1.171   9.483   4.189  1.1204  0.7313 -0.6716
  400MOL0     H52738   1.041   9.590   4.232 -0.0809  0.8640  0.1729
  400MOL0     H52739   1.206   9.700   4.345  3.0824 -1.9707  1.4899
  400MOL0     H52740   1.200   9.781   4.182  1.2801 -2.7097 -3.1078
  400MOL0     H52741   1.431   9.768   4.211 -0.6458  0.9939  0.4425
  400MOL0     H52742   1.397   9.605   4.152  1.0038  0.7819 -0.1253
  400MOL0     H52743   1.421   9.695   4.448  0.7844  1.7585 -0.4895
  400MOL0     H52744   1.384   9.536   4.402 -0.5522  0.5144 -0.8817
  400MOL0     H52745   1.625   9.661   4.253 -0.5451  0.8934  0.3632
  400MOL0     H52746   1.595   9.495   4.318 -1.0774  0.2345 -1.6066
  400MOL0     H52747   1.639   9.589   4.567 -1.6884 -0.3738 -1.3552
  400MOL0     H52748   1.656   9.754   4.485 -0.9424  0.7452  2.2205
  400MOL0     H52749   1.855   9.612   4.584  0.0586  1.6345  0.0222
  400MOL0     H52750   1.844   9.502   4.448  2.1990 -0.4713 -0.3908
  400MOL0     H52751   1.901   9.793   4.449  0.6830 -1.5793  1.9595
  400MOL0     H52752   1.890   9.690   4.299 -0.6321 -1.7760  1.3672
  400MOL0     H52753   2.151   9.800   4.279 -0.9100 -0.4034 -0.2438
  400MOL0     H52754   2.464   9.739   4.365 -0.6993  1.6163 -2.6248
  400MOL0     H52755   2.414   9.679   4.216 -1.1825  0.5374  0.1448
  400MOL0     H52756   2.463   9.442   4.302 -3.0355  1.0799  1.5331
  400MOL0     H52757   2.522   9.501   4.449  2.0636 -0.3405 -0.8619
  400MOL0     H52758   2.591   9.553   4.166 -1.4978  0.5496  0.6183
  400MOL0     H52759   2.663   9.655   4.300  0.4810 -0.0521  2.0797
  400MOL0     H52760   2.818   9.466   4.230 -0.2538  2.1310 -1.6103
  400MOL0     H52761   2.687   9.355   4.258  0.2440  0.0795  0.4465
  400MOL0     H52762   2.891   9.357   4.643  0.9743 -0.2733  0.5461
  400MOL0     H52763   3.067   9.453   4.777 -1.3243  0.4385  0.3527
  400MOL0     H52764   3.499   9.635   4.656  0.4829 -0.0814  2.3896
  400MOL0     H52765   3.717   9.724   4.687 -0.6754  0.8051  0.9040
  400MOL0     H52766   3.810  10.173   4.768 -0.8598  1.1457 -1.2407
  400MOL0     H52767   3.779  10.131   4.605 -0.4736 -0.5871  0.3212
  400MOL0     H52768   4.018  10.192   4.639  0.8038 -0.0694 -1.0700
  400MOL0     H52769   3.989  10.047   4.555  2.0094  1.1438 -0.4877
  400MOL0     H52770   4.031   9.917   4.769 -1.7467  0.4560  0.5485
  400MOL0     H52771   4.039  10.057   4.867 -1.2278 -1.1355 -0.1609
  400MOL0     H52772   4.235   9.994   4.645  0.3227 -1.2693  0.2412
  400MOL0     H52773   4.243  10.143   4.744  0.7444 -0.9438 -0.2802
  400MOL0     H52774   4.249   9.856   4.847  0.9510  0.4953 -1.8488
  400MOL0     H52775   4.284  10.013   4.941  1.7858  2.5780 -0.9602
  400MOL0     H52776   4.486  10.045   4.819  0.0060 -1.5839 -2.9416
  400MOL0     H52777   4.452   9.922   4.713 -1.7355 -0.3498 -0.8247
  400MOL0     H52778   4.449   9.843   5.010 -1.1320  2.0496 -0.5581
  400MOL0     H52779   4.510   9.755   4.872  3.2529 -0.2432  0.4427
  400MOL0     H52780   4.701   9.902   4.842 -0.3333  0.4624  0.7280
  400MOL0     H52781   4.697   9.796   4.986 -1.6236 -0.6209  1.9899
  400MOL0     H52782   3.549  10.120   4.761  2.5407  1.4080 -3.6249
  400MOL0     H52783   3.352  10.034   4.712  0.6915  0.7408 -1.1516
  400MOL0     H52784   3.105   9.762   4.460  1.7117 -0.5751  1.8311
  400MOL0     H52785   2.920   9.655   4.337 -0.7238 -1.6574 -1.6986
  400MOL0     H52786   0.958   9.795   3.947  1.2625 -2.0979 -4.7539
  400MOL0     H52787   0.701   9.775   3.902  2.0762  1.6129 -0.9384
  400MOL0     H52788   0.303   9.392   3.954  0.9167  0.9084 -0.7491
  400MOL0     H52789   0.076   9.398   3.875  0.1467 -1.4253 -0.1208
  400MOL0     H52790   0.043   9.493   3.454  0.2467  0.7495 -0.6245
  400MOL0     H52791  -0.069   9.617   3.506  0.2335 -0.4846 -2.4162
  400MOL0     H52792  -0.188   9.471   3.358 -0.3638 -1.6940 -0.4736
  400MOL0     H52793  -0.175   9.340   3.477  2.3498  0.3607  4.5974
  400MOL0     H52794  -0.328   9.607   3.497  0.1788  1.3869  0.2496
  400MOL0     H52795  -0.249   9.543   3.640 -0.7570  2.3549 -0.5069
  400MOL0     H52796  -0.434   9.382   3.471 -1.2346 -0.4243 -0.2613
  400MOL0     H52797  -0.347   9.319   3.615 -0.4754  0.5893  0.6384
  400MOL0     H52798  -0.685   9.509   3.785  0.8084 -0.7687  1.2453
  400MOL0     H52799   0.199   9.568   3.497 -4.3141 -0.1542  0.9564
  400MOL0     H52800   0.428   9.589   3.579  1.0419 -1.7190 -0.0165
  401MOL0     O52801   2.788   1.434   9.037  0.2658 -0.1771 -0.2332
  401MOL0     C52802   2.702   1.508   9.006 -0.5443 -0.2162  0.8434
  401MOL0     O52803   2.716   1.641   8.988  0.1233  0.2537  0.0626
  401MOL0     C52804   2.834   1.704   9.002  0.0151  0.0355  0.1067
  401MOL0     C52805   2.888   1.791   8.909 -0.0745 -0.2226  0.0388
  401MOL0     C52806   3.012   1.859   8.930 -0.7705  0.5173  0.7007
  401MOL0     C52807   3.092   1.839   9.044  0.4468 -0.5167  0.6348
  401MOL0     O52808   3.207   1.913   9.075 -0.8726 -0.1462  0.3628
  401MOL0     C52809   3.191   2.051   9.085 -1.1241 -0.4180 -0.4566
  401MOL0     C52810   3.270   2.117   8.972  0.2150  0.0812  0.5203
  401MOL0     C52811   3.385   2.197   9.019 -1.0621  0.3523  0.3205
  401MOL0     C52812   3.454   2.263   8.892 -0.2869  0.5854  0.4733
  401MOL0     C52813   3.598   2.311   8.925 -0.1690 -0.9567  1.2552
  401MOL0     C52814   3.606   2.415   9.034  0.4327  0.1291  0.6248
  401MOL0     C52815   3.720   2.521   9.011  0.9295  0.1505  0.1686
  401MOL0     C52816   3.863   2.477   9.060 -0.1020 -0.0952 -0.2152
  401MOL0     N52817   3.870   2.442   9.206  0.4888 -0.6993  0.7008
  401MOL0     C52818   3.861   2.313   9.250  0.4882 -0.0999 -0.4100
  401MOL0     C52819   3.865   2.328   9.385  0.5152 -0.0008 -0.7904
  401MOL0     C52820   3.860   2.217   9.491  0.9086  0.5269  0.0305
  401MOL0     C52821   3.999   2.213   9.556 -1.0379 -0.0857 -0.2263
  401MOL0     C52822   4.006   2.104   9.663  0.5749 -0.8052  0.2201
  401MOL0     C52823   4.154   2.077   9.684  0.0995 -0.4914  0.5267
  401MOL0     O52824   4.222   2.198   9.722 -0.8259  0.0121 -0.7136
  401MOL0     C52825   4.252   2.218   9.855  0.1026  0.3211  0.2319
  401MOL0     C52826   4.300   2.341   9.883  0.6642 -0.6780 -0.0857
  401MOL0     C52827   4.344   2.372  10.004  0.0535  0.2184 -1.0194
  401MOL0     C52828   4.332   2.290  10.119  0.2813 -0.7015  0.0987
  401MOL0     C52829   4.346   2.341  10.253  0.3259 -0.3293 -0.8755
  401MOL0     O52830   4.396   2.465  10.265  0.1489 -0.3102  0.0729
  401MOL0     C52831   4.426   2.525  10.392  0.3213  0.2179 -0.0512
  401MOL0     C52832   4.327   2.590  10.468 -0.3514 -0.1758 -0.7166
  401MOL0     C52833   4.371   2.673  10.569  0.3994 -1.2373 -0.3507
  401MOL0     C52834   4.505   2.680  10.599  0.4224 -0.4768  0.5996
  401MOL0     O52835   4.555   2.776  10.693 -0.1159  0.4758  0.2726
  401MOL0     C52836   4.567   2.751  10.837 -0.1290  0.2644  0.9383
  401MOL0     C52837   4.701   2.825  10.879 -1.2543 -0.0722 -0.6070
  401MOL0     C52838   4.804   2.713  10.872 -0.6614 -0.1343 -0.4844
  401MOL0     C52839   4.802   2.636  11.008 -0.3142 -0.3328  0.8101
  401MOL0     C52840   4.888   2.509  11.001 -0.1329  0.1270 -0.6433
  401MOL0     C52841   4.838   2.418  11.115 -0.5331  0.0494 -1.3795
  401MOL0     C52842   4.894   2.276  11.121  1.0380  1.0180  0.7378
  401MOL0     C52843   4.867   2.204  10.987  0.2066  0.1972 -0.5601
  401MOL0    Cl52844   4.894   2.025  11.008  0.3653  0.2248  0.2030
  401MOL0     C52845   4.604   2.622  10.520  0.0974 -0.6182 -0.3091
  401MOL0     C52846   4.561   2.544  10.417 -0.4883 -0.8442  0.9313
  401MOL0     O52847   4.312   2.270  10.346  0.0698 -0.7285  0.1411
  401MOL0     C52848   4.272   2.168  10.094 -1.3096  0.4201 -0.3358
  401MOL0     C52849   4.236   2.131   9.962 -0.4124  0.0996  0.6228
  401MOL0     N52850   3.882   2.463   9.416 -1.0050 -0.6519 -0.6055
  401MOL0     N52851   3.878   2.530   9.303 -0.2839  0.8468 -1.1309
  401MOL0     C52852   3.032   1.762   9.135 -0.6798 -0.2785 -0.8079
  401MOL0     C52853   2.911   1.694   9.118  0.8893  0.0064  0.3233
  401MOL0     C52854   2.567   1.447   8.985 -0.5818 -0.4887  1.2622
  401MOL0     C52855   2.542   1.310   8.989  0.0182  0.8945  0.3816
  401MOL0     C52856   2.414   1.256   9.000 -0.0236  0.0322  0.7641
  401MOL0     C52857   2.305   1.340   8.994  0.0199  0.2039  0.6219
  401MOL0     O52858   2.169   1.306   9.001 -0.5672 -0.3698  0.1295
  401MOL0     C52859   2.135   1.159   8.980  0.5054  1.4116  0.1533
  401MOL0     C52860   2.155   1.104   8.844  0.0391  0.8064 -0.5512
  401MOL0     C52861   2.133   1.194   8.726  0.3328  0.1310 -0.1316
  401MOL0     C52862   2.138   1.117   8.598  0.1993 -0.0386 -0.0931
  401MOL0     C52863   2.086   1.191   8.483  0.5414 -0.0552 -0.2786
  401MOL0     C52864   2.067   1.271   8.393  0.5313 -0.5490 -0.2477
  401MOL0     C52865   2.324   1.472   8.981  0.2073  0.6218  0.5742
  401MOL0     C52866   2.454   1.528   8.972 -1.1708  0.3782 -0.8859
  401MOL0     H52867   2.842   1.815   8.814  1.4463  2.1925 -0.1641
  401MOL0     H52868   3.049   1.920   8.848  1.5031 -1.2875  0.2793
  401MOL0     H52869   3.239   2.082   9.179  0.2671  0.2188 -1.3508
  401MOL0     H52870   3.086   2.082   9.090 -0.0323  3.7096  0.2918
  401MOL0     H52871   3.202   2.184   8.919  1.0138  2.3237  2.1955
  401MOL0     H52872   3.305   2.047   8.895 -2.5340  0.3316 -1.1066
  401MOL0     H52873   3.456   2.123   9.057 -0.9719 -2.4967 -4.4733
  401MOL0     H52874   3.357   2.268   9.097 -1.5053  0.2828  0.2315
  401MOL0     H52875   3.449   2.190   8.810  2.0431 -1.8146  2.2760
  401MOL0     H52876   3.396   2.349   8.857 -3.2985 -1.2692  0.5584
  401MOL0     H52877   3.637   2.350   8.830  0.7846 -0.4127  1.8423
  401MOL0     H52878   3.667   2.232   8.957 -0.1903 -0.7978  1.7010
  401MOL0     H52879   3.624   2.368   9.131  1.6675  0.6751  0.6859
  401MOL0     H52880   3.514   2.474   9.037 -0.0631 -0.3971 -2.2319
  401MOL0     H52881   3.701   2.562   8.912 -0.0178  2.5290  1.2539
  401MOL0     H52882   3.696   2.608   9.073  1.7731 -0.9791  2.1873
  401MOL0     H52883   3.938   2.554   9.040 -1.6317  0.7550 -3.3608
  401MOL0     H52884   3.899   2.399   8.991 -1.3667  1.0588 -2.2986
  401MOL0     H52885   3.848   2.214   9.207  0.6231 -0.4523  0.3436
  401MOL0     H52886   3.848   2.124   9.436  1.4572  1.0565 -1.0293
  401MOL0     H52887   3.773   2.237   9.555  2.0005  2.8049  0.9138
  401MOL0     H52888   4.020   2.312   9.597 -3.0135 -0.2445  1.3103
  401MOL0     H52889   4.075   2.183   9.484  0.9002 -2.7673  2.6744
  401MOL0     H52890   3.949   2.132   9.752  0.2014  2.9769 -1.0077
  401MOL0     H52891   3.966   2.011   9.621  0.0500 -2.5131  4.0446
  401MOL0     H52892   4.193   2.060   9.584  0.8678  2.1644  0.2930
  401MOL0     H52893   4.174   1.988   9.744 -0.2410  0.8472  2.7732
  401MOL0     H52894   4.302   2.414   9.803 -1.5436 -1.0659 -0.5722
  401MOL0     H52895   4.373   2.476  10.017 -2.9805  1.3637 -2.3551
  401MOL0     H52896   4.220   2.582  10.453 -0.2526 -0.4344 -1.3155
  401MOL0     H52897   4.300   2.744  10.609 -0.0925 -1.3066 -1.0899
  401MOL0     H52898   4.557   2.647  10.866 -0.7725  0.2461  0.6617
  401MOL0     H52899   4.484   2.802  10.885 -0.2352  2.9331 -1.7257
  401MOL0     H52900   4.694   2.872  10.977  1.0113 -0.5326 -0.1628
  401MOL0     H52901   4.725   2.912  10.817 -2.7140  2.3424  1.9823
  401MOL0     H52902   4.903   2.755  10.851 -0.5876  0.5592  1.1118
  401MOL0     H52903   4.789   2.643  10.790  0.7523  1.3889 -2.1368
  401MOL0     H52904   4.839   2.702  11.087  3.8796 -1.1060 -0.2564
  401MOL0     H52905   4.697   2.609  11.022 -0.0987 -2.3000 -0.8620
  401MOL0     H52906   4.995   2.534  11.003  0.1137 -0.9455  0.8952
  401MOL0     H52907   4.867   2.462  10.904 -1.4037 -1.6323  0.4196
  401MOL0     H52908   4.729   2.418  11.116 -0.6219 -1.2146 -3.7364
  401MOL0     H52909   4.874   2.465  11.207 -0.0223 -1.1959 -0.9200
  401MOL0     H52910   5.002   2.281  11.134  2.0528  2.5844 -5.3405
  401MOL0     H52911   4.851   2.210  11.197 -1.6354  1.2895 -0.4205
  401MOL0     H52912   4.936   2.254  10.919 -0.5961  3.7720  1.0435
  401MOL0     H52913   4.768   2.219  10.943  1.7253  2.7714 -3.4661
  401MOL0     H52914   4.708   2.638  10.544 -0.6226 -0.0105  2.8009
  401MOL0     H52915   4.630   2.490  10.353 -2.7311 -2.7328 -0.0353
  401MOL0     H52916   4.261   2.097  10.176  2.2057  0.1564  0.0780
  401MOL0     H52917   4.202   2.029   9.950  0.6890 -0.0675 -1.6780
  401MOL0     H52918   3.098   1.746   9.220 -0.9039 -0.8217 -0.7355
  401MOL0     H52919   2.873   1.627   9.194 -0.4962  2.9816  2.4589
  401MOL0     H52920   2.624   1.239   8.994 -0.1339  0.7784  2.8935
  401MOL0     H52921   2.397   1.150   9.011 -0.2790  0.1167  1.1703
  401MOL0     H52922   2.026   1.158   8.992  0.7870 -1.5801  5.2357
  401MOL0     H52923   2.180   1.082   9.043 -1.6024  0.0921  0.1504
  401MOL0     H52924   2.251   1.052   8.847  0.6872  2.0230  1.3414
  401MOL0     H52925   2.078   1.026   8.839 -0.3696  1.1998 -0.5351
  401MOL0     H52926   2.218   1.264   8.722  1.5829 -1.2103  1.3299
  401MOL0     H52927   2.035   1.240   8.741  1.7027  3.7262 -1.1526
  401MOL0     H52928   2.238   1.079   8.577 -0.1851 -1.0753 -0.1158
  401MOL0     H52929   2.080   1.026   8.619 -0.1792  0.9062  3.6565
  401MOL0     H52930   2.049   1.340   8.314 -2.3163  0.4106  1.1186
  401MOL0     H52931   2.233   1.530   8.964 -0.8035 -1.0663 -0.0079
  401MOL0     H52932   2.460   1.635   8.960 -0.8097  0.3960 -0.5601
  402MOL0     O52933   4.606   8.724   6.992 -0.3250  0.4617 -0.8877
  402MOL0     C52934   4.709   8.681   6.937 -0.1816  0.0447 -0.9269
  402MOL0     O52935   4.802   8.598   6.995 -0.1307 -0.3694 -0.3285
  402MOL0     C52936   4.793   8.534   7.116  0.2595  0.2297 -1.2714
  402MOL0     C52937   4.794   8.611   7.230  0.0405 -0.0354  0.1670
  402MOL0     C52938   4.793   8.556   7.359  0.0740  0.3303 -0.4258
  402MOL0     C52939   4.784   8.412   7.361  0.9712  0.7927 -0.3797
  402MOL0     O52940   4.797   8.327   7.470  0.4077 -0.2560  0.4859
  402MOL0     C52941   4.772   8.397   7.595 -0.4778  0.4070  0.2448
  402MOL0     C52942   4.748   8.287   7.693 -0.3392  0.0599  0.1003
  402MOL0     C52943   4.769   8.336   7.836 -0.9994 -0.2622 -0.0791
  402MOL0     C52944   4.705   8.469   7.873  0.1377 -0.0239  0.2201
  402MOL0     C52945   4.558   8.438   7.911  0.4732 -0.1472 -0.6415
  402MOL0     C52946   4.471   8.579   7.889  0.7109  1.2254 -0.0260
  402MOL0     C52947   4.320   8.560   7.888  0.7849  0.4796  0.3607
  402MOL0     C52948   4.270   8.449   7.803  0.3090 -0.6091  0.1005
  402MOL0     N52949   4.303   8.487   7.667  0.0888  0.0791 -0.1084
  402MOL0     C52950   4.227   8.547   7.566  1.2115 -0.1142  0.7927
  402MOL0     C52951   4.303   8.533   7.447  0.4399  0.5240  0.8032
  402MOL0     C52952   4.276   8.571   7.298  0.6600 -0.5441  0.4575
  402MOL0     C52953   4.271   8.464   7.192  0.6833 -0.8100 -0.5211
  402MOL0     C52954   4.409   8.414   7.153  0.8053 -0.2974  0.0908
  402MOL0     C52955   4.398   8.286   7.061 -0.2637  0.6845 -0.6345
  402MOL0     O52956   4.340   8.321   6.936 -0.3590 -0.2440  0.8819
  402MOL0     C52957   4.315   8.219   6.849  1.1612  0.1379  0.0473
  402MOL0     C52958   4.325   8.253   6.712  0.2115  0.1530  0.0823
  402MOL0     C52959   4.315   8.161   6.614  0.4601  0.7416 -0.4910
  402MOL0     C52960   4.255   8.035   6.638 -0.6851 -0.2174 -0.4734
  402MOL0     C52961   4.230   7.928   6.535 -0.4255  0.3131 -0.3832
  402MOL0     O52962   4.162   7.806   6.576 -0.0583  0.4284 -0.6883
  402MOL0     C52963   4.091   7.740   6.483 -0.1934  0.2457  0.1468
  402MOL0     C52964   4.054   7.790   6.358  0.1109  0.6856  1.1800
  402MOL0     C52965   3.988   7.697   6.271 -0.1769 -0.5560  1.1935
  402MOL0     C52966   3.969   7.560   6.313 -0.3457 -0.8267  1.1747
  402MOL0     O52967   3.922   7.462   6.231  0.0339 -0.0783 -0.0849
  402MOL0     C52968   3.908   7.488   6.087  0.2145 -0.1800  0.1625
  402MOL0     C52969   3.842   7.372   6.008  0.2388 -0.0835  0.5310
  402MOL0     C52970   3.696   7.360   6.020  0.6164 -0.2054 -0.4611
  402MOL0     C52971   3.655   7.285   6.154  0.6553 -0.4216  0.1197
  402MOL0     C52972   3.532   7.354   6.214  0.5968 -0.3779  0.7049
  402MOL0     C52973   3.411   7.326   6.139 -1.2865  1.2356  0.2521
  402MOL0     C52974   3.294   7.408   6.191  0.3771 -0.0999  0.0287
  402MOL0     C52975   3.149   7.375   6.140  0.5770  1.0617  0.1923
  402MOL0    Cl52976   3.158   7.418   5.966 -0.0977 -0.1391 -0.4625
  402MOL0     C52977   4.006   7.518   6.440  0.6571  0.7367  0.1725
  402MOL0     C52978   4.062   7.612   6.524  0.9325  0.1150 -0.2636
  402MOL0     O52979   4.275   7.947   6.422 -1.4065  0.3431 -0.5064
  402MOL0     C52980   4.236   8.001   6.775  0.6313  0.5891 -0.4198
  402MOL0     C52981   4.263   8.093   6.879  0.4984 -0.3270  0.2175
  402MOL0     N52982   4.409   8.449   7.490  1.1386 -0.2151  0.0287
  402MOL0     N52983   4.414   8.433   7.616 -0.5978  0.6295  0.6656
  402MOL0     C52984   4.789   8.338   7.245  1.0277  0.2832  0.1213
  402MOL0     C52985   4.786   8.395   7.123  0.1489  0.4423  0.1079
  402MOL0     C52986   4.733   8.735   6.802  0.5303 -0.1844 -0.4504
  402MOL0     C52987   4.828   8.674   6.720  1.5500  0.6962 -0.1160
  402MOL0     C52988   4.838   8.706   6.585 -0.6772 -0.1612 -0.1795
  402MOL0     C52989   4.749   8.798   6.528  0.7619 -0.2183  0.5629
  402MOL0     O52990   4.755   8.827   6.387 -0.2946  0.7609 -0.4305
  402MOL0     C52991   4.887   8.865   6.340  0.2745 -0.0154  0.2406
  402MOL0     C52992   4.878   8.871   6.193 -0.5305 -0.3305  0.1604
  402MOL0     C52993   5.012   8.922   6.124  0.6408 -0.4933  0.8750
  402MOL0     C52994   4.977   8.973   5.978 -0.4039  0.4184  0.3597
  402MOL0     C52995   5.089   9.069   5.946 -0.3010 -0.6909  0.0032
  402MOL0     C52996   5.187   9.145   5.929  1.1261  0.6804  0.8933
  402MOL0     C52997   4.661   8.869   6.608 -0.6881 -0.1359  0.0662
  402MOL0     C52998   4.653   8.831   6.743  0.1369  0.0920  0.5018
  402MOL0     H52999   4.804   8.719   7.223  2.2239 -0.3076 -2.3646
  402MOL0     H53000   4.809   8.614   7.449 -0.6693 -3.5023  2.4306
  402MOL0     H53001   4.688   8.467   7.601 -0.5248  0.2827  1.0390
  402MOL0     H53002   4.858   8.452   7.634 -0.5024 -0.2773  1.2906
  402MOL0     H53003   4.820   8.209   7.665  0.4707  0.4869  0.9440
  402MOL0     H53004   4.649   8.244   7.676 -0.3646  0.4759 -0.8550
  402MOL0     H53005   4.871   8.358   7.868 -1.5326  2.1273  0.1938
  402MOL0     H53006   4.728   8.259   7.902 -0.6628  1.6610  2.5421
  402MOL0     H53007   4.753   8.527   7.952  0.5513  0.8306 -0.6471
  402MOL0     H53008   4.716   8.548   7.798  1.8142 -0.1962  0.2362
  402MOL0     H53009   4.539   8.398   8.011 -2.8873 -0.9670 -1.4835
  402MOL0     H53010   4.531   8.351   7.852  0.6451 -0.2164 -0.6193
  402MOL0     H53011   4.486   8.631   7.794  2.5428  1.5704  0.4210
  402MOL0     H53012   4.510   8.652   7.960  1.1037  1.8281 -0.8424
  402MOL0     H53013   4.298   8.549   7.994 -1.7947 -0.6120 -0.2099
  402MOL0     H53014   4.253   8.644   7.869 -1.3050 -0.8708  1.4464
  402MOL0     H53015   4.161   8.453   7.813  0.0334 -1.2526 -2.0822
  402MOL0     H53016   4.310   8.357   7.845 -0.3316 -0.4745  1.0218
  402MOL0     H53017   4.127   8.591   7.573  1.5835  0.8658  0.1851
  402MOL0     H53018   4.345   8.650   7.267 -0.0731 -0.1914 -0.3050
  402MOL0     H53019   4.186   8.633   7.293  1.7090  1.0641  0.9144
  402MOL0     H53020   4.214   8.508   7.109 -1.2166 -0.1192  1.0692
  402MOL0     H53021   4.206   8.380   7.216 -2.3742  2.0793  2.4842
  402MOL0     H53022   4.452   8.494   7.093 -0.1614  1.8618  2.1213
  402MOL0     H53023   4.467   8.391   7.243  0.6469  0.7760  0.4736
  402MOL0     H53024   4.340   8.211   7.116  2.4289  1.5662  3.9812
  402MOL0     H53025   4.501   8.253   7.045  0.3670  2.7996 -1.2326
  402MOL0     H53026   4.350   8.356   6.689  1.6223 -0.4278 -1.0862
  402MOL0     H53027   4.339   8.186   6.511 -1.9573 -1.6506 -1.7730
  402MOL0     H53028   4.076   7.885   6.309 -0.3685  0.9210  1.4213
  402MOL0     H53029   3.949   7.731   6.176  0.5329 -2.5074  0.1308
  402MOL0     H53030   4.008   7.506   6.047  0.1879  0.8351  0.5026
  402MOL0     H53031   3.840   7.573   6.075  0.7595  0.3359  0.6165
  402MOL0     H53032   3.871   7.272   6.042  0.0100 -0.9870 -1.7201
  402MOL0     H53033   3.873   7.379   5.903  0.2429 -1.1125  0.4545
  402MOL0     H53034   3.653   7.302   5.938 -2.8631 -2.6973  2.7510
  402MOL0     H53035   3.652   7.460   6.014  1.0948  0.2679  2.5701
  402MOL0     H53036   3.644   7.179   6.131  1.6373 -0.7175  0.9294
  402MOL0     H53037   3.741   7.295   6.222 -0.6723  0.7289  1.7029
  402MOL0     H53038   3.544   7.460   6.235  0.1846 -0.5811  2.0376
  402MOL0     H53039   3.527   7.319   6.318 -0.0044 -0.1113  0.7668
  402MOL0     H53040   3.393   7.219   6.130  1.2811  0.8538 -1.2974
  402MOL0     H53041   3.431   7.370   6.041  1.7387  1.6563  0.9549
  402MOL0     H53042   3.297   7.403   6.300 -0.6030  0.7671  0.1134
  402MOL0     H53043   3.313   7.512   6.163  0.1615  0.3238  1.4027
  402MOL0     H53044   3.085   7.435   6.206 -2.3760 -2.4182  0.7858
  402MOL0     H53045   3.105   7.275   6.147 -2.8866  2.4371  0.1125
  402MOL0     H53046   3.985   7.414   6.462 -0.3105  0.3192 -2.3695
  402MOL0     H53047   4.074   7.593   6.631 -0.2371  1.0332  0.0572
  402MOL0     H53048   4.178   7.914   6.805  0.0312 -0.2937 -3.7432
  402MOL0     H53049   4.248   8.057   6.980 -2.0620 -0.4637 -0.1461
  402MOL0     H53050   4.779   8.231   7.261  0.6595  0.6311  2.6865
  402MOL0     H53051   4.774   8.340   7.030  1.8290 -0.5069  0.4080
  402MOL0     H53052   4.903   8.610   6.765  1.5233  2.3648  2.5769
  402MOL0     H53053   4.925   8.661   6.538  0.4663 -0.6048  2.2355
  402MOL0     H53054   4.962   8.789   6.364 -1.1648 -2.0546 -1.3325
  402MOL0     H53055   4.904   8.965   6.381 -1.6907 -0.5080  2.5075
  402MOL0     H53056   4.850   8.772   6.158 -0.7931  0.6821 -2.7647
  402MOL0     H53057   4.797   8.939   6.164  0.0069  0.7174  1.0122
  402MOL0     H53058   5.088   8.845   6.106  0.2197 -0.4102 -1.6454
  402MOL0     H53059   5.034   9.002   6.196 -4.1588  2.2060 -0.2138
  402MOL0     H53060   4.986   8.880   5.922  3.2843 -0.9258  2.7684
  402MOL0     H53061   4.877   9.014   5.968  0.0126  1.8432  1.6095
  402MOL0     H53062   5.272   9.204   5.899  0.9386  0.1544 -0.8016
  402MOL0     H53063   4.603   8.952   6.570 -2.6184  0.4698  3.9029
  402MOL0     H53064   4.583   8.892   6.800  1.0197  0.7424  0.9233
  403MOL0     O53065   2.753   5.164  11.141  0.5392  0.0828  0.6146
  403MOL0     C53066   2.864   5.179  11.192  1.1740  0.1797  0.0567
  403MOL0     O53067   2.889   5.142  11.324 -0.1460  0.0433 -0.3577
  403MOL0     C53068   2.799   5.067  11.392 -0.5903  0.7163 -0.4247
  403MOL0     C53069   2.669   5.111  11.397  0.1246 -0.0021  0.1773
  403MOL0     C53070   2.573   5.044  11.477  0.5053  0.3172  0.2221
  403MOL0     C53071   2.600   4.921  11.532  0.1164  0.4927 -1.0851
  403MOL0     O53072   2.515   4.849  11.606  0.7181 -0.1602 -0.6241
  403MOL0     C53073   2.406   4.918  11.669 -0.9160 -0.0087  0.2863
  403MOL0     C53074   2.305   4.833  11.747  0.2492 -0.6615 -0.7546
  403MOL0     C53075   2.254   4.704  11.687 -0.8829  0.2498  0.2848
  403MOL0     C53076   2.141   4.647  11.778  0.5744 -0.4374  0.6999
  403MOL0     C53077   2.082   4.516  11.709 -0.1647 -0.3726 -0.8666
  403MOL0     C53078   1.992   4.564  11.590 -0.4113  0.6019  0.8511
  403MOL0     C53079   1.885   4.463  11.536 -0.2967 -0.0410  0.0902
  403MOL0     C53080   1.790   4.408  11.649 -0.8241 -0.5688 -0.8572
  403MOL0     N53081   1.675   4.341  11.593 -0.0417 -0.2525  0.4354
  403MOL0     C53082   1.646   4.208  11.581 -0.2433  0.2810  1.3250
  403MOL0     C53083   1.514   4.204  11.552 -0.0791  0.5655 -0.4807
  403MOL0     C53084   1.438   4.092  11.505 -1.0420 -0.1274 -0.1599
  403MOL0     C53085   1.431   3.997  11.632 -0.1684 -0.1741 -0.2817
  403MOL0     C53086   1.343   4.061  11.752  0.5319  0.3768 -0.2967
  403MOL0     C53087   1.196   4.080  11.729 -0.5311  0.0052 -0.2057
  403MOL0     O53088   1.139   3.965  11.684  0.2380 -0.0124  0.8150
  403MOL0     C53089   1.007   3.970  11.645 -0.6973 -0.0972  0.8890
  403MOL0     C53090   0.913   4.069  11.660 -0.3438  0.4916  0.6970
  403MOL0     C53091   0.776   4.051  11.620 -0.1921 -0.3566  0.4265
  403MOL0     C53092   0.741   3.933  11.548  1.0250  0.1907  0.0423
  403MOL0     C53093   0.605   3.908  11.494 -0.3459 -0.3922  0.8338
  403MOL0     O53094   0.527   4.020  11.485  0.1686  0.1638 -0.6119
  403MOL0     C53095   0.397   4.009  11.426 -0.5574  0.9876 -0.0859
  403MOL0     C53096   0.361   4.097  11.324  0.7656  0.8838  0.0395
  403MOL0     C53097   0.244   4.086  11.256  0.8668  0.6668  0.3017
  403MOL0     C53098   0.155   3.986  11.306  0.2480  1.0538  0.7201
  403MOL0     O53099   0.031   3.971  11.254 -0.6525  0.4625  0.2274
  403MOL0     C53100   0.007   4.006  11.118 -1.5972  0.4296  0.8069
  403MOL0     C53101  -0.118   3.940  11.072  0.9465  0.5557 -0.3415
  403MOL0     C53102  -0.138   3.971  10.929  0.5328 -0.3383  0.3922
  403MOL0     C53103  -0.222   4.087  10.893  0.3727  0.9284 -0.0150
  403MOL0     C53104  -0.285   4.070  10.752 -0.1637  0.1626 -0.3356
  403MOL0     C53105  -0.180   4.100  10.637  0.0960  0.2618 -0.3250
  403MOL0     C53106  -0.226   4.085  10.491 -0.0872  0.5686 -0.3926
  403MOL0     C53107  -0.129   4.151  10.393  1.0392 -0.4816 -0.6883
  403MOL0    Cl53108   0.038   4.123  10.443  0.0067 -0.1281 -0.6257
  403MOL0     C53109   0.192   3.895  11.407 -0.4432  0.6180  0.2755
  403MOL0     C53110   0.320   3.901  11.457 -1.0357 -0.1376 -0.2529
  403MOL0     O53111   0.581   3.798  11.445 -0.0551 -0.1959  0.6150
  403MOL0     C53112   0.835   3.837  11.534 -0.5613  0.2419  0.1951
  403MOL0     C53113   0.964   3.850  11.584  0.0671 -1.3772 -1.1997
  403MOL0     N53114   1.466   4.331  11.547 -0.3761 -0.3144 -0.3053
  403MOL0     N53115   1.564   4.413  11.574  0.2542  0.1278 -0.2209
  403MOL0     C53116   2.725   4.863  11.511 -0.3897  0.8501 -0.4775
  403MOL0     C53117   2.828   4.939  11.452 -0.4341  0.1132  1.0072
  403MOL0     C53118   2.949   5.264  11.118  0.2175 -0.7993  0.1479
  403MOL0     C53119   2.905   5.321  10.995 -0.1363 -0.8646 -1.1834
  403MOL0     C53120   2.990   5.396  10.913  0.4069 -0.2467 -0.7546
  403MOL0     C53121   3.124   5.416  10.952 -0.2713 -0.2365 -0.0432
  403MOL0     O53122   3.201   5.502  10.875 -0.0196 -0.5136 -0.1805
  403MOL0     C53123   3.333   5.535  10.908  0.3223  0.3462 -0.0026
  403MOL0     C53124   3.361   5.660  10.849 -0.3025 -0.6082  0.4765
  403MOL0     C53125   3.382   5.647  10.697 -0.4135 -0.2674 -0.7989
  403MOL0     C53126   3.402   5.775  10.626 -0.0700 -0.6755  0.4310
  403MOL0     C53127   3.539   5.820  10.637 -0.8700  0.1844  0.7169
  403MOL0     C53128   3.657   5.820  10.645 -0.5177 -0.6885  0.2331
  403MOL0     C53129   3.168   5.347  11.062 -0.1440  0.0166 -0.6362
  403MOL0     C53130   3.086   5.268  11.145 -0.6389  0.0395  0.2227
  403MOL0     H53131   2.636   5.199  11.342 -0.5527  0.5759  1.4505
  403MOL0     H53132   2.473   5.086  11.479 -0.7225 -2.0985 -2.7812
  403MOL0     H53133   2.339   4.974  11.604 -2.1272 -0.6332  0.9435
  403MOL0     H53134   2.446   4.985  11.746  0.6130 -1.5796  0.9221
  403MOL0     H53135   2.224   4.905  11.763 -0.5739 -1.5814 -0.6172
  403MOL0     H53136   2.347   4.827  11.847 -1.1526  4.2014  0.3925
  403MOL0     H53137   2.339   4.635  11.692  0.0069  1.3459  4.4090
  403MOL0     H53138   2.219   4.722  11.585 -0.4909  0.3495  0.1667
  403MOL0     H53139   2.169   4.618  11.880  3.8906 -0.4454 -0.1127
  403MOL0     H53140   2.063   4.724  11.775  2.9671  2.3152  2.9705
  403MOL0     H53141   2.040   4.460  11.792  3.4755  0.5076  1.8098
  403MOL0     H53142   2.161   4.458  11.660 -0.7657 -1.0883 -1.0031
  403MOL0     H53143   2.050   4.602  11.505 -0.0896 -0.2152  0.6935
  403MOL0     H53144   1.938   4.654  11.618 -0.9994  1.1368 -1.7270
  403MOL0     H53145   1.831   4.504  11.450  2.6864  2.4293 -0.8188
  403MOL0     H53146   1.942   4.382  11.489 -0.1501 -1.6494  2.8920
  403MOL0     H53147   1.770   4.485  11.724 -1.6017 -1.9765  0.4346
  403MOL0     H53148   1.851   4.326  11.688  0.5565  0.4882 -0.7016
  403MOL0     H53149   1.710   4.121  11.577 -1.2830 -0.5230 -2.3507
  403MOL0     H53150   1.493   4.035  11.430 -2.9552 -1.1327 -0.8619
  403MOL0     H53151   1.343   4.109  11.454 -0.5789  1.5778 -0.5144
  403MOL0     H53152   1.530   3.968  11.668 -1.0486 -1.9914  0.8185
  403MOL0     H53153   1.371   3.915  11.591 -5.6258  3.0561  0.2364
  403MOL0     H53154   1.352   3.991  11.835  0.2285  2.0332  1.1867
  403MOL0     H53155   1.389   4.152  11.791  0.7449  1.5532 -3.0754
  403MOL0     H53156   1.180   4.163  11.659 -0.9265  0.6886  0.6683
  403MOL0     H53157   1.152   4.093  11.829 -0.8232 -1.7266 -0.0856
  403MOL0     H53158   0.930   4.161  11.715  2.7722 -0.5414  1.7156
  403MOL0     H53159   0.712   4.138  11.627  1.2795  1.1380 -2.9215
  403MOL0     H53160   0.409   4.193  11.305 -1.1518  1.9095  0.1116
  403MOL0     H53161   0.220   4.149  11.171  3.0556 -0.4580 -1.2357
  403MOL0     H53162   0.088   3.964  11.058 -2.8265 -1.3068  0.3080
  403MOL0     H53163  -0.007   4.115  11.110 -2.1638  0.2737 -0.5787
  403MOL0     H53164  -0.201   3.966  11.137 -0.8174  0.3350 -2.3769
  403MOL0     H53165  -0.112   3.832  11.088  1.3303  0.6876  0.4225
  403MOL0     H53166  -0.178   3.879  10.884 -0.3775 -0.2993  1.0958
  403MOL0     H53167  -0.042   3.967  10.876 -1.1026 -0.9095 -2.7710
  403MOL0     H53168  -0.312   4.095  10.954  0.9441  1.8167  0.7255
  403MOL0     H53169  -0.171   4.183  10.900  2.3927 -0.0850  0.0603
  403MOL0     H53170  -0.377   4.129  10.750  0.3680  1.0269  0.0293
  403MOL0     H53171  -0.307   3.963  10.738  1.8143 -0.8514  3.2259
  403MOL0     H53172  -0.104   4.025  10.664 -2.4595 -2.6173 -0.5673
  403MOL0     H53173  -0.140   4.201  10.651  2.0116 -0.6419  1.3194
  403MOL0     H53174  -0.226   3.977  10.470 -1.4993  0.6182 -0.7610
  403MOL0     H53175  -0.326   4.126  10.472  0.0750  1.9742  1.5414
  403MOL0     H53176  -0.162   4.254  10.380 -0.6506 -1.2029 -2.6112
  403MOL0     H53177  -0.134   4.094  10.299 -0.8986 -0.7149 -0.4718
  403MOL0     H53178   0.126   3.815  11.439  1.5805 -1.7383 -0.9718
  403MOL0     H53179   0.363   3.849  11.542  1.7691  0.0106 -1.4775
  403MOL0     H53180   0.828   3.740  11.486  2.8989 -0.1053  0.1070
  403MOL0     H53181   1.034   3.770  11.561  1.7834 -0.3125  0.0779
  403MOL0     H53182   2.758   4.762  11.536  3.4808  1.5332 -2.1735
  403MOL0     H53183   2.930   4.907  11.438  0.0926  1.2870  1.9072
  403MOL0     H53184   2.798   5.319  10.982 -0.3345  0.7595 -0.0012
  403MOL0     H53185   2.953   5.441  10.822 -0.8292  0.8411  0.2348
  403MOL0     H53186   3.403   5.459  10.871  1.1033  0.6731  0.7664
  403MOL0     H53187   3.350   5.544  11.016  6.2090  1.1650 -0.7020
  403MOL0     H53188   3.280   5.733  10.861 -2.0903 -1.6556 -3.6995
  403MOL0     H53189   3.449   5.709  10.893  0.1979 -0.4808 -0.6301
  403MOL0     H53190   3.291   5.605  10.654 -1.2970  0.3478  0.3981
  403MOL0     H53191   3.470   5.583  10.684  0.4634  0.4101  1.2700
  403MOL0     H53192   3.393   5.752  10.519  3.8804  0.6152 -0.3419
  403MOL0     H53193   3.332   5.854  10.656  0.2411 -1.1732  2.6468
  403MOL0     H53194   3.763   5.811  10.654 -0.4113 -0.0041 -0.2994
  403MOL0     H53195   3.265   5.370  11.104 -0.0348 -0.6588 -0.4982
  403MOL0     H53196   3.120   5.227  11.240  1.7478 -2.3715 -1.5180
  404MOL0     O53197   0.579  11.041   2.359  0.1938  1.0754  0.4872
  404MOL0     C53198   0.670  10.958   2.357  0.6137  0.5523  0.3577
  404MOL0     O53199   0.655  10.827   2.312  0.3108 -0.1288  0.4913
  404MOL0     C53200   0.535  10.749   2.330  0.7141 -0.0743  0.0382
  404MOL0     C53201   0.539  10.619   2.273 -0.8325 -0.4232 -0.1384
  404MOL0     C53202   0.427  10.539   2.263  0.0189  0.1553  0.1276
  404MOL0     C53203   0.307  10.583   2.305  0.7527  0.0100  0.4853
  404MOL0     O53204   0.197  10.501   2.279 -0.4252 -0.2796 -0.0441
  404MOL0     C53205   0.071  10.555   2.277  2.1816  0.6552  0.1463
  404MOL0     C53206  -0.008  10.432   2.324  0.0963 -0.2030  0.8685
  404MOL0     C53207  -0.156  10.451   2.364 -0.1721 -0.5152 -0.6625
  404MOL0     C53208  -0.236  10.320   2.387 -0.8932  0.6227  1.3820
  404MOL0     C53209  -0.361  10.348   2.451  0.3454  0.2249 -0.0846
  404MOL0     C53210  -0.448  10.217   2.448  0.1228 -0.7292  0.0581
  404MOL0     C53211  -0.590  10.246   2.504 -0.3709 -0.1392 -0.4122
  404MOL0     C53212  -0.695  10.144   2.452 -0.4335  0.4604 -0.1222
  404MOL0     N53213  -0.839  10.194   2.449  0.1138  0.2574  0.2077
  404MOL0     C53214  -0.941  10.144   2.369  0.0415 -0.0563 -0.5477
  404MOL0     C53215  -1.052  10.197   2.431  0.9012  0.1448  0.9074
  404MOL0     C53216  -1.188  10.167   2.391  1.0912  0.0375  0.5477
  404MOL0     C53217  -1.256  10.103   2.508  0.4741  0.2240  0.9728
  404MOL0     C53218  -1.408  10.086   2.481 -0.4077 -0.0386  0.8827
  404MOL0     C53219  -1.478  10.223   2.479  0.4627  0.7400 -1.2151
  404MOL0     O53220  -1.457  10.300   2.599  0.3124 -0.0903 -0.0520
  404MOL0     C53221  -1.530  10.277   2.714  0.9092 -0.9434  0.8451
  404MOL0     C53222  -1.649  10.198   2.714 -0.0016 -0.7376  1.0811
  404MOL0     C53223  -1.724  10.197   2.828 -0.7449  0.2667  0.1902
  404MOL0     C53224  -1.690  10.259   2.945 -0.4385 -0.6166  0.1726
  404MOL0     C53225  -1.774  10.245   3.076  0.4430 -0.6655 -0.0533
  404MOL0     O53226  -1.885  10.169   3.069 -0.4202 -0.0872 -0.5577
  404MOL0     C53227  -1.942  10.117   3.186 -0.9538  0.2856 -1.3574
  404MOL0     C53228  -2.077  10.127   3.187  0.6810  0.4345  0.7859
  404MOL0     C53229  -2.153  10.092   3.293 -0.6061  0.4086 -0.7786
  404MOL0     C53230  -2.091  10.055   3.412  0.3068 -0.3735 -0.7899
  404MOL0     O53231  -2.166  10.037   3.529  0.1885  0.4434 -0.4057
  404MOL0     C53232  -2.139  10.138   3.629  0.5265 -0.0931 -0.6720
  404MOL0     C53233  -2.232  10.133   3.754 -0.0384 -0.2247 -0.1130
  404MOL0     C53234  -2.189  10.234   3.864  1.1092  0.3835 -0.2842
  404MOL0     C53235  -2.228  10.184   4.008 -0.0019 -0.5754  0.5768
  404MOL0     C53236  -2.203  10.290   4.109 -0.2870  0.2791 -0.1785
  404MOL0     C53237  -2.219  10.246   4.261  0.2991 -0.8702  0.5972
  404MOL0     C53238  -2.340  10.306   4.324 -0.2783 -0.0354  0.2452
  404MOL0     C53239  -2.463  10.295   4.243  0.6331  0.5132  0.0969
  404MOL0    Cl53240  -2.515  10.119   4.210  0.5032  0.4891  0.0442
  404MOL0     C53241  -1.955  10.031   3.413  0.0463  0.6275 -1.3931
  404MOL0     C53242  -1.872  10.057   3.294 -0.3663  0.0485  0.0373
  404MOL0     O53243  -1.745  10.312   3.168  0.2506  0.7025 -0.4285
  404MOL0     C53244  -1.576  10.345   2.942  0.1380  0.2966 -0.2233
  404MOL0     C53245  -1.497  10.352   2.825 -0.2042  0.3351 -0.1733
  404MOL0     N53246  -1.018  10.291   2.531 -0.7130  0.4123  0.5355
  404MOL0     N53247  -0.890  10.279   2.546 -0.1788 -0.5523  0.0074
  404MOL0     C53248   0.301  10.707   2.373  0.6613 -0.3889 -0.6510
  404MOL0     C53249   0.414  10.788   2.387 -0.7172 -0.4752 -0.1539
  404MOL0     C53250   0.809  11.002   2.405 -0.6777 -0.7008  0.2465
  404MOL0     C53251   0.923  10.917   2.372 -0.3640 -0.4490 -0.4334
  404MOL0     C53252   1.052  10.961   2.417  0.6498  0.4823  1.4107
  404MOL0     C53253   1.061  11.079   2.497 -0.7482  1.3086 -0.8031
  404MOL0     O53254   1.184  11.108   2.542  0.2837  0.5331  0.1601
  404MOL0     C53255   1.218  11.213   2.633  0.2005 -0.5486 -0.7584
  404MOL0     C53256   1.363  11.235   2.626 -0.6969 -0.4514 -0.4207
  404MOL0     C53257   1.405  11.276   2.483  0.2682 -0.7551 -0.3575
  404MOL0     C53258   1.547  11.329   2.471 -0.3672 -0.7055  0.2465
  404MOL0     C53259   1.648  11.221   2.499  0.0427 -0.8063 -0.3702
  404MOL0     C53260   1.741  11.154   2.527  0.4406  0.5266  0.1394
  404MOL0     C53261   0.945  11.151   2.527 -0.2486 -1.0656 -0.6016
  404MOL0     C53262   0.827  11.121   2.476  0.2578  0.0473  0.0657
  404MOL0     H53263   0.635  10.577   2.245  0.3924  2.2522 -0.1643
  404MOL0     H53264   0.440  10.443   2.214  2.2922  0.1395  0.6577
  404MOL0     H53265   0.051  10.590   2.175  1.1380  0.8365  0.4075
  404MOL0     H53266   0.061  10.634   2.352  2.8056  2.2545 -1.3834
  404MOL0     H53267   0.051  10.395   2.409 -1.3099  0.3777  2.1558
  404MOL0     H53268  -0.017  10.353   2.249  0.0652 -0.9743  1.6585
  404MOL0     H53269  -0.207  10.511   2.289  2.0187  0.0964 -1.7548
  404MOL0     H53270  -0.147  10.511   2.455 -0.6067 -1.3483 -0.0606
  404MOL0     H53271  -0.257  10.279   2.288  1.1755  0.3126  1.0211
  404MOL0     H53272  -0.173  10.243   2.433 -1.7205 -2.5369 -2.3076
  404MOL0     H53273  -0.412  10.432   2.403  1.2277  0.8150  0.0012
  404MOL0     H53274  -0.351  10.386   2.553  1.6204  2.5010 -1.0003
  404MOL0     H53275  -0.388  10.145   2.504  4.1099  0.6127 -2.0879
  404MOL0     H53276  -0.454  10.193   2.341  3.6916  1.3588 -0.7447
  404MOL0     H53277  -0.586  10.269   2.611  0.6852  1.4013 -0.7467
  404MOL0     H53278  -0.635  10.341   2.473  0.8342  1.1059  1.4664
  404MOL0     H53279  -0.715  10.062   2.522 -3.4825  1.7478  0.6690
  404MOL0     H53280  -0.660  10.088   2.365 -1.8792 -2.4834  1.0364
  404MOL0     H53281  -0.930  10.070   2.290  2.3634 -1.5573  1.0305
  404MOL0     H53282  -1.199  10.106   2.301 -0.6885  2.6546 -1.1649
  404MOL0     H53283  -1.232  10.261   2.356 -0.2231 -0.4056  0.9418
  404MOL0     H53284  -1.236  10.160   2.599 -0.4740 -2.0844  2.7489
  404MOL0     H53285  -1.222  10.000   2.524 -1.1624  0.0936  4.9222
  404MOL0     H53286  -1.427  10.034   2.386  0.8968 -2.0826  1.6716
  404MOL0     H53287  -1.446  10.031   2.567  2.5649 -3.2982  0.3481
  404MOL0     H53288  -1.581  10.219   2.441  0.6268  1.3571 -1.7284
  404MOL0     H53289  -1.430  10.280   2.399  2.6820 -1.7786 -1.8348
  404MOL0     H53290  -1.691  10.146   2.629  1.3799  0.8006 -0.6452
  404MOL0     H53291  -1.816  10.139   2.834  0.8268 -2.2448  2.7137
  404MOL0     H53292  -2.143  10.161   3.108  0.0373 -1.8636  0.2577
  404MOL0     H53293  -2.260  10.101   3.283 -0.4967  2.9730 -0.2067
  404MOL0     H53294  -2.172  10.226   3.572  1.0132 -0.9209 -2.2820
  404MOL0     H53295  -2.037  10.140   3.667  0.2836 -3.1218  0.4167
  404MOL0     H53296  -2.214  10.038   3.804  1.4766  0.5198  0.8441
  404MOL0     H53297  -2.334  10.149   3.718  0.1722  2.7517  0.3356
  404MOL0     H53298  -2.246  10.328   3.863 -2.4926 -1.4869  2.6807
  404MOL0     H53299  -2.080  10.244   3.866  1.5387 -2.6151 -2.4427
  404MOL0     H53300  -2.334  10.157   4.005 -0.0616 -0.4014  1.0474
  404MOL0     H53301  -2.183  10.091   4.044 -0.1876 -0.5513  0.8672
  404MOL0     H53302  -2.259  10.381   4.083  0.1725  0.0275 -2.2176
  404MOL0     H53303  -2.095  10.311   4.107 -0.5193  1.5375 -1.1326
  404MOL0     H53304  -2.132  10.282   4.318 -0.2230  0.0148  0.8533
  404MOL0     H53305  -2.219  10.137   4.270  0.3722 -0.8001  1.5539
  404MOL0     H53306  -2.336  10.269   4.426  1.7811  0.1151  0.2611
  404MOL0     H53307  -2.330  10.414   4.339 -2.3053  0.4192 -1.2027
  404MOL0     H53308  -2.456  10.357   4.154  1.8542 -1.4636 -1.2601
  404MOL0     H53309  -2.549  10.324   4.305 -0.0650 -2.1793  0.5220
  404MOL0     H53310  -1.908  10.000   3.505 -0.7735  0.4346 -1.0316
  404MOL0     H53311  -1.763  10.061   3.301 -0.5049  0.7393  2.5325
  404MOL0     H53312  -1.547  10.392   3.036  0.4088 -0.9690  0.3509
  404MOL0     H53313  -1.419  10.427   2.823 -1.0707  1.2531 -0.6278
  404MOL0     H53314   0.210  10.753   2.409  3.1888  0.4293  6.1503
  404MOL0     H53315   0.390  10.880   2.439  0.6052 -0.8164  1.1232
  404MOL0     H53316   0.924  10.837   2.299 -0.4300 -0.2338 -0.6724
  404MOL0     H53317   1.152  10.927   2.390  0.7266  0.9241  1.1327
  404MOL0     H53318   1.184  11.192   2.735  1.0194  2.7016  0.3071
  404MOL0     H53319   1.161  11.304   2.612 -0.4446  0.0082  2.8681
  404MOL0     H53320   1.384  11.308   2.704  2.4568 -1.2528 -0.4009
  404MOL0     H53321   1.424  11.147   2.646  0.6144  0.5281 -0.0236
  404MOL0     H53322   1.338  11.352   2.442  1.5530 -0.8254 -2.8000
  404MOL0     H53323   1.405  11.190   2.416  3.9656 -1.2406  0.0726
  404MOL0     H53324   1.564  11.365   2.369  2.2866  0.3295  0.9833
  404MOL0     H53325   1.554  11.413   2.540  2.5309 -0.4329 -0.2576
  404MOL0     H53326   1.838  11.110   2.537  0.5952  1.0716  1.1896
  404MOL0     H53327   0.963  11.240   2.586  3.1310 -0.5542 -2.1960
  404MOL0     H53328   0.750  11.194   2.499  0.0039 -1.2659  4.2165
  405MOL0     O53329   7.212  10.264   0.400  0.7343 -0.2157 -1.2006
  405MOL0     C53330   7.201  10.144   0.401  0.6424  1.1647  0.4167
  405MOL0     O53331   7.106  10.072   0.466  0.2562  0.2728  0.3696
  405MOL0     C53332   7.001  10.144   0.518 -0.0112  0.2114 -0.5924
  405MOL0     C53333   7.007  10.256   0.606 -0.1387  0.6279 -0.2326
  405MOL0     C53334   6.889  10.312   0.660  0.3503 -0.2934  0.2806
  405MOL0     C53335   6.760  10.278   0.610 -0.1330 -0.0540 -0.7151
  405MOL0     O53336   6.642  10.341   0.647  0.9590 -0.3602 -0.1436
  405MOL0     C53337   6.627  10.441   0.550 -0.4068 -0.1948 -0.7279
  405MOL0     C53338   6.534  10.552   0.606  0.8743  0.8111  0.9164
  405MOL0     C53339   6.388  10.509   0.610  0.2517  1.0144 -0.0631
  405MOL0     C53340   6.299  10.599   0.686 -0.0509  0.1594  0.5758
  405MOL0     C53341   6.166  10.547   0.715  1.0338  0.1827  0.6044
  405MOL0     C53342   6.080  10.573   0.594 -0.7511 -0.6651 -0.5007
  405MOL0     C53343   5.934  10.529   0.621  0.1253 -0.2665 -0.8590
  405MOL0     C53344   5.844  10.554   0.502  0.2076 -0.1131  0.7294
  405MOL0     N53345   5.698  10.543   0.542 -0.2521  0.2397  0.2595
  405MOL0     C53346   5.621  10.638   0.614 -0.6412  0.0465  0.9868
  405MOL0     C53347   5.487  10.598   0.609  0.2292  0.3881  0.1705
  405MOL0     C53348   5.363  10.665   0.667 -0.1760 -0.4852  0.2265
  405MOL0     C53349   5.336  10.781   0.572  0.5212  0.4976  0.0832
  405MOL0     C53350   5.197  10.823   0.600  0.5351  0.5253 -0.0660
  405MOL0     C53351   5.159  10.969   0.537 -0.3113 -0.7206 -0.7938
  405MOL0     O53352   5.158  10.955   0.397 -0.2756 -0.4350  0.3772
  405MOL0     C53353   5.096  11.054   0.311 -0.7465 -0.1973 -0.6382
  405MOL0     C53354   5.038  11.170   0.369 -0.1313 -0.8065  0.5780
  405MOL0     C53355   4.982  11.268   0.291  0.3260 -0.0975 -0.6279
  405MOL0     C53356   4.972  11.256   0.153  0.1264  0.3225  0.6155
  405MOL0     C53357   4.899  11.348   0.062  0.0380 -0.1462 -0.5704
  405MOL0     O53358   4.951  11.349  -0.069  0.7483 -0.2132 -0.4568
  405MOL0     C53359   4.874  11.391  -0.165  1.3343  0.0976 -0.5991
  405MOL0     C53360   4.738  11.355  -0.179  0.4931 -1.0339  0.1759
  405MOL0     C53361   4.674  11.402  -0.299 -0.0357  0.7768 -0.8613
  405MOL0     C53362   4.744  11.473  -0.403 -1.1596 -0.4077 -0.4661
  405MOL0     O53363   4.672  11.522  -0.508  0.4764 -0.2944  0.1839
  405MOL0     C53364   4.722  11.632  -0.588 -0.6870  1.1533  0.6083
  405MOL0     C53365   4.605  11.671  -0.682  0.5914  0.5869 -0.5748
  405MOL0     C53366   4.598  11.563  -0.788  0.1051  0.0843  0.4398
  405MOL0     C53367   4.481  11.579  -0.890 -0.0192 -0.4288  0.3010
  405MOL0     C53368   4.492  11.459  -0.997  0.1896 -0.7413 -0.1585
  405MOL0     C53369   4.359  11.440  -1.064  0.5657  0.9930 -0.3311
  405MOL0     C53370   4.365  11.334  -1.168  0.2046 -0.4892 -0.5287
  405MOL0     C53371   4.228  11.337  -1.247  0.0545 -0.0411 -0.5531
  405MOL0    Cl53372   4.242  11.209  -1.366 -0.2799 -0.4684  0.3096
  405MOL0     C53373   4.882  11.508  -0.386  0.8302  0.5496  0.2184
  405MOL0     C53374   4.940  11.460  -0.266 -0.7664  0.6931 -0.0765
  405MOL0     O53375   4.806  11.423   0.107 -0.2820  1.0539 -0.1223
  405MOL0     C53376   5.013  11.130   0.096 -0.8628 -0.0071 -0.9577
  405MOL0     C53377   5.090  11.041   0.172 -0.8835  0.2319 -0.2573
  405MOL0     N53378   5.491  10.479   0.539  0.1194  0.5615 -0.9103
  405MOL0     N53379   5.611  10.453   0.499  1.5016  0.6734  0.0884
  405MOL0     C53380   6.761  10.165   0.527 -0.3002  0.4926  0.3237
  405MOL0     C53381   6.878  10.095   0.478  0.4465 -0.2758  0.4689
  405MOL0     C53382   7.311  10.072   0.330  0.6383  0.3051  0.8097
  405MOL0     C53383   7.412  10.142   0.259  0.5669 -0.0154 -0.4884
  405MOL0     C53384   7.527  10.066   0.210  0.1039  0.6933 -0.4244
  405MOL0     C53385   7.529   9.927   0.221  0.4385  0.5219 -0.4296
  405MOL0     O53386   7.640   9.849   0.194  0.4012  0.1470 -0.3339
  405MOL0     C53387   7.775   9.899   0.175 -0.6984 -0.0142  0.9230
  405MOL0     C53388   7.804   9.900   0.025  0.4307  0.9365  0.4316
  405MOL0     C53389   7.940   9.940  -0.009  0.1244  0.4782 -0.4501
  405MOL0     C53390   7.963  10.092  -0.024  0.4739  0.4853 -1.6592
  405MOL0     C53391   7.971  10.170   0.100 -0.5050  1.1774 -0.8766
  405MOL0     C53392   7.979  10.234   0.203  0.5506 -0.3690 -0.6487
  405MOL0     C53393   7.415   9.866   0.257  0.4287  0.0658  0.5890
  405MOL0     C53394   7.317   9.932   0.320  1.8215 -0.0256  0.3353
  405MOL0     H53395   7.107  10.281   0.640 -0.9981  0.4311  2.6864
  405MOL0     H53396   6.895  10.376   0.747 -0.6717 -0.1397  0.2504
  405MOL0     H53397   6.596  10.399   0.454 -1.6200  2.3757 -1.5443
  405MOL0     H53398   6.730  10.476   0.535 -0.0539 -0.7780  0.1879
  405MOL0     H53399   6.535  10.629   0.528 -1.7391 -1.4613 -1.6210
  405MOL0     H53400   6.569  10.584   0.704  0.4858 -0.1971  1.4024
  405MOL0     H53401   6.386  10.421   0.675  2.4877 -0.0514 -1.2742
  405MOL0     H53402   6.353  10.480   0.510 -1.1260 -0.4211  0.8053
  405MOL0     H53403   6.353  10.623   0.778  2.5756  2.2009 -1.3468
  405MOL0     H53404   6.303  10.686   0.620 -1.4568 -0.5813 -0.5486
  405MOL0     H53405   6.117  10.596   0.800 -0.2287 -1.3933  0.8391
  405MOL0     H53406   6.170  10.442   0.743  0.2445  0.6214  2.4929
  405MOL0     H53407   6.124  10.517   0.511 -2.8789 -2.5523 -0.4701
  405MOL0     H53408   6.069  10.679   0.571 -1.9198 -0.4522  0.9169
  405MOL0     H53409   5.922  10.422   0.638 -1.6791 -0.9795 -5.3015
  405MOL0     H53410   5.905  10.585   0.710  1.3685 -0.6077 -0.2145
  405MOL0     H53411   5.864  10.499   0.409 -4.2266  0.3400 -0.7251
  405MOL0     H53412   5.848  10.661   0.480  0.9734  0.2359  2.4282
  405MOL0     H53413   5.662  10.728   0.658 -3.1150  2.2648 -0.9247
  405MOL0     H53414   5.395  10.707   0.763  0.1539  0.6054 -0.3359
  405MOL0     H53415   5.280  10.601   0.694  1.1961 -1.2675  2.8976
  405MOL0     H53416   5.351  10.759   0.465  1.8386 -1.8767  0.6822
  405MOL0     H53417   5.396  10.869   0.600 -0.4497  1.6316 -1.2421
  405MOL0     H53418   5.136  10.743   0.558 -0.4292  0.8294  0.7059
  405MOL0     H53419   5.165  10.820   0.705 -0.3180  3.0091 -0.1849
  405MOL0     H53420   5.238  11.041   0.561 -0.7471 -0.9818  1.7465
  405MOL0     H53421   5.067  11.007   0.582  1.5713  0.6231  2.2312
  405MOL0     H53422   5.052  11.199   0.473  0.1656  0.0585  0.3056
  405MOL0     H53423   4.943  11.350   0.351  2.3429  1.6057 -1.5136
  405MOL0     H53424   4.686  11.303  -0.099 -1.2452  0.8559  0.3616
  405MOL0     H53425   4.567  11.384  -0.297  0.3493 -1.9110 -0.3649
  405MOL0     H53426   4.814  11.596  -0.635 -1.8263 -2.5544  0.9684
  405MOL0     H53427   4.740  11.725  -0.532 -1.8730  2.1075 -0.5470
  405MOL0     H53428   4.610  11.769  -0.732  1.4476  0.8917  0.0799
  405MOL0     H53429   4.511  11.667  -0.627 -0.0671 -0.0646 -1.7260
  405MOL0     H53430   4.576  11.462  -0.751  1.5135 -0.6353 -0.6094
  405MOL0     H53431   4.696  11.557  -0.837  0.0369 -0.3558  0.3496
  405MOL0     H53432   4.387  11.592  -0.835  0.0865  2.6574 -0.0919
  405MOL0     H53433   4.493  11.676  -0.939  0.3574 -0.8077 -0.3704
  405MOL0     H53434   4.535  11.373  -0.945  0.5992  0.7580  2.1490
  405MOL0     H53435   4.561  11.495  -1.073 -0.3833 -3.1009 -1.9113
  405MOL0     H53436   4.321  11.536  -1.099 -0.4563  0.3982 -0.8814
  405MOL0     H53437   4.292  11.398  -0.988  1.4719 -0.2529 -0.1830
  405MOL0     H53438   4.446  11.351  -1.239  3.4704 -3.0754  2.2361
  405MOL0     H53439   4.382  11.234  -1.127  0.5717 -0.1491  0.1566
  405MOL0     H53440   4.225  11.431  -1.302 -0.4017 -1.9866 -4.1602
  405MOL0     H53441   4.133  11.328  -1.193  1.1606 -2.0258  1.2125
  405MOL0     H53442   4.951  11.562  -0.450 -0.0808 -1.7706 -2.9556
  405MOL0     H53443   5.043  11.483  -0.244 -0.8617 -0.8679  2.4178
  405MOL0     H53444   4.992  11.113  -0.009 -1.1440 -0.7117 -0.7880
  405MOL0     H53445   5.136  10.952   0.131  1.0188  1.2633 -0.4530
  405MOL0     H53446   6.669  10.110   0.514  0.5229 -0.8317 -0.0388
  405MOL0     H53447   6.871  10.005   0.419 -2.2255  1.0032 -1.3728
  405MOL0     H53448   7.426  10.249   0.272 -0.7726  0.0605  0.5545
  405MOL0     H53449   7.609  10.128   0.177 -1.1866  3.4262  1.1947
  405MOL0     H53450   7.840   9.829   0.227  3.8667  1.3380 -2.3499
  405MOL0     H53451   7.782   9.999   0.217 -1.8411  0.3595  0.2787
  405MOL0     H53452   7.797   9.799  -0.017 -2.4111  0.4954  1.7291
  405MOL0     H53453   7.732   9.974  -0.011  0.9318  1.6659  0.9130
  405MOL0     H53454   7.958   9.890  -0.105  0.0402 -0.1044 -0.1662
  405MOL0     H53455   8.011   9.907   0.067 -0.6988  1.7983  0.9250
  405MOL0     H53456   8.055  10.097  -0.083  0.3395 -1.9560 -2.1761
  405MOL0     H53457   7.877  10.140  -0.073 -0.6491  1.2345  0.8932
  405MOL0     H53458   7.969  10.290   0.293 -1.6116  2.0194 -2.2539
  405MOL0     H53459   7.409   9.761   0.230  0.4760  0.2420 -0.1375
  405MOL0     H53460   7.233   9.881   0.367  1.6870  2.2880  2.9055
  406MOL0     O53461   0.880   5.320   3.942 -0.1968 -0.4177 -1.2882
  406MOL0     C53462   0.869   5.234   3.855  0.2380  1.4725  0.2563
  406MOL0     O53463   0.772   5.134   3.862 -1.1766 -0.0585 -0.0791
  406MOL0     C53464   0.689   5.125   3.973 -0.0142  0.1466 -0.5753
  406MOL0     C53465   0.629   5.233   4.037 -0.0960  0.2866 -0.9337
  406MOL0     C53466   0.534   5.200   4.140  1.0125  0.0578 -0.5430
  406MOL0     C53467   0.504   5.073   4.174  0.3788 -0.8899 -0.0184
  406MOL0     O53468   0.410   5.061   4.274 -0.1659 -0.9732  0.1504
  406MOL0     C53469   0.356   4.942   4.323  1.2515 -0.2288  0.3833
  406MOL0     C53470   0.219   4.913   4.268  1.3369 -0.1729  0.1062
  406MOL0     C53471   0.147   4.795   4.346 -1.5416  0.2358  0.2969
  406MOL0     C53472   0.018   4.755   4.292  0.6128  0.1663 -0.2158
  406MOL0     C53473  -0.050   4.647   4.367  0.7573 -0.4425 -0.7512
  406MOL0     C53474  -0.183   4.601   4.295 -0.8413 -0.0456  0.2372
  406MOL0     C53475  -0.271   4.712   4.231 -1.1884 -0.9082  0.7311
  406MOL0     C53476  -0.421   4.689   4.237 -0.8954 -0.4310 -0.3654
  406MOL0     N53477  -0.454   4.571   4.169 -0.0133 -0.4007 -0.3647
  406MOL0     C53478  -0.447   4.443   4.222  0.4387 -0.0654 -1.0429
  406MOL0     C53479  -0.473   4.358   4.118  0.1857 -1.0148 -0.0657
  406MOL0     C53480  -0.462   4.210   4.137 -0.7564  0.7743 -0.4106
  406MOL0     C53481  -0.318   4.155   4.139 -1.0810  0.4763 -0.4648
  406MOL0     C53482  -0.252   4.164   4.001 -0.6273  0.0118  1.0152
  406MOL0     C53483  -0.099   4.121   4.020 -0.1763  0.1817 -0.6577
  406MOL0     O53484  -0.020   4.212   4.098 -0.2220 -0.3156  0.2502
  406MOL0     C53485   0.057   4.307   4.039 -0.1703 -0.4900 -0.2759
  406MOL0     C53486   0.166   4.357   4.104  0.7193  0.1569 -0.8703
  406MOL0     C53487   0.233   4.477   4.075 -0.3822 -0.3569  0.6471
  406MOL0     C53488   0.194   4.544   3.954 -0.2401  0.7052 -0.0021
  406MOL0     C53489   0.253   4.670   3.931  0.5492  0.1611  0.2719
  406MOL0     O53490   0.216   4.736   3.811 -0.0763  0.4404 -0.4211
  406MOL0     C53491   0.293   4.837   3.761 -0.2052 -0.0493 -0.0696
  406MOL0     C53492   0.225   4.930   3.687  0.4908 -0.4218 -0.6314
  406MOL0     C53493   0.286   5.045   3.635 -0.9083 -0.1598  0.0628
  406MOL0     C53494   0.423   5.065   3.645  0.5898 -0.4586  0.3855
  406MOL0     O53495   0.471   5.172   3.578  0.7644 -0.2735 -0.5079
  406MOL0     C53496   0.602   5.213   3.547 -0.5575  0.6146  0.3047
  406MOL0     C53497   0.607   5.329   3.458 -0.9396 -0.4865  0.3836
  406MOL0     C53498   0.755   5.356   3.416  0.7162 -1.0483 -0.4446
  406MOL0     C53499   0.735   5.479   3.323  0.2485 -0.3575 -1.3249
  406MOL0     C53500   0.795   5.621   3.372 -1.4211 -0.0547 -0.4353
  406MOL0     C53501   0.943   5.618   3.419 -0.1076  1.1510 -0.1544
  406MOL0     C53502   0.983   5.752   3.481 -0.2228 -0.0786 -0.0362
  406MOL0     C53503   1.120   5.739   3.535 -0.2437 -0.1760 -0.1438
  406MOL0    Cl53504   1.182   5.880   3.626 -0.0150  0.2519 -0.0004
  406MOL0     C53505   0.501   4.966   3.706 -0.2853 -0.0617  0.7060
  406MOL0     C53506   0.438   4.854   3.759  0.5652  0.3703 -0.9367
  406MOL0     O53507   0.350   4.701   4.004  0.4086  0.1328  0.8389
  406MOL0     C53508   0.110   4.476   3.858  0.1513  0.8307 -0.8908
  406MOL0     C53509   0.027   4.367   3.912 -0.5736  0.9010 -0.7112
  406MOL0     N53510  -0.505   4.433   4.008  0.0656  0.0425 -0.2632
  406MOL0     N53511  -0.489   4.556   4.042 -0.1817 -0.0277 -0.2498
  406MOL0     C53512   0.566   4.968   4.106  0.9143 -0.8781 -0.0372
  406MOL0     C53513   0.655   4.995   4.015 -0.8295  0.2155  0.3069
  406MOL0     C53514   0.961   5.235   3.730  0.3167 -0.7466 -0.0134
  406MOL0     C53515   1.039   5.347   3.706  0.2083 -0.2187  0.1596
  406MOL0     C53516   1.115   5.352   3.587 -0.5800 -0.0448  0.0272
  406MOL0     C53517   1.103   5.247   3.490  0.3620 -0.3917 -0.0221
  406MOL0     O53518   1.179   5.271   3.377  1.2244 -0.1324 -0.1876
  406MOL0     C53519   1.109   5.250   3.246  0.2790 -0.3269 -0.6125
  406MOL0     C53520   1.212   5.273   3.136 -0.4800 -0.7351 -0.6975
  406MOL0     C53521   1.352   5.203   3.155 -0.6057 -0.0096  0.3172
  406MOL0     C53522   1.473   5.283   3.105 -0.1880 -0.1844 -0.8235
  406MOL0     C53523   1.518   5.390   3.196 -0.1642  0.1560  0.1352
  406MOL0     C53524   1.562   5.495   3.250  0.4577 -0.0456 -0.0743
  406MOL0     C53525   1.026   5.138   3.521 -0.2094  0.0040 -0.0861
  406MOL0     C53526   0.954   5.133   3.639  0.0229  0.1894 -0.3178
  406MOL0     H53527   0.658   5.331   4.002  2.5767 -0.2176 -0.3698
  406MOL0     H53528   0.489   5.283   4.194  1.2017 -0.2754  0.1354
  406MOL0     H53529   0.352   4.954   4.432  0.0786 -0.7766  0.4168
  406MOL0     H53530   0.408   4.845   4.323 -2.9214 -2.7809  2.6631
  406MOL0     H53531   0.208   4.888   4.162 -3.8580 -0.2312  0.3917
  406MOL0     H53532   0.160   5.004   4.280  3.9672  1.5834  0.5326
  406MOL0     H53533   0.143   4.807   4.455 -1.2715  0.0843  0.3235
  406MOL0     H53534   0.218   4.714   4.329 -1.3455  0.5938 -0.6504
  406MOL0     H53535  -0.045   4.844   4.284  0.1422 -0.2816 -1.9334
  406MOL0     H53536   0.042   4.719   4.192  0.1496 -1.5571  0.2686
  406MOL0     H53537  -0.071   4.682   4.468  2.0977 -1.7225  0.0241
  406MOL0     H53538   0.016   4.560   4.376  0.1962 -0.6402  2.9891
  406MOL0     H53539  -0.238   4.540   4.367 -1.5205  1.7990  1.3745
  406MOL0     H53540  -0.152   4.533   4.216 -1.9305  0.0639 -0.3012
  406MOL0     H53541  -0.254   4.807   4.283 -0.2950  0.3645 -1.7416
  406MOL0     H53542  -0.233   4.716   4.129 -1.3160 -1.8588  0.6432
  406MOL0     H53543  -0.468   4.768   4.179 -2.8851 -0.6264  0.8780
  406MOL0     H53544  -0.467   4.697   4.337 -1.7065 -1.2572 -0.6507
  406MOL0     H53545  -0.426   4.422   4.327 -3.4589  2.2350  0.4154
  406MOL0     H53546  -0.513   4.158   4.055  3.9170  0.8139 -3.7614
  406MOL0     H53547  -0.511   4.179   4.229 -2.8633  3.8491 -0.3259
  406MOL0     H53548  -0.307   4.057   4.186 -3.4646  0.4073  0.0685
  406MOL0     H53549  -0.251   4.207   4.208  3.2192 -3.7900 -0.9127
  406MOL0     H53550  -0.287   4.093   3.926  0.5522  1.1319 -0.6510
  406MOL0     H53551  -0.262   4.259   3.949 -0.9608 -0.4597  0.1953
  406MOL0     H53552  -0.050   4.105   3.923  1.8903  0.6651  0.2402
  406MOL0     H53553  -0.108   4.026   4.074  1.2608  0.1642 -0.3909
  406MOL0     H53554   0.191   4.312   4.200 -1.7818  0.9473  0.2368
  406MOL0     H53555   0.307   4.525   4.138  0.7937  0.9274 -1.5833
  406MOL0     H53556   0.119   4.912   3.679  0.2978 -0.5616  1.6751
  406MOL0     H53557   0.240   5.128   3.583  3.2006  3.0373  1.0204
  406MOL0     H53558   0.651   5.129   3.498  0.2756  1.8183 -0.9788
  406MOL0     H53559   0.658   5.242   3.636  2.1931 -1.4914 -0.5804
  406MOL0     H53560   0.570   5.419   3.508  0.4828  2.1513 -2.9261
  406MOL0     H53561   0.532   5.311   3.381 -0.2875 -0.0095 -0.3879
  406MOL0     H53562   0.793   5.272   3.358  0.6108  0.4674 -2.8480
  406MOL0     H53563   0.807   5.393   3.505 -1.6741  4.3870 -0.8919
  406MOL0     H53564   0.778   5.469   3.223  1.4850  3.2032 -1.2869
  406MOL0     H53565   0.629   5.501   3.311  0.5092  0.4271 -2.2501
  406MOL0     H53566   0.736   5.673   3.448  3.6357  1.0417  3.2830
  406MOL0     H53567   0.800   5.697   3.293 -0.6228  1.7566  1.2616
  406MOL0     H53568   1.007   5.574   3.342 -1.6658  1.1572 -1.5281
  406MOL0     H53569   0.947   5.549   3.504  0.5392 -0.9828 -1.8282
  406MOL0     H53570   0.978   5.842   3.418  1.1550  2.0687  2.6603
  406MOL0     H53571   0.914   5.768   3.564 -0.8400 -2.4044 -0.0372
  406MOL0     H53572   1.179   5.714   3.446 -1.8800  1.1320 -1.6566
  406MOL0     H53573   1.123   5.658   3.608 -0.0930  1.9261  2.3280
  406MOL0     H53574   0.606   4.983   3.723 -0.8570 -0.0090  5.2885
  406MOL0     H53575   0.506   4.774   3.783 -0.0483 -0.5481 -2.1533
  406MOL0     H53576   0.088   4.530   3.767 -2.3388  2.1425  0.4074
  406MOL0     H53577  -0.047   4.318   3.849 -1.8348  0.3952  1.0826
  406MOL0     H53578   0.542   4.865   4.129 -1.2600 -1.1237 -2.8610
  406MOL0     H53579   0.709   4.913   3.969  1.5502  2.3548 -1.0002
  406MOL0     H53580   1.048   5.416   3.789  0.5224  0.9154 -0.7765
  406MOL0     H53581   1.191   5.428   3.577  0.7061 -1.2175  0.5513
  406MOL0     H53582   1.031   5.326   3.236 -0.4135 -0.7717  1.0601
  406MOL0     H53583   1.073   5.148   3.236 -0.5857 -0.0139 -0.7247
  406MOL0     H53584   1.180   5.239   3.037  1.2773 -0.1651 -1.5181
  406MOL0     H53585   1.227   5.381   3.137 -0.0068 -0.7984 -0.4934
  406MOL0     H53586   1.353   5.108   3.100  2.0389  0.4764 -0.6156
  406MOL0     H53587   1.378   5.166   3.255 -0.7892  0.3122  0.4841
  406MOL0     H53588   1.557   5.215   3.109 -0.5690 -0.6144  2.2255
  406MOL0     H53589   1.443   5.321   3.007 -1.2365  2.7006  0.4749
  406MOL0     H53590   1.584   5.592   3.290  1.5894  0.4218 -1.7279
  406MOL0     H53591   1.050   5.058   3.451 -0.7806  0.0039 -0.2894
  406MOL0     H53592   0.902   5.038   3.651 -1.1716  0.6940 -1.3342
  407MOL0     O53593   5.271   0.046   3.005  0.8582 -0.5870 -0.3122
  407MOL0     C53594   5.272  -0.048   2.928  0.1288 -0.1579 -0.2741
  407MOL0     O53595   5.356  -0.063   2.822  0.0355  0.0450  0.9239
  407MOL0     C53596   5.449   0.033   2.820  0.4422 -0.5187  0.4302
  407MOL0     C53597   5.567   0.017   2.907 -0.6896  0.3793 -0.0619
  407MOL0     C53598   5.664   0.119   2.912  0.6144  0.5767 -0.6250
  407MOL0     C53599   5.639   0.244   2.842  0.0639 -0.0731 -0.4664
  407MOL0     O53600   5.717   0.353   2.846 -0.5094  0.0582  0.6380
  407MOL0     C53601   5.857   0.331   2.813  0.6504 -0.4370  0.0392
  407MOL0     C53602   5.889   0.463   2.741  0.1090 -0.1568 -1.2016
  407MOL0     C53603   5.835   0.469   2.596  0.6774 -0.3929 -0.1653
  407MOL0     C53604   5.848   0.602   2.532 -0.1521 -0.2507 -0.3959
  407MOL0     C53605   5.710   0.668   2.536  0.5390 -0.3102 -0.1431
  407MOL0     C53606   5.691   0.802   2.477  0.4999  0.0028  0.1113
  407MOL0     C53607   5.715   0.816   2.326  0.6360  0.5120  0.4617
  407MOL0     C53608   5.688   0.955   2.264 -0.1587  0.1845 -0.1736
  407MOL0     N53609   5.553   0.998   2.241  0.1988 -0.8722 -0.4690
  407MOL0     C53610   5.445   0.985   2.321  0.2769 -0.2729  0.1452
  407MOL0     C53611   5.345   1.053   2.259  0.2672  0.8530 -0.0218
  407MOL0     C53612   5.198   1.068   2.316  0.4423  0.6592  0.1680
  407MOL0     C53613   5.093   1.142   2.227  0.3591  0.4009  0.3154
  407MOL0     C53614   4.950   1.155   2.287  0.8865  0.0639  0.0765
  407MOL0     C53615   4.881   1.017   2.317  0.1726 -0.0448  0.5032
  407MOL0     O53616   4.840   0.955   2.190 -0.1748  0.0971  0.6388
  407MOL0     C53617   4.741   0.862   2.189 -1.4209 -0.6307 -0.0476
  407MOL0     C53618   4.648   0.833   2.291 -0.3416 -0.5495 -0.0904
  407MOL0     C53619   4.546   0.742   2.281 -0.2314  0.0724 -0.6655
  407MOL0     C53620   4.540   0.669   2.162 -0.3919 -0.3022 -0.2154
  407MOL0     C53621   4.424   0.583   2.142  0.5678 -0.1985 -0.2933
  407MOL0     O53622   4.416   0.508   2.033 -0.6302  0.0748 -0.0041
  407MOL0     C53623   4.316   0.422   2.017  0.3721  0.4423  0.3343
  407MOL0     C53624   4.177   0.450   2.025 -0.2662 -0.1608  0.8689
  407MOL0     C53625   4.088   0.358   1.968  0.2328  0.3354  0.8174
  407MOL0     C53626   4.127   0.228   1.926  0.4228 -0.1756  1.4550
  407MOL0     O53627   4.024   0.139   1.894  0.1641 -0.1736  0.1513
  407MOL0     C53628   4.065   0.012   1.854  0.2563  1.1012  0.5827
  407MOL0     C53629   3.940  -0.068   1.799 -0.1647 -0.5949 -0.4453
  407MOL0     C53630   3.975  -0.207   1.774 -0.3910 -0.6004  0.3197
  407MOL0     C53631   3.855  -0.279   1.735 -0.0322  0.9564  0.7003
  407MOL0     C53632   3.873  -0.430   1.714  0.8358  0.3738  0.8872
  407MOL0     C53633   3.933  -0.504   1.830  0.8622 -0.7718 -0.2787
  407MOL0     C53634   3.880  -0.648   1.854  0.3791  0.4734  0.3477
  407MOL0     C53635   3.924  -0.699   1.990  0.4072  1.2594  0.6344
  407MOL0    Cl53636   3.819  -0.615   2.107 -0.0079  0.1584 -0.2244
  407MOL0     C53637   4.267   0.201   1.924  0.2679  1.2686  0.0340
  407MOL0     C53638   4.360   0.297   1.972 -1.0458  0.2537  0.7511
  407MOL0     O53639   4.341   0.572   2.235 -0.4217 -1.1651  0.1367
  407MOL0     C53640   4.630   0.693   2.058 -0.3844  0.5862  0.1909
  407MOL0     C53641   4.738   0.783   2.067  0.3379  0.0181  0.4180
  407MOL0     N53642   5.395   1.090   2.136 -0.5581  0.0056  0.2562
  407MOL0     N53643   5.519   1.062   2.132 -0.1260 -0.3451  0.0915
  407MOL0     C53644   5.524   0.257   2.757 -0.0104  0.3187  0.1225
  407MOL0     C53645   5.436   0.153   2.745 -0.0901  0.0230 -0.5536
  407MOL0     C53646   5.174  -0.156   2.955  1.0866 -0.9590  0.6311
  407MOL0     C53647   5.179  -0.277   2.875 -0.4749  0.1209  0.5207
  407MOL0     C53648   5.101  -0.387   2.905  0.7880 -0.2353  0.0703
  407MOL0     C53649   4.995  -0.370   2.995  0.6519 -0.2864 -0.1319
  407MOL0     O53650   4.900  -0.465   3.033  0.3675 -0.0369  0.3074
  407MOL0     C53651   4.909  -0.596   2.963  0.4085  0.6002 -0.0457
  407MOL0     C53652   4.805  -0.686   3.018 -0.3596 -0.3811  0.1977
  407MOL0     C53653   4.873  -0.829   3.056  1.0978 -0.7826 -0.4280
  407MOL0     C53654   4.906  -0.860   3.204  0.0280 -0.3850  0.0182
  407MOL0     C53655   4.974  -0.735   3.251  1.6498  0.9847  0.2042
  407MOL0     C53656   5.028  -0.634   3.284 -0.3515 -0.1024 -0.5682
  407MOL0     C53657   4.988  -0.250   3.071 -0.2972  0.4066 -0.5511
  407MOL0     C53658   5.076  -0.144   3.052  0.4136  0.3112 -0.8819
  407MOL0     H53659   5.579  -0.071   2.971  0.5579  0.4637 -0.1666
  407MOL0     H53660   5.747   0.106   2.979  0.1783  0.7869 -0.0374
  407MOL0     H53661   5.880   0.243   2.752  2.2614 -0.1654  0.2150
  407MOL0     H53662   5.914   0.329   2.906 -1.2982 -0.7169  1.2879
  407MOL0     H53663   5.997   0.475   2.733 -0.0521  2.2675 -0.7344
  407MOL0     H53664   5.853   0.547   2.802  1.8477  1.5099 -2.3423
  407MOL0     H53665   5.731   0.435   2.602  0.5413  0.1912  1.1025
  407MOL0     H53666   5.897   0.400   2.538 -0.7737 -1.0388 -0.9869
  407MOL0     H53667   5.934   0.655   2.575  0.4408 -2.6074  1.5726
  407MOL0     H53668   5.870   0.585   2.427  0.3171 -1.2777 -0.1433
  407MOL0     H53669   5.684   0.683   2.641 -3.3370 -1.6774 -0.7357
  407MOL0     H53670   5.632   0.600   2.501 -1.9837  2.0003  0.5951
  407MOL0     H53671   5.744   0.888   2.520  0.3699  0.7062 -1.0861
  407MOL0     H53672   5.587   0.826   2.498 -0.3644 -3.0877 -0.2387
  407MOL0     H53673   5.818   0.784   2.306  0.3868 -2.0371  2.6812
  407MOL0     H53674   5.648   0.743   2.280  2.0365 -0.3691 -0.2501
  407MOL0     H53675   5.734   0.949   2.165 -0.1099  2.8549 -0.3658
  407MOL0     H53676   5.740   1.029   2.324  1.0700 -0.0341 -0.9242
  407MOL0     H53677   5.441   0.937   2.418 -1.4350 -2.6928 -1.0195
  407MOL0     H53678   5.203   1.100   2.420  0.1971  0.2446  0.3115
  407MOL0     H53679   5.164   0.964   2.309  0.0837  0.8670 -1.7032
  407MOL0     H53680   5.080   1.099   2.127 -1.6775 -3.5804  2.0285
  407MOL0     H53681   5.139   1.240   2.219  2.5808 -0.6799 -1.1625
  407MOL0     H53682   4.950   1.205   2.384  0.8753  0.8210 -0.3050
  407MOL0     H53683   4.879   1.204   2.219 -1.2529 -2.1252  0.6005
  407MOL0     H53684   4.793   1.032   2.379 -0.9816 -1.6261 -0.6592
  407MOL0     H53685   4.942   0.953   2.381  0.9254  1.0360  0.8937
  407MOL0     H53686   4.673   0.884   2.384 -1.0639  2.3020 -1.3628
  407MOL0     H53687   4.491   0.729   2.374  0.3881  1.3492 -0.0877
  407MOL0     H53688   4.154   0.548   2.066 -0.0917 -0.5076  1.8173
  407MOL0     H53689   3.983   0.387   1.965 -0.6511 -2.5902 -0.4686
  407MOL0     H53690   4.100  -0.040   1.943 -0.5170  2.8605  1.9824
  407MOL0     H53691   4.140   0.026   1.776 -1.2826  2.6114 -0.6969
  407MOL0     H53692   3.882  -0.024   1.717 -0.8779  1.6196  1.1482
  407MOL0     H53693   3.868  -0.084   1.881  0.6489  1.1131  0.6513
  407MOL0     H53694   4.037  -0.250   1.854  0.1643  1.2094  0.9257
  407MOL0     H53695   4.046  -0.207   1.691 -2.8734  0.8213 -1.9307
  407MOL0     H53696   3.776  -0.270   1.810 -3.6354  0.0557 -2.5956
  407MOL0     H53697   3.817  -0.240   1.639  1.4793 -0.3732 -0.4995
  407MOL0     H53698   3.942  -0.454   1.634 -1.0192 -1.9134 -0.1387
  407MOL0     H53699   3.778  -0.478   1.686  1.6276  1.1104 -3.8048
  407MOL0     H53700   3.923  -0.445   1.921  0.7433  0.5033 -1.0829
  407MOL0     H53701   4.038  -0.516   1.799  0.6753  1.5035 -2.0471
  407MOL0     H53702   3.770  -0.647   1.851  0.4039  0.5722 -0.6473
  407MOL0     H53703   3.914  -0.725   1.785  0.9883 -1.6022  2.7894
  407MOL0     H53704   4.031  -0.686   2.008  0.6580  0.9289 -0.5634
  407MOL0     H53705   3.895  -0.804   2.003 -5.1683  2.3290 -0.3625
  407MOL0     H53706   4.312   0.105   1.902 -1.8989  0.0402  0.6693
  407MOL0     H53707   4.462   0.274   1.945 -1.5398 -1.4639  0.2150
  407MOL0     H53708   4.624   0.644   1.962  1.0403 -3.6039  2.0020
  407MOL0     H53709   4.807   0.795   1.983 -1.0403  1.0958 -0.6223
  407MOL0     H53710   5.511   0.348   2.699 -2.5256  0.6563  1.0995
  407MOL0     H53711   5.352   0.155   2.676 -2.4583 -0.5886  2.1056
  407MOL0     H53712   5.256  -0.286   2.799 -0.2370 -0.4964  0.8349
  407MOL0     H53713   5.116  -0.486   2.862  0.0058 -0.3378  0.0129
  407MOL0     H53714   5.009  -0.640   2.953  0.1390 -0.5023  1.7362
  407MOL0     H53715   4.894  -0.579   2.856  3.4003 -1.0189 -0.8265
  407MOL0     H53716   4.753  -0.650   3.106 -1.1892  0.0696 -0.4659
  407MOL0     H53717   4.742  -0.703   2.930  2.8216  2.0727 -2.8889
  407MOL0     H53718   4.958  -0.834   2.987 -0.4264  0.8808 -2.5623
  407MOL0     H53719   4.814  -0.915   3.025  1.4685 -0.5343 -1.9555
  407MOL0     H53720   4.809  -0.882   3.250 -0.2487  1.6861  0.5568
  407MOL0     H53721   4.981  -0.938   3.218  1.2121  0.9345  1.2467
  407MOL0     H53722   5.065  -0.539   3.318  1.3992 -2.1725  4.3581
  407MOL0     H53723   4.905  -0.233   3.140 -0.9784 -1.6381 -0.7909
  407MOL0     H53724   5.078  -0.056   3.116  1.0492  0.5450 -1.2215
  408MOL0     O53725   0.234   2.503   2.463 -0.0741 -0.5260 -0.3079
  408MOL0     C53726   0.225   2.435   2.559 -0.2571  0.1347 -0.1587
  408MOL0     O53727   0.146   2.450   2.661 -0.6049 -1.3660  0.3381
  408MOL0     C53728   0.072   2.565   2.681 -0.4005 -0.2450 -0.1380
  408MOL0     C53729  -0.014   2.617   2.579  0.3134  0.0552  0.2060
  408MOL0     C53730  -0.094   2.730   2.603  0.4642  1.5112 -1.4641
  408MOL0     C53731  -0.082   2.794   2.730  1.1720 -0.5060  0.0765
  408MOL0     O53732  -0.137   2.918   2.764 -0.4898  0.5356 -0.0583
  408MOL0     C53733  -0.217   2.968   2.660 -0.3744 -0.3534 -0.0661
  408MOL0     C53734  -0.309   3.085   2.699  0.3458 -0.8141  0.3039
  408MOL0     C53735  -0.422   3.091   2.586 -0.2394 -0.3254 -0.8380
  408MOL0     C53736  -0.541   3.003   2.612 -0.6132 -0.2037 -0.2921
  408MOL0     C53737  -0.644   3.004   2.495  0.2282 -0.1199 -0.9260
  408MOL0     C53738  -0.768   2.927   2.548  0.1823 -0.3896  0.5569
  408MOL0     C53739  -0.886   2.939   2.451 -0.0117 -0.2570 -0.5348
  408MOL0     C53740  -1.014   2.907   2.532 -0.0715 -0.6609  0.7983
  408MOL0     N53741  -1.142   2.927   2.463 -0.1885  0.4837 -0.1517
  408MOL0     C53742  -1.164   3.018   2.367 -1.0201 -0.2590 -0.1344
  408MOL0     C53743  -1.280   2.987   2.306  0.2338 -1.7254  0.2923
  408MOL0     C53744  -1.347   3.084   2.203  0.1148 -0.4449  1.3731
  408MOL0     C53745  -1.394   3.003   2.080 -0.1786  0.2960 -0.7635
  408MOL0     C53746  -1.509   3.069   2.004  0.0860 -0.4794  0.2867
  408MOL0     C53747  -1.529   3.003   1.865 -1.0595  0.7426  0.2598
  408MOL0     O53748  -1.577   2.874   1.890 -0.5707 -0.3676 -0.2092
  408MOL0     C53749  -1.674   2.826   1.800  0.0504 -1.1867  0.8334
  408MOL0     C53750  -1.671   2.866   1.667 -0.2797  0.1336  0.4438
  408MOL0     C53751  -1.782   2.848   1.576  1.0361  1.0600  0.5278
  408MOL0     C53752  -1.889   2.766   1.615  0.5493  0.3183  0.7486
  408MOL0     C53753  -2.000   2.741   1.517 -0.0041  0.8522  0.1258
  408MOL0     O53754  -2.107   2.658   1.569  0.1949  0.0876  0.4226
  408MOL0     C53755  -2.171   2.603   1.466  1.0557 -0.5885  0.3042
  408MOL0     C53756  -2.277   2.669   1.389 -0.3004  1.2598 -0.5692
  408MOL0     C53757  -2.351   2.598   1.301 -0.4839 -0.0245  0.4465
  408MOL0     C53758  -2.319   2.461   1.268  0.2690  0.0859 -0.2758
  408MOL0     O53759  -2.398   2.403   1.173 -0.4673 -0.5149  0.0871
  408MOL0     C53760  -2.380   2.269   1.134 -0.0993  0.2879 -0.2851
  408MOL0     C53761  -2.268   2.236   1.039 -0.8141 -0.0503  0.3912
  408MOL0     C53762  -2.214   2.347   0.939 -0.4103  0.1701 -0.7673
  408MOL0     C53763  -2.126   2.271   0.832 -0.4302 -0.9399  0.2784
  408MOL0     C53764  -2.126   2.371   0.707 -0.0930 -0.2635 -0.4422
  408MOL0     C53765  -1.995   2.353   0.622 -0.4488  0.4867 -0.4299
  408MOL0     C53766  -1.894   2.427   0.699 -0.2295 -0.3607 -0.4754
  408MOL0     C53767  -1.757   2.368   0.691 -0.4806  0.3932  0.6759
  408MOL0    Cl53768  -1.701   2.381   0.517  0.3255 -0.0479  0.4687
  408MOL0     C53769  -2.207   2.398   1.333 -0.5011  0.0588  0.3014
  408MOL0     C53770  -2.140   2.473   1.440 -0.0755  0.0421  0.2393
  408MOL0     O53771  -2.002   2.792   1.408  0.0072  0.1106  0.1020
  408MOL0     C53772  -1.881   2.706   1.740  0.0845  0.8893 -0.6219
  408MOL0     C53773  -1.773   2.741   1.831 -0.4061 -0.4655 -0.3477
  408MOL0     N53774  -1.331   2.869   2.362  0.6529 -0.3027 -0.6226
  408MOL0     N53775  -1.249   2.829   2.452 -0.1798 -0.1336 -1.0234
  408MOL0     C53776   0.004   2.748   2.825 -0.0397 -0.2236 -0.7406
  408MOL0     C53777   0.077   2.630   2.802 -0.9006  0.4551 -0.4775
  408MOL0     C53778   0.333   2.333   2.591 -0.2152  0.9695 -0.3847
  408MOL0     C53779   0.458   2.340   2.531  0.7361  0.7606  0.4802
  408MOL0     C53780   0.575   2.261   2.551  0.2538 -0.7250  0.6186
  408MOL0     C53781   0.554   2.157   2.640 -0.0965  0.9801 -1.1626
  408MOL0     O53782   0.660   2.059   2.644 -0.4597 -0.1607 -0.7841
  408MOL0     C53783   0.722   2.062   2.774  1.3277 -0.4661  0.8919
  408MOL0     C53784   0.873   2.105   2.760 -0.1817 -0.3630 -1.8006
  408MOL0     C53785   0.890   2.258   2.739  0.7082  0.1884  0.1197
  408MOL0     C53786   0.841   2.350   2.841 -0.0057 -1.2578 -0.3134
  408MOL0     C53787   0.863   2.337   2.987  0.1856  0.2677 -0.0168
  408MOL0     C53788   0.896   2.333   3.101  0.5423 -0.3202 -0.3352
  408MOL0     C53789   0.435   2.140   2.718  0.4331 -0.5190 -0.1072
  408MOL0     C53790   0.323   2.228   2.688  0.1092 -0.3134 -0.3694
  408MOL0     H53791  -0.025   2.568   2.482  1.4974  1.3989 -0.6413
  408MOL0     H53792  -0.162   2.763   2.525  0.6556  0.9333 -1.8778
  408MOL0     H53793  -0.283   2.895   2.612  1.1493 -3.1059  1.7527
  408MOL0     H53794  -0.152   3.007   2.581  0.2086 -2.0100 -0.4536
  408MOL0     H53795  -0.245   3.173   2.694  1.9715 -2.0166 -0.8633
  408MOL0     H53796  -0.347   3.079   2.802 -2.9295  1.1550 -0.6164
  408MOL0     H53797  -0.381   3.056   2.491 -1.4372 -5.9788  0.3802
  408MOL0     H53798  -0.449   3.197   2.583  3.9867  1.5303  5.5634
  408MOL0     H53799  -0.511   2.900   2.636 -3.7238 -1.1848 -0.1496
  408MOL0     H53800  -0.585   3.034   2.707  0.3732 -0.7874  0.3663
  408MOL0     H53801  -0.600   2.960   2.405  0.5809  2.0806 -1.8909
  408MOL0     H53802  -0.665   3.110   2.477  2.1759  0.4712 -0.0155
  408MOL0     H53803  -0.797   2.967   2.645 -2.0506  0.2615 -0.3223
  408MOL0     H53804  -0.739   2.822   2.552 -4.3613 -2.1094 -3.0696
  408MOL0     H53805  -0.892   3.037   2.402 -2.8351  0.5491  1.2189
  408MOL0     H53806  -0.870   2.871   2.367  0.4314 -1.8964  0.8133
  408MOL0     H53807  -1.014   2.984   2.609  0.7530  2.7760 -2.3340
  408MOL0     H53808  -1.016   2.804   2.569  1.1728 -1.1027 -0.2911
  408MOL0     H53809  -1.115   3.113   2.348  0.9848 -1.0513  0.7068
  408MOL0     H53810  -1.272   3.157   2.172  0.0899 -1.0368 -0.1557
  408MOL0     H53811  -1.437   3.139   2.231 -0.4518  1.6281 -3.5854
  408MOL0     H53812  -1.428   2.903   2.110 -1.2306 -0.1158 -3.0968
  408MOL0     H53813  -1.313   2.985   2.009  1.7113  1.1284  1.0729
  408MOL0     H53814  -1.599   3.044   2.061  1.7289 -1.4708  2.6057
  408MOL0     H53815  -1.498   3.177   2.001 -0.1254 -0.4555  0.3347
  408MOL0     H53816  -1.430   3.002   1.818 -1.2629 -1.4665 -0.2479
  408MOL0     H53817  -1.598   3.064   1.807 -0.5883  0.7971 -0.2480
  408MOL0     H53818  -1.598   2.936   1.627 -1.5935  1.3915  0.1537
  408MOL0     H53819  -1.785   2.906   1.485  2.1592 -0.3168 -0.4291
  408MOL0     H53820  -2.276   2.776   1.408 -1.2282  1.0594  0.7930
  408MOL0     H53821  -2.426   2.650   1.241  0.5181 -0.2984 -1.0949
  408MOL0     H53822  -2.476   2.225   1.104  0.8231 -1.2959 -1.0829
  408MOL0     H53823  -2.370   2.209   1.225 -2.6842  0.1043 -0.0421
  408MOL0     H53824  -2.290   2.141   0.988 -0.9850 -0.6667  1.5775
  408MOL0     H53825  -2.191   2.202   1.109 -1.3238  0.9413  1.4669
  408MOL0     H53826  -2.143   2.411   0.992  0.4795  0.9101 -2.7404
  408MOL0     H53827  -2.292   2.407   0.891 -2.1106  0.5090  2.1778
  408MOL0     H53828  -2.031   2.234   0.872 -0.4913 -0.6649  0.6836
  408MOL0     H53829  -2.168   2.180   0.789  0.3265 -0.6104 -1.2595
  408MOL0     H53830  -2.132   2.478   0.730  0.5165 -0.6799  1.8637
  408MOL0     H53831  -2.207   2.344   0.639 -2.9386 -1.0967  2.9665
  408MOL0     H53832  -1.997   2.396   0.521 -3.4148 -1.8787 -1.5454
  408MOL0     H53833  -1.972   2.247   0.606  1.0667  1.1113 -2.9347
  408MOL0     H53834  -1.902   2.533   0.671  1.3031  0.1374  0.7678
  408MOL0     H53835  -1.902   2.420   0.808  1.0210 -1.4572 -0.4274
  408MOL0     H53836  -1.753   2.263   0.721 -0.5080  0.0935 -0.3290
  408MOL0     H53837  -1.686   2.425   0.751  1.2606  1.0012 -1.8127
  408MOL0     H53838  -2.185   2.292   1.323 -2.0417 -0.2602  0.0302
  408MOL0     H53839  -2.059   2.428   1.498 -1.0525 -1.3281  0.5942
  408MOL0     H53840  -1.966   2.642   1.763 -1.0296  2.3645 -0.5003
  408MOL0     H53841  -1.764   2.699   1.931  2.7235 -1.6157 -1.0124
  408MOL0     H53842   0.029   2.788   2.922 -0.1209 -3.3343  0.6918
  408MOL0     H53843   0.136   2.596   2.886  1.4181  1.9094 -1.4236
  408MOL0     H53844   0.480   2.426   2.468  0.8073 -0.4235 -1.1724
  408MOL0     H53845   0.664   2.292   2.498 -0.7424 -2.0456 -1.9910
  408MOL0     H53846   0.717   1.960   2.813  4.3120 -1.6083 -1.2904
  408MOL0     H53847   0.670   2.128   2.844  1.6088  0.0769  0.5939
  408MOL0     H53848   0.922   2.079   2.854 -0.1120  2.4591 -0.9541
  408MOL0     H53849   0.920   2.048   2.679 -1.8315 -0.4099 -2.7705
  408MOL0     H53850   0.834   2.284   2.649  1.6601  0.6586 -0.3529
  408MOL0     H53851   0.998   2.276   2.730  0.5133  2.4272  1.5381
  408MOL0     H53852   0.868   2.451   2.810 -1.2877 -0.3108  1.4405
  408MOL0     H53853   0.733   2.364   2.833  0.0956 -0.2932 -0.0796
  408MOL0     H53854   0.921   2.322   3.205  0.2976  0.0202 -0.2369
  408MOL0     H53855   0.429   2.060   2.791  0.7337  1.7920  2.6189
  408MOL0     H53856   0.229   2.200   2.735  0.7136 -0.7359  0.6167
  409MOL0     O53857   4.481   9.278   0.918 -0.1882 -0.0233  0.0772
  409MOL0     C53858   4.542   9.307   1.024  0.0536  0.7734  1.0084
  409MOL0     O53859   4.481   9.343   1.143  0.2044  0.0338  0.2196
  409MOL0     C53860   4.359   9.384   1.147  0.6332 -0.3877 -0.4388
  409MOL0     C53861   4.282   9.443   1.033  0.0137  0.2792 -0.3361
  409MOL0     C53862   4.158   9.503   1.063 -0.1859 -0.0159 -0.9283
  409MOL0     C53863   4.103   9.508   1.191  0.6275 -0.7397 -0.2942
  409MOL0     O53864   3.975   9.561   1.205  0.1016  0.3367  0.1748
  409MOL0     C53865   3.901   9.558   1.330  0.2766 -0.4447 -0.0808
  409MOL0     C53866   3.764   9.624   1.291  0.6201  0.0243  0.0321
  409MOL0     C53867   3.665   9.606   1.406 -0.3298  0.9530  0.2137
  409MOL0     C53868   3.518   9.616   1.342 -0.6918 -0.7104 -0.1192
  409MOL0     C53869   3.420   9.621   1.454 -0.0932  0.2663 -0.1856
  409MOL0     C53870   3.278   9.667   1.416 -0.5217 -0.6078 -0.1694
  409MOL0     C53871   3.202   9.554   1.342  0.3356 -0.3269  0.0761
  409MOL0     C53872   3.063   9.599   1.301 -0.2731  0.2805 -0.2007
  409MOL0     N53873   2.956   9.623   1.400 -0.5166  0.0804  0.0595
  409MOL0     C53874   2.930   9.523   1.497 -0.6249 -0.0926 -0.8806
  409MOL0     C53875   2.880   9.600   1.596 -0.5486  0.2955 -0.5211
  409MOL0     C53876   2.820   9.534   1.726  1.0325 -0.0561  0.1126
  409MOL0     C53877   2.678   9.474   1.686  0.5329 -0.6123  0.0836
  409MOL0     C53878   2.598   9.423   1.820 -0.1187  0.4468 -0.1995
  409MOL0     C53879   2.464   9.384   1.779  1.2945  0.3135  0.7209
  409MOL0     O53880   2.468   9.285   1.677 -0.0682 -0.5203 -0.0999
  409MOL0     C53881   2.355   9.235   1.617  0.5482  0.7890 -0.7910
  409MOL0     C53882   2.227   9.290   1.641 -0.5305  0.3056  0.9287
  409MOL0     C53883   2.121   9.236   1.582  0.0022 -0.4938  0.2991
  409MOL0     C53884   2.129   9.128   1.489  0.2290 -0.1252 -0.4273
  409MOL0     C53885   2.004   9.077   1.430 -0.4139  0.1618  0.1320
  409MOL0     O53886   1.892   9.084   1.511 -0.8175  0.1493 -1.0814
  409MOL0     C53887   1.770   9.045   1.477  0.3580 -0.1131 -0.4507
  409MOL0     C53888   1.665   9.120   1.512  0.1318 -1.3991 -0.2914
  409MOL0     C53889   1.527   9.076   1.488  0.1092 -0.1746 -0.2052
  409MOL0     C53890   1.510   8.960   1.416 -0.6456  1.3063 -0.9533
  409MOL0     O53891   1.389   8.904   1.387  0.6206 -0.1439 -0.3782
  409MOL0     C53892   1.271   8.988   1.405  0.5958  0.1169 -0.6043
  409MOL0     C53893   1.138   8.919   1.402 -0.3762  0.6145 -0.2754
  409MOL0     C53894   1.134   8.824   1.518  0.7474  0.6417 -0.6002
  409MOL0     C53895   1.010   8.729   1.529  0.8317 -0.1106 -0.1695
  409MOL0     C53896   1.006   8.601   1.446 -0.2251 -0.2401 -1.2998
  409MOL0     C53897   0.856   8.564   1.424 -0.3242 -0.5137 -0.6775
  409MOL0     C53898   0.845   8.430   1.364 -0.1985  0.3976  0.2909
  409MOL0     C53899   0.700   8.373   1.342 -1.0488 -0.3107  0.4846
  409MOL0    Cl53900   0.594   8.465   1.223 -0.3371 -0.1457 -0.2678
  409MOL0     C53901   1.617   8.886   1.374 -0.5326  0.4455  0.6713
  409MOL0     C53902   1.746   8.923   1.404 -0.3130 -0.2760 -0.6128
  409MOL0     O53903   2.001   9.031   1.318 -0.3186 -0.6216 -0.2062
  409MOL0     C53904   2.257   9.072   1.459 -0.5245  0.0274  0.2220
  409MOL0     C53905   2.367   9.120   1.526 -0.2952 -0.2033 -0.1303
  409MOL0     N53906   2.883   9.736   1.570  0.0886  0.2106  0.9785
  409MOL0     N53907   2.924   9.743   1.453 -0.2151  0.4357 -0.2213
  409MOL0     C53908   4.181   9.466   1.302 -0.3689 -0.1486 -1.1744
  409MOL0     C53909   4.311   9.412   1.274  0.0828  0.3184  0.1709
  409MOL0     C53910   4.693   9.305   1.038  0.2742  0.2493  0.2928
  409MOL0     C53911   4.772   9.288   0.931  0.5358  0.1853  0.3138
  409MOL0     C53912   4.913   9.285   0.942  0.1321 -0.2470 -0.4204
  409MOL0     C53913   4.981   9.302   1.065  0.1755  1.2980 -0.4988
  409MOL0     O53914   5.120   9.303   1.065  0.2005 -0.2011  0.7228
  409MOL0     C53915   5.190   9.266   1.184  0.4897 -0.4981  0.2194
  409MOL0     C53916   5.295   9.164   1.156  0.0200 -0.4525 -0.0352
  409MOL0     C53917   5.360   9.125   1.290  0.5274 -1.1974 -0.0506
  409MOL0     C53918   5.495   9.039   1.269  1.0036 -0.0251  0.3650
  409MOL0     C53919   5.609   9.132   1.238 -0.2336  0.0083  0.0534
  409MOL0     C53920   5.689   9.208   1.190  0.1714 -0.9027 -0.2995
  409MOL0     C53921   4.896   9.321   1.172  0.5685  1.2314  0.2290
  409MOL0     C53922   4.753   9.316   1.162  0.6052 -0.9660  0.8100
  409MOL0     H53923   4.300   9.425   0.928 -1.0930 -1.5442 -0.2681
  409MOL0     H53924   4.106   9.539   0.975  1.1852 -0.3741 -1.8945
  409MOL0     H53925   3.956   9.616   1.405 -0.9811  0.4807  0.1601
  409MOL0     H53926   3.893   9.453   1.360  3.3843 -0.4992  0.9576
  409MOL0     H53927   3.736   9.576   1.197  0.6878 -3.5457  1.6621
  409MOL0     H53928   3.783   9.731   1.280  2.2550 -0.2442  0.0046
  409MOL0     H53929   3.682   9.675   1.490 -0.1864 -0.5593  1.4635
  409MOL0     H53930   3.674   9.509   1.455  2.7687  0.9354 -0.1507
  409MOL0     H53931   3.509   9.710   1.287 -0.6794 -1.2214 -1.0105
  409MOL0     H53932   3.490   9.531   1.278  2.0406 -1.7020 -0.1361
  409MOL0     H53933   3.451   9.694   1.530  2.8960 -1.2175  0.1803
  409MOL0     H53934   3.417   9.523   1.502 -0.9708  0.8720  1.0711
  409MOL0     H53935   3.297   9.751   1.349  3.8251 -1.1668  0.0949
  409MOL0     H53936   3.218   9.702   1.501  0.9018 -1.8225  1.4090
  409MOL0     H53937   3.255   9.523   1.252 -0.7356  2.4380 -1.6245
  409MOL0     H53938   3.207   9.466   1.406  1.9303  0.4521  1.0760
  409MOL0     H53939   3.021   9.524   1.233 -0.2474  1.2542 -1.3316
  409MOL0     H53940   3.059   9.692   1.242 -1.5377  0.1522 -0.3439
  409MOL0     H53941   2.946   9.416   1.503 -1.1114 -0.0858  1.8049
  409MOL0     H53942   2.805   9.609   1.803  0.1764  1.4776 -1.4766
  409MOL0     H53943   2.882   9.460   1.778 -1.5455 -2.8055 -0.4405
  409MOL0     H53944   2.688   9.385   1.624 -0.5741 -2.2775  2.1431
  409MOL0     H53945   2.616   9.545   1.632  0.0405 -0.4354  0.8669
  409MOL0     H53946   2.655   9.344   1.868  0.7765  0.4994 -1.1561
  409MOL0     H53947   2.586   9.501   1.896  1.7410 -0.3635  0.9835
  409MOL0     H53948   2.412   9.476   1.750 -3.0627 -1.3929  2.2406
  409MOL0     H53949   2.406   9.346   1.863 -0.4997  0.6057 -0.3340
  409MOL0     H53950   2.220   9.380   1.701  1.0446 -0.1417  1.8432
  409MOL0     H53951   2.024   9.270   1.617  0.0930 -2.1656  2.3660
  409MOL0     H53952   1.685   9.213   1.563 -2.2484  0.4274 -2.4138
  409MOL0     H53953   1.443   9.137   1.522 -0.4542 -2.0961  2.1325
  409MOL0     H53954   1.274   9.069   1.332 -0.5818  2.6401  1.9930
  409MOL0     H53955   1.278   9.043   1.499 -1.7896  0.6376 -0.6802
  409MOL0     H53956   1.133   8.851   1.317  1.5601 -3.1521  2.3591
  409MOL0     H53957   1.058   8.994   1.402  1.4584  2.7089  1.1707
  409MOL0     H53958   1.134   8.883   1.610 -0.9448 -2.3099  1.4606
  409MOL0     H53959   1.227   8.765   1.521 -1.4551 -3.4430 -3.0666
  409MOL0     H53960   0.992   8.695   1.631 -1.8655 -0.8366 -0.8126
  409MOL0     H53961   0.924   8.784   1.491  2.3411  3.5026  1.2424
  409MOL0     H53962   1.057   8.528   1.509  3.9937  3.2574 -0.2587
  409MOL0     H53963   1.053   8.610   1.348 -0.9892  1.0908 -1.5623
  409MOL0     H53964   0.801   8.637   1.363 -1.1367 -2.7977 -2.8854
  409MOL0     H53965   0.811   8.560   1.524 -0.8694 -0.9691 -0.9307
  409MOL0     H53966   0.908   8.427   1.275  0.4996 -0.0163  0.7882
  409MOL0     H53967   0.898   8.367   1.437  0.1217  0.5778  0.2156
  409MOL0     H53968   0.661   8.369   1.443  2.2008 -0.5224  1.8750
  409MOL0     H53969   0.709   8.272   1.301 -3.2041 -1.4652  2.6722
  409MOL0     H53970   1.615   8.794   1.317 -0.4538  0.9359 -0.1333
  409MOL0     H53971   1.828   8.860   1.369 -1.5646 -1.4483 -1.5420
  409MOL0     H53972   2.262   8.994   1.384 -0.8551 -0.8795  1.1189
  409MOL0     H53973   2.467   9.095   1.491  1.3611  5.3815 -0.4227
  409MOL0     H53974   4.145   9.474   1.404 -2.2221 -0.6613 -1.7377
  409MOL0     H53975   4.371   9.381   1.359 -0.9426  0.8714  1.1205
  409MOL0     H53976   4.742   9.281   0.827  2.1786  1.1473 -0.2776
  409MOL0     H53977   4.971   9.255   0.855 -0.2441 -1.1200 -0.3834
  409MOL0     H53978   5.121   9.225   1.258 -1.6173  3.8140  0.9600
  409MOL0     H53979   5.242   9.346   1.237  2.5265 -1.8806  0.4255
  409MOL0     H53980   5.244   9.080   1.109  0.3514 -2.3020  2.7015
  409MOL0     H53981   5.372   9.214   1.095 -0.9346 -2.8033 -3.4459
  409MOL0     H53982   5.279   9.070   1.339  0.5293 -1.2455 -0.1011
  409MOL0     H53983   5.398   9.210   1.347  1.8095 -0.4786 -1.8708
  409MOL0     H53984   5.514   8.973   1.355 -0.3009 -1.2717 -0.2692
  409MOL0     H53985   5.467   8.972   1.187  1.1691 -1.3283  1.3206
  409MOL0     H53986   5.751   9.281   1.141  0.2271 -0.3677  0.5467
  409MOL0     H53987   4.932   9.342   1.273  2.8891  0.5070 -0.3858
  409MOL0     H53988   4.685   9.327   1.245  1.7181 -0.8211  1.7164
  410MOL0     O53989   5.621   0.480   5.029 -0.5344 -0.1436 -0.2043
  410MOL0     C53990   5.511   0.512   5.072 -0.0551  0.0190 -0.4875
  410MOL0     O53991   5.488   0.541   5.203 -0.9816  0.7270 -0.2551
  410MOL0     C53992   5.590   0.527   5.289  0.3674 -0.6169  0.1631
  410MOL0     C53993   5.673   0.407   5.305  0.3784 -0.4671 -0.1112
  410MOL0     C53994   5.770   0.400   5.402  0.0176  0.3111 -0.1937
  410MOL0     C53995   5.806   0.520   5.476 -0.2874  0.1420 -0.2031
  410MOL0     O53996   5.907   0.508   5.572  0.7911  0.7808 -0.3712
  410MOL0     C53997   5.913   0.596   5.679 -0.1344  0.6155 -0.2108
  410MOL0     C53998   6.028   0.547   5.767 -0.5627 -0.4258  0.4433
  410MOL0     C53999   6.053   0.637   5.885 -0.1030  1.1119 -0.2606
  410MOL0     C54000   6.161   0.579   5.970  0.4714  0.0863  0.7970
  410MOL0     C54001   6.193   0.641   6.108  0.7394  0.4658  0.6494
  410MOL0     C54002   6.076   0.658   6.213  0.2688  0.1311  0.4606
  410MOL0     C54003   6.123   0.711   6.342  0.8100  0.7794 -0.6676
  410MOL0     C54004   6.163   0.857   6.339 -0.4551 -0.4815 -0.5710
  410MOL0     N54005   6.179   0.892   6.482  0.4015  0.4796  1.2301
  410MOL0     C54006   6.234   0.818   6.583  0.5682 -0.0859 -0.9753
  410MOL0     C54007   6.201   0.897   6.689 -0.0331  0.8112  0.1305
  410MOL0     C54008   6.231   0.868   6.836  0.7692  0.4324 -0.4338
  410MOL0     C54009   6.106   0.858   6.924 -0.5372 -0.1937  0.4720
  410MOL0     C54010   6.059   0.709   6.919  0.3665  0.3643 -0.6121
  410MOL0     C54011   5.964   0.673   6.806  1.2984  0.3197  0.2460
  410MOL0     O54012   5.937   0.529   6.813  0.2623  0.3742 -0.6648
  410MOL0     C54013   5.838   0.476   6.731 -0.0018  0.7963 -0.2519
  410MOL0     C54014   5.816   0.343   6.747 -0.4190 -0.1594  0.6119
  410MOL0     C54015   5.734   0.274   6.669 -0.2003  0.1349 -0.5332
  410MOL0     C54016   5.665   0.341   6.562 -0.2563  0.3369 -0.4583
  410MOL0     C54017   5.567   0.267   6.478  0.2294 -0.0318  0.8937
  410MOL0     O54018   5.522   0.325   6.367  0.1557 -0.0326  0.3873
  410MOL0     C54019   5.441   0.256   6.280  0.2131  0.0676  0.2976
  410MOL0     C54020   5.477   0.131   6.232 -0.0910 -0.4420  0.4121
  410MOL0     C54021   5.400   0.069   6.139 -0.1939  0.1628  0.4984
  410MOL0     C54022   5.281   0.122   6.089 -0.2297 -0.5114  0.0182
  410MOL0     O54023   5.203   0.043   6.021  0.5978  0.4609 -0.9790
  410MOL0     C54024   5.099   0.095   5.935  0.2233 -0.5207  0.1602
  410MOL0     C54025   5.152   0.169   5.810  0.3155  0.2434  0.4548
  410MOL0     C54026   5.235   0.080   5.721 -0.3152  0.1209 -0.3180
  410MOL0     C54027   5.286   0.167   5.609  0.3472 -0.2865 -0.7694
  410MOL0     C54028   5.373   0.089   5.508  0.8402  0.2335  0.3102
  410MOL0     C54029   5.523   0.097   5.552 -0.2882  0.0812 -0.1126
  410MOL0     C54030   5.620   0.029   5.454  0.3926  0.7756  0.1828
  410MOL0     C54031   5.634  -0.123   5.487  1.0200  0.2676 -0.3463
  410MOL0    Cl54032   5.477  -0.218   5.469  0.1744 -0.2980 -0.1407
  410MOL0     C54033   5.232   0.240   6.149  0.0463 -0.6122  0.7177
  410MOL0     C54034   5.319   0.315   6.243 -0.5071  0.9213  0.4863
  410MOL0     O54035   5.520   0.172   6.532  0.1118 -0.7543  0.3526
  410MOL0     C54036   5.692   0.477   6.545  0.0845 -0.3836 -0.4907
  410MOL0     C54037   5.774   0.540   6.628  1.3785 -0.0455 -1.0081
  410MOL0     N54038   6.131   1.006   6.654  0.3043  0.5264  0.1115
  410MOL0     N54039   6.106   1.002   6.526 -0.0664 -0.1082 -0.4623
  410MOL0     C54040   5.739   0.640   5.453 -0.4363 -0.0821  0.3070
  410MOL0     C54041   5.627   0.635   5.370  0.6741  0.5148 -0.5307
  410MOL0     C54042   5.385   0.516   4.993 -0.2797 -0.5778  0.0271
  410MOL0     C54043   5.372   0.445   4.870 -1.0796 -0.0284  0.2538
  410MOL0     C54044   5.258   0.460   4.796 -0.6638 -0.1480 -0.0183
  410MOL0     C54045   5.140   0.528   4.846 -0.3705 -0.3454  0.1986
  410MOL0     O54046   5.018   0.531   4.791  0.9402  0.1715 -0.4726
  410MOL0     C54047   5.007   0.630   4.689 -1.1261  0.7524 -0.0031
  410MOL0     C54048   4.877   0.617   4.605 -0.7356 -0.4799 -0.4292
  410MOL0     C54049   4.896   0.714   4.488  0.6420 -0.0166 -0.3144
  410MOL0     C54050   4.882   0.867   4.525  0.8575  0.0854  0.4179
  410MOL0     C54051   4.887   0.949   4.399 -0.2838 -0.0311 -0.0078
  410MOL0     C54052   4.878   0.990   4.288  1.0303 -0.6186  1.6385
  410MOL0     C54053   5.147   0.578   4.971  0.0645  0.0021 -0.0738
  410MOL0     C54054   5.270   0.582   5.036  0.2015  0.5629  0.1015
  410MOL0     H54055   5.657   0.327   5.234  2.5719  0.2724 -1.5518
  410MOL0     H54056   5.827   0.309   5.419  1.8230  1.2873 -0.7411
  410MOL0     H54057   5.816   0.605   5.728 -1.0264 -1.1097 -1.5465
  410MOL0     H54058   5.931   0.692   5.631 -2.2682 -0.9234 -4.6407
  410MOL0     H54059   6.113   0.544   5.699  1.0843 -1.6285  2.4286
  410MOL0     H54060   6.008   0.448   5.809 -2.3605 -0.1715  0.2875
  410MOL0     H54061   5.971   0.651   5.955  2.5300  1.1721  3.0941
  410MOL0     H54062   6.078   0.739   5.854 -1.6228  1.4619 -0.4169
  410MOL0     H54063   6.139   0.475   5.993 -3.0636 -0.6572 -4.0714
  410MOL0     H54064   6.257   0.563   5.919 -0.5059 -0.6961 -0.8987
  410MOL0     H54065   6.257   0.731   6.107 -0.7388  1.5681  1.3173
  410MOL0     H54066   6.255   0.564   6.154  0.4995 -0.5505 -0.6682
  410MOL0     H54067   6.028   0.563   6.238 -2.4059  1.4315  0.5144
  410MOL0     H54068   5.999   0.722   6.169 -1.6774 -3.3146 -1.5343
  410MOL0     H54069   6.040   0.710   6.414 -1.3828  0.3433 -3.0554
  410MOL0     H54070   6.201   0.642   6.376  1.0179  0.6110 -1.4741
  410MOL0     H54071   6.084   0.916   6.291 -0.8400  0.4022  1.0899
  410MOL0     H54072   6.256   0.873   6.284  0.4214 -2.0971  0.3668
  410MOL0     H54073   6.277   0.718   6.577 -0.1518 -0.7148  2.2824
  410MOL0     H54074   6.290   0.956   6.863  1.2596  0.7979 -2.4889
  410MOL0     H54075   6.293   0.779   6.846  0.1728  0.1057  0.4803
  410MOL0     H54076   6.021   0.915   6.885 -0.7018 -0.8243 -0.1090
  410MOL0     H54077   6.135   0.889   7.025  3.5436  3.2758 -1.4113
  410MOL0     H54078   6.142   0.639   6.934 -0.3492 -0.4914 -0.5493
  410MOL0     H54079   5.999   0.695   7.009  3.2802 -2.6499  1.0946
  410MOL0     H54080   6.020   0.708   6.718 -0.0651  0.8443 -0.4399
  410MOL0     H54081   5.874   0.735   6.813  1.5423  0.5690  1.2503
  410MOL0     H54082   5.856   0.283   6.828 -3.2294 -3.9265 -0.5094
  410MOL0     H54083   5.713   0.168   6.679  0.4893 -0.4732 -4.1441
  410MOL0     H54084   5.559   0.070   6.268  1.2875  0.9695 -0.2554
  410MOL0     H54085   5.425  -0.027   6.094  0.9054  0.7343 -0.1455
  410MOL0     H54086   5.019   0.147   5.989  0.6457 -1.2939  1.5874
  410MOL0     H54087   5.042   0.009   5.898  2.8341 -0.9414 -3.3224
  410MOL0     H54088   5.203   0.263   5.833  2.1440 -0.6428  0.2526
  410MOL0     H54089   5.067   0.197   5.748 -0.2008  0.2179  1.1440
  410MOL0     H54090   5.160   0.009   5.684  1.0552 -1.7624  0.3113
  410MOL0     H54091   5.323   0.038   5.772  2.3903  3.3386 -1.9565
  410MOL0     H54092   5.200   0.200   5.550  1.5805 -0.5192 -2.7435
  410MOL0     H54093   5.350   0.245   5.650 -1.8380  0.7313  0.9689
  410MOL0     H54094   5.361   0.138   5.411 -4.4281 -0.1742  0.4389
  410MOL0     H54095   5.335  -0.013   5.496 -2.5534  1.4774 -0.9291
  410MOL0     H54096   5.529   0.041   5.646 -1.7533  0.8816  0.4977
  410MOL0     H54097   5.562   0.198   5.568 -0.1498  0.0665 -0.3548
  410MOL0     H54098   5.599   0.039   5.347  2.7378  1.0189 -0.3000
  410MOL0     H54099   5.721   0.066   5.474  1.9815 -2.2899 -1.3258
  410MOL0     H54100   5.667  -0.131   5.591 -0.0472 -2.4503 -0.1343
  410MOL0     H54101   5.703  -0.172   5.418 -0.0707 -1.5595 -0.1999
  410MOL0     H54102   5.134   0.284   6.135 -0.1960 -1.1510  0.6944
  410MOL0     H54103   5.278   0.409   6.278 -2.2203  0.6065 -0.5862
  410MOL0     H54104   5.667   0.529   6.453 -0.5392 -2.2624 -1.4208
  410MOL0     H54105   5.798   0.645   6.610  1.6012  0.2972  0.9695
  410MOL0     H54106   5.760   0.734   5.502 -2.8394  1.6122 -1.6900
  410MOL0     H54107   5.569   0.725   5.357 -1.6947 -1.0066 -1.1076
  410MOL0     H54108   5.453   0.377   4.843 -0.7216 -0.0029  1.2172
  410MOL0     H54109   5.259   0.422   4.694  5.6270 -2.6048  0.4964
  410MOL0     H54110   5.091   0.610   4.622 -0.0757  0.9012  1.2532
  410MOL0     H54111   5.016   0.734   4.722 -1.5461  1.7776 -2.8013
  410MOL0     H54112   4.872   0.513   4.573  1.6102 -0.9407  0.4922
  410MOL0     H54113   4.790   0.622   4.671 -0.7371  1.2353 -0.5086
  410MOL0     H54114   4.805   0.701   4.429  0.6398  1.6193 -0.7170
  410MOL0     H54115   4.989   0.696   4.433  0.0438  0.4044 -1.5112
  410MOL0     H54116   4.781   0.870   4.567 -0.6526  2.3007 -2.8801
  410MOL0     H54117   4.958   0.906   4.593 -0.6377  2.6004  0.7932
  410MOL0     H54118   4.869   1.029   4.189 -1.3706 -1.4315  1.4783
  410MOL0     H54119   5.062   0.632   5.014  0.9240  3.6924 -2.5096
  410MOL0     H54120   5.279   0.640   5.127 -2.6211 -0.7082  1.2929
  411MOL0     O54121   3.808   1.374   7.908  0.0486  1.1232 -0.5066
  411MOL0     C54122   3.703   1.319   7.877 -0.3704 -0.6309 -0.5380
  411MOL0     O54123   3.691   1.195   7.820 -0.0721 -0.9474  0.2886
  411MOL0     C54124   3.793   1.122   7.775  0.2951  0.0580 -0.4046
  411MOL0     C54125   3.922   1.165   7.731 -0.2631 -0.1323  0.7714
  411MOL0     C54126   4.030   1.080   7.712 -0.0750  0.4350 -0.1320
  411MOL0     C54127   4.023   0.944   7.747 -1.3261 -0.7531  0.0896
  411MOL0     O54128   4.146   0.868   7.723 -0.0700 -0.3967  0.5405
  411MOL0     C54129   4.132   0.730   7.739 -0.3119  0.9468  0.6418
  411MOL0     C54130   4.249   0.645   7.697 -1.1466 -0.2619  0.6449
  411MOL0     C54131   4.233   0.505   7.755 -0.2767 -0.2058  0.6859
  411MOL0     C54132   4.351   0.421   7.726  0.0861  0.2366  0.1011
  411MOL0     C54133   4.330   0.359   7.592 -0.0797  0.6587 -0.0366
  411MOL0     C54134   4.454   0.292   7.532  0.0816  0.5041  1.5314
  411MOL0     C54135   4.514   0.180   7.617 -0.3938  0.0580  0.3564
  411MOL0     C54136   4.604   0.068   7.555 -0.1834 -0.5876  0.3522
  411MOL0     N54137   4.667   0.121   7.432  0.3070  0.3877  0.4122
  411MOL0     C54138   4.764   0.208   7.426 -0.1602 -0.3274  0.2175
  411MOL0     C54139   4.803   0.211   7.293 -0.4551  0.2199 -0.7528
  411MOL0     C54140   4.911   0.289   7.225 -0.1265 -0.6102 -1.2147
  411MOL0     C54141   5.052   0.228   7.267 -0.9317 -0.8690  0.1411
  411MOL0     C54142   5.114   0.122   7.169  0.4966  0.4070 -0.8719
  411MOL0     C54143   5.139   0.160   7.021  0.3543 -0.8656  0.2608
  411MOL0     O54144   5.236   0.267   7.021 -0.3717 -0.5165 -0.1349
  411MOL0     C54145   5.369   0.230   7.014 -0.2809 -0.0247 -0.1389
  411MOL0     C54146   5.459   0.336   7.041 -0.4154  0.1286 -0.7882
  411MOL0     C54147   5.601   0.310   7.053  0.1446  0.0535  0.1608
  411MOL0     C54148   5.642   0.182   7.043 -0.1849  0.6037  0.0839
  411MOL0     C54149   5.793   0.153   7.067  0.1243 -0.4464 -0.1399
  411MOL0     O54150   5.872   0.250   7.110 -0.4448  0.4233  0.7449
  411MOL0     C54151   6.010   0.228   7.121  0.4471  0.9083 -1.1937
  411MOL0     C54152   6.050   0.192   7.246  0.1519  0.0144 -0.1470
  411MOL0     C54153   6.181   0.164   7.275  0.1072 -0.1331  0.4005
  411MOL0     C54154   6.279   0.169   7.172 -0.4223 -0.2098 -1.1388
  411MOL0     O54155   6.402   0.114   7.190 -0.2412 -0.2919 -0.2044
  411MOL0     C54156   6.520   0.180   7.141 -0.8876 -0.0911  0.3182
  411MOL0     C54157   6.616   0.193   7.249 -0.0128  1.1915  0.6366
  411MOL0     C54158   6.741   0.275   7.205  0.8056  0.4139  0.2997
  411MOL0     C54159   6.861   0.269   7.294  0.4077  0.1283 -0.7313
  411MOL0     C54160   6.984   0.315   7.228 -0.0650  0.4121 -0.1800
  411MOL0     C54161   7.113   0.288   7.305 -0.1011 -0.2396  0.7998
  411MOL0     C54162   7.239   0.339   7.237  0.5409 -0.2980 -0.1061
  411MOL0     C54163   7.351   0.353   7.347 -0.2587  1.0066  0.0206
  411MOL0    Cl54164   7.418   0.189   7.383 -0.3720  0.4993  0.1567
  411MOL0     C54165   6.239   0.208   7.042  0.9760 -0.2919  1.1029
  411MOL0     C54166   6.107   0.239   7.019  0.2841 -1.2176 -0.2983
  411MOL0     O54167   5.831   0.039   7.052  0.7454 -0.4514 -0.0788
  411MOL0     C54168   5.558   0.075   7.012 -0.2414 -1.3209  0.5948
  411MOL0     C54169   5.422   0.104   6.984 -0.2514 -0.7582  0.4421
  411MOL0     N54170   4.719   0.123   7.232 -0.8784  0.0500  1.4707
  411MOL0     N54171   4.644   0.068   7.315  0.2001 -0.0577 -0.0345
  411MOL0     C54172   3.897   0.900   7.780 -0.5206  0.5493 -0.2810
  411MOL0     C54173   3.783   0.987   7.796 -0.3095 -0.4083  0.1552
  411MOL0     C54174   3.572   1.385   7.913  0.4619  0.2781  0.1773
  411MOL0     C54175   3.569   1.499   8.003  0.1668  0.1723 -0.0897
  411MOL0     C54176   3.452   1.537   8.065  0.7395  0.3687 -1.1542
  411MOL0     C54177   3.327   1.485   8.025  0.0351 -0.0237 -0.1247
  411MOL0     O54178   3.214   1.543   8.070  0.3569 -0.1471  0.7141
  411MOL0     C54179   3.107   1.460   8.113  0.3088 -0.4618 -0.4517
  411MOL0     C54180   3.153   1.421   8.253  0.2315 -0.1869 -0.8226
  411MOL0     C54181   3.034   1.357   8.353 -0.2729 -0.5663  0.1025
  411MOL0     C54182   3.070   1.345   8.493 -1.1429  0.6340 -1.1986
  411MOL0     C54183   2.960   1.369   8.579  0.9145  0.1114 -0.0216
  411MOL0     C54184   2.866   1.412   8.647  0.8877  1.0649  0.0595
  411MOL0     C54185   3.326   1.380   7.928 -0.2907 -0.3333 -0.1687
  411MOL0     C54186   3.445   1.333   7.876  0.3088  0.2595  0.0702
  411MOL0     H54187   3.948   1.269   7.711  1.3180 -0.8534 -1.4426
  411MOL0     H54188   4.121   1.123   7.673  0.9254 -2.6016 -1.4914
  411MOL0     H54189   4.056   0.687   7.672  3.6325 -2.8681 -1.9828
  411MOL0     H54190   4.106   0.706   7.842 -1.6599  0.6851  0.2649
  411MOL0     H54191   4.346   0.689   7.723 -0.6096 -1.0336 -0.0038
  411MOL0     H54192   4.256   0.637   7.588  0.3691  0.9201  0.6237
  411MOL0     H54193   4.143   0.447   7.733 -1.5817  0.8218  2.8923
  411MOL0     H54194   4.241   0.522   7.863  3.7486  0.9349  0.3586
  411MOL0     H54195   4.445   0.477   7.729  1.8601 -2.6043  1.7897
  411MOL0     H54196   4.374   0.355   7.810  3.7427  0.8952 -0.2296
  411MOL0     H54197   4.287   0.434   7.525 -0.7180  3.6566  3.4472
  411MOL0     H54198   4.251   0.284   7.602 -2.7185  3.2350 -0.1967
  411MOL0     H54199   4.525   0.368   7.500  0.0242 -0.6402 -1.6634
  411MOL0     H54200   4.425   0.248   7.436 -0.3245  2.9614  0.4686
  411MOL0     H54201   4.576   0.236   7.688  2.3011 -3.1541  0.7961
  411MOL0     H54202   4.440   0.118   7.668 -0.3514 -3.1450 -3.0537
  411MOL0     H54203   4.547  -0.021   7.528 -0.5695  0.6312 -3.5577
  411MOL0     H54204   4.678   0.038   7.630 -1.1825  0.6313  1.8955
  411MOL0     H54205   4.798   0.270   7.509 -1.0712  0.2009  0.2101
  411MOL0     H54206   4.904   0.395   7.249  0.2595 -0.8492  0.0362
  411MOL0     H54207   4.899   0.270   7.118  0.5775 -0.8696 -1.2554
  411MOL0     H54208   5.043   0.193   7.370 -1.9615  2.5845  1.3606
  411MOL0     H54209   5.126   0.308   7.276 -0.0730 -1.7115  0.8641
  411MOL0     H54210   5.213   0.095   7.208 -0.4186  0.0216  1.3037
  411MOL0     H54211   5.054   0.031   7.173  0.9495  0.1388  1.5584
  411MOL0     H54212   5.049   0.207   6.982  1.0494  1.4038  1.2515
  411MOL0     H54213   5.170   0.072   6.963  1.5502 -0.7448  0.6791
  411MOL0     H54214   5.422   0.437   7.060 -3.6706 -1.4539  2.5464
  411MOL0     H54215   5.667   0.395   7.068 -1.5335  1.0418  2.4593
  411MOL0     H54216   5.977   0.171   7.323  2.3304  0.9097  2.2959
  411MOL0     H54217   6.207   0.112   7.367  1.9584  1.7641  1.0388
  411MOL0     H54218   6.497   0.276   7.094  0.6961 -0.4022 -1.1873
  411MOL0     H54219   6.570   0.119   7.066  1.7192  3.4132 -1.0965
  411MOL0     H54220   6.649   0.091   7.271 -0.1936  0.2857 -2.8169
  411MOL0     H54221   6.565   0.228   7.339 -0.8276  1.5570  0.0410
  411MOL0     H54222   6.715   0.379   7.186 -1.9328 -0.0257  1.1397
  411MOL0     H54223   6.781   0.212   7.125  1.7994 -0.8859  1.7706
  411MOL0     H54224   6.827   0.324   7.382 -3.8766 -0.2709 -1.9295
  411MOL0     H54225   6.868   0.164   7.322 -2.9159 -0.2359 -0.9223
  411MOL0     H54226   6.992   0.423   7.213 -0.0174  0.4016 -0.2307
  411MOL0     H54227   6.992   0.271   7.128 -0.7635  0.7251 -0.3794
  411MOL0     H54228   7.116   0.178   7.304  1.2873 -0.2365 -0.5297
  411MOL0     H54229   7.095   0.331   7.403  2.5171  2.0898  0.3718
  411MOL0     H54230   7.270   0.261   7.167 -0.4839  0.3652 -1.3543
  411MOL0     H54231   7.221   0.428   7.176 -0.5149 -0.7535 -0.4824
  411MOL0     H54232   7.310   0.397   7.439 -0.0454  2.4034 -0.5360
  411MOL0     H54233   7.435   0.415   7.318  0.0441 -0.3820 -2.2793
  411MOL0     H54234   6.302   0.197   6.954  0.3538 -2.2606  0.8499
  411MOL0     H54235   6.085   0.273   6.918 -1.9733  3.4621  1.4523
  411MOL0     H54236   5.597  -0.026   7.011 -1.6670 -1.8975 -0.6645
  411MOL0     H54237   5.367   0.019   6.945  0.1997 -0.4649 -0.9071
  411MOL0     H54238   3.874   0.796   7.802 -1.8915  0.7027 -0.9006
  411MOL0     H54239   3.692   0.942   7.832  0.1103 -1.5678 -0.2058
  411MOL0     H54240   3.661   1.548   8.034 -0.7828  1.6661  0.4348
  411MOL0     H54241   3.444   1.623   8.131 -1.1529 -1.7267  1.5999
  411MOL0     H54242   3.086   1.371   8.053 -0.5279 -0.5781  0.0015
  411MOL0     H54243   3.012   1.513   8.115  1.4167  1.7582 -2.5999
  411MOL0     H54244   3.225   1.340   8.237  0.5627  0.2773 -1.7205
  411MOL0     H54245   3.206   1.498   8.310 -2.3454 -0.8596  2.7969
  411MOL0     H54246   2.989   1.262   8.325 -3.1612  1.4882 -2.9664
  411MOL0     H54247   2.962   1.439   8.361 -0.3515 -0.7275  1.2201
  411MOL0     H54248   3.111   1.245   8.510  2.6792  2.3195  0.5859
  411MOL0     H54249   3.149   1.414   8.525 -1.6740  1.3159 -1.3410
  411MOL0     H54250   2.788   1.450   8.710 -0.6750  0.4976 -1.4300
  411MOL0     H54251   3.237   1.336   7.884 -2.2383  4.9703 -2.2796
  411MOL0     H54252   3.433   1.245   7.814 -1.1359  0.4542  0.0399
  412MOL0     O54253   5.088  10.129   5.430  0.4681  0.3150 -0.4251
  412MOL0     C54254   5.056  10.019   5.486 -0.5241 -0.9109  0.4911
  412MOL0     O54255   5.141   9.948   5.578  0.3238 -0.3917 -0.1491
  412MOL0     C54256   5.270   9.998   5.597 -0.0081 -0.2597 -0.2518
  412MOL0     C54257   5.379   9.910   5.583 -0.0395  0.0750  0.6914
  412MOL0     C54258   5.505   9.945   5.625 -0.4401  0.6515 -0.1000
  412MOL0     C54259   5.527  10.086   5.660 -1.1882 -0.1190 -0.1536
  412MOL0     O54260   5.654  10.145   5.681 -0.1010 -0.0438  0.5937
  412MOL0     C54261   5.764  10.055   5.685  0.4768 -0.4087  0.6959
  412MOL0     C54262   5.890  10.153   5.696  0.3211  0.4890 -0.4001
  412MOL0     C54263   6.015  10.078   5.743 -0.5412  0.3796  0.6715
  412MOL0     C54264   6.049   9.950   5.663  0.8892  0.9273 -0.5382
  412MOL0     C54265   6.185   9.909   5.703  0.7447  0.7110 -0.6877
  412MOL0     C54266   6.231   9.790   5.619 -0.2912  0.9023 -1.0374
  412MOL0     C54267   6.365   9.732   5.668 -0.2104 -0.0593  1.6180
  412MOL0     C54268   6.352   9.671   5.809  0.3348  0.6840  0.5342
  412MOL0     N54269   6.246   9.562   5.807 -0.1443 -0.1251  0.1772
  412MOL0     C54270   6.245   9.427   5.760 -0.0833 -0.3533  0.7816
  412MOL0     C54271   6.121   9.380   5.794 -0.0382 -0.0104 -0.4167
  412MOL0     C54272   6.078   9.230   5.777  0.1613  1.2700 -0.3916
  412MOL0     C54273   6.106   9.166   5.918 -0.4188  0.0772 -0.6580
  412MOL0     C54274   6.054   9.027   5.917 -0.3401 -0.7010 -0.1367
  412MOL0     C54275   6.083   8.965   6.052 -0.7272 -0.3156  0.2552
  412MOL0     O54276   5.978   8.875   6.085  0.5149  0.1879 -1.1850
  412MOL0     C54277   5.990   8.793   6.203 -0.2536  0.0336  0.1143
  412MOL0     C54278   5.881   8.699   6.216  0.6410  0.3194 -0.2184
  412MOL0     C54279   5.869   8.620   6.328 -0.3508 -0.1496  1.1078
  412MOL0     C54280   5.963   8.642   6.435 -0.4035 -0.4094 -0.4015
  412MOL0     C54281   5.959   8.561   6.557 -0.3411  0.2571 -0.0573
  412MOL0     O54282   6.033   8.600   6.666 -0.0771  0.2340 -0.6003
  412MOL0     C54283   6.036   8.534   6.786 -0.1980  0.1792  0.4188
  412MOL0     C54284   6.156   8.551   6.861  0.8224 -0.8903 -0.2004
  412MOL0     C54285   6.174   8.481   6.984  0.2906  0.5128  0.6556
  412MOL0     C54286   6.081   8.389   7.033  0.1451  0.0326  0.6030
  412MOL0     O54287   6.087   8.322   7.157  0.1939  0.1942 -0.4596
  412MOL0     C54288   6.175   8.358   7.271  1.1199  0.6473  0.3158
  412MOL0     C54289   6.293   8.265   7.274  0.0450 -0.3506  0.8979
  412MOL0     C54290   6.253   8.119   7.301  0.2189 -0.1160  0.3148
  412MOL0     C54291   6.345   8.014   7.247 -0.5404  0.2420  0.6004
  412MOL0     C54292   6.292   7.873   7.280  0.3268 -0.2003  1.0205
  412MOL0     C54293   6.389   7.754   7.256  0.8895 -0.3024 -0.0884
  412MOL0     C54294   6.481   7.767   7.130  0.5707 -0.0327 -1.0234
  412MOL0     C54295   6.428   7.712   7.013 -0.8654 -0.0995  0.9712
  412MOL0    Cl54296   6.554   7.736   6.879 -0.0606 -0.3278  0.2482
  412MOL0     C54297   5.969   8.362   6.956 -0.0935  0.2389  0.4640
  412MOL0     C54298   5.957   8.424   6.834  0.4488 -0.5885 -0.2323
  412MOL0     O54299   5.888   8.467   6.548 -0.2040 -0.1614  0.5114
  412MOL0     C54300   6.063   8.742   6.426  0.5461  0.4956  0.1164
  412MOL0     C54301   6.081   8.811   6.310  0.4601 -0.2563 -0.3225
  412MOL0     N54302   6.054   9.479   5.861 -0.1293 -0.6235  0.4990
  412MOL0     N54303   6.124   9.584   5.869 -0.4579  0.4251  0.2507
  412MOL0     C54304   5.416  10.171   5.678 -0.8395  0.7791 -0.6228
  412MOL0     C54305   5.293  10.125   5.654  0.0528 -0.6017 -0.2636
  412MOL0     C54306   4.924   9.964   5.463 -0.0829 -0.7510 -0.2570
  412MOL0     C54307   4.832  10.013   5.368  0.7025 -0.0209  0.8045
  412MOL0     C54308   4.702   9.962   5.359 -0.7277 -0.0433  0.0095
  412MOL0     C54309   4.659   9.858   5.439 -0.5468  0.2717 -0.2012
  412MOL0     O54310   4.538   9.812   5.436  0.5620 -0.2938  0.0841
  412MOL0     C54311   4.439   9.911   5.473 -0.8427 -0.2753  0.1821
  412MOL0     C54312   4.301   9.842   5.462 -0.0380 -1.0386 -0.5425
  412MOL0     C54313   4.286   9.821   5.314  0.5011  0.9311 -0.5535
  412MOL0     C54314   4.294   9.673   5.273  0.0395  0.4667  0.2393
  412MOL0     C54315   4.182   9.599   5.334  1.1740 -0.4976 -0.1844
  412MOL0     C54316   4.093   9.536   5.375  0.0760 -0.8248  0.6035
  412MOL0     C54317   4.752   9.803   5.528  0.7454  0.7139 -0.2728
  412MOL0     C54318   4.880   9.854   5.540 -0.7648 -0.8070 -0.0983
  412MOL0     H54319   5.353   9.810   5.548 -0.7899 -0.7428  3.3464
  412MOL0     H54320   5.575   9.863   5.619 -2.8752 -1.7693  1.8909
  412MOL0     H54321   5.776  10.004   5.589  0.5899  0.3139  0.3192
  412MOL0     H54322   5.749   9.984   5.766 -0.0119 -1.5243 -0.3518
  412MOL0     H54323   5.875  10.231   5.772  0.9805 -1.0037  1.3125
  412MOL0     H54324   5.903  10.203   5.599 -5.8173  1.1810 -1.2628
  412MOL0     H54325   5.994  10.048   5.846  2.0013  4.1663  2.5438
  412MOL0     H54326   6.096  10.152   5.743  1.4156 -1.6238 -0.0450
  412MOL0     H54327   5.980   9.871   5.692  0.7716  0.6301 -1.5794
  412MOL0     H54328   6.043   9.967   5.555  0.7366  0.4528 -0.6070
  412MOL0     H54329   6.177   9.885   5.810 -2.6233  0.0920 -0.9791
  412MOL0     H54330   6.262   9.986   5.694 -0.1036  1.7140  0.3681
  412MOL0     H54331   6.240   9.824   5.515 -0.1271 -0.2837 -1.4248
  412MOL0     H54332   6.150   9.717   5.629 -2.0003  3.0057  2.9722
  412MOL0     H54333   6.393   9.650   5.603  0.7651  1.3442  0.1957
  412MOL0     H54334   6.453   9.797   5.662 -1.1826  1.1771 -0.0973
  412MOL0     H54335   6.339   9.743   5.890  0.9628 -0.1020  1.3597
  412MOL0     H54336   6.447   9.621   5.826 -0.8133 -0.9524  2.6106
  412MOL0     H54337   6.326   9.380   5.705 -0.3980 -0.2018  0.1834
  412MOL0     H54338   6.142   9.179   5.705  2.4714 -1.8647  3.4336
  412MOL0     H54339   5.973   9.221   5.749  0.1066 -0.3557  0.2145
  412MOL0     H54340   6.064   9.233   5.993  3.7280  3.3928 -0.9164
  412MOL0     H54341   6.214   9.165   5.932 -0.3034 -3.3277 -0.9949
  412MOL0     H54342   5.945   9.025   5.913 -0.4281 -1.0896  1.6747
  412MOL0     H54343   6.097   8.965   5.838  2.0243 -2.4363  2.3147
  412MOL0     H54344   6.084   9.047   6.124 -3.2709  0.2062 -0.2137
  412MOL0     H54345   6.178   8.911   6.054 -0.9514 -0.8043 -1.1106
  412MOL0     H54346   5.813   8.687   6.132  1.0096  1.6648 -0.7241
  412MOL0     H54347   5.805   8.532   6.329 -1.7737  0.8005 -0.8451
  412MOL0     H54348   6.226   8.618   6.812 -0.5141  1.5869  1.1012
  412MOL0     H54349   6.264   8.488   7.045  1.3827 -0.3259 -0.7878
  412MOL0     H54350   6.111   8.353   7.360  2.5055  2.6251  1.4973
  412MOL0     H54351   6.209   8.462   7.268  2.5211  0.1822 -0.8485
  412MOL0     H54352   6.362   8.298   7.352  0.5190  2.5491 -0.6389
  412MOL0     H54353   6.350   8.279   7.182  1.8914  0.7980  2.1347
  412MOL0     H54354   6.149   8.102   7.275 -0.5272 -0.3301  3.0792
  412MOL0     H54355   6.249   8.092   7.407 -0.5312 -2.0700 -0.1623
  412MOL0     H54356   6.355   8.022   7.139 -1.4628 -2.1741  0.2681
  412MOL0     H54357   6.435   8.030   7.307 -0.4686  2.1469  0.0372
  412MOL0     H54358   6.196   7.871   7.226  0.6870  0.6182  0.3130
  412MOL0     H54359   6.268   7.866   7.387 -1.3454 -1.3715  0.6141
  412MOL0     H54360   6.344   7.654   7.264  2.6620 -0.9555  3.2453
  412MOL0     H54361   6.462   7.764   7.337  3.2323  0.3421 -2.1515
  412MOL0     H54362   6.517   7.866   7.101  2.1188 -0.4521 -0.6141
  412MOL0     H54363   6.572   7.712   7.154  1.3483  0.8659 -1.8063
  412MOL0     H54364   6.334   7.758   6.981 -0.9220 -0.1361  1.0816
  412MOL0     H54365   6.413   7.604   7.022  2.7610 -0.5554  4.0656
  412MOL0     H54366   5.908   8.279   6.990  0.6481  0.6984  3.1438
  412MOL0     H54367   5.881   8.382   6.769 -2.8772 -1.3666  3.7150
  412MOL0     H54368   6.132   8.761   6.507 -1.8433  2.4469  1.8739
  412MOL0     H54369   6.157   8.888   6.319  2.2357 -1.8246 -1.2352
  412MOL0     H54370   5.421  10.275   5.708  0.8329  1.0292 -1.6177
  412MOL0     H54371   5.205  10.183   5.678 -0.0831 -0.1387 -1.7717
  412MOL0     H54372   4.856  10.095   5.301  2.0109  0.4756  1.8536
  412MOL0     H54373   4.623   9.981   5.286 -2.6024  1.1773  2.2243
  412MOL0     H54374   4.448  10.002   5.413  4.0216 -0.6067 -0.0202
  412MOL0     H54375   4.454   9.930   5.579 -1.7914 -2.1593  0.6972
  412MOL0     H54376   4.299   9.749   5.519 -0.4494 -0.8129 -0.1811
  412MOL0     H54377   4.222   9.908   5.499  3.3369  4.3363 -1.7130
  412MOL0     H54378   4.338   9.891   5.247 -0.2111  1.4158 -0.6096
  412MOL0     H54379   4.184   9.858   5.301  0.6657  1.8898  0.6771
  412MOL0     H54380   4.287   9.654   5.166  2.4383 -1.3589  0.3275
  412MOL0     H54381   4.385   9.621   5.307 -1.5776 -1.4938  1.8355
  412MOL0     H54382   4.022   9.466   5.414  0.1695 -0.4229  1.5360
  412MOL0     H54383   4.726   9.712   5.581 -3.7411  2.2225  0.5046
  412MOL0     H54384   4.953   9.823   5.614 -0.5733  0.5855  0.3364
  413MOL0     O54385   3.725   2.326   3.585  0.5573  0.3027  0.5028
  413MOL0     C54386   3.629   2.398   3.544  0.2452  0.9181 -0.2599
  413MOL0     O54387   3.640   2.489   3.447  0.3357  0.1316  0.3794
  413MOL0     C54388   3.761   2.498   3.381  0.3158  0.4078  0.0300
  413MOL0     C54389   3.803   2.394   3.286 -0.9305  0.1387  0.2440
  413MOL0     C54390   3.915   2.406   3.208  0.5249 -0.5604  0.5078
  413MOL0     C54391   3.991   2.524   3.217 -0.0828  0.4142  0.2954
  413MOL0     O54392   4.090   2.548   3.115  0.4358  0.4560  0.4247
  413MOL0     C54393   4.118   2.460   3.004 -0.9404  0.4779 -0.1433
  413MOL0     C54394   4.253   2.496   2.928 -0.0769  0.5077 -0.4792
  413MOL0     C54395   4.387   2.483   3.007  0.1480 -0.7636 -0.1466
  413MOL0     C54396   4.514   2.513   2.916 -0.3452  0.3059  0.7211
  413MOL0     C54397   4.657   2.507   2.985  0.3872 -0.0323  0.1867
  413MOL0     C54398   4.766   2.521   2.880 -0.4001 -0.4486 -0.2548
  413MOL0     C54399   4.768   2.650   2.782 -0.5431 -0.2625  0.0500
  413MOL0     C54400   4.879   2.635   2.679 -0.5385  0.5570  0.1919
  413MOL0     N54401   4.888   2.750   2.587 -0.4628 -0.1880  0.4004
  413MOL0     C54402   4.983   2.744   2.493 -0.1585 -0.0897 -0.5953
  413MOL0     C54403   5.021   2.866   2.461  0.4584  0.6637 -0.2794
  413MOL0     C54404   5.122   2.905   2.350 -0.3319 -0.2112 -0.4268
  413MOL0     C54405   5.091   3.029   2.274  0.1783  0.4151  0.4163
  413MOL0     C54406   5.211   3.085   2.198 -0.2818  0.3360  0.2683
  413MOL0     C54407   5.179   3.215   2.124 -0.0294 -0.4845 -0.4130
  413MOL0     O54408   5.302   3.270   2.073  0.7528 -0.6537  0.4920
  413MOL0     C54409   5.301   3.384   1.995  0.3588 -0.2133 -0.6156
  413MOL0     C54410   5.199   3.483   2.008  0.6553  0.2042 -0.2208
  413MOL0     C54411   5.198   3.584   1.912 -0.3335  0.4335 -0.2145
  413MOL0     C54412   5.303   3.589   1.819 -0.4153  0.5520 -0.6980
  413MOL0     C54413   5.290   3.700   1.730  1.1432  0.2475  0.9223
  413MOL0     O54414   5.208   3.803   1.760  0.3911  0.9855 -0.3073
  413MOL0     C54415   5.209   3.912   1.680  0.1261  0.7086  0.5507
  413MOL0     C54416   5.124   3.908   1.576  0.1614  0.3128 -0.0416
  413MOL0     C54417   5.122   4.016   1.483  0.6750 -0.3656 -0.7409
  413MOL0     C54418   5.201   4.127   1.511 -0.5651 -0.5622  0.1978
  413MOL0     O54419   5.186   4.239   1.431 -0.0660  0.6104  0.0095
  413MOL0     C54420   5.226   4.227   1.294 -0.2697 -0.1335  0.1085
  413MOL0     C54421   5.175   4.333   1.207 -0.4535 -1.0076  0.9092
  413MOL0     C54422   5.025   4.362   1.223 -0.1981 -0.3283  1.2560
  413MOL0     C54423   4.989   4.482   1.120  0.7287  0.0332 -0.6846
  413MOL0     C54424   4.972   4.423   0.977 -0.3474 -0.8512  0.1787
  413MOL0     C54425   4.909   4.527   0.885 -0.4007 -0.3965 -0.4330
  413MOL0     C54426   4.759   4.549   0.931 -0.3039 -0.0076 -0.7271
  413MOL0     C54427   4.664   4.590   0.822  0.0934 -0.1094 -0.8272
  413MOL0    Cl54428   4.504   4.575   0.890 -0.1753 -0.0120 -0.1978
  413MOL0     C54429   5.276   4.133   1.631 -0.2468 -0.2563 -0.7110
  413MOL0     C54430   5.294   4.021   1.708  0.8300 -0.5916  0.7278
  413MOL0     O54431   5.368   3.699   1.635 -0.1798 -0.0232 -0.2035
  413MOL0     C54432   5.412   3.500   1.823  0.5518 -1.5804  0.6258
  413MOL0     C54433   5.411   3.394   1.907 -1.4882 -0.8764 -0.1019
  413MOL0     N54434   4.942   2.951   2.549 -0.6070  0.0426  0.2409
  413MOL0     N54435   4.874   2.883   2.626  0.0167 -0.1965 -0.5957
  413MOL0     C54436   3.960   2.629   3.308  0.0441  0.5073  0.2255
  413MOL0     C54437   3.842   2.609   3.390  0.3001  0.6706 -0.5307
  413MOL0     C54438   3.499   2.380   3.614 -0.5324 -0.8313 -0.3646
  413MOL0     C54439   3.375   2.431   3.569  0.1530  0.2579  0.0384
  413MOL0     C54440   3.263   2.438   3.645  0.9217  0.8516 -0.2474
  413MOL0     C54441   3.255   2.362   3.758  0.5361  0.2329 -0.1064
  413MOL0     O54442   3.148   2.355   3.838  0.0690 -0.2454  0.3067
  413MOL0     C54443   3.018   2.337   3.778  0.1404  0.0226 -0.2062
  413MOL0     C54444   3.005   2.196   3.710  0.8888  0.7392  0.3394
  413MOL0     C54445   3.078   2.065   3.765  0.0582  0.4274  0.8066
  413MOL0     C54446   3.025   2.015   3.902  0.3885 -0.1068  0.3406
  413MOL0     C54447   2.882   1.974   3.916  0.0208 -0.1009 -0.0124
  413MOL0     C54448   2.775   1.920   3.918  0.7246  0.4503  0.1882
  413MOL0     C54449   3.372   2.307   3.808  0.4891 -0.7359 -0.8110
  413MOL0     C54450   3.488   2.311   3.734  0.3107  0.1019 -0.3504
  413MOL0     H54451   3.750   2.300   3.271  4.2476 -2.9109 -1.6598
  413MOL0     H54452   3.919   2.327   3.133  0.2599  0.6378 -0.8041
  413MOL0     H54453   4.037   2.439   2.933 -1.3543  2.0182 -0.1457
  413MOL0     H54454   4.147   2.366   3.051  1.2363  0.5622 -1.1947
  413MOL0     H54455   4.245   2.602   2.902 -1.7003  0.5423  0.0642
  413MOL0     H54456   4.264   2.437   2.836  0.8793  0.2959 -0.2432
  413MOL0     H54457   4.396   2.384   3.053 -1.1549  0.2321  2.4225
  413MOL0     H54458   4.385   2.554   3.091 -0.0465 -1.3738  0.3744
  413MOL0     H54459   4.513   2.445   2.830  0.7276 -0.3231  1.1962
  413MOL0     H54460   4.502   2.614   2.874 -2.0292  0.9589  2.5727
  413MOL0     H54461   4.675   2.412   3.036 -3.0615 -1.0380 -0.1682
  413MOL0     H54462   4.639   2.582   3.062 -4.8117 -2.2126  1.6002
  413MOL0     H54463   4.743   2.437   2.814 -1.9434  2.4682 -3.7820
  413MOL0     H54464   4.868   2.517   2.920 -0.3870  0.0481 -0.2355
  413MOL0     H54465   4.669   2.663   2.738 -0.6726 -2.2458 -0.3283
  413MOL0     H54466   4.780   2.739   2.845 -2.3207 -0.9283  1.4196
  413MOL0     H54467   4.852   2.546   2.621  0.1726  2.2286 -2.9533
  413MOL0     H54468   4.976   2.624   2.729 -0.8596  3.0057  1.4854
  413MOL0     H54469   5.025   2.654   2.452  0.3554 -0.7680  1.3102
  413MOL0     H54470   5.132   2.830   2.271 -1.1633 -0.5979 -0.1773
  413MOL0     H54471   5.214   2.922   2.407 -1.3132 -0.2208  1.2136
  413MOL0     H54472   5.046   3.100   2.344 -2.1832 -1.2184  0.6706
  413MOL0     H54473   5.017   2.993   2.201 -1.0614 -2.5715  2.8995
  413MOL0     H54474   5.302   3.109   2.253  0.3290  0.0658 -0.5930
  413MOL0     H54475   5.232   3.002   2.129  0.3280  0.8523 -0.1744
  413MOL0     H54476   5.146   3.290   2.195 -1.9458 -1.7812  0.1413
  413MOL0     H54477   5.106   3.203   2.043 -2.6636 -0.6256  1.8282
  413MOL0     H54478   5.113   3.493   2.073  1.5411  0.7597  0.9059
  413MOL0     H54479   5.113   3.650   1.899 -1.2060 -0.6559 -0.2291
  413MOL0     H54480   5.059   3.827   1.546  3.3791 -2.8521  0.8624
  413MOL0     H54481   5.053   3.999   1.401 -1.5564 -0.8594  1.1177
  413MOL0     H54482   5.192   4.134   1.248  0.2861  0.5352 -1.7481
  413MOL0     H54483   5.335   4.231   1.297 -0.2954 -0.0649  2.4793
  413MOL0     H54484   5.204   4.319   1.102  0.5121 -1.2281  1.1969
  413MOL0     H54485   5.225   4.426   1.236 -1.2050 -0.4672  0.4971
  413MOL0     H54486   5.000   4.395   1.324  0.1836  2.9026  0.3979
  413MOL0     H54487   4.976   4.270   1.191 -0.8830 -0.5074  2.7578
  413MOL0     H54488   4.895   4.520   1.160  1.3480 -0.7761  1.7091
  413MOL0     H54489   5.048   4.574   1.122 -0.2867  0.7078  1.5917
  413MOL0     H54490   4.914   4.330   0.983 -1.9216  0.1451  1.3645
  413MOL0     H54491   5.074   4.396   0.950 -0.0461 -0.9523  1.3659
  413MOL0     H54492   4.921   4.493   0.782 -0.0805 -0.4498 -0.3780
  413MOL0     H54493   4.973   4.616   0.884  0.1730 -0.8082 -1.1363
  413MOL0     H54494   4.726   4.449   0.961  1.2294 -0.5255 -0.6778
  413MOL0     H54495   4.759   4.623   1.011  1.5783 -0.6346 -0.0778
  413MOL0     H54496   4.662   4.518   0.740 -2.8263  1.6113 -2.4256
  413MOL0     H54497   4.696   4.689   0.789  0.1533 -0.1558 -0.9069
  413MOL0     H54498   5.330   4.225   1.653 -2.3180  0.8988 -0.2303
  413MOL0     H54499   5.354   4.012   1.797  3.4285  0.6508 -0.7901
  413MOL0     H54500   5.489   3.528   1.752  0.7075 -1.0139  1.0144
  413MOL0     H54501   5.495   3.326   1.900  0.4672  1.5282 -3.3167
  413MOL0     H54502   4.022   2.718   3.304  1.3645 -0.2519  2.1666
  413MOL0     H54503   3.810   2.687   3.459 -3.1432 -3.3638  3.0378
  413MOL0     H54504   3.364   2.475   3.470 -2.6306 -1.2454 -0.4077
  413MOL0     H54505   3.174   2.482   3.603 -0.2340 -1.0550  0.0488
  413MOL0     H54506   2.990   2.422   3.715  0.9466  2.0372  2.0372
  413MOL0     H54507   2.951   2.352   3.863 -0.2068  2.7046 -0.8648
  413MOL0     H54508   2.905   2.161   3.683  1.5075  0.3730 -1.6796
  413MOL0     H54509   3.044   2.218   3.610  1.1892 -0.3210  0.2127
  413MOL0     H54510   3.183   2.096   3.773 -0.3687  1.8234  1.2038
  413MOL0     H54511   3.073   1.990   3.685 -0.9381  2.2108 -0.8692
  413MOL0     H54512   3.083   1.924   3.924  1.5772  0.0212 -1.9910
  413MOL0     H54513   3.076   2.085   3.969  0.7756 -1.2461  1.2850
  413MOL0     H54514   2.674   1.884   3.913 -0.2413  2.9879 -0.2865
  413MOL0     H54515   3.368   2.270   3.910  0.1240 -2.3380 -1.3656
  413MOL0     H54516   3.575   2.261   3.776  0.1990  0.2204  0.0329
  414MOL0     O54517   3.426   8.515   2.757 -0.2940 -0.0577  0.4206
  414MOL0     C54518   3.483   8.415   2.702 -0.1790 -0.4741 -0.1140
  414MOL0     O54519   3.590   8.424   2.611 -0.6644  0.1304  0.1049
  414MOL0     C54520   3.661   8.543   2.614 -0.0618 -0.0927 -0.2257
  414MOL0     C54521   3.791   8.547   2.661  0.3960  0.1866 -0.4164
  414MOL0     C54522   3.859   8.667   2.662  0.4034 -0.9559  0.4388
  414MOL0     C54523   3.797   8.786   2.642 -0.3956 -0.9326  0.1535
  414MOL0     O54524   3.866   8.900   2.667  0.2713 -0.1294 -0.6675
  414MOL0     C54525   3.786   9.001   2.728  0.5594  0.1052  0.6759
  414MOL0     C54526   3.868   9.129   2.740 -0.6518  0.6913  0.5970
  414MOL0     C54527   3.958   9.135   2.868  1.4236  0.5779  0.4444
  414MOL0     C54528   4.056   9.257   2.853  0.5075  0.4392 -0.2454
  414MOL0     C54529   4.170   9.254   2.753  0.5940 -0.7589  0.1141
  414MOL0     C54530   4.258   9.130   2.773  0.2471 -0.0612  0.1643
  414MOL0     C54531   4.376   9.150   2.679  0.5162 -0.5524 -0.9794
  414MOL0     C54532   4.337   9.136   2.530  0.1579  0.2700  1.2403
  414MOL0     N54533   4.434   9.044   2.460 -0.6913  0.2997  0.0101
  414MOL0     C54534   4.441   8.905   2.460 -0.1683 -0.6788 -0.3998
  414MOL0     C54535   4.547   8.867   2.377 -0.4434 -0.9923  0.2041
  414MOL0     C54536   4.588   8.721   2.359  0.0084  0.2369 -1.1214
  414MOL0     C54537   4.676   8.700   2.231 -0.2393 -1.1510  0.1331
  414MOL0     C54538   4.741   8.564   2.215  0.4195 -1.6769  0.8969
  414MOL0     C54539   4.775   8.529   2.074 -1.0022 -0.2034 -0.1623
  414MOL0     O54540   4.814   8.391   2.057  0.2218 -0.8376  0.0492
  414MOL0     C54541   4.934   8.352   2.105 -0.4017 -0.7946  0.1653
  414MOL0     C54542   4.968   8.219   2.091 -0.2756 -0.0752  1.2528
  414MOL0     C54543   5.082   8.163   2.151 -0.5967  0.1137  0.2830
  414MOL0     C54544   5.168   8.245   2.212  0.2129 -1.4964  0.8858
  414MOL0     C54545   5.290   8.192   2.277  0.2374  0.3461  0.1397
  414MOL0     O54546   5.378   8.288   2.329  0.0797 -0.1574 -0.6491
  414MOL0     C54547   5.493   8.256   2.406  0.2393  0.3522  0.3087
  414MOL0     C54548   5.597   8.346   2.405 -0.0047 -0.2888 -0.1442
  414MOL0     C54549   5.712   8.313   2.485  0.7513 -0.3785  0.1490
  414MOL0     C54550   5.728   8.198   2.565  0.0287  0.5345  0.1421
  414MOL0     O54551   5.843   8.163   2.622 -1.0977  0.2712  0.0105
  414MOL0     C54552   5.967   8.213   2.565 -0.0049 -0.1230  0.9305
  414MOL0     C54553   6.074   8.113   2.616 -0.2552  0.8879 -0.2216
  414MOL0     C54554   6.214   8.162   2.625 -0.4186  0.2689 -0.7430
  414MOL0     C54555   6.315   8.049   2.624 -0.2740 -0.4463  0.2702
  414MOL0     C54556   6.458   8.080   2.669 -1.0253  0.1451  0.6660
  414MOL0     C54557   6.558   7.968   2.630 -0.6226 -0.3777  0.6347
  414MOL0     C54558   6.588   7.981   2.477  0.2791  0.2681 -0.2918
  414MOL0     C54559   6.683   7.856   2.449 -0.0129  0.1369  0.1895
  414MOL0    Cl54560   6.839   7.873   2.536  0.2549 -0.0265  0.1242
  414MOL0     C54561   5.626   8.102   2.553  0.3410  0.4199 -0.6051
  414MOL0     C54562   5.503   8.134   2.482  0.6640  0.2800 -0.2136
  414MOL0     O54563   5.311   8.072   2.268  0.3133 -0.3460  0.4205
  414MOL0     C54564   5.134   8.382   2.239  0.0379  0.1869  0.9036
  414MOL0     C54565   5.027   8.431   2.175 -0.6473 -0.0159  0.9090
  414MOL0     N54566   4.595   8.984   2.316  0.2986  0.5090 -0.6260
  414MOL0     N54567   4.525   9.090   2.364  0.1651  0.0162 -0.1753
  414MOL0     C54568   3.674   8.777   2.576 -0.7915  0.1459 -0.5828
  414MOL0     C54569   3.613   8.657   2.556  0.2509  0.6128  0.5170
  414MOL0     C54570   3.412   8.284   2.699  0.8865  0.2807  0.2646
  414MOL0     C54571   3.418   8.207   2.586 -0.5625  0.1096  0.4853
  414MOL0     C54572   3.360   8.081   2.584 -0.4662 -0.5198  0.3264
  414MOL0     C54573   3.280   8.033   2.693 -0.1388 -0.0733  0.2457
  414MOL0     O54574   3.220   7.912   2.687 -0.5615  0.0250 -0.2664
  414MOL0     C54575   3.072   7.908   2.678 -0.3876  0.0926 -0.2705
  414MOL0     C54576   3.029   7.855   2.537  0.1047 -0.0941 -0.0541
  414MOL0     C54577   3.063   7.965   2.438 -0.2491  0.4988  0.1962
  414MOL0     C54578   2.972   7.962   2.320 -0.1621  0.3679  0.4223
  414MOL0     C54579   2.830   8.000   2.347 -0.4390 -1.1736  0.4455
  414MOL0     C54580   2.719   8.033   2.387  0.1194  0.1258 -0.5842
  414MOL0     C54581   3.259   8.121   2.803 -0.3770  0.4321 -0.0393
  414MOL0     C54582   3.333   8.241   2.806  0.4293 -0.1293  0.7975
  414MOL0     H54583   3.836   8.453   2.690 -0.1574 -0.8484 -2.7148
  414MOL0     H54584   3.955   8.667   2.713 -0.8086  0.4114  2.9244
  414MOL0     H54585   3.745   8.966   2.824 -1.7267 -3.7698 -1.4721
  414MOL0     H54586   3.699   9.018   2.664 -1.0649  0.6150  2.8606
  414MOL0     H54587   3.788   9.204   2.739 -2.6353 -1.2348 -2.2898
  414MOL0     H54588   3.928   9.147   2.650 -0.4992 -1.2186  0.2645
  414MOL0     H54589   4.023   9.048   2.878  2.1472  0.3443 -4.1617
  414MOL0     H54590   3.897   9.142   2.959 -0.3475 -0.0991 -0.6429
  414MOL0     H54591   3.999   9.349   2.837 -2.9832 -1.6777 -1.2132
  414MOL0     H54592   4.104   9.272   2.950 -2.2144  2.6844  0.8821
  414MOL0     H54593   4.229   9.343   2.775 -0.0322 -0.5427  0.9509
  414MOL0     H54594   4.127   9.267   2.653 -1.9777  0.5328  1.2987
  414MOL0     H54595   4.203   9.038   2.751 -0.3580 -0.1754  2.0203
  414MOL0     H54596   4.289   9.133   2.878  4.2386  2.4697 -0.8592
  414MOL0     H54597   4.446   9.232   2.696 -0.3084 -0.0490  0.1311
  414MOL0     H54598   4.434   9.065   2.717  0.7131  0.2892  0.6536
  414MOL0     H54599   4.322   9.235   2.485 -0.2216  0.4091  1.6773
  414MOL0     H54600   4.237   9.092   2.518  0.5656 -0.2230 -0.8127
  414MOL0     H54601   4.384   8.844   2.530  0.1798 -1.4220 -0.7573
  414MOL0     H54602   4.503   8.653   2.371  0.8004 -0.4312  1.1603
  414MOL0     H54603   4.651   8.716   2.448 -0.4812  1.6875 -0.6660
  414MOL0     H54604   4.738   8.790   2.227 -4.3785  2.2905  3.3599
  414MOL0     H54605   4.610   8.710   2.145  0.5390 -4.8892 -1.0956
  414MOL0     H54606   4.831   8.569   2.276 -0.9788  2.4974  3.0430
  414MOL0     H54607   4.670   8.488   2.249 -1.3482 -0.8859 -0.8130
  414MOL0     H54608   4.838   8.601   2.022  0.7010 -0.1732  1.8049
  414MOL0     H54609   4.678   8.536   2.025 -1.7742  0.2415  1.3471
  414MOL0     H54610   4.887   8.160   2.050 -1.0598  1.6558  0.1498
  414MOL0     H54611   5.089   8.055   2.158  0.9992  0.2896  2.4281
  414MOL0     H54612   5.577   8.432   2.341 -3.7126 -0.6708  0.2974
  414MOL0     H54613   5.797   8.376   2.461  0.8326 -0.8864 -0.9615
  414MOL0     H54614   5.976   8.317   2.596  2.7609 -0.1497  0.4829
  414MOL0     H54615   5.963   8.213   2.455 -0.1225  1.7696  0.9060
  414MOL0     H54616   6.072   8.032   2.542 -0.6394  0.5368  0.1640
  414MOL0     H54617   6.039   8.077   2.714 -0.3897 -0.2315 -0.6669
  414MOL0     H54618   6.239   8.234   2.704  1.6174 -1.1715  0.0051
  414MOL0     H54619   6.249   8.226   2.544  2.7735  0.3060  0.5438
  414MOL0     H54620   6.274   7.973   2.691 -0.4559  0.5582  1.3465
  414MOL0     H54621   6.304   8.005   2.525  0.3250  0.7984 -0.3801
  414MOL0     H54622   6.460   8.111   2.774 -1.9527  2.8635 -0.0270
  414MOL0     H54623   6.476   8.177   2.621 -2.2485 -0.3405 -0.8763
  414MOL0     H54624   6.517   7.871   2.657  1.2421 -1.1824  0.7584
  414MOL0     H54625   6.648   7.977   2.692 -1.5959  0.0201  2.0316
  414MOL0     H54626   6.506   7.994   2.406  0.7038  1.5243 -0.5826
  414MOL0     H54627   6.649   8.072   2.473  1.3671 -0.4352 -0.0198
  414MOL0     H54628   6.694   7.846   2.341 -0.8569  1.7673 -0.0876
  414MOL0     H54629   6.620   7.772   2.478 -1.9374  1.7658  1.0451
  414MOL0     H54630   5.626   8.001   2.592 -0.3620  0.7815  0.3577
  414MOL0     H54631   5.427   8.056   2.484 -0.0044  0.9146 -0.6404
  414MOL0     H54632   5.205   8.451   2.284  2.8761 -0.4088 -2.2125
  414MOL0     H54633   5.023   8.539   2.168  0.9105  0.1769  2.1969
  414MOL0     H54634   3.647   8.872   2.532 -2.0734  0.0431 -0.0578
  414MOL0     H54635   3.524   8.659   2.494  1.1479 -1.1660 -0.9466
  414MOL0     H54636   3.486   8.233   2.506  2.0282  1.4921  2.9763
  414MOL0     H54637   3.386   8.020   2.498  0.2973  2.4959 -1.7338
  414MOL0     H54638   3.028   8.007   2.695  0.8536  0.4529  1.0130
  414MOL0     H54639   3.044   7.837   2.757  0.4503 -0.2601 -0.2889
  414MOL0     H54640   3.065   7.757   2.504 -0.7358 -0.9164  1.3447
  414MOL0     H54641   2.920   7.846   2.540  0.1831 -0.9732  1.0069
  414MOL0     H54642   3.166   7.963   2.401  0.8085  5.6494  1.9631
  414MOL0     H54643   3.061   8.066   2.480  2.0109  0.3066  0.8843
  414MOL0     H54644   3.008   8.023   2.237 -3.8183  0.1453 -1.4912
  414MOL0     H54645   2.983   7.859   2.284 -0.2069  1.5310 -3.2914
  414MOL0     H54646   2.622   8.067   2.414  0.8751 -0.4866  3.6739
  414MOL0     H54647   3.203   8.075   2.884  1.6386 -0.6124  0.8416
  414MOL0     H54648   3.332   8.300   2.897 -4.1199 -1.9443  2.1934
  415MOL0     O54649   1.339   5.143   1.608 -0.6536 -0.4037  0.1547
  415MOL0     C54650   1.256   5.063   1.568 -0.5219  0.2986 -0.0868
  415MOL0     O54651   1.284   4.931   1.560  0.1427 -0.3198 -0.3604
  415MOL0     C54652   1.416   4.878   1.550  0.0415  0.2442  0.0560
  415MOL0     C54653   1.433   4.784   1.449 -0.0825  0.6956  0.4516
  415MOL0     C54654   1.561   4.718   1.439  0.3367  0.0091 -0.2536
  415MOL0     C54655   1.671   4.770   1.502 -0.0671  0.7972 -0.3167
  415MOL0     O54656   1.789   4.719   1.474  0.0640 -0.5284 -0.2093
  415MOL0     C54657   1.908   4.785   1.523 -0.2631  0.0582  0.4754
  415MOL0     C54658   2.027   4.732   1.446 -0.6574 -0.5838 -0.2090
  415MOL0     C54659   2.072   4.598   1.513  0.1048  0.7223 -0.2501
  415MOL0     C54660   2.178   4.613   1.629  0.8366 -0.5251 -1.1703
  415MOL0     C54661   2.246   4.490   1.655  0.2267  1.1327 -0.2993
  415MOL0     C54662   2.331   4.501   1.790  0.2917  0.4892  0.1133
  415MOL0     C54663   2.445   4.393   1.793  0.0940 -0.1786  0.3406
  415MOL0     C54664   2.393   4.252   1.799  0.3725 -0.2358 -0.6458
  415MOL0     N54665   2.411   4.183   1.678 -0.3219 -0.7506  1.1278
  415MOL0     C54666   2.517   4.101   1.640  1.0896 -0.8255  0.5685
  415MOL0     C54667   2.502   4.074   1.507 -0.2728 -0.0963 -0.1624
  415MOL0     C54668   2.592   3.976   1.431 -0.7356  1.1337  0.5484
  415MOL0     C54669   2.579   3.973   1.273  0.3462  0.4270 -0.9449
  415MOL0     C54670   2.681   3.891   1.194  0.2094  0.0896 -0.0514
  415MOL0     C54671   2.639   3.898   1.047  1.1608 -0.3788 -0.0885
  415MOL0     O54672   2.722   3.834   0.957  0.6335 -0.1791  0.3363
  415MOL0     C54673   2.823   3.902   0.896 -0.2511  0.0049 -0.2280
  415MOL0     C54674   2.899   3.827   0.809  0.2583 -0.1558 -0.6078
  415MOL0     C54675   3.010   3.869   0.736 -0.4244 -0.2062 -0.0426
  415MOL0     C54676   3.063   4.000   0.763  0.5128  0.1033 -0.0921
  415MOL0     C54677   3.188   4.042   0.690  0.0312  0.0128  0.6787
  415MOL0     O54678   3.222   4.166   0.723  0.1387 -0.3292  0.3975
  415MOL0     C54679   3.336   4.236   0.681 -0.9506 -0.1178 -0.6996
  415MOL0     C54680   3.324   4.373   0.709 -0.1038 -0.6686  0.0286
  415MOL0     C54681   3.421   4.465   0.656  0.8649  0.1851 -1.2550
  415MOL0     C54682   3.517   4.423   0.568 -0.9816  1.2812  0.0137
  415MOL0     O54683   3.605   4.517   0.521 -0.3496 -0.0466  1.0548
  415MOL0     C54684   3.713   4.464   0.443  0.0528 -0.3288  0.1610
  415MOL0     C54685   3.755   4.575   0.343  0.9765 -0.0595 -1.0965
  415MOL0     C54686   3.653   4.607   0.238  0.0030 -0.4731  0.6091
  415MOL0     C54687   3.705   4.720   0.148  0.0829  0.6714 -1.1072
  415MOL0     C54688   3.835   4.685   0.067 -0.7137  0.0047  0.6561
  415MOL0     C54689   3.852   4.786  -0.052 -0.4709  0.8548 -0.5685
  415MOL0     C54690   3.849   4.935  -0.002  0.2139 -0.1445 -0.7042
  415MOL0     C54691   3.870   5.038  -0.112 -0.7555 -0.4506 -0.2095
  415MOL0    Cl54692   4.017   5.006  -0.215  0.0539  0.5465  0.1863
  415MOL0     C54693   3.530   4.281   0.551 -0.3235 -0.2504 -0.1334
  415MOL0     C54694   3.440   4.179   0.607 -0.2373  0.1608  0.1827
  415MOL0     O54695   3.252   3.964   0.627  0.2995  0.7771 -0.2611
  415MOL0     C54696   2.987   4.078   0.849 -0.3189  0.1545  0.0521
  415MOL0     C54697   2.874   4.034   0.925  0.4495  0.6550  0.3071
  415MOL0     N54698   2.394   4.147   1.463  0.5203  0.7375 -0.2376
  415MOL0     N54699   2.338   4.210   1.568 -0.1741  0.0154  1.4450
  415MOL0     C54700   1.655   4.866   1.602 -0.4143 -0.1644  0.8434
  415MOL0     C54701   1.527   4.912   1.635  0.6880  0.6845 -0.1152
  415MOL0     C54702   1.121   5.105   1.554  0.8825  0.0444 -0.2102
  415MOL0     C54703   1.074   5.229   1.610 -0.4464 -0.5805  0.5314
  415MOL0     C54704   0.945   5.276   1.591  0.5671 -0.0227 -0.4661
  415MOL0     C54705   0.852   5.197   1.521 -0.8220  0.1996 -0.4698
  415MOL0     O54706   0.737   5.264   1.478 -0.2167 -0.2297 -0.4936
  415MOL0     C54707   0.623   5.180   1.436  0.0600 -0.2209 -0.6053
  415MOL0     C54708   0.487   5.238   1.454 -0.3453  0.7324  0.7452
  415MOL0     C54709   0.486   5.270   1.605 -0.4976  0.2240 -0.3243
  415MOL0     C54710   0.339   5.292   1.657 -0.7440 -0.9673 -0.1606
  415MOL0     C54711   0.318   5.437   1.675 -0.3263  0.1800  0.7838
  415MOL0     C54712   0.288   5.553   1.698 -0.8092  0.9930  0.1557
  415MOL0     C54713   0.891   5.071   1.475 -0.8278 -0.1212 -0.0835
  415MOL0     C54714   1.023   5.029   1.495 -0.0130 -0.0524 -0.0840
  415MOL0     H54715   1.347   4.738   1.404 -0.2251  1.7280 -0.3710
  415MOL0     H54716   1.576   4.627   1.381 -0.2451 -0.1326 -0.1995
  415MOL0     H54717   1.919   4.773   1.631  0.4677  0.4738  0.4544
  415MOL0     H54718   1.908   4.893   1.505 -1.5787  0.2785  1.6109
  415MOL0     H54719   2.112   4.800   1.444 -1.9317  1.0594 -0.7624
  415MOL0     H54720   1.994   4.711   1.344 -3.3473  0.6567  0.3152
  415MOL0     H54721   2.124   4.546   1.432 -2.0305  0.3641 -1.4489
  415MOL0     H54722   1.989   4.532   1.542  2.2892 -1.2760  1.9684
  415MOL0     H54723   2.250   4.680   1.581  1.2425 -0.7241 -0.8369
  415MOL0     H54724   2.134   4.657   1.719  0.1408  0.9372 -2.1779
  415MOL0     H54725   2.314   4.465   1.573  0.9530  1.2232  0.2617
  415MOL0     H54726   2.180   4.403   1.653  3.0040 -1.2085  1.4678
  415MOL0     H54727   2.265   4.500   1.877 -1.6038  0.1267 -1.2574
  415MOL0     H54728   2.387   4.595   1.799  2.3554 -0.7989  1.3592
  415MOL0     H54729   2.515   4.411   1.712  0.0130 -0.8338  0.1180
  415MOL0     H54730   2.501   4.413   1.885 -1.3657 -0.1554  1.2633
  415MOL0     H54731   2.285   4.259   1.812  0.4304 -0.2180 -0.1197
  415MOL0     H54732   2.443   4.193   1.877 -3.3854 -2.6770  0.1943
  415MOL0     H54733   2.599   4.065   1.702 -0.3724 -0.3598  2.8646
  415MOL0     H54734   2.574   3.873   1.464  1.9688  1.0984  2.1866
  415MOL0     H54735   2.696   4.006   1.447 -0.2786 -0.5558  0.8998
  415MOL0     H54736   2.587   4.071   1.225 -1.8856  0.6043 -1.0728
  415MOL0     H54737   2.485   3.920   1.255 -0.8686  0.0315  4.5862
  415MOL0     H54738   2.781   3.932   1.209 -0.9979  3.0457  0.6590
  415MOL0     H54739   2.666   3.791   1.235 -0.6575  1.2490  2.6764
  415MOL0     H54740   2.622   4.005   1.029  2.7473  0.0256  0.6649
  415MOL0     H54741   2.541   3.850   1.035 -0.4674  2.5601  0.2871
  415MOL0     H54742   2.876   3.721   0.799 -3.6634  0.4527  0.3052
  415MOL0     H54743   3.051   3.797   0.665 -3.3061  0.1479 -2.2602
  415MOL0     H54744   3.249   4.416   0.776 -1.4293 -4.5517  1.2748
  415MOL0     H54745   3.424   4.574   0.663  2.8624  0.1576 -0.9848
  415MOL0     H54746   3.690   4.379   0.379 -0.8744 -0.1121  0.1917
  415MOL0     H54747   3.792   4.449   0.517 -0.8690 -2.3020  0.7984
  415MOL0     H54748   3.854   4.541   0.310 -0.4039 -5.9690 -0.1758
  415MOL0     H54749   3.777   4.665   0.402  1.2116 -0.3017 -0.8117
  415MOL0     H54750   3.570   4.638   0.303 -2.4703 -4.5043 -0.2214
  415MOL0     H54751   3.624   4.515   0.186  1.0210 -2.1296  2.7726
  415MOL0     H54752   3.620   4.739   0.082 -0.0247  1.9375 -0.6194
  415MOL0     H54753   3.722   4.808   0.210  0.6590 -0.8457  0.9842
  415MOL0     H54754   3.828   4.583   0.029 -0.1608 -0.7619  2.4868
  415MOL0     H54755   3.918   4.693   0.138 -0.3228 -1.1943  0.3561
  415MOL0     H54756   3.788   4.767  -0.138  2.0131  0.5897 -2.4821
  415MOL0     H54757   3.949   4.777  -0.101  1.2855  2.1923  2.3925
  415MOL0     H54758   3.747   4.957   0.031 -0.4124 -3.0986 -0.4307
  415MOL0     H54759   3.933   4.955   0.066 -1.1003 -0.1943  0.9909
  415MOL0     H54760   3.891   5.136  -0.067 -0.5165 -1.1136  1.2026
  415MOL0     H54761   3.783   5.053  -0.176 -3.2445  2.1451  3.3515
  415MOL0     H54762   3.608   4.239   0.488 -1.2732 -1.8480 -0.2967
  415MOL0     H54763   3.460   4.073   0.597  0.3095  0.1927  0.8306
  415MOL0     H54764   3.018   4.179   0.874  0.8569  0.6218 -2.8640
  415MOL0     H54765   2.819   4.098   0.992 -0.1006  1.6224 -1.0205
  415MOL0     H54766   1.736   4.897   1.667  1.1976 -2.9791  0.3181
  415MOL0     H54767   1.511   4.982   1.716  4.7858  1.7379 -0.0311
  415MOL0     H54768   1.147   5.298   1.651  0.0120 -1.4433  1.2063
  415MOL0     H54769   0.917   5.373   1.630  2.2383  0.9676 -1.5847
  415MOL0     H54770   0.622   5.084   1.488  0.1631  0.7731  1.3130
  415MOL0     H54771   0.635   5.144   1.333 -3.6319 -3.9891  0.0181
  415MOL0     H54772   0.486   5.329   1.393 -1.7504  0.7634  0.7949
  415MOL0     H54773   0.422   5.157   1.422  1.8077 -1.1717  0.9702
  415MOL0     H54774   0.542   5.362   1.622  1.6457 -0.8523 -1.2261
  415MOL0     H54775   0.530   5.190   1.664  2.4003 -0.7298 -3.4517
  415MOL0     H54776   0.259   5.253   1.593 -1.4517  0.2476 -0.0413
  415MOL0     H54777   0.336   5.246   1.757 -1.1448  0.5721  0.5679
  415MOL0     H54778   0.270   5.658   1.715 -0.1655  1.2508 -0.6638
  415MOL0     H54779   0.823   4.997   1.434  0.9265 -2.0876  0.3403
  415MOL0     H54780   1.046   4.932   1.450  1.5454 -1.5140  3.4474
  416MOL0     O54781   9.644   2.109   5.940 -0.1000 -0.2347 -0.0168
  416MOL0     C54782   9.715   2.140   6.035  0.3813 -0.2214  0.8348
  416MOL0     O54783   9.675   2.185   6.152  0.5484 -0.7463 -0.3379
  416MOL0     C54784   9.541   2.183   6.191  0.5345 -0.8286  0.2468
  416MOL0     C54785   9.482   2.311   6.213 -0.3675  0.1894 -0.8954
  416MOL0     C54786   9.353   2.310   6.270  0.4322  0.1398  0.1544
  416MOL0     C54787   9.280   2.191   6.289 -0.2241 -0.0386 -0.6129
  416MOL0     O54788   9.147   2.195   6.328 -0.2624 -0.2650  0.0204
  416MOL0     C54789   9.128   2.273   6.447  0.6827 -0.3438 -0.1752
  416MOL0     C54790   8.970   2.277   6.475 -0.6388 -0.1589  0.7114
  416MOL0     C54791   8.947   2.369   6.600  0.9414  0.1809  0.5846
  416MOL0     C54792   8.808   2.373   6.642 -0.2574  0.4096  0.5331
  416MOL0     C54793   8.789   2.407   6.784 -1.2477  0.3734 -0.0397
  416MOL0     C54794   8.813   2.303   6.877  0.7141  0.5610 -0.5323
  416MOL0     C54795   8.795   2.354   7.016  0.6015 -0.8508  0.5818
  416MOL0     C54796   8.807   2.244   7.118 -0.2379 -0.1858 -1.2966
  416MOL0     N54797   8.941   2.206   7.162 -0.5782  0.4228 -0.0707
  416MOL0     C54798   9.014   2.283   7.243 -0.5901  0.3661  1.1267
  416MOL0     C54799   9.118   2.206   7.284  0.3801 -0.2963  0.2780
  416MOL0     C54800   9.218   2.230   7.393  0.4601 -0.0159  0.3933
  416MOL0     C54801   9.165   2.220   7.534 -0.2243 -0.3711 -0.3554
  416MOL0     C54802   9.100   2.076   7.557  0.1917 -0.9338  0.2841
  416MOL0     C54803   8.952   2.059   7.519  0.4334 -0.2724  0.0160
  416MOL0     O54804   8.875   2.028   7.627  0.0733  0.2855  0.3718
  416MOL0     C54805   8.737   2.002   7.615  0.3428  0.4074  0.3550
  416MOL0     C54806   8.669   2.037   7.500  0.6613  0.5108  0.3707
  416MOL0     C54807   8.532   2.007   7.499  1.0511 -0.8293  0.2601
  416MOL0     C54808   8.457   1.953   7.607  0.1281 -0.3286  0.6180
  416MOL0     C54809   8.317   1.915   7.599  0.7044  0.1327  0.1315
  416MOL0     O54810   8.225   1.979   7.517  0.2436 -0.2441 -0.2640
  416MOL0     C54811   8.089   1.933   7.523  0.0779 -0.7454 -0.5727
  416MOL0     C54812   8.023   1.849   7.435  1.1154 -0.0072  0.2694
  416MOL0     C54813   7.880   1.835   7.434 -0.5801 -0.9347  0.2609
  416MOL0     C54814   7.805   1.894   7.539  0.0112 -0.3541  0.6191
  416MOL0     O54815   7.669   1.909   7.516  0.0234  0.2204 -0.1212
  416MOL0     C54816   7.619   1.986   7.408  0.4209 -0.2166 -0.4851
  416MOL0     C54817   7.475   1.950   7.378 -0.2036  0.0404  0.7178
  416MOL0     C54818   7.372   1.931   7.489  0.1727  0.0918 -0.7902
  416MOL0     C54819   7.308   2.056   7.543 -0.2255 -0.9341 -0.5445
  416MOL0     C54820   7.224   2.032   7.670 -1.0285  0.8428  0.4702
  416MOL0     C54821   7.119   2.135   7.694 -1.0202  0.0315 -0.0758
  416MOL0     C54822   6.999   2.065   7.763 -0.2783 -0.2505 -0.4442
  416MOL0     C54823   6.881   2.163   7.766 -0.0882 -0.0569  0.6420
  416MOL0    Cl54824   6.722   2.076   7.790  0.0178 -0.1895  0.0456
  416MOL0     C54825   7.867   1.976   7.633  0.4687 -0.3522 -0.3200
  416MOL0     C54826   8.007   1.996   7.617  0.2236 -0.0857  0.2060
  416MOL0     O54827   8.286   1.827   7.675  0.1837  0.1059 -0.3223
  416MOL0     C54828   8.529   1.925   7.717  0.1844  0.3242 -0.1003
  416MOL0     C54829   8.672   1.943   7.722  0.1483  0.2986  0.2850
  416MOL0     N54830   9.105   2.086   7.210 -0.1056  0.4201  0.3231
  416MOL0     N54831   8.989   2.085   7.147 -0.1815  1.1332  0.3750
  416MOL0     C54832   9.338   2.063   6.255  0.3506 -0.3638  0.6153
  416MOL0     C54833   9.465   2.061   6.205  0.5226  0.5812  0.3184
  416MOL0     C54834   9.857   2.120   6.012  0.3091  0.2272  0.2221
  416MOL0     C54835   9.949   2.172   6.110  0.1614 -0.1981 -0.1673
  416MOL0     C54836  10.081   2.157   6.102  0.7193  0.2305  0.2646
  416MOL0     C54837  10.141   2.098   5.986  0.3739  1.3258  0.9015
  416MOL0     O54838  10.276   2.097   5.958 -0.2282  0.3026 -0.1654
  416MOL0     C54839  10.362   2.014   6.037 -0.7564 -0.0682  0.2885
  416MOL0     C54840  10.433   2.109   6.146  0.2788 -0.3294 -0.0599
  416MOL0     C54841  10.534   2.198   6.080 -0.3475 -0.2744  0.4111
  416MOL0     C54842  10.668   2.136   6.041 -0.3879  0.9531 -0.3782
  416MOL0     C54843  10.780   2.149   6.137 -0.9021 -0.2059  0.2286
  416MOL0     C54844  10.873   2.160   6.216 -0.3583  0.1021 -0.2418
  416MOL0     C54845  10.059   2.048   5.884  0.2633  0.6888  0.4987
  416MOL0     C54846   9.912   2.065   5.894  0.6583 -0.0551  0.3083
  416MOL0     H54847   9.542   2.395   6.179  2.2603 -1.8283 -1.5929
  416MOL0     H54848   9.296   2.401   6.288 -1.5658 -0.1986 -3.5625
  416MOL0     H54849   9.160   2.378   6.444  3.3279 -1.0937 -0.9035
  416MOL0     H54850   9.174   2.226   6.534 -0.0960 -1.4347 -0.3352
  416MOL0     H54851   8.927   2.176   6.479 -1.7669  0.3433  2.7105
  416MOL0     H54852   8.919   2.323   6.390  1.4977  1.1745  0.0551
  416MOL0     H54853   8.983   2.471   6.591  0.8012  0.0792 -1.7728
  416MOL0     H54854   9.015   2.329   6.676 -1.0074 -0.8575  1.8706
  416MOL0     H54855   8.763   2.451   6.579 -0.8963 -2.1670 -2.4891
  416MOL0     H54856   8.758   2.276   6.636  1.1778 -0.6810  3.9312
  416MOL0     H54857   8.685   2.442   6.791 -1.0540  1.0361 -0.4180
  416MOL0     H54858   8.858   2.486   6.813 -0.4626 -0.0898 -0.6209
  416MOL0     H54859   8.910   2.257   6.855 -0.2538 -2.2716  0.6466
  416MOL0     H54860   8.744   2.222   6.853  0.6204  0.3483  0.4218
  416MOL0     H54861   8.880   2.422   7.028 -1.0055  1.4167  0.0014
  416MOL0     H54862   8.698   2.405   7.021  2.2471  2.8155 -0.7943
  416MOL0     H54863   8.744   2.159   7.092 -1.8688  0.5468  0.1118
  416MOL0     H54864   8.759   2.278   7.210  0.6037 -2.5749  0.1122
  416MOL0     H54865   8.982   2.377   7.287 -1.0780  0.3467  0.8217
  416MOL0     H54866   9.275   2.319   7.367 -0.6476  1.0612  1.5398
  416MOL0     H54867   9.293   2.151   7.380 -0.4937 -1.4323  2.8727
  416MOL0     H54868   9.090   2.297   7.553 -2.4867 -1.6136 -3.4553
  416MOL0     H54869   9.252   2.234   7.598  0.7820 -2.7951 -1.0630
  416MOL0     H54870   9.154   1.995   7.507  2.0379  1.9092 -2.7300
  416MOL0     H54871   9.101   2.054   7.665 -2.5603 -0.0352  0.5578
  416MOL0     H54872   8.946   1.985   7.438  0.7706 -2.5789  2.0045
  416MOL0     H54873   8.926   2.162   7.492  0.0426 -0.6775 -1.2555
  416MOL0     H54874   8.723   2.075   7.414 -0.2523  1.4890  0.2026
  416MOL0     H54875   8.480   2.035   7.408  1.7246  0.9497  0.3794
  416MOL0     H54876   8.078   1.810   7.350 -0.8819 -3.6087  0.4346
  416MOL0     H54877   7.830   1.769   7.364 -2.5683 -0.3205  1.0528
  416MOL0     H54878   7.680   1.973   7.318  2.5451  0.2486  0.8230
  416MOL0     H54879   7.613   2.093   7.428 -1.0616  0.6829 -4.6379
  416MOL0     H54880   7.491   1.853   7.330 -0.8215 -0.7960  2.1601
  416MOL0     H54881   7.448   2.029   7.307  2.4877  1.1445  0.8091
  416MOL0     H54882   7.410   1.863   7.567 -2.7433 -0.8968 -0.0987
  416MOL0     H54883   7.289   1.875   7.445 -1.9274  2.0329  0.4929
  416MOL0     H54884   7.395   2.121   7.556 -1.2293  0.4155 -0.4045
  416MOL0     H54885   7.243   2.089   7.462  0.8949 -1.6770 -1.7960
  416MOL0     H54886   7.291   2.037   7.757  0.6114 -3.4386 -0.2783
  416MOL0     H54887   7.188   1.929   7.670  2.1418 -0.4168  2.1767
  416MOL0     H54888   7.099   2.179   7.596 -3.9262  0.6711  0.7223
  416MOL0     H54889   7.158   2.218   7.754  0.7596 -0.4764 -0.4551
  416MOL0     H54890   6.973   1.977   7.704 -1.6891 -0.6416  0.7002
  416MOL0     H54891   7.023   2.038   7.866  2.7002 -1.2885 -1.3259
  416MOL0     H54892   6.894   2.218   7.673  0.7032 -2.7282 -0.9472
  416MOL0     H54893   6.877   2.224   7.857 -1.0708  1.5993 -0.4658
  416MOL0     H54894   7.801   2.043   7.687 -1.3276 -0.6637 -2.0114
  416MOL0     H54895   8.048   2.069   7.686 -2.1735 -0.5468  2.2966
  416MOL0     H54896   8.480   1.899   7.810  0.6961 -2.7116 -0.5649
  416MOL0     H54897   8.730   1.926   7.811 -1.0524 -0.4208  0.9511
  416MOL0     H54898   9.271   1.978   6.263 -0.1205  0.1822  4.4268
  416MOL0     H54899   9.517   1.969   6.177  0.1653 -1.3213  4.9554
  416MOL0     H54900   9.914   2.201   6.208  0.4107  0.9076 -0.3962
  416MOL0     H54901  10.130   2.202   6.188 -0.0621  0.9056  0.3647
  416MOL0     H54902  10.431   1.960   5.972 -0.1125  0.8920  0.1383
  416MOL0     H54903  10.310   1.944   6.102  1.8827  1.6786  4.7206
  416MOL0     H54904  10.351   2.162   6.196 -0.4915 -0.5939 -1.0022
  416MOL0     H54905  10.472   2.042   6.222 -4.5663  0.3340  3.4622
  416MOL0     H54906  10.546   2.275   6.157 -0.8854 -0.6001  0.8341
  416MOL0     H54907  10.490   2.238   5.989  1.6536 -0.1591 -0.5575
  416MOL0     H54908  10.646   2.029   6.033 -0.2060  0.6060  2.5483
  416MOL0     H54909  10.712   2.163   5.945 -1.6754  1.7830 -0.7623
  416MOL0     H54910  10.951   2.172   6.288 -0.1735 -0.4909 -0.3354
  416MOL0     H54911  10.106   1.995   5.802  1.3186  0.6147  1.1307
  416MOL0     H54912   9.856   2.029   5.808  1.7639  0.2938 -0.5881
  417MOL0     O54913   0.828   2.496   5.323  0.7159  0.5036 -0.4579
  417MOL0     C54914   0.904   2.584   5.306  0.4534 -0.2533  0.6602
  417MOL0     O54915   0.870   2.717   5.270  0.3381 -0.7533  0.0201
  417MOL0     C54916   0.737   2.754   5.291  0.2796 -0.0713  1.5791
  417MOL0     C54917   0.684   2.757   5.414 -0.6759  0.3213  1.0141
  417MOL0     C54918   0.547   2.784   5.442  1.2527  1.0607  0.0176
  417MOL0     C54919   0.461   2.820   5.338 -0.0972  0.3206 -0.2550
  417MOL0     O54920   0.330   2.868   5.355 -0.4125  0.4204  0.4643
  417MOL0     C54921   0.270   2.862   5.476  0.3544  1.0772  0.0387
  417MOL0     C54922   0.124   2.908   5.457 -0.3786 -0.0645  0.0203
  417MOL0     C54923   0.073   2.978   5.583  0.4198 -0.5720 -0.0087
  417MOL0     C54924   0.057   2.877   5.709 -0.3338  0.2984 -0.5241
  417MOL0     C54925  -0.029   2.942   5.811 -0.4333  0.6342  0.5206
  417MOL0     C54926  -0.012   2.885   5.952 -1.0832 -0.3430 -0.0832
  417MOL0     C54927  -0.004   2.736   5.968  0.3081 -0.8706 -0.2663
  417MOL0     C54928  -0.139   2.659   5.980 -0.1837 -0.3752 -0.3931
  417MOL0     N54929  -0.133   2.515   5.966 -0.3889  0.0032  0.9132
  417MOL0     C54930  -0.165   2.453   5.848  0.9814  0.4381 -0.6955
  417MOL0     C54931  -0.173   2.318   5.878 -0.4411  0.2557  0.2604
  417MOL0     C54932  -0.208   2.208   5.792  0.1062 -0.0500 -0.0393
  417MOL0     C54933  -0.345   2.161   5.830 -0.0578  0.2960  0.1556
  417MOL0     C54934  -0.397   2.045   5.734  1.0403 -0.3596  0.0874
  417MOL0     C54935  -0.544   2.016   5.764  0.1219 -0.7264 -0.0176
  417MOL0     O54936  -0.584   1.923   5.670 -0.6131  0.2286  0.8091
  417MOL0     C54937  -0.717   1.891   5.659  0.9085 -0.1879 -0.9706
  417MOL0     C54938  -0.744   1.785   5.571 -0.6594 -0.5072  0.2719
  417MOL0     C54939  -0.872   1.728   5.569 -0.1149  2.0797  0.5212
  417MOL0     C54940  -0.980   1.780   5.638  0.3315 -0.8495 -0.1974
  417MOL0     C54941  -1.113   1.721   5.639  1.3570 -0.4064  0.0806
  417MOL0     O54942  -1.210   1.792   5.690 -0.5588  0.0423 -0.1425
  417MOL0     C54943  -1.336   1.729   5.705 -0.3866 -0.7809  0.4322
  417MOL0     C54944  -1.435   1.744   5.611 -0.5755 -0.3026 -0.4453
  417MOL0     C54945  -1.560   1.667   5.622 -0.0037 -0.6587  1.4969
  417MOL0     C54946  -1.583   1.586   5.732  1.7039 -0.2848 -0.0164
  417MOL0     O54947  -1.690   1.504   5.742 -0.2376 -0.6151 -0.1023
  417MOL0     C54948  -1.804   1.511   5.663 -0.0217 -1.2135  0.2655
  417MOL0     C54949  -1.895   1.633   5.685 -0.3877  0.1437  0.2947
  417MOL0     C54950  -1.895   1.709   5.825  0.0918 -0.0336 -0.3600
  417MOL0     C54951  -1.981   1.831   5.813 -0.3581 -0.4639  0.1799
  417MOL0     C54952  -2.129   1.791   5.780  1.1803  0.0447  0.2857
  417MOL0     C54953  -2.246   1.881   5.818  0.9176 -0.3000 -0.7192
  417MOL0     C54954  -2.226   2.022   5.753  0.2049  0.4751  0.1599
  417MOL0     C54955  -2.254   2.018   5.605  0.4065 -0.1662  0.4199
  417MOL0    Cl54956  -2.245   2.169   5.524 -0.2314 -0.2923 -0.1442
  417MOL0     C54957  -1.477   1.576   5.821  0.8513 -1.8386 -0.2806
  417MOL0     C54958  -1.358   1.646   5.815 -0.4449 -0.4613  0.0264
  417MOL0     O54959  -1.130   1.613   5.590 -0.4061  0.3522 -0.4135
  417MOL0     C54960  -0.956   1.900   5.708 -0.3795  1.0223 -0.6530
  417MOL0     C54961  -0.826   1.955   5.727  0.0275 -0.0840  0.7772
  417MOL0     N54962  -0.128   2.316   6.009 -0.3519  0.5078 -0.6135
  417MOL0     N54963  -0.088   2.428   6.055  0.7681 -0.5929 -0.4894
  417MOL0     C54964   0.520   2.821   5.214  0.4501  0.5022  0.4079
  417MOL0     C54965   0.649   2.775   5.186 -0.4610  0.2783  0.4963
  417MOL0     C54966   1.048   2.548   5.326 -0.0837  0.4752 -0.0072
  417MOL0     C54967   1.093   2.415   5.314 -0.2830 -0.0195  0.2004
  417MOL0     C54968   1.229   2.381   5.318  0.7381 -0.0745  0.1206
  417MOL0     C54969   1.323   2.481   5.327  0.6212  0.9808 -0.2098
  417MOL0     O54970   1.460   2.470   5.308  0.5419 -0.0786  0.4989
  417MOL0     C54971   1.529   2.349   5.340 -0.0166  0.1244  0.4144
  417MOL0     C54972   1.672   2.399   5.357  0.2906 -0.4071  0.2272
  417MOL0     C54973   1.758   2.275   5.371 -0.0155 -0.9639  0.3112
  417MOL0     C54974   1.899   2.325   5.410  1.0827 -0.1503 -0.8159
  417MOL0     C54975   1.973   2.394   5.303  0.2957 -0.2974  0.4723
  417MOL0     C54976   2.040   2.429   5.206  0.5297 -0.4119 -0.5173
  417MOL0     C54977   1.280   2.613   5.341  0.4453 -0.9843 -0.4508
  417MOL0     C54978   1.148   2.649   5.352  0.5523 -0.0886  0.6876
  417MOL0     H54979   0.752   2.727   5.494  0.1211 -0.9227 -0.0951
  417MOL0     H54980   0.517   2.781   5.546  0.8539  2.6249 -0.0266
  417MOL0     H54981   0.334   2.911   5.551  2.2775  0.3351 -1.0579
  417MOL0     H54982   0.261   2.758   5.510  2.5317  1.1044  0.8136
  417MOL0     H54983   0.068   2.820   5.423 -0.7810  1.2505 -3.0344
  417MOL0     H54984   0.121   2.984   5.379  0.4833  0.4792  0.5121
  417MOL0     H54985  -0.026   3.015   5.556  0.3638 -0.9909 -0.4012
  417MOL0     H54986   0.136   3.067   5.594  0.0798 -0.4852  1.4637
  417MOL0     H54987   0.017   2.777   5.691  1.4608 -0.4240 -0.7347
  417MOL0     H54988   0.150   2.863   5.764 -1.7635 -1.0146  1.6970
  417MOL0     H54989  -0.136   2.938   5.787 -0.3084 -1.0414  0.1088
  417MOL0     H54990   0.003   3.045   5.828  0.7169  0.0677  2.0388
  417MOL0     H54991  -0.088   2.928   6.018  0.3911  2.0123  0.1828
  417MOL0     H54992   0.085   2.921   5.987 -1.2344  2.4951 -2.2761
  417MOL0     H54993   0.047   2.683   5.887 -1.2904 -2.7557 -0.1343
  417MOL0     H54994   0.045   2.726   6.066  1.2639  2.2089 -0.3409
  417MOL0     H54995  -0.211   2.696   5.907  0.0938 -0.0452 -0.5023
  417MOL0     H54996  -0.178   2.674   6.081 -1.9330 -3.6517 -0.4605
  417MOL0     H54997  -0.203   2.497   5.756  1.0843 -1.5657 -1.7466
  417MOL0     H54998  -0.137   2.126   5.803  0.0198 -0.0269  0.7764
  417MOL0     H54999  -0.205   2.247   5.690  0.0929  0.9839  0.3397
  417MOL0     H55000  -0.411   2.248   5.826  0.5159  0.7581  0.6542
  417MOL0     H55001  -0.343   2.127   5.934  0.5959 -0.7223 -0.1741
  417MOL0     H55002  -0.397   2.083   5.632 -3.2344  0.8856  0.3591
  417MOL0     H55003  -0.330   1.960   5.750 -0.5344 -1.5322  0.6866
  417MOL0     H55004  -0.586   2.117   5.750 -0.2683 -0.9191 -0.2516
  417MOL0     H55005  -0.562   1.997   5.870  0.0467  2.4647  0.6656
  417MOL0     H55006  -0.667   1.749   5.504  0.6390  1.7194  0.4513
  417MOL0     H55007  -0.889   1.647   5.498 -1.7242  3.1015 -0.3234
  417MOL0     H55008  -1.430   1.817   5.530  2.2457  0.0161 -0.0885
  417MOL0     H55009  -1.626   1.672   5.536  2.8135 -0.3128 -0.8238
  417MOL0     H55010  -1.864   1.422   5.684 -0.8077 -1.2270 -1.8048
  417MOL0     H55011  -1.770   1.493   5.560  1.2376  2.2066 -0.0498
  417MOL0     H55012  -1.994   1.593   5.659 -1.4413  2.8490 -0.2585
  417MOL0     H55013  -1.861   1.714   5.619 -2.3518  0.2761 -0.6472
  417MOL0     H55014  -1.794   1.731   5.859  0.1290 -0.6295 -0.0564
  417MOL0     H55015  -1.942   1.647   5.902  2.1294 -2.0513 -0.6195
  417MOL0     H55016  -1.958   1.888   5.903  2.7299 -1.2501  0.0077
  417MOL0     H55017  -1.943   1.887   5.727 -1.9162 -0.2046 -0.3719
  417MOL0     H55018  -2.155   1.698   5.830 -0.1459 -1.4257 -2.8532
  417MOL0     H55019  -2.136   1.765   5.674  1.1683 -1.9232  0.7454
  417MOL0     H55020  -2.244   1.908   5.924 -0.7018  0.9958 -0.9825
  417MOL0     H55021  -2.337   1.832   5.783  1.0121 -0.2461 -1.0473
  417MOL0     H55022  -2.294   2.102   5.785 -0.0042  0.2833  0.1949
  417MOL0     H55023  -2.128   2.057   5.786 -0.4583  0.2456  2.5680
  417MOL0     H55024  -2.353   1.976   5.585  1.3640 -1.9469 -0.9207
  417MOL0     H55025  -2.185   1.946   5.560 -2.3235 -1.9594 -1.2131
  417MOL0     H55026  -1.472   1.499   5.897  1.7207 -0.1191  1.5056
  417MOL0     H55027  -1.282   1.618   5.887  1.7187  0.1425 -1.8959
  417MOL0     H55028  -1.042   1.945   5.756  0.5004  2.3507 -0.2669
  417MOL0     H55029  -0.812   2.039   5.795 -0.0697 -2.4058  3.8869
  417MOL0     H55030   0.452   2.848   5.135  2.0602  2.4516 -0.3945
  417MOL0     H55031   0.666   2.763   5.079 -1.0527 -2.6450  0.6413
  417MOL0     H55032   1.023   2.333   5.322  1.9684 -2.1878 -1.0882
  417MOL0     H55033   1.235   2.274   5.332 -2.5478 -0.2114  1.3523
  417MOL0     H55034   1.526   2.275   5.260  1.2199  2.0446 -1.5059
  417MOL0     H55035   1.491   2.313   5.436  1.4646  0.9860  1.3656
  417MOL0     H55036   1.698   2.462   5.271 -2.6093  2.3837  1.1672
  417MOL0     H55037   1.675   2.458   5.449 -0.9427 -0.2894  0.2092
  417MOL0     H55038   1.751   2.226   5.273  1.8673 -2.5377  0.8929
  417MOL0     H55039   1.714   2.216   5.451 -1.0599 -1.3504 -0.5375
  417MOL0     H55040   1.883   2.390   5.496 -1.7244 -2.6301  0.7212
  417MOL0     H55041   1.965   2.251   5.458  0.7046  1.7508  2.9842
  417MOL0     H55042   2.102   2.453   5.123 -0.4893 -0.7168 -1.3956
  417MOL0     H55043   1.351   2.694   5.352 -2.1313  1.3190  0.5752
  417MOL0     H55044   1.108   2.750   5.356 -2.1003 -1.0980  1.9452
  418MOL0     O55045   1.050   2.190   3.470  0.6768 -0.4154 -0.3966
  418MOL0     C55046   1.102   2.086   3.459  0.5317  0.3953 -0.5191
  418MOL0     O55047   1.193   2.028   3.543  0.9528 -0.2067 -0.9678
  418MOL0     C55048   1.232   2.095   3.659 -1.1285  0.2241 -0.7283
  418MOL0     C55049   1.364   2.076   3.685 -0.5121 -0.3959 -0.4462
  418MOL0     C55050   1.421   2.111   3.811  0.4325  1.8868 -0.5625
  418MOL0     C55051   1.340   2.155   3.914  0.7585 -0.0319  0.6212
  418MOL0     O55052   1.390   2.202   4.040 -0.0926  0.6167  0.3273
  418MOL0     C55053   1.526   2.220   4.053  1.1363 -0.0287 -1.0039
  418MOL0     C55054   1.586   2.088   4.122  0.1088  0.3832 -0.5999
  418MOL0     C55055   1.741   2.088   4.144  1.4042  0.4120 -0.2853
  418MOL0     C55056   1.781   1.949   4.197  0.2090  0.2144  0.6822
  418MOL0     C55057   1.932   1.933   4.223  0.5849  0.8038 -0.7592
  418MOL0     C55058   2.030   1.969   4.116 -0.1519 -0.5569  0.0662
  418MOL0     C55059   2.176   1.931   4.135  0.2941  0.0890 -0.1918
  418MOL0     C55060   2.234   1.965   4.268  0.4490 -0.9066  0.3100
  418MOL0     N55061   2.325   1.859   4.300  0.1196  0.3325 -0.6093
  418MOL0     C55062   2.444   1.852   4.229  0.2455 -1.0116 -0.3882
  418MOL0     C55063   2.521   1.774   4.311  0.7531  0.0533  1.5743
  418MOL0     C55064   2.663   1.750   4.301 -0.2108  1.0981  0.5771
  418MOL0     C55065   2.742   1.882   4.321 -0.7145  0.5250  0.2234
  418MOL0     C55066   2.898   1.858   4.313  0.5095 -0.8140  0.4094
  418MOL0     C55067   2.946   1.733   4.241 -0.2620 -0.6182  0.3747
  418MOL0     O55068   3.092   1.730   4.250 -0.1962 -0.0072  0.0090
  418MOL0     C55069   3.153   1.666   4.356 -0.7758 -0.4096  0.5673
  418MOL0     C55070   3.290   1.662   4.347 -0.0284  0.0503 -0.6399
  418MOL0     C55071   3.368   1.625   4.453  0.2227  0.3810 -0.2153
  418MOL0     C55072   3.306   1.598   4.582  0.9387 -0.6794 -0.0318
  418MOL0     C55073   3.387   1.583   4.710  0.1008 -0.1105 -0.3803
  418MOL0     O55074   3.330   1.570   4.830  0.3151  0.4277  0.1432
  418MOL0     C55075   3.412   1.540   4.936  0.4869  0.2515  0.1009
  418MOL0     C55076   3.486   1.644   5.001 -0.5834 -0.0693 -0.2308
  418MOL0     C55077   3.572   1.612   5.108  0.6276 -0.5830 -0.3243
  418MOL0     C55078   3.586   1.480   5.155  0.8153  0.6860  0.2245
  418MOL0     O55079   3.660   1.455   5.263  0.2374  0.8231 -0.1506
  418MOL0     C55080   3.745   1.552   5.334 -0.6104  0.2209 -0.4504
  418MOL0     C55081   3.861   1.484   5.407  0.2532  0.5346  0.5374
  418MOL0     C55082   3.833   1.450   5.549  0.4317  1.4646 -0.1280
  418MOL0     C55083   3.791   1.571   5.647  0.9476  0.2114  0.7819
  418MOL0     C55084   3.901   1.678   5.665 -0.6295 -0.0007 -0.7256
  418MOL0     C55085   3.881   1.765   5.785 -0.2083  0.2872 -0.5653
  418MOL0     C55086   3.996   1.869   5.810  0.3176  0.1572  0.3134
  418MOL0     C55087   3.940   1.956   5.928 -0.2673 -1.2391 -0.5993
  418MOL0    Cl55088   3.817   2.072   5.862 -0.1751 -0.4915 -0.0559
  418MOL0     C55089   3.509   1.371   5.096  1.2536  0.3868  0.3534
  418MOL0     C55090   3.422   1.406   4.986 -0.2744 -0.0389 -0.4502
  418MOL0     O55091   3.506   1.593   4.689  0.5456  0.1255  0.7302
  418MOL0     C55092   3.157   1.593   4.585  0.1338 -0.1533 -0.2900
  418MOL0     C55093   3.091   1.619   4.466 -1.2498  0.4821 -0.1930
  418MOL0     N55094   2.438   1.720   4.401 -0.2642  0.0701  0.5057
  418MOL0     N55095   2.329   1.773   4.407  0.7118 -0.9795  0.5553
  418MOL0     C55096   1.206   2.177   3.882  0.0446 -0.2083 -0.5350
  418MOL0     C55097   1.144   2.147   3.758  0.6522 -0.5652  0.2712
  418MOL0     C55098   1.059   2.015   3.338  0.4363 -0.1967 -1.0018
  418MOL0     C55099   0.928   2.037   3.292  0.0027 -0.4619  0.6426
  418MOL0     C55100   0.886   1.974   3.175  0.7435 -0.2216  0.0247
  418MOL0     C55101   0.962   1.892   3.096 -0.2924 -0.7030  0.2963
  418MOL0     O55102   0.889   1.844   2.983  0.8026  0.1503  0.5347
  418MOL0     C55103   0.969   1.760   2.901  0.4960 -0.6136 -0.1801
  418MOL0     C55104   0.884   1.679   2.809  0.1151 -0.8608 -0.6624
  418MOL0     C55105   0.950   1.574   2.714 -0.2235 -0.2413 -0.0296
  418MOL0     C55106   0.838   1.497   2.635 -0.5177 -0.7314 -0.0548
  418MOL0     C55107   0.759   1.417   2.733 -0.1774  0.2664 -0.2382
  418MOL0     C55108   0.695   1.342   2.809  0.0115 -0.5590  0.8503
  418MOL0     C55109   1.096   1.874   3.134 -0.4382  0.0249  0.4562
  418MOL0     C55110   1.143   1.943   3.258  0.3256  0.5174  0.1125
  418MOL0     H55111   1.407   2.012   3.609 -4.4524 -1.4759 -2.0041
  418MOL0     H55112   1.526   2.089   3.831 -0.4242 -0.6372  1.7890
  418MOL0     H55113   1.547   2.304   4.120 -0.3712 -2.2213  2.5239
  418MOL0     H55114   1.573   2.249   3.959  2.1244  0.5745 -0.3416
  418MOL0     H55115   1.560   2.002   4.060 -1.3472 -0.5859  1.2652
  418MOL0     H55116   1.531   2.080   4.216 -0.1099  3.0450 -0.4293
  418MOL0     H55117   1.754   2.153   4.231  0.3277 -2.7493  2.4545
  418MOL0     H55118   1.798   2.121   4.056  0.6466 -0.5715 -1.1674
  418MOL0     H55119   1.731   1.927   4.292 -2.4097 -0.7294 -0.8241
  418MOL0     H55120   1.741   1.869   4.135 -0.3876  0.9956  0.0424
  418MOL0     H55121   1.951   1.830   4.254  1.8158  1.1994 -0.1490
  418MOL0     H55122   1.954   1.994   4.312 -3.0886  2.4093 -0.7590
  418MOL0     H55123   2.018   2.075   4.092 -1.1408 -0.3161  1.4719
  418MOL0     H55124   2.000   1.917   4.025  1.2349 -0.0372 -0.7219
  418MOL0     H55125   2.184   1.823   4.117 -0.7536  0.0958 -0.7987
  418MOL0     H55126   2.230   1.987   4.057  0.8576 -3.3812 -2.5479
  418MOL0     H55127   2.166   1.951   4.352  1.5690 -2.0779  1.0501
  418MOL0     H55128   2.278   2.065   4.270 -0.3891 -0.4938 -0.8753
  418MOL0     H55129   2.459   1.911   4.139 -0.0429  2.0097  1.4088
  418MOL0     H55130   2.687   1.711   4.202  1.4383  0.0789  1.3226
  418MOL0     H55131   2.699   1.672   4.370 -2.0137 -1.5736 -1.3311
  418MOL0     H55132   2.711   1.918   4.420 -1.2828  0.8307 -0.0592
  418MOL0     H55133   2.715   1.945   4.236  0.4924 -0.6295 -1.0413
  418MOL0     H55134   2.951   1.946   4.275 -2.2345  0.5031 -0.6155
  418MOL0     H55135   2.927   1.840   4.417 -0.3283 -0.4207  0.7176
  418MOL0     H55136   2.909   1.739   4.138 -0.0439  1.3934  0.3874
  418MOL0     H55137   2.900   1.652   4.299 -1.4599  1.0703  1.8701
  418MOL0     H55138   3.338   1.701   4.257  2.5090  0.0708  0.6254
  418MOL0     H55139   3.476   1.621   4.448  0.3008  0.9280  0.8661
  418MOL0     H55140   3.478   1.743   4.956  4.3703  0.8795  0.4566
  418MOL0     H55141   3.630   1.686   5.162  1.6935 -1.0660 -0.7760
  418MOL0     H55142   3.681   1.601   5.408  0.2808 -1.0585  1.2239
  418MOL0     H55143   3.798   1.625   5.272  1.0159 -1.9768 -1.7774
  418MOL0     H55144   3.953   1.544   5.408  1.7767 -1.6693  1.0663
  418MOL0     H55145   3.893   1.399   5.346  2.4099  0.9186  1.0171
  418MOL0     H55146   3.917   1.400   5.598 -0.4796  2.5346  2.7443
  418MOL0     H55147   3.747   1.382   5.543 -0.7342  2.9451 -0.7291
  418MOL0     H55148   3.702   1.627   5.616 -1.0435 -3.5969 -1.1586
  418MOL0     H55149   3.761   1.521   5.740 -2.6034 -0.2835 -0.4692
  418MOL0     H55150   3.900   1.737   5.573  0.5061  1.8550  0.3821
  418MOL0     H55151   3.998   1.629   5.675 -0.1851  0.6792 -1.5341
  418MOL0     H55152   3.869   1.696   5.869 -0.6856 -0.3993 -1.1758
  418MOL0     H55153   3.785   1.816   5.771  0.0346  1.0214  0.3375
  418MOL0     H55154   4.090   1.817   5.833 -0.2474 -1.4052 -0.7258
  418MOL0     H55155   4.022   1.924   5.719  0.4864 -0.9400 -0.3276
  418MOL0     H55156   4.013   2.024   5.972 -2.3440 -1.6237  3.9624
  418MOL0     H55157   3.899   1.900   6.012  2.2540 -1.2455  0.7153
  418MOL0     H55158   3.519   1.268   5.128  0.7819 -0.0035 -0.7154
  418MOL0     H55159   3.353   1.331   4.948 -0.0487 -1.6835  2.1045
  418MOL0     H55160   3.109   1.565   4.678 -0.0121 -0.4375 -0.4493
  418MOL0     H55161   2.986   1.616   4.493 -0.4350  0.9631  3.6848
  418MOL0     H55162   1.150   2.213   3.968 -1.5116 -1.0103 -1.1758
  418MOL0     H55163   1.037   2.140   3.741  1.2943 -1.9610 -4.6142
  418MOL0     H55164   0.861   2.110   3.336  1.3821  0.5261  1.1425
  418MOL0     H55165   0.781   1.981   3.149  1.3867  0.2017 -2.6995
  418MOL0     H55166   1.008   1.686   2.972 -1.5391  1.6463  3.5599
  418MOL0     H55167   1.050   1.815   2.852  0.7097  0.1277  0.9772
  418MOL0     H55168   0.805   1.620   2.856 -0.0537  0.3968  0.7123
  418MOL0     H55169   0.850   1.760   2.744  2.5693  3.4158  2.7936
  418MOL0     H55170   1.020   1.513   2.772 -1.3847 -2.8857 -1.2833
  418MOL0     H55171   1.010   1.621   2.636  0.6405  0.4711  1.0246
  418MOL0     H55172   0.782   1.572   2.580  3.4383 -0.2700 -4.0312
  418MOL0     H55173   0.888   1.437   2.559 -2.2669 -1.3897 -0.7263
  418MOL0     H55174   0.622   1.284   2.863  0.7090 -2.1624  0.1340
  418MOL0     H55175   1.172   1.824   3.074 -1.2469  1.8684 -2.2867
  418MOL0     H55176   1.240   1.917   3.299 -1.5123 -1.1407  3.8267
  419MOL0     O55177   0.733   1.671   8.743 -0.5841 -0.1194 -0.0611
  419MOL0     C55178   0.652   1.763   8.743 -0.0940  0.0678 -0.3209
  419MOL0     O55179   0.551   1.784   8.655 -1.0653 -0.3589  0.0151
  419MOL0     C55180   0.537   1.692   8.551  0.1190  0.0544  0.3910
  419MOL0     C55181   0.410   1.687   8.503  0.5643  0.3288  0.6612
  419MOL0     C55182   0.367   1.626   8.390  0.0607  0.2722  0.8827
  419MOL0     C55183   0.469   1.562   8.318 -0.1313 -0.6245  0.7526
  419MOL0     O55184   0.423   1.495   8.205  0.1549  0.0154 -0.1481
  419MOL0     C55185   0.497   1.501   8.091 -0.2657 -0.1848  0.1509
  419MOL0     C55186   0.422   1.532   7.960  0.4749  0.1987 -0.1368
  419MOL0     C55187   0.510   1.531   7.835  0.0015 -1.2578 -0.4998
  419MOL0     C55188   0.598   1.656   7.832 -0.7649 -0.1368 -0.1707
  419MOL0     C55189   0.635   1.712   7.693 -0.0591  0.3875  0.5633
  419MOL0     C55190   0.718   1.844   7.716 -0.2419  0.0525  0.3237
  419MOL0     C55191   0.840   1.829   7.811  1.1551  0.0002  0.3067
  419MOL0     C55192   0.939   1.949   7.796 -1.0183  1.2018  0.8213
  419MOL0     N55193   1.057   1.949   7.887  0.4306  0.2321 -0.5684
  419MOL0     C55194   1.038   2.017   8.008  0.2225  1.0189 -0.4905
  419MOL0     C55195   1.158   1.985   8.073 -0.2749  0.3683 -0.0179
  419MOL0     C55196   1.208   2.040   8.200  0.2988  0.6928 -0.3304
  419MOL0     C55197   1.321   2.142   8.180  0.1017 -0.8337 -0.4736
  419MOL0     C55198   1.462   2.094   8.131 -0.1948  0.4705  0.6362
  419MOL0     C55199   1.561   2.202   8.122  0.6155 -0.9441  0.0736
  419MOL0     O55200   1.663   2.144   8.045 -0.0668 -0.3321  0.2673
  419MOL0     C55201   1.772   2.224   8.009 -0.2451  0.0715 -0.1849
  419MOL0     C55202   1.895   2.156   7.995 -0.3810 -0.4799  0.0899
  419MOL0     C55203   2.017   2.238   7.981  0.1243  1.7377  0.2098
  419MOL0     C55204   2.011   2.378   7.980  0.7119  0.1588  0.2633
  419MOL0     C55205   2.137   2.458   7.969  0.5347  1.3654  0.3558
  419MOL0     O55206   2.115   2.592   7.983  0.0740 -0.3976  0.1149
  419MOL0     C55207   2.215   2.681   7.939  0.3519  0.0090  0.0860
  419MOL0     C55208   2.223   2.809   7.995 -0.2497 -0.2291 -0.0491
  419MOL0     C55209   2.327   2.893   7.963  0.6887 -0.0088 -0.2766
  419MOL0     C55210   2.420   2.861   7.861 -0.2643  0.0781  0.6423
  419MOL0     O55211   2.529   2.933   7.827 -0.4301 -0.1265  0.4523
  419MOL0     C55212   2.590   3.034   7.901 -0.3047  0.4316 -0.6624
  419MOL0     C55213   2.739   3.062   7.862 -0.5885  1.3836  0.1489
  419MOL0     C55214   2.766   3.203   7.923  0.9879 -0.5952 -0.1237
  419MOL0     C55215   2.911   3.235   7.905  0.2310  0.3261 -0.0321
  419MOL0     C55216   2.937   3.384   7.941 -1.1220  0.0199  0.5771
  419MOL0     C55217   3.084   3.407   7.919 -0.6560 -0.9090 -0.6746
  419MOL0     C55218   3.127   3.428   7.768  0.4068 -0.4219 -0.7554
  419MOL0     C55219   3.269   3.386   7.738  0.1226 -1.0033  0.1507
  419MOL0    Cl55220   3.304   3.422   7.565  0.0522 -0.0763  0.0436
  419MOL0     C55221   2.400   2.743   7.787  0.3661  0.6061 -1.1649
  419MOL0     C55222   2.303   2.653   7.832 -0.2121 -0.0384 -0.4623
  419MOL0     O55223   2.246   2.403   7.976  0.1169  0.2148 -0.3615
  419MOL0     C55224   1.888   2.441   8.009  0.2255  0.3956 -0.7857
  419MOL0     C55225   1.771   2.368   8.015  0.0201 -0.4859 -1.4356
  419MOL0     N55226   1.230   1.899   7.999 -0.2717  0.1207  0.5198
  419MOL0     N55227   1.172   1.873   7.884 -0.6731  0.6978 -0.0509
  419MOL0     C55228   0.606   1.562   8.355  0.5933 -0.1224 -0.1254
  419MOL0     C55229   0.628   1.622   8.477 -0.1694  1.5133  0.2515
  419MOL0     C55230   0.636   1.855   8.864 -0.4458  0.4708  0.0610
  419MOL0     C55231   0.736   1.842   8.967 -0.5980  0.7614  0.5782
  419MOL0     C55232   0.713   1.904   9.089  0.1008 -0.4182 -0.6756
  419MOL0     C55233   0.604   1.994   9.109 -0.3450  0.6301 -0.9293
  419MOL0     O55234   0.580   2.060   9.228 -0.2271 -0.5683 -0.1249
  419MOL0     C55235   0.626   1.990   9.346  0.2166 -0.3823  0.1395
  419MOL0     C55236   0.521   2.034   9.449  0.4694  0.6975 -0.1880
  419MOL0     C55237   0.388   1.948   9.449 -0.3482  1.6184 -0.0996
  419MOL0     C55238   0.270   2.005   9.382 -0.1248 -0.1926  0.6421
  419MOL0     C55239   0.143   1.924   9.385  0.0136  0.2266 -0.8721
  419MOL0     C55240   0.041   1.867   9.395 -1.3439  0.7057  0.5226
  419MOL0     C55241   0.519   2.013   9.006 -0.3119 -0.3793 -0.5402
  419MOL0     C55242   0.536   1.949   8.883 -0.1578 -0.1104 -0.1164
  419MOL0     H55243   0.332   1.737   8.558  0.4911  1.8266 -0.7291
  419MOL0     H55244   0.263   1.627   8.360  0.5227  0.7314 -0.8041
  419MOL0     H55245   0.526   1.397   8.078 -1.4812 -0.3832 -1.1935
  419MOL0     H55246   0.579   1.571   8.106 -0.8722  1.4201 -3.2392
  419MOL0     H55247   0.365   1.626   7.961  1.4765  0.8332 -1.1071
  419MOL0     H55248   0.346   1.455   7.946 -0.6556  1.3173 -0.3763
  419MOL0     H55249   0.443   1.526   7.748 -0.2754  1.8865 -0.5905
  419MOL0     H55250   0.577   1.445   7.825 -2.3466 -3.3732  0.7888
  419MOL0     H55251   0.538   1.737   7.872  0.8730  1.7106 -1.2774
  419MOL0     H55252   0.689   1.638   7.889  1.0564 -2.9490 -3.5360
  419MOL0     H55253   0.551   1.729   7.625  0.1739  0.2829  0.2469
  419MOL0     H55254   0.701   1.634   7.655 -0.7526  0.3128 -0.5319
  419MOL0     H55255   0.646   1.915   7.759  0.4323  1.6905 -1.1225
  419MOL0     H55256   0.741   1.882   7.617 -1.2897 -1.1882 -0.4279
  419MOL0     H55257   0.802   1.833   7.913  0.6868  0.4146  0.1231
  419MOL0     H55258   0.890   1.735   7.791  0.2333 -2.1228  6.0789
  419MOL0     H55259   0.891   2.047   7.806 -2.2816  0.7132 -0.1731
  419MOL0     H55260   0.976   1.941   7.693  0.1190  1.8552  1.1670
  419MOL0     H55261   0.954   2.079   8.037 -1.9651 -1.5174 -1.0397
  419MOL0     H55262   1.258   1.958   8.254 -0.5513  1.2515  1.3791
  419MOL0     H55263   1.126   2.085   8.256 -0.9948 -2.5048  0.5477
  419MOL0     H55264   1.342   2.189   8.277 -1.0878  0.7352 -0.9306
  419MOL0     H55265   1.280   2.225   8.122  1.2536  1.1873  1.4684
  419MOL0     H55266   1.502   2.011   8.189 -1.3862 -1.1817 -0.8098
  419MOL0     H55267   1.436   2.055   8.032 -3.5798 -0.0475  1.5864
  419MOL0     H55268   1.588   2.215   8.227 -1.4753 -1.4957  0.7216
  419MOL0     H55269   1.533   2.301   8.083  2.7066 -0.7639 -1.1555
  419MOL0     H55270   1.909   2.048   7.992 -0.2406 -0.4597 -0.0295
  419MOL0     H55271   2.106   2.177   7.969  0.1906  1.4362  1.9828
  419MOL0     H55272   2.158   2.842   8.075  2.4347  2.5254  1.1804
  419MOL0     H55273   2.331   2.980   8.029 -0.1313 -0.5800  0.5547
  419MOL0     H55274   2.591   3.011   8.008 -1.3276 -0.8038 -0.8946
  419MOL0     H55275   2.530   3.126   7.896  0.6480  1.1718  0.7071
  419MOL0     H55276   2.741   3.068   7.753  1.1298 -3.0725 -0.2792
  419MOL0     H55277   2.808   2.990   7.906 -1.0820  2.7988  3.5981
  419MOL0     H55278   2.750   3.204   8.031  3.4177  3.7473  0.4375
  419MOL0     H55279   2.712   3.282   7.871  2.1553  0.2194 -0.1351
  419MOL0     H55280   2.963   3.175   7.979 -0.1630 -1.9887 -1.5221
  419MOL0     H55281   2.947   3.197   7.809  1.0719  2.4252 -0.6146
  419MOL0     H55282   2.901   3.406   8.041  0.3265 -0.8644  1.3356
  419MOL0     H55283   2.873   3.444   7.876 -1.9583 -3.0521 -1.6207
  419MOL0     H55284   3.152   3.332   7.960  1.7171  1.2260 -0.4270
  419MOL0     H55285   3.118   3.490   7.982  0.0101 -1.1131 -0.7531
  419MOL0     H55286   3.059   3.375   7.701 -0.6241  1.6907 -1.4524
  419MOL0     H55287   3.113   3.535   7.750 -0.2468 -0.4150 -0.2776
  419MOL0     H55288   3.281   3.278   7.745 -0.7217 -1.4394 -3.2909
  419MOL0     H55289   3.341   3.442   7.798 -0.4174  0.8625 -0.8498
  419MOL0     H55290   2.453   2.723   7.694 -0.2782 -0.1554 -1.3853
  419MOL0     H55291   2.296   2.563   7.772 -0.5232  0.7942 -1.7020
  419MOL0     H55292   1.886   2.548   8.027 -3.5964 -0.0949  3.5669
  419MOL0     H55293   1.675   2.418   8.025  1.6353  2.2813  3.1669
  419MOL0     H55294   0.688   1.512   8.305 -1.1357 -2.5978 -0.6634
  419MOL0     H55295   0.731   1.607   8.508 -0.7435 -0.5015  1.3370
  419MOL0     H55296   0.823   1.781   8.943  1.0539  2.4895  1.9112
  419MOL0     H55297   0.791   1.892   9.163  1.1233  0.9783 -1.4804
  419MOL0     H55298   0.721   2.038   9.369 -0.8934  3.3946 -2.2024
  419MOL0     H55299   0.622   1.882   9.327 -2.3212 -0.0388 -1.9222
  419MOL0     H55300   0.555   2.022   9.552 -1.8231  0.3289  0.6027
  419MOL0     H55301   0.502   2.141   9.443  1.1124  0.7849 -0.7562
  419MOL0     H55302   0.360   1.936   9.554 -1.7304 -1.4203 -0.7147
  419MOL0     H55303   0.408   1.850   9.406  1.4052  2.3552 -1.0732
  419MOL0     H55304   0.255   2.106   9.422 -0.1215  0.4475 -0.8741
  419MOL0     H55305   0.300   2.027   9.279 -2.8275 -1.7371 -0.5772
  419MOL0     H55306  -0.048   1.808   9.400 -0.3162 -1.0250 -0.5681
  419MOL0     H55307   0.423   2.060   9.023 -0.2722  0.3266 -2.0356
  419MOL0     H55308   0.465   1.964   8.802 -0.3922  3.0156  0.5678
  420MOL0     O55309   8.215   4.043  10.054  1.2000  0.3072  1.4533
  420MOL0     C55310   8.250   3.995   9.946  0.5422  0.1243  0.4954
  420MOL0     O55311   8.242   3.867   9.917  0.1983 -0.5896  0.3310
  420MOL0     C55312   8.204   3.774  10.003 -0.4137  0.5592 -0.9247
  420MOL0     C55313   8.069   3.732  10.002 -1.0152  0.3489  0.2772
  420MOL0     C55314   8.015   3.639  10.087 -0.2139  0.6993  0.9957
  420MOL0     C55315   8.112   3.573  10.169 -0.3233 -0.1909 -0.2531
  420MOL0     O55316   8.065   3.469  10.238 -1.4483  0.1387 -0.1681
  420MOL0     C55317   8.027   3.506  10.370 -0.7178 -0.0938  0.3233
  420MOL0     C55318   8.033   3.383  10.463  0.1387 -0.5190 -0.3037
  420MOL0     C55319   8.168   3.321  10.477 -0.5030  0.2351 -0.2748
  420MOL0     C55320   8.243   3.271  10.343  0.9185 -0.0405 -1.2494
  420MOL0     C55321   8.345   3.169  10.395 -0.1290 -0.5862  0.1717
  420MOL0     C55322   8.470   3.171  10.307 -0.9412 -0.8636  0.0849
  420MOL0     C55323   8.553   3.296  10.322 -0.2366 -0.2508  0.0440
  420MOL0     C55324   8.663   3.310  10.220 -0.2359 -0.7950 -0.4990
  420MOL0     N55325   8.723   3.445  10.216  0.1431 -0.0118 -0.0764
  420MOL0     C55326   8.811   3.499  10.296  0.4263 -0.4668  0.2060
  420MOL0     C55327   8.824   3.628  10.250 -0.7091  0.2544 -0.5364
  420MOL0     C55328   8.919   3.725  10.291 -0.0435 -0.6265  0.2771
  420MOL0     C55329   8.848   3.824  10.393 -1.2927 -0.0728  0.0031
  420MOL0     C55330   8.950   3.915  10.474  0.6615  0.7120  0.8186
  420MOL0     C55331   9.054   3.982  10.387 -0.6274 -0.4654 -0.2180
  420MOL0     O55332   8.985   4.053  10.295  0.0284 -0.7964  0.0738
  420MOL0     C55333   9.061   4.111  10.195  0.1147  0.5511  0.3895
  420MOL0     C55334   9.202   4.118  10.178 -0.0412  0.0859 -0.5333
  420MOL0     C55335   9.266   4.187  10.081 -0.0314 -0.1488 -0.5444
  420MOL0     C55336   9.191   4.255   9.985 -0.3076  0.0055  0.6807
  420MOL0     C55337   9.256   4.330   9.872  0.2239  0.0479  0.7818
  420MOL0     O55338   9.379   4.379   9.888  0.1243  0.1605 -0.0062
  420MOL0     C55339   9.450   4.444   9.799 -0.3710  0.4179 -0.4430
  420MOL0     C55340   9.529   4.376   9.697  0.2822  0.2334 -0.4694
  420MOL0     C55341   9.631   4.447   9.625  0.4149  0.5322  0.1430
  420MOL0     C55342   9.642   4.591   9.636  1.0130 -0.0419  0.3654
  420MOL0     O55343   9.735   4.676   9.575 -0.4587  1.3202  0.1554
  420MOL0     C55344   9.752   4.655   9.434 -0.1330 -0.5516 -0.5211
  420MOL0     C55345   9.785   4.795   9.385  0.2301  0.5958  0.0062
  420MOL0     C55346   9.805   4.787   9.240 -0.4624 -0.7328 -0.4387
  420MOL0     C55347   9.930   4.721   9.198 -0.4892 -0.2143  0.8058
  420MOL0     C55348   9.933   4.661   9.059 -0.0476  0.3048 -0.3429
  420MOL0     C55349   9.936   4.766   8.948  0.7283 -0.0382 -0.5202
  420MOL0     C55350   9.903   4.698   8.812  0.4363  0.1065 -0.1765
  420MOL0     C55351  10.009   4.734   8.704 -0.7180  0.2308 -1.5130
  420MOL0    Cl55352  10.144   4.624   8.723 -0.4808  0.5039  0.1091
  420MOL0     C55353   9.559   4.653   9.725  0.2773  0.3215  0.3344
  420MOL0     C55354   9.461   4.586   9.800 -0.4102  1.1880 -0.1427
  420MOL0     O55355   9.197   4.333   9.768  0.3941 -0.1542 -0.0042
  420MOL0     C55356   9.052   4.231   9.990 -0.0020  0.1303 -0.4726
  420MOL0     C55357   8.988   4.168  10.097  0.4930  0.6802 -0.0473
  420MOL0     N55358   8.731   3.649  10.152  0.3996  1.2702 -0.8474
  420MOL0     N55359   8.669   3.541  10.136 -0.1682 -0.3597  0.3455
  420MOL0     C55360   8.244   3.610  10.171 -0.4757  0.1319 -0.0691
  420MOL0     C55361   8.293   3.704  10.087  0.3726  0.5537 -0.0057
  420MOL0     C55362   8.302   4.082   9.824 -0.2724  0.2325  0.1264
  420MOL0     C55363   8.317   4.047   9.686 -0.2245 -0.0550  0.0377
  420MOL0     C55364   8.362   4.141   9.589  0.1662 -0.2271 -0.2020
  420MOL0     C55365   8.406   4.270   9.638 -0.2342  0.3022  0.7412
  420MOL0     O55366   8.463   4.374   9.559  0.5652  1.2762 -0.1212
  420MOL0     C55367   8.553   4.335   9.457 -0.4955  0.4366 -0.7294
  420MOL0     C55368   8.682   4.409   9.465 -0.5718  0.1680  0.5405
  420MOL0     C55369   8.761   4.404   9.605 -0.3112 -0.0442  0.2963
  420MOL0     C55370   8.788   4.253   9.649  0.5942  0.3753  1.1684
  420MOL0     C55371   8.913   4.204   9.588 -0.0169  0.2371  0.4415
  420MOL0     C55372   9.014   4.168   9.542 -0.3042 -0.1357  0.1653
  420MOL0     C55373   8.376   4.302   9.772 -0.1192 -0.5225 -0.6375
  420MOL0     C55374   8.337   4.211   9.864  0.0673  0.2614  0.3695
  420MOL0     H55375   8.000   3.773   9.929 -1.2451 -0.9451 -0.2507
  420MOL0     H55376   7.913   3.609  10.066 -0.1818 -0.0793  1.9024
  420MOL0     H55377   7.932   3.559  10.359 -0.2893  0.4214 -1.1688
  420MOL0     H55378   8.101   3.585  10.388 -0.3508  0.4513 -2.8859
  420MOL0     H55379   7.962   3.309  10.425 -0.3681  1.4396 -3.5564
  420MOL0     H55380   7.995   3.411  10.561 -3.8812 -1.7580 -1.2978
  420MOL0     H55381   8.158   3.238  10.548  1.7488  0.7298  0.7196
  420MOL0     H55382   8.234   3.397  10.520  2.3815  0.4412 -4.5200
  420MOL0     H55383   8.177   3.223  10.270  0.5431 -2.6573  0.6793
  420MOL0     H55384   8.283   3.363  10.298 -3.4266  3.9762  2.0580
  420MOL0     H55385   8.295   3.072  10.410 -1.9334  0.0841 -1.1512
  420MOL0     H55386   8.381   3.203  10.492  1.8954 -0.4976 -0.5570
  420MOL0     H55387   8.437   3.147  10.206 -0.1739 -1.0155 -0.1312
  420MOL0     H55388   8.535   3.087  10.334  0.5964  1.0535  2.9099
  420MOL0     H55389   8.492   3.386  10.313 -0.1156 -0.0898  0.8044
  420MOL0     H55390   8.600   3.294  10.421 -2.9200 -0.4856  1.4014
  420MOL0     H55391   8.615   3.299  10.123 -3.1027  0.5061  0.6750
  420MOL0     H55392   8.746   3.239  10.226 -1.2053 -2.2651 -3.0436
  420MOL0     H55393   8.867   3.461  10.381 -1.3106  1.8808  2.5670
  420MOL0     H55394   8.962   3.783  10.208 -2.1865 -1.5154 -1.5620
  420MOL0     H55395   9.006   3.666  10.324  0.8175  0.9673  0.9310
  420MOL0     H55396   8.787   3.770  10.466 -1.1637 -2.9072 -1.8170
  420MOL0     H55397   8.780   3.891  10.340 -1.7127 -0.6976 -0.2568
  420MOL0     H55398   8.881   3.980  10.528 -0.5207  0.3317 -0.1774
  420MOL0     H55399   8.982   3.833  10.539 -4.2286 -2.5255 -0.3388
  420MOL0     H55400   9.119   3.916  10.329  3.3209  1.5711  1.5655
  420MOL0     H55401   9.122   4.033  10.455 -0.0940 -0.2209 -0.9284
  420MOL0     H55402   9.273   4.069  10.244 -1.4199  0.8999  1.6950
  420MOL0     H55403   9.374   4.196  10.075  0.0224 -0.4922 -0.1130
  420MOL0     H55404   9.522   4.268   9.705 -0.8391  0.4280  2.5150
  420MOL0     H55405   9.701   4.398   9.558 -3.6685 -1.3934 -3.1039
  420MOL0     H55406   9.659   4.620   9.388 -0.3744 -0.3664 -0.1860
  420MOL0     H55407   9.823   4.574   9.418 -0.5567 -0.7001 -1.7041
  420MOL0     H55408   9.878   4.823   9.435 -0.0254  1.7159 -0.1172
  420MOL0     H55409   9.716   4.877   9.411  1.8590  3.0513 -2.8102
  420MOL0     H55410   9.806   4.890   9.204 -2.3716  0.1186  1.6705
  420MOL0     H55411   9.727   4.726   9.194  0.8262 -2.2760 -0.6771
  420MOL0     H55412  10.015   4.790   9.203 -0.2206 -0.6303  2.3293
  420MOL0     H55413   9.948   4.640   9.269 -3.2156 -0.0433  1.8196
  420MOL0     H55414   9.847   4.593   9.056 -0.9404  1.2352  1.9679
  420MOL0     H55415  10.024   4.601   9.047 -1.0155 -0.7520 -3.5798
  420MOL0     H55416  10.028   4.826   8.955  0.2402  0.8182 -1.2178
  420MOL0     H55417   9.852   4.830   8.976  0.4940 -0.9421  0.9447
  420MOL0     H55418   9.908   4.590   8.833  0.0575  0.3113  1.0921
  420MOL0     H55419   9.802   4.715   8.774 -0.4048 -2.3196  0.7728
  420MOL0     H55420  10.051   4.835   8.712 -1.8194  0.6113  0.0693
  420MOL0     H55421   9.963   4.715   8.606 -0.5748 -1.6722 -1.2323
  420MOL0     H55422   9.568   4.760   9.737  3.1705  0.2105 -0.2263
  420MOL0     H55423   9.401   4.639   9.873  0.5341  1.0913  0.7187
  420MOL0     H55424   8.993   4.273   9.909  0.0751 -0.9710 -1.1123
  420MOL0     H55425   8.880   4.159  10.095  0.5063  0.3252 -2.6393
  420MOL0     H55426   8.313   3.562  10.240  0.3621 -0.6828 -1.4362
  420MOL0     H55427   8.399   3.718  10.070  0.1832 -0.6449 -2.6599
  420MOL0     H55428   8.296   3.948   9.646  2.5930 -0.2195 -1.2531
  420MOL0     H55429   8.373   4.107   9.487  2.2851  0.9754 -0.4516
  420MOL0     H55430   8.506   4.359   9.361  0.8346  1.1970 -1.2238
  420MOL0     H55431   8.573   4.227   9.458  0.5766  0.6076 -1.5450
  420MOL0     H55432   8.752   4.376   9.387  1.2751 -0.5977  2.4107
  420MOL0     H55433   8.655   4.511   9.439  0.2107  0.3800  0.5276
  420MOL0     H55434   8.688   4.433   9.681 -2.0270  0.2126 -1.3609
  420MOL0     H55435   8.843   4.476   9.605  1.6622 -2.1514  0.8283
  420MOL0     H55436   8.806   4.257   9.756  0.3701  0.0118  1.2211
  420MOL0     H55437   8.708   4.186   9.617  2.2283 -0.3611 -1.8265
  420MOL0     H55438   9.108   4.141   9.498  0.5823  0.4194  1.6750
  420MOL0     H55439   8.392   4.406   9.801 -1.9467  0.0918 -1.6152
  420MOL0     H55440   8.330   4.249   9.965 -0.7409 -1.2429  0.9141
  421MOL0     O55441   2.249  11.161  10.349  0.2833 -0.2922 -0.1465
  421MOL0     C55442   2.239  11.116  10.238 -0.1648 -0.9883  0.2964
  421MOL0     O55443   2.127  11.053  10.178  0.7199 -0.1290  0.7796
  421MOL0     C55444   2.015  11.025  10.254  0.3867  0.4294  0.5794
  421MOL0     C55445   2.035  10.951  10.371 -0.1910 -0.5964  0.2386
  421MOL0     C55446   1.936  10.965  10.465 -0.3542  0.4164 -0.7843
  421MOL0     C55447   1.817  11.033  10.445 -0.2963 -0.2717  0.6292
  421MOL0     O55448   1.717  11.030  10.536 -0.4433  0.1186  0.1949
  421MOL0     C55449   1.600  10.944  10.504 -0.2924  0.3308 -0.8060
  421MOL0     C55450   1.616  10.781  10.517 -0.1832 -0.0314  0.5836
  421MOL0     C55451   1.675  10.737  10.645  0.2228  0.2604  0.2018
  421MOL0     C55452   1.631  10.595  10.679  0.0698  0.6063 -0.1369
  421MOL0     C55453   1.745  10.501  10.715 -0.3086  0.4671 -0.7054
  421MOL0     C55454   1.714  10.349  10.694 -0.0010 -1.3070 -0.1808
  421MOL0     C55455   1.838  10.253  10.719 -0.0744  0.5424  0.4615
  421MOL0     C55456   1.958  10.282  10.629  0.0143 -0.1005  0.0650
  421MOL0     N55457   1.937  10.259  10.489  0.2590 -0.6400  0.1389
  421MOL0     C55458   1.885  10.151  10.415 -0.5100 -0.1109 -0.3995
  421MOL0     C55459   1.874  10.199  10.290  1.0105 -0.1833  0.2151
  421MOL0     C55460   1.815  10.116  10.182  0.0907  0.0520  0.5693
  421MOL0     C55461   1.685  10.163  10.112 -0.5165 -0.9140  0.2261
  421MOL0     C55462   1.714  10.299  10.046 -1.2998  0.1843 -0.7761
  421MOL0     C55463   1.611  10.355   9.955  0.4978 -0.1160 -0.3578
  421MOL0     O55464   1.570  10.261   9.848  0.1725  0.4903 -0.9297
  421MOL0     C55465   1.502  10.296   9.736 -0.0973  0.5190  0.6306
  421MOL0     C55466   1.453  10.432   9.720  0.1223 -0.1631 -0.3994
  421MOL0     C55467   1.397  10.465   9.595  0.1818 -0.1113 -0.3869
  421MOL0     C55468   1.407  10.370   9.489 -0.0356 -1.1045 -0.3150
  421MOL0     C55469   1.358  10.422   9.360 -0.3156 -0.1699 -0.4992
  421MOL0     O55470   1.398  10.345   9.255 -0.4331  0.2729  1.5347
  421MOL0     C55471   1.350  10.367   9.126 -0.4485 -0.6976  0.4318
  421MOL0     C55472   1.437  10.394   9.011  0.4920 -0.2274 -0.0502
  421MOL0     C55473   1.384  10.406   8.887  0.1795 -1.3450  0.5678
  421MOL0     C55474   1.250  10.404   8.870  0.3004  0.0882  0.1348
  421MOL0     O55475   1.186  10.414   8.745  0.2826  0.0952  0.3033
  421MOL0     C55476   1.214  10.306   8.660 -1.1751 -1.0857 -0.4142
  421MOL0     C55477   1.092  10.277   8.574  0.1265 -0.5258 -0.9833
  421MOL0     C55478   1.097  10.158   8.478 -0.4909 -0.1903 -0.3329
  421MOL0     C55479   1.216  10.189   8.387  0.0377  0.9164  0.1125
  421MOL0     C55480   1.229  10.069   8.288 -0.7927  0.5589 -0.5646
  421MOL0     C55481   1.336  10.109   8.181  0.4500  0.5293  0.9806
  421MOL0     C55482   1.374   9.985   8.097 -0.2773  0.5563  0.3641
  421MOL0     C55483   1.505  10.017   8.010 -0.7809  0.9217 -0.4655
  421MOL0    Cl55484   1.464  10.141   7.901  0.1540  0.2722 -0.6442
  421MOL0     C55485   1.164  10.391   8.974 -0.1446 -0.7618  0.1617
  421MOL0     C55486   1.213  10.368   9.101  0.1769 -0.5772 -0.4215
  421MOL0     O55487   1.285  10.516   9.353  0.5923 -0.3506 -0.9183
  421MOL0     C55488   1.463  10.241   9.505 -0.0836 -0.5476 -0.0945
  421MOL0     C55489   1.504  10.204   9.629 -0.3031 -0.4405  0.5961
  421MOL0     N55490   1.935  10.322  10.281 -0.7315  0.9118  0.3336
  421MOL0     N55491   1.968  10.355  10.396 -0.0177  1.3354 -0.4748
  421MOL0     C55492   1.798  11.091  10.320  0.1279  0.1136 -0.7822
  421MOL0     C55493   1.898  11.092  10.222  0.1995  0.8827 -0.1980
  421MOL0     C55494   2.351  11.139  10.135  0.8890 -0.2866  0.3240
  421MOL0     C55495   2.330  11.113   9.995  0.2783 -0.6685  0.6759
  421MOL0     C55496   2.415  11.151   9.893  0.3097 -0.4085  0.7368
  421MOL0     C55497   2.531  11.223   9.924  0.4128 -0.2937 -0.3924
  421MOL0     O55498   2.590  11.289   9.827 -0.7340  0.4497 -0.0791
  421MOL0     C55499   2.690  11.387   9.852  0.3324  0.1086  0.2363
  421MOL0     C55500   2.744  11.412   9.714 -0.1503 -0.0264 -1.0376
  421MOL0     C55501   2.815  11.295   9.653  0.9620  0.4272 -0.2117
  421MOL0     C55502   2.912  11.331   9.549 -0.0159  0.0266  0.3117
  421MOL0     C55503   3.037  11.374   9.616 -0.4976  0.4179 -0.2149
  421MOL0     C55504   3.130  11.441   9.659 -0.2270 -0.1070  0.4492
  421MOL0     C55505   2.555  11.249  10.064 -0.3381 -0.3160 -0.1791
  421MOL0     C55506   2.469  11.202  10.169 -0.7755  0.2383  0.4259
  421MOL0     H55507   2.126  10.897  10.394 -1.1690 -1.6222  1.8481
  421MOL0     H55508   1.949  10.913  10.559 -0.0855  0.7186 -0.6534
  421MOL0     H55509   1.562  10.955  10.402 -4.3551 -4.1559 -0.1140
  421MOL0     H55510   1.518  10.974  10.570 -1.7420 -0.4185 -2.1876
  421MOL0     H55511   1.670  10.730  10.437  0.8315 -0.1871  1.3468
  421MOL0     H55512   1.515  10.738  10.520  0.3693 -1.3743  3.1144
  421MOL0     H55513   1.636  10.800  10.726  1.9015 -0.5434  1.7070
  421MOL0     H55514   1.783  10.754  10.644  0.0161  1.7487  0.3078
  421MOL0     H55515   1.564  10.590  10.766  3.6090 -0.5814  2.7731
  421MOL0     H55516   1.580  10.552  10.592 -0.7895 -1.8462  1.4471
  421MOL0     H55517   1.773  10.512  10.820  0.8565 -1.2249 -0.8003
  421MOL0     H55518   1.826  10.526  10.646 -0.0384  0.3524 -0.4313
  421MOL0     H55519   1.701  10.337  10.586  0.2745 -0.4218 -0.3199
  421MOL0     H55520   1.627  10.306  10.744 -0.3998 -2.9036 -2.0735
  421MOL0     H55521   1.882  10.257  10.819 -1.5957 -0.9137  1.2479
  421MOL0     H55522   1.803  10.150  10.710 -3.4417  1.4274  1.6325
  421MOL0     H55523   2.027  10.200  10.653  1.7007  1.1548 -0.2913
  421MOL0     H55524   2.007  10.378  10.645  0.5702 -0.7136  2.4171
  421MOL0     H55525   1.840  10.058  10.446  1.5269 -0.3147  2.2533
  421MOL0     H55526   1.786  10.021  10.229  0.9975 -1.1064 -1.0936
  421MOL0     H55527   1.896  10.090  10.114 -2.1434 -0.5636 -2.0623
  421MOL0     H55528   1.600  10.168  10.180 -1.7659  2.5258 -1.3492
  421MOL0     H55529   1.663  10.098  10.026 -1.6277  2.6048 -2.3680
  421MOL0     H55530   1.731  10.378  10.119  1.1091 -0.0785 -0.9696
  421MOL0     H55531   1.802  10.294   9.980 -1.2775  1.6822 -0.8746
  421MOL0     H55532   1.655  10.444   9.909  0.4364  0.0626 -0.0687
  421MOL0     H55533   1.525  10.392  10.011  0.0671  2.8922 -2.7485
  421MOL0     H55534   1.453  10.512   9.793 -3.0201 -1.3463  1.0523
  421MOL0     H55535   1.353  10.563   9.577  0.7579  0.7560  2.3888
  421MOL0     H55536   1.544  10.409   9.023 -0.0649  3.8345  1.1917
  421MOL0     H55537   1.442  10.424   8.797  0.9079  0.4422  1.3527
  421MOL0     H55538   1.251  10.221   8.719  0.7073  0.6018  0.9768
  421MOL0     H55539   1.299  10.333   8.597 -0.6309  4.5266  2.1244
  421MOL0     H55540   1.085  10.367   8.512  0.3667 -0.7086 -1.2836
  421MOL0     H55541   1.004  10.275   8.638  1.4477  2.4601  1.1319
  421MOL0     H55542   1.007  10.173   8.419 -1.4168  0.0872  1.1026
  421MOL0     H55543   1.096  10.058   8.522  0.7400 -0.3711 -0.6749
  421MOL0     H55544   1.193  10.283   8.337  1.3247  1.8956  1.2991
  421MOL0     H55545   1.309  10.188   8.444 -0.3425 -4.3096  1.1908
  421MOL0     H55546   1.135  10.047   8.237 -2.0586  0.0858  1.8124
  421MOL0     H55547   1.261   9.983   8.347  1.0070  2.5217  1.5396
  421MOL0     H55548   1.422  10.154   8.232  0.8424  0.6411  0.2224
  421MOL0     H55549   1.292  10.192   8.124  0.5268  2.5186  3.6223
  421MOL0     H55550   1.392   9.900   8.164 -1.5618  1.2705  1.6614
  421MOL0     H55551   1.289   9.968   8.030 -0.6743  0.1796  0.9604
  421MOL0     H55552   1.531   9.929   7.951 -2.2475 -0.2941  0.6083
  421MOL0     H55553   1.593  10.043   8.069 -0.2946 -0.3170 -0.6099
  421MOL0     H55554   1.059  10.380   8.950 -0.1509 -0.6009  0.1209
  421MOL0     H55555   1.144  10.352   9.182  1.5871 -2.8857  0.4542
  421MOL0     H55556   1.472  10.165   9.428  2.4143  1.3199 -1.7992
  421MOL0     H55557   1.535  10.103   9.654 -0.1164 -0.6454 -0.4114
  421MOL0     H55558   1.705  11.146  10.304  1.4497  2.3859 -1.1302
  421MOL0     H55559   1.889  11.134  10.122  0.5489 -1.7443 -1.4337
  421MOL0     H55560   2.236  11.070   9.964 -0.9720  1.6562  0.9716
  421MOL0     H55561   2.404  11.147   9.785  1.6295  3.0848  0.3269
  421MOL0     H55562   2.775  11.353   9.911  0.9172  3.0564  1.2355
  421MOL0     H55563   2.645  11.472   9.904  1.1026 -0.0704  1.2331
  421MOL0     H55564   2.667  11.445   9.643  0.3279  1.3427 -0.9524
  421MOL0     H55565   2.820  11.487   9.737  0.8202 -1.5423  0.9427
  421MOL0     H55566   2.739  11.238   9.599  1.6505  1.8156 -2.8588
  421MOL0     H55567   2.877  11.248   9.730  3.7664  1.4688 -1.6778
  421MOL0     H55568   2.916  11.243   9.484 -0.8979  0.3662 -0.2232
  421MOL0     H55569   2.859  11.411   9.496 -0.6142 -1.2549 -1.1033
  421MOL0     H55570   3.216  11.483   9.707 -1.2897 -1.0971  3.4673
  421MOL0     H55571   2.639  11.308  10.098 -1.3137  0.3146  1.2316
  421MOL0     H55572   2.492  11.226  10.272  1.0355 -0.2894  0.1848
  422MOL0     O55573   5.236  10.272   6.468 -0.6270 -0.5752  0.5812
  422MOL0     C55574   5.282  10.382   6.440  0.0245  0.6094 -0.1846
  422MOL0     O55575   5.252  10.503   6.500  0.0113  0.0221  0.0437
  422MOL0     C55576   5.160  10.509   6.600  0.2870 -0.4569 -0.2722
  422MOL0     C55577   5.194  10.519   6.734 -1.1315 -0.4177 -0.0645
  422MOL0     C55578   5.102  10.531   6.840  1.0598  0.6057 -1.3553
  422MOL0     C55579   4.962  10.524   6.807  0.3945 -0.2378 -0.4218
  422MOL0     O55580   4.877  10.538   6.922 -0.8853  0.2001 -0.0629
  422MOL0     C55581   4.743  10.542   6.900  0.4708 -0.5914  0.4820
  422MOL0     C55582   4.664  10.606   7.018  0.8661  0.9507 -0.2185
  422MOL0     C55583   4.678  10.533   7.156 -1.0329  0.3618  0.2375
  422MOL0     C55584   4.665  10.375   7.145  0.2768 -0.6243  0.1133
  422MOL0     C55585   4.636  10.301   7.280  0.6903  0.0302  0.2408
  422MOL0     C55586   4.679  10.151   7.275  0.1217 -1.5652 -0.7234
  422MOL0     C55587   4.602  10.071   7.384  0.2889  0.1728 -0.3411
  422MOL0     C55588   4.656   9.927   7.389 -0.4097  0.0596  0.4436
  422MOL0     N55589   4.600   9.855   7.505 -0.3548  0.1151  0.2052
  422MOL0     C55590   4.474   9.805   7.508 -0.3708  0.6056  0.7354
  422MOL0     C55591   4.464   9.720   7.619 -0.5363 -0.0170  0.4132
  422MOL0     C55592   4.335   9.656   7.672  0.5596  0.2902 -0.3278
  422MOL0     C55593   4.227   9.754   7.699  0.0665 -1.4419 -0.9673
  422MOL0     C55594   4.246   9.834   7.828 -0.3256 -0.6455 -0.2886
  422MOL0     C55595   4.124   9.914   7.861 -0.6236 -0.7859  0.0686
  422MOL0     O55596   4.099   9.986   7.734  0.2308 -0.3815 -0.0863
  422MOL0     C55597   3.999  10.073   7.733  0.1045 -0.2609  0.1394
  422MOL0     C55598   3.965  10.131   7.605  0.6144 -0.1943 -0.6272
  422MOL0     C55599   3.857  10.227   7.590 -1.1194  0.7265  0.5901
  422MOL0     C55600   3.780  10.260   7.701 -0.4709 -0.2640 -0.0287
  422MOL0     C55601   3.667  10.357   7.685 -1.0222  0.3967  0.3317
  422MOL0     O55602   3.614  10.381   7.554 -0.8569 -0.4891  0.1959
  422MOL0     C55603   3.525  10.481   7.528 -0.3660 -0.4685 -0.1635
  422MOL0     C55604   3.395  10.449   7.500  0.3375 -0.6335  1.2282
  422MOL0     C55605   3.309  10.557   7.456 -0.7316 -0.3583 -0.1285
  422MOL0     C55606   3.351  10.692   7.444 -0.8714 -0.1319 -0.8389
  422MOL0     O55607   3.273  10.787   7.404  0.5731 -0.0509  0.4892
  422MOL0     C55608   3.152  10.809   7.470  1.2845  0.4292 -0.5279
  422MOL0     C55609   3.104  10.943   7.424 -0.5445  0.1317  0.7162
  422MOL0     C55610   2.964  10.934   7.358  0.2604 -0.6449  0.1321
  422MOL0     C55611   2.934  11.071   7.310  0.0345  0.9397  0.4631
  422MOL0     C55612   2.791  11.092   7.256 -0.2233  0.2576 -0.1063
  422MOL0     C55613   2.776  11.053   7.112 -0.5530  0.2351 -0.5852
  422MOL0     C55614   2.653  11.097   7.043  0.6777  0.0642 -0.9161
  422MOL0     C55615   2.508  11.061   7.109  0.6547 -0.1299 -0.0499
  422MOL0    Cl55616   2.518  10.901   7.181  0.4459 -0.8379 -0.8571
  422MOL0     C55617   3.485  10.722   7.468 -0.7767  0.0482  0.2139
  422MOL0     C55618   3.569  10.612   7.515 -1.0330 -0.4795 -0.0147
  422MOL0     O55619   3.634  10.421   7.782  0.7348  0.1208 -0.0587
  422MOL0     C55620   3.820  10.209   7.830  0.6132 -0.5248  0.1419
  422MOL0     C55621   3.925  10.117   7.843  0.8961 -0.7751  0.1715
  422MOL0     N55622   4.585   9.717   7.681 -1.0510  0.5189  0.5963
  422MOL0     N55623   4.663   9.790   7.610 -0.3055 -0.0347 -0.3603
  422MOL0     C55624   4.916  10.501   6.674  0.4108 -0.8959 -0.2849
  422MOL0     C55625   5.020  10.498   6.582  0.1627  0.3326  0.6675
  422MOL0     C55626   5.373  10.387   6.329 -0.1215  0.3013  0.7188
  422MOL0     C55627   5.413  10.270   6.258  0.7911 -1.1299 -0.2033
  422MOL0     C55628   5.511  10.284   6.159  0.4391  0.7372 -0.3637
  422MOL0     C55629   5.574  10.408   6.133  0.2353  0.3798  0.0264
  422MOL0     O55630   5.651  10.413   6.027  0.7272 -0.7553  0.0129
  422MOL0     C55631   5.690  10.540   5.969  0.8338  0.7019  0.3610
  422MOL0     C55632   5.834  10.582   6.009 -0.7863  0.4356  0.4649
  422MOL0     C55633   5.873  10.713   5.923  0.3360  0.2375  0.5197
  422MOL0     C55634   5.772  10.824   5.947  0.8400  0.0037  0.0958
  422MOL0     C55635   5.671  10.819   5.836  0.1797  0.5138  0.1819
  422MOL0     C55636   5.591  10.810   5.742  0.2126 -0.3711  0.0024
  422MOL0     C55637   5.545  10.517   6.213 -0.0817  0.0815 -0.0171
  422MOL0     C55638   5.443  10.507   6.309  0.2808  0.1717  0.6279
  422MOL0     H55639   5.302  10.517   6.743 -0.9068 -1.2344 -2.1833
  422MOL0     H55640   5.129  10.532   6.945 -1.4353  0.2950 -0.6629
  422MOL0     H55641   4.711  10.438   6.888 -2.2000  0.1465  0.6939
  422MOL0     H55642   4.711  10.600   6.814  1.6276  0.4768  0.7331
  422MOL0     H55643   4.556  10.605   6.997  0.5510  1.8323  1.2542
  422MOL0     H55644   4.696  10.703   7.057  0.0657  1.5404 -0.9744
  422MOL0     H55645   4.603  10.572   7.227  0.5406  4.3667 -0.0099
  422MOL0     H55646   4.778  10.543   7.200 -0.6549 -1.8870 -0.0307
  422MOL0     H55647   4.585  10.343   7.078 -1.3414 -0.3500  1.8211
  422MOL0     H55648   4.762  10.339   7.108  1.3539 -0.6744  2.7945
  422MOL0     H55649   4.531  10.316   7.306  0.9918  0.4881  1.2369
  422MOL0     H55650   4.692  10.355   7.356  1.4556 -0.0964 -0.2180
  422MOL0     H55651   4.788  10.147   7.286  0.0686  0.6354  1.3705
  422MOL0     H55652   4.642  10.118   7.178 -0.8862  3.8724 -2.4968
  422MOL0     H55653   4.623  10.123   7.478  0.7686  0.0373 -0.3701
  422MOL0     H55654   4.497  10.065   7.356  0.1285  1.2131 -0.0154
  422MOL0     H55655   4.764   9.936   7.403 -0.0462 -0.8837 -1.4534
  422MOL0     H55656   4.651   9.879   7.291  5.2380  1.2169 -0.7490
  422MOL0     H55657   4.392   9.834   7.444 -1.7278  3.3687  3.4565
  422MOL0     H55658   4.359   9.589   7.755 -1.5810  0.5387  0.5440
  422MOL0     H55659   4.289   9.589   7.598  0.7299  1.7117 -1.7645
  422MOL0     H55660   4.131   9.703   7.711 -0.6591  0.0421 -0.0450
  422MOL0     H55661   4.198   9.823   7.619 -0.1359  2.0456  1.8627
  422MOL0     H55662   4.280   9.766   7.907 -1.9354  1.8596  2.7655
  422MOL0     H55663   4.325   9.905   7.801 -1.1105  1.7717  3.0975
  422MOL0     H55664   4.142   9.977   7.948 -0.7327 -0.3095 -0.2486
  422MOL0     H55665   4.039   9.849   7.880  0.1388 -1.8937 -0.2117
  422MOL0     H55666   4.031  10.126   7.518  1.6979  1.9219 -0.0080
  422MOL0     H55667   3.839  10.283   7.499  2.0500  2.4661  0.8695
  422MOL0     H55668   3.365  10.344   7.496 -0.6992 -0.3218 -0.2120
  422MOL0     H55669   3.205  10.532   7.438 -0.6949 -1.8996  1.5203
  422MOL0     H55670   3.169  10.806   7.577 -0.2906 -1.0690 -0.2646
  422MOL0     H55671   3.074  10.735   7.447  2.5984 -0.7391 -1.4014
  422MOL0     H55672   3.166  10.977   7.340 -1.3518  1.7646  0.7372
  422MOL0     H55673   3.102  11.006   7.514 -2.0141 -1.2343  1.6892
  422MOL0     H55674   2.892  10.906   7.436  0.5299  3.6163  2.1816
  422MOL0     H55675   2.953  10.864   7.275  1.8139  0.0997 -0.7364
  422MOL0     H55676   2.930  11.145   7.391  1.8145  1.4688  0.1126
  422MOL0     H55677   3.013  11.109   7.244  0.7684 -2.7007 -0.9613
  422MOL0     H55678   2.758  11.195   7.273 -0.2458 -0.0747  2.3494
  422MOL0     H55679   2.723  11.036   7.321  2.2764 -0.8104  1.7482
  422MOL0     H55680   2.787  10.944   7.115 -3.2030 -0.0786  1.7228
  422MOL0     H55681   2.855  11.104   7.055  0.6223  1.3710  1.8732
  422MOL0     H55682   2.658  11.206   7.035 -0.6225  0.7303  3.9594
  422MOL0     H55683   2.667  11.053   6.944  5.5712 -2.3225  0.5245
  422MOL0     H55684   2.430  11.057   7.032 -1.4964  2.4917  1.7810
  422MOL0     H55685   2.456  11.132   7.174 -0.2771  1.4876 -2.4332
  422MOL0     H55686   3.529  10.821   7.465  0.4682 -0.4274  1.5642
  422MOL0     H55687   3.671  10.630   7.546  0.7754 -2.7280 -3.8809
  422MOL0     H55688   3.759  10.223   7.919  1.1812  1.3142  0.3007
  422MOL0     H55689   3.941  10.080   7.944 -0.3272  2.9848  1.9141
  422MOL0     H55690   4.812  10.481   6.654  0.2495 -0.3105 -0.0502
  422MOL0     H55691   4.983  10.457   6.488 -0.6925 -1.8695  1.8850
  422MOL0     H55692   5.370  10.172   6.275  1.9644 -1.7349 -0.6100
  422MOL0     H55693   5.538  10.204   6.092  0.5559  3.2248 -3.5200
  422MOL0     H55694   5.616  10.617   5.990 -5.7983 -4.3994 -1.1918
  422MOL0     H55695   5.691  10.530   5.860 -1.8168 -1.6510  0.4495
  422MOL0     H55696   5.847  10.596   6.116 -0.2823 -2.2173  0.8137
  422MOL0     H55697   5.914  10.509   5.992  0.2124  1.9021 -1.6556
  422MOL0     H55698   5.882  10.702   5.814  3.4968 -1.2725  0.7978
  422MOL0     H55699   5.966  10.743   5.973  1.0927  1.3987 -1.4541
  422MOL0     H55700   5.717  10.813   6.040 -2.3059 -1.6418 -1.7975
  422MOL0     H55701   5.814  10.925   5.948 -0.5227  0.5904  0.1340
  422MOL0     H55702   5.525  10.814   5.657 -0.1792 -1.5260  0.2315
  422MOL0     H55703   5.588  10.613   6.189 -0.3050  0.1541 -0.1336
  422MOL0     H55704   5.408  10.592   6.367 -1.1114 -0.4038  0.6755
  423MOL0     O55705   7.807   2.054   0.351  1.0953  0.1294  1.2192
  423MOL0     C55706   7.852   1.950   0.400  0.0190 -0.2262 -0.8429
  423MOL0     O55707   7.793   1.833   0.389 -0.1541  0.3177 -0.4648
  423MOL0     C55708   7.657   1.822   0.384  0.3738 -0.0188 -0.3783
  423MOL0     C55709   7.610   1.693   0.343 -1.3277 -0.3975 -0.9427
  423MOL0     C55710   7.472   1.663   0.332  0.3936 -0.5710 -0.8021
  423MOL0     C55711   7.381   1.758   0.387 -0.8414  0.2990 -0.1442
  423MOL0     O55712   7.246   1.766   0.385 -0.3448 -0.5281 -0.1385
  423MOL0     C55713   7.182   1.635   0.393  0.9861  1.0004 -0.4843
  423MOL0     C55714   7.037   1.662   0.438 -0.5783 -0.1799 -0.1309
  423MOL0     C55715   6.967   1.547   0.516 -0.3207 -0.2701 -0.0155
  423MOL0     C55716   6.818   1.556   0.506  0.0934  0.3066 -0.3624
  423MOL0     C55717   6.760   1.418   0.528  0.2552  0.1028  0.5169
  423MOL0     C55718   6.784   1.367   0.665 -0.6574  0.5158 -0.2255
  423MOL0     C55719   6.688   1.249   0.694  0.0142 -0.9374 -1.0664
  423MOL0     C55720   6.759   1.111   0.689 -0.3310 -0.4504  0.3110
  423MOL0     N55721   6.822   1.075   0.814 -0.3822  0.2632  0.6723
  423MOL0     C55722   6.941   1.124   0.873  0.5239  0.3868 -0.2819
  423MOL0     C55723   6.957   1.041   0.979 -0.2271 -0.3598 -0.8166
  423MOL0     C55724   7.051   1.027   1.092 -0.1438 -0.4834 -0.7391
  423MOL0     C55725   7.193   1.026   1.033  0.5626  0.7476 -0.3143
  423MOL0     C55726   7.210   0.911   0.929 -0.5819 -0.6997 -0.2317
  423MOL0     C55727   7.178   0.766   0.969  0.1369 -1.3125  0.5744
  423MOL0     O55728   7.248   0.726   1.091  0.0221  0.0056 -0.1207
  423MOL0     C55729   7.385   0.698   1.089  0.4170  0.4644 -0.1584
  423MOL0     C55730   7.426   0.596   1.007  0.5455 -0.0018  0.2082
  423MOL0     C55731   7.563   0.550   1.001  0.5260 -0.4871 -0.6011
  423MOL0     C55732   7.660   0.606   1.092 -0.0535  0.5056  0.9180
  423MOL0     C55733   7.802   0.569   1.095  0.8798  1.4097  0.5915
  423MOL0     O55734   7.894   0.641   1.147 -0.4124 -0.2983 -0.4192
  423MOL0     C55735   8.027   0.595   1.172  0.4470 -0.4732  0.2761
  423MOL0     C55736   8.078   0.467   1.163 -0.1592 -1.7199 -0.4023
  423MOL0     C55737   8.221   0.457   1.184 -0.7478  0.5573 -0.7021
  423MOL0     C55738   8.299   0.564   1.227  0.0447 -1.1498  0.2626
  423MOL0     O55739   8.435   0.568   1.253  0.4832 -0.6958 -0.6711
  423MOL0     C55740   8.485   0.441   1.303 -0.5329 -0.1412  0.2391
  423MOL0     C55741   8.622   0.453   1.356 -0.7998 -0.1724  0.2325
  423MOL0     C55742   8.741   0.477   1.257  0.8116 -0.1936 -0.0229
  423MOL0     C55743   8.864   0.500   1.333  0.5311 -0.5912 -0.1197
  423MOL0     C55744   8.973   0.478   1.228  0.4602  0.8360 -0.1729
  423MOL0     C55745   9.117   0.533   1.284 -0.1336  0.8623 -0.6183
  423MOL0     C55746   9.167   0.447   1.403  0.8542  0.2123 -0.3602
  423MOL0     C55747   9.152   0.523   1.531  0.4509  0.1718 -0.2864
  423MOL0    Cl55748   9.297   0.608   1.551 -0.2733  0.3731 -0.2043
  423MOL0     C55749   8.237   0.691   1.242 -0.5828  0.6055  0.6001
  423MOL0     C55750   8.102   0.706   1.211 -0.2311 -0.2081  0.2471
  423MOL0     O55751   7.814   0.453   1.058 -0.7937 -0.1290  0.1054
  423MOL0     C55752   7.612   0.718   1.170  0.1182  0.5592  0.1116
  423MOL0     C55753   7.486   0.767   1.160  0.6025 -0.5929 -0.1267
  423MOL0     N55754   6.854   0.957   0.983  0.4312  0.0110  0.1024
  423MOL0     N55755   6.780   0.965   0.879  0.7035 -0.4570 -0.1626
  423MOL0     C55756   7.429   1.878   0.452 -1.2347  1.3896  0.3018
  423MOL0     C55757   7.559   1.911   0.443 -0.7573 -0.3120 -0.0436
  423MOL0     C55758   7.990   1.969   0.458 -0.1589  0.5909 -0.0536
  423MOL0     C55759   8.047   1.874   0.541  0.0122  0.6751 -0.0111
  423MOL0     C55760   8.173   1.887   0.593 -0.1841 -0.7958  0.6258
  423MOL0     C55761   8.253   2.003   0.557  0.7963  0.1177  0.1274
  423MOL0     O55762   8.373   2.038   0.614  0.0914  0.5234 -0.0378
  423MOL0     C55763   8.418   1.960   0.725  0.7309 -0.4363  0.8480
  423MOL0     C55764   8.526   2.033   0.800 -0.1938 -0.3732  0.2814
  423MOL0     C55765   8.661   2.038   0.725 -0.3151 -0.4265 -1.3503
  423MOL0     C55766   8.788   2.037   0.818 -0.5899  0.3535  0.1905
  423MOL0     C55767   8.918   2.052   0.744  0.8374 -0.0935  0.6323
  423MOL0     C55768   9.010   2.090   0.673 -0.3239 -1.1870 -0.1130
  423MOL0     C55769   8.193   2.095   0.473  0.2992 -0.3540 -0.4578
  423MOL0     C55770   8.069   2.080   0.426  0.5657 -0.5200 -0.3650
  423MOL0     H55771   7.678   1.622   0.296 -0.3857 -3.7863  4.6598
  423MOL0     H55772   7.444   1.570   0.284  1.6835 -0.2390 -2.2758
  423MOL0     H55773   7.234   1.579   0.472 -1.3501 -2.5526 -1.2146
  423MOL0     H55774   7.183   1.585   0.296 -1.0063 -0.8531  0.3795
  423MOL0     H55775   6.981   1.680   0.346 -0.8601 -3.0309 -0.5862
  423MOL0     H55776   7.037   1.752   0.501  3.2533  0.2704 -0.5556
  423MOL0     H55777   6.995   1.561   0.621  0.9527 -5.3106  0.5742
  423MOL0     H55778   6.989   1.442   0.492 -2.1689 -0.2655 -2.0518
  423MOL0     H55779   6.776   1.622   0.583 -2.1094  0.2234 -1.4255
  423MOL0     H55780   6.784   1.613   0.420  1.8499  0.8216 -0.7572
  423MOL0     H55781   6.799   1.351   0.451  0.4250  0.7804  0.0004
  423MOL0     H55782   6.651   1.418   0.520  0.3078 -2.6530 -2.2773
  423MOL0     H55783   6.760   1.439   0.744 -1.4903 -3.0358  3.1185
  423MOL0     H55784   6.888   1.333   0.673 -0.6478  0.8306  1.5222
  423MOL0     H55785   6.644   1.262   0.793  0.2767 -2.1463 -0.7710
  423MOL0     H55786   6.615   1.237   0.614 -1.0248  0.8006 -0.4297
  423MOL0     H55787   6.835   1.124   0.611  0.9020  1.2037  1.7284
  423MOL0     H55788   6.698   1.030   0.645  1.6248 -1.2290 -1.1116
  423MOL0     H55789   7.003   1.212   0.858 -1.5592  2.0421  0.3202
  423MOL0     H55790   7.038   0.937   1.152  3.4665  0.3768  1.7129
  423MOL0     H55791   7.037   1.117   1.152 -0.5778 -0.6232 -0.6270
  423MOL0     H55792   7.261   1.024   1.119 -0.6284  1.3601  0.6686
  423MOL0     H55793   7.212   1.119   0.979 -0.4083  0.2230 -1.6262
  423MOL0     H55794   7.161   0.936   0.834  0.6664  2.3468 -0.1904
  423MOL0     H55795   7.314   0.927   0.899 -0.7020  2.4004  0.7077
  423MOL0     H55796   7.204   0.695   0.890  1.5655 -0.9660  0.6914
  423MOL0     H55797   7.070   0.754   0.980 -0.2227  0.2798 -0.7473
  423MOL0     H55798   7.352   0.543   0.948  1.5393  0.3233 -1.3919
  423MOL0     H55799   7.593   0.473   0.931  0.6488 -0.2854 -0.7716
  423MOL0     H55800   8.026   0.379   1.127 -3.4605 -1.4084  2.9964
  423MOL0     H55801   8.265   0.357   1.185  0.9863  1.2522  1.5399
  423MOL0     H55802   8.495   0.379   1.213  3.4821  4.7290 -3.2946
  423MOL0     H55803   8.420   0.396   1.378 -0.8530  0.6455  0.4365
  423MOL0     H55804   8.635   0.355   1.403  2.6262 -1.4015 -2.8272
  423MOL0     H55805   8.642   0.526   1.435  2.4470 -1.0589  0.3917
  423MOL0     H55806   8.723   0.572   1.207  0.6895  0.5573  1.3959
  423MOL0     H55807   8.752   0.394   1.186 -2.2916 -0.4029 -0.3823
  423MOL0     H55808   8.872   0.599   1.379 -2.7952 -0.6398  0.8198
  423MOL0     H55809   8.858   0.426   1.414  0.1203 -0.1485  0.2635
  423MOL0     H55810   8.947   0.511   1.127 -0.2669 -0.3844 -0.4077
  423MOL0     H55811   8.977   0.372   1.202  1.8169  1.2495 -1.7804
  423MOL0     H55812   9.122   0.641   1.302  4.4374  1.3046 -3.1457
  423MOL0     H55813   9.195   0.517   1.210  0.0138  0.1106 -0.3114
  423MOL0     H55814   9.098   0.364   1.417  1.4999 -0.0510  1.5181
  423MOL0     H55815   9.268   0.406   1.403  0.9812  0.0382  4.2559
  423MOL0     H55816   9.146   0.453   1.615  2.0629  0.3648  0.0054
  423MOL0     H55817   9.076   0.602   1.529  0.7375  0.4346 -1.2884
  423MOL0     H55818   8.307   0.773   1.253  0.9751 -0.2216 -2.1892
  423MOL0     H55819   8.058   0.805   1.206 -0.4247 -0.3281 -3.5587
  423MOL0     H55820   7.685   0.781   1.220  1.6747 -0.6805 -0.5291
  423MOL0     H55821   7.453   0.855   1.214  0.8299 -2.6156  3.5788
  423MOL0     H55822   7.354   1.949   0.487 -2.7801  0.0733 -0.2121
  423MOL0     H55823   7.581   2.009   0.484  1.4631  0.8277 -3.4813
  423MOL0     H55824   7.980   1.795   0.574  1.1406 -0.3282 -0.0310
  423MOL0     H55825   8.208   1.818   0.669 -2.6402 -0.1915  2.4319
  423MOL0     H55826   8.442   1.859   0.689 -0.4496 -0.8493  1.1897
  423MOL0     H55827   8.334   1.952   0.795  0.4746 -0.9370  0.4850
  423MOL0     H55828   8.508   2.137   0.828  0.5742  0.1430 -1.0954
  423MOL0     H55829   8.559   1.992   0.897 -0.4788 -1.3030 -0.0024
  423MOL0     H55830   8.659   2.134   0.674 -0.5499 -0.7234 -1.9185
  423MOL0     H55831   8.669   1.948   0.662 -1.3927 -1.5060 -0.0123
  423MOL0     H55832   8.777   2.114   0.894  2.2352 -0.8962  2.0263
  423MOL0     H55833   8.777   1.943   0.872 -0.8520  0.6578  0.6812
  423MOL0     H55834   9.087   2.145   0.622 -1.0081  0.2180  0.3222
  423MOL0     H55835   8.247   2.186   0.451  1.7801 -1.0853  0.0566
  423MOL0     H55836   8.023   2.152   0.358 -0.5350 -2.2355 -1.4990
  424MOL0     O55837   0.472   5.135   6.470 -0.2213  0.0457  0.3949
  424MOL0     C55838   0.368   5.173   6.415 -0.8502 -0.3006 -0.1300
  424MOL0     O55839   0.246   5.124   6.426 -0.3062 -0.0675  0.2729
  424MOL0     C55840   0.226   5.003   6.488 -0.3444 -0.6481  0.4222
  424MOL0     C55841   0.108   4.978   6.562 -0.2423  0.4156 -1.0206
  424MOL0     C55842   0.092   4.843   6.627  0.3193 -0.1687 -0.3707
  424MOL0     C55843   0.170   4.743   6.581  0.4081 -0.2267 -1.1520
  424MOL0     O55844   0.139   4.619   6.629 -0.4488 -0.3652  0.0155
  424MOL0     C55845   0.247   4.564   6.699  0.1033 -0.8337 -0.3593
  424MOL0     C55846   0.209   4.414   6.715  1.0459  0.2304  0.3457
  424MOL0     C55847   0.126   4.383   6.844  0.2073 -0.5684  0.0612
  424MOL0     C55848   0.051   4.240   6.858 -0.3497 -0.0344  1.2463
  424MOL0     C55849   0.140   4.101   6.842  0.2567  0.1108 -0.3122
  424MOL0     C55850   0.046   3.976   6.877 -0.4671  0.3135  0.0428
  424MOL0     C55851   0.101   3.848   6.814 -0.5871  0.3308  1.0381
  424MOL0     C55852  -0.005   3.729   6.789 -0.4130 -0.7074 -0.0502
  424MOL0     N55853   0.072   3.604   6.765 -0.2696 -0.1910 -0.3825
  424MOL0     C55854   0.108   3.541   6.657 -0.2557 -0.2384  0.1427
  424MOL0     C55855   0.176   3.431   6.687 -0.1298 -0.1671 -0.1642
  424MOL0     C55856   0.234   3.327   6.601  0.2389 -0.3240  0.2025
  424MOL0     C55857   0.378   3.288   6.650 -0.7258  0.3503 -0.0087
  424MOL0     C55858   0.418   3.158   6.581 -0.1841  0.2255  0.2555
  424MOL0     C55859   0.464   3.175   6.433 -0.9897 -0.2340 -0.5770
  424MOL0     O55860   0.595   3.240   6.442  0.0701 -0.5075  0.2897
  424MOL0     C55861   0.678   3.242   6.332  1.1283 -0.2971  0.4639
  424MOL0     C55862   0.635   3.207   6.205  0.1732  0.7422  0.0647
  424MOL0     C55863   0.720   3.223   6.099  0.0243  0.5247 -0.1384
  424MOL0     C55864   0.857   3.248   6.118 -0.3531 -0.7771  0.8724
  424MOL0     C55865   0.950   3.224   5.992  1.1671 -0.0142  0.3463
  424MOL0     O55866   0.885   3.217   5.870 -0.2242 -0.0523  0.4654
  424MOL0     C55867   0.951   3.193   5.752  0.7728 -0.3978 -1.0963
  424MOL0     C55868   1.027   3.298   5.702 -0.6829  0.5997 -0.1616
  424MOL0     C55869   1.088   3.294   5.573  0.6092  0.6423  0.3587
  424MOL0     C55870   1.079   3.179   5.499  1.2643  0.1477 -0.0508
  424MOL0     O55871   1.147   3.156   5.387 -0.4026 -0.3774 -0.2532
  424MOL0     C55872   1.293   3.159   5.407  0.2061 -0.9246 -0.1800
  424MOL0     C55873   1.351   3.290   5.337 -0.3886 -0.3213 -0.5066
  424MOL0     C55874   1.504   3.295   5.365  0.6829 -1.1816 -0.2932
  424MOL0     C55875   1.569   3.158   5.368  0.3017 -0.7830  0.2456
  424MOL0     C55876   1.722   3.176   5.362 -0.0759  0.2762  0.3867
  424MOL0     C55877   1.779   3.291   5.452  0.7529 -0.5276 -0.0634
  424MOL0     C55878   1.913   3.269   5.515 -0.0875 -0.6761 -0.8052
  424MOL0     C55879   2.029   3.266   5.413  0.2231 -0.2657 -0.0108
  424MOL0    Cl55880   2.081   3.430   5.382 -0.1489  0.2748  0.2087
  424MOL0     C55881   0.994   3.078   5.546 -0.1544 -0.3093 -0.6836
  424MOL0     C55882   0.925   3.085   5.673  0.4207  0.4282  0.3335
  424MOL0     O55883   1.070   3.243   6.009 -0.4331 -0.0439 -0.0978
  424MOL0     C55884   0.897   3.286   6.248  0.1797  0.5644  0.2388
  424MOL0     C55885   0.806   3.279   6.355 -0.1358 -0.8592 -0.8333
  424MOL0     N55886   0.179   3.428   6.825 -0.2220 -0.1219  0.2811
  424MOL0     N55887   0.113   3.531   6.873  0.2609 -0.2986  0.1790
  424MOL0     C55888   0.283   4.770   6.498  0.3697 -0.2913  0.8173
  424MOL0     C55889   0.316   4.897   6.457  1.0273 -0.7406 -0.2840
  424MOL0     C55890   0.389   5.282   6.314 -0.2023 -0.2602  0.7359
  424MOL0     C55891   0.280   5.369   6.283 -0.1445  1.0982  0.2883
  424MOL0     C55892   0.293   5.476   6.194 -0.4858 -0.6298 -0.4969
  424MOL0     C55893   0.407   5.493   6.112 -0.3884  0.1081  0.6993
  424MOL0     O55894   0.416   5.590   6.016 -0.1042  0.2371  0.0338
  424MOL0     C55895   0.540   5.662   6.005 -0.1067  0.7876 -0.1331
  424MOL0     C55896   0.595   5.651   5.861  0.0421  0.2938 -0.4360
  424MOL0     C55897   0.736   5.709   5.845 -0.5623 -0.1480 -0.1519
  424MOL0     C55898   0.801   5.634   5.728  0.3970  0.3477 -0.1676
  424MOL0     C55899   0.941   5.675   5.728  0.8070 -0.3601 -0.0698
  424MOL0     C55900   1.057   5.697   5.713 -0.0767  0.0177 -0.3605
  424MOL0     C55901   0.516   5.410   6.136  0.0412  0.6056  0.6083
  424MOL0     C55902   0.501   5.307   6.235 -0.1973 -0.6251 -0.2089
  424MOL0     H55903   0.038   5.057   6.589  0.2049 -0.0920  2.0476
  424MOL0     H55904   0.013   4.822   6.699  0.4655  2.6811  0.7610
  424MOL0     H55905   0.272   4.608   6.795 -0.5167  1.1124 -1.0458
  424MOL0     H55906   0.327   4.549   6.626 -0.0784 -0.2740 -0.6823
  424MOL0     H55907   0.292   4.343   6.706  1.0241  0.3262 -0.7251
  424MOL0     H55908   0.138   4.397   6.634 -0.1778 -1.3119  1.6665
  424MOL0     H55909   0.053   4.465   6.852  2.4711  1.5825 -0.3425
  424MOL0     H55910   0.195   4.395   6.927 -1.8867  0.1706  1.8112
  424MOL0     H55911  -0.004   4.234   6.952 -3.0332 -1.0577 -0.2834
  424MOL0     H55912  -0.023   4.240   6.778  1.1978  0.4214 -0.2487
  424MOL0     H55913   0.222   4.113   6.913 -0.1002 -0.0439  0.1296
  424MOL0     H55914   0.183   4.094   6.741  0.7594 -1.4853 -0.0196
  424MOL0     H55915  -0.057   3.986   6.844 -0.7369  0.2743  0.8571
  424MOL0     H55916   0.049   3.966   6.986 -2.5531 -1.6380 -0.0131
  424MOL0     H55917   0.152   3.877   6.721 -3.4580 -1.0608 -1.1341
  424MOL0     H55918   0.182   3.804   6.874  2.1620  2.9584 -0.4488
  424MOL0     H55919  -0.066   3.746   6.700  0.7911  0.3968 -0.6859
  424MOL0     H55920  -0.081   3.724   6.868 -1.6321  0.9745 -1.0551
  424MOL0     H55921   0.082   3.580   6.559 -1.5660  2.2352  1.3962
  424MOL0     H55922   0.236   3.361   6.497  1.2788  0.8974  0.5976
  424MOL0     H55923   0.169   3.239   6.607 -0.2395 -0.0594 -0.8364
  424MOL0     H55924   0.376   3.256   6.755  0.6005  0.7956  0.1712
  424MOL0     H55925   0.436   3.380   6.638 -2.3831  1.8858  2.8070
  424MOL0     H55926   0.493   3.112   6.646 -2.2035 -3.6941  0.0872
  424MOL0     H55927   0.326   3.099   6.581 -1.1017  1.5345 -1.3753
  424MOL0     H55928   0.389   3.232   6.378 -2.1031  0.8953  1.9276
  424MOL0     H55929   0.477   3.070   6.406  0.0045  0.3997 -2.7266
  424MOL0     H55930   0.535   3.171   6.185 -0.1380  0.2047  2.3408
  424MOL0     H55931   0.687   3.204   5.997 -1.2473  2.1489 -0.0772
  424MOL0     H55932   1.039   3.383   5.768 -1.0537 -0.3788  1.2118
  424MOL0     H55933   1.140   3.382   5.535 -0.2646  0.3388 -1.6436
  424MOL0     H55934   1.333   3.072   5.355  0.6129 -0.5297 -0.5457
  424MOL0     H55935   1.328   3.153   5.510  3.8273 -1.0519 -1.2847
  424MOL0     H55936   1.299   3.376   5.380 -1.1158 -0.4415 -1.1278
  424MOL0     H55937   1.340   3.295   5.229 -0.5716 -0.1849 -0.4810
  424MOL0     H55938   1.515   3.351   5.458 -2.3315 -0.8287 -0.0510
  424MOL0     H55939   1.549   3.366   5.295  0.9953 -0.4877  0.6026
  424MOL0     H55940   1.540   3.087   5.446  0.1098 -2.1195 -0.9938
  424MOL0     H55941   1.548   3.100   5.277  3.6078 -2.3077  0.3030
  424MOL0     H55942   1.745   3.197   5.257 -1.0128 -0.0128  0.1190
  424MOL0     H55943   1.756   3.079   5.398 -3.2688 -0.5740  1.4593
  424MOL0     H55944   1.706   3.307   5.531  1.6842  0.1225  0.6851
  424MOL0     H55945   1.778   3.386   5.397  0.3984 -0.8726 -0.6696
  424MOL0     H55946   1.934   3.342   5.594  1.0803 -1.2156 -0.5890
  424MOL0     H55947   1.906   3.170   5.562  2.9308 -0.6556 -0.1387
  424MOL0     H55948   1.994   3.206   5.328  0.8093 -4.0740  2.2196
  424MOL0     H55949   2.116   3.218   5.458  1.9178  1.2492 -1.5093
  424MOL0     H55950   0.977   2.986   5.492 -1.1862 -0.3854 -0.2681
  424MOL0     H55951   0.868   2.999   5.707 -0.7967  0.8735 -0.5121
  424MOL0     H55952   1.003   3.304   6.262  0.1456 -0.7542  2.9228
  424MOL0     H55953   0.834   3.303   6.457  1.7928  1.0550 -1.7412
  424MOL0     H55954   0.345   4.688   6.463  2.7730  1.1621  1.4194
  424MOL0     H55955   0.410   4.924   6.411  0.7951 -0.8704 -0.8434
  424MOL0     H55956   0.184   5.367   6.333 -0.2724 -1.0087  0.0133
  424MOL0     H55957   0.216   5.551   6.178  2.1397  1.6373 -4.3246
  424MOL0     H55958   0.617   5.647   6.081  2.7060  1.2097 -2.6835
  424MOL0     H55959   0.517   5.766   6.028 -1.6114 -0.1775  3.4277
  424MOL0     H55960   0.605   5.546   5.834  0.8243  0.4635 -0.8372
  424MOL0     H55961   0.525   5.708   5.799  0.2519  0.8500 -0.1660
  424MOL0     H55962   0.792   5.690   5.936 -0.1655  1.2120 -0.0890
  424MOL0     H55963   0.733   5.817   5.827  0.4537 -0.1199 -0.2384
  424MOL0     H55964   0.790   5.525   5.722  1.0802  0.3611 -2.7742
  424MOL0     H55965   0.758   5.668   5.633 -0.4334 -0.2061 -0.0013
  424MOL0     H55966   1.161   5.712   5.692  0.5577  1.3538  3.0384
  424MOL0     H55967   0.610   5.414   6.083 -0.4948 -1.1882 -0.5449
  424MOL0     H55968   0.582   5.244   6.272  1.2798  1.0517 -0.4110
  425MOL0     O55969   2.830   2.210  10.202  0.1339 -0.5566 -0.4396
  425MOL0     C55970   2.822   2.294  10.301 -0.4780 -0.0017 -0.4647
  425MOL0     O55971   2.746   2.402  10.309 -0.3368 -0.2485  0.2407
  425MOL0     C55972   2.657   2.418  10.197 -0.2539 -0.5080  0.0707
  425MOL0     C55973   2.688   2.520  10.107 -0.0869  0.6628  0.5426
  425MOL0     C55974   2.591   2.551  10.001 -0.8273 -0.0250 -0.4596
  425MOL0     C55975   2.479   2.467   9.989 -0.3053 -0.5622 -0.4094
  425MOL0     O55976   2.383   2.487   9.895 -0.2382 -0.1156 -0.7536
  425MOL0     C55977   2.355   2.618   9.847  0.6184  0.4010 -0.9761
  425MOL0     C55978   2.205   2.629   9.827 -0.8489  0.1649 -0.0660
  425MOL0     C55979   2.152   2.541   9.720 -0.6510 -0.5331 -0.0249
  425MOL0     C55980   2.007   2.584   9.675 -0.2218 -0.0254 -0.3803
  425MOL0     C55981   1.981   2.542   9.527 -0.4291  0.0745 -0.7133
  425MOL0     C55982   1.843   2.493   9.490 -0.0438  0.5847  0.0612
  425MOL0     C55983   1.717   2.578   9.528 -0.3506  0.4468 -0.1005
  425MOL0     C55984   1.588   2.499   9.541  0.2400  0.6018 -0.3641
  425MOL0     N55985   1.542   2.444   9.419 -0.2973  0.4044 -0.1455
  425MOL0     C55986   1.557   2.309   9.381  0.2402 -0.3192 -0.5046
  425MOL0     C55987   1.516   2.311   9.253  0.0904 -0.6865  0.3887
  425MOL0     C55988   1.518   2.187   9.157  0.4815  0.4942  0.0338
  425MOL0     C55989   1.375   2.132   9.127 -0.4255 -0.2380 -0.4117
  425MOL0     C55990   1.382   2.049   8.999  0.6855 -0.4884 -0.0030
  425MOL0     C55991   1.298   2.082   8.878  0.8340  0.7319 -0.9489
  425MOL0     O55992   1.158   2.023   8.894  0.3150  0.0639  0.3054
  425MOL0     C55993   1.086   2.018   8.780  1.3647  0.2218  0.7005
  425MOL0     C55994   0.950   2.016   8.797  0.1324 -1.0082  0.6324
  425MOL0     C55995   0.865   2.012   8.686  0.3871  0.2201 -0.6432
  425MOL0     C55996   0.917   2.005   8.560  0.6870  0.8856 -0.4215
  425MOL0     C55997   0.819   2.014   8.444 -0.2045  0.1450 -0.3643
  425MOL0     O55998   0.686   2.027   8.475 -0.8206 -0.3593 -0.3235
  425MOL0     C55999   0.581   2.029   8.387 -0.1362 -0.0296  0.2115
  425MOL0     C56000   0.589   1.949   8.276  0.2767 -0.8549  0.5030
  425MOL0     C56001   0.489   1.948   8.181 -0.4980  0.4613  1.2874
  425MOL0     C56002   0.377   2.030   8.194  0.0545 -0.5742 -0.6168
  425MOL0     O56003   0.267   2.027   8.112 -0.3523 -0.0043 -0.6817
  425MOL0     C56004   0.263   1.967   7.979  0.4045 -0.6696  0.2769
  425MOL0     C56005   0.161   2.035   7.890 -0.4301  0.3038 -0.4854
  425MOL0     C56006   0.206   2.154   7.803 -0.9098 -0.1242 -0.2338
  425MOL0     C56007   0.084   2.211   7.723 -0.6820  0.1754  0.0881
  425MOL0     C56008   0.150   2.303   7.614 -0.3189  0.2335 -0.7455
  425MOL0     C56009   0.055   2.343   7.507 -0.2766  0.2212  0.9839
  425MOL0     C56010  -0.058   2.445   7.531 -1.1807  0.2250 -0.7226
  425MOL0     C56011  -0.104   2.523   7.406  0.7265  0.1543  0.4884
  425MOL0    Cl56012  -0.178   2.414   7.281  0.0112 -0.0611  0.0192
  425MOL0     C56013   0.368   2.121   8.303 -0.0875  0.8348 -0.6722
  425MOL0     C56014   0.468   2.118   8.397  0.2185 -0.1084 -0.3976
  425MOL0     O56015   0.872   2.020   8.330  0.4081 -0.3057 -0.2096
  425MOL0     C56016   1.054   2.005   8.539  0.3236  0.0261  0.1547
  425MOL0     C56017   1.135   2.001   8.651  0.2042 -0.4791 -0.6029
  425MOL0     N56018   1.488   2.431   9.208  0.4253 -0.0034  0.0930
  425MOL0     N56019   1.497   2.512   9.306 -0.1906  0.0724 -0.6479
  425MOL0     C56020   2.460   2.360  10.077  1.4578  0.4263 -0.5788
  425MOL0     C56021   2.552   2.332  10.179 -0.2191 -0.0059  0.8472
  425MOL0     C56022   2.900   2.264  10.422 -0.6952  0.0959 -0.0720
  425MOL0     C56023   2.889   2.339  10.541  1.3162 -0.3720 -0.5383
  425MOL0     C56024   2.956   2.308  10.659  0.0876  0.4927 -0.3688
  425MOL0     C56025   3.036   2.195  10.670 -0.3899  0.5570  0.6564
  425MOL0     O56026   3.103   2.171  10.784  0.2476 -0.1061  0.6258
  425MOL0     C56027   3.224   2.100  10.778  0.7118  0.2821 -1.1257
  425MOL0     C56028   3.282   2.129  10.922  0.6568  1.0329 -0.5615
  425MOL0     C56029   3.311   2.280  10.935 -0.2958 -0.1821  0.1876
  425MOL0     C56030   3.391   2.331  11.063  0.2477  0.4362  0.1979
  425MOL0     C56031   3.303   2.311  11.177 -0.3899 -0.3536  0.2563
  425MOL0     C56032   3.229   2.302  11.274 -0.4380 -0.2428  0.2627
  425MOL0     C56033   3.051   2.121  10.545 -0.4772  0.1992 -0.1591
  425MOL0     C56034   2.979   2.149  10.427  0.3967 -0.1134  0.1964
  425MOL0     H56035   2.783   2.571  10.117 -0.6224  1.7423  0.3119
  425MOL0     H56036   2.601   2.637   9.936  1.9299  3.2859  3.7527
  425MOL0     H56037   2.415   2.632   9.757  1.5474  1.5116 -0.2098
  425MOL0     H56038   2.371   2.696   9.923  2.2991 -1.9924  1.3336
  425MOL0     H56039   2.191   2.735   9.802 -0.0405  0.4771  0.7620
  425MOL0     H56040   2.154   2.618   9.923  1.5561  0.8076  1.3590
  425MOL0     H56041   2.144   2.437   9.754 -1.5357 -0.1959  0.8780
  425MOL0     H56042   2.212   2.538   9.629 -2.8742  1.2626 -1.6727
  425MOL0     H56043   1.932   2.527   9.730 -0.8540 -1.0393 -2.2030
  425MOL0     H56044   1.987   2.691   9.682  0.2711  0.1680 -1.5946
  425MOL0     H56045   2.047   2.465   9.488 -0.5334  0.7544 -2.3027
  425MOL0     H56046   2.020   2.630   9.475  1.9559  1.2462  2.6939
  425MOL0     H56047   1.827   2.392   9.528  4.3971 -1.5519 -2.8778
  425MOL0     H56048   1.839   2.470   9.383  2.7117  0.8472 -0.1601
  425MOL0     H56049   1.738   2.640   9.616 -1.4195 -2.0887  2.0574
  425MOL0     H56050   1.709   2.647   9.443  2.0360  0.2147 -0.5785
  425MOL0     H56051   1.515   2.565   9.590 -0.0071 -0.0717  0.1957
  425MOL0     H56052   1.601   2.413   9.607 -1.7242 -1.8667 -2.9784
  425MOL0     H56053   1.591   2.220   9.434  1.3877 -0.3370 -1.2281
  425MOL0     H56054   1.582   2.114   9.207  0.8270  2.4607  2.7131
  425MOL0     H56055   1.566   2.219   9.064  1.9380 -1.9200 -0.1191
  425MOL0     H56056   1.307   2.218   9.116  1.4195  1.0278 -3.0341
  425MOL0     H56057   1.350   2.073   9.215  0.3535  0.0975  0.0425
  425MOL0     H56058   1.485   2.036   8.965  2.0386  2.6539  2.3791
  425MOL0     H56059   1.350   1.945   9.013 -1.4088  0.0091 -0.7840
  425MOL0     H56060   1.340   2.023   8.796  0.0647 -0.9061 -0.2102
  425MOL0     H56061   1.284   2.190   8.864 -2.7832  0.6255  0.7583
  425MOL0     H56062   0.902   2.018   8.894 -2.7069  1.3171 -0.6623
  425MOL0     H56063   0.759   2.010   8.707  0.7655 -2.3774  1.6656
  425MOL0     H56064   0.676   1.887   8.262 -0.7262 -1.8145 -2.1276
  425MOL0     H56065   0.491   1.884   8.093  1.1167  3.2488 -0.8616
  425MOL0     H56066   0.222   1.867   7.992 -2.9584  0.8207  2.4305
  425MOL0     H56067   0.357   1.979   7.923 -0.8162  2.8547 -1.3529
  425MOL0     H56068   0.077   2.066   7.952  0.4224  5.2183 -1.3806
  425MOL0     H56069   0.126   1.963   7.816 -2.5191  2.0038 -1.2349
  425MOL0     H56070   0.290   2.129   7.738  0.2995 -2.0656  1.9038
  425MOL0     H56071   0.238   2.226   7.879 -2.3335 -1.8965  2.1913
  425MOL0     H56072   0.029   2.125   7.684  0.2747 -0.8797  0.9777
  425MOL0     H56073   0.017   2.257   7.796 -1.1305  2.8883 -1.8983
  425MOL0     H56074   0.220   2.232   7.568  0.2322 -1.0108  1.8517
  425MOL0     H56075   0.208   2.393   7.637 -0.1781  0.0672 -0.4434
  425MOL0     H56076   0.022   2.245   7.469 -2.1383  1.1752 -0.0050
  425MOL0     H56077   0.121   2.388   7.431  0.2909  1.5785  2.2329
  425MOL0     H56078  -0.149   2.404   7.577 -1.3957  0.5478 -0.8528
  425MOL0     H56079  -0.026   2.517   7.608  1.5360 -0.5436 -1.0237
  425MOL0     H56080  -0.015   2.577   7.370  1.1697  0.4578  1.9844
  425MOL0     H56081  -0.173   2.594   7.451 -0.7554 -2.1982  2.1707
  425MOL0     H56082   0.281   2.186   8.312  0.9263  2.3222 -1.3415
  425MOL0     H56083   0.477   2.189   8.479  1.7246 -0.7571  0.0497
  425MOL0     H56084   1.084   1.988   8.436 -1.6374  2.4160 -0.8992
  425MOL0     H56085   1.238   1.973   8.631  0.1453 -0.9793 -0.2279
  425MOL0     H56086   2.373   2.297  10.061  0.7429  0.7020  1.8686
  425MOL0     H56087   2.534   2.250  10.248  0.2674 -1.6022 -0.8144
  425MOL0     H56088   2.835   2.433  10.541 -1.0332 -1.6018  1.8083
  425MOL0     H56089   2.921   2.361  10.748 -1.0860 -3.3159  1.6445
  425MOL0     H56090   3.293   2.132  10.699  1.9842  1.6989  0.4626
  425MOL0     H56091   3.201   1.994  10.766  1.3206 -0.2674  1.8995
  425MOL0     H56092   3.210   2.097  10.998  1.8584 -0.0471  0.1442
  425MOL0     H56093   3.375   2.077  10.948  0.3842  0.9176  0.2269
  425MOL0     H56094   3.228   2.351  10.930  0.1816  0.3073 -1.6145
  425MOL0     H56095   3.377   2.299  10.850  0.3683  2.4459  1.2020
  425MOL0     H56096   3.489   2.283  11.077  0.4307  0.7003 -0.1452
  425MOL0     H56097   3.393   2.440  11.053 -3.2930  0.6402  0.6575
  425MOL0     H56098   3.177   2.286  11.366  0.5889 -4.6327  0.3324
  425MOL0     H56099   3.118   2.036  10.552  0.5784  0.7376 -2.6817
  425MOL0     H56100   2.968   2.075  10.348  1.0176  2.0319 -2.0464
  426MOL0     O56101   3.046   6.692   4.138 -0.1227  0.5217  0.3259
  426MOL0     C56102   3.054   6.653   4.260 -0.2881  0.1795 -0.3736
  426MOL0     O56103   3.020   6.538   4.318  0.6270  0.4695  0.6940
  426MOL0     C56104   2.976   6.436   4.239 -0.4956  0.4627 -0.1562
  426MOL0     C56105   2.848   6.382   4.259 -0.5144 -0.9559 -0.0802
  426MOL0     C56106   2.795   6.277   4.183  0.4903 -0.3111 -0.0954
  426MOL0     C56107   2.876   6.226   4.082  0.3547 -0.1167  0.0274
  426MOL0     O56108   2.821   6.137   3.999 -0.5101 -1.2176 -0.3541
  426MOL0     C56109   2.778   6.011   4.047 -0.5204 -0.1403 -0.0480
  426MOL0     C56110   2.755   5.916   3.931  0.0509 -0.2695 -0.1393
  426MOL0     C56111   2.704   5.788   4.000  1.1187  0.3311  1.0561
  426MOL0     C56112   2.692   5.665   3.898  0.2602 -0.0527 -0.4689
  426MOL0     C56113   2.565   5.589   3.910  0.0910 -0.3753 -0.4484
  426MOL0     C56114   2.446   5.676   3.843  0.2560 -0.7103 -0.2795
  426MOL0     C56115   2.447   5.653   3.690  0.3846 -0.6813  0.0658
  426MOL0     C56116   2.352   5.749   3.611 -0.2434  0.1484  0.6311
  426MOL0     N56117   2.353   5.693   3.470 -1.3992  0.0414 -0.6693
  426MOL0     C56118   2.280   5.599   3.417  0.0418  1.0880  0.2639
  426MOL0     C56119   2.330   5.575   3.291 -0.8141  0.4371 -1.1015
  426MOL0     C56120   2.311   5.453   3.209 -0.0599 -0.5120  0.7937
  426MOL0     C56121   2.362   5.480   3.069 -0.8113 -0.7677 -0.0670
  426MOL0     C56122   2.317   5.370   2.969 -1.0814 -0.2766 -0.7713
  426MOL0     C56123   2.393   5.388   2.838 -0.3911  0.0978  0.4054
  426MOL0     O56124   2.316   5.299   2.757 -0.6448  0.0204 -0.0030
  426MOL0     C56125   2.373   5.284   2.627  0.8210 -0.2866 -1.2350
  426MOL0     C56126   2.304   5.188   2.555 -0.1882 -0.2205  0.1784
  426MOL0     C56127   2.345   5.160   2.424 -0.5259 -0.1453 -0.2721
  426MOL0     C56128   2.453   5.231   2.365  0.0014 -0.2530 -0.5107
  426MOL0     C56129   2.505   5.186   2.237  0.3229  0.5018  0.2423
  426MOL0     O56130   2.618   5.252   2.194 -0.1655 -0.0229 -0.1592
  426MOL0     C56131   2.704   5.180   2.111 -0.1110  0.9300  0.2909
  426MOL0     C56132   2.807   5.096   2.157  0.2259 -0.1982  0.7267
  426MOL0     C56133   2.910   5.054   2.070 -0.9814  0.0978 -0.8401
  426MOL0     C56134   2.913   5.086   1.935  0.0096 -0.7643 -0.1047
  426MOL0     O56135   3.007   5.055   1.842  0.3538 -0.0560  0.1880
  426MOL0     C56136   3.057   4.919   1.839  0.4531 -0.3953 -0.1372
  426MOL0     C56137   2.954   4.812   1.791 -0.1126 -0.5196 -0.3564
  426MOL0     C56138   3.031   4.671   1.769  0.1985 -0.3444  0.6210
  426MOL0     C56139   2.933   4.564   1.741  0.3162 -0.3188  0.2162
  426MOL0     C56140   3.005   4.428   1.713  0.1558  0.1043  0.6375
  426MOL0     C56141   2.992   4.372   1.569 -0.5785  0.2388  0.1344
  426MOL0     C56142   2.853   4.320   1.542 -0.0048  0.2136  0.0338
  426MOL0     C56143   2.840   4.277   1.396 -0.0926 -0.5323  0.5696
  426MOL0    Cl56144   2.972   4.158   1.364  0.5177  0.4365 -0.2027
  426MOL0     C56145   2.813   5.175   1.895 -0.6920  0.4728  0.2127
  426MOL0     C56146   2.711   5.222   1.976 -0.8755  0.4233 -1.0458
  426MOL0     O56147   2.434   5.110   2.168 -0.1264 -0.7203 -0.0654
  426MOL0     C56148   2.507   5.344   2.430 -1.2763 -0.2351 -1.6524
  426MOL0     C56149   2.470   5.372   2.566  0.8387  0.0756  0.9004
  426MOL0     N56150   2.429   5.675   3.270 -0.4951 -0.3414 -0.0519
  426MOL0     N56151   2.443   5.739   3.377  0.3662 -0.0532  0.2709
  426MOL0     C56152   3.001   6.282   4.046 -0.3486  0.4396  0.1126
  426MOL0     C56153   3.051   6.384   4.129 -0.8455  0.0317  0.5348
  426MOL0     C56154   3.131   6.750   4.349  0.7779 -0.2703 -0.5852
  426MOL0     C56155   3.190   6.709   4.475  0.6480  0.4050 -0.7080
  426MOL0     C56156   3.246   6.808   4.552  0.2713 -0.9047  0.2731
  426MOL0     C56157   3.232   6.943   4.518 -0.4220 -0.5420  0.9180
  426MOL0     O56158   3.286   7.034   4.605  0.0338  0.4274  0.1980
  426MOL0     C56159   3.235   7.170   4.612 -0.3615 -0.6687 -0.0945
  426MOL0     C56160   3.313   7.261   4.515 -0.2525  0.9055 -0.3691
  426MOL0     C56161   3.282   7.419   4.547  0.1917  0.3265  0.3676
  426MOL0     C56162   3.384   7.522   4.476 -1.2309 -0.1205  0.4084
  426MOL0     C56163   3.398   7.492   4.334  0.6421 -1.1740  0.8261
  426MOL0     C56164   3.396   7.476   4.216 -0.1751  0.3691 -0.2708
  426MOL0     C56165   3.163   6.985   4.400 -0.5863  0.2819 -0.0746
  426MOL0     C56166   3.127   6.883   4.316 -0.5352 -0.4852  0.2022
  426MOL0     H56167   2.777   6.419   4.332 -3.7859 -2.4035 -2.2652
  426MOL0     H56168   2.696   6.234   4.189  0.9984 -1.3667  1.0172
  426MOL0     H56169   2.696   6.032   4.117  1.9085  2.1497  2.3567
  426MOL0     H56170   2.858   5.976   4.112 -2.3507 -0.1712  2.3201
  426MOL0     H56171   2.839   5.882   3.869 -0.8276 -5.0648  0.8466
  426MOL0     H56172   2.674   5.956   3.870 -0.5735  1.8824  1.9219
  426MOL0     H56173   2.611   5.809   4.054 -0.7921 -1.4645 -1.3156
  426MOL0     H56174   2.779   5.751   4.071  1.8307  2.8189  1.6734
  426MOL0     H56175   2.708   5.695   3.793 -0.5089 -1.9376 -1.1649
  426MOL0     H56176   2.770   5.592   3.918  0.7823  0.3426 -1.0153
  426MOL0     H56177   2.536   5.569   4.014 -0.5163 -0.3567 -0.6148
  426MOL0     H56178   2.568   5.490   3.863  2.0472 -2.0612  2.8279
  426MOL0     H56179   2.463   5.782   3.863  1.0105 -0.3888 -2.3840
  426MOL0     H56180   2.350   5.658   3.892  0.2553  2.4348  1.0496
  426MOL0     H56181   2.548   5.665   3.652  1.5663 -1.8326  2.6329
  426MOL0     H56182   2.421   5.548   3.670 -2.1990 -0.5177  2.0463
  426MOL0     H56183   2.394   5.850   3.625 -1.3512  0.3130  3.4195
  426MOL0     H56184   2.253   5.744   3.656 -0.4673 -0.1430  0.1178
  426MOL0     H56185   2.212   5.532   3.468 -0.5042  1.5744  0.1889
  426MOL0     H56186   2.202   5.456   3.199  0.1120  2.5475 -1.7636
  426MOL0     H56187   2.347   5.366   3.264  0.5886 -1.7314 -1.4536
  426MOL0     H56188   2.471   5.481   3.078 -0.7644  1.5980 -0.2701
  426MOL0     H56189   2.328   5.575   3.027  2.3519 -0.4784 -2.3467
  426MOL0     H56190   2.343   5.274   3.015  0.7806  1.0809  1.2342
  426MOL0     H56191   2.209   5.368   2.953 -1.0036  0.0874 -1.3413
  426MOL0     H56192   2.498   5.368   2.859 -1.0896 -2.8121  1.4716
  426MOL0     H56193   2.397   5.495   2.814  0.8548  0.4877  2.1960
  426MOL0     H56194   2.217   5.147   2.606 -0.0357 -0.9149 -0.1028
  426MOL0     H56195   2.311   5.077   2.362  1.2836  0.8035 -2.7209
  426MOL0     H56196   2.801   5.042   2.251  0.3063 -2.4239 -0.4740
  426MOL0     H56197   2.974   4.979   2.116 -0.7920  2.3031  2.8083
  426MOL0     H56198   3.096   4.876   1.931  2.9411 -3.2281 -2.3560
  426MOL0     H56199   3.143   4.912   1.772  0.3326  1.6835 -0.5727
  426MOL0     H56200   2.886   4.842   1.711  0.3196  1.0075 -0.1755
  426MOL0     H56201   2.887   4.788   1.874  0.5479 -0.1461  0.2961
  426MOL0     H56202   3.095   4.641   1.852  0.3759 -0.4527  0.4446
  426MOL0     H56203   3.087   4.680   1.675 -0.2803 -2.1866  0.1107
  426MOL0     H56204   2.888   4.553   1.840  2.5680 -1.3201  1.1949
  426MOL0     H56205   2.862   4.597   1.664  0.7858 -1.4695 -0.7559
  426MOL0     H56206   2.976   4.349   1.782 -0.4233 -2.1918 -2.0410
  426MOL0     H56207   3.113   4.431   1.726  0.2479 -0.2123 -0.0073
  426MOL0     H56208   3.065   4.295   1.545  0.3595  0.9411  0.6741
  426MOL0     H56209   3.008   4.448   1.492  0.2417  0.7071  0.7467
  426MOL0     H56210   2.836   4.225   1.593  1.8362 -0.8385 -1.1798
  426MOL0     H56211   2.785   4.401   1.569 -0.4363  0.3710 -1.4054
  426MOL0     H56212   2.860   4.368   1.339 -0.5127 -1.9789 -2.0531
  426MOL0     H56213   2.741   4.241   1.365  0.8559 -3.0261  0.1830
  426MOL0     H56214   2.818   5.201   1.789  0.7137  0.0074  0.1439
  426MOL0     H56215   2.635   5.293   1.942  1.7675  2.4530 -3.1321
  426MOL0     H56216   2.592   5.400   2.392 -0.0852 -0.2808  0.7642
  426MOL0     H56217   2.521   5.459   2.606  2.6865 -0.8798  0.7158
  426MOL0     H56218   3.062   6.234   3.970 -0.4309 -4.4510  2.7656
  426MOL0     H56219   3.143   6.433   4.101 -1.1545  0.7053  0.6784
  426MOL0     H56220   3.179   6.606   4.507 -1.3843  0.6541 -0.4952
  426MOL0     H56221   3.299   6.775   4.641 -1.6938  0.6162  2.1132
  426MOL0     H56222   3.267   7.198   4.713 -0.4595 -0.0751 -0.2258
  426MOL0     H56223   3.127   7.179   4.601 -0.3317 -0.3451 -0.1434
  426MOL0     H56224   3.419   7.232   4.513  0.3060  2.7486  0.7538
  426MOL0     H56225   3.284   7.238   4.412  0.2065 -0.2405 -0.2633
  426MOL0     H56226   3.299   7.431   4.654 -0.0854  1.4252  0.3024
  426MOL0     H56227   3.179   7.444   4.521  0.0322  0.4107  1.0731
  426MOL0     H56228   3.345   7.624   4.470  0.0429  0.3112 -1.0828
  426MOL0     H56229   3.481   7.524   4.527 -0.1266  2.4124 -1.5847
  426MOL0     H56230   3.390   7.460   4.110  0.4997  1.7856 -0.5576
  426MOL0     H56231   3.155   7.086   4.361  0.8293  0.0256 -1.1059
  426MOL0     H56232   3.073   6.920   4.229  2.3226 -0.0822 -1.5344
  427MOL0     O56233   0.789   9.000   1.828 -0.3534 -0.6592  0.5053
  427MOL0     C56234   0.817   8.950   1.932 -1.0862 -0.0841  0.5350
  427MOL0     O56235   0.755   8.843   1.988 -0.1197  0.6939  0.5026
  427MOL0     C56236   0.652   8.783   1.917  0.1905  0.1398  0.1575
  427MOL0     C56237   0.687   8.719   1.797  0.3793  0.2635 -0.1071
  427MOL0     C56238   0.593   8.658   1.728  1.0878  0.1015 -0.0812
  427MOL0     C56239   0.450   8.658   1.762 -0.2880  0.3305 -0.3921
  427MOL0     O56240   0.355   8.594   1.695 -0.0056  0.6951  0.8964
  427MOL0     C56241   0.389   8.503   1.592  0.4529 -0.4840 -0.6201
  427MOL0     C56242   0.267   8.423   1.553  0.6619  0.2014 -0.1231
  427MOL0     C56243   0.317   8.294   1.478  0.1821 -0.4021  0.6958
  427MOL0     C56244   0.200   8.197   1.468 -0.6640 -0.0785  0.6185
  427MOL0     C56245   0.224   8.060   1.422  0.0179 -0.2691  0.7078
  427MOL0     C56246   0.262   8.054   1.277  0.3928 -0.0581 -0.4691
  427MOL0     C56247   0.147   8.078   1.182  0.0002 -0.1537 -0.5996
  427MOL0     C56248   0.022   7.980   1.197 -0.7329 -0.7090 -0.4423
  427MOL0     N56249   0.071   7.844   1.182  0.1975 -0.3678  0.1336
  427MOL0     C56250   0.141   7.791   1.083  0.1112 -0.2811  0.7736
  427MOL0     C56251   0.177   7.669   1.127  1.0570 -0.7509  1.3755
  427MOL0     C56252   0.271   7.579   1.040  0.2816  0.9383 -0.3733
  427MOL0     C56253   0.393   7.661   0.995 -0.8714 -0.0127  0.4305
  427MOL0     C56254   0.500   7.568   0.933  0.6117 -0.6856  0.1318
  427MOL0     C56255   0.634   7.638   0.910  0.6671 -0.5609  0.2467
  427MOL0     O56256   0.745   7.555   0.856 -0.1339  0.9320 -0.3912
  427MOL0     C56257   0.769   7.560   0.722  0.7330 -1.3193 -0.3316
  427MOL0     C56258   0.885   7.628   0.679 -0.4724  0.1371 -0.3465
  427MOL0     C56259   0.922   7.630   0.546  0.6235  0.3960  0.6436
  427MOL0     C56260   0.834   7.573   0.453  0.4735  0.3013  0.2818
  427MOL0     C56261   0.875   7.567   0.310  0.4158 -0.0769  0.1804
  427MOL0     O56262   0.816   7.473   0.235  0.0108 -0.2828  0.1159
  427MOL0     C56263   0.865   7.452   0.117 -0.2623 -1.0994 -0.2961
  427MOL0     C56264   0.909   7.329   0.098 -1.4361  0.5978  0.2856
  427MOL0     C56265   0.955   7.279  -0.020 -0.5854 -0.0145  0.2546
  427MOL0     C56266   0.970   7.368  -0.125  0.0218 -0.7840  0.1358
  427MOL0     O56267   1.028   7.343  -0.242  0.0331 -0.0409  0.8360
  427MOL0     C56268   1.122   7.236  -0.243 -0.3908  0.3069  0.0701
  427MOL0     C56269   1.221   7.250  -0.355  0.3049 -0.9023 -0.5936
  427MOL0     C56270   1.321   7.374  -0.355  0.0066 -0.1977  0.2425
  427MOL0     C56271   1.439   7.350  -0.256  0.2472 -0.3095 -0.5748
  427MOL0     C56272   1.529   7.476  -0.259 -0.0274 -0.0788  0.1063
  427MOL0     C56273   1.639   7.458  -0.153  0.3325 -0.5261  0.2267
  427MOL0     C56274   1.735   7.574  -0.151 -0.0261 -0.3406  0.1438
  427MOL0     C56275   1.857   7.543  -0.067 -0.0264  0.1490 -0.1994
  427MOL0    Cl56276   1.964   7.682  -0.051 -0.5662 -0.2147 -0.7114
  427MOL0     C56277   0.918   7.499  -0.102  0.2322 -0.1608  0.3552
  427MOL0     C56278   0.850   7.545   0.009 -0.1042  0.9742  0.2252
  427MOL0     O56279   0.953   7.661   0.271 -0.4885  0.1314  0.5799
  427MOL0     C56280   0.715   7.497   0.492 -0.2078 -0.2620 -0.9221
  427MOL0     C56281   0.684   7.499   0.633 -0.0606 -0.3494  0.3023
  427MOL0     N56282   0.131   7.650   1.255 -0.4537 -0.1151 -0.4832
  427MOL0     N56283   0.066   7.752   1.285 -0.4192 -0.2794  0.2358
  427MOL0     C56284   0.415   8.728   1.883 -0.7251 -0.0152  0.5988
  427MOL0     C56285   0.519   8.788   1.957 -0.1601 -0.7041  0.0149
  427MOL0     C56286   0.933   9.010   2.003  0.2626 -0.2546  0.3785
  427MOL0     C56287   0.962   8.969   2.131  0.0890 -0.5633  0.5763
  427MOL0     C56288   1.071   9.016   2.201 -0.3371 -0.6920  0.9699
  427MOL0     C56289   1.156   9.100   2.128 -0.0096 -0.9406 -0.3246
  427MOL0     O56290   1.264   9.157   2.179 -0.3244  0.3692 -0.7194
  427MOL0     C56291   1.248   9.293   2.220  0.1283  0.2216 -0.0792
  427MOL0     C56292   1.320   9.321   2.351 -0.8230  0.1459  0.1309
  427MOL0     C56293   1.470   9.278   2.346  0.0595 -0.1015 -0.2464
  427MOL0     C56294   1.559   9.389   2.273  0.5333 -0.8779 -0.8446
  427MOL0     C56295   1.571   9.502   2.363 -0.9899 -0.2514  0.0333
  427MOL0     C56296   1.577   9.601   2.435  0.6600  0.0304 -0.3678
  427MOL0     C56297   1.135   9.137   1.997  0.0402 -0.6077  0.2468
  427MOL0     C56298   1.028   9.085   1.926  0.1270  0.4233  0.1446
  427MOL0     H56299   0.785   8.707   1.752  0.4805  0.4110  0.0719
  427MOL0     H56300   0.610   8.618   1.629  3.1353 -0.8757  0.5988
  427MOL0     H56301   0.458   8.437   1.646 -1.1676 -0.8156  1.1276
  427MOL0     H56302   0.436   8.552   1.506  1.1029 -0.2537 -0.1383
  427MOL0     H56303   0.211   8.482   1.480 -1.3058  0.3787  1.4385
  427MOL0     H56304   0.207   8.404   1.642 -1.2908  0.1646 -1.3917
  427MOL0     H56305   0.398   8.241   1.528 -0.7471 -1.8996  0.6721
  427MOL0     H56306   0.346   8.325   1.377 -1.8355  2.6585  0.9427
  427MOL0     H56307   0.181   8.189   1.576  3.1457  0.8420  1.4865
  427MOL0     H56308   0.114   8.248   1.423  0.6525  2.9647  1.3769
  427MOL0     H56309   0.134   7.999   1.440  1.0055 -1.8861  0.3391
  427MOL0     H56310   0.309   8.018   1.477 -0.5169 -0.2597  1.5615
  427MOL0     H56311   0.314   7.958   1.261  1.0169 -0.5185  3.2023
  427MOL0     H56312   0.346   8.122   1.258 -0.4603  0.7952 -1.2366
  427MOL0     H56313   0.103   8.178   1.170 -0.0763 -0.3580 -2.3035
  427MOL0     H56314   0.188   8.059   1.083  0.3941 -0.6849 -0.3358
  427MOL0     H56315  -0.058   8.010   1.130 -0.8210  1.8526  0.6933
  427MOL0     H56316  -0.023   7.980   1.297  3.4018 -1.3760  1.6682
  427MOL0     H56317   0.171   7.835   0.989 -0.6804 -0.2098  0.5482
  427MOL0     H56318   0.202   7.528   0.971 -1.7552  1.5537  1.1066
  427MOL0     H56319   0.311   7.495   1.096  0.2806 -1.8582 -4.1849
  427MOL0     H56320   0.433   7.717   1.080  0.2189  0.1478 -0.1640
  427MOL0     H56321   0.368   7.732   0.915  0.0758 -0.2516 -0.0992
  427MOL0     H56322   0.521   7.485   1.001 -2.7780  0.2263  2.5160
  427MOL0     H56323   0.460   7.541   0.835 -1.7721 -0.7643  1.0738
  427MOL0     H56324   0.671   7.675   1.006  0.8521 -2.4324  0.9404
  427MOL0     H56325   0.607   7.720   0.844  0.8132 -1.1037 -0.5016
  427MOL0     H56326   0.948   7.666   0.759  2.1632 -3.3933 -0.4681
  427MOL0     H56327   1.012   7.678   0.508 -1.2765  2.4471 -1.6835
  427MOL0     H56328   0.918   7.266   0.186 -2.9194  2.1890  1.6602
  427MOL0     H56329   1.002   7.181  -0.024  0.5476  0.4854  0.9131
  427MOL0     H56330   1.071   7.141  -0.254 -1.8812  0.9025  1.3806
  427MOL0     H56331   1.184   7.235  -0.152 -0.4367 -2.9849  0.1727
  427MOL0     H56332   1.159   7.255  -0.445  0.0037  1.4573 -0.3170
  427MOL0     H56333   1.276   7.158  -0.375  2.1622  0.0175  0.0241
  427MOL0     H56334   1.262   7.459  -0.319 -1.6533 -2.2899  2.7736
  427MOL0     H56335   1.367   7.384  -0.454 -0.6945 -0.2876 -0.0964
  427MOL0     H56336   1.396   7.345  -0.155  0.5698  2.1516 -0.2446
  427MOL0     H56337   1.500   7.263  -0.280  1.2199  0.4327 -0.8670
  427MOL0     H56338   1.464   7.562  -0.238 -1.0509 -0.5523 -0.9904
  427MOL0     H56339   1.579   7.482  -0.356  2.5390 -2.7063  1.0927
  427MOL0     H56340   1.694   7.365  -0.169 -1.5801 -1.4655 -1.1597
  427MOL0     H56341   1.594   7.451  -0.053 -0.4089  2.7769  0.2243
  427MOL0     H56342   1.762   7.607  -0.251 -2.0108  1.5747  0.1604
  427MOL0     H56343   1.675   7.657  -0.111  0.7068  0.4615 -0.3663
  427MOL0     H56344   1.908   7.468  -0.128  3.2938  1.9043  0.1784
  427MOL0     H56345   1.822   7.492   0.023 -1.1690 -2.8974 -2.2334
  427MOL0     H56346   0.931   7.572  -0.181  1.7239 -2.0413 -1.2463
  427MOL0     H56347   0.807   7.645   0.015 -2.1908  0.1948 -0.8794
  427MOL0     H56348   0.648   7.446   0.424  2.0189  0.9740 -4.3575
  427MOL0     H56349   0.603   7.440   0.674  0.9501  1.3605  5.3725
  427MOL0     H56350   0.310   8.725   1.908 -1.0088  0.5341 -0.5119
  427MOL0     H56351   0.491   8.834   2.052 -1.5572  2.3751 -1.7213
  427MOL0     H56352   0.893   8.893   2.166  1.2295 -2.0421 -0.2253
  427MOL0     H56353   1.101   8.987   2.301 -3.0381 -1.8205  1.5499
  427MOL0     H56354   1.146   9.323   2.247  0.4598  0.6339  0.7427
  427MOL0     H56355   1.288   9.360   2.143 -0.7978  0.2090 -0.5951
  427MOL0     H56356   1.305   9.426   2.377 -1.1957 -0.3043  1.8667
  427MOL0     H56357   1.270   9.253   2.421 -1.2634  1.8515  1.5568
  427MOL0     H56358   1.474   9.179   2.300 -2.0701 -2.3368  3.8010
  427MOL0     H56359   1.516   9.267   2.445  3.7394  3.0031 -1.3824
  427MOL0     H56360   1.653   9.359   2.227  2.2283 -2.3822  3.1626
  427MOL0     H56361   1.502   9.434   2.191 -1.6482 -0.5012  0.7717
  427MOL0     H56362   1.582   9.693   2.489  0.1158  0.8654 -1.6732
  427MOL0     H56363   1.203   9.211   1.955  0.4804  1.5878  4.2861
  427MOL0     H56364   1.008   9.103   1.821 -0.1482  1.4707  0.3599
  428MOL0     O56365   6.297   8.725   2.541  0.1500  0.0608  0.0876
  428MOL0     C56366   6.299   8.609   2.514  0.2896 -0.2173  0.3009
  428MOL0     O56367   6.188   8.525   2.508  0.1070 -0.1616  0.1751
  428MOL0     C56368   6.063   8.578   2.528  0.2574  0.1193  0.6451
  428MOL0     C56369   6.027   8.636   2.645 -0.4288 -0.0565 -1.4630
  428MOL0     C56370   5.895   8.682   2.672 -0.8466  0.0075 -0.3572
  428MOL0     C56371   5.781   8.665   2.588 -0.3463 -0.4170 -0.1473
  428MOL0     O56372   5.647   8.692   2.615 -0.0150 -0.9928  0.8206
  428MOL0     C56373   5.599   8.633   2.728  0.4414 -0.2451 -0.9685
  428MOL0     C56374   5.442   8.626   2.719  0.3842 -0.2755 -0.7217
  428MOL0     C56375   5.395   8.531   2.608 -0.3105 -0.7648 -0.1773
  428MOL0     C56376   5.250   8.573   2.577  0.8578 -0.1602  0.6255
  428MOL0     C56377   5.146   8.496   2.668 -0.6658 -0.1043  0.9433
  428MOL0     C56378   5.009   8.571   2.679  0.0816 -0.2104 -0.1336
  428MOL0     C56379   4.995   8.628   2.825 -0.1806  0.5160 -0.7157
  428MOL0     C56380   4.858   8.697   2.840  0.3203  0.9945  0.1068
  428MOL0     N56381   4.849   8.795   2.948  0.7413  0.2691 -0.5349
  428MOL0     C56382   4.751   8.774   3.045 -0.8597 -0.5297  1.0341
  428MOL0     C56383   4.750   8.894   3.107  1.2603  0.5378 -0.0279
  428MOL0     C56384   4.665   8.929   3.229 -0.2441  0.0976 -0.4365
  428MOL0     C56385   4.751   8.993   3.338 -0.0919 -0.6125  0.1209
  428MOL0     C56386   4.681   8.955   3.465 -0.6436  0.2785  0.8806
  428MOL0     C56387   4.738   9.034   3.583  0.3450  0.2954 -0.4398
  428MOL0     O56388   4.724   9.176   3.556 -1.1815 -1.4697  0.0221
  428MOL0     C56389   4.599   9.232   3.566  0.1907  0.5371  0.0691
  428MOL0     C56390   4.525   9.282   3.456 -0.7593  0.2319  0.1232
  428MOL0     C56391   4.400   9.345   3.471  0.1378 -0.3663  1.2858
  428MOL0     C56392   4.342   9.344   3.600  0.6910  0.1797  0.8442
  428MOL0     C56393   4.211   9.422   3.609  0.2248  0.7680  0.1016
  428MOL0     O56394   4.167   9.493   3.498  0.7946 -0.0608 -0.2673
  428MOL0     C56395   4.060   9.580   3.521 -0.3473  0.1805 -0.1652
  428MOL0     C56396   3.935   9.533   3.562 -0.8054  0.1160 -0.0454
  428MOL0     C56397   3.822   9.617   3.583  0.2498  0.1492 -0.5484
  428MOL0     C56398   3.835   9.758   3.584 -0.0877  1.4106 -0.0789
  428MOL0     O56399   3.725   9.835   3.593  0.2888 -0.0169  0.4707
  428MOL0     C56400   3.636   9.791   3.703 -0.5561 -0.2662  0.5532
  428MOL0     C56401   3.492   9.846   3.675  0.7391 -0.0332 -0.5678
  428MOL0     C56402   3.429   9.796   3.534  0.3031 -0.3464  1.2326
  428MOL0     C56403   3.304   9.868   3.481 -0.4788  0.4740 -0.0562
  428MOL0     C56404   3.236   9.807   3.361 -0.1362 -0.4062 -0.2616
  428MOL0     C56405   3.096   9.859   3.342 -0.2075 -0.2291  0.9084
  428MOL0     C56406   3.025   9.775   3.232 -0.4946 -0.5457 -0.9863
  428MOL0     C56407   3.085   9.769   3.095  1.1285  0.1209  0.1693
  428MOL0    Cl56408   3.009   9.656   2.985 -0.3958  0.4692 -0.5559
  428MOL0     C56409   3.967   9.799   3.556  0.3386 -0.5731  0.5200
  428MOL0     C56410   4.073   9.718   3.519 -0.6097 -0.1364  1.8507
  428MOL0     O56411   4.146   9.400   3.713  0.0296 -0.2718  0.0791
  428MOL0     C56412   4.413   9.291   3.702  0.0361 -0.2890 -0.3910
  428MOL0     C56413   4.539   9.239   3.692  0.5273 -0.4416 -0.0106
  428MOL0     N56414   4.825   8.985   3.038  0.3321  0.7665 -0.3605
  428MOL0     N56415   4.891   8.925   2.946 -1.3529  0.3012 -0.0144
  428MOL0     C56416   5.828   8.621   2.461 -0.3825 -0.3202  0.0000
  428MOL0     C56417   5.955   8.573   2.427  0.3464  0.3836  0.3715
  428MOL0     C56418   6.428   8.551   2.488  0.1421 -0.0029  0.5997
  428MOL0     C56419   6.545   8.617   2.531  0.4268  0.0645  0.4785
  428MOL0     C56420   6.669   8.557   2.527 -0.6274  0.1163  0.0012
  428MOL0     C56421   6.685   8.425   2.482 -0.0950 -0.2721 -0.6401
  428MOL0     O56422   6.795   8.349   2.507 -0.1051  0.8160  0.1589
  428MOL0     C56423   6.883   8.365   2.620 -0.6019 -0.1073 -0.0999
  428MOL0     C56424   6.946   8.224   2.653 -0.1199 -0.1655  0.2812
  428MOL0     C56425   7.065   8.229   2.753  0.5461  0.1840  0.5200
  428MOL0     C56426   7.096   8.095   2.804 -0.0112  0.0085 -0.5501
  428MOL0     C56427   7.202   8.092   2.905  1.0869  0.0148 -0.5227
  428MOL0     C56428   7.283   8.088   2.992  0.8571  0.8434  0.3026
  428MOL0     C56429   6.576   8.358   2.431 -0.7310 -0.0386 -1.6525
  428MOL0     C56430   6.454   8.423   2.421 -0.0919  0.1647 -0.5136
  428MOL0     H56431   6.111   8.639   2.714 -0.4269 -1.4603 -1.3813
  428MOL0     H56432   5.875   8.724   2.770 -0.7111 -1.9722  0.5775
  428MOL0     H56433   5.637   8.681   2.819  0.1395 -2.1345  0.2212
  428MOL0     H56434   5.631   8.529   2.742  3.1431  0.7694  1.4650
  428MOL0     H56435   5.426   8.732   2.699  2.4607  0.3831  0.7283
  428MOL0     H56436   5.393   8.606   2.815 -1.5650  1.3169 -1.3428
  428MOL0     H56437   5.413   8.433   2.653  1.5472  1.4023  4.3821
  428MOL0     H56438   5.457   8.532   2.517 -1.6239 -0.6989 -1.1031
  428MOL0     H56439   5.227   8.679   2.592 -1.0335 -0.2996 -0.8986
  428MOL0     H56440   5.219   8.540   2.477  2.5311  0.1347 -0.0185
  428MOL0     H56441   5.185   8.489   2.770 -3.0676 -0.2371  1.9194
  428MOL0     H56442   5.133   8.399   2.620 -3.1289  0.9876 -0.7561
  428MOL0     H56443   4.923   8.507   2.659  1.5349 -2.3479  0.1578
  428MOL0     H56444   4.997   8.651   2.606 -0.5656 -2.0294 -2.1112
  428MOL0     H56445   5.003   8.540   2.890 -1.6097  1.2004  0.4605
  428MOL0     H56446   5.071   8.698   2.860 -0.5797 -0.0567  1.4805
  428MOL0     H56447   4.785   8.617   2.851  1.9522 -0.8758 -1.7576
  428MOL0     H56448   4.831   8.743   2.744  0.8246  2.1022  0.4738
  428MOL0     H56449   4.701   8.683   3.076 -1.6778 -0.7141 -0.7034
  428MOL0     H56450   4.616   8.838   3.266 -0.2666  1.9845  5.3049
  428MOL0     H56451   4.592   9.005   3.201  1.7402  2.4077  0.3454
  428MOL0     H56452   4.753   9.101   3.317 -0.1936 -0.4202  1.0527
  428MOL0     H56453   4.850   8.946   3.340  1.0190  1.5204 -1.1242
  428MOL0     H56454   4.574   8.976   3.455 -0.8960 -1.3621 -0.1800
  428MOL0     H56455   4.688   8.849   3.487 -2.5216  0.4364  2.4490
  428MOL0     H56456   4.846   9.020   3.588  0.7932  3.2481 -0.1974
  428MOL0     H56457   4.684   8.994   3.669  0.9370  0.8731  0.2098
  428MOL0     H56458   4.557   9.271   3.353 -0.1689 -1.7710  0.4581
  428MOL0     H56459   4.351   9.397   3.391  2.5049  0.6468  0.4074
  428MOL0     H56460   3.924   9.427   3.584 -0.8396  0.4837  1.8025
  428MOL0     H56461   3.722   9.574   3.592 -0.6945  1.8447 -2.2233
  428MOL0     H56462   3.669   9.836   3.797  3.4623  1.6379 -1.5259
  428MOL0     H56463   3.624   9.684   3.722 -1.8920  0.1543  2.4544
  428MOL0     H56464   3.492   9.955   3.689  0.5810 -0.1533  0.4691
  428MOL0     H56465   3.430   9.809   3.757 -0.3096  3.2128  0.2648
  428MOL0     H56466   3.406   9.690   3.542  3.9378 -1.7700 -2.9658
  428MOL0     H56467   3.502   9.793   3.453 -1.0255 -3.0314  0.0386
  428MOL0     H56468   3.230   9.873   3.562 -0.4403  0.1724 -0.0022
  428MOL0     H56469   3.327   9.970   3.448  0.0208  0.6874  0.9414
  428MOL0     H56470   3.239   9.698   3.370 -1.3067 -0.6507 -2.2507
  428MOL0     H56471   3.291   9.851   3.277 -1.5760  2.1964  0.0379
  428MOL0     H56472   3.109   9.960   3.304 -1.1600  0.1013  1.4219
  428MOL0     H56473   3.035   9.857   3.433  0.1224 -3.0044  1.1563
  428MOL0     H56474   3.018   9.675   3.276 -2.0112  0.1786  0.5712
  428MOL0     H56475   2.923   9.812   3.217  0.3881  3.8667  1.8681
  428MOL0     H56476   3.191   9.744   3.105  0.5882 -1.6602  2.2288
  428MOL0     H56477   3.083   9.861   3.035  0.7588 -0.0588 -0.0986
  428MOL0     H56478   4.001   9.901   3.567 -2.1816  0.7319 -2.5283
  428MOL0     H56479   4.166   9.766   3.490 -0.7789  0.2210  1.8948
  428MOL0     H56480   4.378   9.299   3.804  0.6022  3.0509 -0.3294
  428MOL0     H56481   4.577   9.203   3.787 -1.2294 -0.8304  0.5708
  428MOL0     H56482   5.753   8.609   2.384  0.2118 -1.7420 -0.3870
  428MOL0     H56483   5.972   8.543   2.324 -3.3873 -0.2809 -0.2057
  428MOL0     H56484   6.540   8.710   2.586 -1.0078 -0.8664  2.0399
  428MOL0     H56485   6.755   8.614   2.562 -0.7552  1.3765 -1.6583
  428MOL0     H56486   6.823   8.401   2.704  0.3225 -0.3066  0.6659
  428MOL0     H56487   6.968   8.431   2.602  1.4981 -1.6306  3.0833
  428MOL0     H56488   6.863   8.162   2.688  0.9931 -1.5453  0.5691
  428MOL0     H56489   6.968   8.191   2.551  1.3400  0.9780  0.1819
  428MOL0     H56490   7.033   8.297   2.832 -0.0304  1.8697 -1.0802
  428MOL0     H56491   7.160   8.252   2.704  0.7279 -1.7600 -0.1484
  428MOL0     H56492   7.007   8.051   2.850 -0.1337  0.3964 -0.4130
  428MOL0     H56493   7.129   8.021   2.730  1.7889 -1.4620  1.6163
  428MOL0     H56494   7.364   8.076   3.062  0.2598  2.4182  1.3158
  428MOL0     H56495   6.594   8.260   2.388 -4.1945 -1.7162  0.2537
  428MOL0     H56496   6.364   8.379   2.378  1.1950 -0.6908 -2.4571
  429MOL0     O56497   7.169   2.392   7.177  0.1723  0.2259  0.1142
  429MOL0     C56498   7.187   2.266   7.166  0.2109  0.2525 -0.3492
  429MOL0     O56499   7.099   2.167   7.208 -0.0429 -0.0279  0.7661
  429MOL0     C56500   6.976   2.203   7.248 -0.5948 -0.7539  0.5483
  429MOL0     C56501   6.925   2.137   7.357 -0.0307  0.2190 -0.7879
  429MOL0     C56502   6.799   2.170   7.407 -0.1849  0.0952 -0.0259
  429MOL0     C56503   6.714   2.263   7.347 -0.4068 -0.5162 -0.0565
  429MOL0     O56504   6.596   2.308   7.392 -0.8963 -0.6169 -0.2119
  429MOL0     C56505   6.604   2.344   7.528  0.4149 -0.7687 -0.2902
  429MOL0     C56506   6.464   2.408   7.559 -1.3126  0.6205  0.6387
  429MOL0     C56507   6.456   2.438   7.709  0.2485  0.3212 -0.4345
  429MOL0     C56508   6.459   2.319   7.800  0.0168 -0.0746 -0.2065
  429MOL0     C56509   6.366   2.205   7.782 -0.4382 -0.0751 -0.9694
  429MOL0     C56510   6.376   2.110   7.900  0.5463 -0.0130  0.1858
  429MOL0     C56511   6.306   1.971   7.870  0.2217 -0.7225  0.2597
  429MOL0     C56512   6.333   1.866   7.986  0.6637 -0.4404 -0.0815
  429MOL0     N56513   6.229   1.864   8.092  0.3169  0.4406 -0.8383
  429MOL0     C56514   6.210   1.974   8.173 -1.1320 -0.6614  0.5862
  429MOL0     C56515   6.099   1.941   8.244 -0.5779  0.3451 -0.5869
  429MOL0     C56516   6.042   2.018   8.360 -0.4078  0.0429  0.5849
  429MOL0     C56517   6.110   2.013   8.494  0.9368 -0.8088  0.1885
  429MOL0     C56518   6.196   1.882   8.516 -0.5466  0.7078  0.3032
  429MOL0     C56519   6.241   1.873   8.664  0.0147 -0.6000  0.4999
  429MOL0     O56520   6.300   1.749   8.699 -0.0941 -0.5865  0.4228
  429MOL0     C56521   6.424   1.714   8.666 -0.8201  0.0298  0.1016
  429MOL0     C56522   6.515   1.799   8.599  0.1526 -0.2089 -1.0338
  429MOL0     C56523   6.640   1.753   8.577  0.2268  0.2828  0.5021
  429MOL0     C56524   6.682   1.625   8.613 -0.1093  0.2244 -0.1869
  429MOL0     C56525   6.807   1.566   8.563  0.8465 -0.4656 -0.5756
  429MOL0     O56526   6.860   1.456   8.621 -0.2492  0.6918  0.5830
  429MOL0     C56527   6.994   1.450   8.583 -0.0291 -0.3228 -1.4985
  429MOL0     C56528   7.094   1.478   8.677 -0.1767  0.5436 -0.2595
  429MOL0     C56529   7.222   1.443   8.656  0.4075 -0.0717  0.5747
  429MOL0     C56530   7.266   1.394   8.528  0.4533  0.1843  0.7313
  429MOL0     O56531   7.394   1.386   8.477  1.2320 -0.3670 -1.1346
  429MOL0     C56532   7.502   1.476   8.537  0.1122 -0.0203 -0.4188
  429MOL0     C56533   7.602   1.504   8.422  0.3220  0.6706 -0.2346
  429MOL0     C56534   7.736   1.548   8.474 -0.3570 -0.5447  0.0416
  429MOL0     C56535   7.819   1.444   8.547  0.1819  0.0335 -0.2028
  429MOL0     C56536   7.958   1.482   8.575 -1.0988 -0.1432 -0.4403
  429MOL0     C56537   7.978   1.605   8.658  0.0304 -0.2390 -0.3062
  429MOL0     C56538   7.975   1.588   8.815 -0.1496 -0.3193  0.6607
  429MOL0     C56539   8.044   1.710   8.879  0.1977  0.1223  0.3744
  429MOL0    Cl56540   7.927   1.845   8.859  0.1454  0.0279 -0.5011
  429MOL0     C56541   7.169   1.371   8.432 -0.0348  0.6282 -1.3843
  429MOL0     C56542   7.038   1.398   8.459 -0.0109 -0.7453  0.3940
  429MOL0     O56543   6.846   1.617   8.468 -0.2766 -0.8794  0.3044
  429MOL0     C56544   6.597   1.546   8.683  0.0818 -0.0226 -0.1077
  429MOL0     C56545   6.469   1.589   8.714 -0.7132  0.3439 -0.1670
  429MOL0     N56546   6.056   1.818   8.207 -0.6754  0.7036  0.8968
  429MOL0     N56547   6.134   1.773   8.107 -0.0592 -0.8538 -1.1838
  429MOL0     C56548   6.762   2.317   7.228  0.2337  1.0377 -0.4409
  429MOL0     C56549   6.885   2.291   7.172  0.5426 -0.2295 -0.7264
  429MOL0     C56550   7.317   2.224   7.134 -0.4860 -0.4878  1.3670
  429MOL0     C56551   7.432   2.305   7.128 -0.4597 -0.3311  0.5803
  429MOL0     C56552   7.551   2.246   7.082  0.2249 -0.3146  0.6819
  429MOL0     C56553   7.566   2.107   7.050  0.3222  0.3157 -0.2853
  429MOL0     O56554   7.668   2.039   6.998 -0.5086  0.4253  0.0354
  429MOL0     C56555   7.802   2.086   7.001 -0.1277 -0.1773 -1.0578
  429MOL0     C56556   7.898   1.977   6.951 -0.8015 -0.0879 -0.0697
  429MOL0     C56557   7.919   1.856   7.062  1.0076  0.0576  0.8592
  429MOL0     C56558   8.023   1.753   7.002  0.4734 -0.1459  0.1957
  429MOL0     C56559   8.028   1.626   7.095  0.0217  0.4461  0.3753
  429MOL0     C56560   7.997   1.537   7.171 -0.5936  1.0712  0.1933
  429MOL0     C56561   7.448   2.033   7.046 -0.1197  0.3163  0.2166
  429MOL0     C56562   7.324   2.092   7.086 -0.3591 -0.2625  0.3339
  429MOL0     H56563   6.987   2.066   7.409 -1.4337  0.0669  0.7542
  429MOL0     H56564   6.775   2.122   7.501  1.1432  0.8427  0.7198
  429MOL0     H56565   6.675   2.424   7.551 -1.4339  0.4902  1.3633
  429MOL0     H56566   6.605   2.255   7.592 -2.1506 -3.2466 -3.3166
  429MOL0     H56567   6.385   2.340   7.526 -0.3114  0.5882 -1.8699
  429MOL0     H56568   6.450   2.497   7.497 -1.9856 -1.0658 -1.7617
  429MOL0     H56569   6.365   2.498   7.719  0.3821  0.3410  0.8145
  429MOL0     H56570   6.543   2.494   7.745  0.7487  0.4485 -1.7944
  429MOL0     H56571   6.559   2.277   7.787 -0.2517 -0.4258 -1.1713
  429MOL0     H56572   6.448   2.350   7.905  1.0584  0.8153 -0.3366
  429MOL0     H56573   6.378   2.150   7.688 -0.7095  0.9196 -1.6079
  429MOL0     H56574   6.266   2.249   7.788 -1.2535 -2.0274  0.8504
  429MOL0     H56575   6.343   2.160   7.992  0.3559  0.3296 -0.0712
  429MOL0     H56576   6.478   2.087   7.933  1.6742  2.3493 -1.4360
  429MOL0     H56577   6.197   1.969   7.859  0.1596  0.1352  0.6226
  429MOL0     H56578   6.337   1.918   7.780 -1.8995 -1.7442  0.0593
  429MOL0     H56579   6.430   1.881   8.033 -0.3852 -1.0526  2.4807
  429MOL0     H56580   6.327   1.764   7.946  1.3779 -0.0532 -1.2199
  429MOL0     H56581   6.269   2.062   8.197  2.7418 -2.9490  0.3373
  429MOL0     H56582   5.936   1.992   8.369 -0.7446  0.2004 -2.1836
  429MOL0     H56583   6.048   2.121   8.324  2.2343 -0.0192  0.6556
  429MOL0     H56584   6.023   2.020   8.561 -1.3315  1.2389 -2.6972
  429MOL0     H56585   6.166   2.104   8.517 -1.8591  1.2601 -0.6462
  429MOL0     H56586   6.130   1.797   8.493 -1.1649  1.0923  0.6425
  429MOL0     H56587   6.285   1.882   8.452 -1.4392 -0.5647 -1.0422
  429MOL0     H56588   6.159   1.913   8.725  0.9352 -2.0013  2.8122
  429MOL0     H56589   6.317   1.951   8.675  2.0680 -2.5905  1.3304
  429MOL0     H56590   6.494   1.896   8.554  1.1321 -0.5738 -2.3141
  429MOL0     H56591   6.709   1.816   8.524  1.9497 -0.6974  1.4965
  429MOL0     H56592   7.070   1.522   8.772 -0.4008  1.3364 -0.6769
  429MOL0     H56593   7.285   1.457   8.743 -2.2351  3.6721  2.1461
  429MOL0     H56594   7.563   1.425   8.613 -0.6531  0.1217  0.3016
  429MOL0     H56595   7.465   1.568   8.583  0.9531  0.8569 -1.4436
  429MOL0     H56596   7.557   1.582   8.360  4.3810  3.1260 -0.4276
  429MOL0     H56597   7.610   1.406   8.375 -0.4990  0.5149 -0.0663
  429MOL0     H56598   7.722   1.638   8.534 -0.3389 -0.1671 -0.5180
  429MOL0     H56599   7.787   1.573   8.381  1.7454 -0.3597  1.2031
  429MOL0     H56600   7.763   1.432   8.641 -3.2289  2.2249 -1.7563
  429MOL0     H56601   7.824   1.351   8.490  0.1883  0.8135 -1.5059
  429MOL0     H56602   8.002   1.511   8.479  0.2861 -1.4519 -0.2428
  429MOL0     H56603   8.021   1.399   8.607  3.1168  3.1821  0.9280
  429MOL0     H56604   7.912   1.688   8.633 -0.0120  0.0556  0.7368
  429MOL0     H56605   8.076   1.644   8.630 -0.2988  0.7871 -0.0744
  429MOL0     H56606   7.873   1.565   8.847 -0.6219  1.8511  0.8183
  429MOL0     H56607   8.042   1.510   8.855 -1.1740  0.5216  4.4733
  429MOL0     H56608   8.134   1.735   8.822 -0.8590  1.8795 -0.5974
  429MOL0     H56609   8.067   1.691   8.985  0.4946  1.8831  0.6564
  429MOL0     H56610   7.201   1.328   8.338  0.1498  0.4399 -1.2344
  429MOL0     H56611   6.965   1.376   8.382  1.0000  0.3574 -0.9234
  429MOL0     H56612   6.631   1.449   8.719 -1.5292 -2.0402 -3.5321
  429MOL0     H56613   6.405   1.516   8.763  2.6290 -0.8523  2.8784
  429MOL0     H56614   6.687   2.380   7.181 -1.6683  0.2034  1.3201
  429MOL0     H56615   6.909   2.339   7.078 -2.3283 -1.7749 -2.4096
  429MOL0     H56616   7.421   2.409   7.156 -0.9179 -0.1135 -0.3963
  429MOL0     H56617   7.638   2.310   7.089 -0.6183  0.9564 -0.0682
  429MOL0     H56618   7.838   2.119   7.098  1.1712  1.6639 -2.1134
  429MOL0     H56619   7.819   2.180   6.947  0.0103  1.4920  1.7157
  429MOL0     H56620   7.852   1.934   6.861  0.2968  1.1483 -1.2714
  429MOL0     H56621   7.997   2.016   6.927 -0.5139 -0.3867  0.6100
  429MOL0     H56622   7.821   1.808   7.062  0.8099 -0.0930 -4.0813
  429MOL0     H56623   7.941   1.890   7.163 -1.0282 -0.0193  1.3657
  429MOL0     H56624   7.990   1.732   6.900 -0.2537  0.0337  0.3874
  429MOL0     H56625   8.118   1.807   7.000 -0.4021  1.6054  1.8719
  429MOL0     H56626   7.964   1.461   7.240 -0.9041  2.0004  1.1007
  429MOL0     H56627   7.451   1.928   7.017  1.7925  0.9669 -2.2720
  429MOL0     H56628   7.230   2.040   7.075 -1.5164  2.0282 -1.4833
  430MOL0     O56629   4.372   2.320   7.432 -0.0258  0.1211 -0.8051
  430MOL0     C56630   4.262   2.255   7.437  0.1586 -0.9068 -0.2145
  430MOL0     O56631   4.207   2.208   7.548  0.3962  0.4760 -0.6711
  430MOL0     C56632   4.287   2.206   7.663  0.1202 -0.4940 -0.5133
  430MOL0     C56633   4.397   2.121   7.671 -0.4295  0.4254 -0.3862
  430MOL0     C56634   4.469   2.105   7.783  0.6528  1.5576 -0.4203
  430MOL0     C56635   4.441   2.185   7.897  0.2236 -0.7932  0.2222
  430MOL0     O56636   4.534   2.173   8.005 -0.3028 -0.8806  0.0147
  430MOL0     C56637   4.480   2.092   8.116 -0.2473 -0.9063  0.3719
  430MOL0     C56638   4.610   2.016   8.162 -0.5577  0.0909 -0.0574
  430MOL0     C56639   4.653   1.908   8.072  0.3207  0.8187  0.6889
  430MOL0     C56640   4.760   1.823   8.144 -0.0606 -0.2292 -0.5510
  430MOL0     C56641   4.822   1.721   8.050  0.6401 -0.3148 -0.1082
  430MOL0     C56642   4.899   1.613   8.135  0.4380  0.7853 -0.4498
  430MOL0     C56643   4.962   1.504   8.036 -1.0516 -0.2076 -0.3728
  430MOL0     C56644   5.025   1.388   8.113 -0.1376  1.0947 -0.5544
  430MOL0     N56645   5.042   1.272   8.020  0.0723 -0.2544 -0.6592
  430MOL0     C56646   5.090   1.271   7.890  0.3636  0.4567 -0.9339
  430MOL0     C56647   5.113   1.140   7.854  0.3941  0.5460  1.1001
  430MOL0     C56648   5.164   1.074   7.724 -0.2856  0.0739  0.9984
  430MOL0     C56649   5.051   1.051   7.624 -0.6002  0.5800  0.4125
  430MOL0     C56650   4.975   1.170   7.573  0.9109  0.1412 -0.3569
  430MOL0     C56651   4.865   1.137   7.468 -0.6028  0.2812  0.1572
  430MOL0     O56652   4.791   1.257   7.451  0.4227  0.0110 -0.5717
  430MOL0     C56653   4.693   1.240   7.358  0.7065 -0.0185  0.5544
  430MOL0     C56654   4.718   1.197   7.225  0.3032 -0.9567  0.0823
  430MOL0     C56655   4.614   1.178   7.134  0.9485  0.0197 -0.9879
  430MOL0     C56656   4.484   1.206   7.166  0.0283  0.1955  0.5661
  430MOL0     C56657   4.371   1.159   7.072  0.4102 -0.1045 -0.6554
  430MOL0     O56658   4.401   1.110   6.953  1.0312  0.5633 -0.5603
  430MOL0     C56659   4.313   1.048   6.873  0.2118  1.0333  0.6370
  430MOL0     C56660   4.173   1.009   6.885  0.0543 -0.0082 -0.2000
  430MOL0     C56661   4.111   0.938   6.780  0.1594 -0.1376  0.6695
  430MOL0     C56662   4.179   0.909   6.665 -0.8719 -0.1448  0.4341
  430MOL0     O56663   4.118   0.838   6.563  0.3552 -0.3322 -0.1681
  430MOL0     C56664   4.030   0.734   6.608  0.2746  0.0391  0.1632
  430MOL0     C56665   4.020   0.607   6.529  0.1894  0.5800  1.1075
  430MOL0     C56666   3.983   0.656   6.383 -0.0197 -0.1312  0.0187
  430MOL0     C56667   3.974   0.538   6.283 -0.7747  0.7338  0.5704
  430MOL0     C56668   3.944   0.580   6.137 -0.4952  0.6008 -0.8455
  430MOL0     C56669   3.874   0.475   6.048  0.3795 -0.3299 -0.3906
  430MOL0     C56670   3.944   0.338   6.070 -0.0415 -0.3103  0.4819
  430MOL0     C56671   3.892   0.231   5.968 -0.4662  0.2951 -0.4350
  430MOL0    Cl56672   3.723   0.195   5.996  0.3640  0.1432 -0.2710
  430MOL0     C56673   4.311   0.945   6.653 -0.5724 -0.4036 -0.0909
  430MOL0     C56674   4.377   1.009   6.756  0.0955 -0.6946 -0.0936
  430MOL0     O56675   4.259   1.155   7.123  0.1436  0.1663  0.5060
  430MOL0     C56676   4.461   1.246   7.298  0.1652  0.6773 -0.6188
  430MOL0     C56677   4.559   1.268   7.389  0.1616 -0.0161 -0.5989
  430MOL0     N56678   5.078   1.062   7.966 -1.5736 -1.0561  0.2988
  430MOL0     N56679   5.040   1.142   8.067  0.1425 -0.1227  0.6473
  430MOL0     C56680   4.340   2.288   7.888 -0.1693 -0.9201  0.6419
  430MOL0     C56681   4.259   2.298   7.769 -0.5222  0.0476  0.6189
  430MOL0     C56682   4.190   2.232   7.310 -0.8144  0.0218  0.0883
  430MOL0     C56683   4.232   2.304   7.200  0.2076 -0.3104  0.1937
  430MOL0     C56684   4.175   2.271   7.072  0.1523 -0.4504 -0.2250
  430MOL0     C56685   4.072   2.175   7.058  0.1847 -0.4378  1.1507
  430MOL0     O56686   4.004   2.137   6.947 -0.7287  0.4374 -0.2017
  430MOL0     C56687   4.001   2.233   6.847  0.6673 -0.0940 -0.3593
  430MOL0     C56688   3.895   2.199   6.745 -0.3987  0.2498  0.2113
  430MOL0     C56689   3.753   2.228   6.797  0.2688  0.5517 -0.3278
  430MOL0     C56690   3.645   2.183   6.704  0.5782  0.5338  0.1407
  430MOL0     C56691   3.604   2.039   6.732 -0.3605 -0.1768  0.4519
  430MOL0     C56692   3.609   1.916   6.744  0.5469 -0.6953 -0.0973
  430MOL0     C56693   4.032   2.096   7.178 -0.0583 -0.0093  0.3787
  430MOL0     C56694   4.095   2.128   7.300 -0.1657 -0.6601  0.1123
  430MOL0     H56695   4.409   2.072   7.575  0.9730 -1.9189  0.8729
  430MOL0     H56696   4.538   2.022   7.799 -2.0800 -0.5500  1.4763
  430MOL0     H56697   4.401   2.026   8.079  0.1423 -1.5228  0.6088
  430MOL0     H56698   4.432   2.145   8.199 -2.3903 -1.9727 -0.1313
  430MOL0     H56699   4.577   1.968   8.254 -1.7616  2.3011  0.7462
  430MOL0     H56700   4.698   2.079   8.182 -0.5319  0.0983 -0.1980
  430MOL0     H56701   4.694   1.949   7.979  0.2864 -2.5593 -0.9952
  430MOL0     H56702   4.580   1.833   8.040  2.1815 -0.2828 -1.2990
  430MOL0     H56703   4.837   1.885   8.191 -3.5237  3.6488  0.6197
  430MOL0     H56704   4.719   1.760   8.223  4.3397 -2.6480  0.0900
  430MOL0     H56705   4.882   1.765   7.970  1.2685 -2.0417 -0.6345
  430MOL0     H56706   4.745   1.666   7.994  2.3648 -3.0501 -0.0108
  430MOL0     H56707   4.828   1.556   8.196  0.1569  0.3548 -1.1640
  430MOL0     H56708   4.962   1.665   8.207 -2.1689  4.4192 -0.5452
  430MOL0     H56709   4.875   1.472   7.979 -0.4165 -2.4645 -0.1637
  430MOL0     H56710   5.038   1.537   7.964 -1.0047 -3.5365 -2.0202
  430MOL0     H56711   4.956   1.359   8.192 -0.1766  1.4203 -0.4656
  430MOL0     H56712   5.120   1.421   8.156 -1.2025  0.2632  2.6660
  430MOL0     H56713   5.117   1.351   7.821  0.2051 -0.0246 -1.5707
  430MOL0     H56714   5.204   0.977   7.757 -1.7374 -0.5342  1.0380
  430MOL0     H56715   5.243   1.135   7.680  2.0521 -3.0068  0.5602
  430MOL0     H56716   4.983   0.983   7.676  1.4079  0.3069  2.9080
  430MOL0     H56717   5.102   1.015   7.534 -0.0204  2.9726 -0.2810
  430MOL0     H56718   4.925   1.214   7.660  1.8331 -1.9280  1.3112
  430MOL0     H56719   5.043   1.243   7.528 -1.5230  1.9227 -1.3872
  430MOL0     H56720   4.799   1.055   7.501 -1.2267 -0.2165 -2.1532
  430MOL0     H56721   4.923   1.102   7.382  0.5922 -1.1265  1.4585
  430MOL0     H56722   4.816   1.165   7.194  0.2915 -0.0793 -0.9069
  430MOL0     H56723   4.630   1.131   7.037 -1.1076  1.4491 -2.1099
  430MOL0     H56724   4.125   1.027   6.981  1.2355 -0.9121  0.5947
  430MOL0     H56725   4.007   0.913   6.795 -0.0880 -2.4399 -3.3612
  430MOL0     H56726   3.930   0.774   6.628 -0.7071 -1.6881 -0.9725
  430MOL0     H56727   4.077   0.689   6.696  1.3540  1.9458  0.5987
  430MOL0     H56728   3.958   0.528   6.574  1.0181 -2.0487 -2.0007
  430MOL0     H56729   4.124   0.574   6.526 -0.1993 -0.6668  0.5815
  430MOL0     H56730   4.052   0.729   6.340  0.9550 -1.7883 -1.3751
  430MOL0     H56731   3.885   0.701   6.400  0.4362  1.5995 -1.5311
  430MOL0     H56732   4.077   0.501   6.285 -0.9262  0.2294 -0.3274
  430MOL0     H56733   3.903   0.471   6.333 -1.6911  1.2006 -0.0827
  430MOL0     H56734   4.038   0.614   6.094  1.4191  0.6143  2.9516
  430MOL0     H56735   3.878   0.667   6.132  2.0794  2.7740  0.3660
  430MOL0     H56736   3.874   0.501   5.942 -3.2276 -1.0857 -0.7093
  430MOL0     H56737   3.767   0.472   6.071  0.3464 -0.1508 -0.5217
  430MOL0     H56738   4.050   0.351   6.045  0.2023 -2.7830 -0.0699
  430MOL0     H56739   3.944   0.303   6.174  1.6865 -0.7000  0.3710
  430MOL0     H56740   3.949   0.137   5.964  0.3181  0.6755  1.1143
  430MOL0     H56741   3.893   0.269   5.865 -0.7042 -2.4549 -1.5571
  430MOL0     H56742   4.365   0.906   6.567  3.2066  2.8446  0.5348
  430MOL0     H56743   4.485   1.017   6.748  0.0789  1.8294  1.1315
  430MOL0     H56744   4.361   1.266   7.335 -0.1132  2.9307 -2.4276
  430MOL0     H56745   4.537   1.292   7.493 -1.2302  0.4346 -0.9802
  430MOL0     H56746   4.333   2.350   7.977  1.9493 -0.7456  0.7223
  430MOL0     H56747   4.172   2.362   7.767 -1.5571 -1.1366  2.8985
  430MOL0     H56748   4.300   2.386   7.219 -0.2009 -0.5379  3.0146
  430MOL0     H56749   4.204   2.318   6.978 -1.8129 -0.8346 -1.0815
  430MOL0     H56750   4.092   2.236   6.787  0.7645  0.9831 -0.1779
  430MOL0     H56751   3.967   2.331   6.883 -0.6112  0.2547 -2.3348
  430MOL0     H56752   3.921   2.269   6.665 -1.8370  0.9898  0.3573
  430MOL0     H56753   3.899   2.098   6.702  0.5770  0.5519 -0.4286
  430MOL0     H56754   3.748   2.336   6.813  2.0471  1.0786 -2.7707
  430MOL0     H56755   3.734   2.181   6.895 -1.4983 -0.0432 -0.9118
  430MOL0     H56756   3.550   2.237   6.715  2.2009  3.3657  1.4131
  430MOL0     H56757   3.666   2.199   6.598  0.1349 -0.1672 -0.0606
  430MOL0     H56758   3.607   1.810   6.759  1.2093 -0.5452  1.1913
  430MOL0     H56759   3.957   2.018   7.174  0.5782 -0.8156  2.4479
  430MOL0     H56760   4.090   2.068   7.391  2.5974  3.2338  3.1547
  431MOL0     O56761   3.673   6.795   8.641 -0.6381 -0.1854 -0.1726
  431MOL0     C56762   3.711   6.904   8.692 -1.0629 -0.0690  0.6538
  431MOL0     O56763   3.633   7.002   8.746  0.3145  0.2971  0.3798
  431MOL0     C56764   3.496   7.012   8.713 -0.8371 -0.8701 -0.2883
  431MOL0     C56765   3.427   6.949   8.611 -0.0089 -0.7010 -0.5176
  431MOL0     C56766   3.291   6.969   8.602  0.6327 -0.3476 -0.8268
  431MOL0     C56767   3.229   7.065   8.686  0.5989  0.0821  0.6073
  431MOL0     O56768   3.103   7.095   8.651  0.2524 -0.0936 -0.0515
  431MOL0     C56769   3.004   7.123   8.752 -0.8669 -0.7221  0.2893
  431MOL0     C56770   2.861   7.101   8.715 -0.5558 -0.5791 -0.6247
  431MOL0     C56771   2.796   7.234   8.673 -0.7089 -0.1301  0.8388
  431MOL0     C56772   2.654   7.212   8.642 -0.0424  0.4612 -0.1093
  431MOL0     C56773   2.575   7.335   8.688 -0.2789 -0.1150  0.2744
  431MOL0     C56774   2.567   7.353   8.836  0.6204  0.6312 -0.2587
  431MOL0     C56775   2.441   7.290   8.908 -1.5759 -0.7359 -0.0593
  431MOL0     C56776   2.314   7.388   8.891  0.8017  0.5355  0.1977
  431MOL0     N56777   2.199   7.342   8.978 -1.0692  0.3686  0.5148
  431MOL0     C56778   2.075   7.381   8.959  0.9215  1.2947  1.3640
  431MOL0     C56779   1.997   7.304   9.044  0.2837 -1.1113 -0.0296
  431MOL0     C56780   1.855   7.317   9.057  0.4458 -0.0924  0.0166
  431MOL0     C56781   1.791   7.448   8.988 -0.2572 -0.2062  0.4040
  431MOL0     C56782   1.646   7.436   9.010  0.9721  0.8396  0.5483
  431MOL0     C56783   1.562   7.530   8.930  0.7405 -0.2981 -0.0422
  431MOL0     O56784   1.428   7.475   8.956 -0.4944  0.1289 -0.5498
  431MOL0     C56785   1.324   7.550   8.918  0.7908 -0.3116  0.2858
  431MOL0     C56786   1.203   7.493   8.944  0.1417 -1.2296  0.5089
  431MOL0     C56787   1.076   7.554   8.907 -0.1345 -0.5383  0.5409
  431MOL0     C56788   1.092   7.669   8.830 -0.6238 -0.2356 -0.2834
  431MOL0     C56789   0.973   7.738   8.771  0.5894 -0.1858 -0.1149
  431MOL0     O56790   0.846   7.687   8.782  0.5372  0.0264  0.2715
  431MOL0     C56791   0.747   7.763   8.728 -0.7859 -0.0727  0.3970
  431MOL0     C56792   0.661   7.830   8.819  0.3786 -0.4245  0.9005
  431MOL0     C56793   0.560   7.906   8.765  0.5238 -0.0523 -0.1865
  431MOL0     C56794   0.552   7.924   8.625  0.3397  0.6680 -0.0913
  431MOL0     O56795   0.451   7.994   8.567  0.7940  0.0851  0.2441
  431MOL0     C56796   0.488   8.127   8.523  0.1116 -0.6769 -0.8095
  431MOL0     C56797   0.550   8.225   8.629 -0.2082  0.0819 -0.2569
  431MOL0     C56798   0.450   8.254   8.740 -0.6149  0.0437 -0.4944
  431MOL0     C56799   0.504   8.332   8.853 -0.0602 -0.0733 -0.2675
  431MOL0     C56800   0.467   8.265   8.980 -0.3042  0.6397 -0.8675
  431MOL0     C56801   0.459   8.356   9.105 -0.1604 -0.4071 -0.6404
  431MOL0     C56802   0.587   8.430   9.142 -0.2831 -0.1538 -0.5908
  431MOL0     C56803   0.690   8.331   9.187  0.2696  0.3807  0.2370
  431MOL0    Cl56804   0.786   8.263   9.049 -0.1074 -0.8086  0.1816
  431MOL0     C56805   0.644   7.864   8.537 -0.7160 -0.0508 -0.0246
  431MOL0     C56806   0.743   7.773   8.587  0.9800  0.0611  0.4790
  431MOL0     O56807   0.990   7.853   8.720  0.3776  0.0868  0.3798
  431MOL0     C56808   1.221   7.726   8.806  0.3350  0.0834  0.1070
  431MOL0     C56809   1.341   7.676   8.857  0.1787  0.3567 -0.2781
  431MOL0     N56810   2.084   7.232   9.118 -0.4566 -0.1099 -0.3756
  431MOL0     N56811   2.198   7.249   9.075 -1.1272  0.3338  1.1920
  431MOL0     C56812   3.299   7.128   8.787  0.2601 -1.1070  0.7029
  431MOL0     C56813   3.438   7.103   8.796  0.0934 -0.4574 -0.2011
  431MOL0     C56814   3.856   6.925   8.716  0.0134  0.2713  1.0263
  431MOL0     C56815   3.946   6.858   8.634  0.1997 -0.2142 -0.5444
  431MOL0     C56816   4.086   6.878   8.639  0.4479  0.3979  0.0121
  431MOL0     C56817   4.141   6.953   8.737  0.3046  0.3205 -0.0290
  431MOL0     O56818   4.271   6.977   8.772 -0.5884 -0.2254 -0.0112
  431MOL0     C56819   4.376   6.909   8.708 -0.2280 -0.3291  0.8015
  431MOL0     C56820   4.512   6.987   8.724  0.0479  0.9531 -0.3496
  431MOL0     C56821   4.640   6.897   8.690 -1.5766  0.3531 -0.4024
  431MOL0     C56822   4.777   6.966   8.714 -0.0675 -0.3010  0.0174
  431MOL0     C56823   4.821   6.950   8.857  0.4923 -0.7498  0.0160
  431MOL0     C56824   4.865   6.936   8.970 -0.2741  0.3799  0.4937
  431MOL0     C56825   4.045   7.013   8.827  1.0717  0.5888 -0.7822
  431MOL0     C56826   3.907   7.006   8.820 -1.0239  0.3742  0.4037
  431MOL0     H56827   3.466   6.893   8.527  1.2041  2.2633 -2.1152
  431MOL0     H56828   3.231   6.914   8.530 -0.1234 -2.2492  1.1652
  431MOL0     H56829   3.024   7.219   8.802  2.1561  2.3828 -5.7749
  431MOL0     H56830   3.007   7.043   8.826 -1.8067 -1.2084 -0.1811
  431MOL0     H56831   2.807   7.063   8.802  2.3041 -1.3572  0.9308
  431MOL0     H56832   2.853   7.036   8.627  0.3054 -1.1245 -0.3110
  431MOL0     H56833   2.842   7.277   8.584 -2.6629  1.9058  0.7245
  431MOL0     H56834   2.810   7.317   8.742  3.0140  2.4075 -2.5028
  431MOL0     H56835   2.643   7.185   8.537 -1.2753  0.1864  0.0716
  431MOL0     H56836   2.612   7.137   8.710  1.3993 -0.1666  0.1398
  431MOL0     H56837   2.475   7.335   8.643 -0.7654  0.0663  1.3386
  431MOL0     H56838   2.631   7.420   8.648  2.3603 -1.8021  0.1326
  431MOL0     H56839   2.570   7.460   8.856  2.3846  0.2779  1.6759
  431MOL0     H56840   2.646   7.306   8.895 -1.6076 -0.8178  1.7891
  431MOL0     H56841   2.434   7.188   8.869  1.0151 -0.7470 -0.6435
  431MOL0     H56842   2.453   7.279   9.016 -1.5391  1.6172  0.2289
  431MOL0     H56843   2.292   7.398   8.784 -1.0137  1.7999  0.6486
  431MOL0     H56844   2.339   7.488   8.929  0.3328  0.9843 -0.6597
  431MOL0     H56845   2.041   7.454   8.886  3.3354 -1.8820 -3.5450
  431MOL0     H56846   1.819   7.317   9.161  1.2281  1.0082  0.3025
  431MOL0     H56847   1.804   7.237   9.002 -0.5824  1.2809 -1.0978
  431MOL0     H56848   1.803   7.435   8.880 -0.9956 -0.6302  0.3639
  431MOL0     H56849   1.833   7.543   9.020 -1.3281  0.3308  0.2610
  431MOL0     H56850   1.617   7.336   8.976  2.9226  0.2466  0.4854
  431MOL0     H56851   1.617   7.433   9.115 -0.7510  0.2639  0.0843
  431MOL0     H56852   1.572   7.516   8.822 -0.9775  2.1219 -0.5711
  431MOL0     H56853   1.588   7.631   8.962  2.0667 -1.5027  3.1086
  431MOL0     H56854   1.211   7.392   8.985  1.9772 -1.5378 -0.4747
  431MOL0     H56855   0.985   7.498   8.930 -1.3045  1.2536  0.4788
  431MOL0     H56856   0.651   7.814   8.926  3.0248 -1.3085  1.0905
  431MOL0     H56857   0.476   7.946   8.822 -0.8644  0.5898 -2.5088
  431MOL0     H56858   0.396   8.179   8.495 -0.2065 -0.8658 -0.1561
  431MOL0     H56859   0.559   8.126   8.441  3.1519 -3.4423  1.5923
  431MOL0     H56860   0.587   8.312   8.574 -1.3592  0.8983  0.2283
  431MOL0     H56861   0.638   8.174   8.669 -1.9877 -2.9452  0.1363
  431MOL0     H56862   0.405   8.159   8.770 -2.6858  0.3034 -2.5171
  431MOL0     H56863   0.370   8.313   8.694  0.8971  2.4133 -0.2227
  431MOL0     H56864   0.613   8.338   8.844  0.3696 -3.5457  0.9282
  431MOL0     H56865   0.454   8.429   8.858  0.4744  0.1496  1.7988
  431MOL0     H56866   0.523   8.172   8.993 -3.1553 -0.8013  2.8965
  431MOL0     H56867   0.366   8.223   8.972 -1.8572  3.8543  0.1738
  431MOL0     H56868   0.423   8.291   9.185  0.4157 -3.0473 -2.4175
  431MOL0     H56869   0.377   8.426   9.085 -0.3504 -1.1264 -2.6279
  431MOL0     H56870   0.625   8.494   9.061  0.5209  2.4761  1.7304
  431MOL0     H56871   0.570   8.509   9.216  3.7216 -0.5824  0.9847
  431MOL0     H56872   0.662   8.253   9.259  2.5925  0.7571  1.6618
  431MOL0     H56873   0.774   8.371   9.244  1.1887 -2.2927  0.9099
  431MOL0     H56874   0.634   7.885   8.430 -0.7380 -1.8774 -0.4060
  431MOL0     H56875   0.817   7.735   8.517 -1.2212  4.2125 -4.9057
  431MOL0     H56876   1.222   7.817   8.748  1.0766  0.7568  1.1486
  431MOL0     H56877   1.435   7.715   8.819  0.0099 -0.2654 -1.3486
  431MOL0     H56878   3.254   7.203   8.851  1.5436  1.6834 -1.4620
  431MOL0     H56879   3.496   7.152   8.873  0.6472 -1.0336 -0.2367
  431MOL0     H56880   3.908   6.800   8.551 -2.4560 -0.5055  0.7539
  431MOL0     H56881   4.146   6.815   8.576 -2.6321 -4.5550  1.4411
  431MOL0     H56882   4.352   6.889   8.603 -4.3411 -2.3753  1.8965
  431MOL0     H56883   4.381   6.809   8.752  2.1946 -0.3094  0.6809
  431MOL0     H56884   4.510   7.073   8.656 -1.0282  2.5836  1.6362
  431MOL0     H56885   4.535   7.028   8.823 -0.2613  0.6197 -0.1401
  431MOL0     H56886   4.614   6.865   8.589 -1.1849  0.3472 -0.5022
  431MOL0     H56887   4.657   6.802   8.742 -2.1125  0.6506  0.3464
  431MOL0     H56888   4.851   6.912   8.654  2.4131  1.2406  1.5278
  431MOL0     H56889   4.772   7.074   8.695 -1.9191 -0.6091 -1.5643
  431MOL0     H56890   4.895   6.952   9.071 -2.1565  3.6145  0.6711
  431MOL0     H56891   4.095   7.068   8.907 -0.2957 -0.1243  0.6169
  431MOL0     H56892   3.843   7.057   8.891  0.1894  4.0752 -0.9182
  432MOL0     O56893   8.247   3.648   7.033 -0.5216  0.6240  0.6107
  432MOL0     C56894   8.334   3.736   7.062 -0.0101  0.0601  0.0715
  432MOL0     O56895   8.333   3.813   7.176  0.9038  1.3772 -0.1070
  432MOL0     C56896   8.243   3.771   7.273  0.4205 -0.4553  0.6687
  432MOL0     C56897   8.243   3.650   7.338 -0.2326  0.1419 -0.1585
  432MOL0     C56898   8.141   3.619   7.423 -0.4682  0.2931 -0.8576
  432MOL0     C56899   8.048   3.714   7.466 -0.2011  0.0178 -0.0740
  432MOL0     O56900   7.955   3.692   7.555  0.2845 -0.4169  0.0206
  432MOL0     C56901   7.879   3.572   7.544  0.0512 -0.5622  0.0144
  432MOL0     C56902   7.739   3.579   7.614 -0.4736 -0.3050 -0.4976
  432MOL0     C56903   7.742   3.571   7.760 -0.6222 -0.3858 -0.1965
  432MOL0     C56904   7.599   3.553   7.821  0.5139  0.2856 -0.9259
  432MOL0     C56905   7.594   3.614   7.959  0.2245  0.6545  0.3950
  432MOL0     C56906   7.687   3.551   8.066 -0.8112  0.6823 -0.5037
  432MOL0     C56907   7.695   3.620   8.206  0.7531  0.3681  0.3090
  432MOL0     C56908   7.749   3.512   8.306  0.3794  0.3146  0.1450
  432MOL0     N56909   7.756   3.577   8.438  0.2296  0.8882 -0.4537
  432MOL0     C56910   7.665   3.542   8.532 -0.9518  1.1151  0.6138
  432MOL0     C56911   7.693   3.636   8.626 -0.1430  0.4804 -0.2530
  432MOL0     C56912   7.627   3.662   8.751  0.7552 -0.8166  0.4841
  432MOL0     C56913   7.477   3.630   8.744 -0.2227  0.1244  0.5685
  432MOL0     C56914   7.403   3.692   8.861 -0.5367 -0.3734  0.3702
  432MOL0     C56915   7.431   3.625   8.997 -0.4902 -0.9964  0.7292
  432MOL0     O56916   7.376   3.494   9.006 -0.5770 -0.0163  0.3006
  432MOL0     C56917   7.370   3.446   9.139 -0.2360 -0.4809  0.1103
  432MOL0     C56918   7.290   3.328   9.145  0.0434 -0.5558 -0.3127
  432MOL0     C56919   7.264   3.269   9.272 -0.2829 -0.4279  0.6393
  432MOL0     C56920   7.295   3.331   9.391  0.4053  0.3121 -0.3256
  432MOL0     C56921   7.238   3.282   9.521 -1.4117 -1.1501  0.3418
  432MOL0     O56922   7.215   3.383   9.612 -0.7268 -0.7768  0.6451
  432MOL0     C56923   7.149   3.355   9.727 -0.4204 -0.5819  0.2354
  432MOL0     C56924   7.057   3.444   9.773  0.0811  0.4056 -0.2524
  432MOL0     C56925   6.991   3.415   9.895 -0.9501 -0.2817  0.0781
  432MOL0     C56926   6.994   3.291   9.964  0.3776  0.3495 -0.3895
  432MOL0     O56927   6.907   3.256  10.056 -0.0626 -0.0255 -0.0902
  432MOL0     C56928   6.868   3.126  10.062  0.7671 -0.1542 -0.0522
  432MOL0     C56929   6.763   3.140  10.169 -0.5758 -0.6097 -0.1205
  432MOL0     C56930   6.695   2.997  10.184  0.0913 -1.0423 -1.3692
  432MOL0     C56931   6.614   2.983  10.318  0.0018  0.4070 -0.1463
  432MOL0     C56932   6.535   2.847  10.322 -0.0439  0.4453  1.0648
  432MOL0     C56933   6.629   2.721  10.323  0.8237 -0.2088  0.1622
  432MOL0     C56934   6.542   2.611  10.386 -0.3762  0.4548 -0.1392
  432MOL0     C56935   6.629   2.489  10.409 -0.2496  0.4510  0.0444
  432MOL0    Cl56936   6.681   2.428  10.248  0.3241  0.4019  0.0001
  432MOL0     C56937   7.090   3.208   9.914 -0.4795 -0.0482  0.0502
  432MOL0     C56938   7.182   3.247   9.811  0.3934 -0.3277  0.9965
  432MOL0     O56939   7.222   3.156   9.548 -0.0460 -0.1391  0.3068
  432MOL0     C56940   7.382   3.435   9.379 -0.4232 -0.3008 -0.0282
  432MOL0     C56941   7.411   3.491   9.261  0.7764 -0.3558  1.0233
  432MOL0     N56942   7.795   3.719   8.577 -0.1623  0.5547 -0.4319
  432MOL0     N56943   7.840   3.674   8.468 -0.4324  0.1608 -0.2901
  432MOL0     C56944   8.034   3.826   7.387  0.0051 -0.6187 -0.0083
  432MOL0     C56945   8.138   3.862   7.297  0.0558  0.1238  0.5483
  432MOL0     C56946   8.450   3.756   6.969  0.1384 -0.0964  0.2302
  432MOL0     C56947   8.560   3.843   6.995  0.0163 -0.0603 -1.3378
  432MOL0     C56948   8.673   3.843   6.900  0.7771 -0.2489  0.2927
  432MOL0     C56949   8.656   3.783   6.781  0.0532 -0.1567 -0.2244
  432MOL0     O56950   8.761   3.807   6.697 -0.1949  0.0486  0.2775
  432MOL0     C56951   8.749   3.780   6.555 -0.6238  0.3044 -0.9245
  432MOL0     C56952   8.894   3.742   6.513 -0.2891  0.5554 -0.1939
  432MOL0     C56953   8.990   3.860   6.484  0.9394 -0.7010 -0.6048
  432MOL0     C56954   9.112   3.849   6.571 -0.7321  1.0739 -0.4814
  432MOL0     C56955   9.211   3.954   6.554 -0.6800  0.1975  0.8096
  432MOL0     C56956   9.293   4.039   6.527  0.3769  0.1875 -0.3619
  432MOL0     C56957   8.552   3.694   6.757 -0.9581  1.0342 -0.7032
  432MOL0     C56958   8.451   3.678   6.850  0.1093 -0.7755 -0.1937
  432MOL0     H56959   8.318   3.572   7.324 -0.4735 -0.1213 -0.0027
  432MOL0     H56960   8.136   3.523   7.473 -0.1963  0.3984 -0.6240
  432MOL0     H56961   7.936   3.494   7.595  1.2690  0.7434  0.7334
  432MOL0     H56962   7.855   3.549   7.440 -2.5092  1.3168  0.0990
  432MOL0     H56963   7.682   3.496   7.571 -0.7781  0.0537 -0.7968
  432MOL0     H56964   7.694   3.672   7.577 -1.6710 -1.2745 -1.5748
  432MOL0     H56965   7.790   3.661   7.798  1.4422 -1.4443 -0.1501
  432MOL0     H56966   7.800   3.480   7.779 -1.3475 -0.7447  0.3659
  432MOL0     H56967   7.526   3.593   7.751  0.1735 -1.1715 -1.4464
  432MOL0     H56968   7.579   3.450   7.851  1.1044  0.2779 -0.5414
  432MOL0     H56969   7.494   3.601   8.001  0.2708 -0.2334  0.2707
  432MOL0     H56970   7.616   3.719   7.940 -1.6809  1.8347  3.8606
  432MOL0     H56971   7.781   3.559   8.010 -0.2054  0.3778  0.4454
  432MOL0     H56972   7.654   3.448   8.079  3.7195 -0.8566  0.5772
  432MOL0     H56973   7.762   3.705   8.192  0.7480  0.5235  1.1602
  432MOL0     H56974   7.597   3.650   8.243  0.2902 -0.1413 -0.4677
  432MOL0     H56975   7.848   3.480   8.273  0.4683 -0.3876  1.0482
  432MOL0     H56976   7.679   3.427   8.305 -0.4647  0.9561 -2.2300
  432MOL0     H56977   7.593   3.461   8.531 -2.3827  2.3086 -1.9190
  432MOL0     H56978   7.657   3.764   8.780  3.9204 -1.9296  1.5540
  432MOL0     H56979   7.646   3.603   8.841 -3.2647  0.6072  2.5434
  432MOL0     H56980   7.462   3.523   8.727  1.9260 -0.7844  3.3700
  432MOL0     H56981   7.438   3.689   8.661  1.3489  2.4111  1.3186
  432MOL0     H56982   7.424   3.798   8.874 -3.1618  0.1205  1.2747
  432MOL0     H56983   7.296   3.679   8.845 -0.7672  2.4754 -0.8768
  432MOL0     H56984   7.380   3.683   9.075  2.6469  3.8552 -0.3691
  432MOL0     H56985   7.539   3.627   9.010 -0.6225  0.0884  1.8181
  432MOL0     H56986   7.243   3.301   9.051 -1.4729 -2.7695  0.9765
  432MOL0     H56987   7.209   3.176   9.278  2.4580 -2.0615  2.4679
  432MOL0     H56988   7.034   3.543   9.734 -0.5220 -0.4098 -2.0596
  432MOL0     H56989   6.916   3.483   9.934  1.0136  3.5622 -2.2567
  432MOL0     H56990   6.944   3.052  10.089  2.6016  1.5992 -0.1865
  432MOL0     H56991   6.842   3.103   9.958  0.0617  2.6407 -0.5693
  432MOL0     H56992   6.678   3.205  10.147 -1.0640 -0.9557  0.6816
  432MOL0     H56993   6.805   3.153  10.269 -1.6235  0.5219  0.1947
  432MOL0     H56994   6.767   2.916  10.171  0.5012 -0.9089 -0.0407
  432MOL0     H56995   6.616   2.987  10.109  0.6607 -2.9868 -1.7629
  432MOL0     H56996   6.676   2.997  10.408  0.1430 -2.5867  0.3337
  432MOL0     H56997   6.546   3.068  10.320 -3.7493 -2.3006 -1.2951
  432MOL0     H56998   6.466   2.840  10.237  0.7551  0.8411  0.3633
  432MOL0     H56999   6.462   2.857  10.402 -3.6875  1.4445 -2.0560
  432MOL0     H57000   6.722   2.741  10.376  1.4530 -2.3766 -0.0090
  432MOL0     H57001   6.660   2.707  10.219  2.0063  0.6168  0.3862
  432MOL0     H57002   6.497   2.621  10.486 -0.0466 -1.1970  0.2047
  432MOL0     H57003   6.461   2.586  10.317  0.7178 -1.3976 -0.8001
  432MOL0     H57004   6.567   2.413  10.456 -1.0814 -0.2930 -2.1282
  432MOL0     H57005   6.713   2.514  10.474 -1.2677  4.1625  0.1763
  432MOL0     H57006   7.106   3.118   9.972  0.1045  1.1094  1.7420
  432MOL0     H57007   7.269   3.187   9.787  0.7964  0.9858 -1.0819
  432MOL0     H57008   7.423   3.480   9.469  1.5946 -2.1178  0.0455
  432MOL0     H57009   7.457   3.589   9.277 -2.4897  1.0857  2.5518
  432MOL0     H57010   7.960   3.903   7.408 -2.2047 -2.8527  0.8834
  432MOL0     H57011   8.131   3.964   7.259  1.8022  0.4931  1.0887
  432MOL0     H57012   8.569   3.889   7.093 -2.3321  1.2130 -1.6380
  432MOL0     H57013   8.766   3.893   6.922  0.4462  2.4234 -3.5407
  432MOL0     H57014   8.721   3.868   6.496 -1.9543 -0.6261 -1.7510
  432MOL0     H57015   8.668   3.711   6.530  0.0869 -1.7723  2.0497
  432MOL0     H57016   8.931   3.662   6.579  1.8811  0.2992 -1.6021
  432MOL0     H57017   8.864   3.704   6.415 -1.7117 -0.1758  0.4944
  432MOL0     H57018   8.947   3.953   6.523  0.8466 -1.0326  0.0884
  432MOL0     H57019   9.012   3.877   6.378  1.7295 -1.6089 -0.5987
  432MOL0     H57020   9.084   3.860   6.676 -1.9807  1.6484 -0.8476
  432MOL0     H57021   9.162   3.756   6.544 -0.2978  1.2841 -0.3994
  432MOL0     H57022   9.379   4.101   6.512 -0.3679  2.9977  4.7752
  432MOL0     H57023   8.542   3.628   6.671 -2.1254  0.1841  0.0400
  432MOL0     H57024   8.372   3.605   6.838  0.5021 -1.2005 -0.1962
  433MOL0     O57025   6.524   3.417   6.276  0.5131  0.1200  0.0597
  433MOL0     C57026   6.584   3.503   6.333 -0.1833 -0.3930 -0.5877
  433MOL0     O57027   6.712   3.498   6.358 -0.2400 -0.2976 -0.0292
  433MOL0     C57028   6.792   3.409   6.285  0.4827 -0.2705  0.5826
  433MOL0     C57029   6.845   3.450   6.161  0.8114  1.0754  0.3641
  433MOL0     C57030   6.919   3.364   6.084  0.2487 -0.4133  0.2937
  433MOL0     C57031   6.921   3.225   6.110 -0.1625 -0.2364 -0.2335
  433MOL0     O57032   6.956   3.134   6.012 -0.4970 -0.1883  0.1055
  433MOL0     C57033   7.007   3.181   5.891 -0.4631 -0.2363  1.6363
  433MOL0     C57034   7.029   3.058   5.805  0.3711  1.0337 -0.0374
  433MOL0     C57035   7.146   3.078   5.707  0.2486  0.2315 -0.8765
  433MOL0     C57036   7.167   2.970   5.605 -0.0899  0.3147  0.0228
  433MOL0     C57037   7.297   2.978   5.522 -0.1263 -0.4103  0.4216
  433MOL0     C57038   7.294   2.892   5.391  0.0023 -0.2441 -0.0230
  433MOL0     C57039   7.422   2.907   5.308 -0.5777  0.7695  0.2007
  433MOL0     C57040   7.415   2.796   5.205  0.6712  0.5427 -0.1794
  433MOL0     N57041   7.513   2.813   5.101  0.6919  0.3558  0.7180
  433MOL0     C57042   7.576   2.929   5.055 -0.3803  0.4047  0.3637
  433MOL0     C57043   7.671   2.890   4.956 -0.6768 -0.5097  0.6636
  433MOL0     C57044   7.781   2.976   4.894  0.0051  0.5717 -0.2633
  433MOL0     C57045   7.717   3.026   4.766 -0.0071  0.0275  0.5020
  433MOL0     C57046   7.801   3.147   4.699  1.5429  0.7888  0.0808
  433MOL0     C57047   7.946   3.130   4.684 -0.1290  0.9461 -0.3494
  433MOL0     O57048   8.008   3.161   4.806 -0.1788 -0.8316 -0.2711
  433MOL0     C57049   8.145   3.156   4.813 -0.6953  0.1223  0.3569
  433MOL0     C57050   8.224   3.086   4.716 -0.1019 -0.5515  0.1646
  433MOL0     C57051   8.361   3.072   4.743 -0.6996 -0.2059  0.2667
  433MOL0     C57052   8.423   3.139   4.847 -0.3931  0.0121 -0.0009
  433MOL0     C57053   8.567   3.107   4.875 -0.5444  0.8918  0.7202
  433MOL0     O57054   8.628   3.023   4.788  0.4794  0.8915  0.1816
  433MOL0     C57055   8.762   3.003   4.816  0.5651  0.7309 -0.0623
  433MOL0     C57056   8.818   2.910   4.911 -0.1299  0.3881 -0.1336
  433MOL0     C57057   8.963   2.906   4.915 -0.4511 -1.0114  0.1167
  433MOL0     C57058   9.045   2.998   4.848  0.1111 -0.0405  0.7229
  433MOL0     O57059   9.183   2.993   4.883  0.0695  1.0665 -0.0415
  433MOL0     C57060   9.293   3.063   4.829 -0.6492  0.6345 -0.3565
  433MOL0     C57061   9.299   3.210   4.865 -0.1785 -0.0115  0.1990
  433MOL0     C57062   9.401   3.286   4.767  0.8876  0.1917  0.7411
  433MOL0     C57063   9.356   3.287   4.619  0.8153 -0.1477  0.1241
  433MOL0     C57064   9.466   3.370   4.525 -1.1917 -0.0385 -0.6202
  433MOL0     C57065   9.513   3.510   4.562 -0.0385 -0.5603  1.0198
  433MOL0     C57066   9.644   3.523   4.648 -0.0975  0.1450  0.6053
  433MOL0     C57067   9.763   3.450   4.571 -1.4436  0.6826  0.2150
  433MOL0    Cl57068   9.908   3.547   4.622  0.1232 -0.1683 -0.5852
  433MOL0     C57069   8.988   3.077   4.749 -0.2391  0.8331 -0.7054
  433MOL0     C57070   8.847   3.091   4.744 -0.0279 -0.9087 -0.4423
  433MOL0     O57071   8.622   3.165   4.970  0.8019  0.2156 -0.3429
  433MOL0     C57072   8.345   3.211   4.944 -0.4007  0.7510  0.5242
  433MOL0     C57073   8.211   3.212   4.930  0.4736 -0.0263  0.6009
  433MOL0     N57074   7.657   2.755   4.947 -0.7199  0.4661  0.3356
  433MOL0     N57075   7.579   2.709   5.037  0.5399 -0.5211  0.1129
  433MOL0     C57076   6.879   3.179   6.239 -0.5333 -0.3418  0.2306
  433MOL0     C57077   6.815   3.276   6.329 -0.0724  0.8565 -0.3922
  433MOL0     C57078   6.508   3.619   6.399  0.4752 -0.8925  0.4518
  433MOL0     C57079   6.381   3.598   6.444 -0.8210 -0.0725 -0.0398
  433MOL0     C57080   6.299   3.703   6.486 -0.3546 -0.7763 -0.7000
  433MOL0     C57081   6.347   3.831   6.481 -1.1466  0.5430 -0.2530
  433MOL0     O57082   6.250   3.926   6.525  0.9430  0.0577 -0.9261
  433MOL0     C57083   6.275   4.069   6.504 -0.0059 -0.5292 -0.4922
  433MOL0     C57084   6.150   4.150   6.521 -0.0958 -0.0682 -0.2529
  433MOL0     C57085   6.074   4.161   6.386 -0.0063 -1.5131  0.0420
  433MOL0     C57086   5.943   4.231   6.428  0.6513  0.2819 -0.2709
  433MOL0     C57087   5.958   4.374   6.472 -0.3049  0.0228 -0.2628
  433MOL0     C57088   5.947   4.482   6.507  0.4780 -0.2500 -0.1326
  433MOL0     C57089   6.479   3.860   6.434 -0.6802  0.3979 -0.5351
  433MOL0     C57090   6.555   3.753   6.384 -0.1787  0.5341 -0.9867
  433MOL0     H57091   6.832   3.553   6.131 -1.2937  0.3711 -1.4584
  433MOL0     H57092   6.961   3.422   6.002  0.3380 -1.5794 -0.5145
  433MOL0     H57093   7.105   3.229   5.904 -0.6652  0.0430  2.1394
  433MOL0     H57094   6.941   3.255   5.845  0.7344  1.7194  2.9186
  433MOL0     H57095   6.932   3.043   5.756 -0.9950 -1.2384  2.9909
  433MOL0     H57096   7.049   2.972   5.870 -0.5052  0.5038 -0.4421
  433MOL0     H57097   7.233   3.097   5.772 -0.1468  1.2229 -0.6162
  433MOL0     H57098   7.143   3.177   5.661 -1.2290  0.1936 -0.8866
  433MOL0     H57099   7.155   2.875   5.658 -1.3813  1.3992  1.8242
  433MOL0     H57100   7.090   2.980   5.528 -1.2961  0.1446  1.1623
  433MOL0     H57101   7.380   2.941   5.583 -1.6826  0.3582  3.1457
  433MOL0     H57102   7.302   3.082   5.491 -2.9275 -0.4232 -0.3812
  433MOL0     H57103   7.208   2.917   5.329 -0.6269 -0.2202  0.8338
  433MOL0     H57104   7.275   2.786   5.414 -0.0176 -0.6165 -1.6583
  433MOL0     H57105   7.426   3.010   5.272  1.7889  2.0908  3.7737
  433MOL0     H57106   7.520   2.906   5.355  0.7668  0.4299 -2.4084
  433MOL0     H57107   7.316   2.783   5.161  0.8398 -0.7163 -0.2264
  433MOL0     H57108   7.440   2.701   5.253 -2.4667 -0.1689  0.2001
  433MOL0     H57109   7.562   3.030   5.093  0.1627  1.4778 -2.0883
  433MOL0     H57110   7.875   2.922   4.877  1.2956  2.5746  0.0880
  433MOL0     H57111   7.802   3.064   4.956 -0.8784  0.4173  0.2669
  433MOL0     H57112   7.614   3.051   4.792  0.2523  0.0078  1.5851
  433MOL0     H57113   7.703   2.954   4.685 -1.1041  1.1381 -0.3547
  433MOL0     H57114   7.756   3.178   4.604 -0.6280  0.3805  0.9069
  433MOL0     H57115   7.790   3.234   4.765 -1.9513  1.8416 -1.6564
  433MOL0     H57116   7.989   3.185   4.599  4.5492 -1.4703  0.1486
  433MOL0     H57117   7.967   3.026   4.657  1.0712  1.5129 -1.7412
  433MOL0     H57118   8.182   3.038   4.628  0.6645 -0.3238 -0.3453
  433MOL0     H57119   8.417   3.009   4.676  0.8966  4.1738 -3.0229
  433MOL0     H57120   8.757   2.848   4.977 -0.0723  1.5140  1.0176
  433MOL0     H57121   9.019   2.845   4.984 -0.7774 -0.5855  0.7646
  433MOL0     H57122   9.296   3.045   4.722 -2.1274  0.5955 -0.4152
  433MOL0     H57123   9.383   3.026   4.879 -0.4792  1.6630  0.1304
  433MOL0     H57124   9.336   3.218   4.967 -0.3666  2.0381  0.1540
  433MOL0     H57125   9.200   3.256   4.863 -0.4021 -0.4990 -0.0312
  433MOL0     H57126   9.500   3.241   4.775 -0.3889 -3.3969 -1.3866
  433MOL0     H57127   9.401   3.388   4.808 -0.5328  1.7138 -2.6735
  433MOL0     H57128   9.329   3.192   4.571 -1.4564  0.7964 -0.5779
  433MOL0     H57129   9.264   3.346   4.619  2.2100  2.1444 -0.8777
  433MOL0     H57130   9.435   3.372   4.420  0.2834 -1.5167 -1.1274
  433MOL0     H57131   9.556   3.311   4.505 -1.1360 -0.6203  1.1548
  433MOL0     H57132   9.439   3.554   4.630  0.6832 -2.9393  3.5064
  433MOL0     H57133   9.521   3.569   4.470  0.2066  0.4458  1.6652
  433MOL0     H57134   9.670   3.625   4.680 -1.0450  0.9058 -0.9459
  433MOL0     H57135   9.631   3.477   4.746 -2.7018  2.5589  1.5348
  433MOL0     H57136   9.745   3.464   4.464  0.1086  2.6337  0.1511
  433MOL0     H57137   9.782   3.347   4.602  1.5027  0.5980 -1.5018
  433MOL0     H57138   9.058   3.146   4.703 -2.3710  3.3834 -0.3458
  433MOL0     H57139   8.807   3.180   4.698 -1.8350 -1.1071  0.6394
  433MOL0     H57140   8.399   3.241   5.033  0.6915 -1.1747  0.5791
  433MOL0     H57141   8.149   3.271   4.997  0.2973  0.5627 -0.0688
  433MOL0     H57142   6.883   3.072   6.257 -0.7932 -0.5045 -0.6540
  433MOL0     H57143   6.779   3.249   6.428 -2.8598  0.1420 -1.5111
  433MOL0     H57144   6.347   3.494   6.443 -1.4319  0.0811 -2.7244
  433MOL0     H57145   6.199   3.699   6.528 -0.2445 -0.3621 -0.3990
  433MOL0     H57146   6.311   4.074   6.400 -1.3107  2.1736 -0.8709
  433MOL0     H57147   6.357   4.106   6.567 -1.2606 -0.4203  1.1312
  433MOL0     H57148   6.096   4.105   6.605 -2.2071  2.8033  0.1141
  433MOL0     H57149   6.179   4.247   6.564 -0.8702 -1.3719  3.5848
  433MOL0     H57150   6.048   4.061   6.348 -2.0980 -0.1169 -2.5929
  433MOL0     H57151   6.137   4.208   6.310  1.0059 -3.4647 -0.3973
  433MOL0     H57152   5.875   4.226   6.342  0.0874 -1.2048  0.2262
  433MOL0     H57153   5.891   4.174   6.506 -0.1112  0.2377 -0.7934
  433MOL0     H57154   5.964   4.573   6.562  0.3618  0.2804 -0.9545
  433MOL0     H57155   6.515   3.962   6.429 -3.2731  1.3562 -1.9980
  433MOL0     H57156   6.645   3.778   6.329  1.6079  0.1333  1.5908
  434MOL0     O57157   4.341   1.196   0.653  0.0380 -0.0240  0.2603
  434MOL0     C57158   4.355   1.290   0.570  0.3210  0.1092 -0.2452
  434MOL0     O57159   4.252   1.373   0.538 -0.2627  0.3695  0.2589
  434MOL0     C57160   4.126   1.319   0.548  1.2170  1.4820 -0.3535
  434MOL0     C57161   4.033   1.387   0.622 -0.0974  0.1726  0.4433
  434MOL0     C57162   3.900   1.341   0.633  0.8572 -0.6110  0.3443
  434MOL0     C57163   3.857   1.224   0.567 -2.1696  0.1729  0.8987
  434MOL0     O57164   3.730   1.179   0.562  0.4190  0.3534  0.3535
  434MOL0     C57165   3.647   1.219   0.667  0.4666  0.5633 -0.2011
  434MOL0     C57166   3.520   1.142   0.672 -0.2488 -0.6651  0.3210
  434MOL0     C57167   3.536   1.017   0.757  0.1229  0.0241 -0.2768
  434MOL0     C57168   3.412   0.923   0.757  0.1773 -0.7482 -0.9697
  434MOL0     C57169   3.297   1.001   0.827  1.0905 -0.2868 -0.4404
  434MOL0     C57170   3.168   0.903   0.840 -0.7075  0.3647 -0.0642
  434MOL0     C57171   3.045   0.992   0.879  0.6273 -0.3865  0.6516
  434MOL0     C57172   2.966   1.045   0.757  1.0320  0.6419 -0.5107
  434MOL0     N57173   2.816   1.027   0.782 -0.4738 -0.0067  0.0848
  434MOL0     C57174   2.757   0.902   0.816 -0.2120 -0.2344 -0.0330
  434MOL0     C57175   2.620   0.920   0.815  0.3132  0.3517  0.2352
  434MOL0     C57176   2.527   0.809   0.855  0.6783  0.1392 -0.3386
  434MOL0     C57177   2.471   0.808   0.999 -0.3117  0.2308  0.2363
  434MOL0     C57178   2.322   0.834   0.997  1.2421 -0.2053 -0.3368
  434MOL0     C57179   2.243   0.725   0.928 -0.2769  0.5383  0.5219
  434MOL0     O57180   2.265   0.600   1.010 -0.9346 -0.3252 -0.5457
  434MOL0     C57181   2.164   0.512   1.031 -0.8795  1.0874  0.4363
  434MOL0     C57182   2.204   0.398   1.113  0.2372 -0.9306 -0.8396
  434MOL0     C57183   2.107   0.300   1.142  0.3134  0.6406 -0.7161
  434MOL0     C57184   1.977   0.303   1.093  0.4585  0.4833 -0.3802
  434MOL0     C57185   1.873   0.199   1.118 -0.7332 -0.1536 -0.0608
  434MOL0     O57186   1.739   0.228   1.100  0.0087 -0.1054  0.9206
  434MOL0     C57187   1.651   0.125   1.121 -0.2071 -0.6456 -0.1374
  434MOL0     C57188   1.619   0.108   1.253 -0.5351 -0.2376 -0.0163
  434MOL0     C57189   1.524   0.016   1.295 -0.5466 -0.9066 -0.6136
  434MOL0     C57190   1.464  -0.061   1.199  1.2312  0.0162  0.7217
  434MOL0     O57191   1.374  -0.155   1.244 -0.1826  0.2332 -0.1539
  434MOL0     C57192   1.319  -0.248   1.151 -0.3876  0.0758  0.9237
  434MOL0     C57193   1.180  -0.205   1.101 -0.1386 -0.6184 -0.2193
  434MOL0     C57194   1.070  -0.204   1.209 -0.0153  0.9228  0.6326
  434MOL0     C57195   0.953  -0.132   1.144  0.0196  0.1492  0.7918
  434MOL0     C57196   0.822  -0.128   1.236  0.9193  0.5152 -0.6208
  434MOL0     C57197   0.837  -0.017   1.344  0.0452  0.6527  0.1195
  434MOL0     C57198   0.726   0.006   1.448  0.0739  0.4181 -0.8729
  434MOL0     C57199   0.587  -0.029   1.392 -0.8553  0.0224 -0.3768
  434MOL0    Cl57200   0.459  -0.028   1.520 -0.2159  0.2655  0.4090
  434MOL0     C57201   1.493  -0.049   1.061 -0.4070  0.2404  0.5819
  434MOL0     C57202   1.588   0.047   1.022  1.0759 -0.3651 -0.3516
  434MOL0     O57203   1.922   0.102   1.184  0.0819  0.0830  0.2756
  434MOL0     C57204   1.947   0.405   1.010  0.0305 -0.4625  0.4003
  434MOL0     C57205   2.034   0.513   0.979  0.6123  0.4445 -0.7630
  434MOL0     N57206   2.608   1.049   0.783  1.0463 -0.5684  0.2712
  434MOL0     N57207   2.722   1.118   0.757 -0.6707 -0.2147  0.0650
  434MOL0     C57208   3.954   1.151   0.485  0.0729  0.4006 -0.0744
  434MOL0     C57209   4.085   1.198   0.482  0.5906 -0.7458  0.1336
  434MOL0     C57210   4.500   1.330   0.531  0.2507  0.0594 -0.5509
  434MOL0     C57211   4.520   1.452   0.478 -0.2895 -0.1836 -0.1637
  434MOL0     C57212   4.647   1.495   0.430  0.3286 -0.3091 -0.2056
  434MOL0     C57213   4.753   1.406   0.426 -0.4236  0.5271 -0.7486
  434MOL0     O57214   4.884   1.427   0.383 -0.1143 -0.0459  0.0530
  434MOL0     C57215   4.978   1.462   0.483 -0.4167  0.4542  0.3079
  434MOL0     C57216   5.048   1.579   0.442 -0.3795 -0.0578  0.5507
  434MOL0     C57217   5.166   1.546   0.344  0.3558 -0.5471 -0.4810
  434MOL0     C57218   5.122   1.480   0.208  0.0911  0.7806  0.5185
  434MOL0     C57219   5.231   1.490   0.115 -0.0098 -1.1031 -0.0015
  434MOL0     C57220   5.313   1.488   0.025 -0.0584 -0.2352 -0.3152
  434MOL0     C57221   4.730   1.280   0.477 -0.3021  0.3576 -1.0670
  434MOL0     C57222   4.604   1.239   0.527 -1.2056  0.0063  0.7181
  434MOL0     H57223   4.074   1.476   0.668 -3.8950  2.1507  0.3774
  434MOL0     H57224   3.836   1.396   0.701  1.2763 -1.0396  1.0905
  434MOL0     H57225   3.614   1.321   0.646 -3.2767  0.4049  3.5751
  434MOL0     H57226   3.707   1.227   0.758  1.1356 -1.5330 -0.3934
  434MOL0     H57227   3.489   1.135   0.567  2.6740 -1.5680 -0.5795
  434MOL0     H57228   3.453   1.216   0.717  0.3033 -0.3111  0.5758
  434MOL0     H57229   3.562   1.060   0.854  1.9524 -0.6445 -0.4270
  434MOL0     H57230   3.621   0.955   0.727 -1.6717 -3.1932  0.7324
  434MOL0     H57231   3.373   0.898   0.658  0.5315 -5.2084 -0.1967
  434MOL0     H57232   3.422   0.824   0.803  1.2564 -1.1181 -1.9819
  434MOL0     H57233   3.268   1.085   0.764 -2.8033 -2.0900 -1.3449
  434MOL0     H57234   3.322   1.056   0.919 -2.2335  1.1910 -0.3048
  434MOL0     H57235   3.171   0.819   0.910 -0.6887 -1.6530 -2.3621
  434MOL0     H57236   3.145   0.850   0.748 -3.0633 -0.5555  0.9681
  434MOL0     H57237   2.975   0.921   0.925 -0.3299 -0.6083 -1.0199
  434MOL0     H57238   3.064   1.077   0.945  0.6055  2.5833 -2.8552
  434MOL0     H57239   2.975   0.990   0.662 -1.9304  1.1650 -1.2063
  434MOL0     H57240   2.968   1.153   0.741 -1.3308  1.2403  2.4320
  434MOL0     H57241   2.806   0.807   0.835 -0.2937 -0.2977 -0.1355
  434MOL0     H57242   2.559   0.707   0.833 -1.2713 -0.5715 -0.0581
  434MOL0     H57243   2.445   0.824   0.784  1.4039  0.8625 -1.0437
  434MOL0     H57244   2.505   0.886   1.067 -2.1656 -1.0787  2.8380
  434MOL0     H57245   2.498   0.711   1.042 -2.8233 -0.8963 -0.5023
  434MOL0     H57246   2.292   0.837   1.102  2.1581  1.4497 -0.0875
  434MOL0     H57247   2.298   0.930   0.950  0.6062  0.5514  1.4294
  434MOL0     H57248   2.290   0.701   0.832 -1.8540  1.3644 -0.5028
  434MOL0     H57249   2.141   0.751   0.897 -0.3362  0.5116  0.6917
  434MOL0     H57250   2.302   0.406   1.160  1.2066 -0.1757 -2.8692
  434MOL0     H57251   2.136   0.235   1.225  1.1519  3.1496  1.0801
  434MOL0     H57252   1.661   0.164   1.335 -3.3465 -1.3871  2.4042
  434MOL0     H57253   1.477   0.008   1.393 -1.4693 -0.3626 -0.9997
  434MOL0     H57254   1.317  -0.353   1.181  4.0600 -1.1594 -2.0108
  434MOL0     H57255   1.385  -0.273   1.066 -0.3257 -1.9688  1.5060
  434MOL0     H57256   1.140  -0.275   1.026 -2.8062  2.1204 -1.5866
  434MOL0     H57257   1.198  -0.115   1.041 -1.1097  0.8106  1.5459
  434MOL0     H57258   1.101  -0.153   1.301 -1.4791 -0.3719  1.9136
  434MOL0     H57259   1.045  -0.309   1.227 -1.3176  1.0485 -0.3604
  434MOL0     H57260   0.977  -0.026   1.128 -3.5982  0.9552 -0.4803
  434MOL0     H57261   0.934  -0.179   1.047  0.6882 -1.3117  1.3471
  434MOL0     H57262   0.798  -0.216   1.297 -0.8796  1.4616  0.0817
  434MOL0     H57263   0.741  -0.101   1.168  0.5866  1.2991  0.0750
  434MOL0     H57264   0.834   0.078   1.289 -0.2206  1.1471  0.9598
  434MOL0     H57265   0.932  -0.039   1.391 -0.8719 -1.8241  0.9547
  434MOL0     H57266   0.737  -0.070   1.525 -1.9765  0.2482 -0.7022
  434MOL0     H57267   0.746   0.102   1.498  0.7036 -0.4284  0.5534
  434MOL0     H57268   0.598  -0.130   1.352 -3.2678 -0.2846 -0.4406
  434MOL0     H57269   0.558   0.033   1.306  3.1821 -0.0372 -2.0015
  434MOL0     H57270   1.438  -0.109   0.989  2.1822 -0.9007 -0.5670
  434MOL0     H57271   1.600   0.069   0.916  2.8201 -1.9794 -0.5499
  434MOL0     H57272   1.846   0.417   0.972 -1.0184  0.5002  3.2331
  434MOL0     H57273   1.999   0.595   0.917 -1.2659  0.6333  0.4715
  434MOL0     H57274   3.930   1.062   0.428 -0.1547 -0.7181  1.6649
  434MOL0     H57275   4.173   1.147   0.445 -0.0372 -2.9067  1.4649
  434MOL0     H57276   4.445   1.528   0.454  0.4937 -0.3039 -3.5012
  434MOL0     H57277   4.654   1.598   0.396 -1.8211 -0.7118 -2.0889
  434MOL0     H57278   5.058   1.387   0.488 -1.9266 -1.2747 -0.3533
  434MOL0     H57279   4.931   1.465   0.581 -0.4028 -0.0188  0.3287
  434MOL0     H57280   4.977   1.656   0.409 -1.5838 -0.4970  1.9750
  434MOL0     H57281   5.106   1.615   0.527 -0.4524  2.2721 -0.3289
  434MOL0     H57282   5.238   1.486   0.400 -1.4666 -0.8746  1.7038
  434MOL0     H57283   5.214   1.641   0.322 -1.6085 -0.1460 -3.7079
  434MOL0     H57284   5.107   1.373   0.222  1.0974  0.6518  0.6683
  434MOL0     H57285   5.025   1.523   0.182  0.1524  0.1632 -0.7924
  434MOL0     H57286   5.399   1.482  -0.039  0.9663 -3.8545  1.1198
  434MOL0     H57287   4.814   1.212   0.480  1.3383  2.3273  0.1669
  434MOL0     H57288   4.595   1.137   0.562  0.1440 -1.0663 -1.8079
  435MOL0     O57289   3.233   9.196  11.031 -0.1596  0.0876  0.7630
  435MOL0     C57290   3.344   9.171  10.984  0.5400  0.6315 -0.0044
  435MOL0     O57291   3.385   9.059  10.916  0.0960 -0.1561 -0.8474
  435MOL0     C57292   3.296   8.985  10.845  0.2353 -0.4166 -0.8720
  435MOL0     C57293   3.304   8.848  10.842 -0.1106 -0.3175 -0.6556
  435MOL0     C57294   3.210   8.776  10.765  1.1628 -1.0241 -1.4399
  435MOL0     C57295   3.111   8.840  10.694 -0.2786  0.6018  0.4526
  435MOL0     O57296   3.046   8.757  10.609  0.0994 -0.5821 -0.6541
  435MOL0     C57297   2.939   8.809  10.533  0.0426 -0.1501  0.7232
  435MOL0     C57298   2.873   8.697  10.444 -0.2251  0.6260 -0.4393
  435MOL0     C57299   2.730   8.665  10.492 -0.0070 -0.4855  1.0387
  435MOL0     C57300   2.642   8.782  10.442 -0.5457 -0.4427  0.2617
  435MOL0     C57301   2.526   8.792  10.546 -0.2035  0.0825 -0.9689
  435MOL0     C57302   2.424   8.889  10.499  0.4557  0.3043 -0.3046
  435MOL0     C57303   2.319   8.844  10.395 -0.0498 -0.4970  0.2079
  435MOL0     C57304   2.243   8.969  10.351 -0.8188 -0.4055  0.4261
  435MOL0     N57305   2.104   8.917  10.312  0.3705 -0.0359 -0.5577
  435MOL0     C57306   2.008   8.857  10.392 -1.3314  0.6825 -0.2614
  435MOL0     C57307   1.904   8.851  10.314 -0.6744 -0.5179  0.2047
  435MOL0     C57308   1.767   8.806  10.366  0.1939 -0.0003  0.0787
  435MOL0     C57309   1.687   8.918  10.425  0.0143  0.0895 -0.6816
  435MOL0     C57310   1.549   8.868  10.448  0.6041  0.1104 -0.4825
  435MOL0     C57311   1.463   8.986  10.487  0.0357 -0.9779 -0.5819
  435MOL0     O57312   1.351   8.913  10.556 -1.6528 -0.4874 -0.4711
  435MOL0     C57313   1.235   8.890  10.489 -0.4242  0.4289  0.6268
  435MOL0     C57314   1.181   8.761  10.485  0.5666 -0.5106 -0.5084
  435MOL0     C57315   1.079   8.738  10.395  1.5232  0.2043  0.8445
  435MOL0     C57316   1.011   8.843  10.329  1.0458  0.2784 -0.4631
  435MOL0     C57317   0.891   8.832  10.244  0.4485  0.1166 -0.4748
  435MOL0     O57318   0.881   8.703  10.213  0.4896  0.3914  0.2628
  435MOL0     C57319   0.784   8.670  10.121  0.0597  0.7842 -1.4093
  435MOL0     C57320   0.650   8.678  10.150  0.7019  0.3494  0.5747
  435MOL0     C57321   0.558   8.629  10.058  0.0860 -0.2972 -0.1019
  435MOL0     C57322   0.588   8.601   9.922  0.4524 -0.1166 -0.2034
  435MOL0     O57323   0.513   8.562   9.817  0.3973 -0.0631 -0.4022
  435MOL0     C57324   0.373   8.592   9.845 -0.7523  0.1998 -0.5629
  435MOL0     C57325   0.306   8.464   9.893 -0.3341 -0.0070  0.0355
  435MOL0     C57326   0.169   8.508   9.959  0.7762  0.1286 -0.0511
  435MOL0     C57327   0.129   8.388  10.053  0.2536 -0.0468 -0.0605
  435MOL0     C57328  -0.004   8.408  10.117  1.2072  0.1555  0.2757
  435MOL0     C57329  -0.045   8.293  10.207 -0.1577  0.7563 -0.6759
  435MOL0     C57330  -0.187   8.289  10.250 -0.0746  0.2736 -0.4721
  435MOL0     C57331  -0.211   8.204  10.371  0.3834  0.8917  0.9548
  435MOL0    Cl57332  -0.221   8.030  10.340  0.0582  0.0655  0.1565
  435MOL0     C57333   0.718   8.602   9.894 -0.2124  0.0542  0.0435
  435MOL0     C57334   0.816   8.639   9.989 -0.1213  0.3154  0.0626
  435MOL0     O57335   0.828   8.931  10.204 -0.5136  0.1394 -0.0868
  435MOL0     C57336   1.053   8.976  10.356 -0.5467 -0.5491  0.2244
  435MOL0     C57337   1.172   8.997  10.421 -0.6265 -0.5771 -1.2402
  435MOL0     N57338   1.939   8.888  10.184 -0.2488  0.7642  1.0204
  435MOL0     N57339   2.056   8.935  10.182  0.9714  0.6723 -0.8347
  435MOL0     C57340   3.112   8.977  10.679 -1.1709 -0.4130 -0.1578
  435MOL0     C57341   3.200   9.046  10.758  1.5386  0.1149 -0.9774
  435MOL0     C57342   3.451   9.268  11.026  0.0615 -0.8506  1.4664
  435MOL0     C57343   3.431   9.393  11.095  0.4607 -1.0506 -0.2397
  435MOL0     C57344   3.540   9.479  11.126  0.2907  1.1300  0.0817
  435MOL0     C57345   3.672   9.458  11.098 -0.4502  0.5780  0.7280
  435MOL0     O57346   3.779   9.542  11.117 -0.3225  0.9362 -0.5338
  435MOL0     C57347   3.782   9.603  11.246 -0.5363 -0.3866 -0.8580
  435MOL0     C57348   3.914   9.674  11.256 -0.3563  0.0746 -0.2110
  435MOL0     C57349   4.026   9.582  11.207 -0.8701  0.3574  0.3189
  435MOL0     C57350   4.161   9.655  11.245  0.7789  0.3146  0.4114
  435MOL0     C57351   4.276   9.586  11.176  0.3716  0.4627  0.1523
  435MOL0     C57352   4.385   9.582  11.119  0.2357 -0.6536  0.0006
  435MOL0     C57353   3.690   9.341  11.016 -0.2024 -0.5756 -0.7846
  435MOL0     C57354   3.590   9.254  10.980  0.2915 -0.0281  0.4713
  435MOL0     H57355   3.386   8.799  10.895  0.3266 -1.7520 -2.5480
  435MOL0     H57356   3.209   8.668  10.769  0.5534 -1.0334 -1.7569
  435MOL0     H57357   2.959   8.890  10.462 -4.0073  0.2198 -0.2793
  435MOL0     H57358   2.860   8.850  10.597  0.7912 -0.4454  1.8707
  435MOL0     H57359   2.932   8.605  10.452 -1.1661 -0.3825 -3.5511
  435MOL0     H57360   2.877   8.717  10.336 -0.3517  0.5871 -0.4518
  435MOL0     H57361   2.713   8.644  10.598  0.8564  0.8993  1.4715
  435MOL0     H57362   2.701   8.579  10.431 -2.7122  0.4760  0.7880
  435MOL0     H57363   2.698   8.876  10.432  0.3263 -0.8448  1.2347
  435MOL0     H57364   2.602   8.748  10.346 -2.0908 -1.1604  1.1123
  435MOL0     H57365   2.569   8.840  10.634  0.1850  1.1296 -1.7152
  435MOL0     H57366   2.496   8.689  10.570  1.0621  0.2740  1.8971
  435MOL0     H57367   2.480   8.977  10.465  3.6989 -2.4709 -2.8299
  435MOL0     H57368   2.360   8.925  10.580  0.7980  0.6689 -0.1929
  435MOL0     H57369   2.367   8.811  10.301 -1.0875  2.2541 -1.3924
  435MOL0     H57370   2.263   8.760  10.437  0.9801 -0.4648  1.6943
  435MOL0     H57371   2.284   9.032  10.272  2.1010  0.2573  2.3265
  435MOL0     H57372   2.222   9.040  10.432  0.1301  2.3366 -1.5865
  435MOL0     H57373   1.999   8.843  10.499  1.0649 -3.7764 -0.4060
  435MOL0     H57374   1.773   8.733  10.448 -0.2686  0.1105  0.2110
  435MOL0     H57375   1.713   8.764  10.281  1.4069 -1.1502 -0.1670
  435MOL0     H57376   1.692   9.003  10.357 -1.8013  0.8108  0.0222
  435MOL0     H57377   1.721   8.952  10.523  0.7480  1.8940 -1.5114
  435MOL0     H57378   1.502   8.832  10.356  0.8354  0.9497 -0.9441
  435MOL0     H57379   1.549   8.783  10.517 -2.9955  1.2394  1.1801
  435MOL0     H57380   1.434   9.047  10.402  0.4842  2.1952  1.3709
  435MOL0     H57381   1.520   9.049  10.557  1.3362 -0.6965 -1.8457
  435MOL0     H57382   1.226   8.685  10.549 -2.4057  0.0157  2.4888
  435MOL0     H57383   1.035   8.641  10.376 -2.8571  1.4151  3.5063
  435MOL0     H57384   0.616   8.716  10.246 -1.1245  0.3789 -0.0531
  435MOL0     H57385   0.456   8.615  10.094 -0.9199 -0.0827 -2.6928
  435MOL0     H57386   0.331   8.629   9.751  0.9086 -2.2858 -2.4328
  435MOL0     H57387   0.364   8.679   9.910  0.3015 -0.4532  0.4931
  435MOL0     H57388   0.358   8.418   9.977 -1.2224 -0.6935  0.2316
  435MOL0     H57389   0.283   8.396   9.810 -1.1271 -0.3994  0.5648
  435MOL0     H57390   0.096   8.536   9.882  0.1844 -0.7026  0.1990
  435MOL0     H57391   0.176   8.590  10.031  1.2438 -0.5894  0.7379
  435MOL0     H57392   0.131   8.293  10.000  0.7169  1.0257 -2.0624
  435MOL0     H57393   0.200   8.377  10.136  1.4380 -0.9863 -1.1668
  435MOL0     H57394  -0.080   8.399  10.039  0.6339 -2.2255  1.0164
  435MOL0     H57395  -0.014   8.510  10.154  2.4352  1.3034 -2.3346
  435MOL0     H57396   0.024   8.308  10.290 -0.5137  0.7284 -0.3725
  435MOL0     H57397  -0.013   8.195  10.169  3.0169  0.0935  3.0160
  435MOL0     H57398  -0.213   8.392  10.276 -3.2732 -0.6586  0.5900
  435MOL0     H57399  -0.254   8.252  10.172 -1.9854 -2.4089  2.1568
  435MOL0     H57400  -0.303   8.245  10.413 -0.0729  2.4583 -1.3725
  435MOL0     H57401  -0.126   8.213  10.439  1.2741 -0.8371  0.1301
  435MOL0     H57402   0.765   8.582   9.799  1.6037 -4.9047  1.6577
  435MOL0     H57403   0.920   8.634   9.959 -0.0263 -1.4761  0.5335
  435MOL0     H57404   1.002   9.062  10.313  0.9489  0.6868  0.8343
  435MOL0     H57405   1.223   9.091  10.441 -0.6872 -0.1135 -3.1214
  435MOL0     H57406   3.050   9.041  10.617 -0.0346  1.5875  0.6778
  435MOL0     H57407   3.184   9.152  10.776  0.4399 -0.3185  0.8866
  435MOL0     H57408   3.332   9.419  11.132  0.4057  0.0223 -1.0974
  435MOL0     H57409   3.512   9.562  11.190  1.4589 -0.4248  2.7917
  435MOL0     H57410   3.765   9.532  11.328 -3.5251 -0.8589 -1.7865
  435MOL0     H57411   3.706   9.680  11.262 -1.3958 -1.2497 -0.7239
  435MOL0     H57412   3.907   9.768  11.202 -2.3332  0.2859  0.3329
  435MOL0     H57413   3.913   9.683  11.365  1.6607 -0.7185 -0.0997
  435MOL0     H57414   4.013   9.559  11.101 -3.2441 -1.9590  1.0208
  435MOL0     H57415   4.032   9.488  11.263  0.2165  1.4093  2.0526
  435MOL0     H57416   4.159   9.760  11.215  3.3831 -0.1699 -1.8886
  435MOL0     H57417   4.174   9.649  11.353 -1.1112  1.2319  0.7347
  435MOL0     H57418   4.487   9.570  11.088  0.2779 -1.8799  0.5564
  435MOL0     H57419   3.791   9.335  10.977 -0.7908  1.6211 -2.8743
  435MOL0     H57420   3.618   9.162  10.930  0.9813  0.3252  0.2059
  436MOL0     O57421   0.352  10.962   1.367  0.7766 -0.3920 -0.3247
  436MOL0     C57422   0.405  10.855   1.384  0.3778 -0.1784  0.4346
  436MOL0     O57423   0.518  10.821   1.459  0.4097  0.2399  0.0138
  436MOL0     C57424   0.573  10.916   1.536 -0.2343 -0.1154 -0.6000
  436MOL0     C57425   0.712  10.922   1.522 -0.6523 -0.1185 -0.3180
  436MOL0     C57426   0.785  10.994   1.617  0.0466 -0.1245  0.3316
  436MOL0     C57427   0.727  11.064   1.719 -0.9841 -0.7758 -0.6584
  436MOL0     O57428   0.815  11.118   1.816  0.9917  0.8865  0.2323
  436MOL0     C57429   0.775  11.127   1.954 -0.3769  0.1386  0.1721
  436MOL0     C57430   0.886  11.191   2.029 -0.2343  0.1955  0.4977
  436MOL0     C57431   1.022  11.142   2.008  0.0006  0.0928  0.5891
  436MOL0     C57432   1.117  11.243   2.064  0.3609 -0.3615 -0.9853
  436MOL0     C57433   1.262  11.219   2.017 -0.9402 -0.0871  0.2509
  436MOL0     C57434   1.284  11.218   1.864 -0.3268  0.3850  0.8581
  436MOL0     C57435   1.253  11.353   1.787  0.0186  0.3171 -0.1782
  436MOL0     C57436   1.112  11.372   1.728  1.0013 -0.4884 -0.4941
  436MOL0     N57437   1.092  11.514   1.687 -0.3842  0.1934  0.0845
  436MOL0     C57438   1.175  11.577   1.600  0.3879  0.0896 -0.3051
  436MOL0     C57439   1.107  11.689   1.550  1.0218  0.2716  0.0988
  436MOL0     C57440   1.158  11.778   1.438  0.0905 -1.4546  0.2234
  436MOL0     C57441   1.138  11.719   1.300  0.8972 -0.5772  0.2549
  436MOL0     C57442   1.240  11.781   1.203  0.8515  0.2716 -0.3244
  436MOL0     C57443   1.235  11.936   1.192 -0.0103  0.2822 -0.5004
  436MOL0     O57444   1.109  11.992   1.144  0.1618  0.4984 -0.5042
  436MOL0     C57445   1.115  12.017   1.006  0.1335 -0.5037 -0.3037
  436MOL0     C57446   1.194  12.111   0.949  0.5184  0.0134  0.3549
  436MOL0     C57447   1.199  12.116   0.806 -1.1115 -0.4030  0.3283
  436MOL0     C57448   1.131  12.029   0.717  0.5061 -0.2542 -0.6106
  436MOL0     C57449   1.134  12.052   0.564  0.0887  0.3661 -0.4549
  436MOL0     O57450   1.064  11.954   0.484 -0.0228 -0.6357 -0.2306
  436MOL0     C57451   1.090  11.946   0.348 -0.4277 -0.5054 -0.3559
  436MOL0     C57452   1.220  11.952   0.293  0.1138  0.6545  0.2867
  436MOL0     C57453   1.235  11.983   0.155 -0.6057  0.1861 -0.3242
  436MOL0     C57454   1.117  11.996   0.070  0.0014 -0.4180  0.0740
  436MOL0     O57455   1.134  12.023  -0.058  0.0821  0.4749  0.3409
  436MOL0     C57456   1.019  12.018  -0.140 -0.1345  0.1291  0.5837
  436MOL0     C57457   1.061  12.051  -0.282  0.0662 -0.9377 -0.5228
  436MOL0     C57458   0.955  12.012  -0.385  1.0164 -0.9361 -0.5514
  436MOL0     C57459   0.985  12.089  -0.522 -0.2397  0.1591  0.1872
  436MOL0     C57460   0.892  12.034  -0.632 -0.6350  0.0331 -0.1335
  436MOL0     C57461   0.951  11.885  -0.678 -0.4446 -0.0606  1.3924
  436MOL0     C57462   0.912  11.856  -0.824 -0.9315 -0.4017 -0.2322
  436MOL0     C57463   0.860  11.714  -0.866  0.0519  0.6122 -0.1760
  436MOL0    Cl57464   1.000  11.599  -0.851  0.2235 -0.1325 -0.0510
  436MOL0     C57465   0.992  11.968   0.132  1.3023  0.7606  0.3289
  436MOL0     C57466   0.976  11.946   0.268 -0.5888  0.1557 -0.2388
  436MOL0     O57467   1.198  12.148   0.520  0.8401 -0.0901 -0.3059
  436MOL0     C57468   1.046  11.939   0.783  0.0155 -0.2092  0.0242
  436MOL0     C57469   1.032  11.936   0.923  0.3882 -0.9278  0.0407
  436MOL0     N57470   0.980  11.685   1.612 -0.5955  0.3915 -0.2020
  436MOL0     N57471   0.978  11.585   1.699  0.0899 -0.6946  0.1884
  436MOL0     C57472   0.585  11.072   1.720 -1.5119  0.4486  0.4723
  436MOL0     C57473   0.510  10.984   1.637 -0.4228 -0.6989  0.4162
  436MOL0     C57474   0.343  10.744   1.302  0.3468 -0.3359 -0.7572
  436MOL0     C57475   0.210  10.760   1.254  0.2200  0.1822  0.0519
  436MOL0     C57476   0.155  10.654   1.177 -0.1998 -0.2627 -0.1305
  436MOL0     C57477   0.221  10.537   1.164 -0.3547  0.0903  0.3282
  436MOL0     O57478   0.161  10.428   1.116 -0.1724  0.2382  0.3292
  436MOL0     C57479   0.074  10.420   1.003  0.2295 -0.3727  0.0088
  436MOL0     C57480   0.148  10.474   0.888  0.1718  0.0288  0.4894
  436MOL0     C57481   0.293  10.412   0.862 -0.0062 -0.0856  0.2157
  436MOL0     C57482   0.370  10.469   0.742 -0.3740  0.3439 -1.2189
  436MOL0     C57483   0.291  10.470   0.618  0.0351  0.2822  0.6660
  436MOL0     C57484   0.238  10.455   0.508 -1.4823 -0.0942 -0.7994
  436MOL0     C57485   0.345  10.518   1.218  0.2201 -0.4376 -0.5705
  436MOL0     C57486   0.410  10.620   1.283 -0.6262  0.0599 -0.8132
  436MOL0     H57487   0.766  10.876   1.441 -0.3981 -1.1412  0.4087
  436MOL0     H57488   0.891  10.970   1.616 -0.6276 -3.8747 -1.2108
  436MOL0     H57489   0.762  11.023   1.985 -1.6353 -0.0364 -0.8528
  436MOL0     H57490   0.683  11.180   1.981 -0.2954  0.0860  0.5675
  436MOL0     H57491   0.881  11.178   2.138 -0.2921  0.0605  0.4792
  436MOL0     H57492   0.888  11.299   2.011 -0.2659  0.0596 -0.3313
  436MOL0     H57493   1.035  11.133   1.900 -0.1906  1.3493  0.4450
  436MOL0     H57494   1.051  11.048   2.056  1.6517 -1.4516 -2.9979
  436MOL0     H57495   1.086  11.345   2.040  2.2362  0.1880 -1.2448
  436MOL0     H57496   1.112  11.236   2.173  1.8620 -0.2994 -0.8846
  436MOL0     H57497   1.298  11.121   2.049 -1.5157 -2.2303 -4.6588
  436MOL0     H57498   1.329  11.290   2.066 -0.6850 -0.9556  1.1975
  436MOL0     H57499   1.226  11.134   1.824  0.6010 -0.2268  0.7857
  436MOL0     H57500   1.388  11.187   1.850 -0.4028 -0.5677  2.1982
  436MOL0     H57501   1.270  11.425   1.868  2.8730 -0.7409  0.2615
  436MOL0     H57502   1.322  11.359   1.703  2.3074 -0.6589  1.5270
  436MOL0     H57503   1.030  11.332   1.788  1.3868 -3.1920 -1.5895
  436MOL0     H57504   1.085  11.309   1.642 -4.1140  1.3727 -0.5949
  436MOL0     H57505   1.278  11.553   1.577  1.4671  2.0673  2.0763
  436MOL0     H57506   1.262  11.807   1.455 -0.0406 -1.7418  1.5960
  436MOL0     H57507   1.106  11.874   1.437  4.7495  1.4244  0.9714
  436MOL0     H57508   1.034  11.739   1.274  0.5942  0.3198  1.9973
  436MOL0     H57509   1.143  11.610   1.295 -1.2381 -0.6569 -1.8093
  436MOL0     H57510   1.333  11.742   1.245 -0.1842 -0.4184  1.4799
  436MOL0     H57511   1.216  11.730   1.110 -0.6841  0.8701 -0.2891
  436MOL0     H57512   1.321  11.959   1.128 -0.5880  0.8715 -1.0886
  436MOL0     H57513   1.258  11.972   1.293 -0.0937  0.3329 -0.4993
  436MOL0     H57514   1.242  12.180   1.018  1.4775 -1.5041  1.2529
  436MOL0     H57515   1.265  12.197   0.773  0.3414 -0.7642  2.1548
  436MOL0     H57516   1.297  11.944   0.370  0.9532  3.7622 -0.0812
  436MOL0     H57517   1.333  11.993   0.109 -0.4430 -0.7160 -0.2003
  436MOL0     H57518   0.948  12.098  -0.115  1.0677  1.8789 -1.2681
  436MOL0     H57519   0.971  11.920  -0.132 -0.4547  0.2178 -0.2079
  436MOL0     H57520   1.155  11.998  -0.296 -0.7033 -2.4032 -0.2514
  436MOL0     H57521   1.076  12.160  -0.288  1.7311 -1.2054 -5.4819
  436MOL0     H57522   0.857  12.039  -0.343  1.6051  1.0185 -0.3218
  436MOL0     H57523   0.947  11.903  -0.388  0.1845 -0.9004 -0.0821
  436MOL0     H57524   0.981  12.198  -0.509  1.2310 -0.1011  3.8346
  436MOL0     H57525   1.086  12.055  -0.548  1.2426  3.6160  0.8542
  436MOL0     H57526   0.904  12.093  -0.724 -3.2851 -1.1119 -1.3075
  436MOL0     H57527   0.789  12.022  -0.599 -0.5803  0.7813  0.3425
  436MOL0     H57528   0.906  11.805  -0.618 -3.1799 -1.3803 -2.1006
  436MOL0     H57529   1.060  11.881  -0.675 -0.4057 -2.2525 -0.7552
  436MOL0     H57530   0.832  11.928  -0.845  0.3810  1.2847  0.3927
  436MOL0     H57531   1.002  11.877  -0.882  1.2835  2.5255  3.7611
  436MOL0     H57532   0.846  11.716  -0.974  3.3589 -0.2293 -0.7444
  436MOL0     H57533   0.768  11.680  -0.817 -0.0170 -1.0999 -1.4025
  436MOL0     H57534   0.900  11.966   0.074  1.3957 -1.6212  0.1697
  436MOL0     H57535   0.879  11.942   0.317 -1.1654  0.3982 -1.3167
  436MOL0     H57536   0.999  11.871   0.713  0.2560  1.7303 -2.1441
  436MOL0     H57537   0.973  11.865   0.980 -2.1618  0.3764 -0.8212
  436MOL0     H57538   0.537  11.138   1.792  0.5150 -0.0409  2.3580
  436MOL0     H57539   0.402  10.989   1.649 -0.5161 -0.2840 -0.5399
  436MOL0     H57540   0.157  10.854   1.266  1.6611  1.1362 -0.6513
  436MOL0     H57541   0.058  10.680   1.135 -0.6404  3.5980  2.7000
  436MOL0     H57542  -0.019  10.478   1.012  0.4227  0.1503 -1.2172
  436MOL0     H57543   0.040  10.316   0.994 -1.2915 -0.0099  1.1739
  436MOL0     H57544   0.092  10.460   0.795  4.5349  0.7974 -2.5088
  436MOL0     H57545   0.171  10.580   0.905  4.5957 -0.9754  1.9249
  436MOL0     H57546   0.290  10.302   0.859  0.5977 -0.0787 -1.2453
  436MOL0     H57547   0.356  10.434   0.949 -1.1718  2.0409  0.5892
  436MOL0     H57548   0.396  10.574   0.760 -0.7455  0.2871 -0.3117
  436MOL0     H57549   0.464  10.414   0.729 -0.5119  0.3021 -2.0795
  436MOL0     H57550   0.202  10.452   0.408  2.1851 -2.8220 -2.2660
  436MOL0     H57551   0.390  10.419   1.224  1.0313 -0.0404  0.2474
  436MOL0     H57552   0.511  10.605   1.320  1.5605  1.5573 -5.3533
  437MOL0     O57553   6.446   0.352  11.266  0.0917  0.4198 -0.1489
  437MOL0     C57554   6.471   0.422  11.168  0.3526 -0.2848  0.3203
  437MOL0     O57555   6.399   0.530  11.117 -0.1978 -0.0889 -0.0010
  437MOL0     C57556   6.284   0.560  11.184 -0.1686  0.2155  0.4777
  437MOL0     C57557   6.166   0.551  11.102 -0.0130  0.2056 -0.4534
  437MOL0     C57558   6.048   0.617  11.148  0.4747 -0.8100 -0.1142
  437MOL0     C57559   6.039   0.651  11.285 -1.2142 -0.5300  0.1517
  437MOL0     O57560   5.918   0.676  11.347  0.3174 -0.0331  0.2592
  437MOL0     C57561   5.800   0.706  11.264 -0.4140 -0.2858 -0.7077
  437MOL0     C57562   5.672   0.745  11.352  0.0659  0.3230 -0.0688
  437MOL0     C57563   5.541   0.729  11.272  0.2754  0.5628 -0.5370
  437MOL0     C57564   5.510   0.850  11.176 -0.0023  0.0750 -0.1703
  437MOL0     C57565   5.449   0.970  11.257 -0.5817  1.0636  0.3018
  437MOL0     C57566   5.367   1.063  11.162 -0.8631 -0.7450  0.4424
  437MOL0     C57567   5.336   1.192  11.231  0.6102  0.3686  0.3353
  437MOL0     C57568   5.245   1.276  11.151  0.0733  0.6602 -0.9290
  437MOL0     N57569   5.115   1.218  11.122 -0.6848 -0.3303  0.1527
  437MOL0     C57570   5.070   1.203  10.998  0.6326  0.1447  0.1261
  437MOL0     C57571   4.948   1.140  11.012 -0.6992  0.0137 -0.5774
  437MOL0     C57572   4.866   1.128  10.883 -0.3547  0.0388  0.3361
  437MOL0     C57573   4.777   1.004  10.900  0.2792  0.3195  0.8259
  437MOL0     C57574   4.690   0.976  10.770  0.9083 -0.1853  0.5575
  437MOL0     C57575   4.566   0.889  10.797 -0.7239  1.3902  0.5625
  437MOL0     O57576   4.477   0.892  10.677 -0.0291 -0.7660 -0.2489
  437MOL0     C57577   4.382   0.992  10.668 -0.4617 -0.5535  0.6572
  437MOL0     C57578   4.363   1.096  10.755  0.0719  0.0394  1.1828
  437MOL0     C57579   4.276   1.197  10.727  1.0510 -0.4252 -0.3333
  437MOL0     C57580   4.186   1.198  10.621 -0.2795  0.2095 -0.0387
  437MOL0     C57581   4.071   1.297  10.598 -0.0499 -1.0836 -0.0563
  437MOL0     O57582   3.997   1.274  10.479  0.0305  1.1257  0.6837
  437MOL0     C57583   3.910   1.359  10.422  0.2540  0.1863  0.5899
  437MOL0     C57584   3.951   1.495  10.415  0.4347 -0.9543  0.7558
  437MOL0     C57585   3.862   1.583  10.348  0.0709  0.7259 -0.2517
  437MOL0     C57586   3.737   1.533  10.312  0.3146 -1.3515 -0.3105
  437MOL0     O57587   3.664   1.639  10.251  0.9541 -0.6387  0.0533
  437MOL0     C57588   3.544   1.597  10.190 -0.0117 -0.2988 -0.7060
  437MOL0     C57589   3.486   1.698  10.100  0.2690 -0.3946  0.2790
  437MOL0     C57590   3.570   1.737   9.976 -0.0013  1.5484  0.1376
  437MOL0     C57591   3.516   1.850   9.892 -0.2326  1.1744  0.2398
  437MOL0     C57592   3.595   1.852   9.763 -1.1515  0.9509  0.9851
  437MOL0     C57593   3.541   1.938   9.647 -0.2760 -0.4627  0.3541
  437MOL0     C57594   3.608   1.925   9.509  0.1468  0.7435  0.1465
  437MOL0     C57595   3.554   2.008   9.396  0.0638 -0.0921 -0.9241
  437MOL0    Cl57596   3.382   1.959   9.366  0.1149  0.3874  0.3945
  437MOL0     C57597   3.698   1.399  10.338 -0.2394 -1.1121  0.0044
  437MOL0     C57598   3.786   1.308  10.382 -0.3132  0.6397 -0.4152
  437MOL0     O57599   4.068   1.393  10.672 -0.2867  0.3431  0.4902
  437MOL0     C57600   4.201   1.087  10.530 -0.0460 -0.9490  1.0562
  437MOL0     C57601   4.302   0.998  10.550 -0.4053  0.6708  1.1154
  437MOL0     N57602   4.926   1.112  11.146 -0.9906 -0.5991 -0.9318
  437MOL0     N57603   5.033   1.157  11.211 -0.0051 -1.0600  0.0109
  437MOL0     C57604   6.146   0.644  11.370  0.4632  0.5657 -0.5068
  437MOL0     C57605   6.264   0.594  11.325  0.4198  0.1684 -0.1782
  437MOL0     C57606   6.592   0.390  11.080 -0.3182 -0.2909 -0.2618
  437MOL0     C57607   6.626   0.479  10.975  0.3981 -0.1734  0.1116
  437MOL0     C57608   6.738   0.444  10.896 -0.3139 -0.1420  0.0660
  437MOL0     C57609   6.825   0.335  10.921  0.2043  0.0793  0.3175
  437MOL0     O57610   6.942   0.300  10.864 -0.0420 -0.0329 -0.3629
  437MOL0     C57611   6.987   0.384  10.754 -0.4281 -0.9647 -0.4736
  437MOL0     C57612   7.137   0.396  10.759 -1.0726 -0.0924  0.4695
  437MOL0     C57613   7.193   0.457  10.632 -0.7968  0.5248  0.6206
  437MOL0     C57614   7.338   0.418  10.595  0.2233  0.9103 -0.4297
  437MOL0     C57615   7.427   0.441  10.711  1.4487 -0.1628  0.3725
  437MOL0     C57616   7.495   0.451  10.816 -0.1534  0.7556 -0.4770
  437MOL0     C57617   6.791   0.249  11.028  0.0677  0.5307 -0.0199
  437MOL0     C57618   6.677   0.275  11.106  0.5914  0.4577  0.7145
  437MOL0     H57619   6.188   0.512  11.003 -0.2002 -0.7257 -0.1394
  437MOL0     H57620   5.967   0.619  11.075 -0.5815 -1.7740  0.9901
  437MOL0     H57621   5.787   0.620  11.197  1.7018 -0.0036 -1.5524
  437MOL0     H57622   5.827   0.784  11.193  2.0631  0.3343  0.7886
  437MOL0     H57623   5.686   0.847  11.388  3.6988  0.0088 -0.1685
  437MOL0     H57624   5.677   0.674  11.436 -1.2665 -1.1276 -1.1691
  437MOL0     H57625   5.453   0.714  11.336  0.6744  1.5733  0.2818
  437MOL0     H57626   5.543   0.642  11.206  0.2143  1.1823 -1.3639
  437MOL0     H57627   5.593   0.877  11.110 -2.1324  1.0054 -2.6292
  437MOL0     H57628   5.436   0.815  11.103 -1.1714  1.5520  0.2603
  437MOL0     H57629   5.533   1.032  11.290 -1.4668  2.3049  0.2969
  437MOL0     H57630   5.398   0.924  11.341  0.1324  0.0368  0.1930
  437MOL0     H57631   5.279   1.003  11.136  0.0498 -1.0023 -2.4036
  437MOL0     H57632   5.416   1.072  11.064 -3.3460 -0.2117 -0.8301
  437MOL0     H57633   5.284   1.179  11.326 -0.4605  0.7517 -0.1837
  437MOL0     H57634   5.432   1.242  11.241  1.2454 -0.3797 -1.5141
  437MOL0     H57635   5.296   1.295  11.056  3.5407 -0.7732  0.4784
  437MOL0     H57636   5.239   1.368  11.210 -1.4421 -1.4468  2.5425
  437MOL0     H57637   5.103   1.232  10.898 -1.1328  1.2794 -0.1607
  437MOL0     H57638   4.925   1.124  10.791 -1.2608  1.8732 -0.3824
  437MOL0     H57639   4.812   1.218  10.853  0.5584  2.3902  4.7675
  437MOL0     H57640   4.711   1.028  10.983  1.4196  1.9226  1.3387
  437MOL0     H57641   4.838   0.917  10.926  1.2139  0.6557 -0.1466
  437MOL0     H57642   4.665   1.076  10.735  1.0533  0.2294  1.6211
  437MOL0     H57643   4.750   0.916  10.701  3.3296  1.1872  1.3718
  437MOL0     H57644   4.506   0.925  10.881 -5.4945  2.9115 -3.0107
  437MOL0     H57645   4.592   0.784  10.812  2.2904  2.0722  0.8155
  437MOL0     H57646   4.426   1.112  10.842  1.6313 -0.4053  0.1761
  437MOL0     H57647   4.273   1.281  10.796  3.6348  2.2433 -3.1515
  437MOL0     H57648   4.044   1.542  10.447  0.3722 -0.5127  0.3056
  437MOL0     H57649   3.882   1.689  10.330  2.9330 -0.2937 -5.0947
  437MOL0     H57650   3.464   1.564  10.257  1.6672 -1.6195  0.7483
  437MOL0     H57651   3.577   1.519  10.121 -0.4511  0.6804 -2.0596
  437MOL0     H57652   3.453   1.785  10.158 -0.7273 -1.7395  1.8414
  437MOL0     H57653   3.400   1.647  10.054 -0.5495 -0.7328  2.0854
  437MOL0     H57654   3.580   1.650   9.911  5.1408  0.7241  1.5489
  437MOL0     H57655   3.674   1.761  10.003  0.4826 -0.3091  0.0875
  437MOL0     H57656   3.411   1.829   9.870 -0.3837  2.4750 -0.3914
  437MOL0     H57657   3.524   1.936   9.960 -1.9201  0.8881  0.8606
  437MOL0     H57658   3.598   1.747   9.731 -1.9248  1.0192  0.6791
  437MOL0     H57659   3.699   1.882   9.780 -1.0112  1.4093 -0.5013
  437MOL0     H57660   3.561   2.042   9.674 -0.9076  0.3644 -2.1170
  437MOL0     H57661   3.435   1.918   9.631  0.5523 -2.0867 -4.8619
  437MOL0     H57662   3.713   1.951   9.497  0.1629  0.3360 -0.6621
  437MOL0     H57663   3.600   1.820   9.479 -3.5436  0.5417  1.2512
  437MOL0     H57664   3.598   1.974   9.301 -1.1423  0.4338 -1.6892
  437MOL0     H57665   3.571   2.116   9.403  2.9309 -0.3002 -2.8618
  437MOL0     H57666   3.602   1.366  10.301 -0.9119 -2.0880  2.4327
  437MOL0     H57667   3.763   1.202  10.383 -1.1817  0.6813  3.9847
  437MOL0     H57668   4.139   1.091  10.441  1.4789  1.3203 -0.0029
  437MOL0     H57669   4.314   0.911  10.486  0.2253  2.1223 -0.8188
  437MOL0     H57670   6.137   0.657  11.478  2.3369 -4.9756  0.6676
  437MOL0     H57671   6.343   0.582  11.398  0.3557  0.0579 -0.1270
  437MOL0     H57672   6.566   0.567  10.955 -2.2267 -1.5497  1.4153
  437MOL0     H57673   6.762   0.514  10.816 -2.0591 -0.4609 -0.7829
  437MOL0     H57674   6.956   0.489  10.749  1.5249 -0.1706  1.8269
  437MOL0     H57675   6.966   0.323  10.666 -0.1939  1.2198 -2.1425
  437MOL0     H57676   7.180   0.447  10.845  0.6283 -1.0377  0.2208
  437MOL0     H57677   7.165   0.291  10.770  0.8526  0.5306  1.9897
  437MOL0     H57678   7.183   0.566  10.638 -1.2404  0.7213 -2.3011
  437MOL0     H57679   7.126   0.429  10.551  1.1663 -0.0830 -0.8735
  437MOL0     H57680   7.340   0.312  10.568  1.1605  0.6763  0.5219
  437MOL0     H57681   7.361   0.473  10.503 -1.3812 -1.6524 -2.5278
  437MOL0     H57682   7.539   0.467  10.912  0.8350  3.4517 -1.2823
  437MOL0     H57683   6.857   0.167  11.057  1.6449  2.0820  1.0068
  437MOL0     H57684   6.674   0.210  11.192  1.2024 -1.3832 -0.5905
  438MOL0     O57685  10.613   1.822   0.635  0.3515  0.0996 -0.6006
  438MOL0     C57686  10.728   1.867   0.632  0.0552  0.9044 -0.8879
  438MOL0     O57687  10.837   1.806   0.573  0.4283  0.0809  0.2656
  438MOL0     C57688  10.812   1.679   0.524  0.2148  0.0502 -0.1071
  438MOL0     C57689  10.781   1.556   0.603 -0.1462 -0.6816  0.2306
  438MOL0     C57690  10.769   1.427   0.545  0.1659 -0.8857  1.2034
  438MOL0     C57691  10.790   1.416   0.404  0.3388  0.1572  0.2753
  438MOL0     O57692  10.764   1.288   0.362  0.2714  0.5353 -0.6158
  438MOL0     C57693  10.684   1.254   0.241 -0.3914 -0.2806 -0.7152
  438MOL0     C57694  10.541   1.304   0.271  0.0040 -0.3334 -0.2127
  438MOL0     C57695  10.474   1.228   0.387 -0.4195 -0.7804 -0.3458
  438MOL0     C57696  10.319   1.259   0.386  0.1012 -0.1979  0.0583
  438MOL0     C57697  10.231   1.155   0.462 -0.3846  0.2696  0.7333
  438MOL0     C57698  10.095   1.226   0.495  0.0468 -0.7492 -0.4745
  438MOL0     C57699  10.027   1.163   0.615 -0.4527  0.5689  0.3255
  438MOL0     C57700   9.887   1.225   0.648 -0.3901  0.2296  0.4756
  438MOL0     N57701   9.776   1.166   0.570  0.5754 -0.1536  0.4009
  438MOL0     C57702   9.736   1.207   0.449  0.6874 -0.3320  1.0071
  438MOL0     C57703   9.625   1.137   0.422 -0.0229 -0.5150 -0.0561
  438MOL0     C57704   9.541   1.147   0.301  0.0963  0.0022  0.1510
  438MOL0     C57705   9.621   1.155   0.171  0.2659  0.0463 -0.0600
  438MOL0     C57706   9.723   1.031   0.152 -0.2690  0.4153 -0.4671
  438MOL0     C57707   9.875   1.078   0.138 -0.3227 -0.8332  0.3800
  438MOL0     O57708   9.959   0.967   0.132 -0.6482  0.7159 -0.3153
  438MOL0     C57709  10.093   0.993   0.102  0.3154  0.7978  0.4372
  438MOL0     C57710  10.147   1.116   0.058 -0.4069  0.3472  0.1833
  438MOL0     C57711  10.286   1.129   0.025  0.3458  0.3678 -0.2893
  438MOL0     C57712  10.371   1.021   0.043 -0.0290  0.2530  0.0167
  438MOL0     C57713  10.509   1.019  -0.009 -0.1134 -0.1325 -0.4253
  438MOL0     O57714  10.589   0.927   0.043  0.7243  0.6186 -0.5208
  438MOL0     C57715  10.713   0.913  -0.003 -0.5898  0.7039  0.6844
  438MOL0     C57716  10.746   0.799  -0.083  0.2939 -1.3907 -1.6238
  438MOL0     C57717  10.877   0.773  -0.117  0.4054 -0.2241 -0.5904
  438MOL0     C57718  10.987   0.855  -0.090  0.1517 -0.3507 -0.5787
  438MOL0     O57719  11.112   0.810  -0.140  0.2818  0.7164  0.2675
  438MOL0     C57720  11.231   0.879  -0.096  0.8390 -0.2925  0.2333
  438MOL0     C57721  11.354   0.820  -0.156 -0.1980  0.8026 -0.7733
  438MOL0     C57722  11.390   0.840  -0.295 -0.4249 -0.6975  0.1787
  438MOL0     C57723  11.521   0.769  -0.338 -0.2659  0.2969  0.8156
  438MOL0     C57724  11.561   0.805  -0.480  0.5738  0.2762  0.1739
  438MOL0     C57725  11.707   0.770  -0.501 -0.0670  1.2167 -0.9150
  438MOL0     C57726  11.736   0.613  -0.495 -0.0392 -0.1827 -0.7623
  438MOL0     C57727  11.884   0.581  -0.508 -0.8660  0.0331  0.0826
  438MOL0    Cl57728  11.948   0.613  -0.673  0.1883 -0.4165  0.2719
  438MOL0     C57729  10.948   0.984  -0.029  0.0416 -0.1913  0.5696
  438MOL0     C57730  10.813   1.002   0.018  0.6145  0.3523 -0.7900
  438MOL0     O57731  10.536   1.112  -0.077  0.1627  0.0427  1.2396
  438MOL0     C57732  10.308   0.898   0.079  0.4104  0.1860 -0.6508
  438MOL0     C57733  10.177   0.883   0.114  0.6247  0.0434 -0.5968
  438MOL0     N57734   9.590   1.067   0.537 -0.1057 -0.1685  0.1256
  438MOL0     N57735   9.691   1.073   0.615 -0.4189 -0.8262 -0.1629
  438MOL0     C57736  10.811   1.529   0.316  0.1690  0.9161  0.3998
  438MOL0     C57737  10.826   1.653   0.380 -0.6058 -0.2822  0.7691
  438MOL0     C57738  10.739   1.999   0.688 -0.3568 -0.1895 -0.5409
  438MOL0     C57739  10.803   2.092   0.609 -0.4956 -1.1216  0.7314
  438MOL0     C57740  10.828   2.221   0.654  1.3692 -0.0070  0.1126
  438MOL0     C57741  10.747   2.265   0.759  0.0096  0.3321 -0.3076
  438MOL0     O57742  10.756   2.397   0.807  0.4956 -0.2940  1.5961
  438MOL0     C57743  10.770   2.513   0.720 -0.7325  0.0558 -0.2949
  438MOL0     C57744  10.711   2.650   0.775 -0.3009  0.3878  0.0211
  438MOL0     C57745  10.821   2.740   0.835  0.8345 -1.2042 -0.4321
  438MOL0     C57746  10.771   2.861   0.916 -0.1114 -0.3309  1.0591
  438MOL0     C57747  10.661   2.846   1.015  1.0126  0.3730 -0.7668
  438MOL0     C57748  10.563   2.823   1.091 -0.1656 -0.2615  0.7941
  438MOL0     C57749  10.663   2.172   0.829 -0.6455 -0.4804  0.4534
  438MOL0     C57750  10.675   2.040   0.800  0.4802 -0.0389  0.4568
  438MOL0     H57751  10.764   1.574   0.708 -1.0002 -0.6378  0.0908
  438MOL0     H57752  10.729   1.350   0.610  1.3535 -2.9275 -0.3522
  438MOL0     H57753  10.689   1.145   0.237  0.7922 -0.2802  0.0733
  438MOL0     H57754  10.744   1.296   0.159  4.2439 -2.4644  1.1927
  438MOL0     H57755  10.475   1.265   0.194 -0.4884 -0.5298  0.2996
  438MOL0     H57756  10.519   1.411   0.283 -2.3603 -0.2039 -3.9849
  438MOL0     H57757  10.516   1.258   0.483 -0.4906 -2.0270  0.0950
  438MOL0     H57758  10.480   1.120   0.370  0.4258 -0.2033 -4.8351
  438MOL0     H57759  10.316   1.348   0.450  1.8134 -0.9598  1.2813
  438MOL0     H57760  10.284   1.272   0.284 -5.0622 -5.2322  0.6577
  438MOL0     H57761  10.278   1.125   0.556 -2.1971 -2.4691  0.8639
  438MOL0     H57762  10.208   1.065   0.404 -1.0289  1.2346 -0.5492
  438MOL0     H57763  10.021   1.225   0.414 -1.2821 -2.2739  0.7105
  438MOL0     H57764  10.115   1.331   0.518 -0.1310 -0.7236 -0.4398
  438MOL0     H57765  10.016   1.055   0.596  1.6079  0.4063 -0.1665
  438MOL0     H57766  10.084   1.184   0.705 -2.1565 -0.0453  1.5983
  438MOL0     H57767   9.895   1.332   0.629  2.3973  0.0117  0.0338
  438MOL0     H57768   9.857   1.215   0.753 -0.7912  0.2603  0.3668
  438MOL0     H57769   9.784   1.277   0.381 -0.9064 -0.7986 -0.6942
  438MOL0     H57770   9.478   1.235   0.315  0.8518  0.6988 -0.6875
  438MOL0     H57771   9.473   1.061   0.302  0.7772 -0.6006  2.5950
  438MOL0     H57772   9.687   1.240   0.191  1.1048 -0.6501  0.2386
  438MOL0     H57773   9.571   1.176   0.076  2.5884  0.6603 -1.2360
  438MOL0     H57774   9.710   0.948   0.222  1.7769  0.4547  0.0193
  438MOL0     H57775   9.701   0.986   0.054  0.6420 -0.1321 -0.4315
  438MOL0     H57776   9.892   1.153   0.216 -3.1042  0.6411 -0.2669
  438MOL0     H57777   9.877   1.130   0.042 -0.0954 -0.6140  0.5028
  438MOL0     H57778  10.069   1.191   0.046 -1.6680 -0.7344  1.3485
  438MOL0     H57779  10.333   1.218  -0.014 -2.4288  1.5064 -1.2825
  438MOL0     H57780  10.674   0.719  -0.100  1.5533 -3.1028  0.4783
  438MOL0     H57781  10.888   0.679  -0.170  0.7504 -1.5085  1.6454
  438MOL0     H57782  11.232   0.876   0.013 -1.6798  3.5344  0.5488
  438MOL0     H57783  11.224   0.985  -0.123  1.7965 -0.2880 -0.0448
  438MOL0     H57784  11.346   0.712  -0.144  1.1975  0.6733 -0.7948
  438MOL0     H57785  11.435   0.855  -0.090 -1.4734 -1.2772  2.1130
  438MOL0     H57786  11.396   0.943  -0.330 -0.4547 -1.3782 -1.9630
  438MOL0     H57787  11.303   0.802  -0.350 -2.9116  0.3198  3.1180
  438MOL0     H57788  11.594   0.782  -0.258  1.8753 -0.1567 -0.9776
  438MOL0     H57789  11.500   0.661  -0.343  1.7479 -0.0802 -1.3318
  438MOL0     H57790  11.551   0.914  -0.489 -0.6990  0.0110 -2.8612
  438MOL0     H57791  11.494   0.766  -0.557 -1.9864 -0.6750  2.7316
  438MOL0     H57792  11.763   0.819  -0.420  0.3025 -2.8916  1.5805
  438MOL0     H57793  11.739   0.803  -0.601  2.9242 -0.1493 -0.5195
  438MOL0     H57794  11.693   0.581  -0.400 -0.3488  1.2940 -0.3820
  438MOL0     H57795  11.690   0.563  -0.581 -1.0637 -1.2760  0.3853
  438MOL0     H57796  11.897   0.473  -0.494 -0.6531 -0.3363 -2.4531
  438MOL0     H57797  11.941   0.635  -0.433  2.8364 -1.8916 -1.1058
  438MOL0     H57798  11.023   1.059  -0.006 -1.2103  1.7494 -1.3097
  438MOL0     H57799  10.793   1.096   0.069 -0.6812  0.2784 -1.1243
  438MOL0     H57800  10.379   0.817   0.072  2.2773  1.8012 -1.4956
  438MOL0     H57801  10.142   0.781   0.129  0.0897 -0.3912 -3.9566
  438MOL0     H57802  10.831   1.516   0.210 -0.6621 -2.5420  0.5221
  438MOL0     H57803  10.856   1.735   0.316 -3.8254 -1.3830 -2.4768
  438MOL0     H57804  10.860   2.076   0.518 -0.3624  2.6067  0.0264
  438MOL0     H57805  10.894   2.284   0.595 -1.2021  0.9261 -1.9339
  438MOL0     H57806  10.713   2.486   0.631 -1.9962  0.6092  0.3190
  438MOL0     H57807  10.877   2.512   0.695 -0.9608  0.2785 -1.3157
  438MOL0     H57808  10.670   2.708   0.692  0.2512  1.0034  0.1635
  438MOL0     H57809  10.625   2.623   0.836 -1.1149  0.2552 -1.1495
  438MOL0     H57810  10.877   2.782   0.750  0.5654  1.2908  0.5448
  438MOL0     H57811  10.880   2.674   0.899 -0.4400 -0.4248  1.6591
  438MOL0     H57812  10.847   2.928   0.957  1.6435  0.0961 -2.5096
  438MOL0     H57813  10.724   2.921   0.837 -0.3791 -0.6004  1.0105
  438MOL0     H57814  10.478   2.818   1.156  0.2425  0.5429  1.4226
  438MOL0     H57815  10.601   2.222   0.903  0.3896  1.1455  0.2798
  438MOL0     H57816  10.620   1.967   0.857  0.5991 -0.0922  0.5030
  439MOL0     O57817   9.575   4.566   2.947  0.1774  0.0905  0.0245
  439MOL0     C57818   9.498   4.493   2.886  0.7495  0.0776 -0.2255
  439MOL0     O57819   9.466   4.484   2.757  0.0620 -1.0512 -0.1149
  439MOL0     C57820   9.534   4.567   2.668  0.2110 -0.5072  0.5795
  439MOL0     C57821   9.618   4.507   2.570 -0.2932  0.3368 -0.9806
  439MOL0     C57822   9.678   4.589   2.471  0.7201 -0.0201  0.1859
  439MOL0     C57823   9.656   4.730   2.470 -0.3097 -0.3031  0.0994
  439MOL0     O57824   9.738   4.799   2.394 -0.7668  0.4249 -0.3791
  439MOL0     C57825   9.695   4.923   2.340  0.8454 -0.7397 -0.4092
  439MOL0     C57826   9.783   4.986   2.227  0.0550 -0.1670 -0.0125
  439MOL0     C57827   9.901   5.052   2.306 -0.3798 -0.6656  1.4123
  439MOL0     C57828  10.010   5.105   2.208  0.9208 -0.5400  0.4905
  439MOL0     C57829  10.128   5.144   2.284  0.6562  0.7065 -1.4434
  439MOL0     C57830  10.094   5.257   2.385  0.2088  0.7768 -0.1237
  439MOL0     C57831  10.042   5.393   2.328  0.0096  0.0454 -0.7740
  439MOL0     C57832  10.106   5.520   2.387  0.3334  0.4339  0.4936
  439MOL0     N57833  10.066   5.641   2.315 -0.6207  0.4235 -0.1957
  439MOL0     C57834  10.154   5.697   2.229  0.2173  0.5829  0.5615
  439MOL0     C57835  10.094   5.809   2.185  0.2444 -0.0039  0.1661
  439MOL0     C57836  10.148   5.906   2.086  0.6134 -0.6516  0.8092
  439MOL0     C57837  10.173   5.854   1.942  0.1752  0.2472  0.5969
  439MOL0     C57838  10.050   5.825   1.859  0.6429 -0.2949  0.8865
  439MOL0     C57839   9.932   5.755   1.928 -0.0679  0.3105  0.3072
  439MOL0     O57840   9.833   5.728   1.823  0.0569 -0.8321 -0.6027
  439MOL0     C57841   9.797   5.596   1.808 -0.3438 -1.1330 -0.4669
  439MOL0     C57842   9.723   5.532   1.906  0.2688 -0.5762 -0.6051
  439MOL0     C57843   9.671   5.398   1.892  1.0018  0.7220 -0.2934
  439MOL0     C57844   9.681   5.341   1.768  0.5057 -0.2200  0.7103
  439MOL0     C57845   9.615   5.216   1.734 -0.7943  0.0673 -0.0637
  439MOL0     O57846   9.535   5.142   1.834 -0.5453 -0.2934  0.2165
  439MOL0     C57847   9.481   5.025   1.789 -0.2156 -1.1318  0.3761
  439MOL0     C57848   9.376   5.024   1.698  0.1410 -0.1040  0.7536
  439MOL0     C57849   9.311   4.909   1.649 -0.8225  0.5877 -0.2672
  439MOL0     C57850   9.370   4.779   1.683  0.0545  0.5325  0.2264
  439MOL0     O57851   9.338   4.652   1.624 -0.0408 -0.6705  0.5099
  439MOL0     C57852   9.208   4.655   1.563 -0.2354 -0.1898  0.6052
  439MOL0     C57853   9.170   4.517   1.508  0.5932 -0.0374 -0.0197
  439MOL0     C57854   9.245   4.470   1.387  0.2179 -0.4760  0.5425
  439MOL0     C57855   9.203   4.561   1.270  0.4324 -0.2174 -0.1591
  439MOL0     C57856   9.265   4.520   1.135 -0.4563  0.9979  0.3385
  439MOL0     C57857   9.209   4.613   1.034 -0.5942 -0.5991  0.7506
  439MOL0     C57858   9.289   4.592   0.901  0.9454  0.1912 -0.5092
  439MOL0     C57859   9.274   4.697   0.805  0.2839 -0.6599 -0.3267
  439MOL0    Cl57860   9.385   4.640   0.679  0.0719  0.0282  0.3579
  439MOL0     C57861   9.483   4.776   1.763 -0.5533  0.1757 -0.1091
  439MOL0     C57862   9.528   4.899   1.828 -0.5907  0.1166  0.2983
  439MOL0     O57863   9.628   5.183   1.612  0.5855  0.5936 -0.5340
  439MOL0     C57864   9.742   5.415   1.661  0.2258  0.6617  0.2567
  439MOL0     C57865   9.791   5.536   1.685  0.1134 -1.0960 -0.8498
  439MOL0     N57866   9.971   5.827   2.251  0.3809  0.0849  0.4793
  439MOL0     N57867   9.954   5.711   2.318  0.3249 -0.7188 -0.3955
  439MOL0     C57868   9.578   4.788   2.577  0.9914 -0.0090 -0.0779
  439MOL0     C57869   9.530   4.703   2.670  0.2199  1.0337 -0.9138
  439MOL0     C57870   9.419   4.404   2.970 -1.3078  0.6385 -0.3037
  439MOL0     C57871   9.303   4.340   2.922  0.6147  0.2374  0.4609
  439MOL0     C57872   9.226   4.268   3.016 -0.1916  0.4541 -0.0234
  439MOL0     C57873   9.249   4.261   3.154 -0.1921  0.4646  0.6717
  439MOL0     O57874   9.176   4.185   3.245 -0.0026  0.6016  0.0468
  439MOL0     C57875   9.045   4.149   3.222 -0.4227  0.6238  0.1892
  439MOL0     C57876   9.006   4.082   3.357 -0.8952  0.1590 -0.7709
  439MOL0     C57877   9.003   4.197   3.465 -0.3219  1.4587  0.0697
  439MOL0     C57878   8.926   4.144   3.595 -0.1750 -0.3988  0.7220
  439MOL0     C57879   8.930   4.256   3.692 -1.4524  0.4478 -0.5164
  439MOL0     C57880   8.932   4.340   3.777  0.6341 -0.6796 -1.0318
  439MOL0     C57881   9.364   4.319   3.200 -0.8855  0.7213 -0.4274
  439MOL0     C57882   9.447   4.385   3.107  0.0968 -0.3186 -0.7229
  439MOL0     H57883   9.644   4.403   2.588  1.9281  0.6192 -2.2851
  439MOL0     H57884   9.746   4.557   2.393 -1.5955  0.2777 -2.1060
  439MOL0     H57885   9.673   4.991   2.423 -1.9631 -2.8772  0.7886
  439MOL0     H57886   9.599   4.911   2.289  0.2761  0.5469  0.3191
  439MOL0     H57887   9.734   5.064   2.168 -0.9369 -0.4920  0.3597
  439MOL0     H57888   9.818   4.913   2.153 -1.7130  0.1673 -1.2635
  439MOL0     H57889   9.941   4.975   2.372  0.4204 -0.8088  0.7824
  439MOL0     H57890   9.868   5.137   2.367 -0.2041 -0.7619  1.6423
  439MOL0     H57891  10.037   5.029   2.134 -0.0061 -0.3930 -0.0113
  439MOL0     H57892   9.975   5.196   2.159 -2.2722 -1.4695  0.7847
  439MOL0     H57893  10.205   5.174   2.213  1.2494 -0.8981 -1.5188
  439MOL0     H57894  10.168   5.063   2.346  0.6413  1.9005  0.1928
  439MOL0     H57895  10.188   5.282   2.436  0.2761  0.0277  0.1247
  439MOL0     H57896  10.027   5.222   2.464  0.8496  1.7885  0.9263
  439MOL0     H57897  10.044   5.395   2.219 -1.1926  1.2441 -0.7904
  439MOL0     H57898   9.938   5.391   2.360 -0.3967 -3.0592 -1.9689
  439MOL0     H57899  10.213   5.499   2.377  0.0175 -1.3971  0.4857
  439MOL0     H57900  10.070   5.525   2.490  1.7073  0.1792  1.0198
  439MOL0     H57901  10.250   5.652   2.204 -0.2212 -1.6883  2.5548
  439MOL0     H57902  10.240   5.942   2.133 -0.1383  2.8195 -0.0824
  439MOL0     H57903  10.080   5.991   2.086  1.1999 -0.1528  2.3517
  439MOL0     H57904  10.218   5.755   1.931  0.4395  0.5603 -1.5670
  439MOL0     H57905  10.234   5.920   1.879 -0.3610  1.3528  1.2029
  439MOL0     H57906  10.009   5.922   1.829 -0.0710 -0.8313  0.0899
  439MOL0     H57907  10.081   5.775   1.767 -0.6250  4.0424 -2.2303
  439MOL0     H57908   9.887   5.829   1.995 -1.6083  2.8951 -3.2437
  439MOL0     H57909   9.964   5.664   1.980  1.3330  1.0279  0.7499
  439MOL0     H57910   9.692   5.581   1.998 -0.3882 -4.9061  1.7143
  439MOL0     H57911   9.615   5.351   1.973 -0.6492  0.2197 -1.6591
  439MOL0     H57912   9.330   5.109   1.648 -0.0148 -0.1864  0.7559
  439MOL0     H57913   9.234   4.920   1.573 -1.0456  2.6043  0.2111
  439MOL0     H57914   9.203   4.728   1.482 -0.6399 -3.1217 -2.2344
  439MOL0     H57915   9.141   4.687   1.644  1.1205  1.6135  1.0881
  439MOL0     H57916   9.064   4.515   1.479 -0.0524  1.3934  2.0113
  439MOL0     H57917   9.171   4.449   1.593 -1.9092 -0.4621 -0.2579
  439MOL0     H57918   9.219   4.369   1.355  0.2947  0.4955 -2.9607
  439MOL0     H57919   9.353   4.471   1.401  0.3454  0.0151 -0.4034
  439MOL0     H57920   9.094   4.560   1.264  0.4542  0.6289 -1.0751
  439MOL0     H57921   9.231   4.665   1.289 -0.7654 -0.2869  2.4327
  439MOL0     H57922   9.250   4.418   1.100 -2.4477  2.4994 -3.8341
  439MOL0     H57923   9.374   4.533   1.134 -0.5838  2.1734 -0.4019
  439MOL0     H57924   9.224   4.718   1.061 -0.1185  0.3537 -2.7726
  439MOL0     H57925   9.104   4.595   1.012  0.2801 -1.7347 -3.2536
  439MOL0     H57926   9.394   4.585   0.931  0.3127 -0.9603  1.6504
  439MOL0     H57927   9.251   4.500   0.857  2.2280 -0.9613  0.7006
  439MOL0     H57928   9.297   4.797   0.844 -0.3765  0.0508 -1.6935
  439MOL0     H57929   9.174   4.695   0.762  0.9008  0.6506 -1.9508
  439MOL0     H57930   9.531   4.686   1.800 -3.6196 -0.8048  1.8063
  439MOL0     H57931   9.601   4.895   1.908  0.9573 -4.7829 -1.0159
  439MOL0     H57932   9.738   5.381   1.558 -1.3284 -0.8208  0.7514
  439MOL0     H57933   9.825   5.603   1.606 -0.0605 -0.6161 -0.5195
  439MOL0     H57934   9.570   4.896   2.583 -2.2109 -0.2262  1.8397
  439MOL0     H57935   9.470   4.749   2.748 -2.2566 -2.8570 -0.2584
  439MOL0     H57936   9.274   4.351   2.819  0.5794 -0.6852  0.3595
  439MOL0     H57937   9.134   4.221   2.984 -1.4180 -0.8502  4.7471
  439MOL0     H57938   9.041   4.083   3.135  0.1120  2.5172 -1.3568
  439MOL0     H57939   8.983   4.239   3.212 -1.4350 -0.2360 -1.7010
  439MOL0     H57940   8.919   4.017   3.349  0.9383 -2.8257  1.4677
  439MOL0     H57941   9.086   4.010   3.379  0.7249  1.5196 -1.9294
  439MOL0     H57942   8.940   4.279   3.431 -1.3730  0.5692 -0.2012
  439MOL0     H57943   9.097   4.246   3.490  2.2842 -1.5478 -2.9682
  439MOL0     H57944   8.819   4.139   3.572 -0.6137  3.3216  1.1864
  439MOL0     H57945   8.975   4.056   3.637  0.8000  0.3562  1.2096
  439MOL0     H57946   8.920   4.429   3.834 -1.8541 -0.4736 -1.7416
  439MOL0     H57947   9.392   4.306   3.304  2.2073 -2.3097 -1.4220
  439MOL0     H57948   9.544   4.422   3.140 -0.4847 -1.0118  2.0777
  440MOL0     O57949   7.261   3.673   3.902 -0.3016 -0.3325 -0.1510
  440MOL0     C57950   7.162   3.641   3.846  0.2225 -0.1286  0.9597
  440MOL0     O57951   7.157   3.614   3.713  0.4510  0.6238  0.5036
  440MOL0     C57952   7.256   3.644   3.623 -0.0023 -0.0583 -0.1822
  440MOL0     C57953   7.348   3.758   3.623 -0.3577  0.4632 -1.2783
  440MOL0     C57954   7.459   3.762   3.549 -0.5227  0.1400  0.1593
  440MOL0     C57955   7.477   3.666   3.446  0.3061  0.6754 -0.0383
  440MOL0     O57956   7.575   3.669   3.356 -0.7653 -0.1989 -0.0720
  440MOL0     C57957   7.552   3.779   3.266  0.5923  0.2733 -0.0753
  440MOL0     C57958   7.673   3.797   3.177  0.8055 -1.2957  0.2571
  440MOL0     C57959   7.640   3.910   3.076  0.0332  0.1939  0.5487
  440MOL0     C57960   7.754   3.998   3.029  0.6415 -0.6547  0.1948
  440MOL0     C57961   7.874   3.913   2.977  0.6299  0.0774 -0.8577
  440MOL0     C57962   7.835   3.816   2.864 -0.5971 -0.7985  0.0891
  440MOL0     C57963   7.956   3.776   2.775  0.1123  0.5523  0.3751
  440MOL0     C57964   7.920   3.668   2.663 -0.2628  0.1498 -0.5824
  440MOL0     N57965   7.904   3.536   2.733  0.3894 -0.6139  0.2867
  440MOL0     C57966   8.001   3.436   2.744  0.3577  0.3158  0.4487
  440MOL0     C57967   7.930   3.325   2.769 -0.4879  0.7231  0.2457
  440MOL0     C57968   7.997   3.196   2.796  0.4247 -0.1408 -0.3737
  440MOL0     C57969   8.050   3.190   2.945 -0.3932 -0.1808  0.5848
  440MOL0     C57970   8.135   3.064   2.954 -0.0452  0.3858 -0.4215
  440MOL0     C57971   8.146   3.029   3.097  1.0785  0.7092  0.1234
  440MOL0     O57972   8.208   2.903   3.122 -0.2192 -0.6586 -0.0125
  440MOL0     C57973   8.161   2.844   3.236 -0.1783  0.2553  0.2605
  440MOL0     C57974   8.108   2.914   3.346 -0.5055  0.2186 -0.8503
  440MOL0     C57975   8.076   2.841   3.465  0.3144 -0.1822 -0.2168
  440MOL0     C57976   8.075   2.703   3.470 -1.3034  0.9371  1.0972
  440MOL0     C57977   8.033   2.633   3.588  0.4871  0.1574  0.2458
  440MOL0     O57978   8.019   2.492   3.583 -0.2688 -0.2999  0.2365
  440MOL0     C57979   7.927   2.440   3.672  1.3150 -0.3950  0.0727
  440MOL0     C57980   7.942   2.443   3.815 -0.1431 -0.6726 -0.1058
  440MOL0     C57981   7.840   2.384   3.896 -0.3196 -0.0904 -0.3492
  440MOL0     C57982   7.724   2.332   3.832  0.0979 -0.1403 -1.0046
  440MOL0     O57983   7.611   2.281   3.890  0.1154 -0.0975  0.9351
  440MOL0     C57984   7.613   2.222   4.021  0.3290 -0.1508 -0.2773
  440MOL0     C57985   7.482   2.148   4.046 -0.3371  0.3682  0.7990
  440MOL0     C57986   7.462   2.109   4.190  1.1452  0.6338 -0.7516
  440MOL0     C57987   7.320   2.062   4.221  0.1869 -0.2036  0.6087
  440MOL0     C57988   7.285   2.079   4.371 -0.3612  0.5529  0.0523
  440MOL0     C57989   7.133   2.046   4.398 -0.8034  0.5268 -0.8513
  440MOL0     C57990   7.074   2.050   4.547  0.9003 -0.6582  0.3623
  440MOL0     C57991   6.933   1.984   4.542  0.2961  0.3540 -0.2982
  440MOL0    Cl57992   6.838   2.018   4.703 -0.5673  0.0931 -0.2632
  440MOL0     C57993   7.710   2.348   3.696  0.7284 -0.1363 -0.6503
  440MOL0     C57994   7.802   2.405   3.616  0.2632 -0.5890 -0.1368
  440MOL0     O57995   8.013   2.702   3.685  0.7670  0.2497  1.1247
  440MOL0     C57996   8.106   2.635   3.351 -0.3992 -0.0493  0.2509
  440MOL0     C57997   8.162   2.704   3.240  0.3453  0.4503 -0.6706
  440MOL0     N57998   7.795   3.352   2.764 -0.5248  0.1624  0.1572
  440MOL0     N57999   7.783   3.475   2.726 -0.0373 -1.1791  0.0361
  440MOL0     C58000   7.378   3.570   3.431  0.0602  0.2335  0.0128
  440MOL0     C58001   7.272   3.550   3.521 -0.1398 -0.0139  0.3611
  440MOL0     C58002   7.036   3.647   3.918  0.1081 -0.0950 -0.6484
  440MOL0     C58003   7.027   3.675   4.058 -0.9458 -0.1347  1.0738
  440MOL0     C58004   6.902   3.680   4.124 -0.2049  0.3291  0.0046
  440MOL0     C58005   6.781   3.651   4.063 -0.5858 -0.0920  0.5882
  440MOL0     O58006   6.661   3.652   4.128  0.1807 -0.5538 -0.0508
  440MOL0     C58007   6.650   3.578   4.251  0.0841  0.4666  0.7788
  440MOL0     C58008   6.510   3.607   4.315 -0.5909 -0.0905 -0.3200
  440MOL0     C58009   6.467   3.753   4.350 -0.2066  0.0110 -0.6914
  440MOL0     C58010   6.315   3.769   4.381 -0.8511  0.6270 -0.1888
  440MOL0     C58011   6.281   3.679   4.495 -0.3689  0.1717 -0.4987
  440MOL0     C58012   6.266   3.608   4.597 -0.1968 -0.6592  0.4375
  440MOL0     C58013   6.784   3.655   3.924 -0.0698 -0.3293  0.1386
  440MOL0     C58014   6.908   3.639   3.855  0.8870 -0.1883 -0.3922
  440MOL0     H58015   7.332   3.825   3.707 -0.9700 -0.1420 -0.9062
  440MOL0     H58016   7.545   3.820   3.581  1.4362 -3.6002  2.4449
  440MOL0     H58017   7.536   3.871   3.322 -0.7149  0.8592 -1.3238
  440MOL0     H58018   7.458   3.776   3.209 -0.3977  0.9790  1.4622
  440MOL0     H58019   7.702   3.703   3.129  1.8618 -2.3598  2.7595
  440MOL0     H58020   7.758   3.834   3.235 -0.2689 -0.2399  1.1916
  440MOL0     H58021   7.547   3.959   3.108 -0.2343  0.4931 -0.6314
  440MOL0     H58022   7.619   3.847   2.989 -0.2570 -1.2497  1.6385
  440MOL0     H58023   7.708   4.060   2.951  0.1620 -2.2752 -0.8574
  440MOL0     H58024   7.787   4.059   3.114  0.7501 -1.1669  0.5212
  440MOL0     H58025   7.931   3.859   3.053 -0.0159 -0.7633 -0.9639
  440MOL0     H58026   7.944   3.985   2.933  4.5929 -2.3279  0.8588
  440MOL0     H58027   7.758   3.867   2.805  0.3271 -0.2765 -0.6828
  440MOL0     H58028   7.790   3.726   2.907 -1.7586 -0.3139 -0.0771
  440MOL0     H58029   8.008   3.867   2.742 -1.1534  1.3623  0.5405
  440MOL0     H58030   8.034   3.726   2.833 -0.0144 -0.4892 -0.3222
  440MOL0     H58031   8.011   3.655   2.604  0.2884 -1.7525  0.6130
  440MOL0     H58032   7.827   3.691   2.609  1.1257 -0.7080 -3.5478
  440MOL0     H58033   8.110   3.435   2.740  0.3698 -2.0258 -0.0504
  440MOL0     H58034   8.072   3.185   2.718  0.9617 -2.2188  0.3606
  440MOL0     H58035   7.925   3.114   2.796 -0.5590  0.6989 -0.1748
  440MOL0     H58036   7.965   3.185   3.013  0.2354 -2.4664  1.2921
  440MOL0     H58037   8.119   3.272   2.968  4.0149 -1.6336 -5.0580
  440MOL0     H58038   8.085   2.985   2.899 -2.2971  0.8048  0.8779
  440MOL0     H58039   8.240   3.072   2.924 -0.0115 -1.9979 -1.0796
  440MOL0     H58040   8.040   3.012   3.122  1.8713 -2.3093  1.9955
  440MOL0     H58041   8.178   3.108   3.165  2.1323 -0.3036  0.8439
  440MOL0     H58042   8.103   3.022   3.351  1.4123  0.2823  1.3062
  440MOL0     H58043   8.061   2.893   3.559  2.5627 -5.2761  3.4341
  440MOL0     H58044   8.031   2.487   3.859 -1.2577  1.4477  0.1657
  440MOL0     H58045   7.855   2.383   4.004 -1.0828 -2.2936 -0.2050
  440MOL0     H58046   7.611   2.304   4.093  0.6408  0.1373 -0.5983
  440MOL0     H58047   7.700   2.160   4.043 -2.2084 -3.4965  1.2896
  440MOL0     H58048   7.494   2.055   3.989 -2.8273 -0.0121  0.7883
  440MOL0     H58049   7.392   2.186   3.996  1.3147 -1.0003 -3.7154
  440MOL0     H58050   7.476   2.190   4.261 -3.1862  2.3800 -1.5340
  440MOL0     H58051   7.539   2.035   4.214 -0.9680 -0.9471  1.6759
  440MOL0     H58052   7.252   2.129   4.169 -1.5894 -1.8243  0.7152
  440MOL0     H58053   7.307   1.956   4.195  0.7819  0.5320 -3.2134
  440MOL0     H58054   7.311   2.178   4.409  1.8400 -0.2050  0.7056
  440MOL0     H58055   7.344   2.003   4.424 -1.5569 -0.0381  0.5594
  440MOL0     H58056   7.114   1.946   4.361 -0.4827  0.1331  0.0163
  440MOL0     H58057   7.070   2.115   4.341  1.6616  1.1948 -2.9385
  440MOL0     H58058   7.137   2.000   4.621  1.6756  1.2045  1.0135
  440MOL0     H58059   7.077   2.157   4.571 -1.6768 -0.8437  1.9151
  440MOL0     H58060   6.938   1.878   4.518 -0.7065  0.6180 -1.8710
  440MOL0     H58061   6.891   2.038   4.455  2.4885  1.8495 -0.5012
  440MOL0     H58062   7.616   2.309   3.658  0.5310  0.8948 -1.2442
  440MOL0     H58063   7.778   2.416   3.510 -0.5571 -1.9939 -0.1333
  440MOL0     H58064   8.119   2.527   3.343  1.3176  0.2440 -1.8744
  440MOL0     H58065   8.206   2.643   3.162  3.7072 -0.0942  1.4278
  440MOL0     H58066   7.400   3.500   3.351  1.2328 -0.4622  0.9115
  440MOL0     H58067   7.207   3.463   3.515 -1.7969  1.2417 -1.4722
  440MOL0     H58068   7.114   3.662   4.120 -0.3126 -4.2330 -0.3521
  440MOL0     H58069   6.896   3.698   4.231 -3.0845 -0.4783  0.0711
  440MOL0     H58070   6.733   3.589   4.321  0.5103 -0.9871  0.5427
  440MOL0     H58071   6.656   3.479   4.204  4.4871  0.6996  0.5046
  440MOL0     H58072   6.440   3.573   4.238 -0.4481 -0.0023 -0.4899
  440MOL0     H58073   6.504   3.539   4.401  2.4684 -0.3400 -0.1813
  440MOL0     H58074   6.492   3.823   4.270 -1.7782 -2.5696 -3.6313
  440MOL0     H58075   6.512   3.783   4.445 -0.5798 -0.9447 -0.2007
  440MOL0     H58076   6.293   3.869   4.418 -0.7096 -0.6869  3.9483
  440MOL0     H58077   6.255   3.744   4.293 -0.0299 -1.3293 -0.2405
  440MOL0     H58078   6.255   3.568   4.695 -0.5123  0.8029  1.0217
  440MOL0     H58079   6.689   3.662   3.872  0.5928  2.1314 -0.8827
  440MOL0     H58080   6.911   3.633   3.747  1.0231 -1.5590 -0.3335
  441MOL0     O58081   5.010   5.078   5.950  0.5614  0.4541  0.3840
  441MOL0     C58082   5.062   5.145   6.040 -0.5492  0.1160  0.3954
  441MOL0     O58083   4.998   5.253   6.108  0.5913 -0.6153 -0.0097
  441MOL0     C58084   4.876   5.273   6.062  0.7872 -0.6899 -0.0554
  441MOL0     C58085   4.854   5.364   5.950 -0.0426 -0.1617  0.1079
  441MOL0     C58086   4.718   5.391   5.913  0.5763  0.5152  0.5854
  441MOL0     C58087   4.604   5.335   5.993 -0.3021  0.1438 -0.2223
  441MOL0     O58088   4.479   5.335   5.955  0.8179 -0.3660  0.4457
  441MOL0     C58089   4.432   5.430   5.860 -0.1296 -0.2229  0.5281
  441MOL0     C58090   4.286   5.410   5.803  0.3977  0.1774  0.3793
  441MOL0     C58091   4.275   5.509   5.690 -0.5921  0.5173  0.0320
  441MOL0     C58092   4.127   5.506   5.631 -0.4085 -0.0618  0.0220
  441MOL0     C58093   4.086   5.381   5.555 -1.3290 -0.9610 -0.6935
  441MOL0     C58094   3.939   5.396   5.513 -0.6311 -0.6958  1.2871
  441MOL0     C58095   3.876   5.283   5.434 -0.1273 -0.0300 -0.1220
  441MOL0     C58096   3.930   5.259   5.294  0.0181  0.1523 -0.5215
  441MOL0     N58097   3.913   5.118   5.253  0.6094 -0.9055 -0.1633
  441MOL0     C58098   3.787   5.064   5.235 -0.4259 -0.9169  1.1805
  441MOL0     C58099   3.811   4.937   5.212 -0.5073 -0.8802  0.3201
  441MOL0     C58100   3.714   4.829   5.171 -0.4724 -0.3297  0.6024
  441MOL0     C58101   3.655   4.756   5.291  0.4718 -0.5129  0.3076
  441MOL0     C58102   3.514   4.808   5.312 -0.2420  0.2705  0.3143
  441MOL0     C58103   3.454   4.723   5.425  0.7375 -0.4313  0.0264
  441MOL0     O58104   3.320   4.773   5.444  0.8660  0.5040  0.4467
  441MOL0     C58105   3.215   4.681   5.452  0.5633 -0.4858 -0.0944
  441MOL0     C58106   3.092   4.731   5.431  0.1616  0.2402  0.8111
  441MOL0     C58107   2.972   4.639   5.434 -0.0134  0.6559  1.6291
  441MOL0     C58108   2.989   4.508   5.480 -0.4684 -0.5357 -0.3385
  441MOL0     C58109   2.874   4.423   5.495 -0.0572  1.1938 -0.2022
  441MOL0     O58110   2.750   4.476   5.461 -0.8024  0.2851  0.2606
  441MOL0     C58111   2.651   4.402   5.519 -0.0780 -0.4690 -0.6891
  441MOL0     C58112   2.616   4.408   5.654 -0.3752 -0.4350 -0.1006
  441MOL0     C58113   2.509   4.321   5.691  0.5568  0.1612  0.3157
  441MOL0     C58114   2.436   4.236   5.608  0.1440  0.3179 -0.0033
  441MOL0     O58115   2.314   4.182   5.652 -0.1219 -0.0463  1.2186
  441MOL0     C58116   2.240   4.096   5.571  0.5635  0.0635  0.3211
  441MOL0     C58117   2.121   4.067   5.665 -0.3960  0.4152  0.7736
  441MOL0     C58118   2.022   3.981   5.586 -0.3937  0.2430 -0.2745
  441MOL0     C58119   1.912   3.942   5.680 -0.0980 -0.4391 -0.2203
  441MOL0     C58120   1.817   3.832   5.620 -0.3277  0.4271 -0.8327
  441MOL0     C58121   1.724   3.760   5.731 -0.1920  0.7838  0.0476
  441MOL0     C58122   1.610   3.674   5.671  0.6727  0.4511 -0.0072
  441MOL0     C58123   1.511   3.613   5.782 -0.7683 -0.6457  0.7279
  441MOL0    Cl58124   1.380   3.525   5.694 -0.1917 -0.4910  0.3858
  441MOL0     C58125   2.473   4.232   5.478 -0.2403  0.6053 -0.0964
  441MOL0     C58126   2.579   4.315   5.436 -0.6386  0.1016  0.0798
  441MOL0     O58127   2.888   4.314   5.555 -0.4448 -0.8360  0.0041
  441MOL0     C58128   3.111   4.463   5.524  0.0654  0.3573  0.0332
  441MOL0     C58129   3.225   4.552   5.506  0.1510 -0.5420 -0.2362
  441MOL0     N58130   3.945   4.919   5.224 -0.6140 -0.3643  0.2943
  441MOL0     N58131   4.010   5.026   5.232 -0.9179 -0.3812 -0.4301
  441MOL0     C58132   4.635   5.266   6.105 -0.5171 -0.3299 -0.0036
  441MOL0     C58133   4.771   5.225   6.140 -0.8705  0.3627 -0.5443
  441MOL0     C58134   5.195   5.097   6.091 -0.6053 -0.0540  0.2127
  441MOL0     C58135   5.232   5.144   6.215  0.1191  0.7923  0.5552
  441MOL0     C58136   5.345   5.100   6.286  0.3278  0.5980  0.1020
  441MOL0     C58137   5.442   5.033   6.218 -0.1882  0.2305 -0.0455
  441MOL0     O58138   5.567   5.006   6.267 -0.3989  0.4650 -0.4441
  441MOL0     C58139   5.575   4.975   6.406  0.1428 -0.1533  0.2610
  441MOL0     C58140   5.721   4.932   6.435 -0.5043  0.6681  0.5289
  441MOL0     C58141   5.772   4.918   6.588  0.1324 -0.0907  0.2368
  441MOL0     C58142   5.781   5.042   6.664  0.3869 -0.5756 -0.8042
  441MOL0     C58143   5.916   5.092   6.689  0.6562 -1.1697  0.5946
  441MOL0     C58144   6.027   5.124   6.725  0.4514  0.9705  0.1274
  441MOL0     C58145   5.413   4.982   6.089  0.2133  1.0450 -0.4290
  441MOL0     C58146   5.287   5.011   6.026 -0.0366  0.0274 -0.0146
  441MOL0     H58147   4.932   5.407   5.888  3.5706 -3.4427  1.9400
  441MOL0     H58148   4.701   5.455   5.827  3.4919  0.5683 -0.0672
  441MOL0     H58149   4.487   5.419   5.766 -3.0397 -1.0364 -1.2023
  441MOL0     H58150   4.451   5.530   5.899  1.8287 -0.7696  1.0955
  441MOL0     H58151   4.215   5.439   5.881  0.6542  1.7514  0.0696
  441MOL0     H58152   4.267   5.309   5.766  2.5216 -0.0106 -0.3449
  441MOL0     H58153   4.341   5.488   5.606  2.4479  2.8777  1.6387
  441MOL0     H58154   4.295   5.612   5.722 -1.7954  1.3175 -1.6428
  441MOL0     H58155   4.057   5.528   5.711  0.7074 -1.8876  1.5896
  441MOL0     H58156   4.115   5.592   5.564  1.6957  1.3606  1.3383
  441MOL0     H58157   4.108   5.295   5.618  3.3892  0.0601 -0.5793
  441MOL0     H58158   4.156   5.380   5.471 -0.3003 -1.1660  0.1513
  441MOL0     H58159   3.930   5.491   5.461 -0.8285 -0.5068  1.6580
  441MOL0     H58160   3.879   5.400   5.605 -0.7830  2.0759  1.1645
  441MOL0     H58161   3.889   5.199   5.503  0.5979 -0.5422 -0.8667
  441MOL0     H58162   3.769   5.301   5.416 -0.3551 -2.9265 -2.3894
  441MOL0     H58163   4.039   5.265   5.288  0.1065 -2.1328 -2.5077
  441MOL0     H58164   3.878   5.329   5.227 -1.8313  0.4524  1.1507
  441MOL0     H58165   3.686   5.100   5.246 -1.8104 -3.8769 -0.6621
  441MOL0     H58166   3.774   4.756   5.117  2.1498  1.0432  1.4917
  441MOL0     H58167   3.642   4.866   5.097  3.3927  1.5972 -2.5405
  441MOL0     H58168   3.718   4.780   5.377  3.4808 -6.4121  0.1983
  441MOL0     H58169   3.652   4.647   5.286  1.1147 -0.5043 -0.4431
  441MOL0     H58170   3.509   4.917   5.318 -0.0024  0.4662 -2.0557
  441MOL0     H58171   3.455   4.779   5.225 -2.2851 -0.6702  1.9172
  441MOL0     H58172   3.514   4.730   5.516  2.7534 -0.4154 -1.2400
  441MOL0     H58173   3.464   4.623   5.382 -0.2870 -1.0583  1.1929
  441MOL0     H58174   3.086   4.834   5.395 -1.5800 -0.3486 -0.7161
  441MOL0     H58175   2.877   4.672   5.393  0.9615  0.8915 -0.5688
  441MOL0     H58176   2.668   4.458   5.736 -0.7152 -1.7195  0.9366
  441MOL0     H58177   2.483   4.335   5.795  0.4413  2.1447  0.0645
  441MOL0     H58178   2.297   4.007   5.542  0.3784 -1.0699  3.1380
  441MOL0     H58179   2.200   4.144   5.481 -0.3553  1.7633  1.5766
  441MOL0     H58180   2.072   4.161   5.692  0.8364  1.7036 -1.1735
  441MOL0     H58181   2.157   4.010   5.751  0.8306 -1.1890 -0.7242
  441MOL0     H58182   2.083   3.893   5.565  0.3363  0.5570  0.4845
  441MOL0     H58183   1.983   4.019   5.491 -1.5127  0.9560  0.4399
  441MOL0     H58184   1.954   3.918   5.778  3.1770  0.1988 -1.3257
  441MOL0     H58185   1.846   4.029   5.687  2.5461  1.6677  0.2065
  441MOL0     H58186   1.867   3.744   5.577 -0.6349 -0.4094  0.4609
  441MOL0     H58187   1.752   3.868   5.540  0.4197 -1.8147 -2.5848
  441MOL0     H58188   1.673   3.847   5.773 -1.3911  1.2573 -2.2130
  441MOL0     H58189   1.782   3.710   5.809  1.6739 -0.0853 -1.7801
  441MOL0     H58190   1.554   3.727   5.593  0.4740  0.6285  0.2539
  441MOL0     H58191   1.642   3.583   5.619 -0.8394  0.3967 -0.8819
  441MOL0     H58192   1.469   3.671   5.864 -0.6394 -1.6150  1.4969
  441MOL0     H58193   1.565   3.532   5.832  4.3830  1.7925 -0.1746
  441MOL0     H58194   2.416   4.181   5.401 -3.3557  0.4480  2.1229
  441MOL0     H58195   2.594   4.308   5.328 -0.2290 -2.3765  0.2218
  441MOL0     H58196   3.121   4.365   5.571  0.0142 -0.4643 -1.5933
  441MOL0     H58197   3.325   4.527   5.541  1.0243  1.7889 -0.8259
  441MOL0     H58198   4.555   5.224   6.165 -0.8287  2.8821  2.0484
  441MOL0     H58199   4.795   5.182   6.237  0.2812  2.9243  0.3923
  441MOL0     H58200   5.157   5.203   6.266 -1.0131  0.6786 -0.9380
  441MOL0     H58201   5.353   5.128   6.391  0.1799  1.2257 -0.0460
  441MOL0     H58202   5.509   4.893   6.437  0.0603 -1.1045 -2.2462
  441MOL0     H58203   5.555   5.075   6.446  0.3552  0.2632 -0.6450
  441MOL0     H58204   5.748   4.840   6.382  0.5095  1.6003 -0.6309
  441MOL0     H58205   5.774   5.017   6.392 -2.6003  2.8621  2.0073
  441MOL0     H58206   5.869   4.869   6.596  0.5745 -0.0835 -3.4314
  441MOL0     H58207   5.701   4.853   6.641 -4.0172  1.7797 -2.4674
  441MOL0     H58208   5.714   5.119   6.626 -1.1895 -1.1663  0.6198
  441MOL0     H58209   5.741   5.026   6.765  4.2157 -0.0431  0.9740
  441MOL0     H58210   6.124   5.139   6.767 -0.3945  1.2788  2.0691
  441MOL0     H58211   5.488   4.925   6.033  0.0690  2.2297 -1.8965
  441MOL0     H58212   5.255   4.983   5.926 -2.5157  1.9042  0.1287
  442MOL0     O58213   8.131   2.477   8.728  0.0555  0.1056 -0.3539
  442MOL0     C58214   8.080   2.513   8.837  0.0699  0.4180  0.1036
  442MOL0     O58215   8.095   2.630   8.902  0.5812  0.4866 -0.4116
  442MOL0     C58216   8.204   2.713   8.881  0.0717 -0.0870 -0.9189
  442MOL0     C58217   8.335   2.670   8.846 -0.0494  0.4436  1.2172
  442MOL0     C58218   8.446   2.754   8.841 -0.6594 -0.0798  0.0827
  442MOL0     C58219   8.431   2.886   8.867  0.1161 -0.6593 -0.4410
  442MOL0     O58220   8.531   2.986   8.861 -0.5648  0.1815 -0.6245
  442MOL0     C58221   8.660   2.938   8.829 -0.4575 -0.7289 -0.1897
  442MOL0     C58222   8.743   3.058   8.841  0.2614 -0.2025  0.0700
  442MOL0     C58223   8.751   3.114   8.698 -0.2653  0.0065 -0.7239
  442MOL0     C58224   8.807   3.255   8.681 -0.5047  0.1262  0.3821
  442MOL0     C58225   8.814   3.295   8.530 -0.9555 -0.5789 -0.3905
  442MOL0     C58226   8.850   3.436   8.504 -0.1324 -1.1393  0.4995
  442MOL0     C58227   8.843   3.464   8.353  0.1715  0.5083 -0.9123
  442MOL0     C58228   8.939   3.379   8.271  0.1469 -0.7183 -1.0135
  442MOL0     N58229   9.081   3.395   8.305 -0.1499 -0.3439  1.2049
  442MOL0     C58230   9.139   3.516   8.313 -0.4733  0.4903 -0.1343
  442MOL0     C58231   9.275   3.498   8.297 -1.5075  0.5651 -0.2554
  442MOL0     C58232   9.394   3.591   8.325 -1.1124  0.3224  0.1605
  442MOL0     C58233   9.345   3.747   8.322  0.0323 -0.5330 -0.4775
  442MOL0     C58234   9.324   3.783   8.173 -0.1064 -0.1737 -0.1944
  442MOL0     C58235   9.365   3.926   8.126 -0.4148  0.1872  0.4622
  442MOL0     O58236   9.504   3.950   8.150 -0.0368 -0.5580 -0.1159
  442MOL0     C58237   9.550   4.075   8.174  0.5598 -1.0737  0.0877
  442MOL0     C58238   9.674   4.082   8.240 -0.2086  0.7125  1.0741
  442MOL0     C58239   9.709   4.203   8.305  0.1497 -1.1110 -0.0398
  442MOL0     C58240   9.630   4.324   8.293 -0.4054 -0.7522  0.0968
  442MOL0     C58241   9.671   4.454   8.347 -0.1612  0.1331 -0.6568
  442MOL0     O58242   9.693   4.558   8.262 -0.1670  1.2532 -0.5967
  442MOL0     C58243   9.715   4.679   8.324 -0.1488 -0.2544 -0.4099
  442MOL0     C58244   9.831   4.750   8.295 -0.0730 -0.1526  0.9675
  442MOL0     C58245   9.858   4.870   8.364 -0.6334  0.8778  1.2047
  442MOL0     C58246   9.773   4.923   8.457 -0.2699  0.0682  0.6195
  442MOL0     O58247   9.795   5.038   8.528  0.4809 -0.0986 -0.2767
  442MOL0     C58248   9.901   5.125   8.483  0.2791 -0.5554  1.4685
  442MOL0     C58249   9.886   5.251   8.557  0.0778 -0.3476  0.1547
  442MOL0     C58250   9.955   5.382   8.502 -0.3014  0.7088 -0.3249
  442MOL0     C58251  10.102   5.404   8.552  0.5940  0.2838  1.0350
  442MOL0     C58252  10.175   5.512   8.469  0.2071 -0.4719 -0.1014
  442MOL0     C58253  10.315   5.501   8.485 -0.2902  0.5046 -0.6399
  442MOL0     C58254  10.391   5.604   8.415 -0.1624  0.3975  0.3734
  442MOL0     C58255  10.541   5.616   8.443 -0.0006  0.1227  0.4245
  442MOL0    Cl58256  10.574   5.668   8.606 -0.0478  0.0371 -0.1664
  442MOL0     C58257   9.650   4.858   8.476  0.0128  0.5649 -0.5870
  442MOL0     C58258   9.619   4.737   8.414 -0.4043 -0.1176  0.6072
  442MOL0     O58259   9.706   4.454   8.469  0.3412 -0.4880  0.7626
  442MOL0     C58260   9.515   4.317   8.219 -0.9934  0.5797  0.1032
  442MOL0     C58261   9.478   4.194   8.151  0.4964  0.3225  0.2262
  442MOL0     N58262   9.297   3.363   8.269 -0.3807 -0.8352 -0.1153
  442MOL0     N58263   9.177   3.303   8.277  0.6480 -0.4774  0.7813
  442MOL0     C58264   8.306   2.943   8.896  0.3508  0.8771  0.1464
  442MOL0     C58265   8.203   2.858   8.910  0.0520  0.1835  0.3092
  442MOL0     C58266   7.980   2.421   8.895  0.1089 -0.3801 -0.2599
  442MOL0     C58267   7.948   2.300   8.831  0.0501 -0.6197  0.7459
  442MOL0     C58268   7.848   2.218   8.882  0.4111  0.3044 -0.4624
  442MOL0     C58269   7.772   2.256   8.997  0.2073  0.2908  0.1729
  442MOL0     O58270   7.659   2.188   9.039  0.0049  0.3317 -0.2282
  442MOL0     C58271   7.669   2.041   9.042  0.3622 -0.2324  0.1018
  442MOL0     C58272   7.754   1.994   9.160  0.1034 -0.7680  0.1463
  442MOL0     C58273   7.737   1.856   9.213 -0.4565  0.3456 -0.1618
  442MOL0     C58274   7.599   1.810   9.243 -0.2228 -0.4020  0.3463
  442MOL0     C58275   7.611   1.673   9.299  0.4961  0.0273  0.4078
  442MOL0     C58276   7.600   1.565   9.359 -0.2643 -0.4154  0.3005
  442MOL0     C58277   7.801   2.371   9.061  0.4665  0.2496  0.4794
  442MOL0     C58278   7.901   2.448   9.008 -0.2775 -0.2673 -0.5311
  442MOL0     H58279   8.342   2.563   8.830 -1.6872  0.1027  2.4110
  442MOL0     H58280   8.542   2.715   8.808  0.1389 -0.0890  2.2542
  442MOL0     H58281   8.659   2.901   8.726  2.0096 -3.3869  0.6110
  442MOL0     H58282   8.699   2.859   8.893  2.2056  0.3634 -0.3508
  442MOL0     H58283   8.845   3.034   8.875  0.5248  1.8710  0.8844
  442MOL0     H58284   8.712   3.133   8.914  2.6446 -1.0213  2.1080
  442MOL0     H58285   8.646   3.113   8.665 -1.8273  1.0065  3.5430
  442MOL0     H58286   8.817   3.045   8.645 -0.8521 -1.5948  0.5466
  442MOL0     H58287   8.751   3.332   8.735  0.8153  2.1834 -0.9975
  442MOL0     H58288   8.907   3.257   8.725 -0.2616  2.0380 -0.1397
  442MOL0     H58289   8.721   3.271   8.478  0.0453 -3.1710 -1.1788
  442MOL0     H58290   8.893   3.232   8.487  0.7477  0.2814  1.3413
  442MOL0     H58291   8.947   3.457   8.549 -0.8891  1.9860  0.8884
  442MOL0     H58292   8.785   3.500   8.563 -0.3248 -0.7741 -0.0995
  442MOL0     H58293   8.740   3.435   8.330 -0.5011  0.2864  1.8836
  442MOL0     H58294   8.865   3.568   8.329 -0.5263  0.7570 -0.5076
  442MOL0     H58295   8.922   3.414   8.169 -0.1875  2.8797  0.1248
  442MOL0     H58296   8.923   3.271   8.270 -0.8530 -0.7082  2.2137
  442MOL0     H58297   9.094   3.610   8.343  1.4840  1.8945 -1.3421
  442MOL0     H58298   9.467   3.562   8.249 -0.5181 -1.0418  1.2162
  442MOL0     H58299   9.439   3.582   8.424 -1.2606  0.7486  0.2723
  442MOL0     H58300   9.426   3.805   8.368  0.6114 -1.5000 -0.2249
  442MOL0     H58301   9.258   3.757   8.387 -0.9277 -2.8277 -1.3147
  442MOL0     H58302   9.369   3.709   8.106 -1.4695 -0.2775 -1.0357
  442MOL0     H58303   9.218   3.783   8.146  0.3638  1.3442 -2.2974
  442MOL0     H58304   9.299   3.993   8.180 -0.5305  0.4724 -0.0242
  442MOL0     H58305   9.352   3.933   8.017 -1.7311 -1.7598  0.4326
  442MOL0     H58306   9.738   3.995   8.249  0.2101  0.7692 -0.8635
  442MOL0     H58307   9.796   4.211   8.370  0.3790 -0.1806 -0.4430
  442MOL0     H58308   9.914   4.710   8.238 -0.2526 -2.4771  2.1900
  442MOL0     H58309   9.947   4.927   8.340 -0.3684 -0.3815 -1.0523
  442MOL0     H58310   9.885   5.139   8.375 -0.2102 -0.3299  1.5674
  442MOL0     H58311  10.003   5.096   8.509  2.3004  2.9375 -1.5989
  442MOL0     H58312   9.926   5.238   8.657 -0.3430  0.4808  0.4355
  442MOL0     H58313   9.778   5.267   8.559  0.4506  2.6958 -0.1783
  442MOL0     H58314   9.906   5.467   8.551 -1.1711  0.5251 -0.8489
  442MOL0     H58315   9.941   5.383   8.393  2.4841  1.6578 -0.7494
  442MOL0     H58316  10.107   5.443   8.654  0.4635 -0.1330  1.2043
  442MOL0     H58317  10.146   5.304   8.542 -1.1098 -0.3028 -1.9770
  442MOL0     H58318  10.142   5.611   8.502  1.6185  0.6920 -1.9666
  442MOL0     H58319  10.141   5.499   8.366 -0.9453 -3.4398  0.5457
  442MOL0     H58320  10.357   5.401   8.475 -2.8932 -0.6684 -0.6164
  442MOL0     H58321  10.332   5.508   8.593  2.3080 -1.1941 -0.8302
  442MOL0     H58322  10.384   5.597   8.306  1.8979 -1.6357  0.2870
  442MOL0     H58323  10.351   5.702   8.439 -0.7562  0.8222 -2.0686
  442MOL0     H58324  10.587   5.687   8.373  3.4595 -0.3270  1.9817
  442MOL0     H58325  10.602   5.527   8.425  1.6290  1.9870 -5.5954
  442MOL0     H58326   9.585   4.900   8.553 -0.5907 -0.7614 -0.3413
  442MOL0     H58327   9.526   4.683   8.432 -0.7205  0.3055  0.2535
  442MOL0     H58328   9.461   4.411   8.218 -4.8535 -1.3477  3.0786
  442MOL0     H58329   9.384   4.192   8.096  0.7073  2.7981 -0.3445
  442MOL0     H58330   8.298   3.049   8.921  1.5484  0.7896  1.0035
  442MOL0     H58331   8.116   2.879   8.970  1.5447 -0.9554  3.0706
  442MOL0     H58332   8.002   2.275   8.740 -0.9418  2.0125 -0.6679
  442MOL0     H58333   7.832   2.131   8.819  3.4812  0.0840 -1.1007
  442MOL0     H58334   7.710   1.990   8.954  1.8391 -1.1576  1.2877
  442MOL0     H58335   7.567   2.005   9.058  0.2058  0.7151  1.4688
  442MOL0     H58336   7.858   2.002   9.126 -0.3378  0.1823 -1.0691
  442MOL0     H58337   7.752   2.068   9.241 -0.2530 -0.8727  0.2365
  442MOL0     H58338   7.803   1.833   9.297  0.2211  0.1747 -0.7336
  442MOL0     H58339   7.768   1.789   9.133  0.0588 -1.2791  1.3299
  442MOL0     H58340   7.547   1.872   9.317 -1.8642 -0.2547 -0.8761
  442MOL0     H58341   7.531   1.811   9.157  3.2837  0.7659 -2.6720
  442MOL0     H58342   7.593   1.475   9.415  2.5752 -0.3428  0.9276
  442MOL0     H58343   7.756   2.395   9.157 -0.2712 -0.9484  0.4570
  442MOL0     H58344   7.926   2.541   9.058  2.8498 -1.7338  0.8790
  443MOL0     O58345   1.161   6.939   6.127  0.8058  0.7796 -0.5856
  443MOL0     C58346   1.039   6.929   6.109 -0.5192 -0.1787 -0.7266
  443MOL0     O58347   0.953   7.028   6.128  0.2629 -0.5605  0.2279
  443MOL0     C58348   0.978   7.145   6.213 -0.3893 -0.1109 -0.0338
  443MOL0     C58349   0.894   7.257   6.191 -1.1350 -0.4519  0.2594
  443MOL0     C58350   0.914   7.381   6.261 -0.5659 -0.8112  0.4576
  443MOL0     C58351   1.023   7.379   6.355 -0.2764 -1.0350 -0.1579
  443MOL0     O58352   1.053   7.480   6.444 -0.7353 -0.1196 -0.2317
  443MOL0     C58353   1.109   7.609   6.395 -0.5081  0.2568  1.2375
  443MOL0     C58354   1.117   7.704   6.524  0.3866 -0.1384  1.1110
  443MOL0     C58355   1.009   7.817   6.507 -0.1550 -0.9971 -1.1601
  443MOL0     C58356   1.050   7.924   6.616  0.1219 -0.0344 -1.4055
  443MOL0     C58357   0.937   8.024   6.652  1.2189  0.1454  0.3725
  443MOL0     C58358   1.002   8.133   6.741 -0.2295 -0.4187  0.0210
  443MOL0     C58359   0.901   8.239   6.801  0.4176  0.4974  0.2822
  443MOL0     C58360   0.942   8.374   6.760 -0.3776 -0.1591  0.6775
  443MOL0     N58361   1.068   8.415   6.826  0.0298  0.0444 -0.1114
  443MOL0     C58362   1.084   8.479   6.946  0.1397  0.5988 -0.3957
  443MOL0     C58363   1.213   8.493   6.978 -0.2134 -0.2586  0.3522
  443MOL0     C58364   1.282   8.593   7.073 -0.6136 -0.8574  0.0032
  443MOL0     C58365   1.192   8.627   7.190  0.5721  0.4387 -0.0061
  443MOL0     C58366   1.238   8.739   7.286 -0.0463  0.5349 -0.8831
  443MOL0     C58367   1.293   8.662   7.407  0.0198  0.7380 -0.4563
  443MOL0     O58368   1.364   8.757   7.479  0.3659 -0.5941 -0.1023
  443MOL0     C58369   1.313   8.835   7.574 -0.7931  0.3389 -0.6200
  443MOL0     C58370   1.394   8.920   7.636  0.4445 -0.8746  0.6303
  443MOL0     C58371   1.347   9.012   7.724 -0.4660  0.3825  0.1901
  443MOL0     C58372   1.213   9.021   7.759  0.1841 -0.3974  0.7687
  443MOL0     C58373   1.161   9.114   7.859  0.1689 -0.2343  0.7186
  443MOL0     O58374   1.024   9.117   7.868  0.0466  0.4839 -0.1026
  443MOL0     C58375   0.978   9.218   7.949  0.1197 -0.6143 -0.2416
  443MOL0     C58376   0.915   9.198   8.072 -0.2216 -0.6458  1.1015
  443MOL0     C58377   0.870   9.303   8.149  0.8049  0.2474 -0.0065
  443MOL0     C58378   0.864   9.425   8.096 -0.6803 -0.9673 -0.2057
  443MOL0     O58379   0.833   9.540   8.176 -0.3280  0.3296 -0.9660
  443MOL0     C58380   0.946   9.620   8.211  0.8302  0.6392 -0.3350
  443MOL0     C58381   0.913   9.751   8.286  0.2550 -1.0578  0.0076
  443MOL0     C58382   0.798   9.724   8.389 -0.3555 -0.6631 -0.2643
  443MOL0     C58383   0.761   9.859   8.460 -0.7385  0.5941  0.3385
  443MOL0     C58384   0.670   9.820   8.584 -1.6454  0.2009 -0.4027
  443MOL0     C58385   0.533   9.773   8.547 -0.2624  0.0821  0.3836
  443MOL0     C58386   0.470   9.674   8.639  0.0671 -0.1743 -0.2942
  443MOL0     C58387   0.537   9.546   8.655 -0.9432  0.2763  0.0369
  443MOL0    Cl58388   0.422   9.448   8.742 -0.0766 -0.3324 -0.5332
  443MOL0     C58389   0.924   9.450   7.971 -1.6170  0.2553  0.4789
  443MOL0     C58390   0.978   9.346   7.895 -1.2355  0.3643 -0.4368
  443MOL0     O58391   1.250   9.169   7.925 -0.1564  0.1878 -0.4248
  443MOL0     C58392   1.123   8.930   7.691  0.4918 -0.5824  1.1431
  443MOL0     C58393   1.174   8.836   7.601 -0.4395 -0.3267  0.8681
  443MOL0     N58394   1.280   8.443   6.872 -0.2990  1.0429  0.3151
  443MOL0     N58395   1.190   8.389   6.788 -0.0820  0.1093 -0.5053
  443MOL0     C58396   1.101   7.267   6.377  0.2849  0.6467 -0.2072
  443MOL0     C58397   1.085   7.159   6.301  0.2916 -0.4421 -0.1182
  443MOL0     C58398   0.999   6.801   6.051 -0.5412 -0.7230  0.2311
  443MOL0     C58399   1.089   6.699   6.039 -0.8846  0.7627  0.2822
  443MOL0     C58400   1.051   6.572   5.990  0.4905 -0.2053  0.0338
  443MOL0     C58401   0.918   6.542   5.960  0.0171 -0.2250 -0.4270
  443MOL0     O58402   0.889   6.421   5.908 -0.1915 -0.3139  0.0619
  443MOL0     C58403   0.776   6.396   5.828 -0.0426  0.8547  0.5486
  443MOL0     C58404   0.810   6.449   5.692 -0.1001 -0.4408 -0.4216
  443MOL0     C58405   0.719   6.399   5.572  0.3516  0.2775  0.6329
  443MOL0     C58406   0.736   6.465   5.430  1.0522 -0.6603  0.1716
  443MOL0     C58407   0.874   6.495   5.378  1.1464  0.4002  0.5695
  443MOL0     C58408   0.982   6.531   5.349 -0.0465 -0.2678  0.3906
  443MOL0     C58409   0.823   6.645   5.979  0.0780 -0.4452  0.3733
  443MOL0     C58410   0.866   6.771   6.026 -0.1242  0.4252  0.1970
  443MOL0     H58411   0.825   7.241   6.109  0.6564 -0.2513 -1.3548
  443MOL0     H58412   0.851   7.469   6.256  0.2447 -0.0642  2.3641
  443MOL0     H58413   1.041   7.649   6.319  0.8813  2.8840  1.2366
  443MOL0     H58414   1.207   7.600   6.348 -0.9588 -1.3939  0.5634
  443MOL0     H58415   1.218   7.745   6.533 -0.3069  2.5261 -1.5967
  443MOL0     H58416   1.101   7.641   6.612 -0.1119  0.7828  1.6841
  443MOL0     H58417   0.908   7.779   6.523 -0.7961  1.1212  0.3966
  443MOL0     H58418   1.009   7.874   6.413 -1.1087  0.0747 -0.5351
  443MOL0     H58419   1.068   7.862   6.704  0.0966 -0.5058 -1.7257
  443MOL0     H58420   1.146   7.976   6.612  1.0533 -1.5455  0.0560
  443MOL0     H58421   0.861   7.969   6.709 -1.1904 -1.7785 -4.1705
  443MOL0     H58422   0.904   8.075   6.562 -1.6476 -1.5048  0.3731
  443MOL0     H58423   1.080   8.185   6.684 -2.5855  2.5587 -0.7719
  443MOL0     H58424   1.056   8.091   6.826  0.0012  4.5937  2.7186
  443MOL0     H58425   0.803   8.209   6.764  1.6481 -3.6525 -0.1399
  443MOL0     H58426   0.887   8.229   6.909  1.8857 -5.0034  0.2401
  443MOL0     H58427   0.866   8.440   6.802 -1.3920 -0.5992 -0.3980
  443MOL0     H58428   0.948   8.374   6.651 -1.2718  0.0003  0.6180
  443MOL0     H58429   0.995   8.524   6.987 -0.6349  2.5647 -3.8176
  443MOL0     H58430   1.313   8.683   7.019  0.7467  0.5739  2.9357
  443MOL0     H58431   1.377   8.557   7.111  1.1266  1.2220 -2.0842
  443MOL0     H58432   1.156   8.536   7.238  0.4524  1.2528  1.5226
  443MOL0     H58433   1.101   8.663   7.142 -0.9086  0.8583  2.8954
  443MOL0     H58434   1.315   8.805   7.243 -0.8842  0.9790 -1.7392
  443MOL0     H58435   1.147   8.794   7.311 -0.3903 -0.7849  0.9906
  443MOL0     H58436   1.349   8.573   7.377 -1.1829 -0.0464 -0.4573
  443MOL0     H58437   1.214   8.621   7.471  0.3564  0.9299  0.0878
  443MOL0     H58438   1.499   8.930   7.608  0.4336  1.2145  1.2162
  443MOL0     H58439   1.417   9.089   7.757 -0.7238  1.0009 -0.6618
  443MOL0     H58440   0.903   9.096   8.108  1.4290 -1.9390 -1.6823
  443MOL0     H58441   0.837   9.292   8.252 -0.3551  2.6427 -0.0410
  443MOL0     H58442   0.996   9.650   8.119 -1.9001 -3.8026 -3.6595
  443MOL0     H58443   1.002   9.561   8.284  0.7093  2.4837  1.3625
  443MOL0     H58444   0.880   9.825   8.213  2.9617 -0.5083 -0.7537
  443MOL0     H58445   1.008   9.780   8.331  1.2450 -1.3330 -1.8120
  443MOL0     H58446   0.840   9.646   8.453  0.4357  1.5598  2.0616
  443MOL0     H58447   0.712   9.689   8.330 -1.2071 -1.1149  1.2035
  443MOL0     H58448   0.854   9.914   8.477  0.7440 -1.6606  0.0859
  443MOL0     H58449   0.698   9.916   8.391 -0.6082  0.7961  0.3856
  443MOL0     H58450   0.658   9.917   8.633  2.4396 -0.1746  1.7101
  443MOL0     H58451   0.728   9.753   8.647  0.4842  2.2573 -0.0446
  443MOL0     H58452   0.546   9.730   8.447  1.1995  0.3816  0.4135
  443MOL0     H58453   0.482   9.869   8.537  1.4215  1.0488  0.6250
  443MOL0     H58454   0.472   9.725   8.736  0.0363 -0.0316 -0.3679
  443MOL0     H58455   0.365   9.658   8.612 -0.1551 -0.8112  0.9112
  443MOL0     H58456   0.640   9.550   8.693 -0.6280 -0.9753 -0.6178
  443MOL0     H58457   0.542   9.499   8.556  4.1985 -1.6395  0.8938
  443MOL0     H58458   0.929   9.546   7.919 -4.1857 -0.2723 -0.9566
  443MOL0     H58459   1.031   9.374   7.805  1.0921 -3.0115 -0.2775
  443MOL0     H58460   1.016   8.947   7.695  0.0265 -0.8548 -3.9609
  443MOL0     H58461   1.109   8.770   7.545  0.8575 -0.3556 -0.7004
  443MOL0     H58462   1.181   7.263   6.451  1.6037 -0.6549 -1.6269
  443MOL0     H58463   1.163   7.085   6.313 -0.1758 -1.2621 -1.7254
  443MOL0     H58464   1.196   6.709   6.056  0.1652 -2.6832 -2.9267
  443MOL0     H58465   1.124   6.495   5.966 -0.2374 -0.9157  0.0309
  443MOL0     H58466   0.685   6.433   5.878 -1.1125  0.7932 -1.2826
  443MOL0     H58467   0.777   6.287   5.826  2.2622  0.8528 -0.7745
  443MOL0     H58468   0.797   6.558   5.690  1.1132 -0.2895 -1.2458
  443MOL0     H58469   0.914   6.433   5.661  0.3271 -0.0907  0.7572
  443MOL0     H58470   0.615   6.428   5.591 -0.2890 -1.3177 -0.2503
  443MOL0     H58471   0.726   6.290   5.566  2.6050  0.3883  0.5033
  443MOL0     H58472   0.710   6.381   5.364 -2.1118  0.1061  0.2877
  443MOL0     H58473   0.664   6.546   5.416  0.7205 -0.5566  2.1717
  443MOL0     H58474   1.084   6.552   5.322 -0.0225 -1.1982 -0.2999
  443MOL0     H58475   0.717   6.635   5.957  0.1432  1.2268 -0.8433
  443MOL0     H58476   0.798   6.855   6.031  2.1835  2.3742  1.5160
  444MOL0     O58477   7.447  10.462   3.333  0.6895  0.9014 -0.7036
  444MOL0     C58478   7.554  10.507   3.380  0.7016 -0.0749 -0.2046
  444MOL0     O58479   7.612  10.474   3.496 -0.4074 -0.0493 -0.4429
  444MOL0     C58480   7.591  10.346   3.554  0.0478 -0.5782 -0.1161
  444MOL0     C58481   7.581  10.224   3.481  0.5720  0.0013  1.1487
  444MOL0     C58482   7.591  10.096   3.537 -0.9937 -0.3728 -0.1775
  444MOL0     C58483   7.620  10.087   3.681  0.8380 -0.4313  0.3786
  444MOL0     O58484   7.633   9.956   3.726  0.1174  0.1211 -0.2623
  444MOL0     C58485   7.715   9.937   3.833 -0.2741 -0.1243  0.4900
  444MOL0     C58486   7.778   9.798   3.826  0.0964  0.0798 -1.0090
  444MOL0     C58487   7.684   9.685   3.837  0.7110  0.8287  0.2649
  444MOL0     C58488   7.763   9.557   3.861  0.4158 -0.5355  0.6629
  444MOL0     C58489   7.819   9.500   3.737  0.9156  0.3152 -0.1041
  444MOL0     C58490   7.877   9.349   3.753 -0.0452 -0.1310  0.2729
  444MOL0     C58491   7.935   9.299   3.615  0.1396  0.3578 -0.1376
  444MOL0     C58492   7.961   9.146   3.611 -0.8245 -0.2137 -0.4582
  444MOL0     N58493   8.038   9.102   3.722 -0.9286  0.2144 -0.3799
  444MOL0     C58494   7.983   9.033   3.828  0.1247  0.0223  0.2919
  444MOL0     C58495   8.096   8.983   3.895  0.0985  0.2912  1.2109
  444MOL0     C58496   8.093   8.881   4.009 -0.0847 -0.1482  0.3981
  444MOL0     C58497   8.095   8.735   3.941  0.7821  0.2695 -0.0469
  444MOL0     C58498   8.225   8.689   3.863 -0.1759 -0.4713 -0.4534
  444MOL0     C58499   8.339   8.690   3.956  0.6188  0.0322 -0.2221
  444MOL0     O58500   8.439   8.617   3.892 -0.5067  0.5720 -0.1530
  444MOL0     C58501   8.529   8.551   3.967 -0.8787 -0.9983 -0.2203
  444MOL0     C58502   8.528   8.525   4.107  0.4234 -0.6829 -0.2931
  444MOL0     C58503   8.625   8.451   4.169 -0.6438 -1.1301  0.3514
  444MOL0     C58504   8.715   8.373   4.099 -0.1449  0.5202  0.2331
  444MOL0     C58505   8.824   8.297   4.169 -0.3499  0.6344 -0.6199
  444MOL0     O58506   8.848   8.310   4.309  0.4305 -0.0604  0.1508
  444MOL0     C58507   8.966   8.281   4.359 -0.1264  0.3248  0.1815
  444MOL0     C58508   8.968   8.229   4.484  0.8178  0.9039 -1.1949
  444MOL0     C58509   9.085   8.188   4.541 -0.1180 -0.4335 -0.3610
  444MOL0     C58510   9.203   8.204   4.477  0.4147  0.2597  0.5798
  444MOL0     O58511   9.329   8.178   4.521 -0.4013 -0.4636 -0.7202
  444MOL0     C58512   9.341   8.106   4.648 -0.3524 -0.6555  0.3174
  444MOL0     C58513   9.494   8.121   4.686  0.3990  0.5374 -0.6059
  444MOL0     C58514   9.498   8.142   4.844  0.2718 -0.0426 -1.3950
  444MOL0     C58515   9.621   8.069   4.911 -1.0739 -0.4384 -0.4375
  444MOL0     C58516   9.617   8.055   5.066 -0.1889  0.6137  0.0042
  444MOL0     C58517   9.759   8.024   5.120 -0.7327 -0.5391 -0.0259
  444MOL0     C58518   9.768   7.995   5.275 -0.0586  0.4670 -0.2892
  444MOL0     C58519   9.668   7.896   5.328  0.1050  0.6872  0.0854
  444MOL0    Cl58520   9.655   7.760   5.213  0.1461  0.2956  0.0148
  444MOL0     C58521   9.207   8.269   4.358  0.2899  0.0586  0.1759
  444MOL0     C58522   9.084   8.312   4.302  0.6048 -0.2381 -0.0083
  444MOL0     O58523   8.892   8.224   4.090 -0.0287 -0.6958 -0.1555
  444MOL0     C58524   8.707   8.387   3.959 -0.5882 -0.4110  0.2938
  444MOL0     C58525   8.617   8.468   3.893  0.2464 -0.0606  0.6602
  444MOL0     N58526   8.205   9.032   3.829 -0.2710 -0.2304  0.2726
  444MOL0     N58527   8.176   9.103   3.729  0.2640 -0.0517 -0.3344
  444MOL0     C58528   7.621  10.209   3.753  0.0949  0.5615  0.5587
  444MOL0     C58529   7.613  10.339   3.694 -0.1827  1.3244 -0.1315
  444MOL0     C58530   7.609  10.626   3.309 -0.1787  0.1790  0.0372
  444MOL0     C58531   7.535  10.687   3.208 -0.3230  0.6209  0.3644
  444MOL0     C58532   7.562  10.809   3.158 -0.1281 -0.7344 -0.4437
  444MOL0     C58533   7.678  10.882   3.197  0.0772  0.8487 -0.7159
  444MOL0     O58534   7.704  11.008   3.154 -0.6975 -0.6585  0.2698
  444MOL0     C58535   7.814  11.024   3.054 -0.0562 -0.1713 -0.3239
  444MOL0     C58536   7.920  11.098   3.128  0.0389  0.7143 -0.5138
  444MOL0     C58537   8.038  11.116   3.035 -0.8843 -0.3310  1.2571
  444MOL0     C58538   8.020  11.244   2.963 -0.4005  0.4149  0.2820
  444MOL0     C58539   8.139  11.301   2.897  0.2837 -0.6568  0.6192
  444MOL0     C58540   8.241  11.340   2.833  0.6113 -0.5284 -1.2893
  444MOL0     C58541   7.752  10.815   3.294 -0.0795 -0.5217  0.5793
  444MOL0     C58542   7.725  10.690   3.349 -0.3533 -0.2470  0.1106
  444MOL0     H58543   7.577  10.233   3.373  0.0422  4.8285  1.3947
  444MOL0     H58544   7.578  10.010   3.472  0.8414 -1.2838  0.5869
  444MOL0     H58545   7.648   9.945   3.919 -5.3071 -1.4920 -2.8787
  444MOL0     H58546   7.787  10.020   3.839  0.2562 -0.5100 -0.2728
  444MOL0     H58547   7.852   9.783   3.905 -2.7411 -1.5262  1.5695
  444MOL0     H58548   7.831   9.796   3.730  0.5130  0.1718 -0.7852
  444MOL0     H58549   7.622   9.684   3.747  3.2080 -2.1252 -1.6005
  444MOL0     H58550   7.623   9.721   3.921 -0.0223  0.7739 -0.2360
  444MOL0     H58551   7.849   9.566   3.928  3.9190 -2.5612 -3.1060
  444MOL0     H58552   7.689   9.494   3.911 -1.0863  0.6793  0.0699
  444MOL0     H58553   7.892   9.575   3.706 -0.1940  0.6316 -2.1575
  444MOL0     H58554   7.751   9.503   3.651  2.6467  0.2012 -1.5409
  444MOL0     H58555   7.808   9.279   3.801  0.3828 -0.4730  0.3915
  444MOL0     H58556   7.968   9.340   3.813  0.4701 -2.0949 -0.7215
  444MOL0     H58557   7.870   9.316   3.529 -0.3790 -2.0046 -0.2981
  444MOL0     H58558   8.025   9.359   3.600 -2.1553  3.4733 -2.8494
  444MOL0     H58559   8.020   9.113   3.525 -0.1352  0.1819 -0.1472
  444MOL0     H58560   7.865   9.094   3.608 -0.2424 -1.3189 -0.4422
  444MOL0     H58561   7.880   9.005   3.847 -0.2345  0.5329 -0.7938
  444MOL0     H58562   7.998   8.899   4.061 -1.0517  2.5892 -2.0310
  444MOL0     H58563   8.178   8.890   4.077  0.2987 -1.3379  0.1053
  444MOL0     H58564   8.006   8.733   3.877  0.2191  2.7564  0.5423
  444MOL0     H58565   8.082   8.662   4.021  2.7997 -0.1668 -0.0634
  444MOL0     H58566   8.214   8.590   3.819 -1.6560 -1.4088  1.8592
  444MOL0     H58567   8.240   8.750   3.773 -3.1555 -0.0443 -0.7584
  444MOL0     H58568   8.302   8.640   4.046 -2.4308  2.3264 -0.0488
  444MOL0     H58569   8.382   8.789   3.977  0.5294  0.5894 -2.4178
  444MOL0     H58570   8.454   8.586   4.159 -1.6287 -2.0680 -1.4510
  444MOL0     H58571   8.621   8.438   4.277 -1.6744  0.2202  0.5059
  444MOL0     H58572   8.872   8.221   4.534  1.0573  0.5170 -0.7969
  444MOL0     H58573   9.077   8.136   4.636  2.6619 -1.7685 -0.7694
  444MOL0     H58574   9.326   8.000   4.626 -0.2390 -0.9862  1.7515
  444MOL0     H58575   9.271   8.152   4.719 -2.2791 -0.3987 -1.6441
  444MOL0     H58576   9.542   8.209   4.641  2.0249  0.1952  0.4102
  444MOL0     H58577   9.550   8.032   4.660 -1.1122 -1.2608  1.8707
  444MOL0     H58578   9.407   8.097   4.885  0.2569  1.0274 -0.1960
  444MOL0     H58579   9.510   8.247   4.870  0.6367 -1.2097  4.3536
  444MOL0     H58580   9.647   7.975   4.862  0.2591 -0.1397 -0.3322
  444MOL0     H58581   9.711   8.128   4.891 -0.9104 -0.6538 -0.3394
  444MOL0     H58582   9.541   7.980   5.089 -0.4496  1.8062  3.5832
  444MOL0     H58583   9.596   8.144   5.127 -0.5490 -0.4928  1.5603
  444MOL0     H58584   9.825   8.109   5.101  2.4454 -2.5769  0.9349
  444MOL0     H58585   9.798   7.935   5.069  0.7718  1.3641 -2.4825
  444MOL0     H58586   9.870   7.961   5.298 -1.2043 -3.8704 -0.7091
  444MOL0     H58587   9.754   8.086   5.334  0.4187 -0.9570  2.1684
  444MOL0     H58588   9.569   7.942   5.332  0.9127  2.5680 -0.3980
  444MOL0     H58589   9.691   7.867   5.430 -1.5474  0.1717  0.3358
  444MOL0     H58590   9.296   8.299   4.303  0.3257 -1.1142 -0.4349
  444MOL0     H58591   9.099   8.362   4.207  0.8905 -0.2298  0.0374
  444MOL0     H58592   8.773   8.329   3.895 -2.4197 -1.3224 -0.8257
  444MOL0     H58593   8.626   8.480   3.786  1.0382 -0.9219  0.6187
  444MOL0     H58594   7.629  10.195   3.860 -0.8407 -1.0037  0.4540
  444MOL0     H58595   7.642  10.423   3.757 -0.3072  0.0526  1.7242
  444MOL0     H58596   7.450  10.630   3.170  0.2648 -1.0319  1.4253
  444MOL0     H58597   7.495  10.855   3.086 -1.1447 -1.4815  0.0027
  444MOL0     H58598   7.780  11.075   2.963 -1.4919  1.6954  1.1575
  444MOL0     H58599   7.845  10.922   3.027 -1.6036 -0.2940 -1.8711
  444MOL0     H58600   7.884  11.193   3.170 -2.1765 -0.4371  0.3853
  444MOL0     H58601   7.946  11.031   3.211 -2.1639  1.9852  1.3355
  444MOL0     H58602   8.050  11.026   2.974  2.5161 -0.1295  1.3999
  444MOL0     H58603   8.127  11.113   3.099  1.3228  2.1121 -1.4498
  444MOL0     H58604   7.933  11.220   2.902  0.2199 -2.2996  0.3295
  444MOL0     H58605   7.989  11.318   3.038 -1.6057  0.2275 -0.0188
  444MOL0     H58606   8.328  11.370   2.778  1.6499  0.8278  0.9807
  444MOL0     H58607   7.837  10.880   3.315 -0.5736  0.7143 -1.0904
  444MOL0     H58608   7.780  10.662   3.439 -1.0181  1.5794  1.1272
  445MOL0     O58609   9.769   9.175   8.975 -0.4699 -0.9584  0.3763
  445MOL0     C58610   9.843   9.257   8.926 -0.6939  0.1505 -0.0896
  445MOL0     O58611   9.818   9.332   8.812 -0.5723  0.2868  0.1550
  445MOL0     C58612   9.695   9.314   8.737 -0.9780 -0.7227  0.8087
  445MOL0     C58613   9.666   9.437   8.680  0.6673 -0.1994  0.1196
  445MOL0     C58614   9.554   9.444   8.593 -1.1457 -0.8039 -0.9457
  445MOL0     C58615   9.481   9.326   8.561 -1.2739 -0.0203  0.3547
  445MOL0     O58616   9.392   9.345   8.458 -0.4875 -0.5865  0.1760
  445MOL0     C58617   9.321   9.239   8.404  0.1944  0.9869  0.2362
  445MOL0     C58618   9.187   9.277   8.338 -0.1228 -1.1882 -0.0401
  445MOL0     C58619   9.188   9.363   8.211 -0.3257 -1.4946  0.6661
  445MOL0     C58620   9.058   9.369   8.121  0.4300 -0.5757 -0.0539
  445MOL0     C58621   9.044   9.240   8.030  0.8714  0.0008 -0.4320
  445MOL0     C58622   8.893   9.210   7.994  0.0720  0.7624  0.3619
  445MOL0     C58623   8.810   9.298   7.901 -0.5728 -0.9635  0.1440
  445MOL0     C58624   8.875   9.355   7.785  0.3215 -0.1976  0.7069
  445MOL0     N58625   8.785   9.441   7.699  0.2502 -0.4195  0.1716
  445MOL0     C58626   8.677   9.520   7.742  0.5983  0.0827  0.0271
  445MOL0     C58627   8.588   9.530   7.644  0.0427  1.2219  0.1772
  445MOL0     C58628   8.461   9.612   7.635  0.6941 -1.2986 -0.6008
  445MOL0     C58629   8.455   9.684   7.497  0.4803 -0.0961 -1.0614
  445MOL0     C58630   8.585   9.757   7.466  0.3227  0.4300  0.3075
  445MOL0     C58631   8.561   9.880   7.383 -1.5530 -0.2824 -1.2686
  445MOL0     O58632   8.532   9.856   7.244 -0.0579 -0.3816  0.4212
  445MOL0     C58633   8.476   9.967   7.176 -0.5140  0.4088 -0.3942
  445MOL0     C58634   8.375   9.938   7.083  0.8992  0.3609 -1.1098
  445MOL0     C58635   8.314  10.046   7.019  1.3849  0.6427 -0.0610
  445MOL0     C58636   8.351  10.182   7.052  0.2970 -0.1707  0.0155
  445MOL0     C58637   8.293  10.296   6.971 -1.1032  0.8058  0.1562
  445MOL0     O58638   8.214  10.264   6.868  0.7606 -0.3715  0.2455
  445MOL0     C58639   8.193  10.368   6.774  0.9093  0.8660 -0.4056
  445MOL0     C58640   8.109  10.480   6.801  0.6247  0.1561  0.0261
  445MOL0     C58641   8.114  10.591   6.720 -0.1495 -0.9235  0.0205
  445MOL0     C58642   8.192  10.590   6.599 -0.2132  0.1346  0.1236
  445MOL0     O58643   8.208  10.695   6.504  0.0111 -0.0118  0.5321
  445MOL0     C58644   8.118  10.803   6.507  0.6902  0.1841  0.6193
  445MOL0     C58645   8.135  10.900   6.382 -0.6416  0.5965  0.7647
  445MOL0     C58646   8.011  10.984   6.378  0.1566  0.9893  0.4496
  445MOL0     C58647   8.014  11.105   6.277  0.2937 -0.0312 -0.7697
  445MOL0     C58648   8.100  11.210   6.342  0.1388 -0.0110 -0.0634
  445MOL0     C58649   8.119  11.330   6.244  0.2218 -0.1687  0.0049
  445MOL0     C58650   8.231  11.421   6.301 -0.2281  0.2272 -1.1130
  445MOL0     C58651   8.232  11.539   6.211  0.1741  0.2661 -0.8154
  445MOL0    Cl58652   8.078  11.620   6.176  0.1382  0.2455  0.2110
  445MOL0     C58653   8.257  10.480   6.565 -0.5732  0.3278  1.0869
  445MOL0     C58654   8.268  10.374   6.653  0.4301 -0.0352  0.0953
  445MOL0     O58655   8.317  10.409   7.007  0.3992  0.0240 -0.2193
  445MOL0     C58656   8.437  10.200   7.154 -0.4310 -0.0255 -0.5129
  445MOL0     C58657   8.512  10.092   7.207  0.3526 -0.0948  1.3638
  445MOL0     N58658   8.635   9.443   7.544 -0.4519 -0.7820 -0.1266
  445MOL0     N58659   8.753   9.403   7.570  0.2703 -0.2153  0.0463
  445MOL0     C58660   9.513   9.204   8.634  0.1426 -0.0690  0.3348
  445MOL0     C58661   9.620   9.198   8.728 -0.2312 -0.0361  1.1387
  445MOL0     C58662   9.967   9.293   9.001 -0.1637  0.0627  0.6941
  445MOL0     C58663  10.086   9.348   8.936  0.5320  0.4378 -0.9427
  445MOL0     C58664  10.190   9.392   9.010  0.4880  0.2734 -0.0571
  445MOL0     C58665  10.200   9.370   9.148  0.4270  0.1672  0.7894
  445MOL0     O58666  10.304   9.441   9.196  0.3862  0.3349 -0.3919
  445MOL0     C58667  10.322   9.470   9.337  0.9078  1.2418 -1.0384
  445MOL0     C58668  10.402   9.594   9.363  0.0563 -0.0253  0.7419
  445MOL0     C58669  10.368   9.735   9.312 -0.3367  0.0706 -0.5530
  445MOL0     C58670  10.387   9.754   9.155  0.1391  0.7219  0.1285
  445MOL0     C58671  10.300   9.846   9.085 -0.4282 -0.8563 -0.2341
  445MOL0     C58672  10.171   9.944   8.969 -0.2952  0.0908 -0.4395
  445MOL0     C58673  10.086   9.310   9.217 -0.0488  0.2832  0.0134
  445MOL0     C58674   9.968   9.275   9.144 -0.2146  0.0098 -0.4138
  445MOL0     H58675   9.722   9.529   8.695 -0.2836  0.5091 -0.5272
  445MOL0     H58676   9.526   9.537   8.545 -2.9196 -1.3098 -0.9566
  445MOL0     H58677   9.298   9.176   8.490  0.1623 -1.7012 -1.6099
  445MOL0     H58678   9.387   9.177   8.342  0.1745  1.7938 -0.6250
  445MOL0     H58679   9.126   9.322   8.417  1.6399 -0.8376  1.1829
  445MOL0     H58680   9.134   9.189   8.301 -1.9135  0.6732 -2.2731
  445MOL0     H58681   9.268   9.325   8.147  0.5463 -5.2978  3.6585
  445MOL0     H58682   9.216   9.466   8.238  0.9545 -1.2756 -1.3234
  445MOL0     H58683   8.968   9.380   8.182 -0.0605 -1.2740 -0.6490
  445MOL0     H58684   9.053   9.458   8.058  0.1190 -1.0691 -0.7284
  445MOL0     H58685   9.071   9.160   8.100 -4.9441  0.0575  2.4392
  445MOL0     H58686   9.105   9.236   7.939 -0.7062  3.2365 -1.7739
  445MOL0     H58687   8.840   9.211   8.090 -1.9278 -2.4547 -0.5346
  445MOL0     H58688   8.889   9.108   7.956  5.2492  0.3523  0.2852
  445MOL0     H58689   8.731   9.232   7.862  0.4458 -1.1198 -1.7650
  445MOL0     H58690   8.761   9.377   7.959  1.7936  1.0483 -0.4455
  445MOL0     H58691   8.918   9.272   7.729 -0.2778 -0.3667  0.4881
  445MOL0     H58692   8.960   9.407   7.831  1.6738 -2.4486  0.9209
  445MOL0     H58693   8.659   9.566   7.838  2.9152 -1.5984  1.3674
  445MOL0     H58694   8.459   9.675   7.723 -1.6030 -1.8585 -0.1837
  445MOL0     H58695   8.370   9.551   7.636 -0.0792 -0.2275 -1.7774
  445MOL0     H58696   8.366   9.748   7.492 -1.1433 -1.9895  1.1214
  445MOL0     H58697   8.455   9.606   7.420 -0.0236 -0.8055 -0.3599
  445MOL0     H58698   8.638   9.786   7.557  0.5095 -0.3701  0.4572
  445MOL0     H58699   8.646   9.686   7.410  0.2936 -0.2109  1.0738
  445MOL0     H58700   8.651   9.942   7.385 -0.6237 -1.4210  2.9030
  445MOL0     H58701   8.483   9.940   7.431  1.7180  2.5876  1.0291
  445MOL0     H58702   8.361   9.833   7.061 -1.3660  0.5491 -0.8049
  445MOL0     H58703   8.251  10.025   6.934 -0.0357  1.6700  0.6979
  445MOL0     H58704   8.054  10.474   6.894  0.3248  0.6781 -0.1141
  445MOL0     H58705   8.057  10.682   6.733 -2.3682 -1.4584 -3.9781
  445MOL0     H58706   8.127  10.863   6.598 -1.2043 -0.7660  1.5015
  445MOL0     H58707   8.018  10.766   6.531  1.0161 -0.6924  0.6470
  445MOL0     H58708   8.139  10.836   6.293  2.0108  1.0040  0.5107
  445MOL0     H58709   8.230  10.952   6.396  0.9618 -2.0537  0.4475
  445MOL0     H58710   7.973  11.019   6.475  0.2822  0.9683  0.5062
  445MOL0     H58711   7.926  10.920   6.354  0.4273  0.2758  1.3510
  445MOL0     H58712   8.064  11.068   6.187  1.6035 -0.6828  0.1840
  445MOL0     H58713   7.915  11.150   6.271 -0.1167 -0.4823  1.4838
  445MOL0     H58714   8.199  11.170   6.366  0.7476  1.1929 -0.4609
  445MOL0     H58715   8.050  11.250   6.431 -2.2068  2.3266 -2.2620
  445MOL0     H58716   8.023  11.378   6.223  0.2544  0.1891  0.6531
  445MOL0     H58717   8.153  11.283   6.152  1.6256  0.6043  0.1062
  445MOL0     H58718   8.214  11.449   6.406  0.0708 -0.8063 -0.7787
  445MOL0     H58719   8.326  11.367   6.295 -0.6794 -0.6353 -0.6991
  445MOL0     H58720   8.286  11.500   6.124  1.9175 -0.1420  0.4036
  445MOL0     H58721   8.306  11.611   6.248  1.6233  0.1158 -3.1488
  445MOL0     H58722   8.308  10.478   6.470 -2.8283 -0.4825 -0.2014
  445MOL0     H58723   8.326  10.287   6.625 -0.5044 -0.6985  0.1824
  445MOL0     H58724   8.461  10.298   7.194  0.0867 -0.7527  1.0205
  445MOL0     H58725   8.591  10.114   7.277  1.4272 -0.7579  0.3858
  445MOL0     H58726   9.475   9.105   8.611  1.2590 -0.9569  2.0411
  445MOL0     H58727   9.631   9.105   8.781  0.0210  0.3873  1.8382
  445MOL0     H58728  10.087   9.367   8.829 -1.6488  3.6704 -0.5291
  445MOL0     H58729  10.272   9.451   8.970  2.0143  2.7628  5.6420
  445MOL0     H58730  10.371   9.388   9.391 -0.3073  1.5290  0.5907
  445MOL0     H58731  10.225   9.489   9.385 -0.1515 -2.4047 -1.4626
  445MOL0     H58732  10.415   9.590   9.471  1.3871 -1.2695  0.5638
  445MOL0     H58733  10.503   9.572   9.329 -0.2483  0.6263 -0.6863
  445MOL0     H58734  10.427   9.805   9.372  1.0513 -0.1040 -1.6633
  445MOL0     H58735  10.262   9.736   9.337 -0.0212 -0.0376  0.9021
  445MOL0     H58736  10.487   9.799   9.145 -0.2541  1.1513 -3.0682
  445MOL0     H58737  10.390   9.658   9.103  0.7028  1.0659 -0.5005
  445MOL0     H58738  10.102  10.009   8.921  1.5351  1.0651 -1.8783
  445MOL0     H58739  10.095   9.290   9.323 -0.2960  2.1588  0.4152
  445MOL0     H58740   9.890   9.230   9.204 -0.5436  1.1089  0.0169
  446MOL0     O58741   2.009   2.761   4.923 -0.2650 -0.2675 -0.1835
  446MOL0     C58742   2.063   2.678   4.846 -0.2967  0.2934  1.0420
  446MOL0     O58743   2.019   2.643   4.724  0.2454 -0.3394 -1.4210
  446MOL0     C58744   1.895   2.689   4.692 -0.1247  0.6726  0.3586
  446MOL0     C58745   1.874   2.829   4.652 -0.4042  1.3093 -0.8256
  446MOL0     C58746   1.747   2.864   4.614 -0.2020 -0.1461 -0.1986
  446MOL0     C58747   1.632   2.775   4.605 -0.6403  0.3231 -0.4898
  446MOL0     O58748   1.506   2.827   4.574 -0.6231 -0.1837 -0.0173
  446MOL0     C58749   1.387   2.746   4.557  0.2581 -0.5695  0.1779
  446MOL0     C58750   1.357   2.755   4.411  0.1529  0.4729 -0.7872
  446MOL0     C58751   1.465   2.695   4.318 -0.2723  0.1148  0.5336
  446MOL0     C58752   1.422   2.683   4.176  0.4504  0.2379  0.4414
  446MOL0     C58753   1.518   2.621   4.075  0.4402  0.3596 -0.2310
  446MOL0     C58754   1.448   2.590   3.942  0.3238  0.3588 -0.9389
  446MOL0     C58755   1.554   2.564   3.832  0.5231 -0.5162  0.3721
  446MOL0     C58756   1.634   2.687   3.802 -0.2768 -0.5233 -0.5628
  446MOL0     N58757   1.771   2.657   3.761 -0.3587  0.1910 -0.2955
  446MOL0     C58758   1.813   2.661   3.632 -0.8888  0.3066  0.5748
  446MOL0     C58759   1.938   2.613   3.632 -0.0093 -0.0608  0.7451
  446MOL0     C58760   2.013   2.591   3.505 -0.3000 -0.3179 -0.3782
  446MOL0     C58761   2.067   2.729   3.470 -0.0635 -0.5076  0.7898
  446MOL0     C58762   2.175   2.722   3.357  0.4485 -0.1620 -0.6258
  446MOL0     C58763   2.250   2.854   3.335  0.1020  0.8146 -0.4349
  446MOL0     O58764   2.158   2.936   3.270 -0.2932  0.1430 -0.7593
  446MOL0     C58765   2.212   3.048   3.225  0.4321 -0.4911 -0.1873
  446MOL0     C58766   2.337   3.095   3.217 -0.9604 -0.3354 -0.6957
  446MOL0     C58767   2.366   3.209   3.147  0.2670 -1.2841 -0.4579
  446MOL0     C58768   2.259   3.282   3.092 -0.9427  0.1803 -0.3512
  446MOL0     C58769   2.277   3.407   3.012  0.1452 -0.0732  0.7868
  446MOL0     O58770   2.394   3.464   3.009 -0.5395 -0.3890 -0.6548
  446MOL0     C58771   2.434   3.580   2.938 -0.4436  0.4839  0.2883
  446MOL0     C58772   2.569   3.616   2.946 -0.5699  0.2146  0.0819
  446MOL0     C58773   2.627   3.725   2.882  0.2333  0.2692  0.2883
  446MOL0     C58774   2.533   3.813   2.814  0.0041 -0.2933 -0.4437
  446MOL0     O58775   2.575   3.932   2.768  0.7672 -0.0793 -0.1225
  446MOL0     C58776   2.568   4.035   2.875 -0.3756  1.2688  0.4653
  446MOL0     C58777   2.672   4.030   2.983  1.4435 -0.3907 -0.5061
  446MOL0     C58778   2.821   4.015   2.939  0.0673  0.3596  1.0142
  446MOL0     C58779   2.915   4.016   3.055 -0.1273  0.1105 -0.0434
  446MOL0     C58780   3.061   3.980   3.026 -0.0574  0.2091 -0.3500
  446MOL0     C58781   3.145   4.022   3.148  0.4316 -0.6115  0.6438
  446MOL0     C58782   3.274   3.937   3.176 -0.8921  0.1227  0.7919
  446MOL0     C58783   3.356   3.944   3.041 -0.4369  0.3791  0.1263
  446MOL0    Cl58784   3.421   4.117   3.002  0.0573  0.1056 -0.0915
  446MOL0     C58785   2.396   3.786   2.826  0.3271 -0.9241 -0.0177
  446MOL0     C58786   2.346   3.664   2.874 -0.7520 -0.2587  0.4124
  446MOL0     O58787   2.177   3.448   2.952  1.0619  0.0210  0.2185
  446MOL0     C58788   2.133   3.242   3.122  0.5852 -0.2823 -0.4740
  446MOL0     C58789   2.102   3.128   3.193  0.1027  0.3405 -1.2162
  446MOL0     N58790   1.964   2.583   3.762  0.2995 -1.1005  0.5560
  446MOL0     N58791   1.863   2.595   3.837 -0.0678 -1.1387  1.0185
  446MOL0     C58792   1.658   2.641   4.630  0.4589  0.2264 -1.0526
  446MOL0     C58793   1.787   2.600   4.677 -0.3362 -0.9519  0.0393
  446MOL0     C58794   2.192   2.612   4.892  0.2167 -0.1359  0.0315
  446MOL0     C58795   2.229   2.484   4.845 -0.1285 -0.2393  0.1842
  446MOL0     C58796   2.352   2.428   4.878  0.1712 -0.0476  0.5241
  446MOL0     C58797   2.425   2.478   4.981  0.1499 -0.1570  0.5396
  446MOL0     O58798   2.539   2.410   5.008 -0.4824  0.2870  0.1584
  446MOL0     C58799   2.637   2.468   5.102 -0.1722 -0.7752  0.9380
  446MOL0     C58800   2.759   2.387   5.101 -0.2376 -0.6919 -0.3184
  446MOL0     C58801   2.847   2.436   5.220 -0.3752 -0.8636  0.9553
  446MOL0     C58802   2.983   2.371   5.241  0.3385 -0.0703 -0.0839
  446MOL0     C58803   2.956   2.225   5.259  1.4412 -0.1674  0.9854
  446MOL0     C58804   2.941   2.107   5.270 -0.4623  0.4536 -0.3286
  446MOL0     C58805   2.378   2.604   5.036  0.1141  0.4048 -1.3345
  446MOL0     C58806   2.261   2.674   4.993  0.0879 -0.1202 -0.1329
  446MOL0     H58807   1.961   2.890   4.674  2.6039 -2.6665 -0.5194
  446MOL0     H58808   1.745   2.971   4.599  2.1118  0.0231  0.3568
  446MOL0     H58809   1.297   2.794   4.598  0.7416  2.0325 -1.5731
  446MOL0     H58810   1.388   2.642   4.592 -1.4092 -0.4574  0.6567
  446MOL0     H58811   1.336   2.862   4.402 -1.7381 -0.0361 -3.9728
  446MOL0     H58812   1.259   2.713   4.389 -0.2339  1.8595 -1.8029
  446MOL0     H58813   1.487   2.595   4.356 -0.5914 -0.2942 -0.3071
  446MOL0     H58814   1.546   2.767   4.309 -2.0394  2.2645  0.8925
  446MOL0     H58815   1.334   2.619   4.183  0.6213  0.1546  2.4048
  446MOL0     H58816   1.386   2.782   4.145 -0.9506 -0.0637  1.0034
  446MOL0     H58817   1.564   2.523   4.090  0.7509  0.9571  3.6303
  446MOL0     H58818   1.600   2.693   4.069  0.4753  0.7280  2.9288
  446MOL0     H58819   1.377   2.672   3.924 -0.3620 -0.3367 -1.4293
  446MOL0     H58820   1.399   2.493   3.953  1.6197 -0.2208  0.0123
  446MOL0     H58821   1.618   2.483   3.867 -0.0799 -1.8453 -1.4037
  446MOL0     H58822   1.506   2.528   3.740 -2.6972  1.2088  1.2456
  446MOL0     H58823   1.640   2.759   3.884 -0.0481  1.4205 -2.2156
  446MOL0     H58824   1.600   2.750   3.719  0.7529  0.0339 -0.5877
  446MOL0     H58825   1.753   2.689   3.546  1.3875 -0.0112 -1.1912
  446MOL0     H58826   1.954   2.542   3.426  0.1045 -0.9188 -0.3160
  446MOL0     H58827   2.089   2.514   3.523 -1.4702 -1.5709 -0.5655
  446MOL0     H58828   2.110   2.772   3.561  0.7273 -0.8239  0.5722
  446MOL0     H58829   1.989   2.797   3.435  2.3018  1.9576 -0.0050
  446MOL0     H58830   2.251   2.649   3.385  1.7036  0.2126 -2.8164
  446MOL0     H58831   2.136   2.692   3.259 -0.4657 -0.2999 -0.2356
  446MOL0     H58832   2.335   2.821   3.274  0.0977 -2.0973  0.9714
  446MOL0     H58833   2.289   2.903   3.425  3.6734  0.2458 -1.4955
  446MOL0     H58834   2.414   3.035   3.264  0.4394 -0.4158 -2.9579
  446MOL0     H58835   2.471   3.236   3.134  0.0877 -1.4298 -2.4228
  446MOL0     H58836   2.631   3.555   3.011 -1.5721 -1.3538 -0.3909
  446MOL0     H58837   2.731   3.749   2.903  0.5168  0.8778 -1.6574
  446MOL0     H58838   2.467   4.036   2.917 -0.5510 -3.2649  0.5748
  446MOL0     H58839   2.581   4.132   2.826 -0.3593  0.4789 -1.1694
  446MOL0     H58840   2.645   3.949   3.050  2.3505 -1.8674 -1.8536
  446MOL0     H58841   2.669   4.118   3.048 -0.7414 -0.0705 -0.9409
  446MOL0     H58842   2.852   4.095   2.871 -0.4422  0.6400  1.1003
  446MOL0     H58843   2.831   3.922   2.882  1.3003 -0.3021  2.2764
  446MOL0     H58844   2.915   4.114   3.102 -1.8386 -1.0939  2.7166
  446MOL0     H58845   2.881   3.947   3.132 -2.2123  0.4293 -0.6145
  446MOL0     H58846   3.102   4.033   2.940  0.2142 -2.5726 -2.0319
  446MOL0     H58847   3.067   3.874   3.002  0.4746 -0.0973  1.0376
  446MOL0     H58848   3.083   4.009   3.238 -1.6448  0.6521 -0.5209
  446MOL0     H58849   3.179   4.125   3.142  3.4618 -1.5675 -0.4854
  446MOL0     H58850   3.319   3.975   3.268  2.0456  0.7109 -0.7797
  446MOL0     H58851   3.265   3.830   3.195  0.4967 -0.4864 -1.5843
  446MOL0     H58852   3.302   3.915   2.950  0.3348 -1.4710  0.2200
  446MOL0     H58853   3.439   3.873   3.039 -0.6787  0.1003  0.0084
  446MOL0     H58854   2.330   3.850   2.768  2.4268 -1.3629 -3.1136
  446MOL0     H58855   2.241   3.638   2.862 -0.1827 -2.2904 -0.6129
  446MOL0     H58856   2.059   3.314   3.088  1.6625  1.0952  0.0384
  446MOL0     H58857   2.001   3.093   3.210 -0.3171  2.3323  0.9540
  446MOL0     H58858   1.582   2.565   4.619  0.2274  0.3480 -0.3631
  446MOL0     H58859   1.794   2.492   4.689 -3.6095 -1.1578  1.2068
  446MOL0     H58860   2.167   2.432   4.773  0.5077 -1.8431  0.7403
  446MOL0     H58861   2.377   2.334   4.829  0.3646  0.2912 -0.0364
  446MOL0     H58862   2.598   2.465   5.204  0.4028 -1.8798  1.1483
  446MOL0     H58863   2.663   2.568   5.068 -1.6924  0.0099  1.9598
  446MOL0     H58864   2.722   2.286   5.122 -0.4824 -0.2372  1.6276
  446MOL0     H58865   2.827   2.402   5.016  3.9040  0.7412  2.8830
  446MOL0     H58866   2.790   2.418   5.311 -0.2235  2.3880  1.8336
  446MOL0     H58867   2.881   2.540   5.206 -1.0430 -0.9047 -1.4583
  446MOL0     H58868   3.053   2.383   5.158  2.6231  0.6709  1.8444
  446MOL0     H58869   3.026   2.409   5.334  1.1240 -0.8582 -0.1184
  446MOL0     H58870   2.951   2.007   5.308  1.5143 -0.2123 -2.4064
  446MOL0     H58871   2.424   2.637   5.128 -2.9109  1.9525 -0.2384
  446MOL0     H58872   2.222   2.762   5.043 -0.2253  0.2236 -0.9800
  447MOL0     O58873   9.047   0.610  10.660  0.1789  0.0556  0.3946
  447MOL0     C58874   9.042   0.611  10.784 -0.1202  0.9218 -0.4848
  447MOL0     O58875   9.107   0.699  10.862 -0.6357  0.3520  0.4261
  447MOL0     C58876   9.212   0.770  10.797  1.4268 -0.0639 -0.5382
  447MOL0     C58877   9.188   0.894  10.749 -0.4649 -0.3928  0.4541
  447MOL0     C58878   9.289   0.958  10.669 -0.6081 -0.7975 -0.9032
  447MOL0     C58879   9.417   0.908  10.669  0.3885  0.6689 -0.0044
  447MOL0     O58880   9.519   0.980  10.612 -0.7905 -0.3810  0.1350
  447MOL0     C58881   9.660   0.937  10.622  0.3642  0.2008 -0.0325
  447MOL0     C58882   9.743   1.040  10.546  0.3612 -0.1870 -0.5789
  447MOL0     C58883   9.888   0.992  10.518  0.2354 -0.4518  0.2934
  447MOL0     C58884   9.975   1.096  10.449  0.9020  0.3367  0.0138
  447MOL0     C58885  10.124   1.039  10.462  0.3656  0.5396 -0.1588
  447MOL0     C58886  10.235   1.133  10.388  0.0356  0.1840  0.0077
  447MOL0     C58887  10.213   1.280  10.420  0.7808  0.8215  0.0822
  447MOL0     C58888  10.348   1.362  10.410 -0.5033 -0.1000  0.5611
  447MOL0     N58889  10.417   1.327  10.276 -0.2592 -0.2520  0.0722
  447MOL0     C58890  10.398   1.399  10.163 -0.0048  0.0400 -1.3233
  447MOL0     C58891  10.493   1.365  10.081  0.0438 -0.6853  0.9853
  447MOL0     C58892  10.496   1.426   9.945  0.1343 -0.0272 -0.0181
  447MOL0     C58893  10.371   1.404   9.859  0.9989 -0.2836 -0.3125
  447MOL0     C58894  10.345   1.257   9.817 -0.6187 -0.6184 -0.3947
  447MOL0     C58895  10.249   1.185   9.910  0.6788  0.5158 -0.3139
  447MOL0     O58896  10.123   1.245   9.913 -0.3225 -0.3302  0.3017
  447MOL0     C58897  10.021   1.177   9.975 -1.0045  0.5385 -0.4168
  447MOL0     C58898  10.048   1.052  10.050  0.4687  0.0325  0.2029
  447MOL0     C58899   9.938   0.983  10.090  0.0953 -0.0715 -0.4122
  447MOL0     C58900   9.805   1.020  10.069 -0.2315  0.1986  0.1750
  447MOL0     C58901   9.694   0.944  10.136  0.3452  0.4776 -0.4113
  447MOL0     O58902   9.567   1.004  10.115 -0.0158  0.3382  0.1338
  447MOL0     C58903   9.452   0.955  10.149 -0.1524  0.0931 -0.4839
  447MOL0     C58904   9.416   0.924  10.286 -1.0182  0.7656 -0.0261
  447MOL0     C58905   9.286   0.881  10.295  0.0900 -0.0817  0.2734
  447MOL0     C58906   9.210   0.842  10.185  0.6257  0.4103  0.9299
  447MOL0     O58907   9.081   0.794  10.185 -0.1757  1.0454  0.2771
  447MOL0     C58908   9.037   0.708  10.293 -0.9753 -0.7161  0.4310
  447MOL0     C58909   8.964   0.593  10.232  0.1538 -0.8470 -0.2952
  447MOL0     C58910   8.834   0.552  10.302  0.4263  0.4139  0.7698
  447MOL0     C58911   8.726   0.664  10.290  0.4602 -0.3851 -0.1272
  447MOL0     C58912   8.608   0.641  10.381 -0.0178 -0.0562 -0.2845
  447MOL0     C58913   8.525   0.506  10.375 -0.3565  0.5414  0.5849
  447MOL0     C58914   8.462   0.483  10.237 -0.0027  0.4195  0.6437
  447MOL0     C58915   8.342   0.388  10.258 -0.0269  0.6570 -0.2098
  447MOL0    Cl58916   8.232   0.399  10.120 -0.1082 -0.2404 -0.0262
  447MOL0     C58917   9.252   0.861  10.058 -0.1093 -0.3134 -1.3930
  447MOL0     C58918   9.377   0.915  10.036  0.5978  0.0408  0.2769
  447MOL0     O58919   9.719   0.835  10.193  1.0103  0.3061 -0.0800
  447MOL0     C58920   9.779   1.125   9.973  1.0997  0.2926 -0.3687
  447MOL0     C58921   9.894   1.204   9.934  1.1342 -0.1856  0.7896
  447MOL0     N58922  10.566   1.268  10.141 -0.0221  0.1780  0.6361
  447MOL0     N58923  10.527   1.253  10.261 -0.6817 -0.4005 -1.0986
  447MOL0     C58924   9.444   0.786  10.732  0.3017 -0.6962  0.2842
  447MOL0     C58925   9.339   0.715  10.794 -1.0997  0.0584  0.2628
  447MOL0     C58926   8.945   0.522  10.842  0.1796 -0.0537 -0.2393
  447MOL0     C58927   8.910   0.546  10.973 -0.5628  1.1881 -1.0615
  447MOL0     C58928   8.802   0.474  11.033  0.5800  0.0360  0.5547
  447MOL0     C58929   8.743   0.374  10.970  0.2852 -0.9336  0.0022
  447MOL0     O58930   8.636   0.302  11.016  0.2472 -0.4040 -0.3940
  447MOL0     C58931   8.588   0.303  11.151  0.0542  0.0172 -0.8218
  447MOL0     C58932   8.451   0.225  11.156 -0.1731  0.4512 -0.2247
  447MOL0     C58933   8.429   0.165  11.289 -0.0557 -0.5058  0.1922
  447MOL0     C58934   8.298   0.088  11.307  0.1577 -0.6739 -0.4182
  447MOL0     C58935   8.275   0.058  11.446  0.2721 -0.0097  0.1565
  447MOL0     C58936   8.249   0.030  11.562 -0.3994 -0.3862 -0.4636
  447MOL0     C58937   8.780   0.343  10.837 -0.6822 -0.4176  0.1628
  447MOL0     C58938   8.883   0.417  10.772 -0.0484  0.4899 -0.2950
  447MOL0     H58939   9.101   0.957  10.764  0.8539  2.4588 -2.6170
  447MOL0     H58940   9.270   1.057  10.629  4.5859  1.0109  0.3088
  447MOL0     H58941   9.653   0.845  10.563  0.4720  1.2109 -1.7006
  447MOL0     H58942   9.696   0.919  10.723 -0.6376  2.4023  0.7814
  447MOL0     H58943   9.745   1.132  10.604 -0.4243  0.7813 -2.0141
  447MOL0     H58944   9.700   1.066  10.449  0.6462  0.1299 -0.6224
  447MOL0     H58945   9.876   0.909  10.449 -0.3206 -1.9170  2.0544
  447MOL0     H58946   9.928   0.953  10.612 -1.5779 -1.1797  0.8119
  447MOL0     H58947   9.940   1.089  10.346 -2.7319 -2.1949  1.2015
  447MOL0     H58948   9.968   1.196  10.492 -1.1669 -0.5264  1.8818
  447MOL0     H58949  10.120   0.942  10.414 -1.4825  0.0902  0.8305
  447MOL0     H58950  10.159   1.039  10.566 -2.4685  2.3638  0.9110
  447MOL0     H58951  10.223   1.113  10.281 -3.1834  1.0053  0.1120
  447MOL0     H58952  10.328   1.092  10.425 -0.5180 -0.8660  0.2644
  447MOL0     H58953  10.125   1.316  10.366  0.0944 -0.7939  0.0740
  447MOL0     H58954  10.184   1.281  10.525  1.8681 -0.7565  0.4284
  447MOL0     H58955  10.421   1.344  10.489  1.5961 -1.7353 -1.6158
  447MOL0     H58956  10.324   1.469  10.410 -0.2282  0.0154 -1.6393
  447MOL0     H58957  10.321   1.473  10.143 -0.9426 -0.3743  0.5763
  447MOL0     H58958  10.579   1.379   9.891  0.6870 -2.3893  2.6162
  447MOL0     H58959  10.509   1.534   9.949 -1.6573  0.2735 -1.2936
  447MOL0     H58960  10.371   1.461   9.766  0.4595  1.6771  0.8470
  447MOL0     H58961  10.283   1.442   9.911  0.6856 -2.6055  1.0182
  447MOL0     H58962  10.313   1.264   9.713  0.2412  0.9599 -0.5837
  447MOL0     H58963  10.439   1.201   9.820  1.9564  3.1970 -2.2053
  447MOL0     H58964  10.287   1.194  10.012  0.6485  3.0637 -0.4548
  447MOL0     H58965  10.250   1.082   9.873  0.7742  1.4445 -3.1637
  447MOL0     H58966  10.146   1.007  10.063 -0.1345 -1.2745  0.3814
  447MOL0     H58967   9.950   0.891  10.145 -0.3728 -1.2485 -2.1910
  447MOL0     H58968   9.473   0.962  10.369 -0.1257 -0.0460 -0.2568
  447MOL0     H58969   9.242   0.852  10.391 -0.9417 -2.8815 -0.9185
  447MOL0     H58970   8.967   0.764  10.356  0.3728  2.6984 -0.8405
  447MOL0     H58971   9.124   0.673  10.349 -1.3607 -0.6861  1.0670
  447MOL0     H58972   9.038   0.514  10.241  1.4769  0.4246  0.5764
  447MOL0     H58973   8.940   0.619  10.128 -0.3548  1.1733  0.2773
  447MOL0     H58974   8.860   0.543  10.408  0.4415 -0.1509  0.7209
  447MOL0     H58975   8.786   0.466  10.255  4.2509 -0.5950 -1.7241
  447MOL0     H58976   8.788   0.753  10.303  0.6258 -0.3534 -1.0705
  447MOL0     H58977   8.669   0.664  10.197 -1.1263 -2.1259  0.7751
  447MOL0     H58978   8.531   0.709  10.343 -0.9524 -0.2630  1.1504
  447MOL0     H58979   8.634   0.671  10.483 -2.5237 -1.4664  0.8547
  447MOL0     H58980   8.441   0.495  10.445 -2.9214 -0.8376 -2.4817
  447MOL0     H58981   8.594   0.427  10.403 -0.5578 -0.7199 -2.2059
  447MOL0     H58982   8.401   0.559  10.188 -4.5825 -0.9244  3.6771
  447MOL0     H58983   8.540   0.438  10.174 -2.2937 -1.7853 -0.7710
  447MOL0     H58984   8.280   0.401  10.347  0.2618 -1.7650  0.4257
  447MOL0     H58985   8.372   0.283  10.255  0.2161  0.7497 -2.2953
  447MOL0     H58986   9.190   0.848   9.970 -1.0880 -1.0271 -0.6148
  447MOL0     H58987   9.406   0.932   9.933 -2.7294 -1.1382 -0.9728
  447MOL0     H58988   9.680   1.144   9.933  0.6160  0.3547  0.8287
  447MOL0     H58989   9.884   1.282   9.860 -1.8154  0.1330  1.3632
  447MOL0     H58990   9.548   0.756  10.728  0.7870  0.9436 -0.5140
  447MOL0     H58991   9.372   0.626  10.847  4.6720  2.6005  1.7008
  447MOL0     H58992   8.950   0.629  11.030  0.4169  0.7952 -1.1718
  447MOL0     H58993   8.769   0.503  11.132  1.0475 -1.9814  1.3494
  447MOL0     H58994   8.572   0.398  11.203  0.9616  0.0226 -0.5457
  447MOL0     H58995   8.660   0.265  11.223  0.3862  0.4191 -0.9417
  447MOL0     H58996   8.371   0.297  11.133  1.0964  2.2945  0.8134
  447MOL0     H58997   8.454   0.141  11.086 -1.4147 -1.4390  1.8455
  447MOL0     H58998   8.418   0.251  11.355  0.9518  1.1422 -1.6969
  447MOL0     H58999   8.513   0.105  11.325  1.3864  0.4845 -1.3813
  447MOL0     H59000   8.214   0.148  11.269  0.8429 -0.7841 -2.2185
  447MOL0     H59001   8.302  -0.006  11.252  0.7869 -1.9603  1.7121
  447MOL0     H59002   8.228   0.005  11.664 -1.7261 -0.7258 -0.8009
  447MOL0     H59003   8.737   0.258  10.784  1.7247 -0.8788 -1.1643
  447MOL0     H59004   8.910   0.404  10.668 -2.2331 -2.0718 -0.6419
  448MOL0     O59005   1.420   1.800   8.664 -0.0067  0.1826 -0.8616
  448MOL0     C59006   1.443   1.792   8.546  0.3614  0.9202 -0.2883
  448MOL0     O59007   1.470   1.891   8.468  0.1376 -0.5024 -0.0758
  448MOL0     C59008   1.531   2.000   8.529  0.0054  0.2297  0.3801
  448MOL0     C59009   1.658   1.994   8.584  0.0528  0.7410 -0.7270
  448MOL0     C59010   1.724   2.105   8.640 -0.3986 -0.2115 -1.2143
  448MOL0     C59011   1.663   2.229   8.632 -0.3545  0.2871 -0.3708
  448MOL0     O59012   1.710   2.349   8.690 -0.3105 -1.2342  0.0519
  448MOL0     C59013   1.829   2.342   8.771  0.4599  0.0583  0.1099
  448MOL0     C59014   1.794   2.288   8.911  0.7180 -0.2166  0.7557
  448MOL0     C59015   1.910   2.306   9.017  0.4067  0.6933  0.4082
  448MOL0     C59016   1.861   2.251   9.150 -0.1289  0.6673 -0.2751
  448MOL0     C59017   1.971   2.231   9.254  0.0133 -0.3004  0.3414
  448MOL0     C59018   2.067   2.119   9.213  0.6379 -0.1450 -0.1326
  448MOL0     C59019   2.176   2.095   9.319 -0.2466 -0.3877 -0.3649
  448MOL0     C59020   2.114   2.021   9.443  0.6849  0.4683 -0.3915
  448MOL0     N59021   2.216   1.993   9.542  0.2386  0.0552 -0.4551
  448MOL0     C59022   2.278   2.096   9.611 -1.5684 -0.1629  0.7259
  448MOL0     C59023   2.352   2.029   9.705  0.5153 -0.4453 -0.0223
  448MOL0     C59024   2.434   2.094   9.813 -0.8796  0.3282 -0.4472
  448MOL0     C59025   2.479   2.002   9.925 -0.4643 -0.5468 -0.1295
  448MOL0     C59026   2.369   1.923   9.997 -0.5277 -0.5351  0.6179
  448MOL0     C59027   2.272   1.991  10.091 -0.2382 -0.4818  0.2963
  448MOL0     O59028   2.185   2.089  10.025  0.2458  0.0678 -0.3683
  448MOL0     C59029   2.085   2.052   9.934 -0.0999 -0.0043 -0.2216
  448MOL0     C59030   2.003   2.153   9.883 -0.6910  0.3795 -0.6657
  448MOL0     C59031   1.916   2.131   9.777 -0.3547 -0.4335 -0.4645
  448MOL0     C59032   1.899   1.999   9.722 -0.3642 -0.4386 -0.3185
  448MOL0     C59033   1.813   1.977   9.603 -1.2293 -0.9887  0.6640
  448MOL0     O59034   1.797   1.847   9.566  0.7872 -0.4620 -0.4502
  448MOL0     C59035   1.737   1.810   9.446 -0.1886 -0.1283 -0.2817
  448MOL0     C59036   1.664   1.682   9.442 -0.3571 -0.2367 -0.2654
  448MOL0     C59037   1.598   1.633   9.336  0.2190  0.0383 -0.1228
  448MOL0     C59038   1.591   1.703   9.208  0.0257 -0.2146 -0.4140
  448MOL0     O59039   1.536   1.642   9.095 -0.0071  0.7163  0.0226
  448MOL0     C59040   1.563   1.502   9.073 -0.4363  0.2631 -0.3597
  448MOL0     C59041   1.509   1.476   8.929  0.0250 -0.3228 -0.4076
  448MOL0     C59042   1.504   1.327   8.894 -0.3567  1.0862 -0.1204
  448MOL0     C59043   1.636   1.271   8.852  0.0549  0.4060 -0.5512
  448MOL0     C59044   1.621   1.141   8.780  0.0930  0.0396 -0.4508
  448MOL0     C59045   1.751   1.080   8.738 -0.3674  0.2146  0.4445
  448MOL0     C59046   1.753   0.972   8.629 -0.9159 -0.6604  0.8917
  448MOL0     C59047   1.696   0.841   8.668 -0.3500  0.3960  0.5102
  448MOL0    Cl59048   1.799   0.759   8.789 -0.1932 -0.2373  0.2785
  448MOL0     C59049   1.641   1.841   9.209 -0.3420 -0.5649 -0.6403
  448MOL0     C59050   1.721   1.890   9.322 -0.3601  0.1472 -0.2634
  448MOL0     O59051   1.769   2.074   9.540  0.0186 -0.4471  0.2450
  448MOL0     C59052   1.958   1.896   9.793 -0.5595  0.5294  0.3157
  448MOL0     C59053   2.060   1.921   9.882 -0.0677  0.5635  0.2384
  448MOL0     N59054   2.340   1.891   9.676 -1.0178 -0.1004  0.7874
  448MOL0     N59055   2.259   1.874   9.583  0.0304 -0.2323 -0.0482
  448MOL0     C59056   1.533   2.241   8.585  0.0705  1.0820  1.0657
  448MOL0     C59057   1.464   2.119   8.534 -1.0896  0.0085  0.3398
  448MOL0     C59058   1.421   1.671   8.483 -0.6209  0.0505 -0.2882
  448MOL0     C59059   1.394   1.556   8.560  0.8047  0.1487  0.2311
  448MOL0     C59060   1.386   1.426   8.503 -0.8351 -0.4101 -0.4664
  448MOL0     C59061   1.418   1.406   8.372 -1.2805  0.3736  0.3750
  448MOL0     O59062   1.424   1.270   8.335  0.3820 -0.4372  0.0144
  448MOL0     C59063   1.507   1.227   8.229  0.2360  1.5065  0.4670
  448MOL0     C59064   1.427   1.163   8.123  0.3940 -0.0709  0.4124
  448MOL0     C59065   1.339   1.263   8.048 -0.1676  0.1175  1.0995
  448MOL0     C59066   1.264   1.197   7.931  1.0601 -0.2718 -0.1068
  448MOL0     C59067   1.359   1.185   7.821 -0.3581  0.4182 -1.2137
  448MOL0     C59068   1.450   1.167   7.751  0.6279  0.4933  0.6738
  448MOL0     C59069   1.444   1.519   8.288  0.3476  0.2449  0.2759
  448MOL0     C59070   1.450   1.642   8.345  0.3646 -0.6456 -0.1847
  448MOL0     H59071   1.715   1.901   8.586  1.0827  1.3325 -1.3225
  448MOL0     H59072   1.816   2.093   8.696 -1.0357 -1.2320 -0.3373
  448MOL0     H59073   1.867   2.444   8.776 -0.2501  0.3941 -0.9873
  448MOL0     H59074   1.900   2.278   8.717 -1.5202  0.4237 -3.1787
  448MOL0     H59075   1.775   2.184   8.884 -0.0642  0.2183 -0.4838
  448MOL0     H59076   1.705   2.334   8.954  0.6567 -2.3718  3.1263
  448MOL0     H59077   1.930   2.412   9.031  1.9893  0.6570 -1.2616
  448MOL0     H59078   1.997   2.253   8.979  0.1861  0.1047  0.6946
  448MOL0     H59079   1.782   2.317   9.186 -1.0763 -0.9582  0.7465
  448MOL0     H59080   1.806   2.159   9.130  0.7387 -0.2778  1.4404
  448MOL0     H59081   1.919   2.205   9.347  0.0076  0.8846  0.6919
  448MOL0     H59082   2.026   2.323   9.276 -0.2594 -0.4061  1.5190
  448MOL0     H59083   2.117   2.128   9.116  1.6356 -0.5479  0.3212
  448MOL0     H59084   1.999   2.034   9.201 -2.4346  2.2611 -1.0575
  448MOL0     H59085   2.261   2.041   9.278 -1.3480 -1.3848 -1.4122
  448MOL0     H59086   2.211   2.191   9.359 -0.4741 -1.2130  1.9757
  448MOL0     H59087   2.084   1.920   9.411  2.1412 -0.0892 -0.0814
  448MOL0     H59088   2.030   2.067   9.496  0.0461 -2.0483  0.9701
  448MOL0     H59089   2.259   2.202   9.594 -0.2798 -0.3516 -2.8788
  448MOL0     H59090   2.373   2.173   9.856 -0.6124  0.1110  0.3477
  448MOL0     H59091   2.523   2.139   9.766 -0.3366 -0.8566 -0.6047
  448MOL0     H59092   2.538   2.054  10.001  1.3860 -2.8695  0.1481
  448MOL0     H59093   2.551   1.934   9.879 -0.3295  1.4370 -3.1978
  448MOL0     H59094   2.321   1.857   9.924 -0.7080  1.9656 -1.7067
  448MOL0     H59095   2.429   1.853  10.056  1.0167 -1.1639 -1.5685
  448MOL0     H59096   2.320   2.049  10.170  0.3116 -0.9317  0.2888
  448MOL0     H59097   2.215   1.909  10.136  1.7072 -2.7625 -1.2196
  448MOL0     H59098   2.000   2.247   9.938 -2.2351  0.5698 -1.0403
  448MOL0     H59099   1.851   2.205   9.732 -0.6576 -1.1234 -1.1998
  448MOL0     H59100   1.678   1.633   9.538 -1.1085 -0.2060 -0.1383
  448MOL0     H59101   1.559   1.532   9.343  1.2102 -0.4334 -1.0947
  448MOL0     H59102   1.503   1.432   9.132 -1.4511  0.2906 -1.3134
  448MOL0     H59103   1.670   1.478   9.075  0.0032  1.3634 -3.6615
  448MOL0     H59104   1.546   1.539   8.849  0.1569  1.0029  0.6581
  448MOL0     H59105   1.404   1.505   8.945  1.0054  1.5058  4.9143
  448MOL0     H59106   1.442   1.318   8.805 -0.3931  0.9963 -0.0864
  448MOL0     H59107   1.456   1.273   8.976 -0.0943  1.1064  0.0478
  448MOL0     H59108   1.677   1.341   8.779 -1.6519 -1.5276 -3.5900
  448MOL0     H59109   1.696   1.268   8.943 -0.4036  1.4658 -0.2000
  448MOL0     H59110   1.572   1.160   8.684 -1.5215 -1.3534  0.0489
  448MOL0     H59111   1.561   1.074   8.843 -1.4433  0.7692 -1.0942
  448MOL0     H59112   1.789   1.024   8.824  0.6756 -3.2589 -2.1048
  448MOL0     H59113   1.818   1.161   8.707  0.4498 -0.8002 -0.4912
  448MOL0     H59114   1.697   1.009   8.542  0.7611 -0.1457 -0.0119
  448MOL0     H59115   1.859   0.960   8.604 -0.7221  2.1991  0.0121
  448MOL0     H59116   1.700   0.773   8.583  1.4986 -0.2346  1.0496
  448MOL0     H59117   1.594   0.848   8.708  0.3569  0.6256  2.4136
  448MOL0     H59118   1.618   1.896   9.118  3.6477  1.0149 -0.9082
  448MOL0     H59119   1.768   1.987   9.310 -0.8740  0.8189  2.4471
  448MOL0     H59120   1.944   1.793   9.760 -0.9968  1.0725 -1.2571
  448MOL0     H59121   2.113   1.827   9.898  1.1490  0.8414 -1.7724
  448MOL0     H59122   1.476   2.334   8.591 -0.9417  0.9773 -3.4412
  448MOL0     H59123   1.364   2.140   8.498 -0.3047 -0.0853 -2.1317
  448MOL0     H59124   1.368   1.560   8.666 -1.9199  1.4425 -0.4141
  448MOL0     H59125   1.365   1.335   8.559 -3.5327  0.4496  0.0528
  448MOL0     H59126   1.582   1.155   8.262 -0.7605  0.6841  1.0005
  448MOL0     H59127   1.570   1.311   8.198  3.4807  0.2971  3.0737
  448MOL0     H59128   1.502   1.131   8.050  2.2898  2.1506  1.2611
  448MOL0     H59129   1.363   1.079   8.149  1.8164 -0.6800  2.1725
  448MOL0     H59130   1.389   1.352   8.009  3.1514 -2.8291 -2.1387
  448MOL0     H59131   1.257   1.296   8.113 -1.3490 -0.8119  0.1211
  448MOL0     H59132   1.217   1.098   7.938 -0.9098  0.4806 -1.7767
  448MOL0     H59133   1.189   1.269   7.896  2.2240 -0.1193 -2.4189
  448MOL0     H59134   1.528   1.144   7.681  0.1307 -0.4205  0.3946
  448MOL0     H59135   1.471   1.500   8.185 -1.0237 -0.0220 -0.0454
  448MOL0     H59136   1.493   1.717   8.281  0.6066  0.3597  1.1060
  449MOL0     O59137   4.671   3.577   7.518  0.0498  0.6625  0.3933
  449MOL0     C59138   4.687   3.497   7.427 -0.1321  0.5287 -0.0362
  449MOL0     O59139   4.809   3.448   7.380 -0.1624 -0.8986  0.4554
  449MOL0     C59140   4.928   3.517   7.406  0.4208 -0.2130  0.1558
  449MOL0     C59141   4.942   3.653   7.399  0.0706 -0.0541  0.5266
  449MOL0     C59142   5.052   3.720   7.437  0.2678 -0.6529 -1.5251
  449MOL0     C59143   5.164   3.654   7.477  0.3535 -0.3451  0.2816
  449MOL0     O59144   5.275   3.718   7.525 -0.0279  0.9941  0.1839
  449MOL0     C59145   5.405   3.649   7.513  0.3923 -0.1253  0.5849
  449MOL0     C59146   5.513   3.758   7.542 -0.2702  0.0520 -0.5069
  449MOL0     C59147   5.481   3.901   7.487 -0.5391 -0.7307  0.1431
  449MOL0     C59148   5.588   4.007   7.516  0.1222  1.0704 -0.4070
  449MOL0     C59149   5.539   4.157   7.483 -0.5702 -1.1058 -0.4125
  449MOL0     C59150   5.659   4.250   7.501 -0.4177 -1.1622 -0.3711
  449MOL0     C59151   5.624   4.397   7.471 -0.5722  0.9045 -1.0306
  449MOL0     C59152   5.512   4.459   7.542  0.1811 -0.6095 -0.3592
  449MOL0     N59153   5.467   4.586   7.487 -0.5618 -0.2993  0.3781
  449MOL0     C59154   5.424   4.609   7.359 -0.0549  0.0395  0.2398
  449MOL0     C59155   5.425   4.739   7.350  0.4627 -0.9160  0.2347
  449MOL0     C59156   5.385   4.813   7.228 -0.1854 -0.0090  0.0477
  449MOL0     C59157   5.509   4.812   7.134  0.3149  0.0941 -0.6444
  449MOL0     C59158   5.498   4.913   7.028  0.2409 -0.3255  0.3152
  449MOL0     C59159   5.427   4.849   6.909  0.7677 -0.3440  0.5550
  449MOL0     O59160   5.425   4.957   6.813 -0.2212 -0.1904  0.2193
  449MOL0     C59161   5.319   4.953   6.729 -0.5353 -0.4548 -0.0130
  449MOL0     C59162   5.255   5.074   6.708  0.5250  0.5423 -0.3470
  449MOL0     C59163   5.152   5.090   6.617  0.4388  0.3210 -0.2316
  449MOL0     C59164   5.087   4.975   6.562 -0.4068  0.8799  0.1822
  449MOL0     C59165   4.970   4.985   6.484  0.7326  0.6740  0.1177
  449MOL0     O59166   4.887   4.876   6.494 -0.0810  0.5773 -1.1588
  449MOL0     C59167   4.773   4.865   6.433  0.5259  0.2081  0.2661
  449MOL0     C59168   4.754   4.899   6.291 -0.0455 -1.3604  0.1117
  449MOL0     C59169   4.634   4.882   6.233  0.0054  0.4031  0.3434
  449MOL0     C59170   4.527   4.816   6.293  0.5838 -0.7453  0.2929
  449MOL0     O59171   4.421   4.802   6.203  0.0159  0.4504 -0.4435
  449MOL0     C59172   4.292   4.786   6.257  1.0177 -1.2459 -0.3775
  449MOL0     C59173   4.187   4.819   6.159 -0.2933 -0.2053  0.3174
  449MOL0     C59174   4.158   4.703   6.066 -0.6621 -0.6429 -0.1134
  449MOL0     C59175   4.045   4.741   5.965 -0.5034  0.1318 -0.0272
  449MOL0     C59176   3.961   4.614   5.934  0.1345  0.0565  0.9013
  449MOL0     C59177   3.864   4.645   5.824  0.1605  0.5702  0.1961
  449MOL0     C59178   3.824   4.511   5.753  0.6896 -0.1225 -1.5656
  449MOL0     C59179   3.728   4.529   5.631  0.9557 -0.3938 -0.2898
  449MOL0    Cl59180   3.551   4.501   5.698  0.0149  0.6405 -0.1437
  449MOL0     C59181   4.534   4.794   6.430  0.1635 -0.6777 -0.7519
  449MOL0     C59182   4.659   4.820   6.491 -0.0921  0.0292  0.0564
  449MOL0     O59183   4.933   5.091   6.435  0.0201 -0.7226  0.6972
  449MOL0     C59184   5.154   4.848   6.592  0.5813 -0.3446  0.7362
  449MOL0     C59185   5.273   4.839   6.663  1.0361  0.2669 -0.4144
  449MOL0     N59186   5.442   4.798   7.480  0.3836 -0.6503  0.1345
  449MOL0     N59187   5.470   4.704   7.558  0.5938  0.1414 -0.2807
  449MOL0     C59188   5.160   3.515   7.477 -0.0441  0.5171  0.3352
  449MOL0     C59189   5.043   3.445   7.437 -0.5962 -0.5549 -0.3641
  449MOL0     C59190   4.567   3.418   7.380  0.4045 -0.6018  0.1859
  449MOL0     C59191   4.565   3.372   7.244 -0.0099 -0.3845 -0.6509
  449MOL0     C59192   4.448   3.318   7.192 -0.4758 -0.2134  0.0739
  449MOL0     C59193   4.337   3.299   7.263 -0.0602 -0.7000 -0.5231
  449MOL0     O59194   4.232   3.244   7.185 -0.4645  0.6608 -0.0245
  449MOL0     C59195   4.103   3.312   7.220  0.7395 -0.4514 -0.0144
  449MOL0     C59196   4.023   3.304   7.081  0.1792 -0.1020 -0.9176
  449MOL0     C59197   4.028   3.171   7.010 -0.6254  0.6837 -0.6200
  449MOL0     C59198   3.936   3.131   6.896 -0.1607 -0.4930 -0.0907
  449MOL0     C59199   3.924   3.232   6.789 -0.2557 -0.5775 -0.5105
  449MOL0     C59200   3.900   3.312   6.701  0.0083 -0.3939  0.4820
  449MOL0     C59201   4.334   3.342   7.398  0.3884  0.5337  0.0043
  449MOL0     C59202   4.450   3.401   7.454  0.0220 -0.9716  0.8796
  449MOL0     H59203   4.852   3.705   7.368 -1.3656 -1.0798  2.7246
  449MOL0     H59204   5.057   3.828   7.436 -0.9495 -0.5629 -3.0533
  449MOL0     H59205   5.430   3.607   7.415 -1.0019  1.4677 -0.5037
  449MOL0     H59206   5.420   3.571   7.588  2.2043  1.6176  2.1673
  449MOL0     H59207   5.607   3.721   7.500 -0.1897 -3.0581  1.9630
  449MOL0     H59208   5.517   3.771   7.651 -0.0219 -0.8503 -0.3978
  449MOL0     H59209   5.385   3.936   7.527 -0.0602 -0.3734  1.0292
  449MOL0     H59210   5.463   3.887   7.380 -1.4254  2.0309 -0.1443
  449MOL0     H59211   5.615   4.009   7.622 -1.0335 -1.8421  0.0326
  449MOL0     H59212   5.680   3.990   7.460  1.6215  3.3668  1.1876
  449MOL0     H59213   5.456   4.179   7.552  1.0180  0.0895  1.2300
  449MOL0     H59214   5.493   4.150   7.385  0.1826 -3.3851 -0.6560
  449MOL0     H59215   5.736   4.218   7.431 -0.1943  3.1911 -2.4632
  449MOL0     H59216   5.694   4.232   7.603 -0.3689 -1.5893 -0.4639
  449MOL0     H59217   5.715   4.451   7.498 -1.3888  1.3059  1.1798
  449MOL0     H59218   5.612   4.394   7.363  0.3802 -1.5900 -1.1207
  449MOL0     H59219   5.540   4.458   7.648 -0.6321  0.0699 -0.1256
  449MOL0     H59220   5.428   4.391   7.531  1.4304 -2.1410 -0.7521
  449MOL0     H59221   5.420   4.532   7.283  0.6255 -0.0148  0.2507
  449MOL0     H59222   5.355   4.913   7.259  0.7850  0.2699  0.1233
  449MOL0     H59223   5.306   4.755   7.179 -1.2334 -0.5415  2.2840
  449MOL0     H59224   5.506   4.716   7.082 -1.0499 -1.4137  2.0059
  449MOL0     H59225   5.605   4.831   7.184 -1.5347  5.1922  1.7681
  449MOL0     H59226   5.447   5.007   7.049  0.5041  0.2619 -1.4955
  449MOL0     H59227   5.602   4.929   6.995 -0.4431  1.7864 -1.0565
  449MOL0     H59228   5.324   4.817   6.929 -0.3707 -0.1133 -3.9309
  449MOL0     H59229   5.471   4.757   6.868 -0.7869 -0.4513 -0.9739
  449MOL0     H59230   5.292   5.150   6.775 -4.2471  1.2294  1.9412
  449MOL0     H59231   5.125   5.190   6.586 -0.9258 -0.2621 -1.0199
  449MOL0     H59232   4.833   4.938   6.228 -0.4685 -0.4430  0.1293
  449MOL0     H59233   4.614   4.911   6.130  2.1174  1.4808  0.1772
  449MOL0     H59234   4.291   4.863   6.335  3.4281 -1.3210 -0.1916
  449MOL0     H59235   4.282   4.687   6.303  0.2673 -0.5380  1.0733
  449MOL0     H59236   4.214   4.910   6.104  0.8280  0.0881  1.3177
  449MOL0     H59237   4.101   4.854   6.217  1.7467  1.1642  2.6915
  449MOL0     H59238   4.121   4.623   6.132 -5.4973  1.9298  0.7473
  449MOL0     H59239   4.248   4.676   6.011 -1.0584  0.8393 -1.5574
  449MOL0     H59240   3.972   4.803   6.018  1.1163  0.5722  1.7933
  449MOL0     H59241   4.083   4.778   5.869 -0.2640 -0.8253 -0.3159
  449MOL0     H59242   3.898   4.581   6.018  2.9803 -0.1266  3.0982
  449MOL0     H59243   4.025   4.533   5.899  0.5364  1.4694 -1.9296
  449MOL0     H59244   3.906   4.711   5.747 -1.0455  0.8908 -0.2023
  449MOL0     H59245   3.773   4.691   5.863  1.2741  1.3295  2.0083
  449MOL0     H59246   3.916   4.457   5.727  0.4293 -1.3956  0.0137
  449MOL0     H59247   3.770   4.452   5.828  1.2957 -1.6148 -2.2693
  449MOL0     H59248   3.756   4.454   5.556  2.7178  1.5463 -1.6606
  449MOL0     H59249   3.740   4.630   5.593  1.8588 -0.3299  0.1423
  449MOL0     H59250   4.442   4.782   6.487  0.2636 -4.0660 -1.0867
  449MOL0     H59251   4.666   4.809   6.598  2.5405 -1.5989 -0.2065
  449MOL0     H59252   5.118   4.754   6.551 -1.3153  0.6464 -0.0294
  449MOL0     H59253   5.322   4.743   6.678 -0.0682 -0.2548  0.0195
  449MOL0     H59254   5.240   3.457   7.521  0.6561  1.8012  0.7779
  449MOL0     H59255   5.032   3.337   7.431 -5.0699 -0.5027  2.2168
  449MOL0     H59256   4.658   3.396   7.193  1.2004  0.5206  1.8572
  449MOL0     H59257   4.437   3.299   7.086  0.8338  0.5778 -0.2267
  449MOL0     H59258   4.110   3.412   7.264  1.0522 -1.2640  1.8732
  449MOL0     H59259   4.056   3.252   7.299 -1.9842 -1.2780 -2.0639
  449MOL0     H59260   3.921   3.335   7.107 -0.2650 -1.2789 -1.1945
  449MOL0     H59261   4.072   3.372   7.011  0.6068 -0.2248 -0.7439
  449MOL0     H59262   3.996   3.104   7.090  1.4555  1.2706  0.8034
  449MOL0     H59263   4.130   3.150   6.976 -1.7066 -2.4582 -2.2920
  449MOL0     H59264   3.963   3.033   6.856  0.6752 -0.6368  0.7862
  449MOL0     H59265   3.833   3.130   6.935 -0.3887  1.4941 -0.5305
  449MOL0     H59266   3.887   3.383   6.622 -1.5503  1.0322  1.9378
  449MOL0     H59267   4.246   3.342   7.461  0.4928  1.6977  0.1696
  449MOL0     H59268   4.447   3.444   7.554  0.0339 -0.1043  0.5166
  450MOL0     O59269   5.665  10.194   7.597 -0.5111 -0.0079 -0.4848
  450MOL0     C59270   5.547  10.163   7.604  0.5345  0.8619  0.0084
  450MOL0     O59271   5.496  10.053   7.541  0.3211 -0.1375 -0.1969
  450MOL0     C59272   5.582   9.979   7.462  0.1241 -0.0278  0.2299
  450MOL0     C59273   5.573  10.007   7.322  0.3255 -0.8437  0.7170
  450MOL0     C59274   5.660   9.949   7.231 -0.6391 -0.5143 -0.5994
  450MOL0     C59275   5.748   9.851   7.270  0.4822  0.3474 -0.1286
  450MOL0     O59276   5.820   9.784   7.178 -0.5394  0.3505  0.0127
  450MOL0     C59277   5.847   9.644   7.196  0.2531  0.6177  0.4697
  450MOL0     C59278   5.736   9.561   7.143 -0.0724 -0.4696 -0.4062
  450MOL0     C59279   5.748   9.412   7.169 -0.3851 -0.7618  0.5673
  450MOL0     C59280   5.616   9.346   7.118 -0.1170 -1.0405  0.0931
  450MOL0     C59281   5.582   9.201   7.170  0.2511  0.1427 -0.7142
  450MOL0     C59282   5.532   9.226   7.315  0.6334 -0.1007 -0.0237
  450MOL0     C59283   5.468   9.097   7.362  0.2565 -0.1065  0.7815
  450MOL0     C59284   5.552   8.972   7.356  0.4203  0.6251  0.5228
  450MOL0     N59285   5.672   8.978   7.447  0.7128 -0.2535  0.2038
  450MOL0     C59286   5.800   9.004   7.403  0.7258 -0.2553  0.1464
  450MOL0     C59287   5.877   9.001   7.517  0.5946  0.3284 -0.2934
  450MOL0     C59288   6.027   9.023   7.519 -0.4206  0.2657  0.6570
  450MOL0     C59289   6.095   8.964   7.647 -0.2231 -0.7675  0.0373
  450MOL0     C59290   6.239   9.005   7.640  0.2138  0.7246 -0.6764
  450MOL0     C59291   6.303   8.997   7.775  0.7737  0.0801 -0.4622
  450MOL0     O59292   6.307   8.856   7.827  0.3742 -0.4805 -0.1701
  450MOL0     C59293   6.402   8.824   7.913  1.2493  0.7948  0.1809
  450MOL0     C59294   6.457   8.695   7.915  0.0116 -0.2712 -0.7117
  450MOL0     C59295   6.562   8.664   8.006 -1.2985  0.5140  0.4355
  450MOL0     C59296   6.607   8.762   8.106  0.3658  0.6830 -0.4207
  450MOL0     C59297   6.718   8.729   8.197  0.6504 -0.7199  0.0333
  450MOL0     O59298   6.783   8.611   8.183  0.6055  0.4286  0.5846
  450MOL0     C59299   6.894   8.583   8.260  0.8592  0.2914 -0.8350
  450MOL0     C59300   7.017   8.550   8.203  0.6336  0.1843 -0.1557
  450MOL0     C59301   7.127   8.565   8.287 -0.3320  0.3953 -0.9028
  450MOL0     C59302   7.121   8.564   8.429 -0.0784 -0.8188  0.5542
  450MOL0     O59303   7.232   8.567   8.511 -0.0334  0.6205 -0.5938
  450MOL0     C59304   7.362   8.604   8.477 -0.1034 -0.7056  0.3153
  450MOL0     C59305   7.465   8.491   8.503 -0.3679 -0.8952 -0.0843
  450MOL0     C59306   7.439   8.381   8.405 -0.6550 -0.8259 -0.2526
  450MOL0     C59307   7.523   8.249   8.411 -0.4559  0.7702 -0.1274
  450MOL0     C59308   7.501   8.149   8.528  0.9696 -0.0399  0.8145
  450MOL0     C59309   7.444   8.006   8.501 -0.3745  0.3107 -0.6591
  450MOL0     C59310   7.373   7.946   8.622 -0.5085 -0.1806 -0.1927
  450MOL0     C59311   7.388   7.791   8.619 -0.9891  0.5223  0.0233
  450MOL0    Cl59312   7.557   7.751   8.643 -0.3290 -0.3399  0.0852
  450MOL0     C59313   6.992   8.572   8.483  0.4764 -0.5703 -0.6510
  450MOL0     C59314   6.878   8.590   8.399 -0.7267  0.1730  0.1726
  450MOL0     O59315   6.746   8.817   8.273 -0.3680  0.2050 -0.2608
  450MOL0     C59316   6.549   8.892   8.102  0.2971  0.5530  0.2855
  450MOL0     C59317   6.451   8.916   8.004 -0.4821 -0.5134 -0.4403
  450MOL0     N59318   5.789   8.970   7.629 -0.7564  0.2765 -0.5710
  450MOL0     N59319   5.675   8.954   7.576 -1.5808 -0.1299  0.0876
  450MOL0     C59320   5.757   9.825   7.411 -0.5885  0.0011 -0.2773
  450MOL0     C59321   5.676   9.891   7.502 -0.7691 -0.2761  0.1831
  450MOL0     C59322   5.454  10.263   7.657  0.1684  0.4527  0.4287
  450MOL0     C59323   5.319  10.220   7.691 -0.6840  1.6958  0.0875
  450MOL0     C59324   5.234  10.302   7.760  1.0419  0.8100  0.7449
  450MOL0     C59325   5.265  10.438   7.781 -0.7511  0.3948  0.1823
  450MOL0     O59326   5.180  10.523   7.848  0.3587  0.2853 -0.3485
  450MOL0     C59327   5.231  10.591   7.955 -0.2080  0.4638 -0.1341
  450MOL0     C59328   5.159  10.562   8.081 -0.0707 -0.5236 -0.1451
  450MOL0     C59329   5.017  10.605   8.055  0.0884 -0.4991  0.4807
  450MOL0     C59330   4.930  10.609   8.185  0.3799 -0.7049  0.5347
  450MOL0     C59331   4.832  10.713   8.179 -0.2664 -0.2465 -0.2839
  450MOL0     C59332   4.742  10.799   8.174  0.3745  0.8529  0.1716
  450MOL0     C59333   5.382  10.486   7.727 -0.1077 -0.1049 -0.7382
  450MOL0     C59334   5.481  10.400   7.679 -0.0343  0.0102 -0.8545
  450MOL0     H59335   5.493  10.066   7.280  1.3927  0.2125  0.1196
  450MOL0     H59336   5.658   9.966   7.124  0.1473  0.8381 -0.4295
  450MOL0     H59337   5.875   9.630   7.301 -0.0810 -0.3482  0.4392
  450MOL0     H59338   5.938   9.602   7.153 -0.8573 -2.6338  1.0068
  450MOL0     H59339   5.716   9.581   7.038 -4.6082  0.7897  0.4747
  450MOL0     H59340   5.646   9.595   7.195  0.9919  0.9241  0.6287
  450MOL0     H59341   5.754   9.403   7.277  0.4155  1.1352  0.7227
  450MOL0     H59342   5.841   9.372   7.129  0.6813  2.0049  0.0095
  450MOL0     H59343   5.537   9.418   7.144  1.6980  2.0226 -2.1340
  450MOL0     H59344   5.613   9.348   7.009  2.6708  0.3780 -0.0460
  450MOL0     H59345   5.677   9.147   7.172 -1.4225 -3.0008  1.5501
  450MOL0     H59346   5.513   9.146   7.105 -0.8143  0.3056  0.2657
  450MOL0     H59347   5.458   9.306   7.326  1.3552  0.3829  1.5767
  450MOL0     H59348   5.611   9.255   7.385  0.8149  2.4501 -1.2193
  450MOL0     H59349   5.434   9.121   7.464  3.4720  1.3658  1.6380
  450MOL0     H59350   5.381   9.083   7.298  1.5609 -1.5044 -0.7738
  450MOL0     H59351   5.585   8.938   7.258 -0.9418 -0.1220  0.3006
  450MOL0     H59352   5.491   8.893   7.401  0.3656  2.1227  3.3146
  450MOL0     H59353   5.827   9.025   7.300 -1.7973  0.5108 -0.4117
  450MOL0     H59354   6.046   9.130   7.528 -0.9476  0.5277 -0.9629
  450MOL0     H59355   6.070   8.977   7.430  0.0465  0.4089  0.8066
  450MOL0     H59356   6.091   8.856   7.661 -1.0765 -0.4962  2.4405
  450MOL0     H59357   6.041   9.015   7.727 -0.3671  1.6364 -1.4882
  450MOL0     H59358   6.293   8.937   7.574  0.6848  0.6983 -0.2782
  450MOL0     H59359   6.243   9.105   7.595 -0.9658  0.0419 -2.3480
  450MOL0     H59360   6.233   9.059   7.832 -0.7447 -1.0914 -0.9878
  450MOL0     H59361   6.399   9.049   7.784  0.3589  1.0444 -1.4433
  450MOL0     H59362   6.431   8.629   7.833 -2.2567 -2.2725  1.4744
  450MOL0     H59363   6.608   8.567   7.991  0.9162  1.4311  0.8369
  450MOL0     H59364   7.046   8.528   8.100  3.4960 -1.1034  0.8326
  450MOL0     H59365   7.224   8.536   8.250  0.6717  0.8862  1.2042
  450MOL0     H59366   7.401   8.682   8.543  2.3892 -0.9271 -0.7863
  450MOL0     H59367   7.353   8.643   8.376  1.0628 -2.1710 -0.4058
  450MOL0     H59368   7.445   8.462   8.607  1.6458 -0.6089  0.4233
  450MOL0     H59369   7.567   8.528   8.491 -0.2579 -0.6559  1.3605
  450MOL0     H59370   7.434   8.420   8.303  0.8867 -1.1291 -0.4720
  450MOL0     H59371   7.336   8.350   8.423 -1.1628  1.6435  1.5736
  450MOL0     H59372   7.502   8.200   8.315  0.7201  0.9463 -0.4997
  450MOL0     H59373   7.628   8.282   8.411 -1.1466  3.2181 -0.4388
  450MOL0     H59374   7.441   8.200   8.604  1.4882  0.7764  0.6940
  450MOL0     H59375   7.593   8.119   8.579 -0.6402 -2.5847  2.4532
  450MOL0     H59376   7.528   7.945   8.468  0.4811  0.8055  0.5410
  450MOL0     H59377   7.369   8.021   8.422 -0.6671  2.6787 -0.0027
  450MOL0     H59378   7.426   7.987   8.708  1.3691  0.2949 -1.5109
  450MOL0     H59379   7.270   7.983   8.620  0.0196  1.4972  1.3659
  450MOL0     H59380   7.368   7.764   8.514 -0.4801  4.6153 -1.3091
  450MOL0     H59381   7.329   7.740   8.694 -1.0807  1.1065  0.3565
  450MOL0     H59382   6.972   8.577   8.589  0.3271 -2.0502 -0.5862
  450MOL0     H59383   6.777   8.610   8.435 -0.3884  0.0023  1.2597
  450MOL0     H59384   6.580   8.967   8.175  2.0046 -0.3320  0.5228
  450MOL0     H59385   6.394   9.007   8.014  1.6988  1.2490 -2.5880
  450MOL0     H59386   5.837   9.760   7.444  1.6817  2.4381 -0.6552
  450MOL0     H59387   5.697   9.889   7.609 -2.8757 -0.8580  0.6267
  450MOL0     H59388   5.312  10.114   7.669  2.7112  0.7681  2.6317
  450MOL0     H59389   5.142  10.255   7.792  0.1971  0.9782 -1.2682
  450MOL0     H59390   5.219  10.692   7.916  0.5653 -0.4612 -3.0491
  450MOL0     H59391   5.340  10.586   7.963 -0.1584 -0.7238 -1.1297
  450MOL0     H59392   5.152  10.461   8.122 -0.5189 -0.0448  1.0133
  450MOL0     H59393   5.199  10.616   8.168  0.7614 -2.1978  0.5561
  450MOL0     H59394   4.970  10.540   7.981 -1.5366  1.8632 -0.6966
  450MOL0     H59395   5.022  10.711   8.028  0.5589 -0.3987  0.9321
  450MOL0     H59396   4.878  10.518   8.216  2.5197 -0.7947  4.4992
  450MOL0     H59397   4.985  10.639   8.274  0.0290  2.3767 -0.1653
  450MOL0     H59398   4.655  10.855   8.148 -2.2822 -3.3960 -1.2270
  450MOL0     H59399   5.390  10.594   7.740 -2.3531  0.1612 -1.1462
  450MOL0     H59400   5.579  10.436   7.652 -0.7509  2.3583 -0.5863
  451MOL0     O59401   5.612   8.652   3.386  0.2178 -0.0251  0.6038
  451MOL0     C59402   5.587   8.624   3.503  0.6249  1.2827  0.2503
  451MOL0     O59403   5.552   8.501   3.554 -0.2636 -0.3933  0.5407
  451MOL0     C59404   5.558   8.391   3.475  0.3656 -0.1240 -1.3506
  451MOL0     C59405   5.680   8.337   3.425 -1.0013  0.3757  0.1822
  451MOL0     C59406   5.668   8.210   3.362 -0.5123  0.0937 -0.8980
  451MOL0     C59407   5.544   8.145   3.334 -0.9230  0.3497  0.4081
  451MOL0     O59408   5.526   8.045   3.245  0.4830  0.2219  0.6001
  451MOL0     C59409   5.636   8.013   3.146 -0.0433  0.2837  0.2442
  451MOL0     C59410   5.743   7.904   3.196  0.9790  0.3051 -0.2492
  451MOL0     C59411   5.826   7.859   3.077  0.8945 -0.1875  0.4628
  451MOL0     C59412   5.898   7.963   2.995  0.5472 -0.1098 -0.0027
  451MOL0     C59413   6.031   7.913   2.946  1.4251 -0.0882  0.6064
  451MOL0     C59414   6.007   7.830   2.823 -0.1218 -0.6049 -0.4255
  451MOL0     C59415   5.987   7.682   2.855 -0.2360  0.4406 -0.2056
  451MOL0     C59416   5.987   7.593   2.727 -0.7120  0.2536 -0.0070
  451MOL0     N59417   5.948   7.454   2.737  0.1415 -0.0052  0.2759
  451MOL0     C59418   5.957   7.354   2.653 -0.2207 -0.6049  0.6845
  451MOL0     C59419   5.921   7.246   2.729  0.1963  0.9924  1.0085
  451MOL0     C59420   5.932   7.094   2.687  1.8926  0.1160 -0.7320
  451MOL0     C59421   6.057   7.038   2.755 -0.0606 -0.3584 -0.1821
  451MOL0     C59422   6.166   7.054   2.650 -0.6141  0.2100  0.4351
  451MOL0     C59423   6.290   6.978   2.683 -0.1648  0.1605 -0.2075
  451MOL0     O59424   6.403   7.023   2.606  0.5846 -0.6916  0.3432
  451MOL0     C59425   6.517   6.948   2.614  0.2281  0.2560  1.2734
  451MOL0     C59426   6.546   6.844   2.519  0.5747 -0.8043 -0.7684
  451MOL0     C59427   6.659   6.769   2.543 -0.2676  0.5360  0.0395
  451MOL0     C59428   6.758   6.803   2.632 -0.3941  0.1137  0.4756
  451MOL0     C59429   6.893   6.735   2.651  0.2295  0.3228 -0.2722
  451MOL0     O59430   6.997   6.814   2.694  0.6600 -0.5046  0.5067
  451MOL0     C59431   7.127   6.772   2.689 -0.8591  0.8788 -0.0014
  451MOL0     C59432   7.213   6.789   2.796  0.2337 -0.4246 -0.3462
  451MOL0     C59433   7.333   6.728   2.812 -0.1317  0.0546  0.9296
  451MOL0     C59434   7.388   6.669   2.703  0.0033 -0.6076  0.1026
  451MOL0     O59435   7.514   6.624   2.716 -0.0813  0.2033  0.0919
  451MOL0     C59436   7.524   6.498   2.787 -0.0484 -0.0197  0.0945
  451MOL0     C59437   7.542   6.374   2.696 -0.4646  0.0767 -0.7994
  451MOL0     C59438   7.691   6.359   2.659 -0.0056 -0.2179 -0.0052
  451MOL0     C59439   7.736   6.478   2.562  1.0084 -0.0254 -0.0804
  451MOL0     C59440   7.882   6.478   2.502  1.4524  0.3383 -0.1404
  451MOL0     C59441   7.991   6.424   2.601 -0.6835  0.2556  0.7365
  451MOL0     C59442   8.129   6.424   2.531  0.6656 -0.2189  0.9190
  451MOL0     C59443   8.251   6.420   2.626  0.5753 -0.2517 -0.5944
  451MOL0    Cl59444   8.261   6.557   2.738  0.2397  0.5184  0.9232
  451MOL0     C59445   7.315   6.650   2.582 -0.3605 -1.1680 -0.2692
  451MOL0     C59446   7.182   6.703   2.575  0.3806 -0.0331 -0.3163
  451MOL0     O59447   6.905   6.624   2.599  0.6621  0.3429 -0.2499
  451MOL0     C59448   6.723   6.910   2.719 -0.2886  0.2166 -0.3901
  451MOL0     C59449   6.600   6.977   2.717  0.5841 -0.4098  0.5190
  451MOL0     N59450   5.873   7.293   2.852  0.2215  0.0998 -0.4301
  451MOL0     N59451   5.896   7.420   2.857 -0.4351 -0.0735 -0.2958
  451MOL0     C59452   5.428   8.209   3.382 -0.1624  0.0234  0.8512
  451MOL0     C59453   5.438   8.329   3.457  0.9269  0.0364  0.2373
  451MOL0     C59454   5.603   8.745   3.596  0.0215  0.7542 -1.2912
  451MOL0     C59455   5.641   8.862   3.546  0.0992 -0.5610 -0.2011
  451MOL0     C59456   5.646   8.970   3.631 -0.3732  0.2444 -0.2216
  451MOL0     C59457   5.607   8.962   3.770  0.2996 -0.2403  0.3229
  451MOL0     O59458   5.605   9.081   3.835  0.2861  0.1820 -0.2867
  451MOL0     C59459   5.590   9.091   3.980  0.3738 -0.4543 -0.1156
  451MOL0     C59460   5.595   9.235   4.019 -0.2398 -0.2861  0.6347
  451MOL0     C59461   5.461   9.298   4.070  0.4950  0.1149  0.3648
  451MOL0     C59462   5.336   9.266   3.984 -0.3397 -0.6461  0.5869
  451MOL0     C59463   5.274   9.133   4.001 -0.1232  0.6768 -0.5976
  451MOL0     C59464   5.210   9.033   4.024 -1.0579 -1.0693  0.4482
  451MOL0     C59465   5.572   8.840   3.824 -0.0056  0.2236  0.0165
  451MOL0     C59466   5.561   8.732   3.740 -0.0230 -0.3660  0.6184
  451MOL0     H59467   5.776   8.387   3.438 -1.6016  2.4713 -2.5116
  451MOL0     H59468   5.763   8.171   3.326 -0.9964 -1.8202 -0.2109
  451MOL0     H59469   5.690   8.104   3.120  0.5105 -0.5027 -1.5158
  451MOL0     H59470   5.601   7.979   3.048  2.3146 -2.6598  0.2700
  451MOL0     H59471   5.696   7.816   3.241  0.5900 -0.0301 -1.2778
  451MOL0     H59472   5.803   7.947   3.276  3.6834 -1.2081 -1.3393
  451MOL0     H59473   5.767   7.798   3.008  0.6376  0.1555  0.3749
  451MOL0     H59474   5.901   7.792   3.118  2.3186  0.7475 -0.5392
  451MOL0     H59475   5.832   7.981   2.909  2.4082  0.4819 -1.3728
  451MOL0     H59476   5.914   8.059   3.046  3.0857  0.2831 -1.3619
  451MOL0     H59477   6.084   7.857   3.023  1.4707 -0.9493 -0.0233
  451MOL0     H59478   6.085   8.006   2.925 -1.4530  2.1553  2.3788
  451MOL0     H59479   6.095   7.845   2.759 -0.4473 -0.0320 -0.7451
  451MOL0     H59480   5.927   7.865   2.758  0.9805  3.9368  0.3299
  451MOL0     H59481   6.064   7.641   2.922 -1.3275  4.0506  3.6929
  451MOL0     H59482   5.898   7.657   2.913 -0.0904 -0.7900 -0.4805
  451MOL0     H59483   6.077   7.584   2.665 -1.3698 -0.9940 -0.8088
  451MOL0     H59484   5.913   7.636   2.659 -2.0356  0.2843  1.4184
  451MOL0     H59485   5.993   7.356   2.550 -3.0263  2.6184 -0.4210
  451MOL0     H59486   5.914   7.077   2.581  0.3847 -1.6029 -0.2401
  451MOL0     H59487   5.840   7.048   2.723  1.8693 -0.0246 -0.9668
  451MOL0     H59488   6.057   6.932   2.783 -2.7730 -0.3090  0.2522
  451MOL0     H59489   6.080   7.091   2.848 -2.4332 -0.2369  0.3956
  451MOL0     H59490   6.135   7.028   2.548 -1.7360  1.4228  0.4225
  451MOL0     H59491   6.194   7.160   2.655  1.5112 -0.3451  1.2682
  451MOL0     H59492   6.268   6.872   2.668 -3.7584  0.8072 -0.4155
  451MOL0     H59493   6.310   6.995   2.789  1.3253  0.9357 -0.5829
  451MOL0     H59494   6.473   6.813   2.445 -1.2778  0.7322  0.2887
  451MOL0     H59495   6.676   6.679   2.484  3.4948 -0.5983  2.4774
  451MOL0     H59496   7.164   6.865   2.856 -3.7618 -1.1490 -2.3196
  451MOL0     H59497   7.398   6.744   2.897 -0.9416  0.0244  1.5707
  451MOL0     H59498   7.443   6.489   2.861  2.7763 -0.6191  3.3321
  451MOL0     H59499   7.608   6.493   2.856  1.6368 -3.2128 -1.9446
  451MOL0     H59500   7.471   6.376   2.613 -1.8762  0.9961  0.3812
  451MOL0     H59501   7.512   6.294   2.764 -2.3045  0.7433 -0.7858
  451MOL0     H59502   7.701   6.263   2.606 -1.9249  0.5794 -1.9478
  451MOL0     H59503   7.749   6.348   2.751  0.2983  1.0720 -0.0255
  451MOL0     H59504   7.673   6.489   2.473 -0.5727 -0.5220  0.9279
  451MOL0     H59505   7.716   6.568   2.621  0.7914 -1.5576  2.2971
  451MOL0     H59506   7.905   6.579   2.468  1.4711  0.1128 -0.8011
  451MOL0     H59507   7.872   6.411   2.416 -3.4675 -1.6596  1.6106
  451MOL0     H59508   7.960   6.323   2.630 -0.4078  0.2200  0.9020
  451MOL0     H59509   7.996   6.486   2.690  1.2409  0.9829  0.1602
  451MOL0     H59510   8.152   6.337   2.469  3.1756  1.1343 -0.2095
  451MOL0     H59511   8.139   6.512   2.467 -3.7223  0.1716  0.5030
  451MOL0     H59512   8.346   6.402   2.573  2.1863  1.0146  1.6722
  451MOL0     H59513   8.239   6.324   2.676 -1.2630  0.2522  0.0118
  451MOL0     H59514   7.375   6.617   2.497 -0.3728  1.4878 -1.4086
  451MOL0     H59515   7.122   6.698   2.484  1.3632  1.9223 -1.1173
  451MOL0     H59516   6.787   6.953   2.796 -0.7668 -1.5157  1.0375
  451MOL0     H59517   6.566   7.038   2.800 -1.7761 -0.8076 -0.0911
  451MOL0     H59518   5.329   8.173   3.359  1.2618 -3.6345 -0.1168
  451MOL0     H59519   5.344   8.370   3.493 -0.2273 -0.3429 -2.2094
  451MOL0     H59520   5.680   8.882   3.447  0.9011 -3.8662 -0.6937
  451MOL0     H59521   5.658   9.068   3.586  0.4147 -0.1090 -0.7991
  451MOL0     H59522   5.671   9.039   4.031 -0.5061  0.3661  2.3051
  451MOL0     H59523   5.499   9.036   4.008 -1.4338  3.1305  1.8479
  451MOL0     H59524   5.672   9.258   4.093 -0.6187  1.0001  0.6666
  451MOL0     H59525   5.636   9.293   3.936 -2.2368 -0.4388 -0.5149
  451MOL0     H59526   5.477   9.405   4.084 -0.5736  0.2694  0.5266
  451MOL0     H59527   5.448   9.261   4.172 -1.9065 -0.9270 -0.2500
  451MOL0     H59528   5.251   9.332   4.004  0.2920  0.0215  1.1310
  451MOL0     H59529   5.372   9.281   3.882 -0.0226 -0.9068  0.6576
  451MOL0     H59530   5.150   8.944   4.031 -0.8083 -1.3454 -0.7030
  451MOL0     H59531   5.545   8.832   3.929  1.9430 -1.5981  0.4222
  451MOL0     H59532   5.526   8.634   3.771  0.6095 -0.5376  0.8023
  452MOL0     O59533   3.791   9.355   4.697 -0.6281  0.2382 -0.6230
  452MOL0     C59534   3.759   9.323   4.578  0.0390  0.8424 -0.2477
  452MOL0     O59535   3.684   9.217   4.533  0.2446  0.1911 -0.8522
  452MOL0     C59536   3.574   9.181   4.612 -0.1560 -0.6025  0.4684
  452MOL0     C59537   3.510   9.266   4.711 -0.8899  0.1599 -0.2649
  452MOL0     C59538   3.384   9.219   4.771 -0.0005  0.0692  0.3234
  452MOL0     C59539   3.334   9.092   4.744 -0.0316 -1.0916 -0.2764
  452MOL0     O59540   3.206   9.072   4.788 -0.8364 -0.7736 -0.5128
  452MOL0     C59541   3.145   8.944   4.819 -0.7203 -0.5454 -0.5271
  452MOL0     C59542   3.034   8.918   4.721 -0.3320 -0.9248  0.5036
  452MOL0     C59543   2.907   9.006   4.746 -0.3655  0.2617  0.5515
  452MOL0     C59544   2.806   8.978   4.636  0.2118  0.0350  0.3976
  452MOL0     C59545   2.697   9.082   4.604 -0.5208 -0.3836  0.4341
  452MOL0     C59546   2.578   9.037   4.513 -0.7004 -0.0868 -0.0239
  452MOL0     C59547   2.477   9.147   4.476 -0.4860 -0.8438  0.5645
  452MOL0     C59548   2.350   9.119   4.560  0.7134  0.2888  0.9176
  452MOL0     N59549   2.265   8.994   4.549 -0.2745  0.3643  0.1153
  452MOL0     C59550   2.187   8.936   4.647  0.6652 -0.1038 -1.2845
  452MOL0     C59551   2.116   8.835   4.595 -0.6630  0.9232  0.1952
  452MOL0     C59552   2.033   8.738   4.684 -0.4958 -0.0600  0.7220
  452MOL0     C59553   1.882   8.762   4.650 -0.2736  0.1303 -0.1113
  452MOL0     C59554   1.834   8.693   4.521  0.4065  0.1281 -0.1570
  452MOL0     C59555   1.683   8.682   4.502 -0.2362  0.1689  0.2381
  452MOL0     O59556   1.635   8.590   4.597  0.0794  0.4922 -0.4278
  452MOL0     C59557   1.576   8.477   4.548  0.4825  0.3148 -0.7851
  452MOL0     C59558   1.468   8.418   4.620  0.6216  0.5815 -0.4199
  452MOL0     C59559   1.408   8.298   4.569 -0.0405  0.8936  0.2694
  452MOL0     C59560   1.450   8.250   4.444  0.7561 -0.1272  0.3479
  452MOL0     C59561   1.379   8.134   4.386 -0.1506 -0.6588 -0.0849
  452MOL0     O59562   1.423   8.097   4.261 -0.9101 -0.6265  0.5890
  452MOL0     C59563   1.359   8.005   4.184 -0.0402  0.1450  0.4674
  452MOL0     C59564   1.222   8.010   4.150 -0.4170  0.4548 -0.3865
  452MOL0     C59565   1.166   7.904   4.071  0.5364 -0.3098  0.2518
  452MOL0     C59566   1.240   7.816   4.005  0.0812  0.6549  0.6786
  452MOL0     O59567   1.186   7.733   3.910 -0.0989  0.3341 -0.1253
  452MOL0     C59568   1.215   7.596   3.929  0.2751  0.0118 -0.4387
  452MOL0     C59569   1.105   7.511   3.861  0.2394 -0.1635 -0.3600
  452MOL0     C59570   1.132   7.362   3.882 -0.5314 -0.2352  0.8273
  452MOL0     C59571   1.042   7.271   3.793 -0.5813 -0.8051 -0.0014
  452MOL0     C59572   0.914   7.213   3.855 -0.7133  0.3132  0.1782
  452MOL0     C59573   0.803   7.187   3.756 -0.9551  0.2719  0.4805
  452MOL0     C59574   0.677   7.140   3.829  0.0500 -0.3733 -0.3051
  452MOL0     C59575   0.560   7.138   3.730  0.5404 -0.7801  0.0352
  452MOL0    Cl59576   0.583   7.027   3.582  0.2098 -0.0682  0.2156
  452MOL0     C59577   1.377   7.803   4.039 -0.4146 -0.1430 -0.3966
  452MOL0     C59578   1.435   7.899   4.126 -0.0331 -0.2710 -0.9197
  452MOL0     O59579   1.289   8.085   4.444  0.9017  0.1412 -0.4315
  452MOL0     C59580   1.551   8.308   4.373 -0.1189  0.3043 -0.3217
  452MOL0     C59581   1.621   8.417   4.430  0.5256 -0.2374  1.2279
  452MOL0     N59582   2.153   8.821   4.463 -0.2342 -0.9703  0.1040
  452MOL0     N59583   2.243   8.916   4.442  0.2918 -0.9077  0.9155
  452MOL0     C59584   3.397   9.019   4.651  0.4302 -0.1836 -0.9894
  452MOL0     C59585   3.519   9.054   4.591  0.3538 -0.5407 -0.1256
  452MOL0     C59586   3.800   9.410   4.467  0.3636 -0.2420  0.1689
  452MOL0     C59587   3.883   9.527   4.486  0.4761  0.0166 -0.3601
  452MOL0     C59588   3.909   9.611   4.384  0.4186  0.1857 -0.2130
  452MOL0     C59589   3.857   9.597   4.256  0.7948 -0.6503  0.2882
  452MOL0     O59590   3.873   9.707   4.169  0.4255 -0.1859  0.4781
  452MOL0     C59591   3.873   9.676   4.027  0.2382 -0.3884 -0.3967
  452MOL0     C59592   3.956   9.778   3.949 -0.7432  0.0131 -0.2687
  452MOL0     C59593   3.982   9.911   4.018 -0.0207 -0.5118  0.0914
  452MOL0     C59594   3.859   9.988   4.050  1.0296 -1.2398  0.6892
  452MOL0     C59595   3.808  10.059   3.926  0.8853 -0.3227  0.9624
  452MOL0     C59596   3.783  10.113   3.822 -0.2844  0.0763  1.1757
  452MOL0     C59597   3.768   9.490   4.231 -0.0919  0.5258 -0.4728
  452MOL0     C59598   3.748   9.397   4.338  0.5974  0.2663  0.0980
  452MOL0     H59599   3.536   9.371   4.718 -0.6930  0.0184  1.3834
  452MOL0     H59600   3.329   9.288   4.835 -0.9413  5.1792 -5.0646
  452MOL0     H59601   3.103   8.966   4.918 -0.7920  3.5126 -1.2718
  452MOL0     H59602   3.214   8.859   4.827 -2.7599 -2.4366 -1.9147
  452MOL0     H59603   3.015   8.811   4.716 -0.3767 -0.8780 -2.9928
  452MOL0     H59604   3.083   8.945   4.627  2.2390 -1.3519  1.6055
  452MOL0     H59605   2.935   9.111   4.729 -2.3929  0.8550  0.5754
  452MOL0     H59606   2.860   8.994   4.844 -0.1046  3.0070  1.0999
  452MOL0     H59607   2.860   8.946   4.546  0.0429  0.8422  0.0019
  452MOL0     H59608   2.749   8.888   4.662 -1.3611 -0.0426 -2.8157
  452MOL0     H59609   2.741   9.174   4.564 -0.8032  0.1555  1.3203
  452MOL0     H59610   2.663   9.119   4.701 -1.7366 -3.4825  1.2950
  452MOL0     H59611   2.524   8.958   4.567  0.3122 -0.3731  0.5930
  452MOL0     H59612   2.627   8.993   4.426 -0.1851 -2.1188  1.2209
  452MOL0     H59613   2.523   9.243   4.500 -0.6865 -0.8416  0.9654
  452MOL0     H59614   2.456   9.139   4.369  1.9944  1.6684 -0.2248
  452MOL0     H59615   2.281   9.201   4.542 -0.1832 -0.6572 -0.0895
  452MOL0     H59616   2.378   9.115   4.666  2.7200 -1.1326  0.4089
  452MOL0     H59617   2.184   8.967   4.751 -1.5676 -1.5080 -0.8755
  452MOL0     H59618   2.059   8.746   4.789 -0.3216  4.0875  0.5305
  452MOL0     H59619   2.049   8.632   4.660 -0.4574  0.1480 -0.2271
  452MOL0     H59620   1.861   8.869   4.642 -0.5768  0.1334  0.6711
  452MOL0     H59621   1.822   8.723   4.733 -1.7783  1.6987 -0.4062
  452MOL0     H59622   1.856   8.760   4.437 -0.6953  2.7817  1.5301
  452MOL0     H59623   1.879   8.594   4.516  3.0703  1.2696 -0.1535
  452MOL0     H59624   1.668   8.654   4.397  0.7588 -1.9119  0.5856
  452MOL0     H59625   1.638   8.780   4.520  0.6338  1.3095 -3.1490
  452MOL0     H59626   1.418   8.458   4.708 -2.0994 -1.2431 -1.0205
  452MOL0     H59627   1.332   8.244   4.625  1.0167  0.4073  1.2736
  452MOL0     H59628   1.157   8.081   4.199  1.0275 -0.4588  3.1558
  452MOL0     H59629   1.060   7.910   4.045 -0.0157  1.0068  2.4694
  452MOL0     H59630   1.207   7.574   4.036 -0.3990 -1.3764 -0.7531
  452MOL0     H59631   1.315   7.563   3.897  0.0570 -1.1777  0.0533
  452MOL0     H59632   1.105   7.520   3.752 -1.6005 -2.2019 -0.5977
  452MOL0     H59633   1.007   7.543   3.899  0.5637 -0.7185  0.9957
  452MOL0     H59634   1.119   7.341   3.989 -0.2832 -4.6165  0.1684
  452MOL0     H59635   1.236   7.345   3.855 -1.0637 -0.4331 -1.2779
  452MOL0     H59636   1.006   7.328   3.707 -0.2399  1.3958  1.2522
  452MOL0     H59637   1.105   7.189   3.757 -0.8386 -1.3198  0.6878
  452MOL0     H59638   0.883   7.286   3.930  1.4572  0.2762  1.2041
  452MOL0     H59639   0.934   7.118   3.904 -0.8010 -0.2683 -0.8811
  452MOL0     H59640   0.827   7.118   3.675 -1.0269  0.1331  0.5772
  452MOL0     H59641   0.786   7.283   3.706  1.5771  1.3773  1.5877
  452MOL0     H59642   0.691   7.041   3.872 -0.7529 -0.2280  0.2994
  452MOL0     H59643   0.663   7.207   3.914  0.2680  3.1624 -2.8040
  452MOL0     H59644   0.557   7.244   3.702 -1.7106 -0.6315  0.6463
  452MOL0     H59645   0.468   7.117   3.786  0.5893 -0.4464  0.2460
  452MOL0     H59646   1.436   7.719   4.003  0.1018 -0.3310  0.8211
  452MOL0     H59647   1.542   7.891   4.146  0.9758  2.1292 -4.3301
  452MOL0     H59648   1.588   8.255   4.286  0.6777 -2.7932  1.7285
  452MOL0     H59649   1.709   8.439   4.371 -2.1125 -0.6872 -3.3889
  452MOL0     H59650   3.341   8.931   4.624 -0.5167 -0.2083  0.8729
  452MOL0     H59651   3.561   9.005   4.503  3.1291  0.5719  0.4751
  452MOL0     H59652   3.910   9.551   4.588  1.1325 -2.4402  0.1097
  452MOL0     H59653   3.968   9.702   4.398 -1.6063  1.6295 -0.5570
  452MOL0     H59654   3.770   9.681   3.991  0.6993  0.3688 -1.6575
  452MOL0     H59655   3.914   9.579   3.998 -3.1967 -2.5630  1.2451
  452MOL0     H59656   4.047   9.719   3.935 -1.4364 -1.1399 -0.0329
  452MOL0     H59657   3.917   9.788   3.847  1.4910 -1.6000 -1.3741
  452MOL0     H59658   4.054   9.969   3.960 -0.2153 -0.0287  0.3169
  452MOL0     H59659   4.023   9.905   4.119  0.5963 -0.1793 -0.1381
  452MOL0     H59660   3.786   9.922   4.098 -0.1674 -1.0443 -0.8164
  452MOL0     H59661   3.883  10.073   4.115 -1.6059  1.3175 -1.3989
  452MOL0     H59662   3.770  10.170   3.732 -0.1335 -0.1513  1.0117
  452MOL0     H59663   3.701   9.483   4.146 -1.1928 -1.0710  0.4752
  452MOL0     H59664   3.689   9.310   4.310 -0.0924  1.0126 -0.8604
  453MOL0     O59665   1.631   6.147   5.548 -0.0398 -0.4142  0.7360
  453MOL0     C59666   1.519   6.192   5.558  0.3731  0.4835  0.1892
  453MOL0     O59667   1.405   6.124   5.537 -0.0670  0.8287 -0.4435
  453MOL0     C59668   1.419   5.997   5.494  0.1224  0.2318  0.1545
  453MOL0     C59669   1.474   5.892   5.574  0.8754 -0.2354  0.0236
  453MOL0     C59670   1.486   5.761   5.528 -0.1546 -0.3516 -0.2721
  453MOL0     C59671   1.411   5.715   5.417  0.0198  0.5115  0.7208
  453MOL0     O59672   1.414   5.582   5.371  0.6960 -0.0398  0.0815
  453MOL0     C59673   1.378   5.491   5.480  0.6931  0.1340  0.3042
  453MOL0     C59674   1.294   5.366   5.439 -0.4202 -0.1390  0.6980
  453MOL0     C59675   1.157   5.341   5.495  1.7549 -0.0048 -0.1287
  453MOL0     C59676   1.049   5.313   5.386 -0.5260  0.7500 -0.0217
  453MOL0     C59677   1.020   5.438   5.283  0.0986  0.9771  0.1175
  453MOL0     C59678   0.969   5.569   5.345  1.0716 -0.6637  0.4915
  453MOL0     C59679   0.938   5.676   5.237 -0.1625 -0.7968  0.1836
  453MOL0     C59680   0.857   5.791   5.301 -0.0084 -0.1666 -0.4412
  453MOL0     N59681   0.707   5.756   5.301  0.5381 -0.1752  0.2443
  453MOL0     C59682   0.628   5.746   5.186  0.5336 -0.4347 -1.0809
  453MOL0     C59683   0.511   5.704   5.231 -1.0757  0.8982  0.6236
  453MOL0     C59684   0.386   5.693   5.152 -0.0299  0.1434  0.1507
  453MOL0     C59685   0.258   5.691   5.223 -0.5667  0.2131  0.5275
  453MOL0     C59686   0.140   5.660   5.127 -0.9846  0.8937  0.3685
  453MOL0     C59687   0.003   5.679   5.190 -0.5074 -0.5011  1.5215
  453MOL0     O59688   0.011   5.606   5.309 -0.5310 -0.0764 -0.2096
  453MOL0     C59689  -0.111   5.587   5.367 -0.5985 -0.1525  0.2964
  453MOL0     C59690  -0.217   5.506   5.314  0.8530  0.2532 -0.0066
  453MOL0     C59691  -0.348   5.489   5.376 -0.4823 -0.3216  0.0726
  453MOL0     C59692  -0.360   5.578   5.488  0.3129 -0.0756 -0.2437
  453MOL0     C59693  -0.502   5.602   5.529  1.3060  0.4906  0.2609
  453MOL0     O59694  -0.599   5.526   5.466 -0.5212 -0.0667  0.3178
  453MOL0     C59695  -0.735   5.524   5.487 -1.0606 -0.6512 -1.0344
  453MOL0     C59696  -0.808   5.475   5.376 -0.4002 -0.7685 -0.6085
  453MOL0     C59697  -0.947   5.456   5.381 -1.0880  0.6843  0.1999
  453MOL0     C59698  -1.012   5.491   5.499 -0.3544 -0.2795 -0.7347
  453MOL0     O59699  -1.147   5.478   5.501 -0.5852 -1.0525  0.3658
  453MOL0     C59700  -1.224   5.601   5.504  0.7206 -0.5823 -0.2071
  453MOL0     C59701  -1.367   5.590   5.463 -0.4507 -0.4886 -0.5977
  453MOL0     C59702  -1.429   5.728   5.489 -0.6293 -0.7227  0.7538
  453MOL0     C59703  -1.573   5.694   5.540  0.1571  0.1592 -1.2455
  453MOL0     C59704  -1.649   5.833   5.550  0.8723 -0.0042  0.8109
  453MOL0     C59705  -1.796   5.797   5.577 -0.2526  0.3427 -0.5988
  453MOL0     C59706  -1.822   5.769   5.722  0.3680 -0.4288  0.7845
  453MOL0     C59707  -1.801   5.887   5.815 -0.0350  0.6180  0.2957
  453MOL0    Cl59708  -1.834   5.818   5.984 -0.2462  0.2155  0.1709
  453MOL0     C59709  -0.941   5.546   5.607  0.1862  0.4394 -0.5062
  453MOL0     C59710  -0.805   5.563   5.598 -0.4084 -0.7703 -0.1513
  453MOL0     O59711  -0.518   5.704   5.597 -0.4336  0.2034 -0.6038
  453MOL0     C59712  -0.259   5.659   5.538  0.2911 -0.2929  0.6360
  453MOL0     C59713  -0.135   5.662   5.479 -0.2910  0.5345  0.0953
  453MOL0     N59714   0.509   5.682   5.372 -1.5977  0.1568 -1.3091
  453MOL0     N59715   0.630   5.710   5.407  0.8158 -0.2237 -0.5409
  453MOL0     C59716   1.346   5.820   5.340  0.0864  0.2760  0.1445
  453MOL0     C59717   1.345   5.956   5.380 -0.6809 -0.1754  0.3223
  453MOL0     C59718   1.505   6.332   5.590  0.0077  1.3385  0.0934
  453MOL0     C59719   1.612   6.414   5.627  0.6717 -0.4476  0.5549
  453MOL0     C59720   1.594   6.545   5.681 -0.6027  0.5898 -0.4434
  453MOL0     C59721   1.463   6.594   5.692 -0.1319  0.0554  0.3434
  453MOL0     O59722   1.417   6.706   5.762  0.6100  0.1182 -0.3221
  453MOL0     C59723   1.515   6.769   5.854 -0.5102 -0.1831  0.7437
  453MOL0     C59724   1.455   6.903   5.894  0.6819 -0.7206 -0.0502
  453MOL0     C59725   1.472   7.011   5.788  1.2374 -0.2172 -0.0110
  453MOL0     C59726   1.366   7.005   5.685  0.1461 -0.0447  0.0095
  453MOL0     C59727   1.381   7.118   5.599 -0.4591 -0.2289 -0.2314
  453MOL0     C59728   1.422   7.196   5.520 -0.3904  1.1389 -0.1302
  453MOL0     C59729   1.355   6.518   5.640  0.3531 -0.2530 -0.0353
  453MOL0     C59730   1.378   6.388   5.596  0.2249  0.7807 -0.8087
  453MOL0     H59731   1.531   5.929   5.658  0.7426 -0.5115  0.2375
  453MOL0     H59732   1.547   5.699   5.593 -3.0469 -1.5082  1.5425
  453MOL0     H59733   1.319   5.535   5.562 -0.6834 -1.3525  0.1598
  453MOL0     H59734   1.474   5.455   5.518  0.3211  1.8202  3.1633
  453MOL0     H59735   1.357   5.285   5.477  0.4999  0.4548  0.4829
  453MOL0     H59736   1.306   5.371   5.331 -0.1243  3.7728  0.7523
  453MOL0     H59737   1.125   5.429   5.552 -0.1459 -1.9708  2.0386
  453MOL0     H59738   1.159   5.257   5.565 -0.9228  1.9616  2.5802
  453MOL0     H59739   1.080   5.220   5.336 -1.8690 -0.6880  1.6677
  453MOL0     H59740   0.958   5.284   5.440 -2.0356 -1.0138 -3.2545
  453MOL0     H59741   0.947   5.399   5.211  1.6143 -0.4647 -0.6903
  453MOL0     H59742   1.101   5.458   5.213 -0.3455  0.4705 -0.5625
  453MOL0     H59743   1.052   5.604   5.408  0.0674  1.1778  0.8576
  453MOL0     H59744   0.881   5.553   5.408  1.2754  1.2804  1.3353
  453MOL0     H59745   1.034   5.713   5.200 -0.7803  3.8616  2.5948
  453MOL0     H59746   0.882   5.620   5.162 -0.6013  1.3100 -1.1177
  453MOL0     H59747   0.875   5.882   5.243 -0.1865  1.8630  2.4706
  453MOL0     H59748   0.891   5.814   5.402 -0.2886  3.2296 -0.9834
  453MOL0     H59749   0.647   5.769   5.081  1.5008 -1.0429 -1.0516
  453MOL0     H59750   0.397   5.598   5.098  1.9984  0.3147  0.1529
  453MOL0     H59751   0.388   5.779   5.085  2.3385 -0.5392 -0.7584
  453MOL0     H59752   0.241   5.792   5.263  0.5485  1.0390 -0.9749
  453MOL0     H59753   0.265   5.627   5.312  2.1537  3.4139  2.8938
  453MOL0     H59754   0.154   5.724   5.039  0.4698 -3.0642 -2.5668
  453MOL0     H59755   0.158   5.559   5.090 -1.7656  1.2121 -0.9247
  453MOL0     H59756  -0.069   5.630   5.124 -0.4059  0.2532  0.8504
  453MOL0     H59757  -0.024   5.785   5.191  2.2641  0.5819 -3.7365
  453MOL0     H59758  -0.197   5.453   5.221  0.9673 -0.1126  0.2225
  453MOL0     H59759  -0.415   5.408   5.350  1.0976 -1.8243  0.4518
  453MOL0     H59760  -0.764   5.472   5.277  2.1993  3.8771  0.1135
  453MOL0     H59761  -1.006   5.428   5.293 -1.9589 -0.3507  1.0791
  453MOL0     H59762  -1.179   5.662   5.425  0.7612  2.4657  1.9790
  453MOL0     H59763  -1.216   5.658   5.597  0.4831  0.0589 -0.5679
  453MOL0     H59764  -1.412   5.511   5.524 -1.1735 -0.7626 -1.4612
  453MOL0     H59765  -1.387   5.547   5.365 -1.4667  0.2843 -0.7420
  453MOL0     H59766  -1.426   5.793   5.401 -2.5062 -0.9270  0.4957
  453MOL0     H59767  -1.378   5.787   5.566 -0.2962  0.1212 -0.0785
  453MOL0     H59768  -1.629   5.628   5.474  0.5861 -2.2043  0.5871
  453MOL0     H59769  -1.572   5.633   5.631  0.8827 -0.3906 -1.6102
  453MOL0     H59770  -1.650   5.888   5.456 -0.1260  0.8631  1.3173
  453MOL0     H59771  -1.605   5.898   5.626  0.5579  3.0668 -1.4489
  453MOL0     H59772  -1.830   5.711   5.519 -3.7994  1.5686 -0.6268
  453MOL0     H59773  -1.859   5.878   5.539  0.2256  1.2039  0.4091
  453MOL0     H59774  -1.930   5.757   5.726  0.6110 -3.4324  0.3085
  453MOL0     H59775  -1.780   5.674   5.757 -0.9021 -1.0022  0.7849
  453MOL0     H59776  -1.877   5.960   5.784 -1.7611 -1.9400 -1.9653
  453MOL0     H59777  -1.701   5.929   5.820 -0.3321  1.2799  0.8285
  453MOL0     H59778  -0.982   5.573   5.704  1.5038  1.1551 -0.1070
  453MOL0     H59779  -0.749   5.606   5.681  0.1926 -1.3737 -0.2366
  453MOL0     H59780  -0.282   5.726   5.620  1.8005 -0.8015  1.5122
  453MOL0     H59781  -0.056   5.723   5.521  2.9312 -2.9428 -0.4005
  453MOL0     H59782   1.286   5.795   5.253 -2.9777  3.0922  1.2047
  453MOL0     H59783   1.315   6.036   5.313  3.6606  0.5844 -1.0543
  453MOL0     H59784   1.711   6.369   5.629  1.0593  0.3112 -0.4799
  453MOL0     H59785   1.680   6.608   5.701  0.6548 -1.5815  1.4712
  453MOL0     H59786   1.608   6.786   5.798  0.6179 -3.5615  1.3983
  453MOL0     H59787   1.544   6.706   5.938 -1.2474 -0.3040  0.9163
  453MOL0     H59788   1.348   6.891   5.913  0.5566 -4.7851 -2.2561
  453MOL0     H59789   1.509   6.929   5.985 -0.3948  0.1838  0.3526
  453MOL0     H59790   1.571   6.992   5.746  1.2273 -0.2097 -0.0373
  453MOL0     H59791   1.465   7.104   5.845 -2.5683 -2.9331  4.7392
  453MOL0     H59792   1.349   6.913   5.629 -2.2460  0.3164  0.0601
  453MOL0     H59793   1.274   7.024   5.740  1.0696  2.8734  0.7682
  453MOL0     H59794   1.443   7.257   5.434 -1.1821  1.3003 -0.2189
  453MOL0     H59795   1.252   6.546   5.659 -0.1696 -1.3585 -1.1284
  453MOL0     H59796   1.293   6.324   5.571  1.4208 -2.0374  1.7730
  454MOL0     O59797  10.510   3.015  10.797 -0.0019  0.8299  0.6533
  454MOL0     C59798  10.457   2.915  10.851  1.3959 -0.3012 -0.4784
  454MOL0     O59799  10.494   2.784  10.831  0.6705  0.8132  0.4414
  454MOL0     C59800  10.586   2.744  10.731  0.3031  0.2089 -0.3251
  454MOL0     C59801  10.690   2.824  10.682  0.6079 -0.2606  0.5033
  454MOL0     C59802  10.761   2.794  10.560  0.5181  1.3334 -0.2193
  454MOL0     C59803  10.740   2.663  10.500  0.4475  0.2364  0.6982
  454MOL0     O59804  10.797   2.638  10.384 -0.8820  0.2707  0.5951
  454MOL0     C59805  10.717   2.702  10.279 -0.3042  0.4527  0.5705
  454MOL0     C59806  10.660   2.596  10.177  0.2764 -0.3074  0.3688
  454MOL0     C59807  10.547   2.514  10.236 -1.0378  0.0175  0.4950
  454MOL0     C59808  10.502   2.416  10.130 -0.2873  0.8706 -0.0426
  454MOL0     C59809  10.370   2.342  10.174  1.1480  0.8223  1.0122
  454MOL0     C59810  10.324   2.253  10.062  0.7094 -0.5213  0.2401
  454MOL0     C59811  10.184   2.189  10.101  0.2967  0.1811  0.6958
  454MOL0     C59812  10.132   2.145   9.969  0.4107 -0.1471  0.0161
  454MOL0     N59813  10.000   2.078   9.979 -0.1077  0.0753 -0.1534
  454MOL0     C59814   9.938   2.011  10.083 -0.3866  0.4940 -0.2235
  454MOL0     C59815   9.833   1.951  10.030 -0.0331 -0.4020 -0.4030
  454MOL0     C59816   9.746   1.859  10.117 -0.1939  0.4437  0.1820
  454MOL0     C59817   9.661   1.918  10.220  0.2107 -0.8985  0.2275
  454MOL0     C59818   9.585   2.044  10.178  0.1128 -0.2826  1.0303
  454MOL0     C59819   9.667   2.183  10.179  0.1103 -0.7950 -0.4050
  454MOL0     O59820   9.761   2.184  10.286 -0.9636  0.1416 -0.0381
  454MOL0     C59821   9.835   2.299  10.297  0.3817  0.9781  0.6796
  454MOL0     C59822   9.924   2.273  10.398 -0.6749 -0.3887 -0.6615
  454MOL0     C59823  10.021   2.380  10.433  0.7085  0.6624  0.7758
  454MOL0     C59824  10.018   2.505  10.367  0.3163 -0.2335  0.5475
  454MOL0     C59825  10.134   2.593  10.374 -0.0327  0.1372 -1.1195
  454MOL0     O59826  10.122   2.718  10.318 -0.6744  0.7804  0.1043
  454MOL0     C59827  10.238   2.784  10.294 -0.4756  0.2829  1.4682
  454MOL0     C59828  10.303   2.845  10.394  0.6334 -0.0879 -0.7433
  454MOL0     C59829  10.414   2.921  10.375  0.4107 -0.0448  0.5388
  454MOL0     C59830  10.464   2.953  10.248  0.7812 -0.2222  0.0722
  454MOL0     O59831  10.581   3.012  10.209  0.1061  0.5025 -0.0971
  454MOL0     C59832  10.680   3.053  10.303  0.3152  0.5075 -0.4936
  454MOL0     C59833  10.719   3.197  10.264 -0.3283  0.3548 -0.6282
  454MOL0     C59834  10.618   3.308  10.297 -1.1477 -0.3086  0.3096
  454MOL0     C59835  10.675   3.444  10.251  0.2629  0.2004 -0.2405
  454MOL0     C59836  10.647   3.557  10.344  0.1323 -0.5403 -0.3807
  454MOL0     C59837  10.499   3.579  10.374  0.2185  0.4426  0.8020
  454MOL0     C59838  10.462   3.719  10.432  0.0805  0.6775  0.8143
  454MOL0     C59839  10.312   3.715  10.471  0.2580  0.4993 -0.0903
  454MOL0    Cl59840  10.305   3.668  10.637 -0.0878 -0.0998 -0.1715
  454MOL0     C59841  10.390   2.895  10.143 -0.2835  0.3854 -0.0838
  454MOL0     C59842  10.277   2.810  10.161  0.1794 -0.5804 -0.3259
  454MOL0     O59843  10.242   2.548  10.416  0.3915 -0.1399 -0.9104
  454MOL0     C59844   9.937   2.524  10.254 -0.4951  0.8322 -0.3640
  454MOL0     C59845   9.848   2.415  10.219 -1.1360  0.3057  0.4812
  454MOL0     N59846   9.827   1.976   9.890  0.6642  0.3688  0.1545
  454MOL0     N59847   9.936   2.042   9.865 -0.2013 -0.3361 -0.3172
  454MOL0     C59848  10.643   2.573  10.557 -0.3060 -0.7179 -0.6010
  454MOL0     C59849  10.564   2.620  10.666  0.5160  1.0111 -0.1919
  454MOL0     C59850  10.343   2.945  10.947  0.0421  0.6454  1.2786
  454MOL0     C59851  10.261   3.053  10.949  0.6417  0.4635  0.7746
  454MOL0     C59852  10.148   3.058  11.035  0.5082 -0.8828  0.9722
  454MOL0     C59853  10.111   2.955  11.117  0.3990  0.3911  0.0620
  454MOL0     O59854  10.000   2.969  11.206  0.0697 -1.0738 -0.6115
  454MOL0     C59855   9.920   2.851  11.222 -0.6337 -0.1209 -0.0502
  454MOL0     C59856   9.790   2.870  11.282 -0.4518 -0.9219  0.7916
  454MOL0     C59857   9.723   3.000  11.222 -0.0973 -0.5787  0.3964
  454MOL0     C59858   9.574   3.020  11.261 -0.8466 -0.2940 -0.2647
  454MOL0     C59859   9.559   3.066  11.403 -0.6608  0.9417  0.1569
  454MOL0     C59860   9.545   3.110  11.520  0.3939  1.4660  0.0278
  454MOL0     C59861  10.193   2.845  11.114 -0.1333  0.8148  0.0132
  454MOL0     C59862  10.308   2.842  11.038  0.1903  0.7558 -0.0716
  454MOL0     H59863  10.706   2.917  10.735 -0.8298 -1.4172  3.1501
  454MOL0     H59864  10.831   2.860  10.511  2.5097 -1.6330 -1.6831
  454MOL0     H59865  10.784   2.762  10.217 -1.2430 -0.2148 -1.1652
  454MOL0     H59866  10.636   2.767  10.315  0.9802  2.2915  0.2329
  454MOL0     H59867  10.740   2.546  10.122  0.3343  0.3527 -0.1637
  454MOL0     H59868  10.610   2.660  10.104  0.9908 -0.1902 -0.0240
  454MOL0     H59869  10.459   2.575  10.260 -2.7356 -2.2669  0.4040
  454MOL0     H59870  10.584   2.461  10.324  1.5410  0.0015 -0.5071
  454MOL0     H59871  10.473   2.464  10.036 -5.1178 -0.5179  0.4570
  454MOL0     H59872  10.583   2.347  10.106  1.7396  2.5276  1.6538
  454MOL0     H59873  10.290   2.410  10.204 -1.1067 -1.9148  1.6118
  454MOL0     H59874  10.394   2.280  10.261  1.0790  0.8926  1.0818
  454MOL0     H59875  10.392   2.169  10.046  1.3924 -0.8688  4.0429
  454MOL0     H59876  10.317   2.315   9.973 -0.1013  1.9502  1.9161
  454MOL0     H59877  10.197   2.099  10.163 -3.8247 -2.0528 -1.2630
  454MOL0     H59878  10.118   2.261  10.150  0.0900  1.3002 -1.1529
  454MOL0     H59879  10.200   2.065   9.938  1.6487  0.1778  1.7999
  454MOL0     H59880  10.115   2.227   9.899 -0.5675  0.0856  0.5032
  454MOL0     H59881   9.961   1.982  10.184 -0.5941 -1.4820 -0.7039
  454MOL0     H59882   9.792   1.764  10.145 -0.5970 -0.0572 -0.8036
  454MOL0     H59883   9.669   1.826  10.047  0.7984 -2.0967  0.1740
  454MOL0     H59884   9.716   1.949  10.310 -1.7536 -1.4584  1.6823
  454MOL0     H59885   9.595   1.838  10.252 -0.5611 -1.3461 -2.2762
  454MOL0     H59886   9.544   2.028  10.078  0.5653  1.0938  0.6092
  454MOL0     H59887   9.504   2.062  10.249 -0.5604  2.2248 -0.2454
  454MOL0     H59888   9.604   2.273  10.183 -0.0435 -0.9405  2.0985
  454MOL0     H59889   9.721   2.190  10.084  0.4018  1.2014 -0.1296
  454MOL0     H59890   9.929   2.171  10.435 -0.4604 -0.0023  0.4239
  454MOL0     H59891  10.085   2.355  10.517 -3.2601  1.2316  4.3166
  454MOL0     H59892  10.271   2.843  10.497  1.6910  2.1931 -0.3203
  454MOL0     H59893  10.466   2.961  10.462  1.7133  2.1146 -1.1335
  454MOL0     H59894  10.768   2.992  10.281  0.3144 -0.9739  2.9634
  454MOL0     H59895  10.651   3.035  10.407  1.1551  1.0280 -0.1671
  454MOL0     H59896  10.736   3.195  10.156 -1.1152  0.3200 -0.7588
  454MOL0     H59897  10.807   3.228  10.319 -1.4360  0.2957  1.2663
  454MOL0     H59898  10.608   3.307  10.406 -0.0355  2.6595  0.5450
  454MOL0     H59899  10.519   3.295  10.254 -0.4293 -2.3217 -0.8975
  454MOL0     H59900  10.783   3.428  10.238 -0.0393 -0.2707 -2.6758
  454MOL0     H59901  10.639   3.475  10.152  1.7249  0.6884 -0.6442
  454MOL0     H59902  10.694   3.642  10.294  0.4332 -0.0021  0.7804
  454MOL0     H59903  10.706   3.547  10.436 -0.9920  1.4279  0.6133
  454MOL0     H59904  10.457   3.496  10.431 -0.4522 -0.4079 -0.8503
  454MOL0     H59905  10.442   3.577  10.280  1.3035  0.7911  0.1181
  454MOL0     H59906  10.522   3.745  10.520 -0.1386  1.1438  0.8311
  454MOL0     H59907  10.485   3.796  10.357 -2.2152  2.5836  1.9445
  454MOL0     H59908  10.251   3.652  10.405 -1.7742 -0.2616  2.3476
  454MOL0     H59909  10.274   3.817  10.464  0.6657  0.5955 -1.0904
  454MOL0     H59910  10.434   2.900  10.044  2.3411  0.1739  0.9864
  454MOL0     H59911  10.217   2.773  10.078 -0.8940 -1.3431  0.7568
  454MOL0     H59912   9.943   2.603  10.180 -0.1251 -1.2113 -2.6277
  454MOL0     H59913   9.789   2.428  10.128 -0.8315 -2.7725 -0.2569
  454MOL0     H59914  10.615   2.478  10.514  0.8594 -1.3418 -0.0389
  454MOL0     H59915  10.470   2.570  10.685  0.4692  0.4523 -1.7246
  454MOL0     H59916  10.279   3.143  10.890 -2.0644  0.7596  0.2699
  454MOL0     H59917  10.084   3.144  11.016  1.0188 -0.5730  0.6150
  454MOL0     H59918   9.982   2.777  11.275  0.7555  1.7323  1.0134
  454MOL0     H59919   9.897   2.812  11.123  0.1840 -0.1323 -0.2453
  454MOL0     H59920   9.743   2.772  11.265  0.5836 -1.4320  0.7622
  454MOL0     H59921   9.804   2.885  11.389  1.4758  1.6597  0.2588
  454MOL0     H59922   9.726   3.005  11.112 -1.2893  1.0911  0.4104
  454MOL0     H59923   9.777   3.088  11.258  1.3577 -2.1839  2.3758
  454MOL0     H59924   9.531   3.097  11.197  0.2643 -2.0557 -3.3920
  454MOL0     H59925   9.514   2.929  11.252 -1.3044 -0.0590  0.3654
  454MOL0     H59926   9.538   3.154  11.618  2.5166  2.5107 -0.2411
  454MOL0     H59927  10.170   2.772  11.190 -3.0915  1.3994 -0.2247
  454MOL0     H59928  10.372   2.755  11.049 -2.3617 -1.0012  2.0662
  455MOL0     O59929   7.186   6.105   7.042  0.1218  0.4595 -0.6085
  455MOL0     C59930   7.094   6.026   7.019 -0.5561  0.2782  0.0280
  455MOL0     O59931   6.977   6.024   7.082  0.1675 -0.1982  0.0652
  455MOL0     C59932   6.935   6.088   7.192 -0.1406 -0.7854  0.9727
  455MOL0     C59933   6.804   6.125   7.206 -0.0865  0.1437 -0.0689
  455MOL0     C59934   6.763   6.212   7.305  0.1826  0.1431  0.2859
  455MOL0     C59935   6.840   6.246   7.420  0.7843 -0.1124 -0.0713
  455MOL0     O59936   6.779   6.324   7.511 -0.0490  0.2014  0.5989
  455MOL0     C59937   6.832   6.315   7.640  0.2908  0.4776 -0.2376
  455MOL0     C59938   6.737   6.369   7.735  0.4620  0.4304 -0.8179
  455MOL0     C59939   6.783   6.398   7.880 -0.1496  0.8253 -0.1716
  455MOL0     C59940   6.684   6.492   7.954 -0.4304 -0.2754 -0.0535
  455MOL0     C59941   6.680   6.478   8.108  0.1554  0.3511 -0.0823
  455MOL0     C59942   6.817   6.467   8.167 -0.0871  0.8726 -0.2736
  455MOL0     C59943   6.795   6.440   8.319  0.5200 -0.7156 -1.1157
  455MOL0     C59944   6.833   6.569   8.402  0.1833  0.1933  0.1045
  455MOL0     N59945   6.980   6.578   8.407 -1.0748  0.0898 -0.5280
  455MOL0     C59946   7.046   6.533   8.517 -0.4070 -0.9170  0.4918
  455MOL0     C59947   7.177   6.526   8.487  0.5933  0.6444  0.3297
  455MOL0     C59948   7.281   6.471   8.584 -0.2482 -0.1841  0.8298
  455MOL0     C59949   7.365   6.566   8.655 -0.3836  0.1609  0.4510
  455MOL0     C59950   7.295   6.656   8.741  0.8380  0.7821  0.0389
  455MOL0     C59951   7.394   6.742   8.824  0.2454  0.0326 -0.4713
  455MOL0     O59952   7.469   6.660   8.918  0.1066 -0.3935 -0.5052
  455MOL0     C59953   7.544   6.745   8.999  0.3271  0.1265  0.6770
  455MOL0     C59954   7.620   6.677   9.088  1.0710 -0.2458  0.3024
  455MOL0     C59955   7.717   6.732   9.164  1.2600 -0.1082 -0.3679
  455MOL0     C59956   7.738   6.876   9.169  0.5349  0.9354 -0.6445
  455MOL0     C59957   7.833   6.933   9.271  0.2493  0.2481  0.0782
  455MOL0     O59958   7.846   7.070   9.275 -0.2232 -0.2473  0.1409
  455MOL0     C59959   7.908   7.134   9.367 -1.1421 -0.0078 -0.3758
  455MOL0     C59960   8.048   7.120   9.395  0.0315  0.5169 -0.2779
  455MOL0     C59961   8.116   7.194   9.485 -0.3348  0.0442 -0.4312
  455MOL0     C59962   8.046   7.294   9.554 -0.3420  0.4328  0.3078
  455MOL0     O59963   8.104   7.365   9.659  0.3985 -0.0688 -0.1324
  455MOL0     C59964   8.213   7.443   9.618 -0.5097 -0.3106  0.5696
  455MOL0     C59965   8.187   7.588   9.574 -0.0887 -0.7202  0.8587
  455MOL0     C59966   8.289   7.677   9.657  0.2874 -0.6445 -0.3374
  455MOL0     C59967   8.263   7.823   9.635 -1.0191 -0.2650  0.9344
  455MOL0     C59968   8.338   7.919   9.733  0.7000 -1.0243  0.2454
  455MOL0     C59969   8.344   8.063   9.695 -0.2360 -0.2480  0.1319
  455MOL0     C59970   8.215   8.136   9.694 -0.4040  0.4150  0.1910
  455MOL0     C59971   8.187   8.215   9.826 -0.3835  0.2287 -0.9460
  455MOL0    Cl59972   8.272   8.366   9.831 -0.0101  0.0896 -0.0622
  455MOL0     C59973   7.912   7.313   9.531  1.2446  0.1056  0.9986
  455MOL0     C59974   7.849   7.241   9.433  0.6709  0.7112  0.2567
  455MOL0     O59975   7.871   6.867   9.364  0.7253 -0.6786  0.2137
  455MOL0     C59976   7.655   6.954   9.078 -0.3976 -0.7349 -0.7584
  455MOL0     C59977   7.554   6.886   9.005 -0.8601  0.5083  1.5616
  455MOL0     N59978   7.184   6.564   8.355  0.1005 -1.1971  0.4543
  455MOL0     N59979   7.071   6.621   8.317 -0.2233  0.0929 -0.0513
  455MOL0     C59980   6.975   6.200   7.403  0.9823 -0.4472 -0.5567
  455MOL0     C59981   7.024   6.134   7.291  0.5716  0.5836 -1.3787
  455MOL0     C59982   7.092   5.940   6.901  0.4478  0.6975  0.3939
  455MOL0     C59983   7.218   5.895   6.849 -0.1245 -0.2712  0.8660
  455MOL0     C59984   7.226   5.801   6.747  0.0305 -0.3237 -0.2301
  455MOL0     C59985   7.113   5.763   6.666 -0.7042  0.3607  0.1538
  455MOL0     O59986   7.107   5.677   6.561  0.7062 -0.2992  0.2667
  455MOL0     C59987   7.232   5.622   6.516  0.7248 -0.2961  0.7446
  455MOL0     C59988   7.210   5.543   6.387 -1.2434 -0.1531  0.0609
  455MOL0     C59989   7.354   5.492   6.341 -0.6958 -0.7031 -0.1535
  455MOL0     C59990   7.453   5.590   6.292 -0.7848 -0.1069 -0.9414
  455MOL0     C59991   7.546   5.634   6.395  0.0555  0.2047  0.5640
  455MOL0     C59992   7.621   5.673   6.485  0.5152  0.3832 -0.4361
  455MOL0     C59993   6.987   5.798   6.727  0.5979 -0.5770  0.9021
  455MOL0     C59994   6.970   5.888   6.834 -0.3552  0.5736  0.0176
  455MOL0     H59995   6.732   6.102   7.128 -1.4295 -1.6588  1.6018
  455MOL0     H59996   6.664   6.254   7.291  0.2043 -0.6227 -2.9152
  455MOL0     H59997   6.932   6.360   7.639 -0.9613  3.4645 -0.2446
  455MOL0     H59998   6.838   6.212   7.677  0.1397  0.1158 -1.1932
  455MOL0     H59999   6.644   6.316   7.756 -0.8072  3.0618  0.8071
  455MOL0     H60000   6.714   6.462   7.683 -1.1227  1.2881  1.2611
  455MOL0     H60001   6.884   6.439   7.871 -0.3925  1.7091  0.9975
  455MOL0     H60002   6.788   6.305   7.938  5.0366 -0.3527 -1.9358
  455MOL0     H60003   6.710   6.592   7.918  4.7286 -1.6274 -0.9341
  455MOL0     H60004   6.582   6.472   7.921 -1.5428 -0.1708  3.0475
  455MOL0     H60005   6.630   6.385   8.135  0.8269  0.3069  1.0903
  455MOL0     H60006   6.620   6.558   8.151 -0.7427 -0.3493 -0.0090
  455MOL0     H60007   6.874   6.559   8.155 -0.0309  0.6296 -2.1927
  455MOL0     H60008   6.875   6.387   8.121  2.4181  1.1261  2.2050
  455MOL0     H60009   6.692   6.408   8.337  0.8144 -0.3162  1.6036
  455MOL0     H60010   6.861   6.357   8.347  1.5644  1.1263  2.3871
  455MOL0     H60011   6.774   6.565   8.494 -3.5704  3.4338 -1.8840
  455MOL0     H60012   6.807   6.655   8.340  0.4563 -1.5501 -2.5915
  455MOL0     H60013   6.998   6.505   8.609  0.0676  0.2492  1.1228
  455MOL0     H60014   7.349   6.410   8.524  0.8260  2.9386 -1.4421
  455MOL0     H60015   7.235   6.402   8.655 -1.6821  0.9154  1.0255
  455MOL0     H60016   7.423   6.623   8.582  3.0487 -0.1096  2.7654
  455MOL0     H60017   7.449   6.523   8.709  1.1449 -1.0073 -2.5984
  455MOL0     H60018   7.224   6.721   8.689  0.8931  1.3409  0.6468
  455MOL0     H60019   7.227   6.594   8.800 -1.1145  2.2754 -0.5149
  455MOL0     H60020   7.327   6.796   8.892  1.0433 -1.3939  1.5555
  455MOL0     H60021   7.457   6.806   8.762 -1.2534  0.9604 -1.0764
  455MOL0     H60022   7.603   6.570   9.091 -1.2135  0.0822  1.1602
  455MOL0     H60023   7.775   6.667   9.228 -2.0263 -3.2034 -0.2462
  455MOL0     H60024   8.088   7.031   9.348 -1.4173 -0.3475  0.0597
  455MOL0     H60025   8.223   7.179   9.491  0.0914  1.6930 -2.7358
  455MOL0     H60026   8.272   7.397   9.539  3.2094  2.4480  1.4597
  455MOL0     H60027   8.269   7.441   9.713  1.4153 -1.5842 -0.5223
  455MOL0     H60028   8.089   7.630   9.600  0.1798  3.0214 -2.9845
  455MOL0     H60029   8.198   7.608   9.467 -2.8603  0.0093  0.6198
  455MOL0     H60030   8.395   7.662   9.638  0.3663  1.1176 -1.5753
  455MOL0     H60031   8.278   7.641   9.760  1.7238 -4.3409 -1.3081
  455MOL0     H60032   8.312   7.842   9.539 -0.7585 -2.2536  0.6420
  455MOL0     H60033   8.156   7.846   9.627 -0.5478  1.3944 -4.2191
  455MOL0     H60034   8.442   7.883   9.740  0.6373 -1.0988  0.8481
  455MOL0     H60035   8.289   7.922   9.831  2.3072 -2.7529  1.1843
  455MOL0     H60036   8.389   8.085   9.597  0.2635  0.0448  0.4201
  455MOL0     H60037   8.418   8.109   9.762  0.4159 -0.1560 -0.6270
  455MOL0     H60038   8.224   8.208   9.612  3.5612 -2.7791 -2.5896
  455MOL0     H60039   8.130   8.067   9.684 -1.1168  1.4294 -1.1824
  455MOL0     H60040   8.214   8.159   9.916  0.4253  4.7208  1.9158
  455MOL0     H60041   8.078   8.226   9.827 -0.8549 -3.1917 -1.8147
  455MOL0     H60042   7.858   7.388   9.588  0.4606 -0.4410  0.9905
  455MOL0     H60043   7.751   7.273   9.398  0.4491  2.3351  2.1875
  455MOL0     H60044   7.666   7.062   9.073 -2.6650 -0.3352  1.0327
  455MOL0     H60045   7.501   6.941   8.928  0.1426 -3.0167 -1.9581
  455MOL0     H60046   7.046   6.221   7.482 -1.4145  0.5239  1.4845
  455MOL0     H60047   7.129   6.112   7.279  0.8564  0.9902  0.1588
  455MOL0     H60048   7.308   5.937   6.894 -0.3461 -0.3784  1.4081
  455MOL0     H60049   7.322   5.757   6.721 -1.0108 -2.7460 -0.2917
  455MOL0     H60050   7.288   5.564   6.589  0.9189 -1.6529 -0.4419
  455MOL0     H60051   7.290   5.709   6.485 -0.3372  1.6193  3.7080
  455MOL0     H60052   7.140   5.458   6.390 -0.5803 -0.7105  0.2091
  455MOL0     H60053   7.178   5.609   6.307  3.6521  0.1429 -2.0351
  455MOL0     H60054   7.340   5.432   6.251  0.0808 -0.3339 -0.5326
  455MOL0     H60055   7.392   5.420   6.414 -2.0953 -0.2417  1.0819
  455MOL0     H60056   7.508   5.539   6.213 -0.1920  0.2463 -0.7575
  455MOL0     H60057   7.400   5.673   6.244  1.3068  0.9510 -1.5309
  455MOL0     H60058   7.673   5.714   6.568 -1.1550 -0.0823  0.9078
  455MOL0     H60059   6.898   5.756   6.683  1.0085 -2.5477  1.8671
  455MOL0     H60060   6.873   5.918   6.873 -1.0541  2.7546 -2.9893
  456MOL0     O60061   3.072   2.320   4.251  0.1137 -0.1256  0.3702
  456MOL0     C60062   3.000   2.421   4.249  0.2819 -0.1982 -0.3318
  456MOL0     O60063   3.037   2.543   4.306  0.4290  0.5375  0.1939
  456MOL0     C60064   3.168   2.571   4.340 -0.8684 -0.5312 -0.3471
  456MOL0     C60065   3.278   2.483   4.358 -0.1913  0.0494 -0.8778
  456MOL0     C60066   3.412   2.534   4.364  0.7815 -0.7958 -0.1632
  456MOL0     C60067   3.435   2.675   4.372  0.5887  0.7637 -0.3805
  456MOL0     O60068   3.561   2.720   4.389 -0.7947 -0.0608  0.5158
  456MOL0     C60069   3.568   2.822   4.494  1.3058 -0.1658  0.6629
  456MOL0     C60070   3.702   2.841   4.559 -0.8636 -0.9541 -0.2782
  456MOL0     C60071   3.700   2.921   4.691 -0.2886  0.0172  0.4292
  456MOL0     C60072   3.843   2.961   4.716  0.0146  0.2751 -0.5219
  456MOL0     C60073   3.869   3.046   4.843  0.2854 -0.4484  0.1293
  456MOL0     C60074   3.823   2.984   4.977 -1.2213  0.1629  0.1458
  456MOL0     C60075   3.850   3.062   5.101 -1.4447 -1.0044 -0.3597
  456MOL0     C60076   3.998   3.096   5.118 -1.3880 -0.8649  0.7155
  456MOL0     N60077   4.029   3.139   5.255  0.5563 -0.1080 -0.1181
  456MOL0     C60078   4.124   3.243   5.281  0.1312 -0.3653  1.1389
  456MOL0     C60079   4.142   3.236   5.407 -0.3371  1.1578 -0.0640
  456MOL0     C60080   4.221   3.329   5.492 -0.0685 -0.0597 -0.2679
  456MOL0     C60081   4.374   3.320   5.456 -0.0492 -0.8820  1.0221
  456MOL0     C60082   4.408   3.405   5.331 -0.3405 -0.1402  0.1803
  456MOL0     C60083   4.563   3.427   5.313 -0.5049 -0.4368  0.5661
  456MOL0     O60084   4.608   3.524   5.409 -0.0531  0.3861 -0.3389
  456MOL0     C60085   4.723   3.596   5.372 -0.4264 -0.4209  0.7755
  456MOL0     C60086   4.727   3.738   5.377 -0.5369  0.1586  0.4887
  456MOL0     C60087   4.842   3.811   5.336  0.4404 -0.0239  0.3002
  456MOL0     C60088   4.962   3.739   5.299  1.0408  0.0054 -0.6744
  456MOL0     C60089   5.089   3.816   5.272  0.4622  0.8578 -0.5475
  456MOL0     O60090   5.064   3.946   5.278  0.3311  0.3022 -0.7487
  456MOL0     C60091   5.158   4.040   5.248  0.0237  0.2858 -0.4820
  456MOL0     C60092   5.298   4.036   5.263 -0.7267  0.0546 -1.8064
  456MOL0     C60093   5.376   4.151   5.222 -0.1007  1.3569  0.6368
  456MOL0     C60094   5.324   4.266   5.177  0.1450  0.2658  0.5719
  456MOL0     O60095   5.399   4.368   5.143 -0.9416  0.1735  0.1255
  456MOL0     C60096   5.360   4.501   5.172  1.2916  0.0031 -0.4347
  456MOL0     C60097   5.459   4.615   5.122  0.3398 -0.9899  0.2245
  456MOL0     C60098   5.594   4.615   5.192 -0.2153 -0.2456 -0.1912
  456MOL0     C60099   5.587   4.634   5.343  0.2690 -0.0063 -0.4891
  456MOL0     C60100   5.723   4.631   5.407  0.8481 -0.6422  0.1556
  456MOL0     C60101   5.801   4.763   5.368 -0.1304  1.1207  0.2855
  456MOL0     C60102   5.747   4.889   5.440  0.1872 -0.6960  0.0628
  456MOL0     C60103   5.842   5.004   5.429  0.0676 -0.7430  0.0149
  456MOL0    Cl60104   5.872   5.042   5.250  0.2853 -0.2406  0.1808
  456MOL0     C60105   5.182   4.271   5.179  0.7904 -0.8601 -0.1168
  456MOL0     C60106   5.098   4.164   5.218 -0.5778 -0.7304 -0.1718
  456MOL0     O60107   5.188   3.756   5.222  0.8349 -0.5202  0.0829
  456MOL0     C60108   4.949   3.596   5.310  0.7598 -0.0435 -0.3322
  456MOL0     C60109   4.838   3.533   5.349 -0.2865 -0.0383  0.2602
  456MOL0     N60110   4.078   3.124   5.458 -0.6516 -0.4148  0.3914
  456MOL0     N60111   4.015   3.065   5.369 -0.0545  0.0530  0.3714
  456MOL0     C60112   3.321   2.761   4.358 -0.6247  0.7006  0.1135
  456MOL0     C60113   3.193   2.707   4.338  0.2924 -0.3726  1.4548
  456MOL0     C60114   2.857   2.402   4.200 -0.0708  0.0645  0.1562
  456MOL0     C60115   2.837   2.294   4.110  0.1137 -0.1188  0.4927
  456MOL0     C60116   2.701   2.269   4.068  0.0374 -0.3530 -0.8228
  456MOL0     C60117   2.595   2.335   4.118 -0.0393 -0.2350  0.3614
  456MOL0     O60118   2.465   2.286   4.100  0.3885  0.7266 -0.3736
  456MOL0     C60119   2.363   2.383   4.123 -0.0720  1.1896  0.1399
  456MOL0     C60120   2.223   2.315   4.111 -0.7653  0.0391  0.1767
  456MOL0     C60121   2.112   2.415   4.148  0.1179 -0.1655  0.0692
  456MOL0     C60122   1.971   2.358   4.135  1.0992  0.1168  0.0141
  456MOL0     C60123   1.884   2.450   4.203  0.5391  0.4021 -0.2802
  456MOL0     C60124   1.807   2.532   4.247 -0.8410 -0.0970  0.0267
  456MOL0     C60125   2.627   2.444   4.201  0.4603 -1.3558 -0.0167
  456MOL0     C60126   2.755   2.481   4.241  0.0819  0.6499  0.1386
  456MOL0     H60127   3.266   2.375   4.362 -0.5818  0.1235  1.8236
  456MOL0     H60128   3.493   2.464   4.386  0.8211 -0.1992  1.8397
  456MOL0     H60129   3.493   2.812   4.573 -0.4468 -2.2017 -1.1378
  456MOL0     H60130   3.531   2.914   4.449 -1.7419 -1.6002  0.0021
  456MOL0     H60131   3.755   2.897   4.482 -0.1847 -0.1722  0.7321
  456MOL0     H60132   3.754   2.745   4.566  1.1816 -0.0091 -1.7559
  456MOL0     H60133   3.652   2.856   4.765  0.7993 -0.8734  0.3682
  456MOL0     H60134   3.642   3.013   4.678 -2.2870 -1.2729 -0.4993
  456MOL0     H60135   3.902   2.870   4.729  1.2290  0.7126 -2.4405
  456MOL0     H60136   3.891   3.016   4.634 -0.3386 -0.8637 -1.5296
  456MOL0     H60137   3.814   3.140   4.829 -0.3099 -0.5672  1.4844
  456MOL0     H60138   3.974   3.073   4.835  0.3216 -1.0830 -2.6668
  456MOL0     H60139   3.877   2.889   4.980  2.7290  2.2553  1.9355
  456MOL0     H60140   3.714   2.983   4.963 -1.2179 -0.8851  0.0934
  456MOL0     H60141   3.785   3.150   5.098 -2.8093 -1.8560  2.0001
  456MOL0     H60142   3.811   2.997   5.179  0.4992  0.3612  1.8630
  456MOL0     H60143   4.011   3.178   5.047 -0.7259 -2.7091 -1.4076
  456MOL0     H60144   4.060   3.009   5.095  0.7520  0.4659  1.1469
  456MOL0     H60145   4.150   3.330   5.221  2.1852 -1.5073  0.2326
  456MOL0     H60146   4.208   3.306   5.598 -2.3345  1.9788 -0.0224
  456MOL0     H60147   4.180   3.427   5.465 -1.3696 -0.7633 -0.9474
  456MOL0     H60148   4.399   3.216   5.437  2.3912 -0.0860 -0.4507
  456MOL0     H60149   4.434   3.364   5.536 -1.6724  1.3904  1.1117
  456MOL0     H60150   4.364   3.346   5.250 -2.6417 -0.7782  1.8061
  456MOL0     H60151   4.352   3.498   5.334  0.5753  0.4069  3.0047
  456MOL0     H60152   4.583   3.453   5.208 -0.3645 -1.7139  0.2610
  456MOL0     H60153   4.619   3.334   5.318  7.7591  3.5963 -0.2418
  456MOL0     H60154   4.634   3.786   5.405 -1.7003 -1.1919 -0.8722
  456MOL0     H60155   4.831   3.919   5.334 -3.5418 -0.2741 -1.8483
  456MOL0     H60156   5.348   3.943   5.285 -1.0530  0.5842  1.7108
  456MOL0     H60157   5.484   4.146   5.219 -0.0170  3.1116 -1.5686
  456MOL0     H60158   5.336   4.510   5.278  2.7758 -1.5997  0.0856
  456MOL0     H60159   5.277   4.523   5.104  2.4883 -3.1164 -3.2264
  456MOL0     H60160   5.420   4.711   5.156 -4.0068 -2.8519  1.2021
  456MOL0     H60161   5.472   4.600   5.014  0.0396  0.0781  0.0275
  456MOL0     H60162   5.647   4.700   5.149 -3.0781  1.0551 -1.3773
  456MOL0     H60163   5.647   4.520   5.178  2.6382  1.5772 -3.2388
  456MOL0     H60164   5.528   4.720   5.377  1.5131 -0.2646  2.6430
  456MOL0     H60165   5.529   4.554   5.390 -0.3004 -1.0881 -2.8906
  456MOL0     H60166   5.766   4.545   5.355 -4.4657 -1.2296 -4.3218
  456MOL0     H60167   5.710   4.625   5.515 -1.1625  0.6072  0.0481
  456MOL0     H60168   5.806   4.769   5.259  0.9133 -3.9810 -0.1873
  456MOL0     H60169   5.899   4.742   5.411  0.1833 -1.9373 -1.6477
  456MOL0     H60170   5.660   4.927   5.385 -0.6456 -0.6378  1.3835
  456MOL0     H60171   5.720   4.870   5.544 -0.8012  2.8499  0.5808
  456MOL0     H60172   5.934   4.968   5.475  0.3893 -1.2670 -1.0029
  456MOL0     H60173   5.807   5.088   5.489 -1.0072 -2.7497  2.3896
  456MOL0     H60174   5.121   4.350   5.138 -1.8985 -1.5997  2.1784
  456MOL0     H60175   4.992   4.184   5.221 -0.4327  0.1091 -0.4012
  456MOL0     H60176   5.040   3.540   5.294  1.7862  1.5833 -0.4709
  456MOL0     H60177   4.855   3.426   5.356 -0.2897  0.0638  2.6783
  456MOL0     H60178   3.346   2.866   4.356  0.5553  0.4295 -0.0984
  456MOL0     H60179   3.112   2.772   4.305  0.5005 -1.7457 -2.1510
  456MOL0     H60180   2.919   2.233   4.076 -1.1189 -0.9787 -1.0615
  456MOL0     H60181   2.680   2.186   4.001 -0.7773 -0.3516 -0.5777
  456MOL0     H60182   2.378   2.462   4.050  1.0232 -1.0964 -2.2721
  456MOL0     H60183   2.383   2.417   4.225  3.0838  3.5430 -1.0869
  456MOL0     H60184   2.203   2.284   4.008 -0.6875 -1.1969  0.5162
  456MOL0     H60185   2.215   2.224   4.170 -2.8684  0.6282  0.8638
  456MOL0     H60186   2.126   2.513   4.101  1.0531  1.1891  2.9204
  456MOL0     H60187   2.134   2.417   4.255  0.8816 -3.1257  0.0373
  456MOL0     H60188   1.946   2.356   4.029 -3.9168 -0.9984  0.9552
  456MOL0     H60189   1.985   2.261   4.182  1.0433 -0.4132 -1.0408
  456MOL0     H60190   1.760   2.616   4.294  0.0682 -0.3651  1.4862
  456MOL0     H60191   2.551   2.514   4.234 -0.3159 -1.1447 -2.0889
  456MOL0     H60192   2.758   2.556   4.320 -4.8232  1.1435  0.1681
  457MOL0     O60193   8.437   6.015  11.014 -1.1186  0.1300 -0.1086
  457MOL0     C60194   8.495   6.030  10.912 -0.2298 -0.2972 -0.4424
  457MOL0     O60195   8.457   5.971  10.794 -0.8974  0.7383 -0.2800
  457MOL0     C60196   8.354   5.876  10.788 -0.3153  0.3470 -0.9145
  457MOL0     C60197   8.392   5.754  10.731  0.2731  0.6494 -1.1122
  457MOL0     C60198   8.303   5.643  10.713  0.6822  0.9896 -0.1997
  457MOL0     C60199   8.161   5.677  10.741 -0.1401 -0.8022 -0.4976
  457MOL0     O60200   8.052   5.591  10.738 -0.0485 -0.4019 -0.0606
  457MOL0     C60201   8.069   5.446  10.729 -0.8220  0.1950 -0.6702
  457MOL0     C60202   7.980   5.385  10.837 -1.0451  0.3368 -0.9925
  457MOL0     C60203   7.851   5.327  10.789 -0.3948  0.4072 -0.2268
  457MOL0     C60204   7.767   5.428  10.692  1.0209  0.0433 -0.8978
  457MOL0     C60205   7.686   5.343  10.592  0.5570 -0.6991  0.2224
  457MOL0     C60206   7.756   5.290  10.466 -0.2731 -0.2135  0.3643
  457MOL0     C60207   7.665   5.243  10.358  0.4757 -0.3568  0.1316
  457MOL0     C60208   7.543   5.157  10.396 -0.4208  0.1762 -0.3120
  457MOL0     N60209   7.448   5.130  10.289  0.0740  0.2688 -0.3844
  457MOL0     C60210   7.478   5.084  10.169  1.0370  0.5901  0.0563
  457MOL0     C60211   7.356   5.059  10.116 -0.1636 -1.0072  0.9222
  457MOL0     C60212   7.330   5.003   9.976  0.2167 -0.4938 -0.1865
  457MOL0     C60213   7.277   4.866   9.961  0.1822 -0.1032  0.0361
  457MOL0     C60214   7.247   4.812   9.818 -0.3391  0.2208  1.3389
  457MOL0     C60215   7.192   4.662   9.823 -0.4811 -1.2445 -0.5634
  457MOL0     O60216   7.049   4.657   9.831  0.2088  0.0924  0.1758
  457MOL0     C60217   6.985   4.650   9.710  0.4271 -0.3652 -0.1728
  457MOL0     C60218   7.036   4.714   9.595  0.5250 -0.2016 -0.6159
  457MOL0     C60219   6.975   4.708   9.475 -0.3596  1.1582  0.4774
  457MOL0     C60220   6.857   4.636   9.454  0.0270 -0.0643 -0.0474
  457MOL0     C60221   6.780   4.639   9.331 -0.9871  0.7487  0.5026
  457MOL0     O60222   6.665   4.567   9.328  1.4191  0.1182 -0.2443
  457MOL0     C60223   6.604   4.559   9.210  0.8221  0.5176  0.7351
  457MOL0     C60224   6.566   4.441   9.154 -0.2768  0.3782 -0.5346
  457MOL0     C60225   6.495   4.431   9.026 -0.0706 -0.5000 -0.3556
  457MOL0     C60226   6.448   4.550   8.969 -0.0538 -1.0911 -0.8443
  457MOL0     O60227   6.369   4.553   8.858  0.5651  0.5227  0.6500
  457MOL0     C60228   6.336   4.431   8.792  0.0707 -0.0884 -0.4937
  457MOL0     C60229   6.240   4.462   8.678  0.4286 -0.6853 -0.4086
  457MOL0     C60230   6.218   4.343   8.578  1.0838  0.4272  0.1932
  457MOL0     C60231   6.148   4.232   8.636 -0.6347 -0.4348  0.7040
  457MOL0     C60232   6.117   4.115   8.539  0.0625 -0.0009  0.0079
  457MOL0     C60233   6.053   3.997   8.613  0.7264 -0.7125  0.2095
  457MOL0     C60234   6.170   3.936   8.691 -0.9243  0.0141 -0.1987
  457MOL0     C60235   6.138   3.800   8.741  0.5271 -0.0165 -0.1078
  457MOL0    Cl60236   6.265   3.739   8.857 -0.3009  0.0655  0.1278
  457MOL0     C60237   6.481   4.677   9.027 -0.8776  0.5963 -1.0533
  457MOL0     C60238   6.559   4.673   9.142 -0.4823 -0.4630 -0.7110
  457MOL0     O60239   6.835   4.704   9.243  0.2054 -0.4634  0.6382
  457MOL0     C60240   6.798   4.565   9.561  0.1373 -0.0498  0.4270
  457MOL0     C60241   6.863   4.580   9.689 -0.0062  0.9057  0.4173
  457MOL0     N60242   7.251   5.088  10.205  0.0789 -0.8534  0.4356
  457MOL0     N60243   7.313   5.137  10.307 -0.5278 -0.4147 -0.0146
  457MOL0     C60244   8.125   5.812  10.783  0.2465  0.2922  0.2001
  457MOL0     C60245   8.220   5.900  10.812 -1.2556  0.5764 -1.1553
  457MOL0     C60246   8.619   6.115  10.919  0.7485  0.8286  0.7813
  457MOL0     C60247   8.642   6.213  11.013 -0.1273 -0.1596 -0.8681
  457MOL0     C60248   8.764   6.280  11.017 -0.0594 -0.8208 -0.5572
  457MOL0     C60249   8.874   6.241  10.939  0.7239 -1.8937  1.0381
  457MOL0     O60250   8.999   6.298  10.938 -0.3383  0.9418  0.1069
  457MOL0     C60251   9.022   6.389  11.047 -0.5098  0.4050 -0.0451
  457MOL0     C60252   9.168   6.440  11.052  0.0954 -0.0742  0.4210
  457MOL0     C60253   9.263   6.335  11.111  0.2770  0.5551 -0.0167
  457MOL0     C60254   9.404   6.380  11.134 -0.0633 -0.7365 -0.0048
  457MOL0     C60255   9.473   6.385  11.002 -0.3224 -1.3322 -1.2840
  457MOL0     C60256   9.546   6.374  10.909  0.0411  0.9402 -0.0760
  457MOL0     C60257   8.847   6.146  10.844  0.2451 -0.5987  0.3913
  457MOL0     C60258   8.717   6.082  10.822  0.3883  0.0386 -0.2676
  457MOL0     H60259   8.498   5.735  10.719  0.7988  1.6430  1.3683
  457MOL0     H60260   8.342   5.543  10.693  2.1385  1.1312  1.6106
  457MOL0     H60261   8.168   5.424  10.768 -1.4168  0.7257  1.2677
  457MOL0     H60262   8.064   5.398  10.631  1.1459 -2.4833  0.4334
  457MOL0     H60263   7.968   5.465  10.911 -0.1238 -0.7394  0.4014
  457MOL0     H60264   8.042   5.310  10.887  0.4197  2.2055  0.1598
  457MOL0     H60265   7.792   5.298  10.876  0.8107  0.4071  0.6200
  457MOL0     H60266   7.874   5.232  10.742  2.3087  1.3030 -0.9300
  457MOL0     H60267   7.704   5.486  10.759  0.2290 -1.3271 -0.4244
  457MOL0     H60268   7.818   5.501  10.628  1.5313  0.7974  0.3497
  457MOL0     H60269   7.615   5.418  10.556 -1.0586 -2.2333  0.0870
  457MOL0     H60270   7.632   5.263  10.644  0.6725 -1.2995 -0.5630
  457MOL0     H60271   7.831   5.218  10.499  0.0522  0.0236  0.1536
  457MOL0     H60272   7.825   5.370  10.436 -0.4491  0.5557  1.8944
  457MOL0     H60273   7.637   5.329  10.297  1.9286  1.0472  1.3498
  457MOL0     H60274   7.728   5.184  10.290 -0.0149 -3.4236  2.1367
  457MOL0     H60275   7.503   5.193  10.491  2.2855  2.6741  0.0292
  457MOL0     H60276   7.590   5.063  10.428  1.7139  1.1876 -0.2989
  457MOL0     H60277   7.576   5.064  10.129  1.1885 -3.0703  1.8542
  457MOL0     H60278   7.432   5.000   9.935 -0.7105  0.0593 -2.6811
  457MOL0     H60279   7.266   5.074   9.924 -0.3049  0.8288  2.1158
  457MOL0     H60280   7.180   4.870  10.010 -0.1975 -2.6006 -0.3555
  457MOL0     H60281   7.321   4.788  10.024 -4.5507 -3.9642 -0.8353
  457MOL0     H60282   7.176   4.880   9.769  1.8521  0.6440 -1.5263
  457MOL0     H60283   7.341   4.799   9.764 -1.8520 -1.8140 -1.0068
  457MOL0     H60284   7.230   4.633   9.921 -0.6060  4.5506  1.6410
  457MOL0     H60285   7.245   4.605   9.747  1.9895  0.8252 -0.5531
  457MOL0     H60286   7.131   4.767   9.594  0.6163 -0.2902  0.8009
  457MOL0     H60287   7.025   4.751   9.389 -1.0737  1.9726  0.4508
  457MOL0     H60288   6.592   4.352   9.211  0.1265  1.7542  1.5638
  457MOL0     H60289   6.466   4.333   8.990  2.6269 -1.4037 -0.2951
  457MOL0     H60290   6.277   4.359   8.850 -0.1684 -0.1620 -0.8256
  457MOL0     H60291   6.424   4.377   8.757  0.4196 -0.8403  1.4210
  457MOL0     H60292   6.278   4.550   8.624  1.3744  0.0949  1.4232
  457MOL0     H60293   6.151   4.489   8.736 -0.2816 -2.8314 -0.4196
  457MOL0     H60294   6.312   4.317   8.529 -0.6326 -0.0845 -3.1181
  457MOL0     H60295   6.157   4.377   8.494  0.2037 -0.0928  0.6162
  457MOL0     H60296   6.215   4.197   8.715  0.0807 -0.3237  0.1593
  457MOL0     H60297   6.051   4.264   8.675 -2.1346  0.7604 -3.5108
  457MOL0     H60298   6.207   4.095   8.481 -2.1355 -1.3999 -3.1941
  457MOL0     H60299   6.040   4.148   8.468 -0.2844 -0.5667  0.1160
  457MOL0     H60300   6.007   3.937   8.534 -1.0778  0.7231  0.0890
  457MOL0     H60301   5.975   4.008   8.690 -0.4429 -2.0453 -0.7549
  457MOL0     H60302   6.254   3.926   8.621  0.0095 -2.3801  1.1317
  457MOL0     H60303   6.204   3.994   8.777  2.7555 -1.3237 -0.5778
  457MOL0     H60304   6.119   3.727   8.662  0.0207  0.1469 -0.1423
  457MOL0     H60305   6.045   3.814   8.797 -0.8774 -1.5013 -1.9127
  457MOL0     H60306   6.429   4.768   9.000  0.9758  2.2450  0.6285
  457MOL0     H60307   6.583   4.771   9.182 -2.8702 -0.0578 -0.1121
  457MOL0     H60308   6.703   4.514   9.550  0.0054  0.4131 -0.8232
  457MOL0     H60309   6.821   4.541   9.782  1.9121  3.0134  2.2830
  457MOL0     H60310   8.020   5.840  10.789  0.8529  3.4425 -1.8244
  457MOL0     H60311   8.186   5.987  10.867 -0.4995 -0.7320  1.5887
  457MOL0     H60312   8.563   6.235  11.085 -0.7807 -1.4725 -1.1547
  457MOL0     H60313   8.777   6.362  11.088  2.9220  0.0680 -1.9401
  457MOL0     H60314   8.973   6.352  11.137 -1.0548  2.2671  0.4547
  457MOL0     H60315   8.966   6.479  11.019 -0.7531  0.0084 -0.8756
  457MOL0     H60316   9.206   6.464  10.952  0.1229  0.5438  0.5752
  457MOL0     H60317   9.171   6.535  11.106  0.9431  1.0725 -1.5163
  457MOL0     H60318   9.254   6.235  11.067 -1.3785 -0.9806  3.4306
  457MOL0     H60319   9.222   6.315  11.210 -1.8454  0.3586 -0.8978
  457MOL0     H60320   9.408   6.481  11.177  1.8695 -1.5188  1.8569
  457MOL0     H60321   9.459   6.328  11.213  0.7427  3.4297  2.4725
  457MOL0     H60322   9.622   6.369  10.833 -1.0109  0.9758 -1.1518
  457MOL0     H60323   8.938   6.120  10.791  1.2225 -0.4523  1.9426
  457MOL0     H60324   8.710   5.991  10.763  0.4312  1.2193 -2.1775
  458MOL0     O60325   5.512   4.018   5.710 -0.4709 -0.8133  0.0461
  458MOL0     C60326   5.510   3.959   5.598 -0.3610 -0.0901 -0.0036
  458MOL0     O60327   5.433   3.852   5.570  1.4225  0.0874 -0.0012
  458MOL0     C60328   5.336   3.817   5.664 -1.0600 -0.0326 -1.1388
  458MOL0     C60329   5.362   3.771   5.798  0.0222 -0.7032  0.8486
  458MOL0     C60330   5.268   3.698   5.872  1.0666  0.5614 -0.1898
  458MOL0     C60331   5.148   3.669   5.817  0.1694  0.5050  0.5958
  458MOL0     O60332   5.066   3.596   5.904 -0.1487 -0.3062 -0.2687
  458MOL0     C60333   4.927   3.620   5.912  0.2547 -0.1748  0.2672
  458MOL0     C60334   4.875   3.623   6.062  0.5286  0.2239  1.0136
  458MOL0     C60335   4.793   3.499   6.094  2.1984  0.1086 -0.2483
  458MOL0     C60336   4.882   3.385   6.113  0.9722  0.2855  0.0425
  458MOL0     C60337   4.893   3.294   5.987  0.4850 -0.3684  0.2496
  458MOL0     C60338   4.996   3.183   6.014 -0.7673 -1.0428  0.4780
  458MOL0     C60339   4.995   3.087   5.890 -0.5263 -0.5304 -0.3920
  458MOL0     C60340   5.101   2.967   5.899  0.8565 -0.4090  0.8530
  458MOL0     N60341   5.049   2.833   5.922  0.5113 -0.0345 -0.4789
  458MOL0     C60342   4.948   2.814   6.010  1.1584  0.1562  0.8246
  458MOL0     C60343   4.930   2.683   6.005  0.1036  0.5118  0.6896
  458MOL0     C60344   4.829   2.621   6.094 -0.0265  0.9430  0.0465
  458MOL0     C60345   4.720   2.557   6.012  0.4178 -0.5976 -0.1199
  458MOL0     C60346   4.649   2.668   5.930  0.0164 -0.4947  0.2368
  458MOL0     C60347   4.516   2.622   5.862 -0.0466 -0.4559 -0.0894
  458MOL0     O60348   4.423   2.618   5.965 -0.3500 -0.4216  0.0991
  458MOL0     C60349   4.298   2.579   5.937 -0.0463  0.7154 -0.2014
  458MOL0     C60350   4.267   2.451   5.885  0.2220 -0.5365  1.0504
  458MOL0     C60351   4.128   2.415   5.854  0.1678  0.0365 -0.1118
  458MOL0     C60352   4.025   2.509   5.872  0.3486  0.4122 -0.5421
  458MOL0     C60353   3.892   2.478   5.826 -0.7011  0.6918  0.7628
  458MOL0     O60354   3.790   2.566   5.848  0.5688 -0.5408  1.4360
  458MOL0     C60355   3.661   2.549   5.784 -0.6144  0.1411  0.1258
  458MOL0     C60356   3.595   2.657   5.714  0.3226 -0.2483 -0.8452
  458MOL0     C60357   3.462   2.644   5.679  0.2505  0.2318  0.5472
  458MOL0     C60358   3.392   2.521   5.698 -0.3276  0.0582 -0.0890
  458MOL0     O60359   3.261   2.514   5.656 -0.3055  0.2031 -0.4636
  458MOL0     C60360   3.166   2.501   5.763 -0.3911 -0.8583  0.3596
  458MOL0     C60361   3.087   2.378   5.766  0.0190  0.7920 -0.6054
  458MOL0     C60362   3.020   2.346   5.635  0.0246 -0.5859 -0.0084
  458MOL0     C60363   2.935   2.225   5.646  0.0660 -0.1652 -0.2251
  458MOL0     C60364   2.792   2.257   5.683  1.4665  0.1486 -0.9389
  458MOL0     C60365   2.697   2.299   5.565  0.2501 -0.2237 -0.3748
  458MOL0     C60366   2.573   2.210   5.569  0.1829  0.1391 -0.3632
  458MOL0     C60367   2.481   2.244   5.450 -0.1949 -0.9305  0.7183
  458MOL0    Cl60368   2.319   2.170   5.490  0.1127 -0.5977  0.1470
  458MOL0     C60369   3.460   2.410   5.745 -1.1693 -0.7194 -0.2522
  458MOL0     C60370   3.589   2.427   5.788  0.3033 -0.3281 -0.2944
  458MOL0     O60371   3.877   2.359   5.780 -0.2898  0.5174 -0.1670
  458MOL0     C60372   4.065   2.632   5.922 -0.7076 -0.0156  0.2284
  458MOL0     C60373   4.195   2.667   5.959  0.2179  0.4093 -0.7927
  458MOL0     N60374   5.018   2.618   5.912  0.2587 -0.6494  0.5183
  458MOL0     N60375   5.087   2.720   5.867  0.0893  0.2969 -0.0475
  458MOL0     C60376   5.114   3.710   5.687  0.0449 -1.2117  0.2084
  458MOL0     C60377   5.210   3.785   5.616  0.2654  0.1186 -0.3589
  458MOL0     C60378   5.607   4.007   5.499 -0.2615  0.9954  1.2106
  458MOL0     C60379   5.654   4.141   5.493  0.1379 -0.1760  0.5328
  458MOL0     C60380   5.727   4.189   5.387 -0.1356  0.6011 -0.2205
  458MOL0     C60381   5.773   4.095   5.296  0.0728 -0.0426 -0.0138
  458MOL0     O60382   5.843   4.143   5.190  0.2060  0.1571  0.3806
  458MOL0     C60383   5.873   4.064   5.073 -0.0166 -0.2272  0.1777
  458MOL0     C60384   5.756   4.045   4.981  0.1167  0.6826  0.7661
  458MOL0     C60385   5.812   3.981   4.852 -0.7115  0.4133 -0.3342
  458MOL0     C60386   5.794   3.827   4.861 -0.4492 -1.0183  0.7183
  458MOL0     C60387   5.881   3.763   4.758  0.4145  0.2352 -0.2427
  458MOL0     C60388   5.940   3.685   4.688 -0.1841 -0.0299  0.1357
  458MOL0     C60389   5.734   3.962   5.300 -0.0399  0.7964  0.5558
  458MOL0     C60390   5.653   3.922   5.399  0.5487  1.0545 -0.6119
  458MOL0     H60391   5.462   3.778   5.840 -0.9416  0.2443  3.1854
  458MOL0     H60392   5.289   3.656   5.970 -3.6546  0.2452  0.9495
  458MOL0     H60393   4.878   3.551   5.843  1.8679  0.2145 -1.3272
  458MOL0     H60394   4.912   3.723   5.876  0.8095  0.4510  1.7270
  458MOL0     H60395   4.800   3.702   6.075  1.9925  2.0896 -1.0442
  458MOL0     H60396   4.944   3.644   6.144 -0.3162  2.5050  1.2217
  458MOL0     H60397   4.710   3.481   6.026 -1.0109  0.5064  3.2142
  458MOL0     H60398   4.746   3.510   6.192  1.1490 -0.6496 -0.6482
  458MOL0     H60399   4.982   3.420   6.142  1.7387 -1.2281 -0.6853
  458MOL0     H60400   4.833   3.317   6.183  0.5840 -0.7136 -1.1708
  458MOL0     H60401   4.925   3.342   5.894 -0.6256 -1.6563 -0.8344
  458MOL0     H60402   4.795   3.248   5.973 -0.7078  2.1666 -0.3085
  458MOL0     H60403   4.967   3.125   6.102  0.8328  1.1066  2.5631
  458MOL0     H60404   5.097   3.222   6.031 -0.6286 -0.6748 -1.0376
  458MOL0     H60405   4.894   3.048   5.877  0.2472 -2.0455 -2.3046
  458MOL0     H60406   5.022   3.149   5.804 -4.2668 -0.1188 -1.4731
  458MOL0     H60407   5.174   2.992   5.977  0.5612 -0.1123  1.0356
  458MOL0     H60408   5.160   2.977   5.808  0.8345  1.5873  1.0177
  458MOL0     H60409   4.899   2.880   6.081 -1.1507 -0.4157 -0.1443
  458MOL0     H60410   4.793   2.694   6.166 -0.3929 -0.0930  0.9419
  458MOL0     H60411   4.877   2.541   6.151  0.5932  0.8933 -0.5211
  458MOL0     H60412   4.640   2.509   6.069 -0.9952  1.5169 -0.2019
  458MOL0     H60413   4.764   2.483   5.945 -2.3543 -1.1843 -1.4484
  458MOL0     H60414   4.630   2.754   5.995  1.4081 -0.9575  1.2941
  458MOL0     H60415   4.708   2.709   5.848  0.1252  0.0187  0.5642
  458MOL0     H60416   4.528   2.528   5.807 -2.2096 -1.0866  0.4290
  458MOL0     H60417   4.490   2.705   5.796 -2.9170  0.0226  1.4827
  458MOL0     H60418   4.352   2.387   5.866  1.2676  1.8138 -3.7347
  458MOL0     H60419   4.104   2.320   5.809  0.0375 -0.0906  0.2232
  458MOL0     H60420   3.651   2.746   5.688  3.0573 -2.4077 -3.0336
  458MOL0     H60421   3.412   2.723   5.624  1.0074 -0.6739 -1.5232
  458MOL0     H60422   3.103   2.586   5.738  2.0215  1.5509  1.9519
  458MOL0     H60423   3.215   2.521   5.859  0.5982  0.2348 -0.3459
  458MOL0     H60424   3.007   2.390   5.840 -0.0090  0.4288 -0.5753
  458MOL0     H60425   3.153   2.299   5.802 -2.4735 -2.1325 -1.9422
  458MOL0     H60426   3.095   2.319   5.560 -0.1065 -0.3943 -0.2094
  458MOL0     H60427   2.973   2.439   5.604  0.2036  0.1104  1.6996
  458MOL0     H60428   2.936   2.187   5.543  0.1650 -0.2273 -0.2014
  458MOL0     H60429   2.976   2.148   5.712  0.0238 -0.4353 -0.5110
  458MOL0     H60430   2.777   2.340   5.753  0.1944 -2.0859  1.6096
  458MOL0     H60431   2.752   2.167   5.731  3.6768  0.6246  2.1324
  458MOL0     H60432   2.747   2.285   5.469  0.8466  1.5871 -0.3506
  458MOL0     H60433   2.681   2.406   5.576 -0.0324 -0.2723 -0.3056
  458MOL0     H60434   2.590   2.102   5.562 -0.0109  0.1365 -0.8252
  458MOL0     H60435   2.520   2.241   5.660 -1.4362  3.5322 -2.2656
  458MOL0     H60436   2.516   2.212   5.352 -0.3072  1.0283 -0.0183
  458MOL0     H60437   2.465   2.352   5.434  1.3076 -0.3940  2.4557
  458MOL0     H60438   3.419   2.310   5.738 -0.5507 -1.1284  1.4402
  458MOL0     H60439   3.634   2.353   5.854  2.1537  1.8365  1.0116
  458MOL0     H60440   3.996   2.713   5.941  0.6574  0.7383  2.3590
  458MOL0     H60441   4.223   2.764   5.998  2.3787 -0.3657 -0.2218
  458MOL0     H60442   5.016   3.708   5.640  0.8570 -1.3770 -1.5637
  458MOL0     H60443   5.205   3.814   5.511 -0.4039  3.9314  0.5712
  458MOL0     H60444   5.608   4.222   5.548 -0.4355  1.6852 -2.4805
  458MOL0     H60445   5.742   4.295   5.371  1.9515  0.0404 -2.5434
  458MOL0     H60446   5.926   3.973   5.102  2.3162  0.0132 -2.8409
  458MOL0     H60447   5.945   4.118   5.011  0.9954 -0.7873  0.8560
  458MOL0     H60448   5.680   3.976   5.018 -0.8216 -0.1321 -2.3507
  458MOL0     H60449   5.708   4.140   4.956 -1.7261 -0.1480  0.9854
  458MOL0     H60450   5.914   4.016   4.830 -0.0766 -1.2612 -0.2178
  458MOL0     H60451   5.755   4.007   4.762  1.2199 -1.5120 -2.2658
  458MOL0     H60452   5.828   3.787   4.957  2.1697 -3.3093 -1.0197
  458MOL0     H60453   5.687   3.808   4.847 -0.2182 -1.3337 -0.6881
  458MOL0     H60454   6.005   3.629   4.623 -1.6776 -0.4933 -1.0229
  458MOL0     H60455   5.765   3.890   5.225 -0.2509 -0.4900  1.6668
  458MOL0     H60456   5.616   3.821   5.390 -2.9494  2.2256 -1.0375
  459MOL0     O60457   2.386   7.041  10.945 -0.2555 -0.3232 -0.2380
  459MOL0     C60458   2.289   7.065  10.879  1.2406 -0.5283  0.6238
  459MOL0     O60459   2.164   7.036  10.924 -0.2317 -0.3511  0.6646
  459MOL0     C60460   2.158   6.957  11.038  1.1214 -0.2670 -0.4261
  459MOL0     C60461   2.209   6.832  11.060 -0.2076 -0.0535 -0.2462
  459MOL0     C60462   2.181   6.762  11.175 -0.1089  0.6567 -0.5187
  459MOL0     C60463   2.103   6.814  11.282 -0.4815 -0.4853  0.0208
  459MOL0     O60464   2.088   6.744  11.401  0.4669  0.1055 -0.3361
  459MOL0     C60465   2.141   6.620  11.412  0.9936 -0.2303 -0.5276
  459MOL0     C60466   2.152   6.588  11.562  0.7388 -0.1366  0.3441
  459MOL0     C60467   2.151   6.442  11.592 -0.3954  0.0093 -0.4641
  459MOL0     C60468   2.101   6.401  11.734  0.7572  0.4190 -0.0730
  459MOL0     C60469   2.049   6.259  11.714  0.9450 -0.1565  0.2262
  459MOL0     C60470   2.005   6.211  11.845  0.3212 -0.6458 -0.3548
  459MOL0     C60471   1.938   6.077  11.839  0.5258 -0.1462  0.2947
  459MOL0     C60472   1.921   6.023  11.977 -0.6609  0.6205 -0.1468
  459MOL0     N60473   1.822   5.910  11.972 -0.0085 -0.2764 -0.1807
  459MOL0     C60474   1.685   5.934  11.981  0.4794 -0.3561  0.0303
  459MOL0     C60475   1.619   5.820  12.012 -0.4697  0.2968 -0.5172
  459MOL0     C60476   1.469   5.810  12.042 -0.2707  0.1553 -0.9354
  459MOL0     C60477   1.404   5.727  11.937  0.1003  0.6564  0.0789
  459MOL0     C60478   1.451   5.581  11.938  0.3464  0.1201  0.1714
  459MOL0     C60479   1.337   5.477  11.922  0.1785 -0.4867  0.2248
  459MOL0     O60480   1.242   5.465  12.023 -1.0673  0.1864  0.1182
  459MOL0     C60481   1.118   5.400  11.996 -0.3985  0.0981 -0.0683
  459MOL0     C60482   1.058   5.356  12.111 -0.3554 -0.3324 -0.1420
  459MOL0     C60483   0.938   5.290  12.102 -0.9066 -0.0192 -0.3908
  459MOL0     C60484   0.862   5.282  11.985  0.4625 -0.3584 -0.6930
  459MOL0     C60485   0.723   5.224  11.983  0.0177  0.6983 -0.1558
  459MOL0     O60486   0.683   5.207  12.112  0.3255 -0.4076  0.7377
  459MOL0     C60487   0.549   5.173  12.114 -0.1276 -0.2532  0.5020
  459MOL0     C60488   0.452   5.278  12.143  0.4382 -0.5084  0.2474
  459MOL0     C60489   0.319   5.240  12.147  0.0565 -0.1388  0.1301
  459MOL0     C60490   0.271   5.112  12.127 -0.8607  0.3218  0.1314
  459MOL0     O60491   0.138   5.092  12.157 -0.1822 -0.0028 -0.0706
  459MOL0     C60492   0.082   4.985  12.076  0.4985 -0.2140 -0.4961
  459MOL0     C60493  -0.076   4.990  12.093 -0.2107  0.7422  0.7093
  459MOL0     C60494  -0.114   4.953  12.232  0.6988  0.6688  0.0730
  459MOL0     C60495  -0.260   4.898  12.257  0.3023  0.2573  0.0400
  459MOL0     C60496  -0.287   4.871  12.414  0.0045 -0.3588  0.2981
  459MOL0     C60497  -0.430   4.866  12.431  0.1848  0.7732 -0.5861
  459MOL0     C60498  -0.472   4.819  12.572 -0.2743  0.1280  0.1548
  459MOL0     C60499  -0.496   4.668  12.579  0.5368 -0.3502  0.1433
  459MOL0    Cl60500  -0.626   4.651  12.713 -0.3097 -0.2703  0.5718
  459MOL0     C60501   0.364   5.014  12.096 -0.3275  0.4221 -0.3894
  459MOL0     C60502   0.498   5.042  12.099 -0.2446 -0.3873 -1.4494
  459MOL0     O60503   0.675   5.174  11.877 -0.5796  0.0278 -0.1752
  459MOL0     C60504   0.913   5.343  11.871  0.2343  0.4709  0.3205
  459MOL0     C60505   1.036   5.401  11.882  0.1499 -0.0948  0.7257
  459MOL0     N60506   1.721   5.727  12.019  1.2571  0.6675  0.0381
  459MOL0     N60507   1.837   5.778  11.992  0.9989 -0.1666 -0.2420
  459MOL0     C60508   2.044   6.942  11.267 -0.0153 -0.6154 -0.0086
  459MOL0     C60509   2.069   7.011  11.143  0.5562 -0.0104  0.7188
  459MOL0     C60510   2.287   7.110  10.740  0.5626 -1.6505 -0.6973
  459MOL0     C60511   2.407   7.160  10.691  0.7757  0.2200  0.5523
  459MOL0     C60512   2.411   7.196  10.559 -0.1342 -0.1444 -0.5261
  459MOL0     C60513   2.315   7.185  10.470 -0.3268 -0.6034  0.9991
  459MOL0     O60514   2.330   7.245  10.345 -0.0440  0.2612  0.1393
  459MOL0     C60515   2.224   7.290  10.266 -0.4719 -0.6370  1.7679
  459MOL0     C60516   2.278   7.408  10.188 -0.1887  1.0679 -0.0021
  459MOL0     C60517   2.167   7.491  10.118  0.2938  0.5295  1.0037
  459MOL0     C60518   2.155   7.445   9.973 -0.8201 -0.0906 -0.1702
  459MOL0     C60519   2.067   7.541   9.899  0.6306  0.4379 -0.9029
  459MOL0     C60520   1.981   7.610   9.843 -0.7674  0.9897 -0.7922
  459MOL0     C60521   2.190   7.145  10.520 -0.6975 -0.5517  1.0774
  459MOL0     C60522   2.177   7.108  10.656  0.4733  0.7046  0.8107
  459MOL0     H60523   2.263   6.777  10.984 -2.3504 -0.5226 -1.5305
  459MOL0     H60524   2.220   6.661  11.177  1.7873  1.2213 -3.2469
  459MOL0     H60525   2.245   6.623  11.378  0.6797 -0.0475 -1.5022
  459MOL0     H60526   2.081   6.553  11.350  1.0436 -1.1671  0.4079
  459MOL0     H60527   2.060   6.629  11.604  1.5647  0.6786  1.4263
  459MOL0     H60528   2.233   6.643  11.612  1.0089 -1.6991  1.7168
  459MOL0     H60529   2.254   6.409  11.572 -0.8357  0.2414 -3.5611
  459MOL0     H60530   2.087   6.393  11.518 -1.0924 -2.1222  1.4396
  459MOL0     H60531   2.182   6.407  11.807  1.1871 -1.7398 -0.3200
  459MOL0     H60532   2.021   6.464  11.773 -1.4763 -1.4839 -1.3269
  459MOL0     H60533   2.116   6.183  11.672 -1.5510 -3.5566  1.9183
  459MOL0     H60534   1.964   6.270  11.646 -0.5505 -0.3573  1.9787
  459MOL0     H60535   1.945   6.289  11.893 -0.6775 -1.7280  0.1896
  459MOL0     H60536   2.100   6.212  11.900  2.3285  2.7414 -3.4421
  459MOL0     H60537   1.847   6.074  11.778  0.3871 -0.2452  0.5032
  459MOL0     H60538   2.005   6.001  11.799  2.6317  0.1520  2.9658
  459MOL0     H60539   1.873   6.091  12.049 -1.6805 -0.4204  0.1815
  459MOL0     H60540   2.017   5.991  12.019 -0.6786 -0.2800 -0.7696
  459MOL0     H60541   1.641   6.033  11.973 -1.7707 -1.1019  2.0481
  459MOL0     H60542   1.427   5.910  12.049  0.8930  0.5692  1.0557
  459MOL0     H60543   1.444   5.758  12.135 -5.3509  0.8958 -1.6082
  459MOL0     H60544   1.429   5.783  11.847 -0.3858  0.2987 -0.2868
  459MOL0     H60545   1.295   5.729  11.949  0.0553 -0.7802  0.1252
  459MOL0     H60546   1.531   5.579  11.862 -1.7468 -1.1586 -2.1314
  459MOL0     H60547   1.494   5.566  12.038  1.3398  1.0316 -0.0914
  459MOL0     H60548   1.381   5.377  11.922 -2.4043 -1.7340  2.3976
  459MOL0     H60549   1.291   5.512  11.829  0.5797 -0.4645  0.0289
  459MOL0     H60550   1.105   5.366  12.208 -1.8138 -0.6914  0.6314
  459MOL0     H60551   0.898   5.248  12.194  1.8388  0.6853  1.2480
  459MOL0     H60552   0.479   5.382  12.153 -1.7710  0.1292  0.1114
  459MOL0     H60553   0.259   5.321  12.188 -1.5142 -1.4089  0.4115
  459MOL0     H60554   0.107   4.885  12.113 -1.1321 -0.8089 -0.8993
  459MOL0     H60555   0.114   4.993  11.972  1.9424 -0.8836 -0.1315
  459MOL0     H60556  -0.110   4.918  12.018  1.3837  0.7353 -0.0363
  459MOL0     H60557  -0.115   5.090  12.071 -2.6341 -0.2773 -0.0412
  459MOL0     H60558  -0.083   5.037  12.295 -0.4730  1.7017 -0.6954
  459MOL0     H60559  -0.054   4.866  12.262 -2.2778 -1.1169  1.3489
  459MOL0     H60560  -0.344   4.948  12.207  0.0486 -0.0700  0.1368
  459MOL0     H60561  -0.266   4.798  12.214  2.2982  0.1877 -0.1641
  459MOL0     H60562  -0.247   4.954  12.473 -1.1903  2.6047 -2.7044
  459MOL0     H60563  -0.240   4.780  12.453  0.7666  0.0884  0.4394
  459MOL0     H60564  -0.476   4.792  12.364 -1.6936 -0.5749  2.0125
  459MOL0     H60565  -0.474   4.965  12.418  2.9004  1.9129 -1.9035
  459MOL0     H60566  -0.393   4.850  12.641 -1.5148  3.3211  0.3079
  459MOL0     H60567  -0.561   4.877  12.600  1.1603  2.0541  0.8993
  459MOL0     H60568  -0.408   4.613  12.615  0.9646  0.5509  0.5010
  459MOL0     H60569  -0.524   4.632  12.480 -2.1354 -0.6300  0.9164
  459MOL0     H60570   0.328   4.914  12.077 -1.1095  0.9100 -1.6573
  459MOL0     H60571   0.573   4.964  12.098 -0.1687 -0.3539 -0.2153
  459MOL0     H60572   0.848   5.353  11.785 -3.7318 -0.8067  2.8735
  459MOL0     H60573   1.070   5.432  11.784 -1.6069 -0.9228 -0.2073
  459MOL0     H60574   1.976   6.992  11.335  0.7266  1.0234 -0.4246
  459MOL0     H60575   2.009   7.097  11.113 -0.8902 -1.0519  0.4884
  459MOL0     H60576   2.500   7.176  10.746  3.2027  3.7309 -3.8835
  459MOL0     H60577   2.510   7.236  10.538 -0.1853  1.1478  1.4370
  459MOL0     H60578   2.139   7.316  10.329  0.0887  1.4637  1.7342
  459MOL0     H60579   2.186   7.226  10.186  1.3882 -1.9423  1.8440
  459MOL0     H60580   2.325   7.472  10.263 -0.5397  0.3070  0.9062
  459MOL0     H60581   2.354   7.378  10.115  1.0055  0.4391  1.4276
  459MOL0     H60582   2.205   7.594  10.125  0.4282  0.6793 -1.2725
  459MOL0     H60583   2.071   7.482  10.169  0.7113 -1.6407  1.4804
  459MOL0     H60584   2.258   7.442   9.936  0.5016  3.3492  2.6388
  459MOL0     H60585   2.108   7.346   9.967 -1.2723  0.1592 -4.3634
  459MOL0     H60586   1.897   7.652   9.791 -2.7887 -1.0205  0.6906
  459MOL0     H60587   2.098   7.147  10.462  1.6045 -0.0284 -2.9014
  459MOL0     H60588   2.085   7.058  10.686  0.4987  0.1028 -0.0868
  460MOL0     O60589   7.362  10.336   5.596  0.0585 -1.3836  0.0465
  460MOL0     C60590   7.345  10.268   5.505  0.4907 -0.2522  0.3169
  460MOL0     O60591   7.378  10.299   5.376 -0.0652  0.0751  0.6843
  460MOL0     C60592   7.428  10.425   5.344  0.0096 -0.1130 -0.0205
  460MOL0     C60593   7.499  10.427   5.224  0.0279 -0.0930 -0.7159
  460MOL0     C60594   7.536  10.551   5.178  0.2264 -0.4577  0.0826
  460MOL0     C60595   7.507  10.673   5.241 -0.9569 -0.4102 -0.1595
  460MOL0     O60596   7.547  10.790   5.184  0.3198 -0.0598 -0.4552
  460MOL0     C60597   7.688  10.807   5.165  0.6351  0.3878 -0.1496
  460MOL0     C60598   7.702  10.942   5.105 -0.1152  0.2096  0.4913
  460MOL0     C60599   7.849  10.986   5.073  0.0899  0.4604 -0.7643
  460MOL0     C60600   7.861  11.130   5.023  0.6908  0.6465  0.0597
  460MOL0     C60601   7.921  11.234   5.116  0.1097  0.2449 -0.0724
  460MOL0     C60602   7.927  11.361   5.034  0.0734  0.0916  0.0587
  460MOL0     C60603   7.937  11.499   5.105 -0.0104 -0.4294 -0.0779
  460MOL0     C60604   7.806  11.581   5.123  0.6283  0.7675  1.1214
  460MOL0     N60605   7.694  11.497   5.176  0.3659 -0.5301  0.9132
  460MOL0     C60606   7.656  11.467   5.304 -0.3540  0.9462  0.3190
  460MOL0     C60607   7.544  11.389   5.303 -0.4149 -0.5832 -0.9976
  460MOL0     C60608   7.466  11.345   5.433  0.0738 -0.1443 -0.3690
  460MOL0     C60609   7.435  11.200   5.437 -0.8139 -0.8960  0.3775
  460MOL0     C60610   7.353  11.165   5.565 -0.1930  0.2096 -0.1016
  460MOL0     C60611   7.292  11.029   5.533 -0.5518  1.1385 -0.6875
  460MOL0     O60612   7.262  10.952   5.650  0.4303 -0.0102  0.6024
  460MOL0     C60613   7.199  10.837   5.641 -0.5092 -0.3990 -0.0787
  460MOL0     C60614   7.139  10.776   5.527 -0.0174  0.0434 -0.5609
  460MOL0     C60615   7.083  10.653   5.534  0.0088 -0.1416  0.1231
  460MOL0     C60616   7.094  10.570   5.653  0.0705  0.5507 -0.0445
  460MOL0     C60617   7.035  10.434   5.652 -0.0503  0.5694 -0.2962
  460MOL0     O60618   7.025  10.383   5.780 -0.1775 -0.3657  0.1862
  460MOL0     C60619   6.957  10.262   5.808 -1.0418 -0.1891  0.2016
  460MOL0     C60620   6.858  10.197   5.730  0.6037  0.5802 -0.0605
  460MOL0     C60621   6.801  10.077   5.785 -0.9664 -0.4588  0.5652
  460MOL0     C60622   6.835  10.018   5.915  0.6124 -0.5104  1.4766
  460MOL0     O60623   6.762   9.914   5.949  0.2629  0.2699 -0.6543
  460MOL0     C60624   6.762   9.867   6.084 -0.0907  0.5661  0.4441
  460MOL0     C60625   6.650   9.769   6.134 -0.4784 -0.2644  0.6242
  460MOL0     C60626   6.697   9.691   6.260 -0.2656 -0.3168  0.6707
  460MOL0     C60627   6.608   9.571   6.294  0.3498  0.2830  0.4256
  460MOL0     C60628   6.631   9.527   6.440 -0.0575  0.0287  0.3843
  460MOL0     C60629   6.757   9.437   6.462  0.2701 -0.2729 -0.0284
  460MOL0     C60630   6.756   9.346   6.589 -0.2920  0.0665 -0.6514
  460MOL0     C60631   6.627   9.302   6.654 -0.2050  0.3808  0.6563
  460MOL0    Cl60632   6.573   9.437   6.736 -0.7077  0.3052 -0.1473
  460MOL0     C60633   6.924  10.092   5.979 -0.1399 -0.4318 -0.7079
  460MOL0     C60634   6.991  10.213   5.935 -0.0301 -0.1211 -0.0681
  460MOL0     O60635   6.986  10.385   5.551 -0.9804  0.0019  0.2046
  460MOL0     C60636   7.147  10.629   5.769 -0.7734 -0.8546  0.5833
  460MOL0     C60637   7.202  10.758   5.763  0.3430  0.1982 -1.2591
  460MOL0     N60638   7.524  11.352   5.164 -0.3956 -0.6190 -0.2762
  460MOL0     N60639   7.604  11.423   5.097  0.2291 -0.5696 -0.5639
  460MOL0     C60640   7.434  10.669   5.356 -0.3740 -0.6074  0.4549
  460MOL0     C60641   7.396  10.553   5.415  0.6620  0.5576 -0.4799
  460MOL0     C60642   7.304  10.138   5.541  1.3819  0.2413  0.2992
  460MOL0     C60643   7.247  10.104   5.667 -1.2771 -0.8333 -0.2337
  460MOL0     C60644   7.217   9.973   5.712 -0.4844  0.3306  0.4793
  460MOL0     C60645   7.240   9.872   5.630  0.3337  0.0313 -0.4019
  460MOL0     O60646   7.218   9.738   5.648  0.7321 -0.5356  0.0765
  460MOL0     C60647   7.126   9.694   5.755  0.0556  0.1008  0.3609
  460MOL0     C60648   7.206   9.678   5.880 -0.0008  0.1787 -0.7190
  460MOL0     C60649   7.116   9.660   6.003 -0.1608 -0.1962  1.2192
  460MOL0     C60650   7.052   9.531   6.020  0.1646  0.2565  0.1351
  460MOL0     C60651   7.027   9.480   6.152 -0.5423  0.2340  0.3782
  460MOL0     C60652   7.001   9.422   6.256  0.1018 -0.4694 -0.4597
  460MOL0     C60653   7.285   9.895   5.497  0.2043 -1.0840 -0.1925
  460MOL0     C60654   7.313  10.030   5.457  0.0866 -0.5186  0.4310
  460MOL0     H60655   7.494  10.329   5.178 -0.6764 -1.5090  2.1322
  460MOL0     H60656   7.571  10.550   5.075  4.2871 -0.0384  1.3073
  460MOL0     H60657   7.729  10.734   5.095 -2.1368  0.2884 -1.8145
  460MOL0     H60658   7.747  10.800   5.257  1.6182 -2.1084 -0.8710
  460MOL0     H60659   7.668  11.013   5.181 -0.8445 -2.4364  2.8338
  460MOL0     H60660   7.643  10.947   5.013  1.1069  3.2921 -0.2285
  460MOL0     H60661   7.888  10.918   4.997  1.4785  0.0460  0.2687
  460MOL0     H60662   7.904  10.967   5.166  0.4601 -4.5342 -1.7576
  460MOL0     H60663   7.930  11.131   4.938  0.9324  3.5139  0.1623
  460MOL0     H60664   7.760  11.162   4.993  0.0869 -0.9185  0.3465
  460MOL0     H60665   8.022  11.214   5.153 -0.5803  0.7233  2.2320
  460MOL0     H60666   7.867  11.245   5.210 -1.8761 -1.0005 -0.9976
  460MOL0     H60667   7.835  11.359   4.974 -1.1942 -2.0408  1.9013
  460MOL0     H60668   8.013  11.359   4.967 -0.8089 -0.0637 -1.0993
  460MOL0     H60669   7.985  11.485   5.203  0.9435  1.7591 -0.1805
  460MOL0     H60670   8.006  11.560   5.046 -0.4565 -1.0675 -1.3153
  460MOL0     H60671   7.785  11.598   5.017 -0.6352 -2.8421  0.6574
  460MOL0     H60672   7.834  11.667   5.185  1.1647 -0.4430  2.6035
  460MOL0     H60673   7.716  11.496   5.390  0.5422  0.4023 -0.1120
  460MOL0     H60674   7.371  11.395   5.452 -0.3582 -1.1268  0.1390
  460MOL0     H60675   7.529  11.367   5.520  0.2813 -3.9607  0.6307
  460MOL0     H60676   7.530  11.147   5.436 -0.2856  0.0162  0.5762
  460MOL0     H60677   7.383  11.187   5.342  1.9079  4.4666 -2.3369
  460MOL0     H60678   7.409  11.178   5.658  2.3729  4.5965 -1.9586
  460MOL0     H60679   7.266  11.231   5.573  0.3281  0.7812  1.1157
  460MOL0     H60680   7.374  10.983   5.477 -2.2208  1.3261 -3.4794
  460MOL0     H60681   7.203  11.033   5.470 -2.3228 -1.1369  1.4379
  460MOL0     H60682   7.139  10.834   5.435 -0.3843 -3.5760 -3.0267
  460MOL0     H60683   7.019  10.625   5.451 -1.9378  3.0134  0.3988
  460MOL0     H60684   6.822  10.237   5.636  0.0861  2.3443  0.8414
  460MOL0     H60685   6.712  10.044   5.732  0.6862 -3.0389 -0.8096
  460MOL0     H60686   6.751   9.944   6.161  0.7550  1.9277 -0.7592
  460MOL0     H60687   6.849   9.800   6.092 -1.7481 -1.6228  1.1770
  460MOL0     H60688   6.634   9.700   6.050  1.6954 -2.5831  2.0014
  460MOL0     H60689   6.559   9.825   6.158  0.3540  0.8571  1.2018
  460MOL0     H60690   6.697   9.766   6.340 -1.2699  0.5383 -0.0962
  460MOL0     H60691   6.797   9.653   6.237 -1.2847 -1.2523 -2.8998
  460MOL0     H60692   6.502   9.595   6.281 -0.0693 -0.6835  1.7568
  460MOL0     H60693   6.632   9.484   6.232  0.3142  0.7034 -0.1823
  460MOL0     H60694   6.546   9.471   6.480  1.7151 -0.5298  3.7556
  460MOL0     H60695   6.637   9.614   6.507 -0.4095  0.8746 -0.6471
  460MOL0     H60696   6.850   9.494   6.460  1.3033 -1.7154 -4.0489
  460MOL0     H60697   6.751   9.372   6.373  0.8667  2.2551 -2.0150
  460MOL0     H60698   6.797   9.254   6.547 -1.8995 -1.5451  1.1098
  460MOL0     H60699   6.828   9.381   6.663 -0.1506 -1.8160  0.1758
  460MOL0     H60700   6.651   9.222   6.724 -0.8226 -0.5024 -0.1176
  460MOL0     H60701   6.557   9.251   6.587 -0.4358 -0.3436  1.4354
  460MOL0     H60702   6.955  10.052   6.075  2.1388 -1.0004 -1.6063
  460MOL0     H60703   7.069  10.253   5.999 -0.7555 -2.0254  2.1469
  460MOL0     H60704   7.161  10.576   5.863  1.9241  1.4515  1.6206
  460MOL0     H60705   7.249  10.810   5.846  1.5228 -0.2212 -1.6394
  460MOL0     H60706   7.409  10.765   5.399 -1.9905 -0.3873 -0.8781
  460MOL0     H60707   7.338  10.573   5.504  3.0951  1.5436  1.0039
  460MOL0     H60708   7.240  10.184   5.741  2.9418  2.6668 -3.1052
  460MOL0     H60709   7.179   9.940   5.808 -0.4532 -1.2242 -0.0277
  460MOL0     H60710   7.101   9.592   5.726  2.2914 -0.3017 -0.3382
  460MOL0     H60711   7.044   9.766   5.768  2.8572  4.4369 -2.8312
  460MOL0     H60712   7.277   9.596   5.865  0.1745 -0.2473  2.0720
  460MOL0     H60713   7.258   9.772   5.901 -0.1923 -0.2278  1.7975
  460MOL0     H60714   7.041   9.740   6.007  0.1209  0.0219  2.4172
  460MOL0     H60715   7.169   9.683   6.096 -0.4930 -0.5204  1.4893
  460MOL0     H60716   6.952   9.533   5.975 -1.5064  1.3293  3.5292
  460MOL0     H60717   7.119   9.466   5.963 -0.2714 -2.7201  2.8058
  460MOL0     H60718   6.983   9.377   6.352 -1.9101  3.2475  1.0980
  460MOL0     H60719   7.296   9.814   5.424 -3.0824 -1.3917 -0.5198
  460MOL0     H60720   7.362  10.040   5.361 -1.8811 -1.2740 -0.7108
  461MOL0     O60721  10.660   7.220   5.184 -0.0381 -0.7231  0.4346
  461MOL0     C60722  10.622   7.327   5.130 -0.3264  0.2394  0.3272
  461MOL0     O60723  10.619   7.355   4.994 -0.2563 -0.6651 -0.3620
  461MOL0     C60724  10.636   7.270   4.887  0.4612  0.3184 -0.3486
  461MOL0     C60725  10.709   7.148   4.903  0.1977  0.1601  0.7526
  461MOL0     C60726  10.714   7.049   4.807 -0.2277 -0.2026 -0.2435
  461MOL0     C60727  10.635   7.068   4.687 -0.4174  0.7840  0.2612
  461MOL0     O60728  10.622   6.970   4.592  0.2020  0.3210 -0.5764
  461MOL0     C60729  10.703   6.853   4.584 -0.2289 -0.2631 -0.4711
  461MOL0     C60730  10.672   6.765   4.470  0.2569  0.1391 -0.3759
  461MOL0     C60731  10.551   6.682   4.482 -0.6943 -0.9310  0.1347
  461MOL0     C60732  10.528   6.596   4.352  0.3076 -1.3434  0.1832
  461MOL0     C60733  10.429   6.495   4.399 -0.1206 -1.0184  1.1775
  461MOL0     C60734  10.371   6.415   4.277 -0.6640 -0.2344  0.0412
  461MOL0     C60735  10.252   6.336   4.314 -0.8376 -0.3109 -0.6787
  461MOL0     C60736  10.172   6.292   4.198  0.3248 -0.1743  0.9822
  461MOL0     N60737  10.251   6.211   4.106 -0.2816  0.0807  0.1576
  461MOL0     C60738  10.278   6.076   4.132  0.2240 -0.3500 -0.5049
  461MOL0     C60739  10.376   6.052   4.047  0.3763 -1.0100 -0.6320
  461MOL0     C60740  10.450   5.916   4.028 -0.8963 -0.9075  0.4185
  461MOL0     C60741  10.558   5.910   4.137 -0.0106  0.5689 -0.1651
  461MOL0     C60742  10.659   6.026   4.167  0.0726 -0.5812 -0.1397
  461MOL0     C60743  10.764   6.051   4.054  0.0212  0.2743  0.3211
  461MOL0     O60744  10.901   6.071   4.112  0.6071 -0.1448 -0.6188
  461MOL0     C60745  10.909   6.179   4.205 -0.6336 -0.2935  0.1176
  461MOL0     C60746  10.953   6.151   4.334 -0.8161 -0.2927  0.2052
  461MOL0     C60747  10.978   6.255   4.426 -0.4094  0.4464  0.2963
  461MOL0     C60748  10.946   6.383   4.394 -0.8883 -1.1630 -1.0600
  461MOL0     C60749  10.960   6.493   4.498 -0.1523  0.6466  0.0461
  461MOL0     O60750  10.907   6.474   4.617 -0.0131  0.3093  0.4920
  461MOL0     C60751  10.908   6.568   4.715  0.5311  0.3684 -0.4867
  461MOL0     C60752  10.791   6.567   4.801 -0.7718 -0.4333 -0.2951
  461MOL0     C60753  10.789   6.645   4.916 -0.6816 -0.0806 -0.8441
  461MOL0     C60754  10.898   6.738   4.940  0.9099  0.2464 -0.1446
  461MOL0     O60755  10.900   6.794   5.066  0.7483  0.0214 -1.2825
  461MOL0     C60756  10.989   6.909   5.090  0.0689 -0.3021 -0.6213
  461MOL0     C60757  10.962   6.972   5.229  0.2681  0.1282 -0.8056
  461MOL0     C60758  10.997   6.878   5.340  0.6291 -0.1855 -0.7152
  461MOL0     C60759  10.994   6.937   5.487  0.4542  0.4844  0.6095
  461MOL0     C60760  11.009   6.822   5.593  0.0811 -0.0849 -0.0991
  461MOL0     C60761  11.009   6.874   5.740  0.5907 -0.7448  0.4273
  461MOL0     C60762  11.139   6.951   5.792  0.3824 -0.7152  0.0936
  461MOL0     C60763  11.248   6.885   5.723 -0.2557 -0.3734  0.7995
  461MOL0    Cl60764  11.394   6.937   5.810 -0.5490  0.1459 -0.0754
  461MOL0     C60765  11.002   6.753   4.842  0.1719 -0.3307 -0.5781
  461MOL0     C60766  11.011   6.667   4.735 -0.3973 -0.5678 -0.1785
  461MOL0     O60767  11.005   6.597   4.455 -0.1590  0.1654  0.6215
  461MOL0     C60768  10.901   6.413   4.265  0.2603 -0.0058 -1.0540
  461MOL0     C60769  10.890   6.314   4.165 -0.7321  0.2531 -0.5792
  461MOL0     N60770  10.414   6.162   3.977  0.5958  0.7684  0.3745
  461MOL0     N60771  10.335   6.262   4.014 -0.4984  0.2932  0.2285
  461MOL0     C60772  10.560   7.184   4.675 -0.9160 -0.9224  0.8482
  461MOL0     C60773  10.565   7.289   4.767  0.5526 -0.4557  0.7800
  461MOL0     C60774  10.591   7.432   5.239  0.0616  0.3105  0.9368
  461MOL0     C60775  10.626   7.409   5.372 -0.3310  0.6374  1.3199
  461MOL0     C60776  10.603   7.516   5.475 -0.1367  0.6337  0.2129
  461MOL0     C60777  10.547   7.638   5.432 -0.1681  0.3071 -0.7476
  461MOL0     O60778  10.512   7.755   5.513  0.5120  0.0769 -0.1988
  461MOL0     C60779  10.509   7.728   5.656  0.2741  0.3097  0.0878
  461MOL0     C60780  10.463   7.858   5.726 -0.6581  0.4927  0.2335
  461MOL0     C60781  10.320   7.849   5.774 -0.2181  0.4627 -0.1904
  461MOL0     C60782  10.305   7.789   5.921 -0.3505  0.5615 -0.1027
  461MOL0     C60783  10.172   7.832   5.976 -0.2066  0.7999  0.1248
  461MOL0     C60784  10.055   7.870   6.017 -0.5098  0.1835  0.5014
  461MOL0     C60785  10.519   7.656   5.300 -0.1951 -1.6745 -0.5615
  461MOL0     C60786  10.541   7.554   5.206 -0.3422  0.0353 -0.4671
  461MOL0     H60787  10.768   7.133   4.992  0.8043 -3.4824 -0.0949
  461MOL0     H60788  10.770   6.958   4.827 -0.0314  0.3042  1.6708
  461MOL0     H60789  10.704   6.804   4.682 -0.5425 -0.2495 -0.4591
  461MOL0     H60790  10.807   6.878   4.565  0.4905 -2.0780  0.8502
  461MOL0     H60791  10.757   6.696   4.468  0.7098  0.6793 -0.1707
  461MOL0     H60792  10.675   6.825   4.378 -1.1188 -0.9641 -1.1718
  461MOL0     H60793  10.463   6.747   4.479  0.5738  0.8494 -0.3045
  461MOL0     H60794  10.553   6.627   4.576  0.6285  3.1637  2.7798
  461MOL0     H60795  10.505   6.661   4.267  1.8438 -0.8895  0.0729
  461MOL0     H60796  10.616   6.548   4.308  0.0642  0.8835 -3.0541
  461MOL0     H60797  10.344   6.539   4.452  0.3284 -2.2736  3.0033
  461MOL0     H60798  10.484   6.430   4.466  1.6512 -1.7809 -0.9148
  461MOL0     H60799  10.452   6.347   4.249  1.2223  2.1410 -0.6752
  461MOL0     H60800  10.350   6.478   4.189 -0.3308  1.1622  0.9305
  461MOL0     H60801  10.292   6.254   4.373  3.2672  2.3026  0.5758
  461MOL0     H60802  10.192   6.400   4.379 -1.7095 -0.6255 -1.1506
  461MOL0     H60803  10.136   6.377   4.140  1.5523 -0.3307 -0.0601
  461MOL0     H60804  10.083   6.238   4.230 -1.5114  3.3234  2.2845
  461MOL0     H60805  10.230   6.011   4.205  0.0278  1.2474  0.8493
  461MOL0     H60806  10.487   5.908   3.926 -1.3870 -2.3075  0.3206
  461MOL0     H60807  10.369   5.847   4.054 -3.3843  2.6305  3.0322
  461MOL0     H60808  10.617   5.818   4.132  0.2866  0.7735 -0.4779
  461MOL0     H60809  10.495   5.901   4.226 -2.7361  1.1955 -1.8939
  461MOL0     H60810  10.605   6.114   4.203  0.0436 -1.3203  1.6924
  461MOL0     H60811  10.714   5.987   4.253  1.2428 -0.3416 -0.7662
  461MOL0     H60812  10.729   6.133   3.991 -1.0594 -1.2180 -1.1058
  461MOL0     H60813  10.766   5.964   3.988  1.3929  0.8699 -0.4578
  461MOL0     H60814  10.976   6.054   4.377 -0.9251 -0.6842 -0.6028
  461MOL0     H60815  11.004   6.238   4.530  0.5696  1.2837  0.1949
  461MOL0     H60816  10.705   6.506   4.776 -0.8908 -0.3215 -0.1572
  461MOL0     H60817  10.703   6.635   4.981 -1.1644  0.4931 -1.3818
  461MOL0     H60818  10.984   6.976   5.004  2.9402  0.0517 -0.6179
  461MOL0     H60819  11.095   6.884   5.103  1.1337  4.0628  0.8038
  461MOL0     H60820  10.858   7.004   5.234  0.7303  1.4883  1.2695
  461MOL0     H60821  11.015   7.067   5.239 -1.6266  1.3575 -1.8816
  461MOL0     H60822  11.103   6.856   5.325  1.3187  2.8496 -0.9900
  461MOL0     H60823  10.932   6.791   5.348 -0.7909  1.0076  3.0783
  461MOL0     H60824  11.066   7.017   5.505  1.5808 -0.2040 -0.6512
  461MOL0     H60825  10.891   6.972   5.497  0.3501  0.6013 -0.7139
  461MOL0     H60826  11.096   6.759   5.570  1.5150  1.5267  0.7069
  461MOL0     H60827  10.917   6.766   5.575  0.7850 -1.3425  0.0974
  461MOL0     H60828  10.997   6.787   5.805  1.5582  0.3374  2.1701
  461MOL0     H60829  10.922   6.940   5.743  1.9338  1.1774 -0.3653
  461MOL0     H60830  11.134   7.060   5.783  1.6448 -0.7239 -1.1911
  461MOL0     H60831  11.155   6.951   5.900 -1.7910  1.5662  0.5085
  461MOL0     H60832  11.246   6.914   5.618 -2.9780 -0.5392  0.7390
  461MOL0     H60833  11.244   6.775   5.724  2.1897 -0.5650 -0.9649
  461MOL0     H60834  11.075   6.829   4.869 -0.9469  0.5267  0.1090
  461MOL0     H60835  11.101   6.677   4.675 -0.9735 -3.9412 -1.8538
  461MOL0     H60836  10.875   6.514   4.236  0.2100  0.8394  1.6448
  461MOL0     H60837  10.849   6.341   4.068 -0.6732 -1.8524 -1.2432
  461MOL0     H60838  10.478   7.206   4.607 -0.2319  0.5089  0.4307
  461MOL0     H60839  10.495   7.371   4.758 -0.0466 -0.9827  0.5781
  461MOL0     H60840  10.673   7.315   5.400 -2.0083 -0.7682 -0.3566
  461MOL0     H60841  10.622   7.493   5.579 -1.9646 -2.1771  0.0288
  461MOL0     H60842  10.602   7.697   5.704 -0.3242 -0.9294  0.4916
  461MOL0     H60843  10.441   7.649   5.691  2.3991 -0.7808  2.0335
  461MOL0     H60844  10.528   7.873   5.813 -0.9012  0.6160  0.3952
  461MOL0     H60845  10.473   7.942   5.657 -2.9847  0.6610  0.0441
  461MOL0     H60846  10.258   7.794   5.703  0.3797 -0.3647 -0.0847
  461MOL0     H60847  10.281   7.951   5.780 -1.3175  0.0638 -0.4646
  461MOL0     H60848  10.310   7.680   5.916  2.8788  0.6242 -0.2571
  461MOL0     H60849  10.386   7.821   5.987 -0.1387 -0.1933  0.0052
  461MOL0     H60850   9.959   7.906   6.047 -1.4781 -0.8707 -1.1290
  461MOL0     H60851  10.491   7.757   5.271  1.3942 -0.7222  1.0225
  461MOL0     H60852  10.491   7.569   5.110 -0.1354 -1.3941 -0.8237
  462MOL0     O60853   4.085   2.018   1.440  1.0268 -0.5489 -0.2829
  462MOL0     C60854   3.970   2.042   1.481 -0.2947  0.3560 -0.1942
  462MOL0     O60855   3.875   2.122   1.407 -0.0396  0.2641 -0.8670
  462MOL0     C60856   3.922   2.173   1.296  0.0919 -0.1104 -0.6115
  462MOL0     C60857   3.947   2.082   1.190 -0.7070 -0.1068  0.1533
  462MOL0     C60858   4.019   2.126   1.081 -0.6857  0.1423 -0.0196
  462MOL0     C60859   4.064   2.259   1.069 -0.5238  0.1946  0.2028
  462MOL0     O60860   4.142   2.314   0.965 -0.3483 -0.2160 -0.5464
  462MOL0     C60861   4.186   2.223   0.866  0.4321  0.0738  0.3925
  462MOL0     C60862   4.240   2.294   0.736 -0.5253  0.5982  0.8013
  462MOL0     C60863   4.371   2.363   0.769 -0.3304 -0.2612 -0.0461
  462MOL0     C60864   4.409   2.456   0.651  0.0319 -0.7319  0.3086
  462MOL0     C60865   4.443   2.391   0.508  1.1076 -0.4870  0.1396
  462MOL0     C60866   4.568   2.310   0.520  0.8648 -0.4961  0.2080
  462MOL0     C60867   4.647   2.290   0.394 -0.0702 -0.0931  0.4523
  462MOL0     C60868   4.605   2.171   0.323  0.2902  0.1943 -1.0033
  462MOL0     N60869   4.693   2.141   0.211  0.5677 -0.6486  0.7447
  462MOL0     C60870   4.810   2.070   0.205 -0.3269  0.8239  0.3431
  462MOL0     C60871   4.851   2.066   0.075  0.0246 -0.2149 -0.4800
  462MOL0     C60872   4.975   2.004   0.014 -0.2598 -0.6038  0.3534
  462MOL0     C60873   4.943   1.866  -0.033  0.0157  0.0682  0.8111
  462MOL0     C60874   4.904   1.761   0.068 -0.2348 -0.5463  0.1009
  462MOL0     C60875   4.762   1.695   0.049 -0.3570  0.4871  0.0624
  462MOL0     O60876   4.663   1.797   0.070  0.2948  0.0714  0.1219
  462MOL0     C60877   4.542   1.739   0.090 -0.6097  1.1823  0.6738
  462MOL0     C60878   4.475   1.670  -0.017 -0.0628  0.3287 -0.8590
  462MOL0     C60879   4.343   1.626  -0.012 -0.6500 -1.0573  0.0416
  462MOL0     C60880   4.271   1.653   0.106  1.3717 -0.5973  0.4717
  462MOL0     C60881   4.121   1.634   0.117  0.1130 -0.4843  0.1240
  462MOL0     O60882   4.071   1.667   0.237  0.4310  0.6597  1.3249
  462MOL0     C60883   3.940   1.630   0.242  0.0812  0.4636  0.5460
  462MOL0     C60884   3.899   1.508   0.289 -0.5609 -0.4004  1.0118
  462MOL0     C60885   3.761   1.479   0.317 -0.8795 -0.3465  0.2656
  462MOL0     C60886   3.658   1.575   0.284  0.8917 -0.7813 -0.2113
  462MOL0     O60887   3.517   1.570   0.312 -0.5993  0.1971  0.6503
  462MOL0     C60888   3.471   1.450   0.373  0.0514  0.3182  0.3308
  462MOL0     C60889   3.320   1.450   0.367 -0.2004 -0.4268 -0.5492
  462MOL0     C60890   3.264   1.304   0.378 -0.0167  0.0139  0.1893
  462MOL0     C60891   3.117   1.300   0.370  0.2519  0.0205  0.1615
  462MOL0     C60892   3.062   1.163   0.372  0.2470  0.9158  0.3118
  462MOL0     C60893   3.074   1.107   0.234 -0.5025  0.6526  0.4690
  462MOL0     C60894   3.001   0.972   0.244  0.5067 -0.2166 -0.2848
  462MOL0     C60895   2.854   0.992   0.181 -0.1092  0.3573 -0.8070
  462MOL0    Cl60896   2.841   1.002   0.005  0.4704  0.7948  0.1080
  462MOL0     C60897   3.710   1.688   0.217  0.3611  0.3168  0.3425
  462MOL0     C60898   3.839   1.725   0.210 -0.4903 -0.2990 -0.0278
  462MOL0     O60899   4.060   1.589   0.019 -1.1840 -0.1060  0.1709
  462MOL0     C60900   4.339   1.715   0.219  0.1631 -0.1972  0.1961
  462MOL0     C60901   4.482   1.750   0.217  0.5210 -1.0681  0.3977
  462MOL0     N60902   4.759   2.146   0.002 -0.4981 -0.2017  0.2239
  462MOL0     N60903   4.677   2.193   0.086  0.3991 -0.5487  0.0688
  462MOL0     C60904   4.002   2.356   1.153  0.5051 -0.0092 -0.2650
  462MOL0     C60905   3.932   2.315   1.270  0.4172  0.2336  0.0952
  462MOL0     C60906   3.938   2.018   1.626 -0.2990 -0.6628  0.6977
  462MOL0     C60907   4.033   1.981   1.716  0.2495 -0.3743 -1.2201
  462MOL0     C60908   3.999   1.976   1.851  0.3066  0.1995  0.7666
  462MOL0     C60909   3.875   1.993   1.907  0.5323  0.2889  0.1373
  462MOL0     O60910   3.842   1.996   2.038 -0.1248  0.1474 -0.1849
  462MOL0     C60911   3.943   1.989   2.141 -0.0934 -0.7658  0.1661
  462MOL0     C60912   3.943   2.140   2.193 -0.1286  1.5264  0.5497
  462MOL0     C60913   4.003   2.148   2.331 -0.1846 -0.6736 -0.4077
  462MOL0     C60914   3.996   2.299   2.367 -0.3471  0.6339 -0.2864
  462MOL0     C60915   4.047   2.329   2.499  1.5342  0.0099 -0.3067
  462MOL0     C60916   4.093   2.340   2.611 -0.9298 -0.4136  0.4416
  462MOL0     C60917   3.782   2.049   1.823 -0.5775 -0.1050  0.0164
  462MOL0     C60918   3.811   2.052   1.681 -0.6343 -0.7294  0.0861
  462MOL0     H60919   3.930   1.975   1.204 -2.9087  0.2413  0.5813
  462MOL0     H60920   4.049   2.046   1.014 -1.5624 -3.1697  3.2053
  462MOL0     H60921   4.115   2.148   0.831  1.2171 -0.7402  0.5110
  462MOL0     H60922   4.271   2.161   0.896  1.7988  0.0887 -3.0731
  462MOL0     H60923   4.169   2.371   0.704 -0.5540 -0.4108 -1.8191
  462MOL0     H60924   4.258   2.230   0.649 -1.0534  1.1429  0.2814
  462MOL0     H60925   4.449   2.286   0.770  1.0875  1.1187  1.4144
  462MOL0     H60926   4.364   2.420   0.862  1.3979  1.9706 -1.1840
  462MOL0     H60927   4.316   2.512   0.634 -0.2568 -2.0103 -3.3042
  462MOL0     H60928   4.479   2.532   0.685 -0.5099  1.0375 -2.2426
  462MOL0     H60929   4.460   2.461   0.426  2.6368 -2.7934 -1.6582
  462MOL0     H60930   4.360   2.327   0.476  0.8142 -0.7305  1.3245
  462MOL0     H60931   4.536   2.214   0.560 -1.5647  0.3922  0.5491
  462MOL0     H60932   4.626   2.374   0.587 -1.2763  0.9382  0.8083
  462MOL0     H60933   4.629   2.382   0.337 -0.0614  1.3162  2.6301
  462MOL0     H60934   4.753   2.296   0.417  0.0384  0.4739 -0.1747
  462MOL0     H60935   4.500   2.192   0.300  0.8439  2.6538 -1.5597
  462MOL0     H60936   4.615   2.084   0.389  0.3165  0.7028 -0.3276
  462MOL0     H60937   4.854   2.017   0.289 -0.0271 -0.3438 -0.5232
  462MOL0     H60938   5.059   1.997   0.084 -0.1142 -2.7440  0.0387
  462MOL0     H60939   4.999   2.060  -0.077  0.2530 -4.0087 -1.8180
  462MOL0     H60940   5.026   1.825  -0.090  1.4232  1.1337  2.0099
  462MOL0     H60941   4.851   1.870  -0.092  0.7053 -2.7938 -0.6407
  462MOL0     H60942   4.976   1.679   0.057  0.5333 -0.2972  2.5291
  462MOL0     H60943   4.918   1.796   0.171  1.1240 -0.2849 -0.1533
  462MOL0     H60944   4.761   1.616   0.125 -1.3490  2.2180  1.9578
  462MOL0     H60945   4.770   1.645  -0.047  0.1083 -2.8001  1.6722
  462MOL0     H60946   4.526   1.670  -0.113  1.2771 -0.0465 -0.1799
  462MOL0     H60947   4.280   1.589  -0.093 -1.8730  2.2886 -0.7144
  462MOL0     H60948   3.966   1.437   0.337 -0.7498  1.2351  3.9632
  462MOL0     H60949   3.736   1.383   0.360  1.9007 -0.8324  0.9851
  462MOL0     H60950   3.512   1.447   0.474 -1.0267 -1.9896  0.7690
  462MOL0     H60951   3.505   1.354   0.333  0.5949  0.8952 -0.6428
  462MOL0     H60952   3.292   1.493   0.270  0.3823  2.5466  0.5057
  462MOL0     H60953   3.280   1.519   0.441  0.0685  1.0200 -1.7001
  462MOL0     H60954   3.301   1.260   0.471  0.5423  2.4979  1.2125
  462MOL0     H60955   3.308   1.245   0.297 -2.7791 -1.4766 -0.3649
  462MOL0     H60956   3.070   1.353   0.454  0.9858  0.8083  0.0938
  462MOL0     H60957   3.093   1.344   0.272  0.8920  3.0666  1.2729
  462MOL0     H60958   2.954   1.174   0.382 -0.1296 -0.5069 -1.5783
  462MOL0     H60959   3.112   1.091   0.437 -1.6669 -1.8796 -1.1380
  462MOL0     H60960   3.179   1.083   0.212 -0.3769  0.8677  0.8355
  462MOL0     H60961   3.041   1.166   0.148  1.1333 -0.9758 -1.3964
  462MOL0     H60962   3.053   0.895   0.185  2.1775  0.4450  0.2564
  462MOL0     H60963   2.981   0.937   0.345  2.2731  0.7689  0.4458
  462MOL0     H60964   2.805   1.076   0.231 -2.1339  0.6613 -3.1431
  462MOL0     H60965   2.796   0.902   0.206  1.1739 -0.3294 -0.1371
  462MOL0     H60966   3.630   1.755   0.186 -0.8807 -0.9453  0.6995
  462MOL0     H60967   3.859   1.825   0.174  0.9986 -0.4357  0.3638
  462MOL0     H60968   4.284   1.752   0.305 -0.7933  2.4022 -1.4201
  462MOL0     H60969   4.509   1.812   0.302 -0.3987  0.0535 -0.0864
  462MOL0     H60970   4.016   2.463   1.140 -0.4293  0.0141 -1.1604
  462MOL0     H60971   3.882   2.377   1.344 -2.5698 -3.5045  1.5704
  462MOL0     H60972   4.138   1.962   1.695  0.5205 -0.2260 -0.0795
  462MOL0     H60973   4.091   1.938   1.896 -0.2419  0.0499  1.8040
  462MOL0     H60974   4.050   1.975   2.121  0.1974  0.4641  0.7543
  462MOL0     H60975   3.906   1.910   2.207 -4.0261 -2.6838 -3.8071
  462MOL0     H60976   4.003   2.200   2.123  1.5459  1.6155  1.9847
  462MOL0     H60977   3.840   2.174   2.202  0.1451  1.9608  2.3407
  462MOL0     H60978   4.106   2.112   2.325 -1.0552 -3.1367 -2.5934
  462MOL0     H60979   3.936   2.095   2.400 -1.2064  3.5364  2.1715
  462MOL0     H60980   4.061   2.352   2.296  0.5432  0.6995  0.5637
  462MOL0     H60981   3.889   2.325   2.366 -1.4110 -3.1689 -0.4773
  462MOL0     H60982   4.158   2.355   2.696 -0.0665  2.8800 -0.6731
  462MOL0     H60983   3.689   2.084   1.866 -0.0933 -0.5721  1.4911
  462MOL0     H60984   3.729   2.089   1.619  0.5049  0.2004 -0.9272
  463MOL0     O60985   5.925   2.921   1.115 -0.3455 -0.1971  1.0963
  463MOL0     C60986   5.847   2.982   1.189 -0.3040 -0.4363  0.7270
  463MOL0     O60987   5.755   2.921   1.263  0.1680  0.1758 -0.7026
  463MOL0     C60988   5.716   2.792   1.245 -0.8755 -0.7460  0.5972
  463MOL0     C60989   5.770   2.693   1.321 -0.0610  0.0016 -0.7796
  463MOL0     C60990   5.724   2.560   1.293 -0.2657 -0.7973 -0.0994
  463MOL0     C60991   5.626   2.529   1.189 -0.4673  0.1240  0.3442
  463MOL0     O60992   5.596   2.395   1.170 -0.1928  0.1387 -0.3570
  463MOL0     C60993   5.518   2.357   1.054  1.0349  0.0737  0.8867
  463MOL0     C60994   5.499   2.203   1.059 -0.9078  0.6056  1.1444
  463MOL0     C60995   5.622   2.123   1.037 -0.2089 -0.2883  0.5567
  463MOL0     C60996   5.595   1.983   0.988 -0.8062  0.3050  1.0503
  463MOL0     C60997   5.725   1.900   0.975  0.3362 -0.5392  0.1076
  463MOL0     C60998   5.809   1.937   0.848  0.7380  1.0944 -0.4522
  463MOL0     C60999   5.953   1.901   0.863  0.1449  0.4202 -0.3969
  463MOL0     C61000   6.018   1.834   0.742 -0.5187 -0.4208 -0.0358
  463MOL0     N61001   5.973   1.694   0.729  0.3213 -0.7879  0.2327
  463MOL0     C61002   6.044   1.591   0.771  0.0206  0.6897  0.3845
  463MOL0     C61003   5.962   1.485   0.773  0.1610 -0.9661  0.9250
  463MOL0     C61004   6.005   1.359   0.813  0.0346 -0.5783 -0.2400
  463MOL0     C61005   5.900   1.314   0.922  0.0415 -0.7105 -0.8997
  463MOL0     C61006   5.954   1.186   0.987  0.3528  0.1069 -0.0440
  463MOL0     C61007   5.998   1.078   0.882  0.1070  0.2972 -0.4182
  463MOL0     O61008   6.132   1.113   0.839 -0.1459 -0.1332 -0.4583
  463MOL0     C61009   6.211   1.010   0.776  0.3001  0.1117 -0.9205
  463MOL0     C61010   6.350   1.023   0.761 -0.3183 -1.1290  0.2677
  463MOL0     C61011   6.420   0.924   0.702  0.0875 -0.0865 -0.5261
  463MOL0     C61012   6.364   0.807   0.657  0.0853  0.0625 -0.3229
  463MOL0     C61013   6.446   0.696   0.613 -0.4124  0.0893  0.2968
  463MOL0     O61014   6.579   0.713   0.625  0.3134 -0.4686 -0.2217
  463MOL0     C61015   6.677   0.615   0.609  0.0398  0.7497  1.1310
  463MOL0     C61016   6.672   0.503   0.522  0.3143  0.0561 -0.3535
  463MOL0     C61017   6.789   0.431   0.502 -0.9699  0.2934 -0.0670
  463MOL0     C61018   6.903   0.452   0.578 -0.9832  0.4090 -0.1022
  463MOL0     O61019   7.014   0.366   0.583 -0.1312 -0.6644  0.1762
  463MOL0     C61020   7.022   0.256   0.490  0.5176 -0.1111 -0.4389
  463MOL0     C61021   7.062   0.309   0.354  0.0036 -0.4771 -1.0451
  463MOL0     C61022   7.217   0.324   0.332 -0.5887  0.7475  0.0369
  463MOL0     C61023   7.280   0.183   0.314  0.6697  0.9807 -0.5758
  463MOL0     C61024   7.435   0.200   0.311  1.0867  0.6524  0.0551
  463MOL0     C61025   7.501   0.060   0.314  0.0972 -0.6491 -0.8573
  463MOL0     C61026   7.646   0.072   0.302  0.0004 -0.1343 -0.3888
  463MOL0     C61027   7.708  -0.053   0.344 -0.6443 -0.6582  0.2641
  463MOL0    Cl61028   7.888  -0.026   0.322 -0.4967 -0.4716  0.4702
  463MOL0     C61029   6.905   0.566   0.653 -0.2216 -0.2585  0.5669
  463MOL0     C61030   6.800   0.653   0.667  0.7665 -0.0517  0.1774
  463MOL0     O61031   6.397   0.593   0.574  0.0112 -0.1323 -0.4551
  463MOL0     C61032   6.228   0.802   0.656 -0.1149 -0.5556  0.5029
  463MOL0     C61033   6.150   0.903   0.716 -0.2085  0.8602 -0.3584
  463MOL0     N61034   5.827   1.532   0.767  0.0212  0.6116  0.7552
  463MOL0     N61035   5.842   1.654   0.726 -0.3479  0.2066 -0.6796
  463MOL0     C61036   5.568   2.641   1.131 -0.1975 -0.5787  0.0491
  463MOL0     C61037   5.607   2.769   1.157  0.0865  0.6087  0.0357
  463MOL0     C61038   5.855   3.134   1.182 -0.4570 -0.0397 -0.3625
  463MOL0     C61039   5.941   3.203   1.098 -0.5028  0.8474 -0.3968
  463MOL0     C61040   5.938   3.341   1.090  0.0739 -0.2035  0.1561
  463MOL0     C61041   5.858   3.413   1.173  0.1296 -0.4559 -0.5606
  463MOL0     O61042   5.850   3.548   1.156  0.5135 -0.7838  0.1659
  463MOL0     C61043   5.910   3.632   1.055  0.4079 -0.8128 -0.6471
  463MOL0     C61044   5.818   3.761   1.054  0.5591  0.1197 -0.3368
  463MOL0     C61045   5.867   3.847   0.941  1.7240  0.5301 -0.6069
  463MOL0     C61046   5.904   3.990   0.978  0.3252 -0.2149  0.0211
  463MOL0     C61047   5.986   4.058   0.873  0.1604 -0.2049  0.0684
  463MOL0     C61048   6.037   4.109   0.777  0.4878  0.3578 -0.7304
  463MOL0     C61049   5.775   3.348   1.263 -0.7639  0.7069 -0.1474
  463MOL0     C61050   5.774   3.204   1.272 -0.0223 -0.6589  0.3191
  463MOL0     H61051   5.836   2.707   1.405 -1.4772  1.1198  0.1963
  463MOL0     H61052   5.758   2.475   1.351 -1.8801 -0.2082  1.8185
  463MOL0     H61053   5.571   2.395   0.967  2.6996 -0.3821  1.6622
  463MOL0     H61054   5.418   2.404   1.057 -0.0616 -2.0966  0.0900
  463MOL0     H61055   5.429   2.180   0.977 -1.3220  1.7364  1.1661
  463MOL0     H61056   5.460   2.179   1.158  3.0778 -1.5033  2.4178
  463MOL0     H61057   5.680   2.129   1.129  1.4311  0.2605 -0.4670
  463MOL0     H61058   5.683   2.176   0.964 -0.7563  1.9180  1.6239
  463MOL0     H61059   5.527   1.930   1.054 -1.6855 -2.6812 -1.9623
  463MOL0     H61060   5.537   1.986   0.895  2.1479  2.6061 -0.9340
  463MOL0     H61061   5.702   1.793   0.979  1.4828 -0.8093 -0.2758
  463MOL0     H61062   5.782   1.914   1.067  2.0473 -2.6769 -0.5483
  463MOL0     H61063   5.806   2.045   0.832  0.1083  1.3502  1.1232
  463MOL0     H61064   5.769   1.886   0.760 -1.3190  0.4955  0.7387
  463MOL0     H61065   6.000   1.991   0.904 -1.0154 -0.1679  2.4773
  463MOL0     H61066   5.966   1.838   0.952 -0.9054 -0.5578 -0.9095
  463MOL0     H61067   6.127   1.827   0.756 -0.4728  0.5749  0.2276
  463MOL0     H61068   6.006   1.889   0.648  0.1249  1.6011  1.0107
  463MOL0     H61069   6.149   1.598   0.797  0.1212  2.4709 -0.3312
  463MOL0     H61070   6.099   1.373   0.866 -0.2550 -0.1410  0.1728
  463MOL0     H61071   6.011   1.297   0.723  3.8393 -0.3494 -0.2823
  463MOL0     H61072   5.803   1.310   0.873  0.0958  0.4303 -1.1239
  463MOL0     H61073   5.899   1.394   0.997  1.0616  0.0845 -1.7009
  463MOL0     H61074   6.042   1.217   1.044  0.4284 -1.6693  0.8987
  463MOL0     H61075   5.881   1.134   1.049  0.6578 -1.6868 -1.1122
  463MOL0     H61076   5.935   1.076   0.793 -0.0767 -1.7558 -0.2932
  463MOL0     H61077   5.994   0.989   0.945  1.1298 -0.1890 -1.0279
  463MOL0     H61078   6.397   1.110   0.806  1.2428 -2.4685  1.3323
  463MOL0     H61079   6.528   0.938   0.705  0.0761  0.6582 -2.2755
  463MOL0     H61080   6.577   0.466   0.484 -0.9692  1.7423  1.0657
  463MOL0     H61081   6.782   0.354   0.426 -1.9986 -1.5985  1.8443
  463MOL0     H61082   6.928   0.202   0.479  0.2774 -0.4682  2.5989
  463MOL0     H61083   7.087   0.176   0.527 -1.3205 -2.5227 -2.1038
  463MOL0     H61084   6.996   0.396   0.342 -2.7746 -2.1830  0.7703
  463MOL0     H61085   7.029   0.233   0.284  4.6361 -3.6908 -0.2040
  463MOL0     H61086   7.271   0.374   0.413 -2.6909  1.6952  0.9185
  463MOL0     H61087   7.227   0.389   0.245  0.3241  0.5339 -0.0325
  463MOL0     H61088   7.252   0.135   0.409  1.0543  3.9389  1.1548
  463MOL0     H61089   7.241   0.136   0.224  4.6986  0.3248 -2.1707
  463MOL0     H61090   7.472   0.269   0.388  2.4197  0.5431 -0.4491
  463MOL0     H61091   7.461   0.243   0.213  0.1447  1.0992 -0.0086
  463MOL0     H61092   7.460   0.008   0.227  2.7728 -0.0003 -2.6420
  463MOL0     H61093   7.476  -0.001   0.401 -0.9883  0.6062 -0.2585
  463MOL0     H61094   7.678   0.086   0.198  0.8309 -1.3045 -0.3059
  463MOL0     H61095   7.690   0.156   0.357  2.1933  0.3860 -2.7171
  463MOL0     H61096   7.672  -0.133   0.278  0.6452  0.3262 -1.7419
  463MOL0     H61097   7.690  -0.066   0.451  0.1565  2.4290  0.8789
  463MOL0     H61098   6.991   0.588   0.715  0.5440 -2.5002  0.3733
  463MOL0     H61099   6.797   0.738   0.735 -0.4884 -0.3371  0.5128
  463MOL0     H61100   6.184   0.705   0.632  1.9264 -1.3713 -0.1430
  463MOL0     H61101   6.042   0.893   0.716 -0.0488 -1.7259 -0.0469
  463MOL0     H61102   5.490   2.638   1.055 -1.5918  2.8959  1.1397
  463MOL0     H61103   5.549   2.852   1.119  1.6567  0.8346 -2.0320
  463MOL0     H61104   6.003   3.143   1.031  2.5234  1.5939  1.5397
  463MOL0     H61105   5.988   3.393   1.009  0.9150 -0.8592  0.2334
  463MOL0     H61106   5.910   3.582   0.958  0.3493  0.5492 -1.3741
  463MOL0     H61107   6.009   3.670   1.084 -0.7726 -0.1045  3.0026
  463MOL0     H61108   5.718   3.735   1.018 -0.2686  0.4577  1.5775
  463MOL0     H61109   5.809   3.808   1.152  1.4534 -1.6107  0.6153
  463MOL0     H61110   5.788   3.853   0.866  2.0580 -0.2077 -1.0329
  463MOL0     H61111   5.951   3.803   0.887  2.0862  2.2366 -1.4870
  463MOL0     H61112   5.803   4.032   0.977 -0.2686 -0.8200 -6.1863
  463MOL0     H61113   5.956   3.981   1.073 -2.9244  0.4298  2.0326
  463MOL0     H61114   6.098   4.160   0.705  0.0177  2.1589  0.0876
  463MOL0     H61115   5.722   3.421   1.323  2.6618  2.3952  1.1024
  463MOL0     H61116   5.715   3.158   1.350 -2.0036  0.4401 -0.4764
  464MOL0     O61117  11.288   6.241   9.943  0.1318  0.3533 -0.8975
  464MOL0     C61118  11.361   6.339   9.904 -0.2672  0.8032  0.1901
  464MOL0     O61119  11.473   6.328   9.829 -0.4531  0.1791  0.1979
  464MOL0     C61120  11.521   6.207   9.792  1.7470 -0.4237  0.1226
  464MOL0     C61121  11.652   6.211   9.751 -0.5815 -0.6203  0.3682
  464MOL0     C61122  11.722   6.102   9.702 -0.5842 -0.6893 -0.2618
  464MOL0     C61123  11.658   5.979   9.703 -0.1834  0.4680 -0.2219
  464MOL0     O61124  11.733   5.867   9.682  0.5374  0.4215 -0.2126
  464MOL0     C61125  11.707   5.752   9.772 -0.9253  0.4883 -0.3216
  464MOL0     C61126  11.637   5.626   9.713  1.4150 -0.5320 -0.7471
  464MOL0     C61127  11.649   5.592   9.567  0.0271 -0.5247 -0.1780
  464MOL0     C61128  11.793   5.555   9.520  0.1203  0.4576  1.1504
  464MOL0     C61129  11.825   5.495   9.372 -0.3280 -0.0033 -0.6039
  464MOL0     C61130  11.964   5.538   9.324 -0.2516 -0.0864 -0.3971
  464MOL0     C61131  12.028   5.444   9.229  0.3884  0.2478 -0.2299
  464MOL0     C61132  11.957   5.405   9.100  0.7488 -0.4947  0.0543
  464MOL0     N61133  11.955   5.521   9.013  0.6377 -1.2778  0.3230
  464MOL0     C61134  11.870   5.632   8.996  0.8461  0.1241  0.0513
  464MOL0     C61135  11.928   5.704   8.894 -0.2606  0.9603 -0.6220
  464MOL0     C61136  11.875   5.828   8.831  0.5890 -0.5676 -0.8520
  464MOL0     C61137  11.768   5.812   8.721  0.9842 -0.8832  1.1489
  464MOL0     C61138  11.755   5.944   8.633 -0.4566  1.0444  0.4357
  464MOL0     C61139  11.606   5.957   8.596 -0.0048 -1.0475  0.0315
  464MOL0     O61140  11.532   5.990   8.715  0.2766  0.4421 -0.4058
  464MOL0     C61141  11.410   6.050   8.726 -0.0445 -0.3366 -0.2387
  464MOL0     C61142  11.328   6.117   8.629  0.1882  0.3473 -0.5357
  464MOL0     C61143  11.232   6.209   8.663  0.0531 -0.5922  0.2690
  464MOL0     C61144  11.188   6.212   8.795  0.3567 -0.2986 -0.6663
  464MOL0     C61145  11.086   6.314   8.835 -0.4538  0.0155 -0.0504
  464MOL0     O61146  11.055   6.332   8.970  0.5868 -0.5164  0.7306
  464MOL0     C61147  10.947   6.405   9.013  0.4568  0.8167 -0.3010
  464MOL0     C61148  10.865   6.337   9.100  0.5316 -0.6240  0.9109
  464MOL0     C61149  10.741   6.398   9.131 -0.2713 -0.0502  0.3184
  464MOL0     C61150  10.694   6.526   9.082  0.0277 -0.2231 -0.9118
  464MOL0     O61151  10.564   6.572   9.104  0.5514  0.7733 -0.6806
  464MOL0     C61152  10.497   6.647   9.003 -0.3160 -0.2940 -0.4032
  464MOL0     C61153  10.393   6.733   9.089 -0.7737 -0.7644  0.2567
  464MOL0     C61154  10.283   6.802   9.008 -0.9884 -0.0603  0.5544
  464MOL0     C61155  10.160   6.867   9.076 -0.7422  0.2618 -0.0813
  464MOL0     C61156  10.081   6.759   9.151  0.3108  0.3171  0.8382
  464MOL0     C61157   9.961   6.822   9.219 -0.0948  0.4827 -0.3207
  464MOL0     C61158   9.900   6.734   9.341  0.8127 -0.2256  0.0493
  464MOL0     C61159   9.746   6.732   9.337  0.7753 -0.1304  0.0210
  464MOL0    Cl61160   9.685   6.910   9.336  0.0187 -0.3154 -0.3161
  464MOL0     C61161  10.788   6.594   9.000  0.0220  0.3613  0.0569
  464MOL0     C61162  10.907   6.537   8.970 -0.1525 -0.0462  0.5702
  464MOL0     O61163  11.044   6.386   8.747  0.5180  0.2459  0.3514
  464MOL0     C61164  11.245   6.128   8.897  0.3450  0.1947  0.4339
  464MOL0     C61165  11.355   6.057   8.852 -0.3063  0.1951 -0.0511
  464MOL0     N61166  12.036   5.638   8.851 -0.8093  0.4748  0.0859
  464MOL0     N61167  12.058   5.529   8.925 -0.1865  0.5019  0.5109
  464MOL0     C61168  11.518   5.973   9.737  0.1193 -0.2384 -0.4333
  464MOL0     C61169  11.447   6.087   9.770 -0.3470  0.7450 -0.1509
  464MOL0     C61170  11.332   6.477   9.936  0.5486 -0.2689  0.3509
  464MOL0     C61171  11.434   6.576   9.929  0.0642 -0.0370 -0.4530
  464MOL0     C61172  11.398   6.708   9.929 -0.4060  0.2013  0.7151
  464MOL0     C61173  11.261   6.749   9.944  0.3028 -0.2390  0.2880
  464MOL0     O61174  11.239   6.890   9.953 -0.3520  0.7621 -0.1041
  464MOL0     C61175  11.112   6.936   9.915 -0.1316  0.4632 -0.0822
  464MOL0     C61176  11.009   6.948  10.029  0.0958 -0.6127 -1.4156
  464MOL0     C61177  11.049   7.033  10.143  0.3975 -0.3077  0.8126
  464MOL0     C61178  10.935   7.067  10.240  0.4510 -0.7129  0.4223
  464MOL0     C61179  11.004   7.119  10.355 -0.0793 -0.0786 -0.8004
  464MOL0     C61180  11.048   7.149  10.464 -0.6270  1.1141 -0.0281
  464MOL0     C61181  11.167   6.648   9.960  0.7238  0.2036 -0.1045
  464MOL0     C61182  11.201   6.513   9.961 -0.2188 -0.2259 -0.1032
  464MOL0     H61183  11.706   6.305   9.754 -0.4435 -0.7264  1.3840
  464MOL0     H61184  11.826   6.126   9.680 -1.7165  3.2328 -2.1312
  464MOL0     H61185  11.651   5.786   9.859  0.1871  0.7559  0.3092
  464MOL0     H61186  11.809   5.725   9.802  1.1389  4.0390 -3.2712
  464MOL0     H61187  11.529   5.631   9.730  1.6712 -2.2805  2.1166
  464MOL0     H61188  11.671   5.537   9.767  3.1507  0.9952  0.7627
  464MOL0     H61189  11.599   5.670   9.509  0.2262  1.9959  2.8263
  464MOL0     H61190  11.587   5.502   9.564  1.0537 -1.2963  0.6675
  464MOL0     H61191  11.859   5.639   9.543  0.8345  0.3747 -0.4828
  464MOL0     H61192  11.826   5.479   9.592 -0.2502 -0.0287  0.8103
  464MOL0     H61193  11.752   5.535   9.301 -0.2331 -3.3264 -2.7968
  464MOL0     H61194  11.810   5.387   9.363  1.0140 -0.3886  1.2992
  464MOL0     H61195  12.029   5.546   9.412 -0.7011 -1.7677  0.1149
  464MOL0     H61196  11.960   5.642   9.289  2.0442  0.1677 -0.1020
  464MOL0     H61197  12.128   5.482   9.202  1.2730 -0.3064  2.0481
  464MOL0     H61198  12.037   5.351   9.286 -0.6009 -1.7881 -3.1415
  464MOL0     H61199  11.851   5.388   9.122  0.5174 -0.9713 -1.3680
  464MOL0     H61200  12.003   5.318   9.052 -1.1529 -1.2554 -0.5203
  464MOL0     H61201  11.775   5.659   9.040  0.6632  0.1789 -0.3778
  464MOL0     H61202  11.954   5.892   8.792  2.4414 -1.8548  0.5983
  464MOL0     H61203  11.826   5.893   8.904  2.3109  3.0817 -2.7089
  464MOL0     H61204  11.672   5.786   8.766  0.3298  2.3536  1.8827
  464MOL0     H61205  11.802   5.731   8.656  3.1569  1.2288 -0.5472
  464MOL0     H61206  11.791   6.035   8.682 -0.1817  0.8488  0.5981
  464MOL0     H61207  11.818   5.919   8.547 -2.8857  0.8102 -1.3746
  464MOL0     H61208  11.556   5.880   8.537  1.5305 -1.0333 -1.3771
  464MOL0     H61209  11.603   6.048   8.534  2.1830 -0.8498  0.1581
  464MOL0     H61210  11.365   6.123   8.528 -0.6151  3.2799 -0.7665
  464MOL0     H61211  11.187   6.277   8.591 -0.8221 -2.8601 -1.4277
  464MOL0     H61212  10.898   6.240   9.136 -0.6257 -2.7850 -3.1767
  464MOL0     H61213  10.677   6.338   9.195 -0.0822  0.7390  1.2742
  464MOL0     H61214  10.450   6.586   8.926  1.1638  1.0725 -2.4937
  464MOL0     H61215  10.562   6.722   8.956  0.9803  0.0257  1.7597
  464MOL0     H61216  10.455   6.793   9.157  0.9818  0.2583 -2.0900
  464MOL0     H61217  10.337   6.661   9.148 -1.3746 -1.1280 -0.7236
  464MOL0     H61218  10.229   6.727   8.949 -0.4384  1.0856 -1.5143
  464MOL0     H61219  10.331   6.877   8.944  0.4875  0.5324  2.2622
  464MOL0     H61220  10.185   6.939   9.154 -3.6719  0.9570  0.3329
  464MOL0     H61221  10.105   6.920   8.998 -0.1208 -0.5784 -1.1155
  464MOL0     H61222  10.153   6.707   9.215  0.6239 -0.9675 -0.5027
  464MOL0     H61223  10.046   6.684   9.079  0.3406  1.9141 -0.9138
  464MOL0     H61224   9.890   6.850   9.141 -0.0635 -0.2926 -0.6355
  464MOL0     H61225   9.994   6.919   9.258  0.4794  0.3618 -0.4987
  464MOL0     H61226   9.928   6.629   9.331 -2.9543 -1.5478  1.3752
  464MOL0     H61227   9.940   6.763   9.438 -0.1258 -0.2199  0.4443
  464MOL0     H61228   9.700   6.683   9.424  3.2871  0.7453  1.9338
  464MOL0     H61229   9.718   6.681   9.244  1.7114 -2.3067  0.8654
  464MOL0     H61230  10.775   6.694   8.960  2.1523  0.9440  0.6843
  464MOL0     H61231  10.974   6.592   8.904  0.8535 -2.3216 -0.4071
  464MOL0     H61232  11.204   6.119   8.997  1.2651  0.7552  0.8660
  464MOL0     H61233  11.409   5.995   8.924  1.0628  1.2363 -0.1510
  464MOL0     H61234  11.474   5.874   9.730  3.2097 -1.6577 -1.7289
  464MOL0     H61235  11.339   6.084   9.783 -0.1307  0.3296  2.0337
  464MOL0     H61236  11.539   6.557   9.911  0.2767 -0.4093  1.0910
  464MOL0     H61237  11.477   6.782   9.925 -2.6858  2.8942  1.8548
  464MOL0     H61238  11.067   6.860   9.851 -2.6576 -1.8452  3.9854
  464MOL0     H61239  11.115   7.031   9.861  0.6545 -0.0052 -0.8827
  464MOL0     H61240  10.916   6.991   9.990 -1.7819 -3.4606 -0.3702
  464MOL0     H61241  10.975   6.850  10.064  2.0569 -0.5697  0.8966
  464MOL0     H61242  11.095   7.126  10.108  0.5251 -0.7891 -0.3484
  464MOL0     H61243  11.132   6.978  10.189  3.1769  2.3642 -0.6970
  464MOL0     H61244  10.867   7.137  10.192  2.1127  2.0247  1.7734
  464MOL0     H61245  10.880   6.979  10.274 -0.8931  1.1837  3.6441
  464MOL0     H61246  11.101   7.172  10.554  1.0062 -1.0970 -0.3387
  464MOL0     H61247  11.063   6.667   9.985  0.8996 -0.4044  1.1882
  464MOL0     H61248  11.128   6.435   9.980  0.4622 -0.8338  0.0745
  465MOL0     O61249   9.279   2.834   2.745  0.1956  0.0372  0.5725
  465MOL0     C61250   9.168   2.852   2.786  0.6686  0.1091  0.0213
  465MOL0     O61251   9.119   2.842   2.912  0.1774  0.4615 -0.1189
  465MOL0     C61252   9.205   2.872   3.009  0.5239  0.1362 -0.4734
  465MOL0     C61253   9.260   2.994   3.012 -0.0546 -0.6185  0.1068
  465MOL0     C61254   9.361   3.025   3.108 -0.0163 -0.7749 -0.0688
  465MOL0     C61255   9.407   2.934   3.202  0.2571  0.4540 -0.5255
  465MOL0     O61256   9.497   2.963   3.295  0.2783  0.0985 -0.1833
  465MOL0     C61257   9.630   2.941   3.241 -0.8647 -0.5619 -0.0744
  465MOL0     C61258   9.741   3.026   3.299  0.6842  0.2712  0.7879
  465MOL0     C61259   9.886   2.996   3.247 -0.2622  0.0817 -0.2427
  465MOL0     C61260   9.955   2.894   3.341  0.1595  0.4337  0.3576
  465MOL0     C61261  10.094   2.861   3.296 -0.0791  0.2548  0.0849
  465MOL0     C61262  10.203   2.974   3.339 -0.2988  0.6295  0.2067
  465MOL0     C61263  10.346   2.931   3.306 -0.4884  0.3491  0.0071
  465MOL0     C61264  10.407   2.835   3.412  0.0410  0.4133 -0.0973
  465MOL0     N61265  10.554   2.804   3.403 -0.2229 -0.3639 -0.0462
  465MOL0     C61266  10.612   2.706   3.479  0.0059  0.0450  0.1104
  465MOL0     C61267  10.743   2.721   3.465 -1.1238  0.0531 -0.6565
  465MOL0     C61268  10.857   2.624   3.506 -0.2759  0.2958 -0.0933
  465MOL0     C61269  10.879   2.575   3.653  0.1278 -0.6900 -0.8788
  465MOL0     C61270  10.979   2.463   3.659  0.1588  0.3095  0.0582
  465MOL0     C61271  10.978   2.390   3.792 -0.6026 -1.1039  0.6137
  465MOL0     O61272  11.034   2.457   3.902 -0.1423 -0.3356  0.9644
  465MOL0     C61273  11.037   2.389   4.019  0.7554  0.4406 -0.1960
  465MOL0     C61274  11.053   2.462   4.136  0.6605 -0.4892 -0.0091
  465MOL0     C61275  11.064   2.405   4.256  0.5652  0.0442  0.0513
  465MOL0     C61276  11.056   2.264   4.272  0.4117  0.3996  0.5247
  465MOL0     C61277  11.073   2.190   4.408 -0.1539  0.7895  0.3072
  465MOL0     O61278  11.083   2.058   4.405  0.1077 -0.5464  0.3616
  465MOL0     C61279  11.077   1.975   4.511 -0.4575  0.4403 -0.6507
  465MOL0     C61280  11.053   1.842   4.479  0.6073  1.2088  0.2548
  465MOL0     C61281  11.025   1.744   4.573  0.4522  0.1473 -0.2693
  465MOL0     C61282  11.022   1.776   4.710  0.0817  0.1535  0.4936
  465MOL0     O61283  10.999   1.691   4.812  0.2322 -0.0846  0.0315
  465MOL0     C61284  10.963   1.551   4.785  0.0264  0.1219  0.3308
  465MOL0     C61285  10.922   1.484   4.913 -0.1050  0.6064 -0.4291
  465MOL0     C61286  11.015   1.503   5.041  0.0785 -0.4698 -0.4703
  465MOL0     C61287  10.989   1.390   5.144 -0.1456 -0.7866  0.1838
  465MOL0     C61288  10.862   1.424   5.224  0.4816 -0.1509  0.0859
  465MOL0     C61289  10.827   1.323   5.336 -0.4229 -0.3427  0.0075
  465MOL0     C61290  10.709   1.380   5.418 -0.0348  0.6741 -0.3999
  465MOL0     C61291  10.627   1.276   5.492  0.0935  0.1676 -1.0251
  465MOL0    Cl61292  10.717   1.218   5.637 -0.3557 -0.4304  0.1253
  465MOL0     C61293  11.057   1.903   4.752  0.5486 -0.1937  0.1832
  465MOL0     C61294  11.088   1.997   4.653  0.2234  0.4532 -0.2224
  465MOL0     O61295  11.069   2.255   4.513  0.1896 -0.0868  0.4058
  465MOL0     C61296  11.043   2.190   4.159 -0.3601 -0.0078 -0.2086
  465MOL0     C61297  11.034   2.251   4.037 -0.1196  0.3412  0.0775
  465MOL0     N61298  10.761   2.839   3.391  0.5130 -0.9055  0.6779
  465MOL0     N61299  10.650   2.885   3.347  0.3068  1.1326  0.0505
  465MOL0     C61300   9.346   2.807   3.201  0.3554  0.1193 -0.8522
  465MOL0     C61301   9.236   2.774   3.109 -0.6045 -0.2660 -1.5829
  465MOL0     C61302   9.072   2.866   2.676  0.5685 -0.1728  0.1708
  465MOL0     C61303   8.932   2.882   2.700 -0.0907  1.3438  0.2900
  465MOL0     C61304   8.838   2.894   2.596 -0.5187 -0.0558  0.5145
  465MOL0     C61305   8.876   2.900   2.463 -0.0566 -0.3183 -0.6589
  465MOL0     O61306   8.782   2.917   2.367 -0.2876  0.0840  1.2412
  465MOL0     C61307   8.822   2.927   2.232 -0.0786 -0.0803 -0.5609
  465MOL0     C61308   8.710   2.986   2.150 -0.3005 -0.4952 -0.8190
  465MOL0     C61309   8.681   3.133   2.192 -1.3262  0.3664 -0.0345
  465MOL0     C61310   8.758   3.232   2.100  0.4057  0.9190 -0.2284
  465MOL0     C61311   8.906   3.251   2.140 -0.1167 -1.2301 -0.9598
  465MOL0     C61312   9.019   3.270   2.168  0.1623  0.9013  0.5755
  465MOL0     C61313   9.016   2.884   2.436 -0.3610  0.1939 -1.1200
  465MOL0     C61314   9.108   2.871   2.541 -0.1306  0.7009 -0.0849
  465MOL0     H61315   9.242   3.076   2.944  1.6418  0.9105  1.3775
  465MOL0     H61316   9.403   3.124   3.118 -0.8935 -0.5360  1.6375
  465MOL0     H61317   9.638   2.955   3.133  0.4868 -1.5490 -0.1240
  465MOL0     H61318   9.649   2.836   3.266 -2.0432 -0.6333  0.6099
  465MOL0     H61319   9.745   3.012   3.407 -0.9049  0.8833  0.9489
  465MOL0     H61320   9.703   3.125   3.274  2.1721  0.2040 -2.2563
  465MOL0     H61321   9.941   3.090   3.238  1.1559 -0.6053  0.8536
  465MOL0     H61322   9.883   2.956   3.145 -2.3579  0.4514 -0.3660
  465MOL0     H61323   9.955   2.931   3.443 -0.4205  2.4262 -0.3127
  465MOL0     H61324   9.908   2.796   3.328  0.3413  0.7315 -4.1110
  465MOL0     H61325  10.084   2.855   3.188 -0.0821  0.3573  0.0796
  465MOL0     H61326  10.115   2.760   3.334 -3.6042 -0.5630  0.1884
  465MOL0     H61327  10.198   2.998   3.446  4.9547 -3.0931  1.7235
  465MOL0     H61328  10.180   3.070   3.291 -4.4477  0.6175  1.7943
  465MOL0     H61329  10.347   2.878   3.210  0.4629 -1.8127  1.1383
  465MOL0     H61330  10.405   3.023   3.311 -2.8461  1.9995 -0.4297
  465MOL0     H61331  10.358   2.738   3.409 -2.2312  1.5171 -0.5596
  465MOL0     H61332  10.389   2.869   3.514  0.2952 -1.2164  0.5232
  465MOL0     H61333  10.561   2.620   3.522  0.2047 -1.0115 -1.6744
  465MOL0     H61334  10.952   2.665   3.470  1.7152 -3.5109  0.3474
  465MOL0     H61335  10.839   2.527   3.459  3.0352 -0.9025  0.8682
  465MOL0     H61336  10.784   2.549   3.699 -0.8256 -0.4457 -2.6033
  465MOL0     H61337  10.924   2.655   3.711 -3.8902  0.4399  0.9922
  465MOL0     H61338  10.961   2.383   3.586 -0.2206 -0.0889  0.5784
  465MOL0     H61339  11.078   2.507   3.642 -1.0163  3.5554  0.8602
  465MOL0     H61340  11.020   2.292   3.771  3.0767  0.1015  1.5575
  465MOL0     H61341  10.869   2.388   3.804 -0.6344  1.5873  1.5345
  465MOL0     H61342  11.062   2.568   4.119 -1.4320 -0.6852 -3.0337
  465MOL0     H61343  11.085   2.462   4.346 -2.5666 -1.3712  1.8487
  465MOL0     H61344  11.062   1.823   4.372  1.5167 -2.2357  0.8160
  465MOL0     H61345  10.993   1.645   4.542  0.5170  0.3222 -0.9103
  465MOL0     H61346  11.050   1.500   4.742  1.4924  1.3774  1.6801
  465MOL0     H61347  10.884   1.545   4.709  1.9549 -0.9712 -1.7115
  465MOL0     H61348  10.914   1.376   4.897  2.9459  0.4237 -1.4784
  465MOL0     H61349  10.819   1.512   4.935 -1.8526 -1.1635 -5.0875
  465MOL0     H61350  11.003   1.603   5.085  1.1895 -1.5164  2.4527
  465MOL0     H61351  11.115   1.494   4.999  0.2263 -1.4159  0.0663
  465MOL0     H61352  11.000   1.293   5.095 -1.9954 -1.5705  1.2370
  465MOL0     H61353  11.076   1.404   5.209 -2.2742  0.9682  2.8658
  465MOL0     H61354  10.784   1.417   5.147  2.5856 -2.1204 -2.0323
  465MOL0     H61355  10.883   1.526   5.257  2.7429 -0.2410 -0.8542
  465MOL0     H61356  10.915   1.310   5.400  0.1901 -0.0599 -0.7633
  465MOL0     H61357  10.804   1.226   5.292  1.8142 -1.1040  0.4004
  465MOL0     H61358  10.773   1.444   5.481 -1.0380  1.1423  0.1630
  465MOL0     H61359  10.640   1.443   5.362 -4.9102 -4.4514 -0.9791
  465MOL0     H61360  10.600   1.198   5.421 -3.2480  0.2046  0.0379
  465MOL0     H61361  10.530   1.318   5.518  1.3552  1.8080  1.5400
  465MOL0     H61362  11.060   1.919   4.859 -1.7064  2.2618 -0.0220
  465MOL0     H61363  11.104   2.099   4.686 -0.9911  0.3364  0.8423
  465MOL0     H61364  11.030   2.083   4.168  0.0362 -0.2984 -2.4443
  465MOL0     H61365  11.043   2.185   3.951  1.6814  3.9849 -2.7727
  465MOL0     H61366   9.386   2.737   3.274 -1.3777  1.2578  1.3285
  465MOL0     H61367   9.192   2.675   3.111 -1.9755  0.1991  3.3770
  465MOL0     H61368   8.884   2.877   2.797 -0.0626  0.7313  0.2784
  465MOL0     H61369   8.731   2.910   2.604 -0.8771 -0.8637 -1.9654
  465MOL0     H61370   8.832   2.823   2.200 -2.8650 -0.5779 -0.0986
  465MOL0     H61371   8.914   2.984   2.218  1.0673 -2.3693 -3.3145
  465MOL0     H61372   8.728   2.977   2.042 -0.6697 -0.5899 -0.8738
  465MOL0     H61373   8.620   2.931   2.175 -3.7941  4.2855 -1.4426
  465MOL0     H61374   8.703   3.147   2.298  0.6367 -0.7635 -0.2518
  465MOL0     H61375   8.572   3.146   2.187 -1.4373  1.4215  3.1018
  465MOL0     H61376   8.760   3.183   2.002  2.9051  3.1468 -1.4388
  465MOL0     H61377   8.699   3.324   2.099 -2.3434 -0.7452 -0.2020
  465MOL0     H61378   9.122   3.277   2.194  1.0227 -1.4476 -1.7327
  465MOL0     H61379   9.048   2.895   2.333  0.7004 -1.7502 -1.0506
  465MOL0     H61380   9.213   2.872   2.513 -0.5808 -0.2125 -1.9834
  466MOL0     O61381   3.233   8.605   6.342 -0.1677  0.5390 -1.2229
  466MOL0     C61382   3.177   8.505   6.368  0.1899  0.3246  0.6041
  466MOL0     O61383   3.040   8.486   6.367 -0.6759  0.0373 -0.0927
  466MOL0     C61384   2.976   8.601   6.322  0.3351  0.3687 -0.4352
  466MOL0     C61385   2.885   8.666   6.411  0.0297  0.1053  0.1732
  466MOL0     C61386   2.791   8.762   6.372 -1.2867 -0.3795 -0.3108
  466MOL0     C61387   2.803   8.814   6.246  0.1620  0.1322  0.5144
  466MOL0     O61388   2.702   8.899   6.209  0.5157 -0.4622 -0.0737
  466MOL0     C61389   2.714   9.038   6.255  1.4938  0.7456  0.3744
  466MOL0     C61390   2.819   9.099   6.170 -0.7875 -0.1607  0.3222
  466MOL0     C61391   2.827   9.256   6.173 -0.9205 -0.4745 -0.5031
  466MOL0     C61392   2.847   9.310   6.319  0.5063  0.1038  0.1074
  466MOL0     C61393   2.897   9.458   6.312 -0.3406  0.9568  0.3295
  466MOL0     C61394   2.817   9.560   6.219 -0.3053  0.0314 -0.4012
  466MOL0     C61395   2.670   9.563   6.246 -0.4911  0.0769  0.2867
  466MOL0     C61396   2.634   9.644   6.379  0.1851  0.1276  0.2469
  466MOL0     N61397   2.496   9.626   6.415  0.1840 -0.4381 -0.0353
  466MOL0     C61398   2.434   9.523   6.490  0.3166 -1.7942  1.4308
  466MOL0     C61399   2.295   9.540   6.467 -0.2191 -0.4282  0.4665
  466MOL0     C61400   2.182   9.458   6.524 -0.6952  0.1351 -0.0795
  466MOL0     C61401   2.228   9.309   6.558  0.5336 -0.3930 -0.4346
  466MOL0     C61402   2.108   9.221   6.567 -0.3078  0.0441  0.1107
  466MOL0     C61403   2.152   9.087   6.623  0.8835 -0.3248 -0.4204
  466MOL0     O61404   2.223   9.022   6.520 -0.3371  0.5083  0.2597
  466MOL0     C61405   2.252   8.887   6.531 -0.8928  0.2162  0.3424
  466MOL0     C61406   2.350   8.851   6.449 -0.8870  0.7177  0.8204
  466MOL0     C61407   2.403   8.718   6.449 -0.1754  0.5379  1.0191
  466MOL0     C61408   2.357   8.616   6.531 -0.4529 -0.6234 -0.5052
  466MOL0     C61409   2.432   8.488   6.546  0.4961 -0.3874  1.5170
  466MOL0     O61410   2.503   8.442   6.440 -0.9115  0.1852  0.4854
  466MOL0     C61411   2.578   8.330   6.451  0.1849  0.1407 -0.4132
  466MOL0     C61412   2.712   8.340   6.404  0.4604 -0.2878 -0.1358
  466MOL0     C61413   2.801   8.232   6.395  0.7905  0.2713  0.8854
  466MOL0     C61414   2.755   8.101   6.436  0.3968 -1.0813  0.1348
  466MOL0     O61415   2.819   7.976   6.436 -0.4413  0.7110  0.2105
  466MOL0     C61416   2.956   7.962   6.404  0.1474 -0.0770  0.1784
  466MOL0     C61417   2.994   7.805   6.393  0.1249 -0.2935 -0.7181
  466MOL0     C61418   3.144   7.777   6.367  0.5042 -0.8375  0.2302
  466MOL0     C61419   3.235   7.831   6.475 -0.1486 -0.5457 -0.6948
  466MOL0     C61420   3.352   7.738   6.486  0.1908  1.3671 -0.2461
  466MOL0     C61421   3.336   7.613   6.571 -0.0319  0.1268 -0.2094
  466MOL0     C61422   3.443   7.526   6.563  0.4225 -0.0950  0.2308
  466MOL0     C61423   3.560   7.568   6.646 -0.6031  0.9401 -0.8680
  466MOL0    Cl61424   3.699   7.463   6.602 -0.1143 -0.1520  0.2769
  466MOL0     C61425   2.626   8.092   6.486  0.1044  0.7457 -0.1385
  466MOL0     C61426   2.535   8.204   6.494 -0.2992  0.1572  0.0558
  466MOL0     O61427   2.416   8.435   6.659 -0.2652  0.0643 -0.3484
  466MOL0     C61428   2.245   8.657   6.614 -0.3347 -0.5510 -0.9203
  466MOL0     C61429   2.192   8.787   6.614  1.1651 -0.6546 -0.4239
  466MOL0     N61430   2.282   9.648   6.375  0.1279 -0.4669 -0.5978
  466MOL0     N61431   2.401   9.695   6.354 -0.3198  0.5607  0.3740
  466MOL0     C61432   2.888   8.747   6.153  0.2822 -0.8533 -0.2471
  466MOL0     C61433   2.962   8.640   6.191 -0.6097 -0.1337  0.3566
  466MOL0     C61434   3.246   8.389   6.413 -0.8027  0.1773  0.3252
  466MOL0     C61435   3.390   8.391   6.405  1.3683  0.5700  0.3302
  466MOL0     C61436   3.460   8.291   6.469  0.9138  0.5235 -0.7955
  466MOL0     C61437   3.402   8.184   6.534  0.4828 -0.8208 -0.4659
  466MOL0     O61438   3.467   8.074   6.587 -0.2467  0.4771  0.0365
  466MOL0     C61439   3.587   8.093   6.656 -0.6973 -0.3404  0.7719
  466MOL0     C61440   3.698   7.995   6.595  0.0084  0.5772  0.2531
  466MOL0     C61441   3.812   7.985   6.696 -0.4498  0.0435 -0.0795
  466MOL0     C61442   3.863   7.835   6.708  0.5229 -0.7223 -0.7710
  466MOL0     C61443   3.802   7.761   6.817  0.2105  0.4471  0.3032
  466MOL0     C61444   3.754   7.690   6.906  0.0592  1.3407 -0.1321
  466MOL0     C61445   3.261   8.178   6.534  0.3324  0.4620 -0.8051
  466MOL0     C61446   3.181   8.272   6.476 -0.0028  0.0385 -0.0302
  466MOL0     H61447   2.891   8.621   6.509  0.6362  1.5101  0.8139
  466MOL0     H61448   2.732   8.812   6.448  1.9548  0.4347  1.8655
  466MOL0     H61449   2.736   9.040   6.362 -3.8640 -0.4301  1.8085
  466MOL0     H61450   2.617   9.084   6.234 -0.0720 -1.9858  1.0935
  466MOL0     H61451   2.792   9.071   6.068  1.8860 -0.7418 -0.3086
  466MOL0     H61452   2.920   9.064   6.197 -0.2590  1.4473  0.5445
  466MOL0     H61453   2.734   9.292   6.128 -0.7873 -1.3052 -1.4753
  466MOL0     H61454   2.909   9.292   6.112 -1.9733  2.1061 -0.5287
  466MOL0     H61455   2.752   9.302   6.374 -0.4002  1.5104 -1.1794
  466MOL0     H61456   2.921   9.253   6.376  0.5510  0.3395  0.2899
  466MOL0     H61457   3.001   9.469   6.282 -0.3875  1.9246  0.4926
  466MOL0     H61458   2.887   9.501   6.412 -1.0469  2.0794 -0.1973
  466MOL0     H61459   2.836   9.528   6.116  0.3718 -2.2616  0.3709
  466MOL0     H61460   2.859   9.661   6.229  2.6629 -1.1913  0.4761
  466MOL0     H61461   2.613   9.605   6.163  1.4293 -0.3183 -1.3016
  466MOL0     H61462   2.639   9.460   6.268 -0.5901 -0.0294 -0.3512
  466MOL0     H61463   2.660   9.750   6.372 -3.3215  1.3917  3.3002
  466MOL0     H61464   2.699   9.609   6.460 -0.8873  0.3525  1.2223
  466MOL0     H61465   2.474   9.452   6.562  4.6244 -3.7023 -2.3483
  466MOL0     H61466   2.104   9.452   6.449 -2.7466  0.2782  1.9332
  466MOL0     H61467   2.138   9.508   6.611  1.9169  1.6604  0.5077
  466MOL0     H61468   2.287   9.309   6.651  0.6146 -1.8115 -0.4588
  466MOL0     H61469   2.290   9.264   6.480  3.8312 -0.9228  2.2227
  466MOL0     H61470   2.037   9.276   6.629  0.9224  0.4124  1.2390
  466MOL0     H61471   2.074   9.208   6.463  2.2956 -0.0458 -0.8060
  466MOL0     H61472   2.062   9.034   6.656 -0.2343  2.0698  0.6503
  466MOL0     H61473   2.217   9.110   6.708  0.7489 -1.0984 -0.1031
  466MOL0     H61474   2.403   8.905   6.372 -3.0842 -0.7290 -1.8902
  466MOL0     H61475   2.483   8.688   6.382 -2.0354 -2.6662  0.0465
  466MOL0     H61476   2.738   8.442   6.376  1.3203  0.3722  2.7705
  466MOL0     H61477   2.903   8.262   6.373  0.3459 -0.1165 -2.0338
  466MOL0     H61478   3.028   8.013   6.469  0.8866 -1.5880  0.5853
  466MOL0     H61479   2.977   8.018   6.312  0.9716 -0.2824  0.2334
  466MOL0     H61480   2.929   7.754   6.321 -1.2361 -0.7389  0.7701
  466MOL0     H61481   2.965   7.771   6.493 -1.6984  0.5413 -0.9406
  466MOL0     H61482   3.173   7.836   6.279  0.3828  1.4436  1.6298
  466MOL0     H61483   3.157   7.670   6.351  1.5313 -0.9524  1.6215
  466MOL0     H61484   3.284   7.925   6.448  3.1990 -2.2798 -1.2096
  466MOL0     H61485   3.183   7.847   6.570  0.9674 -4.6978  0.8457
  466MOL0     H61486   3.443   7.793   6.512  1.7780 -1.2432  0.1063
  466MOL0     H61487   3.380   7.706   6.385  3.2903 -1.8237  1.3751
  466MOL0     H61488   3.247   7.555   6.545  1.0000 -2.9717  2.5076
  466MOL0     H61489   3.315   7.649   6.672 -0.4621 -2.8680  0.8574
  466MOL0     H61490   3.397   7.436   6.603 -0.6382  0.5587  0.5108
  466MOL0     H61491   3.467   7.501   6.459  2.2410 -1.6690  0.9668
  466MOL0     H61492   3.551   7.551   6.753  1.0712 -1.7737 -1.0813
  466MOL0     H61493   3.591   7.672   6.628 -0.7938  1.1508 -0.0066
  466MOL0     H61494   2.590   7.990   6.498 -3.5841  1.8105 -0.8366
  466MOL0     H61495   2.439   8.198   6.544  0.5426  0.9341  1.8799
  466MOL0     H61496   2.212   8.595   6.696  2.3462  1.3551  1.8352
  466MOL0     H61497   2.117   8.823   6.685 -0.4194 -1.8137 -1.4268
  466MOL0     H61498   2.889   8.777   6.049  1.8182 -1.5337 -0.4542
  466MOL0     H61499   3.014   8.603   6.103 -0.6678 -0.0165  0.2733
  466MOL0     H61500   3.447   8.470   6.356  5.3103 -1.6153  1.0241
  466MOL0     H61501   3.568   8.300   6.474  0.9064  1.3474 -1.9367
  466MOL0     H61502   3.567   8.083   6.763 -1.5835 -1.4625  0.5283
  466MOL0     H61503   3.627   8.193   6.641 -2.5470  0.2401 -0.6566
  466MOL0     H61504   3.648   7.899   6.584 -1.2926  1.2714 -0.0405
  466MOL0     H61505   3.726   8.029   6.495 -2.8857 -1.1311 -1.2677
  466MOL0     H61506   3.767   8.008   6.793  1.3986 -0.8323  1.0296
  466MOL0     H61507   3.899   8.043   6.662 -0.4144 -0.8727 -1.6362
  466MOL0     H61508   3.848   7.780   6.615 -1.5258  0.2656 -1.0663
  466MOL0     H61509   3.971   7.835   6.728  0.3050  0.4943  0.5355
  466MOL0     H61510   3.695   7.646   6.983 -2.9504  1.2173 -2.3488
  466MOL0     H61511   3.222   8.093   6.588 -0.1416  0.2135 -1.5327
  466MOL0     H61512   3.072   8.271   6.482  0.0820 -0.6306  4.1008
  467MOL0     O61513  10.120   2.644   3.597  0.1771 -0.2117  1.0312
  467MOL0     C61514  10.077   2.534   3.639 -0.2372  0.1055 -0.4561
  467MOL0     O61515   9.939   2.500   3.660 -0.3860  0.2851  0.3598
  467MOL0     C61516   9.837   2.592   3.646  0.1303  0.4311  0.3867
  467MOL0     C61517   9.810   2.689   3.746  0.5616  1.3773  0.9225
  467MOL0     C61518   9.706   2.781   3.721 -1.2648  0.7574 -0.1525
  467MOL0     C61519   9.636   2.782   3.604  0.6164 -0.1183 -0.5374
  467MOL0     O61520   9.527   2.871   3.588 -0.4523  0.3721 -0.3838
  467MOL0     C61521   9.454   2.904   3.710 -0.8270  0.0077 -0.2239
  467MOL0     C61522   9.318   2.971   3.689 -0.1908  0.2756  1.2877
  467MOL0     C61523   9.251   2.996   3.819  0.5677 -0.8539  0.6146
  467MOL0     C61524   9.093   3.017   3.799 -0.4086  0.5282  0.4188
  467MOL0     C61525   9.066   3.160   3.749  0.6262 -1.1893  0.2272
  467MOL0     C61526   8.926   3.207   3.698  0.0828  0.4017  0.3537
  467MOL0     C61527   8.819   3.235   3.812 -0.5494 -0.2504 -0.0826
  467MOL0     C61528   8.665   3.258   3.769  0.2255 -0.3115 -0.1358
  467MOL0     N61529   8.601   3.131   3.733 -0.4809 -0.0717 -0.7349
  467MOL0     C61530   8.518   3.057   3.815  0.4502  0.4326  0.0895
  467MOL0     C61531   8.461   2.978   3.731  0.2656  0.2167  0.4951
  467MOL0     C61532   8.355   2.873   3.743 -0.1571 -0.1324  0.2037
  467MOL0     C61533   8.397   2.751   3.823  0.1748 -0.2168 -0.1610
  467MOL0     C61534   8.502   2.671   3.740  0.6600  0.0389 -0.2307
  467MOL0     C61535   8.538   2.552   3.836 -0.0167 -0.7447  0.6058
  467MOL0     O61536   8.639   2.473   3.764  0.0916  0.1436  0.2809
  467MOL0     C61537   8.697   2.364   3.827 -0.8254  0.0065  0.3003
  467MOL0     C61538   8.667   2.327   3.961  0.5210 -0.7725  0.8869
  467MOL0     C61539   8.727   2.223   4.030 -0.4575 -0.0415  1.1642
  467MOL0     C61540   8.817   2.137   3.947  0.3660  0.1558 -0.8865
  467MOL0     C61541   8.886   2.024   4.003  0.6529  0.2134 -0.4687
  467MOL0     O61542   8.867   1.999   4.138  0.5893  0.8615  0.3588
  467MOL0     C61543   8.917   1.885   4.189 -0.0374  0.5824  0.1299
  467MOL0     C61544   8.824   1.805   4.259  0.1733 -0.6258  0.9643
  467MOL0     C61545   8.876   1.693   4.332  0.0554  0.0894 -0.0195
  467MOL0     C61546   9.015   1.665   4.333  0.0147  0.4216 -0.8090
  467MOL0     O61547   9.051   1.548   4.399  0.3553  1.0878  0.3576
  467MOL0     C61548   9.184   1.490   4.412  0.1885 -0.5440  0.7684
  467MOL0     C61549   9.192   1.336   4.400 -0.0083  0.8809  0.5773
  467MOL0     C61550   9.322   1.274   4.444  0.2913 -0.3010  0.2931
  467MOL0     C61551   9.310   1.252   4.592 -0.4466  0.3074 -0.5155
  467MOL0     C61552   9.417   1.161   4.650  0.7474 -0.1751  0.2425
  467MOL0     C61553   9.428   1.174   4.798  0.1851  0.4370  0.7575
  467MOL0     C61554   9.300   1.130   4.863 -0.5190 -0.0658 -0.4725
  467MOL0     C61555   9.294   1.129   5.025  0.3237  0.0600  0.2099
  467MOL0    Cl61556   9.182   1.021   5.099 -0.0465 -0.1053 -0.5476
  467MOL0     C61557   9.107   1.753   4.276  0.3251 -1.0576 -0.1145
  467MOL0     C61558   9.055   1.857   4.191  0.0700  0.0855  0.7852
  467MOL0     O61559   8.954   1.957   3.927  0.2017  0.0408 -0.2554
  467MOL0     C61560   8.827   2.158   3.807  0.2890 -0.1865  0.1906
  467MOL0     C61561   8.776   2.275   3.751 -0.4850 -0.7210  0.2734
  467MOL0     N61562   8.507   3.000   3.596 -0.6084 -0.0225  0.2224
  467MOL0     N61563   8.601   3.085   3.608 -0.2318 -0.4972 -0.2728
  467MOL0     C61564   9.656   2.685   3.507  0.0712 -0.8333  0.2214
  467MOL0     C61565   9.752   2.590   3.530 -1.1307 -0.0772  0.2565
  467MOL0     C61566  10.176   2.432   3.653  0.6481  0.1453  0.4777
  467MOL0     C61567  10.311   2.455   3.618  0.6424  0.0231  1.0825
  467MOL0     C61568  10.414   2.363   3.634  0.6699  0.0640 -0.6318
  467MOL0     C61569  10.379   2.231   3.677 -0.2442  0.7074  0.5601
  467MOL0     O61570  10.464   2.122   3.696  0.3741 -0.2467 -0.3283
  467MOL0     C61571  10.602   2.142   3.686 -0.9977 -0.0962  0.4048
  467MOL0     C61572  10.673   2.009   3.749  0.0599 -0.3299 -0.1839
  467MOL0     C61573  10.831   2.020   3.752  0.5521 -0.2549 -0.2298
  467MOL0     C61574  10.893   1.894   3.801 -0.5680  0.3406 -0.6532
  467MOL0     C61575  10.898   1.886   3.945 -0.3466 -0.3296 -0.5749
  467MOL0     C61576  10.898   1.882   4.064  0.0685  0.3108 -0.0482
  467MOL0     C61577  10.246   2.205   3.716  0.3440 -1.1329 -0.7003
  467MOL0     C61578  10.141   2.306   3.710 -0.2680 -0.3938  0.1908
  467MOL0     H61579   9.879   2.689   3.830  2.8010 -1.0525 -0.7383
  467MOL0     H61580   9.698   2.862   3.792 -0.0047  1.8377 -1.1807
  467MOL0     H61581   9.520   2.967   3.769  0.7137 -1.7702  0.0644
  467MOL0     H61582   9.437   2.810   3.763 -2.1318 -0.0355 -0.6899
  467MOL0     H61583   9.265   2.903   3.622  0.1880  1.0231  0.2060
  467MOL0     H61584   9.334   3.061   3.629  2.7894 -0.2759  1.1206
  467MOL0     H61585   9.304   3.077   3.871 -0.4058 -1.7558  3.1362
  467MOL0     H61586   9.269   2.908   3.880  1.4445 -2.3596 -1.6951
  467MOL0     H61587   9.054   2.945   3.727 -0.3743  0.2383  0.6886
  467MOL0     H61588   9.037   3.000   3.891 -0.2850 -2.0027  0.0753
  467MOL0     H61589   9.133   3.176   3.664  1.6382  1.5040  1.4299
  467MOL0     H61590   9.103   3.239   3.814  2.6142 -0.2900 -1.8882
  467MOL0     H61591   8.879   3.128   3.640 -1.5631  0.9667  0.8725
  467MOL0     H61592   8.944   3.285   3.624  0.1824 -0.6250 -0.7247
  467MOL0     H61593   8.808   3.162   3.893 -3.5346 -0.1769 -0.3020
  467MOL0     H61594   8.851   3.315   3.879 -3.0626  0.0044  0.9328
  467MOL0     H61595   8.662   3.325   3.682  0.1313  1.2140  0.9923
  467MOL0     H61596   8.608   3.308   3.848 -0.6459  1.3177 -1.7174
  467MOL0     H61597   8.513   3.067   3.922 -0.1342  0.7757  0.0287
  467MOL0     H61598   8.333   2.839   3.641 -2.6500 -4.1304  1.8705
  467MOL0     H61599   8.272   2.924   3.794  0.0061 -1.0485  1.4149
  467MOL0     H61600   8.311   2.684   3.827 -1.5644  1.8992  3.2267
  467MOL0     H61601   8.425   2.777   3.925 -0.6860  0.1103  0.0053
  467MOL0     H61602   8.454   2.629   3.651  0.0885 -3.5799  1.5892
  467MOL0     H61603   8.590   2.729   3.709  1.5659 -1.1173  0.1135
  467MOL0     H61604   8.452   2.488   3.858 -1.4892  0.6319 -0.8415
  467MOL0     H61605   8.575   2.589   3.932  0.3910  0.5175 -0.0184
  467MOL0     H61606   8.596   2.389   4.015  2.9420  1.5433  1.6030
  467MOL0     H61607   8.712   2.196   4.135  0.7481 -0.5851  1.2119
  467MOL0     H61608   8.719   1.832   4.260  0.6080  1.2144  0.5059
  467MOL0     H61609   8.809   1.624   4.383  3.8386 -3.4518  0.7289
  467MOL0     H61610   9.207   1.505   4.518  1.6508 -0.4929  0.4616
  467MOL0     H61611   9.257   1.543   4.351 -1.4191  2.1676  1.0717
  467MOL0     H61612   9.180   1.303   4.297  1.5087  1.7573  0.0979
  467MOL0     H61613   9.104   1.295   4.451 -1.4178  0.6139 -1.9177
  467MOL0     H61614   9.411   1.336   4.428 -0.4621  1.2995  1.9893
  467MOL0     H61615   9.336   1.184   4.383  2.2412  1.6133 -2.3784
  467MOL0     H61616   9.304   1.343   4.653  0.5590 -1.2776  2.1055
  467MOL0     H61617   9.219   1.200   4.623  0.7323 -0.6163  1.5476
  467MOL0     H61618   9.515   1.195   4.614  0.9191 -0.6828  0.2336
  467MOL0     H61619   9.409   1.061   4.607  1.1746  0.7310 -2.1017
  467MOL0     H61620   9.456   1.275   4.830 -1.1675  0.7275  1.0820
  467MOL0     H61621   9.517   1.118   4.826  1.1091  1.6274  0.2881
  467MOL0     H61622   9.205   1.170   4.827  0.1105 -0.8932 -3.3016
  467MOL0     H61623   9.299   1.023   4.837 -1.3593  0.0597 -0.9847
  467MOL0     H61624   9.266   1.228   5.061  2.7538  0.9159 -0.1307
  467MOL0     H61625   9.392   1.102   5.064  0.0307 -1.9518 -0.3174
  467MOL0     H61626   9.214   1.743   4.285  0.6814  2.5553  1.1846
  467MOL0     H61627   9.125   1.915   4.132 -0.3622 -0.2282 -0.0547
  467MOL0     H61628   8.893   2.091   3.754  0.2470 -0.6677  0.7325
  467MOL0     H61629   8.789   2.285   3.644 -2.0377 -3.5543 -0.2833
  467MOL0     H61630   9.603   2.702   3.414 -1.0448  0.5581  1.0683
  467MOL0     H61631   9.768   2.513   3.455  3.3061  1.1711 -0.3653
  467MOL0     H61632  10.344   2.542   3.562 -2.7223 -0.3703 -1.8302
  467MOL0     H61633  10.519   2.377   3.608  0.8028  1.1373  0.3865
  467MOL0     H61634  10.641   2.220   3.752  3.9735 -1.3658 -0.6024
  467MOL0     H61635  10.647   2.163   3.588 -0.3193 -2.7282  0.0731
  467MOL0     H61636  10.634   2.010   3.851 -0.3881 -0.1893 -0.3513
  467MOL0     H61637  10.652   1.913   3.703  0.3454 -1.1611  1.3589
  467MOL0     H61638  10.874   2.096   3.817 -1.9987  0.4783  0.7469
  467MOL0     H61639  10.861   2.047   3.651  0.2566 -1.5511 -0.6842
  467MOL0     H61640  10.859   1.799   3.760  1.9209 -0.2509 -1.5727
  467MOL0     H61641  10.995   1.904   3.762 -0.5735  0.9222 -0.5230
  467MOL0     H61642  10.881   1.871   4.169  1.0880 -1.7910 -0.0482
  467MOL0     H61643  10.223   2.106   3.754 -1.7814  0.0184  1.2010
  467MOL0     H61644  10.042   2.295   3.752 -1.3829  2.7652 -1.3164
  468MOL0     O61645  10.376   8.290   5.344  0.6457 -0.3100  0.1627
  468MOL0     C61646  10.444   8.192   5.319 -0.2141 -0.4175 -0.0063
  468MOL0     O61647  10.577   8.197   5.306 -0.0648  0.5568 -0.0811
  468MOL0     C61648  10.642   8.102   5.229  0.0733 -0.3132  0.0845
  468MOL0     C61649  10.630   8.110   5.091  0.4022  0.0124  0.3308
  468MOL0     C61650  10.701   8.027   4.998  0.8286  0.2336 -0.6105
  468MOL0     C61651  10.785   7.933   5.059 -0.1559 -0.0353  0.4872
  468MOL0     O61652  10.845   7.832   4.992  0.4609 -0.1259 -0.1452
  468MOL0     C61653  10.983   7.788   5.018  0.0439 -0.3932  0.3862
  468MOL0     C61654  11.019   7.702   4.888  0.0629  0.0778 -0.0440
  468MOL0     C61655  11.161   7.650   4.900  0.0961 -0.4389  0.1878
  468MOL0     C61656  11.199   7.569   4.773 -0.3066 -0.2639  1.0421
  468MOL0     C61657  11.337   7.488   4.776  1.2149  0.3219  0.4720
  468MOL0     C61658  11.360   7.404   4.648  0.7963 -0.6931 -1.0734
  468MOL0     C61659  11.480   7.300   4.670  1.0982  0.1469 -1.0634
  468MOL0     C61660  11.622   7.361   4.655 -1.4472  0.2985  0.4892
  468MOL0     N61661  11.727   7.256   4.665  0.9159 -0.9957  0.0460
  468MOL0     C61662  11.750   7.153   4.570  0.9314 -0.2592  0.0012
  468MOL0     C61663  11.860   7.084   4.622  1.2420 -0.1959 -0.5751
  468MOL0     C61664  11.926   6.974   4.561  0.1832  0.6571 -0.0307
  468MOL0     C61665  11.948   6.861   4.668 -0.0138  0.6220 -0.1972
  468MOL0     C61666  11.947   6.722   4.594  0.1887 -0.7329 -0.1429
  468MOL0     C61667  11.948   6.595   4.686  0.1790 -0.2294 -0.0815
  468MOL0     O61668  11.806   6.552   4.715  0.6317 -0.1192 -0.9783
  468MOL0     C61669  11.755   6.452   4.649 -0.2522 -0.0708 -0.1991
  468MOL0     C61670  11.812   6.381   4.534  0.2660  0.8196 -1.2189
  468MOL0     C61671  11.723   6.296   4.466 -0.6117  0.0452 -0.1077
  468MOL0     C61672  11.602   6.275   4.518  0.2428  0.1972 -0.1483
  468MOL0     C61673  11.502   6.182   4.449 -0.3741  0.4082  0.4050
  468MOL0     O61674  11.361   6.175   4.477 -0.1413 -0.3694 -0.3066
  468MOL0     C61675  11.294   6.062   4.419 -1.2127  0.4650 -0.3592
  468MOL0     C61676  11.243   5.965   4.509  0.1873 -0.1985  0.5221
  468MOL0     C61677  11.197   5.843   4.468  0.2883 -0.0041 -0.2696
  468MOL0     C61678  11.176   5.824   4.325 -0.3433 -0.1440  0.3502
  468MOL0     O61679  11.127   5.706   4.285  0.0604 -0.1491 -0.0622
  468MOL0     C61680  10.996   5.714   4.223 -0.6677  0.5808 -0.3653
  468MOL0     C61681  10.877   5.714   4.323  0.1432 -0.5386 -0.0103
  468MOL0     C61682  10.868   5.583   4.413  0.2002 -0.0171  0.3322
  468MOL0     C61683  10.852   5.451   4.335  0.0478  0.1554 -0.5689
  468MOL0     C61684  10.825   5.329   4.428  0.7079  0.7441  0.1591
  468MOL0     C61685  10.950   5.269   4.470  0.1882  0.2487 -0.5376
  468MOL0     C61686  10.936   5.136   4.551  0.1962 -0.4837 -0.5387
  468MOL0     C61687  11.059   5.041   4.556  0.4339  0.5315  0.0147
  468MOL0    Cl61688  11.021   4.904   4.664  0.1784  0.1480  0.4162
  468MOL0     C61689  11.225   5.922   4.238 -0.1702  0.0681  0.2776
  468MOL0     C61690  11.277   6.039   4.281 -0.7700 -0.1978 -0.9122
  468MOL0     O61691  11.559   6.104   4.362 -0.0241  0.2550 -0.4627
  468MOL0     C61692  11.552   6.334   4.636  0.9940  0.1721  0.1090
  468MOL0     C61693  11.634   6.422   4.700 -0.0155 -0.4974 -0.2515
  468MOL0     N61694  11.897   7.152   4.744 -0.2628 -0.4654  0.4516
  468MOL0     N61695  11.824   7.256   4.757 -0.4991 -0.0822 -0.6105
  468MOL0     C61696  10.784   7.920   5.199 -0.1684 -0.2452  0.5082
  468MOL0     C61697  10.716   8.006   5.284 -0.4984  0.5643  1.0075
  468MOL0     C61698  10.357   8.085   5.275  0.2671 -0.0227 -0.3480
  468MOL0     C61699  10.308   8.080   5.136 -0.0766 -0.0229  0.3080
  468MOL0     C61700  10.236   7.968   5.097 -0.3494 -0.1819  0.6861
  468MOL0     C61701  10.216   7.865   5.189 -0.4510  0.2344 -0.0559
  468MOL0     O61702  10.152   7.752   5.165 -0.0342 -0.7312  0.4514
  468MOL0     C61703  10.102   7.721   5.038 -0.1880 -0.9881  0.1126
  468MOL0     C61704  10.073   7.573   5.036  0.0959  0.3050  0.5105
  468MOL0     C61705  10.202   7.487   5.035  0.3036 -0.4556  0.0744
  468MOL0     C61706  10.174   7.347   4.972  0.6463 -1.1249 -0.9305
  468MOL0     C61707  10.079   7.265   5.064 -0.2032  0.1939 -0.3877
  468MOL0     C61708   9.995   7.207   5.135 -0.1840  0.5578 -0.0546
  468MOL0     C61709  10.251   7.872   5.321 -0.2671  0.1429  0.1943
  468MOL0     C61710  10.320   7.986   5.368  0.0386  0.5400 -0.0688
  468MOL0     H61711  10.558   8.181   5.053  0.5673 -0.6114 -1.2616
  468MOL0     H61712  10.671   8.028   4.894 -0.4112 -1.1459 -0.3164
  468MOL0     H61713  10.992   7.730   5.110 -1.4262 -0.1196  0.7368
  468MOL0     H61714  11.048   7.875   5.018 -0.3791 -0.0518  1.8985
  468MOL0     H61715  11.000   7.760   4.797  1.3464 -0.6852 -0.8202
  468MOL0     H61716  10.952   7.617   4.878  1.2701 -0.7663 -1.3122
  468MOL0     H61717  11.166   7.591   4.992 -3.6749  1.9346  2.1826
  468MOL0     H61718  11.237   7.728   4.904  1.8016 -1.7054 -3.2792
  468MOL0     H61719  11.123   7.496   4.745 -1.1407  0.5876  1.0546
  468MOL0     H61720  11.202   7.640   4.690 -0.8838  1.5015  2.4778
  468MOL0     H61721  11.330   7.413   4.855  0.8650 -0.2402 -0.0746
  468MOL0     H61722  11.423   7.550   4.803  1.1633  0.3441  0.5846
  468MOL0     H61723  11.392   7.466   4.563 -1.0229  1.4844 -0.2859
  468MOL0     H61724  11.267   7.355   4.617  0.1096 -0.0780 -0.0695
  468MOL0     H61725  11.470   7.258   4.770  1.2368  0.0163 -1.1050
  468MOL0     H61726  11.469   7.227   4.590 -0.9810  0.0280 -0.7322
  468MOL0     H61727  11.650   7.439   4.726  0.9054 -0.2749  0.2641
  468MOL0     H61728  11.622   7.397   4.551  0.2184 -1.9603 -0.3723
  468MOL0     H61729  11.700   7.121   4.479 -0.6275  2.6285 -0.2557
  468MOL0     H61730  12.019   7.012   4.518  1.1495 -0.2059  1.2350
  468MOL0     H61731  11.864   6.949   4.474  0.7796  1.9456 -0.8554
  468MOL0     H61732  11.866   6.854   4.741  0.3688 -0.3134  0.1528
  468MOL0     H61733  12.039   6.865   4.728  0.8156 -3.1222 -0.9117
  468MOL0     H61734  11.862   6.726   4.525 -0.1446  2.1292  0.3166
  468MOL0     H61735  12.038   6.718   4.534 -1.5846  0.0347 -3.1070
  468MOL0     H61736  12.005   6.605   4.778  3.5882 -1.7917 -1.8453
  468MOL0     H61737  11.997   6.511   4.635  1.7334  1.1684 -0.9672
  468MOL0     H61738  11.908   6.403   4.489  0.7551  2.5326  0.5827
  468MOL0     H61739  11.771   6.231   4.394  0.3422 -3.8443  3.6130
  468MOL0     H61740  11.252   5.986   4.615 -3.0573  0.0264  0.8472
  468MOL0     H61741  11.173   5.766   4.540  1.5024  0.5327  0.7659
  468MOL0     H61742  10.982   5.629   4.156  1.8180  0.6347 -1.0386
  468MOL0     H61743  10.989   5.805   4.162  1.3322  0.5846 -0.6638
  468MOL0     H61744  10.794   5.700   4.252 -0.0581 -4.5961  0.8101
  468MOL0     H61745  10.878   5.804   4.385  3.5352 -1.9509  2.2417
  468MOL0     H61746  10.786   5.594   4.484 -2.0734 -0.0892 -2.1452
  468MOL0     H61747  10.957   5.565   4.474 -1.3801 -4.4024  1.7204
  468MOL0     H61748  10.765   5.465   4.269  0.2121  5.0796 -0.0828
  468MOL0     H61749  10.944   5.443   4.277 -1.6568 -3.1521 -3.2026
  468MOL0     H61750  10.777   5.260   4.359 -2.1676  2.4911  0.2533
  468MOL0     H61751  10.757   5.352   4.510  0.2329 -0.2448  0.0500
  468MOL0     H61752  10.993   5.350   4.530 -1.8279 -0.1217  1.5283
  468MOL0     H61753  11.015   5.248   4.384 -0.3151  0.7895 -1.0648
  468MOL0     H61754  10.909   5.172   4.651  0.3622  1.7485 -1.2296
  468MOL0     H61755  10.849   5.088   4.506 -0.1128 -0.8366  0.4195
  468MOL0     H61756  11.149   5.076   4.607  0.8333 -2.9399  1.9854
  468MOL0     H61757  11.070   5.001   4.455 -0.9894  1.4091 -0.5111
  468MOL0     H61758  11.236   5.903   4.132  1.1125 -2.4798  0.7835
  468MOL0     H61759  11.322   6.107   4.210 -0.9713  0.4370 -0.4495
  468MOL0     H61760  11.465   6.298   4.690  2.1903 -1.3110  1.1331
  468MOL0     H61761  11.613   6.484   4.787  1.6707 -0.8005  0.4165
  468MOL0     H61762  10.858   7.858   5.251  0.2124 -2.5425 -2.5195
  468MOL0     H61763  10.722   7.996   5.392 -2.1139 -1.5891  0.9518
  468MOL0     H61764  10.336   8.169   5.080  1.7411 -0.8631 -0.1985
  468MOL0     H61765  10.204   7.953   4.995 -0.0670 -2.6516  0.9046
  468MOL0     H61766  10.178   7.746   4.963 -1.5336 -0.7753 -1.2466
  468MOL0     H61767  10.006   7.764   5.006  0.3648 -1.8435 -2.9854
  468MOL0     H61768  10.011   7.539   5.119  0.3436 -0.2333  0.4824
  468MOL0     H61769  10.020   7.550   4.943  0.3747 -5.5336  1.4091
  468MOL0     H61770  10.236   7.475   5.138  1.0438  1.0620  0.0376
  468MOL0     H61771  10.274   7.539   4.970 -1.0644 -1.3746 -2.3175
  468MOL0     H61772  10.129   7.371   4.875 -1.0394  2.1539  0.5196
  468MOL0     H61773  10.271   7.297   4.959  2.9502  2.9363 -1.1398
  468MOL0     H61774   9.912   7.162   5.186  0.0208  0.6627  0.3781
  468MOL0     H61775  10.229   7.783   5.379 -0.6421 -0.3588 -0.6955
  468MOL0     H61776  10.327   7.991   5.476  1.1801  0.6376 -0.1359
  469MOL0     O61777   1.464   1.248   9.387  1.0041 -0.6883  0.4837
  469MOL0     C61778   1.410   1.191   9.484 -0.5496 -0.5947  0.2910
  469MOL0     O61779   1.470   1.167   9.606  0.0980  0.5002 -0.0556
  469MOL0     C61780   1.592   1.229   9.629  0.4821  0.0541  0.5124
  469MOL0     C61781   1.705   1.163   9.594 -0.0012 -0.6479  0.2804
  469MOL0     C61782   1.833   1.210   9.638 -0.3320  0.2545 -1.2164
  469MOL0     C61783   1.843   1.329   9.711  0.8204 -0.1232 -0.2926
  469MOL0     O61784   1.964   1.375   9.769 -0.5817  0.4122 -0.3412
  469MOL0     C61785   2.024   1.493   9.704 -0.1056  0.4983  0.3742
  469MOL0     C61786   2.157   1.516   9.761  0.2406  0.9620  0.1736
  469MOL0     C61787   2.262   1.401   9.743 -1.1269  0.2141  0.5448
  469MOL0     C61788   2.403   1.468   9.738 -0.5378  0.0755 -0.2649
  469MOL0     C61789   2.439   1.558   9.862  0.1052  0.0349  0.2446
  469MOL0     C61790   2.461   1.477   9.999  0.3721  0.2897  1.0576
  469MOL0     C61791   2.530   1.567  10.098  1.1036  0.7645  0.3603
  469MOL0     C61792   2.558   1.499  10.230 -0.7540  0.1810 -0.0688
  469MOL0     N61793   2.446   1.436  10.292 -0.1019  0.2304 -0.0875
  469MOL0     C61794   2.447   1.308  10.343  0.5259  0.4907  0.0151
  469MOL0     C61795   2.331   1.294  10.415 -0.4530 -1.4647  0.1645
  469MOL0     C61796   2.278   1.179  10.487  0.0881 -0.1631 -0.8346
  469MOL0     C61797   2.382   1.096  10.559  0.2800  0.2316  0.3853
  469MOL0     C61798   2.310   0.972  10.624 -0.3393  0.6294 -0.6580
  469MOL0     C61799   2.219   0.999  10.730  0.2941 -0.6823 -0.7120
  469MOL0     O61800   2.162   0.877  10.779  1.1585 -0.0791 -0.4113
  469MOL0     C61801   2.235   0.774  10.831  0.1105 -0.1788  0.1165
  469MOL0     C61802   2.358   0.794  10.890 -0.4716 -0.5851  0.6568
  469MOL0     C61803   2.435   0.686  10.951  0.1340 -0.0541  0.3683
  469MOL0     C61804   2.390   0.557  10.947 -0.3530 -0.4116 -0.5140
  469MOL0     C61805   2.472   0.447  10.996 -0.3149 -1.1936  0.1255
  469MOL0     O61806   2.594   0.486  11.037 -0.9466 -0.7248  0.7567
  469MOL0     C61807   2.686   0.386  11.046 -0.4269 -0.1186 -0.5597
  469MOL0     C61808   2.670   0.284  11.141 -0.6900 -0.0616 -0.1344
  469MOL0     C61809   2.774   0.202  11.179  0.3706 -0.8339  0.0019
  469MOL0     C61810   2.904   0.227  11.124 -1.3245  0.4602  0.3988
  469MOL0     O61811   3.007   0.154  11.176  0.7308  0.5036 -0.1537
  469MOL0     C61812   3.130   0.123  11.104  0.7454  0.8776  0.2306
  469MOL0     C61813   3.248   0.215  11.121 -0.7350 -0.7142 -0.3774
  469MOL0     C61814   3.385   0.155  11.134  0.5984  0.1771 -0.8671
  469MOL0     C61815   3.410   0.059  11.248 -0.2448 -0.0318 -0.1895
  469MOL0     C61816   3.560   0.009  11.247  1.2568  0.1017  0.1146
  469MOL0     C61817   3.591  -0.098  11.353  0.2324 -0.1296  0.0937
  469MOL0     C61818   3.643  -0.044  11.485 -0.3857 -0.4002  0.0618
  469MOL0     C61819   3.639  -0.144  11.606  0.3614  0.2909  0.1629
  469MOL0    Cl61820   3.798  -0.234  11.608 -0.1884  0.6073 -0.1603
  469MOL0     C61821   2.919   0.317  11.020 -0.4136 -0.1853  0.2202
  469MOL0     C61822   2.807   0.396  10.979  0.2051 -0.0702 -0.3926
  469MOL0     O61823   2.442   0.332  10.985 -0.4763  0.0506 -0.1487
  469MOL0     C61824   2.265   0.533  10.892  0.8212  0.2872 -0.0417
  469MOL0     C61825   2.194   0.639  10.832 -0.2901  0.5844  0.9292
  469MOL0     N61826   2.263   1.413  10.387  0.6274  1.1851  0.1463
  469MOL0     N61827   2.328   1.492  10.320  0.3523 -0.0779  0.4697
  469MOL0     C61828   1.723   1.400   9.736 -1.1177 -0.3418  0.0419
  469MOL0     C61829   1.596   1.357   9.695  0.1502 -0.5429  0.6089
  469MOL0     C61830   1.271   1.141   9.458 -0.0977  0.2171 -1.0692
  469MOL0     C61831   1.206   1.059   9.550 -0.5103 -0.1034  0.3909
  469MOL0     C61832   1.072   1.043   9.562  0.3829  0.2873  0.8797
  469MOL0     C61833   0.996   1.103   9.466  0.3774  0.0699 -0.0664
  469MOL0     O61834   0.859   1.076   9.473  0.4378 -0.9239 -0.6556
  469MOL0     C61835   0.783   1.116   9.363  0.1629  0.0394 -0.6577
  469MOL0     C61836   0.641   1.054   9.382  0.8023 -0.1670  0.0585
  469MOL0     C61837   0.526   1.128   9.326  0.5104 -1.1597 -0.7654
  469MOL0     C61838   0.387   1.079   9.359  0.2089 -0.7248  0.0597
  469MOL0     C61839   0.358   0.954   9.281  0.5550  0.4159 -0.0995
  469MOL0     C61840   0.341   0.856   9.213  0.1161 -0.9963 -1.1304
  469MOL0     C61841   1.056   1.169   9.365 -0.7721 -0.4910  0.0040
  469MOL0     C61842   1.199   1.197   9.354  1.3649 -1.3114 -0.2297
  469MOL0     H61843   1.689   1.070   9.541  1.9795 -1.2959  0.7282
  469MOL0     H61844   1.928   1.167   9.609 -0.0178  1.4087 -1.9334
  469MOL0     H61845   1.963   1.581   9.726  0.2656  0.8175  0.1353
  469MOL0     H61846   2.020   1.493   9.595  1.0584 -2.4518  0.2403
  469MOL0     H61847   2.139   1.513   9.869  0.2183 -0.6220  0.1472
  469MOL0     H61848   2.187   1.615   9.723 -2.0248  0.9801 -1.7851
  469MOL0     H61849   2.249   1.346   9.649  0.1953 -0.5818  0.7920
  469MOL0     H61850   2.264   1.335   9.830  1.4321  1.2655  1.3708
  469MOL0     H61851   2.470   1.382   9.735 -1.7317 -0.8644 -0.4018
  469MOL0     H61852   2.411   1.528   9.646  0.5713  1.5037  0.7214
  469MOL0     H61853   2.360   1.631   9.881 -1.8196 -1.2797 -2.1860
  469MOL0     H61854   2.534   1.609   9.838  2.0458 -3.0698  0.7955
  469MOL0     H61855   2.524   1.390   9.977  1.0436  1.1352 -0.5243
  469MOL0     H61856   2.364   1.436  10.026  0.2516 -0.8292 -0.9025
  469MOL0     H61857   2.621   1.601  10.049  1.5233  0.4486  0.9159
  469MOL0     H61858   2.472   1.657  10.122  1.3252  0.6032  1.5185
  469MOL0     H61859   2.604   1.570  10.300 -0.9348 -0.1709  0.4155
  469MOL0     H61860   2.630   1.417  10.226 -2.5692 -1.6685  2.0877
  469MOL0     H61861   2.518   1.226  10.336 -0.4178 -0.2009 -2.3920
  469MOL0     H61862   2.232   1.115  10.411 -2.2910  1.3127 -0.7776
  469MOL0     H61863   2.196   1.216  10.550 -1.4157 -1.6038 -1.8472
  469MOL0     H61864   2.431   1.152  10.640 -0.7788  0.7291  0.7077
  469MOL0     H61865   2.451   1.067  10.480 -0.9670  1.4027 -1.1949
  469MOL0     H61866   2.252   0.920  10.548 -0.3322 -1.4998  0.7210
  469MOL0     H61867   2.400   0.920  10.657 -0.3992  1.1901  0.4237
  469MOL0     H61868   2.146   1.063  10.678 -0.4955  0.2047  1.3960
  469MOL0     H61869   2.274   1.061  10.801  0.7203 -0.5700 -1.1343
  469MOL0     H61870   2.392   0.894  10.913 -0.0088 -0.6198  0.1481
  469MOL0     H61871   2.529   0.722  10.991 -0.6106 -1.2575  3.4899
  469MOL0     H61872   2.581   0.291  11.203  1.3244 -0.0457  2.9362
  469MOL0     H61873   2.758   0.144  11.269 -1.6257  1.5644  1.3239
  469MOL0     H61874   3.107   0.103  10.999 -0.1377 -2.2209  0.9188
  469MOL0     H61875   3.156   0.024  11.141 -3.2295 -1.2434 -1.9193
  469MOL0     H61876   3.239   0.287  11.203  1.7614  1.9851 -2.2413
  469MOL0     H61877   3.251   0.286  11.037 -1.2191  3.3206  2.7198
  469MOL0     H61878   3.463   0.231  11.127  0.2542  0.5181 -1.0266
  469MOL0     H61879   3.398   0.094  11.044 -2.1648  0.5355 -1.5862
  469MOL0     H61880   3.385   0.113  11.340 -0.0481 -2.2373  1.2412
  469MOL0     H61881   3.347  -0.030  11.241  2.0872 -1.6879 -1.6128
  469MOL0     H61882   3.631   0.091  11.265 -0.3121  0.8612  3.5504
  469MOL0     H61883   3.573  -0.037  11.149  0.2480  1.2139 -0.5555
  469MOL0     H61884   3.672  -0.159  11.313  0.5971  1.6565 -2.1570
  469MOL0     H61885   3.514  -0.175  11.364 -0.2628  0.4693  0.9528
  469MOL0     H61886   3.748  -0.014  11.478 -0.3674 -0.4676  0.0529
  469MOL0     H61887   3.593   0.049  11.514 -1.0084 -0.4924 -0.6690
  469MOL0     H61888   3.559  -0.217  11.592  0.2451  0.5737 -0.6902
  469MOL0     H61889   3.630  -0.095  11.704 -0.7226  1.3011 -0.4113
  469MOL0     H61890   3.014   0.338  10.974 -0.2479 -0.9020  0.2235
  469MOL0     H61891   2.828   0.474  10.906  0.5475 -1.0583 -1.3903
  469MOL0     H61892   2.228   0.432  10.876  0.9656 -0.1695  2.1953
  469MOL0     H61893   2.099   0.631  10.780 -1.2607  2.3243  2.3012
  469MOL0     H61894   1.738   1.490   9.794  0.7247 -0.6891  0.1915
  469MOL0     H61895   1.510   1.418   9.721 -0.8484 -1.0891 -1.2420
  469MOL0     H61896   1.263   1.035   9.639 -1.9801 -1.6724  0.9627
  469MOL0     H61897   1.019   0.982   9.634 -2.4370 -0.5624 -1.7002
  469MOL0     H61898   0.834   1.077   9.275 -0.4396 -2.6220  0.0948
  469MOL0     H61899   0.772   1.225   9.360 -0.9260 -0.0567 -0.5860
  469MOL0     H61900   0.635   0.955   9.338 -0.3504 -1.6695  3.2299
  469MOL0     H61901   0.616   1.045   9.489 -0.4689  2.4010  0.0709
  469MOL0     H61902   0.530   1.147   9.218  3.6331  1.6240 -0.3569
  469MOL0     H61903   0.541   1.228   9.368 -2.1061 -1.7810  1.9586
  469MOL0     H61904   0.387   1.067   9.468  1.2075  0.1055  0.1672
  469MOL0     H61905   0.312   1.151   9.326 -1.2927 -1.4026  1.8293
  469MOL0     H61906   0.327   0.757   9.173  0.0718 -1.8977  0.9841
  469MOL0     H61907   0.996   1.212   9.285 -1.2735 -0.6003  0.3168
  469MOL0     H61908   1.230   1.241   9.260  0.6931  1.5537  0.8024
  470MOL0     O61909   8.734  10.125   8.239  0.0996  0.3759  0.2507
  470MOL0     C61910   8.734  10.232   8.289 -0.5271 -0.1211 -1.2639
  470MOL0     O61911   8.726  10.255   8.427 -0.1232  0.0899  0.5772
  470MOL0     C61912   8.743  10.148   8.508  0.0569 -0.4077  0.6817
  470MOL0     C61913   8.640  10.079   8.567 -0.4171  1.0777 -0.0501
  470MOL0     C61914   8.663   9.962   8.649  0.1491  0.5825  0.2360
  470MOL0     C61915   8.798   9.934   8.676  0.5764  0.3296 -0.1273
  470MOL0     O61916   8.833   9.828   8.760  1.0333  0.6475  0.1085
  470MOL0     C61917   8.870   9.847   8.900  0.0997 -0.0526  0.1497
  470MOL0     C61918   8.947   9.720   8.943 -0.6028  0.7900 -0.1559
  470MOL0     C61919   9.091   9.760   8.929 -0.1345  0.6068  0.5094
  470MOL0     C61920   9.157   9.771   8.792 -0.3052 -0.2717  0.6815
  470MOL0     C61921   9.309   9.762   8.786  0.4371  1.0330 -0.1834
  470MOL0     C61922   9.370   9.788   8.650 -0.1011 -0.3361 -0.0964
  470MOL0     C61923   9.372   9.933   8.627 -0.6101 -0.2225 -0.2288
  470MOL0     C61924   9.425   9.974   8.482 -0.1775  0.5448 -0.4787
  470MOL0     N61925   9.459  10.116   8.470  0.5435  0.9306  0.7739
  470MOL0     C61926   9.565  10.173   8.536 -0.1474 -0.5734 -0.4683
  470MOL0     C61927   9.545  10.307   8.525  0.1111  0.9201  0.3601
  470MOL0     C61928   9.629  10.426   8.561 -0.8238 -0.9193  0.2124
  470MOL0     C61929   9.774  10.406   8.496  0.3147 -0.7531  0.2240
  470MOL0     C61930   9.861  10.305   8.571 -0.4689  0.3634 -0.3590
  470MOL0     C61931  10.009  10.328   8.527  0.2018 -0.3875  0.2835
  470MOL0     O61932  10.088  10.252   8.627  0.5492 -0.0501  0.4512
  470MOL0     C61933  10.224  10.272   8.620 -0.7798  0.9972 -0.2517
  470MOL0     C61934  10.287  10.363   8.524  0.0287 -0.0006 -0.2285
  470MOL0     C61935  10.434  10.358   8.509  1.0198  0.2786 -0.6960
  470MOL0     C61936  10.508  10.282   8.599 -0.2677 -0.5509 -0.7489
  470MOL0     C61937  10.658  10.286   8.600  0.0237  0.0687  0.1135
  470MOL0     O61938  10.715  10.263   8.716  0.4444 -0.3281 -0.5751
  470MOL0     C61939  10.851  10.265   8.710 -0.5564 -0.7584  0.1499
  470MOL0     C61940  10.927  10.153   8.716 -0.0150  0.6237  0.1887
  470MOL0     C61941  11.061  10.159   8.695  0.7126 -0.6744 -0.3235
  470MOL0     C61942  11.133  10.273   8.680 -0.6423 -0.7149 -0.5772
  470MOL0     O61943  11.273  10.258   8.685  0.6153 -0.4566  0.5565
  470MOL0     C61944  11.348  10.371   8.726 -0.7310 -0.0078 -0.9174
  470MOL0     C61945  11.496  10.355   8.707  0.0483 -0.6296 -0.0375
  470MOL0     C61946  11.569  10.489   8.753  0.2369  0.9536 -0.2977
  470MOL0     C61947  11.719  10.476   8.747 -0.0080  0.4671 -0.6819
  470MOL0     C61948  11.768  10.609   8.785 -0.0891 -0.5710  0.1901
  470MOL0     C61949  11.911  10.618   8.833 -0.5540  0.8565  0.2506
  470MOL0     C61950  12.015  10.573   8.727  0.2605  0.9146  0.4829
  470MOL0     C61951  12.156  10.596   8.758  0.0929 -0.6709  0.5726
  470MOL0    Cl61952  12.244  10.568   8.602 -0.2975  0.3153  0.3620
  470MOL0     C61953  11.065  10.392   8.685 -0.2804 -0.5673 -0.1271
  470MOL0     C61954  10.924  10.394   8.702  0.5145 -0.0108 -1.0908
  470MOL0     O61955  10.716  10.302   8.497  0.2791 -0.2464  0.1113
  470MOL0     C61956  10.444  10.208   8.695  0.6959 -0.0073 -0.4119
  470MOL0     C61957  10.306  10.198   8.704  0.5877  0.4471 -0.0366
  470MOL0     N61958   9.413  10.322   8.466  0.8464  0.1090 -0.9705
  470MOL0     N61959   9.367  10.207   8.438  0.4213 -0.0101 -0.4384
  470MOL0     C61960   8.898  10.008   8.618  0.1468 -0.2001 -1.2380
  470MOL0     C61961   8.877  10.119   8.543  0.1044  0.3397  0.5147
  470MOL0     C61962   8.732  10.338   8.194 -0.2050 -0.6661  0.1099
  470MOL0     C61963   8.715  10.471   8.242  0.1267  0.3912 -0.0970
  470MOL0     C61964   8.703  10.577   8.153  0.6729 -0.1459  0.3527
  470MOL0     C61965   8.690  10.549   8.011  1.0060 -0.6562 -0.8297
  470MOL0     O61966   8.668  10.650   7.925 -0.1855  0.6306  0.1790
  470MOL0     C61967   8.774  10.658   7.829 -0.4058 -0.4343  0.1792
  470MOL0     C61968   8.882  10.769   7.862  1.1329  0.6358  0.2871
  470MOL0     C61969   8.821  10.908   7.889 -0.0165 -0.4427  0.4663
  470MOL0     C61970   8.727  10.956   7.775  0.3037 -0.9295 -0.6388
  470MOL0     C61971   8.753  11.101   7.753 -0.4152 -0.7768 -0.2566
  470MOL0     C61972   8.772  11.220   7.736 -1.3207  0.1661  0.2220
  470MOL0     C61973   8.707  10.413   7.964  0.2843 -0.4686  0.1280
  470MOL0     C61974   8.729  10.310   8.049 -0.1416 -0.0868  0.0271
  470MOL0     H61975   8.538  10.100   8.536 -0.6581  1.7463  1.1681
  470MOL0     H61976   8.580   9.909   8.696  0.4209  1.3736  1.6595
  470MOL0     H61977   8.783   9.870   8.962  0.4296  1.4788  0.0932
  470MOL0     H61978   8.937   9.934   8.896 -0.9657  0.7856 -0.1348
  470MOL0     H61979   8.923   9.637   8.875  1.8854  1.6159 -2.2061
  470MOL0     H61980   8.922   9.691   9.045 -4.6954 -2.0744 -1.6969
  470MOL0     H61981   9.145   9.684   8.987  0.4434 -0.9329 -1.9206
  470MOL0     H61982   9.104   9.855   8.982 -1.1793 -1.0490  4.1178
  470MOL0     H61983   9.116   9.692   8.728 -1.3870  1.4990 -0.9349
  470MOL0     H61984   9.129   9.868   8.749 -1.1541 -0.8189 -0.0417
  470MOL0     H61985   9.330   9.656   8.802 -2.1742  0.3038 -1.0577
  470MOL0     H61986   9.352   9.830   8.861 -3.0968  2.5915  0.6672
  470MOL0     H61987   9.326   9.728   8.570 -2.7902  1.6994 -0.2778
  470MOL0     H61988   9.476   9.762   8.644 -0.2582 -0.9938 -0.1813
  470MOL0     H61989   9.278   9.986   8.646 -0.6841 -0.1782 -0.7258
  470MOL0     H61990   9.440   9.969   8.705  0.5051  0.9913 -1.7128
  470MOL0     H61991   9.356   9.947   8.401  3.4985 -1.1479 -3.3711
  470MOL0     H61992   9.512   9.912   8.458 -0.7178 -1.0838  1.4754
  470MOL0     H61993   9.645  10.120   8.587  0.7505  0.1011 -1.1497
  470MOL0     H61994   9.638  10.437   8.669 -1.7897  2.0755  0.0813
  470MOL0     H61995   9.594  10.525   8.529 -0.0076 -0.5273  0.4911
  470MOL0     H61996   9.815  10.507   8.498 -0.9445 -0.2233 -0.0030
  470MOL0     H61997   9.757  10.380   8.391 -0.1709 -0.7345  0.2968
  470MOL0     H61998   9.861  10.329   8.678 -0.9712  2.5801 -0.7991
  470MOL0     H61999   9.828  10.204   8.544 -0.3536  0.3513 -0.4511
  470MOL0     H62000  10.031  10.435   8.520  0.8447 -0.6092 -2.6836
  470MOL0     H62001  10.015  10.284   8.427  2.1399 -0.8906  0.5945
  470MOL0     H62002  10.222  10.422   8.460  0.7960  0.5384 -0.5193
  470MOL0     H62003  10.487  10.431   8.449 -1.0028  3.2978  0.9129
  470MOL0     H62004  10.886  10.054   8.733 -0.4527  0.8339  0.3485
  470MOL0     H62005  11.120  10.067   8.699 -0.8060 -1.7293 -1.2351
  470MOL0     H62006  11.324  10.388   8.831  3.2404  3.4322 -0.2990
  470MOL0     H62007  11.329  10.462   8.668  2.8176  1.4818  0.0433
  470MOL0     H62008  11.518  10.330   8.603  0.8112  2.2068 -0.6521
  470MOL0     H62009  11.522  10.271   8.772  1.7431 -2.5966 -3.0624
  470MOL0     H62010  11.541  10.493   8.859 -1.1098 -0.1303 -0.5888
  470MOL0     H62011  11.533  10.574   8.694  1.9837  0.4589 -2.1719
  470MOL0     H62012  11.763  10.398   8.811 -1.7119 -0.4220 -0.5112
  470MOL0     H62013  11.737  10.450   8.643 -3.1308 -0.6316 -1.0739
  470MOL0     H62014  11.714  10.645   8.874  0.0607 -2.2400  1.0110
  470MOL0     H62015  11.759  10.666   8.692  3.0215 -1.0939 -0.5224
  470MOL0     H62016  11.916  10.555   8.923  1.5597  1.6668  0.7618
  470MOL0     H62017  11.933  10.724   8.844 -1.3153  1.0402  0.0166
  470MOL0     H62018  12.007  10.465   8.711  0.1315  0.4685  3.0209
  470MOL0     H62019  11.984  10.621   8.634  1.5966  0.2948 -0.2951
  470MOL0     H62020  12.191  10.522   8.830 -1.1840  1.3158  3.4103
  470MOL0     H62021  12.179  10.696   8.796  1.0148 -0.6110 -0.0917
  470MOL0     H62022  11.122  10.481   8.661  0.9564 -1.2110  0.3016
  470MOL0     H62023  10.871  10.485   8.725 -0.3794 -1.5362  4.2624
  470MOL0     H62024  10.500  10.148   8.766 -0.8147 -2.4635 -1.1727
  470MOL0     H62025  10.257  10.139   8.780  0.4958 -2.2848 -2.0562
  470MOL0     H62026   8.997   9.978   8.652 -0.2892 -0.6127 -0.2921
  470MOL0     H62027   8.957  10.183   8.509 -1.0215  2.3945  1.5128
  470MOL0     H62028   8.721  10.496   8.347  1.2661 -0.3015  0.0299
  470MOL0     H62029   8.697  10.683   8.179 -4.1969  0.2881 -1.4594
  470MOL0     H62030   8.723  10.689   7.737 -1.0941 -0.7901  0.4326
  470MOL0     H62031   8.818  10.559   7.812 -0.6715 -1.3508  3.9306
  470MOL0     H62032   8.943  10.733   7.945 -0.5670 -2.0807  0.5124
  470MOL0     H62033   8.936  10.785   7.769 -1.6432  2.1943 -1.1949
  470MOL0     H62034   8.904  10.977   7.906 -0.6267 -0.4456  4.0328
  470MOL0     H62035   8.779  10.908   7.990 -0.4883  0.3568  0.2840
  470MOL0     H62036   8.745  10.894   7.687 -0.6940 -1.7761 -0.2697
  470MOL0     H62037   8.621  10.938   7.796  0.0756 -1.6172 -2.2254
  470MOL0     H62038   8.791  11.325   7.723  3.6876 -0.1556  2.4411
  470MOL0     H62039   8.711  10.385   7.860  0.2107  2.1786 -0.6615
  470MOL0     H62040   8.751  10.214   8.004  2.0846  0.8632 -1.0519
  471MOL0     O62041   5.058   0.855   8.851 -0.2282  0.3134 -0.7600
  471MOL0     C62042   5.092   0.908   8.743 -0.0596 -0.1993  0.1657
  471MOL0     O62043   5.037   1.014   8.690  0.5266  0.7647 -0.9363
  471MOL0     C62044   5.000   1.127   8.765  0.0183 -0.1608  0.1808
  471MOL0     C62045   4.923   1.130   8.884  0.4773 -0.0485 -0.4978
  471MOL0     C62046   4.910   1.247   8.961  0.3705  0.4667  0.7307
  471MOL0     C62047   4.951   1.366   8.909  0.9157  0.5586  1.1430
  471MOL0     O62048   4.929   1.476   8.978 -0.0221  0.1589 -0.5457
  471MOL0     C62049   4.857   1.570   8.905 -0.5775 -0.3742  0.3667
  471MOL0     C62050   4.819   1.678   9.006 -0.4056 -0.0416  0.6800
  471MOL0     C62051   4.719   1.757   8.931  0.8078 -0.5189  0.0186
  471MOL0     C62052   4.682   1.879   9.012 -0.6059  0.1923  0.8496
  471MOL0     C62053   4.566   1.957   8.954  0.0515 -1.0092  0.3931
  471MOL0     C62054   4.436   1.879   8.945  0.0302 -0.0227  0.5745
  471MOL0     C62055   4.322   1.981   8.926  1.0005  1.1773  0.8519
  471MOL0     C62056   4.193   1.907   8.881 -1.1207  0.7502 -0.9788
  471MOL0     N62057   4.078   1.983   8.844  0.8492  0.1069 -0.0627
  471MOL0     C62058   4.072   2.054   8.733 -1.4095  0.1605 -0.1349
  471MOL0     C62059   3.982   2.157   8.755 -0.2074 -0.5867  0.7367
  471MOL0     C62060   3.963   2.280   8.661 -0.0661 -0.7441 -0.2545
  471MOL0     C62061   3.827   2.257   8.575  0.6550 -0.9019  0.1887
  471MOL0     C62062   3.780   2.376   8.489 -0.5631  0.8552 -0.2794
  471MOL0     C62063   3.629   2.387   8.469 -0.5726 -0.0926  0.3962
  471MOL0     O62064   3.572   2.300   8.371 -0.5982 -0.1689 -0.7915
  471MOL0     C62065   3.474   2.207   8.407 -0.1475 -0.5339  0.0064
  471MOL0     C62066   3.401   2.145   8.294  0.9262 -0.1299 -1.1931
  471MOL0     C62067   3.299   2.055   8.322 -0.3068  0.2326 -0.1384
  471MOL0     C62068   3.265   2.021   8.457 -0.8708 -0.7485  0.5136
  471MOL0     C62069   3.145   1.942   8.484  0.2913  0.7658 -0.0850
  471MOL0     O62070   3.069   1.890   8.379 -0.8025 -0.2848  0.0881
  471MOL0     C62071   2.944   1.844   8.402  0.4516 -0.3438 -0.2983
  471MOL0     C62072   2.913   1.748   8.497  1.5233  0.1493  0.0248
  471MOL0     C62073   2.773   1.723   8.525  0.5699  1.3366  0.1316
  471MOL0     C62074   2.680   1.772   8.432  0.1860  0.2382 -0.0744
  471MOL0     O62075   2.550   1.743   8.441  0.2683  0.5778 -0.3648
  471MOL0     C62076   2.503   1.740   8.573 -0.3596  1.0243 -0.4391
  471MOL0     C62077   2.355   1.749   8.581 -0.3362 -0.4012  0.4628
  471MOL0     C62078   2.283   1.663   8.477  0.3271  0.4401 -0.1790
  471MOL0     C62079   2.130   1.698   8.487  0.2504 -0.5217  0.2032
  471MOL0     C62080   2.061   1.628   8.595 -0.1872  0.6360  0.4179
  471MOL0     C62081   1.935   1.698   8.634  0.1433 -0.0155 -0.7974
  471MOL0     C62082   1.889   1.633   8.765 -0.4955 -0.1120 -0.2729
  471MOL0     C62083   1.769   1.707   8.819  0.2626  0.1878  0.6216
  471MOL0    Cl62084   1.800   1.871   8.891 -0.4064  0.1015  0.7595
  471MOL0     C62085   2.710   1.857   8.329 -0.3274 -0.3671 -0.1157
  471MOL0     C62086   2.846   1.892   8.314 -0.4651 -0.5964 -0.1720
  471MOL0     O62087   3.119   1.928   8.605 -0.2851 -0.8635  0.2447
  471MOL0     C62088   3.342   2.078   8.565 -0.6502  1.3668  0.3345
  471MOL0     C62089   3.451   2.160   8.533 -0.2201 -0.6983  1.1823
  471MOL0     N62090   3.926   2.123   8.878  0.1160  0.2736  0.2328
  471MOL0     N62091   3.979   2.025   8.927 -0.2862  0.3081 -0.3158
  471MOL0     C62092   5.026   1.370   8.786 -0.7149 -0.0925  0.3173
  471MOL0     C62093   5.061   1.245   8.719  0.1112  0.2392  0.2722
  471MOL0     C62094   5.190   0.841   8.655  0.1470 -0.1939  0.6716
  471MOL0     C62095   5.249   0.718   8.693  0.1351 -0.2377 -0.1779
  471MOL0     C62096   5.351   0.658   8.620 -0.0742  0.6139 -0.6716
  471MOL0     C62097   5.393   0.717   8.505  0.3990 -0.5317 -0.3020
  471MOL0     O62098   5.474   0.665   8.412  0.7482  0.5876  0.1313
  471MOL0     C62099   5.553   0.550   8.445  0.2168 -0.5868 -0.1913
  471MOL0     C62100   5.667   0.592   8.532 -0.9554  0.0223  0.7836
  471MOL0     C62101   5.684   0.506   8.654 -0.7409 -0.5704 -0.3252
  471MOL0     C62102   5.764   0.380   8.629  0.9912 -0.4373 -0.8126
  471MOL0     C62103   5.895   0.402   8.561  0.2591 -0.3714 -0.2050
  471MOL0     C62104   5.993   0.412   8.484  0.4651  0.2078  0.4901
  471MOL0     C62105   5.327   0.831   8.459  0.5173 -0.0693 -0.6795
  471MOL0     C62106   5.226   0.897   8.529  0.5998 -0.5535  0.6466
  471MOL0     H62107   4.898   1.037   8.934  3.4293  1.2699  4.0395
  471MOL0     H62108   4.854   1.232   9.052 -0.6312  1.9415  0.3860
  471MOL0     H62109   4.770   1.519   8.863 -0.6620  1.8521 -2.4620
  471MOL0     H62110   4.908   1.615   8.820 -1.1683 -2.7466 -1.3327
  471MOL0     H62111   4.908   1.739   9.026 -1.7750  2.1233  0.5877
  471MOL0     H62112   4.769   1.644   9.097 -1.6541 -0.4891 -0.1451
  471MOL0     H62113   4.627   1.703   8.908  0.8474 -1.0001  0.9332
  471MOL0     H62114   4.749   1.805   8.838 -1.7660  3.0430  0.8322
  471MOL0     H62115   4.657   1.852   9.115  1.1477  1.4686  1.6683
  471MOL0     H62116   4.767   1.948   9.013 -1.3374  1.1163  1.0723
  471MOL0     H62117   4.581   1.996   8.853 -0.1330 -2.6337 -0.2835
  471MOL0     H62118   4.560   2.044   9.021  1.1538  1.4409 -2.4537
  471MOL0     H62119   4.415   1.828   9.039 -0.8649 -2.8953 -1.0627
  471MOL0     H62120   4.438   1.805   8.865  0.4824  0.4932  0.0968
  471MOL0     H62121   4.301   2.030   9.021  1.2429  1.4302  0.7742
  471MOL0     H62122   4.341   2.057   8.849 -1.1353 -0.6574 -1.7150
  471MOL0     H62123   4.163   1.845   8.966  1.3530  1.6758  0.6809
  471MOL0     H62124   4.213   1.846   8.793  0.9720  1.5563 -1.1159
  471MOL0     H62125   4.148   2.052   8.655  0.0039 -3.2299  1.1623
  471MOL0     H62126   4.049   2.304   8.597 -0.6681 -1.4089 -1.3417
  471MOL0     H62127   3.943   2.365   8.727  0.5424  1.1106 -2.3213
  471MOL0     H62128   3.760   2.262   8.660  0.8384  3.1084  0.2571
  471MOL0     H62129   3.818   2.161   8.523 -2.3671 -0.9181  0.5893
  471MOL0     H62130   3.809   2.473   8.530 -0.9826  1.0161 -0.3613
  471MOL0     H62131   3.820   2.363   8.387  0.2805 -1.4638  0.2741
  471MOL0     H62132   3.619   2.490   8.432  1.4673  0.3299  0.8790
  471MOL0     H62133   3.576   2.392   8.565  0.9939  3.5204  1.2587
  471MOL0     H62134   3.416   2.164   8.188  0.1983  1.3822 -1.0552
  471MOL0     H62135   3.235   2.022   8.241  1.2067  0.3248 -1.4319
  471MOL0     H62136   2.990   1.703   8.559 -0.9031  0.9031  3.9733
  471MOL0     H62137   2.735   1.650   8.596  1.2781 -0.0327 -0.8435
  471MOL0     H62138   2.544   1.825   8.628 -0.0807  1.0069 -0.6172
  471MOL0     H62139   2.526   1.647   8.625  0.5440  2.7744  2.5701
  471MOL0     H62140   2.326   1.851   8.557  1.6721  0.0153 -0.4507
  471MOL0     H62141   2.317   1.717   8.678 -2.6404  1.7011  0.3323
  471MOL0     H62142   2.299   1.556   8.494 -2.3517 -0.1345 -0.7989
  471MOL0     H62143   2.317   1.696   8.378  0.6279 -1.0302 -0.5859
  471MOL0     H62144   2.124   1.807   8.495  1.0002 -0.5714  1.7264
  471MOL0     H62145   2.086   1.663   8.393  2.8071 -2.0189 -0.5227
  471MOL0     H62146   2.130   1.605   8.678 -1.5958 -0.1786  1.4124
  471MOL0     H62147   2.031   1.532   8.551 -0.7434 -0.1715  2.4317
  471MOL0     H62148   1.858   1.687   8.556  2.4328 -0.3931 -3.1634
  471MOL0     H62149   1.963   1.800   8.663  1.4567 -0.8037  0.8430
  471MOL0     H62150   1.857   1.529   8.758  1.0657 -0.7141  1.0126
  471MOL0     H62151   1.971   1.632   8.838 -2.0553 -1.5853  1.5552
  471MOL0     H62152   1.736   1.657   8.911  0.1682  2.6774  2.0191
  471MOL0     H62153   1.687   1.711   8.747 -2.8697  0.7086  3.9194
  471MOL0     H62154   2.624   1.886   8.271 -0.0771  3.0111  1.0192
  471MOL0     H62155   2.871   1.961   8.234 -0.3739 -0.7311 -0.2596
  471MOL0     H62156   3.320   2.041   8.664 -3.2414 -1.2115 -1.0400
  471MOL0     H62157   3.504   2.205   8.617  0.3603  2.6000 -0.7679
  471MOL0     H62158   5.076   1.465   8.771  1.6501 -1.1774  0.7216
  471MOL0     H62159   5.136   1.248   8.641  0.0472  1.3795  0.2413
  471MOL0     H62160   5.225   0.675   8.790  0.1885 -0.2573 -0.1733
  471MOL0     H62161   5.403   0.570   8.656 -0.8470  0.8909  1.1927
  471MOL0     H62162   5.589   0.509   8.350  1.1666 -1.4223  0.5231
  471MOL0     H62163   5.481   0.486   8.497 -0.6320  1.7175  1.6064
  471MOL0     H62164   5.759   0.605   8.475 -0.7078  1.0072  1.3819
  471MOL0     H62165   5.656   0.693   8.575 -1.0789  0.6061 -0.5766
  471MOL0     H62166   5.586   0.492   8.699 -0.0462 -0.8358  1.1761
  471MOL0     H62167   5.733   0.561   8.735 -1.8047  0.0434 -0.0893
  471MOL0     H62168   5.761   0.347   8.733 -0.3300 -1.6132 -1.1834
  471MOL0     H62169   5.703   0.314   8.567 -2.2147 -1.3476  2.9130
  471MOL0     H62170   6.084   0.429   8.430  0.0173 -1.1679 -0.7673
  471MOL0     H62171   5.350   0.873   8.362 -1.0577  1.3405 -0.4970
  471MOL0     H62172   5.174   0.981   8.485 -3.4089 -2.5344  1.0623
  472MOL0     O62173   9.433   5.500  10.134 -0.2521  0.6652 -0.5203
  472MOL0     C62174   9.320   5.529  10.175  0.7696 -0.6885  0.9776
  472MOL0     O62175   9.289   5.639  10.258  0.7279  0.3248  0.3985
  472MOL0     C62176   9.390   5.722  10.306 -0.7303  0.3559 -0.6982
  472MOL0     C62177   9.372   5.753  10.442 -0.1113 -0.3368  0.2937
  472MOL0     C62178   9.470   5.835  10.511  0.3031  0.0281  0.2561
  472MOL0     C62179   9.572   5.890  10.439 -0.5783  0.1186 -0.0906
  472MOL0     O62180   9.660   5.979  10.504  0.1039 -0.3360  0.3514
  472MOL0     C62181   9.711   5.932  10.631  0.1300 -0.1773  0.3973
  472MOL0     C62182   9.821   6.031  10.675  0.1288 -0.6684  0.2774
  472MOL0     C62183   9.951   5.959  10.675  0.7175 -0.5051 -0.1170
  472MOL0     C62184  10.051   6.043  10.747 -0.7359 -0.3812 -0.0545
  472MOL0     C62185  10.196   6.010  10.692 -0.2043 -0.2924  0.6792
  472MOL0     C62186  10.308   6.079  10.773  0.3400  0.1303  0.1649
  472MOL0     C62187  10.440   6.052  10.708 -0.5772  0.1943  0.5969
  472MOL0     C62188  10.547   6.136  10.792  0.2162 -0.2153  0.1039
  472MOL0     N62189  10.684   6.135  10.736  0.6575  0.2941  0.2228
  472MOL0     C62190  10.715   6.117  10.598 -0.9299  0.4874 -0.4935
  472MOL0     C62191  10.848   6.135  10.596  0.3666  0.2246  0.8441
  472MOL0     C62192  10.946   6.137  10.483 -0.9207  1.2662 -0.9554
  472MOL0     C62193  11.019   6.000  10.478 -0.2496  0.4328 -0.4155
  472MOL0     C62194  11.160   6.001  10.421  0.5794  0.1638 -0.3912
  472MOL0     C62195  11.160   6.076  10.292 -0.1615  0.4060  0.0884
  472MOL0     O62196  11.105   6.008  10.178  0.6464  0.4054  0.8300
  472MOL0     C62197  11.162   5.894  10.136 -0.3276  0.3834 -0.0304
  472MOL0     C62198  11.093   5.773  10.145  0.6727 -0.1102 -0.7571
  472MOL0     C62199  11.161   5.651  10.129 -0.3135 -0.8414 -0.9982
  472MOL0     C62200  11.291   5.658  10.086  0.0738  0.6758 -0.9371
  472MOL0     C62201  11.355   5.533  10.042  0.4043  0.5403 -0.3791
  472MOL0     O62202  11.277   5.416  10.062  0.1505 -0.6094 -0.0209
  472MOL0     C62203  11.310   5.315   9.972  0.2724  0.0400 -0.8110
  472MOL0     C62204  11.411   5.227  10.007  0.3542  0.0981  0.2853
  472MOL0     C62205  11.443   5.120   9.915 -1.0323 -0.4338 -0.4829
  472MOL0     C62206  11.378   5.110   9.786  0.4992 -0.4848  0.1281
  472MOL0     O62207  11.417   5.007   9.697  0.4367  0.3632  0.0043
  472MOL0     C62208  11.327   4.939   9.605 -0.5277 -0.5567  0.8226
  472MOL0     C62209  11.380   4.797   9.606  0.3464  0.5914 -0.5947
  472MOL0     C62210  11.290   4.712   9.701  0.0936  0.0032 -0.6884
  472MOL0     C62211  11.349   4.578   9.733 -0.1743 -0.0733  1.2839
  472MOL0     C62212  11.372   4.476   9.621 -0.1973  0.3492 -0.1408
  472MOL0     C62213  11.243   4.431   9.535 -0.7654 -1.0468  0.3972
  472MOL0     C62214  11.304   4.334   9.432 -0.0644 -1.0703 -0.1690
  472MOL0     C62215  11.380   4.398   9.311 -0.5982 -0.2462 -0.3685
  472MOL0    Cl62216  11.399   4.270   9.181 -0.2860  0.0160 -0.3645
  472MOL0     C62217  11.288   5.216   9.767 -0.0203 -0.7979  1.1356
  472MOL0     C62218  11.255   5.313   9.849  0.0715  0.1652  0.2206
  472MOL0     O62219  11.465   5.540   9.990  0.5228  0.2352 -0.3698
  472MOL0     C62220  11.359   5.778  10.078 -0.0135  0.0089  1.0061
  472MOL0     C62221  11.294   5.898  10.095 -1.4056 -1.2513 -0.2450
  472MOL0     N62222  10.895   6.158  10.722 -0.2281 -0.2881  0.1568
  472MOL0     N62223  10.801   6.155  10.805 -0.0201 -0.0548  0.2694
  472MOL0     C62224   9.601   5.852  10.307 -0.0625 -0.2186  0.2550
  472MOL0     C62225   9.504   5.767  10.239 -0.3304  0.5590 -0.7467
  472MOL0     C62226   9.207   5.439  10.147 -0.7227 -0.1927  0.0747
  472MOL0     C62227   9.089   5.451  10.219  0.3298 -0.4441  0.1216
  472MOL0     C62228   8.984   5.365  10.191 -0.2014 -0.3005  0.3838
  472MOL0     C62229   8.997   5.258  10.105  0.1227  0.3253 -0.3646
  472MOL0     O62230   8.899   5.157  10.101 -0.5662  0.3301 -0.2353
  472MOL0     C62231   8.942   5.026  10.141 -0.5617 -0.1311  0.3456
  472MOL0     C62232   8.822   4.948  10.188  1.2338 -1.2021 -0.3766
  472MOL0     C62233   8.751   5.011  10.312 -0.7273  0.4428  0.1443
  472MOL0     C62234   8.676   4.895  10.389 -0.0983  0.2524 -0.0228
  472MOL0     C62235   8.590   4.961  10.487 -0.9390  0.2786  0.2863
  472MOL0     C62236   8.524   5.010  10.574  0.0103  0.0602 -0.4286
  472MOL0     C62237   9.113   5.245  10.029  0.8071  1.0178  0.3217
  472MOL0     C62238   9.217   5.334  10.052 -0.4674  0.7084  0.1849
  472MOL0     H62239   9.284   5.714  10.491 -1.2343  0.0060 -1.3428
  472MOL0     H62240   9.451   5.876  10.609 -3.9489  0.3635 -0.5208
  472MOL0     H62241   9.751   5.832  10.612  0.3345 -0.5947  2.7351
  472MOL0     H62242   9.634   5.929  10.709 -2.2128  3.1558 -1.4955
  472MOL0     H62243   9.792   6.075  10.771  2.0028 -2.6369  1.8406
  472MOL0     H62244   9.815   6.115  10.605 -2.1641 -2.1028 -1.4016
  472MOL0     H62245   9.980   5.937  10.572  3.8394  0.2460  0.5011
  472MOL0     H62246   9.947   5.862  10.726  1.8956 -1.6053 -2.0002
  472MOL0     H62247  10.034   6.149  10.724 -0.1152  0.1906  1.9082
  472MOL0     H62248  10.040   6.036  10.855  1.8932 -0.4234  0.2770
  472MOL0     H62249  10.210   6.029  10.585  1.5918 -1.6145  0.6344
  472MOL0     H62250  10.216   5.903  10.703 -2.4164 -0.6998  1.1610
  472MOL0     H62251  10.306   6.050  10.878  1.6751 -1.7989 -0.2859
  472MOL0     H62252  10.286   6.183  10.751 -2.1013 -0.8032 -2.4077
  472MOL0     H62253  10.470   5.947  10.714 -0.3686  0.1636 -0.6853
  472MOL0     H62254  10.426   6.078  10.602 -0.8101  0.9043  0.7980
  472MOL0     H62255  10.545   6.098  10.894 -2.2132 -0.6996 -0.0720
  472MOL0     H62256  10.526   6.243  10.785  1.3222  0.0060 -0.1439
  472MOL0     H62257  10.660   6.096  10.507  0.0555 -2.4290 -0.5159
  472MOL0     H62258  11.019   6.217  10.497 -0.8162  0.8728  1.0450
  472MOL0     H62259  10.898   6.157  10.387 -0.0572 -0.3593 -1.7580
  472MOL0     H62260  10.960   5.933  10.415 -0.0505 -0.1540  0.0194
  472MOL0     H62261  11.030   5.944  10.571 -0.8206 -0.7226 -1.0231
  472MOL0     H62262  11.232   6.041  10.493 -1.4211  0.3529  1.6337
  472MOL0     H62263  11.173   5.898  10.389 -4.3120 -1.2829  1.2490
  472MOL0     H62264  11.266   6.096  10.272  0.1619 -1.8014 -0.6408
  472MOL0     H62265  11.124   6.179  10.301 -0.1085  0.4569 -0.3006
  472MOL0     H62266  10.988   5.778  10.171  0.8541  3.0894 -0.2879
  472MOL0     H62267  11.108   5.559  10.153  0.8040 -0.9914  1.1504
  472MOL0     H62268  11.465   5.233  10.101  5.4144  1.1590 -2.3338
  472MOL0     H62269  11.521   5.052   9.949  0.3503  1.1094 -0.4574
  472MOL0     H62270  11.363   4.988   9.514 -0.7262 -0.5923  0.7247
  472MOL0     H62271  11.219   4.943   9.624 -0.9620 -1.1273 -1.3390
  472MOL0     H62272  11.479   4.805   9.650 -0.9368 -0.4094  2.7528
  472MOL0     H62273  11.374   4.753   9.506  1.6883  0.5290 -0.6689
  472MOL0     H62274  11.184   4.695   9.680 -0.1784 -0.0667  0.6698
  472MOL0     H62275  11.300   4.768   9.794  0.8543  0.3237 -0.9521
  472MOL0     H62276  11.448   4.599   9.777  0.2805  2.7874 -0.8194
  472MOL0     H62277  11.289   4.548   9.820 -0.7338  1.7828  1.5909
  472MOL0     H62278  11.427   4.390   9.659 -2.7712 -1.1913  0.2737
  472MOL0     H62279  11.438   4.525   9.548  1.1331 -1.1346  0.0080
  472MOL0     H62280  11.193   4.518   9.492 -0.1266 -1.2410 -0.7798
  472MOL0     H62281  11.175   4.382   9.605 -1.2740  2.0904  2.3014
  472MOL0     H62282  11.369   4.260   9.480  1.8743  2.1100  2.5273
  472MOL0     H62283  11.221   4.270   9.400 -1.4302  0.2909  0.4964
  472MOL0     H62284  11.476   4.447   9.327  0.1387 -1.3899 -1.1299
  472MOL0     H62285  11.309   4.477   9.281 -0.4331  0.5627  1.2379
  472MOL0     H62286  11.245   5.211   9.667  0.6945  3.7330  0.3836
  472MOL0     H62287  11.195   5.399   9.824 -0.0250  0.4265  1.2840
  472MOL0     H62288  11.466   5.775  10.059  0.0093  1.2878  0.7857
  472MOL0     H62289  11.343   5.987  10.058  0.8036 -2.2285  0.1550
  472MOL0     H62290   9.703   5.872  10.276  0.1960 -3.4241 -1.3786
  472MOL0     H62291   9.527   5.729  10.141 -1.3937 -3.2402  0.3322
  472MOL0     H62292   9.083   5.539  10.282 -1.0810  1.3581 -2.3373
  472MOL0     H62293   8.885   5.383  10.230 -0.6947 -1.1006 -0.4530
  472MOL0     H62294   9.019   5.032  10.219 -0.2328 -1.6502  0.1675
  472MOL0     H62295   8.992   4.976  10.057  1.8982  3.6059 -0.6588
  472MOL0     H62296   8.746   4.942  10.109 -0.7275 -5.5026  1.5124
  472MOL0     H62297   8.859   4.851  10.221 -0.1707 -0.4460  3.9875
  472MOL0     H62298   8.678   5.083  10.274  2.1704  2.5520 -1.8719
  472MOL0     H62299   8.817   5.067  10.379 -3.1248  3.2800  0.3630
  472MOL0     H62300   8.616   4.842  10.315  1.5117 -0.3324 -0.9436
  472MOL0     H62301   8.757   4.833  10.429 -0.3888  0.0275  0.2238
  472MOL0     H62302   8.467   5.067  10.643  0.4792 -1.2370  1.0969
  472MOL0     H62303   9.130   5.163   9.960  1.5446  0.8697  0.6781
  472MOL0     H62304   9.310   5.323   9.997  0.0404 -3.7364  1.5457
  473MOL0     O62305   3.163   2.616   1.739 -0.3922 -0.5135 -0.6585
  473MOL0     C62306   3.116   2.701   1.665  0.0860 -0.5528 -0.4389
  473MOL0     O62307   2.982   2.714   1.652 -0.0082  0.7145  0.3887
  473MOL0     C62308   2.900   2.634   1.729 -0.1820 -0.3753 -0.7936
  473MOL0     C62309   2.875   2.654   1.869 -0.5538 -0.6101 -0.0990
  473MOL0     C62310   2.771   2.579   1.933 -0.8258 -0.0237  0.0020
  473MOL0     C62311   2.697   2.482   1.862 -0.0485 -1.2451  0.0420
  473MOL0     O62312   2.605   2.407   1.933  0.3256 -0.5297  0.5310
  473MOL0     C62313   2.480   2.378   1.887  0.3011 -0.1128  1.0572
  473MOL0     C62314   2.384   2.500   1.877 -1.0434 -1.0710 -0.3878
  473MOL0     C62315   2.239   2.465   1.845 -0.3998 -0.9003 -0.0772
  473MOL0     C62316   2.152   2.483   1.969  0.8801  0.1829 -1.8072
  473MOL0     C62317   2.012   2.417   1.945 -0.0229 -0.4451  0.4690
  473MOL0     C62318   1.908   2.425   2.049  0.2102 -0.5088 -0.4080
  473MOL0     C62319   1.941   2.363   2.182 -0.5911  0.6523  0.4916
  473MOL0     C62320   1.855   2.413   2.300  0.0944 -0.1257  0.2753
  473MOL0     N62321   1.710   2.380   2.275  0.0749 -0.2475 -0.2186
  473MOL0     C62322   1.652   2.264   2.217 -0.6362  0.3328 -0.3198
  473MOL0     C62323   1.521   2.287   2.209  0.7231 -0.2808 -0.1528
  473MOL0     C62324   1.416   2.192   2.152  0.3019  0.2091 -0.8600
  473MOL0     C62325   1.363   2.106   2.270  0.3020  0.3125 -0.1112
  473MOL0     C62326   1.270   1.997   2.214 -0.6085 -0.0844 -0.1125
  473MOL0     C62327   1.227   1.891   2.320 -0.7490  0.1835  0.7515
  473MOL0     O62328   1.145   1.951   2.422 -0.0884 -0.0067 -0.2435
  473MOL0     C62329   1.212   1.951   2.546  0.2105  0.9778 -0.2083
  473MOL0     C62330   1.234   2.072   2.599 -0.0562  0.0166 -0.3526
  473MOL0     C62331   1.301   2.088   2.723  0.0256 -0.4144 -0.5772
  473MOL0     C62332   1.330   1.976   2.799 -0.1361 -0.0629  0.2008
  473MOL0     C62333   1.376   1.995   2.932  0.6225  0.9442 -0.8204
  473MOL0     O62334   1.354   2.121   2.988  0.1873  0.6786 -0.1498
  473MOL0     C62335   1.406   2.152   3.109  0.0362  1.0314 -0.5088
  473MOL0     C62336   1.538   2.118   3.148  0.1568  0.1134  0.5924
  473MOL0     C62337   1.578   2.160   3.270 -0.9327 -0.5950  0.0152
  473MOL0     C62338   1.493   2.216   3.359  0.4271  0.5988 -0.2263
  473MOL0     O62339   1.528   2.251   3.484 -0.1708  0.4640 -0.3339
  473MOL0     C62340   1.664   2.293   3.516  0.2852 -0.0698 -0.0687
  473MOL0     C62341   1.737   2.187   3.598 -0.5456 -0.5078  0.5185
  473MOL0     C62342   1.867   2.241   3.665 -0.3750 -0.8732  0.3115
  473MOL0     C62343   2.002   2.182   3.602  0.8350  0.2860 -0.4056
  473MOL0     C62344   2.119   2.203   3.695 -0.3092  0.1983 -0.2811
  473MOL0     C62345   2.248   2.150   3.629 -0.7447 -0.4046  1.1315
  473MOL0     C62346   2.382   2.201   3.693  0.3935 -0.5676  0.9077
  473MOL0     C62347   2.416   2.149   3.824 -0.2850 -0.2002 -0.0824
  473MOL0    Cl62348   2.469   1.977   3.796  0.0572 -0.0302  0.0503
  473MOL0     C62349   1.367   2.245   3.320  0.7533  0.3554  1.1977
  473MOL0     C62350   1.322   2.214   3.194 -0.3146 -0.0775  0.0379
  473MOL0     O62351   1.425   1.893   2.987 -0.2514 -0.4600 -0.3130
  473MOL0     C62352   1.293   1.850   2.749  0.6288  1.1479 -0.0115
  473MOL0     C62353   1.241   1.838   2.623  0.7526  0.0537 -0.0783
  473MOL0     N62354   1.503   2.419   2.256  0.5483  0.8647 -1.0773
  473MOL0     N62355   1.619   2.473   2.298  0.4417 -0.0591  0.2932
  473MOL0     C62356   2.717   2.464   1.728 -0.6874 -0.0921 -0.0146
  473MOL0     C62357   2.814   2.546   1.664  0.1552 -1.3791  0.0369
  473MOL0     C62358   3.199   2.782   1.575 -0.4488  0.4193 -0.0396
  473MOL0     C62359   3.274   2.725   1.475 -0.2228  0.6860  0.2142
  473MOL0     C62360   3.353   2.807   1.391  0.9197 -0.0036 -0.3281
  473MOL0     C62361   3.344   2.952   1.407  0.1350 -0.8444 -0.3003
  473MOL0     O62362   3.419   3.033   1.322 -0.2929 -0.7168 -0.0836
  473MOL0     C62363   3.479   3.156   1.364  0.5413  0.2425 -0.5326
  473MOL0     C62364   3.585   3.196   1.264  0.0955 -0.3087 -0.1012
  473MOL0     C62365   3.668   3.320   1.305 -0.7984 -1.1718 -0.1054
  473MOL0     C62366   3.809   3.323   1.233 -0.0065 -0.4505  0.1151
  473MOL0     C62367   3.880   3.445   1.265  0.1396 -0.3424  0.6460
  473MOL0     C62368   3.944   3.549   1.283 -0.0357 -0.4514 -0.1998
  473MOL0     C62369   3.272   3.003   1.510 -0.8113 -0.0349  0.2007
  473MOL0     C62370   3.191   2.918   1.590 -0.5486 -0.6586  0.8534
  473MOL0     H62371   2.946   2.725   1.912  1.3436 -1.7018 -1.2975
  473MOL0     H62372   2.746   2.607   2.035  2.5068 -3.9472  2.1802
  473MOL0     H62373   2.434   2.303   1.953  0.3427 -0.5244  0.6290
  473MOL0     H62374   2.476   2.320   1.794 -2.1248 -0.7245  1.4645
  473MOL0     H62375   2.407   2.570   1.796 -1.6694 -1.0278 -0.5304
  473MOL0     H62376   2.390   2.546   1.976  1.7509 -5.1870  1.6020
  473MOL0     H62377   2.223   2.363   1.808 -0.5871 -0.0721 -2.4239
  473MOL0     H62378   2.213   2.533   1.764 -0.8886  0.1905  0.9637
  473MOL0     H62379   2.195   2.425   2.051 -0.4708  0.8916 -0.5247
  473MOL0     H62380   2.147   2.586   2.006  1.2398 -1.2783  2.9363
  473MOL0     H62381   2.033   2.314   1.914  0.2130  0.3322 -2.2168
  473MOL0     H62382   1.962   2.465   1.860 -2.1925  0.0340  1.9196
  473MOL0     H62383   1.818   2.377   2.009 -0.8302  2.4121 -1.9026
  473MOL0     H62384   1.887   2.531   2.068  2.3612  0.1633 -1.5515
  473MOL0     H62385   1.927   2.255   2.170  1.3970  0.3727  0.2657
  473MOL0     H62386   2.049   2.375   2.195 -0.1814 -1.0777 -0.9214
  473MOL0     H62387   1.863   2.522   2.303  0.2813 -0.0781  4.2430
  473MOL0     H62388   1.895   2.369   2.392  0.7544 -1.3677 -0.5899
  473MOL0     H62389   1.709   2.183   2.175 -0.5684  0.4970 -0.5481
  473MOL0     H62390   1.466   2.121   2.086  4.2438  2.4495 -0.6246
  473MOL0     H62391   1.337   2.248   2.102 -0.6486  1.8828  2.2233
  473MOL0     H62392   1.301   2.157   2.344  0.4847  0.4499 -0.0518
  473MOL0     H62393   1.448   2.073   2.330  1.1340  1.7592 -0.4687
  473MOL0     H62394   1.185   2.049   2.170  1.4514  1.5728 -2.3913
  473MOL0     H62395   1.328   1.941   2.140 -1.4584 -0.0541 -0.8122
  473MOL0     H62396   1.327   1.863   2.355  0.4584  4.1388  0.9518
  473MOL0     H62397   1.176   1.819   2.257 -1.0570  0.4203  0.7287
  473MOL0     H62398   1.226   2.161   2.537 -1.7821 -0.3515 -0.7074
  473MOL0     H62399   1.304   2.185   2.771  4.1945 -1.7224  2.4556
  473MOL0     H62400   1.612   2.079   3.079  0.1693  3.2164 -1.3135
  473MOL0     H62401   1.683   2.145   3.289 -1.0203 -0.9634  0.2225
  473MOL0     H62402   1.654   2.391   3.564 -0.2170 -1.3150  2.5575
  473MOL0     H62403   1.715   2.300   3.420  0.7998 -2.7009 -0.0705
  473MOL0     H62404   1.775   2.109   3.531  2.5157  0.1441  1.3363
  473MOL0     H62405   1.670   2.157   3.678 -0.0862 -0.3580  0.9626
  473MOL0     H62406   1.868   2.206   3.768 -1.0732  1.3812  1.1438
  473MOL0     H62407   1.870   2.349   3.676 -1.0717 -0.7119 -0.8429
  473MOL0     H62408   1.973   2.078   3.584 -1.9491  1.2681 -2.3150
  473MOL0     H62409   2.023   2.230   3.506  3.3043  0.1564 -0.0044
  473MOL0     H62410   2.121   2.155   3.793 -2.0570  2.4732  0.9776
  473MOL0     H62411   2.123   2.311   3.716  2.8606 -0.0697  1.0168
  473MOL0     H62412   2.257   2.174   3.523  1.4233 -1.7662  0.9560
  473MOL0     H62413   2.257   2.041   3.628  1.5086 -0.2530  0.3177
  473MOL0     H62414   2.465   2.176   3.626  0.8236  0.6719  0.9619
  473MOL0     H62415   2.373   2.310   3.700  0.0210 -0.1590 -3.3173
  473MOL0     H62416   2.344   2.159   3.906  1.0381 -1.9733  1.3869
  473MOL0     H62417   2.507   2.201   3.858 -0.3177 -0.3892  0.2933
  473MOL0     H62418   1.292   2.283   3.388  0.4465 -1.6322  2.0314
  473MOL0     H62419   1.224   2.248   3.163 -0.4480  0.0438  0.5825
  473MOL0     H62420   1.313   1.762   2.809  0.0636  0.1848 -1.1822
  473MOL0     H62421   1.208   1.748   2.570  2.6762  0.0678 -1.4045
  473MOL0     H62422   2.663   2.395   1.664  0.7153 -0.1443 -1.1917
  473MOL0     H62423   2.837   2.541   1.558  0.1383  0.4728 -0.0930
  473MOL0     H62424   3.263   2.619   1.455  0.5159  0.8669 -1.2453
  473MOL0     H62425   3.402   2.767   1.302 -0.0259  0.9041 -1.2951
  473MOL0     H62426   3.532   3.139   1.459 -0.0889 -0.3243 -0.2744
  473MOL0     H62427   3.407   3.238   1.370  0.3908  0.3074 -2.6143
  473MOL0     H62428   3.653   3.110   1.261  2.7965  1.6236  1.2101
  473MOL0     H62429   3.543   3.212   1.164  0.8005  2.0486 -0.0760
  473MOL0     H62430   3.693   3.306   1.411 -1.2083  1.9191  0.4880
  473MOL0     H62431   3.614   3.415   1.301 -1.3307 -1.5096 -1.2146
  473MOL0     H62432   3.864   3.231   1.252  2.0503  0.7137  0.0570
  473MOL0     H62433   3.787   3.317   1.126  1.2191  0.5744 -0.2094
  473MOL0     H62434   3.990   3.642   1.310 -1.8126 -0.2838  2.7044
  473MOL0     H62435   3.282   3.111   1.511 -1.8333  0.0778  1.0350
  473MOL0     H62436   3.133   2.956   1.674  1.6378  0.4112  1.9672
  474MOL0     O62437   5.383   1.142   1.516 -0.5681  0.1661  0.0407
  474MOL0     C62438   5.355   1.094   1.404  0.8066  0.6034 -0.3099
  474MOL0     O62439   5.233   1.108   1.338  0.0813 -0.4238 -0.1514
  474MOL0     C62440   5.129   1.187   1.402 -1.0655  0.0641 -0.4379
  474MOL0     C62441   5.000   1.138   1.404  1.3230 -0.3861  0.0419
  474MOL0     C62442   4.893   1.223   1.457  0.3959 -0.5791  0.1838
  474MOL0     C62443   4.918   1.361   1.482 -0.2488  0.2523 -0.1739
  474MOL0     O62444   4.800   1.436   1.517 -0.3678  0.2234  0.3853
  474MOL0     C62445   4.813   1.577   1.524  0.0171 -0.2684  0.3232
  474MOL0     C62446   4.675   1.639   1.512 -0.2644 -0.8508 -0.2052
  474MOL0     C62447   4.666   1.778   1.438 -0.5572  0.0387  0.2040
  474MOL0     C62448   4.707   1.895   1.532  0.0718  0.3500 -0.2187
  474MOL0     C62449   4.593   1.978   1.598  0.1051  0.4411 -0.5472
  474MOL0     C62450   4.534   1.904   1.731 -0.0359 -0.6016 -0.3785
  474MOL0     C62451   4.424   1.994   1.800 -0.1882  0.7889  0.3263
  474MOL0     C62452   4.501   2.130   1.851 -0.0487  0.3412 -0.4208
  474MOL0     N62453   4.431   2.199   1.959  0.4662 -0.5379 -0.1432
  474MOL0     C62454   4.475   2.210   2.087 -0.7885  0.2481  0.5532
  474MOL0     C62455   4.379   2.269   2.155  0.1551  0.1879  1.6625
  474MOL0     C62456   4.409   2.323   2.289 -0.4204  0.2551  0.5141
  474MOL0     C62457   4.471   2.458   2.278 -0.5099  0.1769 -0.3648
  474MOL0     C62458   4.476   2.537   2.412  0.0051 -0.5442  0.2209
  474MOL0     C62459   4.564   2.652   2.387 -0.2856  0.1252 -0.0449
  474MOL0     O62460   4.529   2.714   2.261 -0.3966  0.2906  0.0402
  474MOL0     C62461   4.592   2.833   2.230  0.1223  0.2000 -0.6214
  474MOL0     C62462   4.679   2.907   2.314 -0.5334 -0.1090 -0.9767
  474MOL0     C62463   4.734   3.032   2.275  0.5654  0.9947 -0.0885
  474MOL0     C62464   4.714   3.083   2.151  0.1700  0.3293  0.6764
  474MOL0     C62465   4.777   3.203   2.103 -0.1409 -1.1956  0.0046
  474MOL0     O62466   4.715   3.281   2.006 -0.2018  0.0712  0.1967
  474MOL0     C62467   4.763   3.411   1.998 -0.4825 -0.3207  0.0212
  474MOL0     C62468   4.800   3.498   2.102  0.4169  0.5322  0.7747
  474MOL0     C62469   4.836   3.632   2.070 -0.3578  0.2068 -0.0746
  474MOL0     C62470   4.830   3.686   1.936 -0.4094 -0.0468 -0.5332
  474MOL0     O62471   4.867   3.814   1.919 -0.4897 -0.4087  0.4639
  474MOL0     C62472   4.820   3.880   1.810  0.8078  0.3687 -0.1497
  474MOL0     C62473   4.851   4.028   1.802 -0.2434 -0.4223 -1.4022
  474MOL0     C62474   4.777   4.109   1.914 -0.1100 -0.2234 -0.4044
  474MOL0     C62475   4.861   4.236   1.953 -0.9726 -0.3350  0.9950
  474MOL0     C62476   4.800   4.314   2.061 -0.0487  0.4181  0.0723
  474MOL0     C62477   4.864   4.447   2.107 -1.2287  0.5316 -0.0186
  474MOL0     C62478   4.779   4.491   2.231  0.3930 -0.3786 -0.3169
  474MOL0     C62479   4.824   4.422   2.357  0.2768 -0.1941  0.9736
  474MOL0    Cl62480   4.713   4.476   2.495  0.4507 -0.0302  0.0101
  474MOL0     C62481   4.780   3.601   1.842  0.0252  0.1440  0.5497
  474MOL0     C62482   4.737   3.469   1.875 -0.0349 -0.1301  0.6572
  474MOL0     O62483   4.875   3.237   2.172  0.9747 -0.4855 -0.5962
  474MOL0     C62484   4.623   3.017   2.062 -0.6704 -0.3270 -0.4281
  474MOL0     C62485   4.560   2.900   2.107  0.7122  0.4446  0.8852
  474MOL0     N62486   4.265   2.296   2.080 -0.3325 -0.0246  0.5166
  474MOL0     N62487   4.301   2.250   1.962 -0.4276  0.2863  0.3608
  474MOL0     C62488   5.049   1.408   1.469  0.7993 -0.2804  0.2936
  474MOL0     C62489   5.154   1.322   1.433  0.5999 -0.4862 -1.0418
  474MOL0     C62490   5.461   1.024   1.332  0.6959  0.4000  0.5440
  474MOL0     C62491   5.595   1.011   1.381  0.9988 -0.7264 -1.2021
  474MOL0     C62492   5.691   0.940   1.313 -0.4018  1.0801  0.2241
  474MOL0     C62493   5.667   0.862   1.201  1.2298  0.3637 -0.1141
  474MOL0     O62494   5.766   0.798   1.140 -0.8737 -0.3420  0.1213
  474MOL0     C62495   5.738   0.680   1.064 -0.2534  0.6016 -0.0357
  474MOL0     C62496   5.863   0.590   1.041  0.3460  0.2770  0.1169
  474MOL0     C62497   5.982   0.660   0.982  0.5901  0.0038 -0.4155
  474MOL0     C62498   6.106   0.574   0.938  0.4893 -0.3425  0.2445
  474MOL0     C62499   6.060   0.463   0.853 -0.2594 -0.5588  0.0139
  474MOL0     C62500   6.019   0.380   0.776 -0.0584 -0.7509 -0.4358
  474MOL0     C62501   5.534   0.859   1.164 -0.4416  0.4952 -0.0310
  474MOL0     C62502   5.431   0.936   1.219 -0.0253  0.9136 -0.5035
  474MOL0     H62503   4.985   1.037   1.369  0.5673 -1.1763  2.4465
  474MOL0     H62504   4.789   1.194   1.442 -0.2977  2.1240 -0.9623
  474MOL0     H62505   4.892   1.612   1.457  0.2984  4.0128  2.5793
  474MOL0     H62506   4.848   1.612   1.621  3.6635  3.5565 -2.0515
  474MOL0     H62507   4.654   1.653   1.618  4.0788  2.8122  0.4754
  474MOL0     H62508   4.615   1.565   1.459 -0.8716 -1.1284  0.8452
  474MOL0     H62509   4.561   1.802   1.418 -0.1164  1.9971  0.0452
  474MOL0     H62510   4.727   1.782   1.347 -3.2567 -1.6862 -1.8710
  474MOL0     H62511   4.784   1.866   1.605 -1.2366  0.7657  1.3922
  474MOL0     H62512   4.761   1.960   1.464 -0.1289  0.6369 -0.1050
  474MOL0     H62513   4.520   1.995   1.518 -2.3656  0.8956  1.6820
  474MOL0     H62514   4.637   2.074   1.626 -1.0480 -0.3390  5.2478
  474MOL0     H62515   4.615   1.875   1.798  0.3870 -0.3020 -0.7508
  474MOL0     H62516   4.496   1.810   1.691  1.5824  0.6764 -5.7273
  474MOL0     H62517   4.337   2.020   1.740  0.9197  2.9188 -0.4615
  474MOL0     H62518   4.387   1.940   1.887  2.4114  1.8750  2.2537
  474MOL0     H62519   4.503   2.202   1.769  0.9943  2.3458  1.2668
  474MOL0     H62520   4.605   2.108   1.877  0.0142  0.3389 -0.6674
  474MOL0     H62521   4.570   2.174   2.125  0.4047 -2.4479 -4.1698
  474MOL0     H62522   4.467   2.251   2.347 -3.3643 -0.2654  3.0590
  474MOL0     H62523   4.318   2.329   2.349 -1.2141 -1.1378 -0.4627
  474MOL0     H62524   4.404   2.515   2.214 -3.0612  0.4933  2.3580
  474MOL0     H62525   4.572   2.448   2.235 -0.0185 -0.0957  0.8114
  474MOL0     H62526   4.384   2.580   2.453  0.2477 -0.4700  0.6933
  474MOL0     H62527   4.528   2.466   2.477  1.1627 -1.8371 -1.9828
  474MOL0     H62528   4.668   2.616   2.382 -0.3481  0.0804 -1.6304
  474MOL0     H62529   4.549   2.718   2.472 -0.3771 -0.0906  0.1089
  474MOL0     H62530   4.725   2.872   2.406  1.2680 -0.6364 -2.0402
  474MOL0     H62531   4.813   3.075   2.335  1.7464  0.0825 -0.9446
  474MOL0     H62532   4.825   3.472   2.204  0.0725 -1.1830  0.4688
  474MOL0     H62533   4.890   3.695   2.141 -2.5122  3.8410 -1.4302
  474MOL0     H62534   4.713   3.867   1.794  0.6630 -0.2507  1.1577
  474MOL0     H62535   4.865   3.836   1.720  0.0042 -2.7239  0.8534
  474MOL0     H62536   4.827   4.065   1.702  1.6771  0.6650 -1.5101
  474MOL0     H62537   4.958   4.039   1.823 -0.4134 -1.4533  0.2417
  474MOL0     H62538   4.782   4.047   2.004 -1.5887  0.0049 -0.1347
  474MOL0     H62539   4.674   4.127   1.880  0.3439 -3.1516 -3.9296
  474MOL0     H62540   4.962   4.213   1.987  0.3709  1.2794 -1.5729
  474MOL0     H62541   4.864   4.300   1.865 -1.3838 -1.5380  0.0752
  474MOL0     H62542   4.785   4.243   2.143 -0.4809  0.8185  0.3436
  474MOL0     H62543   4.701   4.346   2.027 -0.5054  0.0747  1.0459
  474MOL0     H62544   4.850   4.510   2.018 -0.3213  0.2171 -0.3956
  474MOL0     H62545   4.968   4.429   2.136 -1.3513 -0.8794 -0.4054
  474MOL0     H62546   4.775   4.601   2.231 -0.5423 -0.3625 -2.0846
  474MOL0     H62547   4.674   4.461   2.229  0.4410 -0.5392 -0.4398
  474MOL0     H62548   4.928   4.445   2.382  0.1555  1.4443  0.1459
  474MOL0     H62549   4.795   4.318   2.341 -1.1160  0.0303  1.8237
  474MOL0     H62550   4.752   3.640   1.744 -0.8676 -0.3930  0.5831
  474MOL0     H62551   4.701   3.408   1.793  0.8009 -1.1697  1.0428
  474MOL0     H62552   4.597   3.065   1.969  0.3871  2.6780  0.7040
  474MOL0     H62553   4.486   2.859   2.040  0.3036  0.7686  1.1303
  474MOL0     H62554   5.071   1.510   1.498 -1.9434 -0.3809  3.2136
  474MOL0     H62555   5.254   1.362   1.420  0.5458  0.4860  0.9700
  474MOL0     H62556   5.613   1.076   1.466 -3.4660 -1.6851  0.7865
  474MOL0     H62557   5.796   0.966   1.327 -0.4711  0.8882  1.1770
  474MOL0     H62558   5.689   0.713   0.972  0.3693 -0.2547 -0.6934
  474MOL0     H62559   5.686   0.614   1.133  2.0913 -1.4052 -0.0410
  474MOL0     H62560   5.899   0.541   1.132  0.3552 -0.4222 -0.2574
  474MOL0     H62561   5.838   0.503   0.980  2.0931 -1.1336  1.3108
  474MOL0     H62562   6.008   0.737   1.056 -0.4320 -0.0593  0.0277
  474MOL0     H62563   5.947   0.731   0.906 -2.3081  0.2679  1.0095
  474MOL0     H62564   6.177   0.636   0.881 -0.1964 -0.5831 -0.9095
  474MOL0     H62565   6.163   0.531   1.021  0.0308 -3.7451 -1.0597
  474MOL0     H62566   5.965   0.319   0.707 -1.7067  0.2184 -0.0495
  474MOL0     H62567   5.495   0.795   1.085 -1.9504  0.7383  0.4789
  474MOL0     H62568   5.326   0.921   1.194  0.3076 -0.8906 -0.9450
  475MOL0     O62569   9.184   9.568   7.892  0.4243  0.3457 -0.2347
  475MOL0     C62570   9.287   9.609   7.837  0.7156 -1.0417  1.0566
  475MOL0     O62571   9.361   9.554   7.735 -0.6783 -0.5905 -0.6837
  475MOL0     C62572   9.317   9.449   7.648  0.7842 -1.0353 -0.5022
  475MOL0     C62573   9.186   9.451   7.595 -0.1259 -0.6125 -0.6619
  475MOL0     C62574   9.140   9.356   7.507  0.0089  1.1470  0.2573
  475MOL0     C62575   9.212   9.245   7.480 -0.0067  1.4474 -0.5914
  475MOL0     O62576   9.176   9.144   7.394  0.1777 -0.4252 -0.2894
  475MOL0     C62577   9.077   9.170   7.294 -0.2649 -0.3171 -0.9383
  475MOL0     C62578   9.054   9.047   7.217 -0.9267  0.0672  0.9060
  475MOL0     C62579   8.933   9.042   7.119  0.1019  0.4997 -0.3492
  475MOL0     C62580   8.933   9.129   6.991  0.1936  0.1144  0.0057
  475MOL0     C62581   8.847   9.058   6.880  0.2676  0.3296  0.8954
  475MOL0     C62582   8.706   9.036   6.924 -0.5072 -0.0447  0.0725
  475MOL0     C62583   8.602   9.052   6.814 -0.2546  0.3591  0.1936
  475MOL0     C62584   8.462   9.083   6.863 -0.9205 -0.7255 -0.2445
  475MOL0     N62585   8.385   9.172   6.776  0.0057  0.4256 -0.4760
  475MOL0     C62586   8.422   9.295   6.732 -0.0508 -0.8401 -0.1740
  475MOL0     C62587   8.339   9.313   6.625 -0.5611  0.3444  0.7153
  475MOL0     C62588   8.364   9.429   6.527 -0.1759 -0.1273 -0.4719
  475MOL0     C62589   8.471   9.389   6.419  1.0296 -0.2855  0.3154
  475MOL0     C62590   8.406   9.307   6.298 -0.1873  0.4374  0.6882
  475MOL0     C62591   8.510   9.267   6.193  0.5200 -0.0532 -1.1369
  475MOL0     O62592   8.588   9.383   6.164 -0.3619 -0.0676 -0.0888
  475MOL0     C62593   8.540   9.482   6.085  0.9093 -1.2354 -0.0533
  475MOL0     C62594   8.575   9.612   6.099  1.1731  0.7176  0.3955
  475MOL0     C62595   8.516   9.711   6.021 -1.9738 -0.7629  0.5311
  475MOL0     C62596   8.427   9.684   5.917  0.5740  0.1134  0.2366
  475MOL0     C62597   8.366   9.789   5.837  0.2372  0.3997 -0.7307
  475MOL0     O62598   8.396   9.920   5.855 -0.2296  0.1605  0.4434
  475MOL0     C62599   8.335  10.023   5.782 -0.1269 -0.0358  0.2418
  475MOL0     C62600   8.191  10.032   5.776 -0.3357 -0.3513  0.2245
  475MOL0     C62601   8.126  10.138   5.707  0.9023 -0.2942 -1.3342
  475MOL0     C62602   8.209  10.219   5.625 -0.2604 -0.1369  0.1491
  475MOL0     O62603   8.139  10.324   5.561  0.0213  0.2652  0.0762
  475MOL0     C62604   8.176  10.453   5.611  0.7124  0.8592 -0.7098
  475MOL0     C62605   8.059  10.541   5.579  0.5762 -0.3543 -0.2537
  475MOL0     C62606   7.954  10.534   5.688 -0.3836  0.8080  0.0627
  475MOL0     C62607   7.827  10.616   5.663 -1.1492  0.2507 -0.1112
  475MOL0     C62608   7.700  10.536   5.643 -0.7581  0.6743  0.4220
  475MOL0     C62609   7.645  10.467   5.768  0.2654 -0.0690  0.3868
  475MOL0     C62610   7.576  10.576   5.849  0.1527 -0.1723 -0.2445
  475MOL0     C62611   7.532  10.512   5.971  0.8287 -0.4071 -1.3619
  475MOL0    Cl62612   7.454  10.625   6.090  0.3520  0.3413 -0.5827
  475MOL0     C62613   8.354  10.209   5.635  0.3646 -0.1587  0.0257
  475MOL0     C62614   8.413  10.112   5.710  0.1869  0.9487 -0.2306
  475MOL0     O62615   8.284   9.744   5.750 -0.2333 -0.4522  0.4029
  475MOL0     C62616   8.413   9.545   5.895  0.4668  0.1651  1.1787
  475MOL0     C62617   8.465   9.449   5.977 -0.7921  0.1600 -0.6990
  475MOL0     N62618   8.242   9.213   6.612 -0.3802 -0.0679  0.3542
  475MOL0     N62619   8.274   9.129   6.706 -0.3688 -0.2549  0.4505
  475MOL0     C62620   9.344   9.240   7.527  0.0974  0.1338  0.9621
  475MOL0     C62621   9.396   9.348   7.610 -0.9770  0.8451 -0.1476
  475MOL0     C62622   9.335   9.740   7.883  0.8758 -0.4328 -0.3669
  475MOL0     C62623   9.283   9.802   8.009  0.1106 -0.5132  0.5907
  475MOL0     C62624   9.343   9.932   8.037  0.6096 -0.6880 -0.4183
  475MOL0     C62625   9.452   9.984   7.969 -0.5479  0.2662 -0.9484
  475MOL0     O62626   9.519  10.103   7.987 -0.2388  0.3969 -0.3030
  475MOL0     C62627   9.459  10.186   8.085 -1.2133 -0.3118  0.2022
  475MOL0     C62628   9.537  10.313   8.091  0.1004 -0.2445  0.3433
  475MOL0     C62629   9.447  10.431   8.129  1.0320 -0.3123 -0.0276
  475MOL0     C62630   9.536  10.546   8.159 -0.3077  0.2872 -0.9352
  475MOL0     C62631   9.603  10.593   8.034 -0.1978  0.7466 -0.1625
  475MOL0     C62632   9.641  10.629   7.925 -0.7365  0.7746 -0.0886
  475MOL0     C62633   9.509   9.905   7.872 -0.4009 -0.4587  0.1875
  475MOL0     C62634   9.449   9.796   7.823  0.4897 -0.3061  0.0683
  475MOL0     H62635   9.122   9.536   7.614 -1.7569 -1.3210 -2.5969
  475MOL0     H62636   9.038   9.375   7.476  0.0952  0.5159 -0.4562
  475MOL0     H62637   9.095   9.251   7.222 -2.3637  1.1945  0.1107
  475MOL0     H62638   8.983   9.178   7.349  0.5357 -2.0089  0.7930
  475MOL0     H62639   9.030   8.972   7.292 -3.4168  0.5129  0.6289
  475MOL0     H62640   9.142   9.024   7.156 -1.0642 -0.0896  0.7632
  475MOL0     H62641   8.852   9.076   7.182  0.8912  0.9827  0.4234
  475MOL0     H62642   8.921   8.936   7.096  1.9309 -0.4596  2.5825
  475MOL0     H62643   8.893   9.228   7.017  2.3608  0.6347  1.6261
  475MOL0     H62644   9.033   9.140   6.947 -0.3236  1.8186 -0.8394
  475MOL0     H62645   8.890   8.962   6.851 -2.2790 -0.3576 -1.0392
  475MOL0     H62646   8.850   9.109   6.783 -0.1700  0.3172  0.8710
  475MOL0     H62647   8.687   9.124   6.987  0.2644  1.3007 -1.4943
  475MOL0     H62648   8.696   8.938   6.970  1.6954 -1.7433 -2.7532
  475MOL0     H62649   8.634   9.122   6.736 -0.2090 -1.2572 -1.3065
  475MOL0     H62650   8.604   8.953   6.767  0.0650 -2.3423  5.1622
  475MOL0     H62651   8.456   9.133   6.960 -2.1993  1.0419 -1.1657
  475MOL0     H62652   8.411   8.988   6.879  0.8817 -1.4722  1.5160
  475MOL0     H62653   8.512   9.346   6.766 -0.2177 -1.2872  0.9820
  475MOL0     H62654   8.395   9.510   6.595 -2.6637 -0.0291  0.6333
  475MOL0     H62655   8.273   9.467   6.480 -0.6025 -2.7745 -1.9584
  475MOL0     H62656   8.540   9.326   6.475  0.2106  1.7868  4.0168
  475MOL0     H62657   8.526   9.478   6.385  0.9924 -0.4492 -0.1830
  475MOL0     H62658   8.360   9.218   6.343  2.2730 -1.7051 -0.7639
  475MOL0     H62659   8.321   9.360   6.253  0.2919  0.8912  0.3200
  475MOL0     H62660   8.459   9.228   6.104 -2.3651 -1.1464  0.8545
  475MOL0     H62661   8.562   9.180   6.232  1.6197  0.8862 -0.4499
  475MOL0     H62662   8.641   9.639   6.181  0.9074  0.7052  0.6151
  475MOL0     H62663   8.537   9.811   6.058 -1.0114  0.4846 -2.9429
  475MOL0     H62664   8.129   9.958   5.826 -0.8222 -0.9088 -1.1532
  475MOL0     H62665   8.019  10.150   5.713  0.8500 -0.4632 -1.8488
  475MOL0     H62666   8.256  10.515   5.571  0.1726  2.4461  0.5618
  475MOL0     H62667   8.212  10.443   5.714  1.0688  1.8886 -0.7247
  475MOL0     H62668   8.016  10.522   5.481  1.8701 -0.1895 -0.8680
  475MOL0     H62669   8.086  10.646   5.567 -0.7878 -0.3258 -4.3521
  475MOL0     H62670   7.997  10.586   5.774 -2.3173  1.1437  0.8780
  475MOL0     H62671   7.934  10.428   5.706 -0.7675  1.0896  1.4171
  475MOL0     H62672   7.817  10.699   5.734 -0.5723 -0.2361  0.5575
  475MOL0     H62673   7.843  10.659   5.564 -0.2966 -1.6869 -0.8680
  475MOL0     H62674   7.710  10.458   5.567  0.5373  2.6486 -1.5620
  475MOL0     H62675   7.629  10.610   5.606 -0.8965  0.7224  0.7783
  475MOL0     H62676   7.721  10.406   5.819 -0.7017 -1.6015  0.0526
  475MOL0     H62677   7.577  10.390   5.731  1.8318 -0.6186 -1.5868
  475MOL0     H62678   7.642  10.658   5.879 -0.8379  0.7889 -0.6281
  475MOL0     H62679   7.493  10.615   5.789  1.4356 -0.6378 -2.4492
  475MOL0     H62680   7.622  10.467   6.013  0.8976  1.5390  0.7508
  475MOL0     H62681   7.458  10.431   5.957 -0.1878  0.1158  0.6373
  475MOL0     H62682   8.418  10.272   5.575  3.2682 -3.9371 -1.2804
  475MOL0     H62683   8.520  10.095   5.721 -0.3836 -3.1354  0.2863
  475MOL0     H62684   8.352   9.508   5.813  1.9639 -1.9884  0.9543
  475MOL0     H62685   8.467   9.348   5.936 -1.7619 -0.6169  1.0741
  475MOL0     H62686   9.410   9.155   7.516  0.8046  0.7756  0.1291
  475MOL0     H62687   9.500   9.345   7.641 -1.7560  0.4458  2.6882
  475MOL0     H62688   9.203   9.758   8.067 -0.3860 -2.3619 -1.3698
  475MOL0     H62689   9.299   9.978   8.125 -2.3517 -1.1044 -1.5760
  475MOL0     H62690   9.474  10.136   8.181 -1.6823  1.7923  1.4368
  475MOL0     H62691   9.355  10.205   8.055 -0.9687  0.4549 -0.1747
  475MOL0     H62692   9.624  10.307   8.157  1.3111  1.8289 -0.9432
  475MOL0     H62693   9.571  10.339   7.990  2.9767 -1.4953  0.8789
  475MOL0     H62694   9.394  10.394   8.218  4.0868 -1.6652  1.3538
  475MOL0     H62695   9.370  10.464   8.059 -0.8302  0.1561  2.1190
  475MOL0     H62696   9.479  10.628   8.204 -0.5718 -0.5970  0.3829
  475MOL0     H62697   9.592  10.518   8.249 -3.6698  1.9931  1.9421
  475MOL0     H62698   9.656  10.674   7.829 -1.0119  0.8003 -0.1203
  475MOL0     H62699   9.592   9.958   7.827 -2.1190  3.8561  1.6079
  475MOL0     H62700   9.489   9.763   7.728 -0.4745  1.5670 -1.0266
  476MOL0     O62701   2.384   5.940   1.880  0.2761 -0.1286  0.7914
  476MOL0     C62702   2.266   5.922   1.896 -0.0765 -1.4411 -1.0273
  476MOL0     O62703   2.212   5.851   2.003 -0.2843  0.7739  0.0338
  476MOL0     C62704   2.300   5.810   2.106  0.3261  0.5284  1.2146
  476MOL0     C62705   2.330   5.678   2.123  0.9016  0.3515  0.0165
  476MOL0     C62706   2.412   5.644   2.225  0.9040  0.2733  0.0355
  476MOL0     C62707   2.471   5.735   2.313 -0.6950  0.0024 -0.6713
  476MOL0     O62708   2.559   5.687   2.406 -0.4661  0.3765  0.1200
  476MOL0     C62709   2.601   5.782   2.507  1.2170  0.5848 -0.0948
  476MOL0     C62710   2.710   5.720   2.597  0.0255  0.5713  0.6182
  476MOL0     C62711   2.722   5.807   2.718  0.3039  0.5329 -1.1459
  476MOL0     C62712   2.786   5.707   2.828 -0.5110 -0.6808  0.1100
  476MOL0     C62713   2.789   5.766   2.969 -0.3787  0.2326 -0.3768
  476MOL0     C62714   2.879   5.679   3.063  0.1388 -0.3339  0.6439
  476MOL0     C62715   2.913   5.746   3.200 -0.7000  0.3639  0.3890
  476MOL0     C62716   2.781   5.782   3.277  0.6278  0.1651  0.0234
  476MOL0     N62717   2.812   5.762   3.413  0.0944  1.3923  0.2954
  476MOL0     C62718   2.916   5.830   3.479  0.6545 -0.0020  0.5471
  476MOL0     C62719   2.940   5.758   3.587  0.0138  0.2233  0.4787
  476MOL0     C62720   3.034   5.797   3.693  0.1268 -0.3603 -0.8579
  476MOL0     C62721   3.190   5.759   3.663  0.1940 -0.0959  1.6805
  476MOL0     C62722   3.281   5.845   3.742  0.1154 -0.7712  0.1341
  476MOL0     C62723   3.422   5.831   3.704  0.8060 -0.7032 -0.1277
  476MOL0     O62724   3.502   5.919   3.785 -0.5175  0.6030 -0.4810
  476MOL0     C62725   3.549   5.855   3.898  0.7776 -0.1593 -0.2413
  476MOL0     C62726   3.544   5.932   4.017  0.3721  0.4907 -0.5323
  476MOL0     C62727   3.608   5.889   4.135  0.4474  0.5749  0.1766
  476MOL0     C62728   3.666   5.763   4.140  0.2392 -0.2031  0.3264
  476MOL0     C62729   3.719   5.725   4.267 -0.0289 -0.5010  0.0839
  476MOL0     O62730   3.766   5.829   4.347  0.0251 -0.1933  0.8177
  476MOL0     C62731   3.787   5.802   4.479 -0.0465  0.3805  0.0371
  476MOL0     C62732   3.700   5.715   4.562 -0.0439  0.7436 -0.3622
  476MOL0     C62733   3.741   5.684   4.692 -0.3659  0.2557  0.2521
  476MOL0     C62734   3.850   5.738   4.745  0.3839 -0.3037 -0.6313
  476MOL0     O62735   3.876   5.708   4.882 -0.9689 -0.0143 -0.2393
  476MOL0     C62736   4.015   5.700   4.916  1.0561  0.1322 -1.0778
  476MOL0     C62737   4.024   5.622   5.044 -0.1677  1.0226 -0.4486
  476MOL0     C62738   4.166   5.617   5.082  0.1623  0.5913  0.4470
  476MOL0     C62739   4.182   5.586   5.228  0.1212 -0.0753 -0.3871
  476MOL0     C62740   4.315   5.523   5.256  0.4008 -0.0160  0.0330
  476MOL0     C62741   4.324   5.384   5.194  0.2862 -0.1154  0.4314
  476MOL0     C62742   4.409   5.294   5.287 -0.0404 -0.3466  0.0932
  476MOL0     C62743   4.400   5.152   5.232 -0.0576  0.0562 -0.5767
  476MOL0    Cl62744   4.455   5.037   5.354 -0.0676  0.0298  0.2542
  476MOL0     C62745   3.937   5.813   4.670 -0.6265 -0.0486  0.0545
  476MOL0     C62746   3.908   5.840   4.535  0.0869  0.1581  0.1062
  476MOL0     O62747   3.728   5.602   4.299 -0.1267  0.1278  0.5043
  476MOL0     C62748   3.675   5.687   4.023  0.2741  0.0264  1.3062
  476MOL0     C62749   3.618   5.733   3.908  0.1499  0.0829  0.3584
  476MOL0     N62750   2.852   5.649   3.579 -0.6451  0.0174 -0.0302
  476MOL0     N62751   2.772   5.654   3.486  0.7598 -0.3534 -0.0004
  476MOL0     C62752   2.443   5.874   2.290 -0.7062 -0.3334 -0.0711
  476MOL0     C62753   2.363   5.913   2.186  0.0123  0.9134 -0.5968
  476MOL0     C62754   2.175   5.972   1.789 -0.8673 -0.4968 -0.0227
  476MOL0     C62755   2.040   5.954   1.806 -0.3027  0.4408  0.0358
  476MOL0     C62756   1.953   6.007   1.716  0.7514  0.4617 -0.2911
  476MOL0     C62757   1.994   6.073   1.599 -0.0082 -0.4313  0.8960
  476MOL0     O62758   1.904   6.109   1.506  0.9287 -0.9924  0.3269
  476MOL0     C62759   1.841   6.002   1.444  0.0543  0.5416  0.8810
  476MOL0     C62760   1.695   5.978   1.494  0.0417 -0.6730 -0.9498
  476MOL0     C62761   1.583   5.965   1.400  0.6819 -0.1320 -0.2951
  476MOL0     C62762   1.599   5.842   1.306  0.2687 -0.1349  0.2957
  476MOL0     C62763   1.579   5.714   1.381 -0.2029 -0.2520 -0.3789
  476MOL0     C62764   1.553   5.607   1.425  0.1550  0.8896  0.7606
  476MOL0     C62765   2.131   6.091   1.587  0.1330 -0.0761 -0.5202
  476MOL0     C62766   2.222   6.037   1.676  0.6344  0.8951  0.0249
  476MOL0     H62767   2.271   5.603   2.072 -1.6684  0.7246  2.1840
  476MOL0     H62768   2.435   5.539   2.244 -0.3237 -0.0365 -0.1089
  476MOL0     H62769   2.518   5.796   2.576 -1.5247 -1.5451 -2.6771
  476MOL0     H62770   2.645   5.874   2.467  0.6234  0.0837 -1.9986
  476MOL0     H62771   2.806   5.698   2.549  0.9672  1.0184  2.2285
  476MOL0     H62772   2.664   5.622   2.611  2.4395 -1.3634 -3.1160
  476MOL0     H62773   2.623   5.835   2.757 -2.2807 -4.7508 -2.8405
  476MOL0     H62774   2.784   5.893   2.694  0.2034  1.7388  2.2577
  476MOL0     H62775   2.733   5.612   2.829 -3.0175  0.6312  1.5707
  476MOL0     H62776   2.887   5.682   2.794  0.2586  1.2137  0.8568
  476MOL0     H62777   2.687   5.768   3.011 -2.0407  3.3144 -4.0042
  476MOL0     H62778   2.813   5.872   2.958 -0.1617 -0.0628 -3.3857
  476MOL0     H62779   2.972   5.666   3.006 -1.4820  0.1960 -2.3605
  476MOL0     H62780   2.840   5.579   3.085  4.2589 -2.3403 -0.2491
  476MOL0     H62781   2.974   5.666   3.244  1.7158  0.4550 -2.4877
  476MOL0     H62782   2.970   5.840   3.197 -3.7214  2.3351  0.4495
  476MOL0     H62783   2.699   5.717   3.245  1.5260 -0.1520 -1.7700
  476MOL0     H62784   2.751   5.886   3.259  1.5488  0.9314  2.5454
  476MOL0     H62785   2.958   5.926   3.452 -0.3818  0.1312 -0.6749
  476MOL0     H62786   3.004   5.746   3.785  1.4752 -1.3545 -0.9277
  476MOL0     H62787   3.033   5.903   3.720 -1.9255 -1.1320  2.7119
  476MOL0     H62788   3.217   5.779   3.559 -0.5381  0.8821  1.6583
  476MOL0     H62789   3.201   5.652   3.679  1.3042  0.0620  2.0578
  476MOL0     H62790   3.265   5.953   3.730  2.3626 -0.4142  0.0189
  476MOL0     H62791   3.264   5.805   3.843 -1.3234 -3.4906 -1.0887
  476MOL0     H62792   3.437   5.858   3.599  2.1752 -1.1273 -0.0556
  476MOL0     H62793   3.447   5.724   3.700  0.5616 -0.8352  1.2047
  476MOL0     H62794   3.483   6.021   4.008 -3.4009 -1.5840  1.7805
  476MOL0     H62795   3.595   5.952   4.223 -0.8822  3.1405 -1.7427
  476MOL0     H62796   3.613   5.668   4.516 -0.1853  1.3475 -0.7308
  476MOL0     H62797   3.697   5.621   4.768  0.6515 -1.0292 -0.1840
  476MOL0     H62798   4.057   5.800   4.930  0.0051  0.3330  1.0662
  476MOL0     H62799   4.062   5.645   4.834  0.9082 -2.4529  0.4615
  476MOL0     H62800   3.996   5.518   5.024 -2.2327  1.4270  0.1155
  476MOL0     H62801   3.960   5.672   5.117 -0.2821  0.6706 -0.3075
  476MOL0     H62802   4.205   5.718   5.067 -1.8091  1.0740 -2.2011
  476MOL0     H62803   4.217   5.544   5.019 -0.5363  0.6919 -0.2491
  476MOL0     H62804   4.181   5.677   5.288 -0.2665  0.1926 -0.7914
  476MOL0     H62805   4.104   5.514   5.257 -0.3355  1.0096  1.1900
  476MOL0     H62806   4.347   5.519   5.360  0.7626 -1.6503 -0.1142
  476MOL0     H62807   4.385   5.594   5.212 -0.8872 -0.0638 -2.2482
  476MOL0     H62808   4.369   5.388   5.094  1.7448  0.5825  1.0745
  476MOL0     H62809   4.221   5.350   5.196 -0.0944  0.8926  3.4451
  476MOL0     H62810   4.511   5.331   5.276 -1.3480  4.0282  1.0204
  476MOL0     H62811   4.375   5.304   5.390 -0.1208  1.6715 -0.0923
  476MOL0     H62812   4.464   5.150   5.143  0.9491  3.3721 -0.0871
  476MOL0     H62813   4.301   5.116   5.203  0.2413  0.5627 -2.3263
  476MOL0     H62814   4.031   5.859   4.699 -1.6473  1.4947  1.0560
  476MOL0     H62815   3.979   5.890   4.470  2.1591 -2.1294  0.4627
  476MOL0     H62816   3.727   5.593   4.018 -2.1489 -1.3413 -1.0056
  476MOL0     H62817   3.646   5.677   3.819  1.7698  1.1497  0.1629
  476MOL0     H62818   2.480   5.957   2.349 -2.1966  1.0282 -0.9729
  476MOL0     H62819   2.321   6.013   2.190  0.2141  1.0857 -2.1484
  476MOL0     H62820   1.999   5.907   1.895 -1.2502  0.4092 -0.4033
  476MOL0     H62821   1.846   5.996   1.733  1.1270 -0.1803  1.8987
  476MOL0     H62822   1.902   5.911   1.454  1.8308  1.5153 -0.6617
  476MOL0     H62823   1.821   6.032   1.341 -2.3802  0.6427  1.3253
  476MOL0     H62824   1.704   5.895   1.564 -0.2638  1.4127  1.7272
  476MOL0     H62825   1.664   6.068   1.547  1.8296 -1.5244  1.7213
  476MOL0     H62826   1.571   6.057   1.342 -1.3137  0.1393  0.4626
  476MOL0     H62827   1.488   5.961   1.454  0.3732  1.9215 -0.6023
  476MOL0     H62828   1.536   5.856   1.218  1.5046  2.2685 -0.3038
  476MOL0     H62829   1.696   5.840   1.255 -0.9808 -1.7549 -2.2487
  476MOL0     H62830   1.526   5.504   1.437  2.8427  0.2421  2.0130
  476MOL0     H62831   2.158   6.130   1.489  0.9521  1.7597  0.3790
  476MOL0     H62832   2.330   6.048   1.664  1.5056  0.7879  5.5218
  477MOL0     O62833   7.603   9.424   6.987  0.7722  0.3707  0.4222
  477MOL0     C62834   7.494   9.471   6.945 -0.0991 -0.8217  0.5927
  477MOL0     O62835   7.380   9.402   6.926  0.7581  1.0233  0.2128
  477MOL0     C62836   7.390   9.272   6.986  0.2609 -0.5709 -0.0003
  477MOL0     C62837   7.407   9.244   7.124  0.0718 -0.1146 -0.3248
  477MOL0     C62838   7.431   9.115   7.164 -0.6391  0.0216  0.7293
  477MOL0     C62839   7.426   9.008   7.066  0.0685 -0.1522  0.1094
  477MOL0     O62840   7.439   8.875   7.111 -0.0267  0.0797 -0.1887
  477MOL0     C62841   7.377   8.766   7.036 -1.2223 -0.3145 -0.7290
  477MOL0     C62842   7.359   8.646   7.122 -0.5211 -0.7739  0.7757
  477MOL0     C62843   7.282   8.539   7.042 -0.5480 -0.3502 -0.4059
  477MOL0     C62844   7.135   8.567   7.022 -0.3424  0.6843 -0.4638
  477MOL0     C62845   7.057   8.490   6.924 -0.0433 -0.8632  0.1876
  477MOL0     C62846   6.905   8.505   6.965 -0.5451 -0.0946 -0.3488
  477MOL0     C62847   6.819   8.510   6.847  0.0483  0.5564  0.3548
  477MOL0     C62848   6.671   8.559   6.878 -0.2366 -0.1606  0.6115
  477MOL0     N62849   6.615   8.579   6.747  0.3975 -1.0122  0.8056
  477MOL0     C62850   6.633   8.696   6.677  0.2287  0.3376 -0.8068
  477MOL0     C62851   6.551   8.678   6.572  0.1477  0.1546  0.0732
  477MOL0     C62852   6.515   8.799   6.478 -0.5881  0.1743 -0.2385
  477MOL0     C62853   6.609   8.817   6.367  0.2242  0.4025 -0.6005
  477MOL0     C62854   6.745   8.844   6.413  0.4349 -0.3594 -1.2504
  477MOL0     C62855   6.831   8.916   6.302  0.1486 -1.1044 -0.0047
  477MOL0     O62856   6.964   8.927   6.342  0.0740 -1.0927  0.4230
  477MOL0     C62857   7.058   8.984   6.251  0.3883  0.8571 -0.5797
  477MOL0     C62858   7.022   9.044   6.131  0.2212 -0.7915 -0.8964
  477MOL0     C62859   7.120   9.110   6.047  0.8715  0.7637  0.1900
  477MOL0     C62860   7.256   9.103   6.088 -0.3182  0.4201 -0.1800
  477MOL0     C62861   7.353   9.183   6.012  0.3301 -0.4922  1.1186
  477MOL0     O62862   7.480   9.186   6.064  0.6418  0.1629  0.9790
  477MOL0     C62863   7.559   9.291   6.023  0.6023 -0.4230 -0.9039
  477MOL0     C62864   7.518   9.413   5.967  0.4950 -0.4421  0.2659
  477MOL0     C62865   7.611   9.505   5.928  0.0751 -0.2449 -0.4813
  477MOL0     C62866   7.747   9.471   5.934 -0.6946  0.3849 -0.1425
  477MOL0     O62867   7.836   9.566   5.891 -0.2610 -0.9066  0.5854
  477MOL0     C62868   7.967   9.532   5.834  0.8449  0.1531  0.3403
  477MOL0     C62869   7.966   9.481   5.693  0.6650 -0.0142 -0.1169
  477MOL0     C62870   7.940   9.589   5.588  0.8420 -0.3389  0.7942
  477MOL0     C62871   7.931   9.531   5.442 -0.2485 -0.2787 -0.6479
  477MOL0     C62872   8.060   9.473   5.390  0.3606  0.1489 -0.1455
  477MOL0     C62873   8.080   9.457   5.238  0.8206  0.2680 -0.9369
  477MOL0     C62874   7.976   9.362   5.171 -0.0067 -0.7758  0.5903
  477MOL0     C62875   8.006   9.323   5.028  0.7773 -0.6793  0.7404
  477MOL0    Cl62876   8.158   9.231   4.998  0.2546  0.6691  0.1037
  477MOL0     C62877   7.784   9.347   5.972  0.4347 -1.3309  0.1763
  477MOL0     C62878   7.693   9.260   6.020 -0.5030 -0.3947  0.2898
  477MOL0     O62879   7.324   9.210   5.888 -0.1658 -0.0720 -0.3735
  477MOL0     C62880   7.285   9.034   6.206 -0.1011 -0.4156  0.3598
  477MOL0     C62881   7.186   8.977   6.287  0.0847  1.1008 -0.1151
  477MOL0     N62882   6.489   8.553   6.577  0.0945 -0.3255 -0.1015
  477MOL0     N62883   6.529   8.490   6.686  0.0957  0.3295 -0.1249
  477MOL0     C62884   7.410   9.036   6.925  0.9767  0.1449  0.5876
  477MOL0     C62885   7.402   9.168   6.890 -1.0782 -0.3522 -0.0021
  477MOL0     C62886   7.496   9.605   6.892  0.3956 -0.3228  0.3135
  477MOL0     C62887   7.381   9.660   6.823  0.1477  0.5285  1.4773
  477MOL0     C62888   7.397   9.777   6.745 -0.9586 -0.3464 -0.4368
  477MOL0     C62889   7.519   9.847   6.744 -0.4498 -1.1671  0.9141
  477MOL0     O62890   7.542   9.956   6.664 -0.5772  0.7559 -0.1669
  477MOL0     C62891   7.428  10.033   6.609 -0.7653 -0.3070 -0.0264
  477MOL0     C62892   7.484  10.105   6.491 -0.3232 -0.4291 -0.5906
  477MOL0     C62893   7.378  10.188   6.416 -0.8930 -0.6128  0.0685
  477MOL0     C62894   7.436  10.274   6.304 -1.5411 -0.8635  0.0820
  477MOL0     C62895   7.326  10.355   6.247 -0.2484 -0.2122  0.5796
  477MOL0     C62896   7.248  10.439   6.221 -0.7012 -0.7489  1.6092
  477MOL0     C62897   7.628   9.792   6.814 -0.5326  1.0457  0.5152
  477MOL0     C62898   7.614   9.672   6.884 -0.6754  0.1599 -0.3964
  477MOL0     H62899   7.398   9.328   7.192 -2.6202 -0.3599 -0.2821
  477MOL0     H62900   7.443   9.092   7.270 -1.9268 -2.0088  0.4817
  477MOL0     H62901   7.443   8.738   6.954 -0.2113  1.6464 -0.6615
  477MOL0     H62902   7.283   8.799   6.992  0.2286  0.6122 -3.4178
  477MOL0     H62903   7.303   8.681   7.209 -1.3842  0.5577 -0.2678
  477MOL0     H62904   7.457   8.605   7.146  1.1672  1.0889 -2.3267
  477MOL0     H62905   7.299   8.444   7.095 -1.0891  0.1353  0.6719
  477MOL0     H62906   7.324   8.532   6.941  0.7896 -0.3052  0.1316
  477MOL0     H62907   7.082   8.554   7.116 -1.1026  0.2856 -0.9403
  477MOL0     H62908   7.124   8.674   7.002  2.4154  1.3161  0.9009
  477MOL0     H62909   7.083   8.385   6.936 -1.0889 -1.2309 -0.6275
  477MOL0     H62910   7.077   8.518   6.821 -1.2305 -0.0085  0.1679
  477MOL0     H62911   6.884   8.600   7.015 -2.0010  1.5481 -3.7757
  477MOL0     H62912   6.874   8.426   7.034  0.2915 -0.3976 -0.2993
  477MOL0     H62913   6.859   8.568   6.763 -0.5587 -1.8592 -1.7473
  477MOL0     H62914   6.814   8.408   6.808  0.8115 -1.2485  4.4121
  477MOL0     H62915   6.663   8.656   6.928 -1.2824 -0.9700  2.0976
  477MOL0     H62916   6.610   8.482   6.925  2.7526 -3.9197 -1.1134
  477MOL0     H62917   6.682   8.792   6.691  1.5158 -0.0137 -2.5048
  477MOL0     H62918   6.521   8.892   6.535 -1.4985 -0.4449  0.9194
  477MOL0     H62919   6.413   8.787   6.440 -0.0259 -0.0749 -1.7316
  477MOL0     H62920   6.563   8.894   6.304  1.4935  0.8482 -1.0146
  477MOL0     H62921   6.622   8.721   6.316  0.1678 -0.1650  0.4450
  477MOL0     H62922   6.738   8.913   6.498  1.4685 -1.7819  0.0303
  477MOL0     H62923   6.783   8.749   6.449 -4.8722 -0.9903  4.0826
  477MOL0     H62924   6.797   9.018   6.281  1.5362 -0.7269 -0.5641
  477MOL0     H62925   6.832   8.870   6.203 -2.4742  0.4599 -0.8863
  477MOL0     H62926   6.917   9.060   6.107  0.0705  3.8376  1.6022
  477MOL0     H62927   7.092   9.165   5.958 -1.0195 -0.4402 -0.0073
  477MOL0     H62928   7.410   9.422   5.956  0.3638 -1.7204  0.2985
  477MOL0     H62929   7.581   9.593   5.871  2.8515  1.1797  0.0914
  477MOL0     H62930   8.022   9.454   5.888  1.1294  0.1302  0.0184
  477MOL0     H62931   8.034   9.618   5.833  2.9073 -1.3869 -0.2054
  477MOL0     H62932   7.895   9.399   5.680 -0.6322  0.9442  0.6964
  477MOL0     H62933   8.060   9.427   5.678  1.2961  1.1169 -0.3619
  477MOL0     H62934   8.018   9.664   5.601 -1.2643  2.0783  0.3528
  477MOL0     H62935   7.848   9.647   5.597  0.7607  0.0521 -1.8309
  477MOL0     H62936   7.847   9.461   5.448  0.9242 -1.7516 -0.7395
  477MOL0     H62937   7.904   9.613   5.375  2.1468  0.8123 -0.3926
  477MOL0     H62938   8.062   9.377   5.443  1.0130  0.5493  0.5806
  477MOL0     H62939   8.140   9.529   5.441 -0.7175 -0.0133  1.8498
  477MOL0     H62940   8.173   9.401   5.234 -1.1362 -3.2130 -2.0560
  477MOL0     H62941   8.089   9.557   5.194 -3.1455  0.0408 -2.7836
  477MOL0     H62942   7.957   9.268   5.224 -2.9622 -1.3662 -1.2530
  477MOL0     H62943   7.875   9.405   5.165 -0.8794 -2.8067 -0.5739
  477MOL0     H62944   7.999   9.417   4.973 -3.1031 -1.1505  0.1571
  477MOL0     H62945   7.916   9.270   4.998  1.8252 -2.1143  0.0083
  477MOL0     H62946   7.890   9.321   5.965  0.3804 -1.3486 -0.7219
  477MOL0     H62947   7.718   9.161   6.056 -0.8777 -2.3411 -4.0616
  477MOL0     H62948   7.388   9.010   6.231  0.4389  2.3211  1.0775
  477MOL0     H62949   7.221   8.912   6.367 -0.8802 -0.1215 -0.6420
  477MOL0     H62950   7.387   8.968   6.843 -0.8409  0.7209  0.5802
  477MOL0     H62951   7.393   9.203   6.787 -1.3397 -0.2489  0.0534
  477MOL0     H62952   7.285   9.610   6.822 -1.0148  2.6789  0.4503
  477MOL0     H62953   7.303   9.807   6.698 -2.1862 -4.0732 -0.7123
  477MOL0     H62954   7.400  10.099   6.692  4.0008  1.6701  0.3526
  477MOL0     H62955   7.344   9.978   6.567  0.1920 -1.4426 -0.5159
  477MOL0     H62956   7.556  10.180   6.525  1.0235 -2.1604  0.4628
  477MOL0     H62957   7.533  10.029   6.430 -3.5776 -3.1679 -0.1133
  477MOL0     H62958   7.339  10.263   6.485  0.3972 -0.3363  0.5347
  477MOL0     H62959   7.297  10.123   6.383 -0.2652  0.2787 -3.5914
  477MOL0     H62960   7.511  10.350   6.332  0.9058 -1.8315 -3.2428
  477MOL0     H62961   7.485  10.209   6.231  0.7895 -0.3636  1.0939
  477MOL0     H62962   7.173  10.507   6.185  0.1229 -0.2507  0.7866
  477MOL0     H62963   7.728   9.834   6.801 -0.3476  0.1970 -1.2236
  477MOL0     H62964   7.703   9.624   6.921 -2.0958 -1.1902  1.4843
  478MOL0     O62965   6.333   7.538   9.281  0.1054  0.1134 -0.2141
  478MOL0     C62966   6.269   7.593   9.376  0.0357  0.5830  0.1153
  478MOL0     O62967   6.134   7.599   9.383  0.5669  0.1192 -0.3839
  478MOL0     C62968   6.070   7.528   9.285  1.0589  0.1784  1.6199
  478MOL0     C62969   6.035   7.397   9.293  0.0020 -0.2209 -0.1363
  478MOL0     C62970   5.958   7.326   9.208  0.3312  0.0931 -0.4327
  478MOL0     C62971   5.905   7.395   9.102  1.0271  0.0077  0.1970
  478MOL0     O62972   5.819   7.342   9.004  0.0226 -0.6112 -0.5261
  478MOL0     C62973   5.770   7.206   9.022  0.4735  0.6181  0.0931
  478MOL0     C62974   5.707   7.146   8.885  0.5358 -1.0324  0.6406
  478MOL0     C62975   5.642   7.004   8.914 -0.2011 -0.3218  0.7299
  478MOL0     C62976   5.571   6.952   8.787 -0.5883 -0.5608  0.3001
  478MOL0     C62977   5.461   7.032   8.732  0.2517 -0.4433 -1.2529
  478MOL0     C62978   5.397   6.957   8.617 -0.5331  1.1353 -0.4460
  478MOL0     C62979   5.277   7.022   8.553  0.4911 -0.1484  0.0371
  478MOL0     C62980   5.303   7.157   8.489 -0.5820 -0.1432 -0.2341
  478MOL0     N62981   5.406   7.141   8.379 -0.1867  0.3340 -0.7674
  478MOL0     C62982   5.539   7.189   8.384 -0.3207 -0.1604 -0.5640
  478MOL0     C62983   5.577   7.187   8.259 -0.5265  0.7683 -0.3378
  478MOL0     C62984   5.708   7.228   8.205 -0.0130 -0.0867 -1.0213
  478MOL0     C62985   5.714   7.384   8.214 -1.2955 -0.7809  0.1515
  478MOL0     C62986   5.688   7.447   8.076  0.4643  0.2956 -0.1900
  478MOL0     C62987   5.538   7.446   8.031  0.1860  0.1491  0.7162
  478MOL0     O62988   5.450   7.509   8.118  0.7454 -0.5495 -0.1749
  478MOL0     C62989   5.315   7.499   8.103  0.1973 -0.5060 -0.8408
  478MOL0     C62990   5.239   7.540   8.220  0.6349  0.0512 -0.2829
  478MOL0     C62991   5.095   7.543   8.217 -0.9444 -0.8212 -0.4805
  478MOL0     C62992   5.035   7.498   8.097 -0.3171  0.8538  0.2126
  478MOL0     C62993   4.885   7.497   8.084  0.1510  0.0481 -0.6145
  478MOL0     O62994   4.812   7.514   8.199  0.0262 -0.1066 -0.6790
  478MOL0     C62995   4.681   7.526   8.212  0.3785 -0.2312 -0.3811
  478MOL0     C62996   4.581   7.480   8.129  0.3511  0.5575 -0.2149
  478MOL0     C62997   4.444   7.483   8.168  0.4820  0.4601  0.3488
  478MOL0     C62998   4.408   7.544   8.288  0.5986 -0.6818  0.4909
  478MOL0     O62999   4.282   7.561   8.340 -0.3597 -0.6051 -0.1955
  478MOL0     C63000   4.166   7.533   8.259 -0.3373 -0.5362  0.4514
  478MOL0     C63001   4.054   7.516   8.344  0.2949  0.1548 -0.3003
  478MOL0     C63002   3.928   7.487   8.259  0.2249 -0.0396 -0.2751
  478MOL0     C63003   3.802   7.490   8.347 -0.0299 -0.2239  0.8979
  478MOL0     C63004   3.703   7.412   8.267 -0.7268 -0.3644 -0.3924
  478MOL0     C63005   3.567   7.430   8.326 -0.0880  0.3098  0.1226
  478MOL0     C63006   3.522   7.576   8.356 -0.7812  0.5032 -0.9524
  478MOL0     C63007   3.377   7.579   8.393 -0.7195 -0.1094  0.2382
  478MOL0    Cl63008   3.280   7.602   8.243  0.4757 -0.1596  0.0036
  478MOL0     C63009   4.509   7.598   8.371 -0.0821  0.4672  0.3349
  478MOL0     C63010   4.644   7.587   8.331  0.3590 -0.4968  0.4424
  478MOL0     O63011   4.836   7.492   7.969 -0.0787 -0.6848 -0.3052
  478MOL0     C63012   5.110   7.446   7.987 -0.6402 -0.3527  0.4129
  478MOL0     C63013   5.244   7.449   7.993  0.0616  0.8395  0.5652
  478MOL0     N63014   5.476   7.140   8.181 -0.4282  0.8480  0.3503
  478MOL0     N63015   5.371   7.116   8.254 -0.0651 -0.4510 -0.3107
  478MOL0     C63016   5.937   7.535   9.084  0.1785 -0.1594 -0.0348
  478MOL0     C63017   6.014   7.608   9.180  0.0444  0.2709 -0.5890
  478MOL0     C63018   6.348   7.639   9.487  0.6318 -0.8177 -0.0610
  478MOL0     C63019   6.485   7.664   9.473  0.2786  0.7612 -0.8460
  478MOL0     C63020   6.552   7.717   9.584 -0.5678 -0.5721 -0.6074
  478MOL0     C63021   6.496   7.751   9.705  0.2967 -0.1665 -1.0191
  478MOL0     O63022   6.559   7.805   9.819  0.2572  1.0531 -0.6508
  478MOL0     C63023   6.706   7.791   9.828 -0.2422 -0.1577  0.3592
  478MOL0     C63024   6.763   7.844   9.957  0.4137  0.3081 -0.1464
  478MOL0     C63025   6.737   7.993   9.976  0.7654 -1.5184  0.3667
  478MOL0     C63026   6.774   8.032  10.121 -0.1258  0.8334  1.3234
  478MOL0     C63027   6.710   8.163  10.150  0.1041  0.4547  1.0177
  478MOL0     C63028   6.667   8.273  10.182 -0.4396 -0.0704  0.3002
  478MOL0     C63029   6.365   7.718   9.712  0.0273  0.1683 -0.0774
  478MOL0     C63030   6.297   7.671   9.610  0.0324 -0.2648  0.3335
  478MOL0     H63031   6.072   7.351   9.384  2.4722  0.4359 -0.7505
  478MOL0     H63032   5.933   7.224   9.237  0.9447  0.7087  2.5532
  478MOL0     H63033   5.688   7.206   9.094  1.0255 -1.4619  0.7986
  478MOL0     H63034   5.843   7.137   9.065 -0.3608  0.9710  2.1582
  478MOL0     H63035   5.787   7.136   8.811  2.8747 -1.2666  3.0196
  478MOL0     H63036   5.636   7.223   8.854  0.4083 -1.1828  0.5632
  478MOL0     H63037   5.574   7.012   8.999 -3.8609 -1.3348 -1.8497
  478MOL0     H63038   5.712   6.929   8.952  1.5389  1.6475  1.5986
  478MOL0     H63039   5.641   6.926   8.707 -1.4256 -1.9501 -0.0288
  478MOL0     H63040   5.517   6.861   8.816 -3.8183  0.7854 -0.9480
  478MOL0     H63041   5.491   7.135   8.709 -1.8153  0.7134  0.7617
  478MOL0     H63042   5.393   7.060   8.813  1.1153  2.8992 -1.4957
  478MOL0     H63043   5.380   6.851   8.641  3.0275  0.3713 -0.7126
  478MOL0     H63044   5.466   6.935   8.535 -2.4635  0.9389 -2.0806
  478MOL0     H63045   5.241   6.953   8.477 -1.4704 -0.6014  1.2859
  478MOL0     H63046   5.192   7.028   8.622  0.9165  0.4370  0.5194
  478MOL0     H63047   5.340   7.240   8.549 -1.5223  0.8633 -0.9953
  478MOL0     H63048   5.213   7.200   8.445  0.0274  1.8931  0.4174
  478MOL0     H63049   5.591   7.225   8.472  0.6685  0.0940 -1.2457
  478MOL0     H63050   5.725   7.184   8.106 -0.5378  0.1629 -1.2257
  478MOL0     H63051   5.788   7.187   8.268 -1.2425 -0.8485  0.0912
  478MOL0     H63052   5.818   7.407   8.240 -2.1022  1.5651  1.5582
  478MOL0     H63053   5.651   7.423   8.294 -0.1840 -2.0134  1.6923
  478MOL0     H63054   5.734   7.546   8.062 -0.2300  0.5426 -0.8259
  478MOL0     H63055   5.745   7.386   8.006  0.8470 -1.6113  1.7180
  478MOL0     H63056   5.501   7.343   8.019 -1.6563  0.9957 -1.8126
  478MOL0     H63057   5.535   7.506   7.939  1.2739  1.2563  1.3812
  478MOL0     H63058   5.276   7.579   8.314 -0.3809 -2.1424  1.0993
  478MOL0     H63059   5.037   7.565   8.306 -0.2094 -0.6891 -0.0258
  478MOL0     H63060   4.608   7.443   8.031 -0.1110 -1.3689  0.3329
  478MOL0     H63061   4.369   7.441   8.102 -3.5165  0.2334  4.5274
  478MOL0     H63062   4.186   7.441   8.205 -2.2034 -0.5919 -0.2133
  478MOL0     H63063   4.148   7.616   8.189 -0.4784  1.4223  2.6760
  478MOL0     H63064   4.035   7.607   8.402 -1.4126  1.0323 -2.0951
  478MOL0     H63065   4.073   7.430   8.408  0.7795  1.7080  1.7597
  478MOL0     H63066   3.944   7.395   8.202 -1.0989  0.8970 -2.2915
  478MOL0     H63067   3.930   7.561   8.178  0.2857 -0.0967 -0.3254
  478MOL0     H63068   3.822   7.429   8.435 -1.2292 -1.9738 -0.0011
  478MOL0     H63069   3.765   7.589   8.377  0.3962 -0.5700  2.6697
  478MOL0     H63070   3.722   7.305   8.268 -1.5106 -0.5208 -1.1213
  478MOL0     H63071   3.703   7.446   8.163 -1.6704 -2.2056 -1.0289
  478MOL0     H63072   3.566   7.368   8.417 -3.0998 -0.5271 -0.3854
  478MOL0     H63073   3.501   7.381   8.255  2.2898 -1.7881 -0.8150
  478MOL0     H63074   3.573   7.617   8.443 -2.7103 -0.3694  0.6501
  478MOL0     H63075   3.546   7.641   8.271  1.4528  0.4954 -0.3957
  478MOL0     H63076   3.363   7.665   8.458  3.0250  0.2791  0.7073
  478MOL0     H63077   3.339   7.495   8.452 -3.5894  2.3150  2.1754
  478MOL0     H63078   4.479   7.640   8.467  1.2317 -1.9989  1.9275
  478MOL0     H63079   4.714   7.638   8.397 -0.8306 -0.2160  1.5388
  478MOL0     H63080   5.051   7.414   7.901 -0.1158  1.6505 -0.7637
  478MOL0     H63081   5.298   7.403   7.911  0.3247 -3.1054  2.6780
  478MOL0     H63082   5.900   7.564   8.986  0.7526 -2.3338 -0.9422
  478MOL0     H63083   6.049   7.710   9.188  0.7958 -0.1305  3.3840
  478MOL0     H63084   6.538   7.644   9.380  0.2938  3.5143 -1.5296
  478MOL0     H63085   6.660   7.717   9.569 -0.4451 -3.0088 -0.1161
  478MOL0     H63086   6.758   7.848   9.750  2.1153  0.2405  2.1100
  478MOL0     H63087   6.741   7.690   9.806 -0.1855 -0.0894  0.1285
  478MOL0     H63088   6.709   7.784  10.030 -1.7500 -0.7535 -2.4653
  478MOL0     H63089   6.870   7.828   9.974  0.8814  2.6460 -0.5261
  478MOL0     H63090   6.629   8.008   9.964  0.8704  0.4913  1.4289
  478MOL0     H63091   6.795   8.055   9.908  0.4787 -1.3227  0.2968
  478MOL0     H63092   6.750   7.955  10.194  0.9705  0.1297  0.9617
  478MOL0     H63093   6.882   8.049  10.131  0.0029  0.2391  0.9502
  478MOL0     H63094   6.634   8.368  10.220 -0.0934  0.5369 -0.8531
  478MOL0     H63095   6.323   7.729   9.811 -2.7627  1.0059 -1.2497
  478MOL0     H63096   6.191   7.660   9.632 -0.2736  1.1284 -0.2977
  479MOL0     O63097   2.629   6.355  11.406  0.0630 -0.5029 -1.2314
  479MOL0     C63098   2.531   6.281  11.382  0.4680  0.4833  0.4073
  479MOL0     O63099   2.439   6.304  11.282 -0.2520  0.1783 -0.1563
  479MOL0     C63100   2.473   6.401  11.183 -0.4564 -0.3260  0.1969
  479MOL0     C63101   2.499   6.530  11.213 -0.3050  0.2758 -0.0636
  479MOL0     C63102   2.542   6.627  11.110 -0.4226 -0.1708  1.0046
  479MOL0     C63103   2.554   6.584  10.979 -0.3149 -0.7018  0.2561
  479MOL0     O63104   2.612   6.665  10.882  0.2985  0.6296  0.8892
  479MOL0     C63105   2.565   6.802  10.875 -1.3773 -0.7124 -0.3125
  479MOL0     C63106   2.673   6.872  10.777 -0.6628 -0.1327  0.2568
  479MOL0     C63107   2.637   6.839  10.630 -0.4235 -1.5137  0.2340
  479MOL0     C63108   2.732   6.930  10.530 -0.7678  0.5917 -0.3046
  479MOL0     C63109   2.669   6.950  10.394  0.8869  1.1699 -0.5758
  479MOL0     C63110   2.651   6.814  10.320 -0.1919  0.7689  0.7642
  479MOL0     C63111   2.533   6.804  10.229  0.6776  0.8477 -0.0797
  479MOL0     C63112   2.396   6.810  10.298  0.5576  0.7900 -0.1284
  479MOL0     N63113   2.342   6.673  10.318 -0.0028 -0.1051  0.4332
  479MOL0     C63114   2.322   6.579  10.221  0.1969 -0.0160 -0.5080
  479MOL0     C63115   2.273   6.472  10.291 -0.5823  0.3158 -1.1934
  479MOL0     C63116   2.223   6.343  10.240 -0.3491  0.1655 -0.3059
  479MOL0     C63117   2.074   6.314  10.255  0.2713 -0.5264  1.0295
  479MOL0     C63118   2.058   6.164  10.227  0.9299 -0.0265  0.2863
  479MOL0     C63119   1.911   6.133  10.247 -0.2652 -0.6005 -0.4000
  479MOL0     O63120   1.866   6.012  10.188  0.2248 -0.3409  0.5983
  479MOL0     C63121   1.743   5.969  10.231  0.6219  0.0336  0.1276
  479MOL0     C63122   1.630   6.037  10.297  0.3226  0.1622  0.6100
  479MOL0     C63123   1.506   5.972  10.305 -0.6453  0.1338 -0.7434
  479MOL0     C63124   1.505   5.834  10.268 -0.2817 -0.5484 -0.1114
  479MOL0     C63125   1.381   5.759  10.300  0.0795  0.4622 -0.0963
  479MOL0     O63126   1.275   5.836  10.342  0.2961 -0.2210  0.0489
  479MOL0     C63127   1.168   5.770  10.388  1.4921  0.0077  0.1789
  479MOL0     C63128   1.037   5.750  10.331 -0.1613  0.2441  0.0906
  479MOL0     C63129   0.934   5.669  10.391  0.7495  0.8481 -0.0624
  479MOL0     C63130   0.965   5.609  10.516  0.0182  0.5002  0.0472
  479MOL0     O63131   0.885   5.540  10.608 -0.4856  0.0108  0.8034
  479MOL0     C63132   0.758   5.506  10.570  1.0446  0.2085  0.3751
  479MOL0     C63133   0.765   5.368  10.510  0.2245  0.5061  0.7119
  479MOL0     C63134   0.631   5.297  10.485  0.3704  0.5463  0.0254
  479MOL0     C63135   0.639   5.172  10.388  0.1590 -0.4111  0.3652
  479MOL0     C63136   0.602   5.043  10.456 -1.2177  0.1260 -0.9303
  479MOL0     C63137   0.703   5.020  10.566  0.0426  0.3020 -0.2351
  479MOL0     C63138   0.657   4.882  10.631  1.5777 -0.2815  0.1020
  479MOL0     C63139   0.734   4.835  10.748 -0.7101 -0.8743 -0.0682
  479MOL0    Cl63140   0.642   4.711  10.839 -0.4190 -0.2560  0.1175
  479MOL0     C63141   1.086   5.641  10.576  0.7361 -0.9857 -1.1461
  479MOL0     C63142   1.187   5.735  10.526  0.2077  0.2809 -0.5024
  479MOL0     O63143   1.377   5.639  10.286 -0.4079  0.1014 -0.5084
  479MOL0     C63144   1.613   5.773  10.204 -0.0631  0.4292 -0.0433
  479MOL0     C63145   1.733   5.840  10.189 -0.3133  0.9016 -0.1076
  479MOL0     N63146   2.282   6.501  10.423 -0.1917 -1.0181 -0.3659
  479MOL0     N63147   2.320   6.623  10.443 -0.4086 -0.1042 -0.5712
  479MOL0     C63148   2.530   6.455  10.943 -0.5403 -0.3237  0.0683
  479MOL0     C63149   2.506   6.357  11.046  0.8656  0.5869 -0.4886
  479MOL0     C63150   2.511   6.164  11.471  1.5113 -0.4327 -0.8060
  479MOL0     C63151   2.587   6.150  11.590 -0.5053  0.5003 -0.4864
  479MOL0     C63152   2.573   6.032  11.666  0.5030  0.2116 -0.1623
  479MOL0     C63153   2.474   5.942  11.649  0.1566  0.4141 -0.6282
  479MOL0     O63154   2.470   5.847  11.746 -0.5311 -0.3418 -0.0572
  479MOL0     C63155   2.371   5.747  11.736  0.9346  0.9147  0.0363
  479MOL0     C63156   2.362   5.675  11.867  0.4307  0.0859 -1.2972
  479MOL0     C63157   2.249   5.711  11.964 -0.0638  0.2669 -0.7370
  479MOL0     C63158   2.273   5.856  12.040 -0.3426  0.6697  0.1271
  479MOL0     C63159   2.270   5.974  11.958  0.6830  0.0686  1.3638
  479MOL0     C63160   2.271   6.046  11.859 -0.3069  0.5194  0.4861
  479MOL0     C63161   2.385   5.958  11.535  0.4740  1.3073 -0.3185
  479MOL0     C63162   2.400   6.071  11.449 -1.2732 -1.0376  0.2443
  479MOL0     H63163   2.492   6.561  11.317  2.7767 -1.4869  0.8057
  479MOL0     H63164   2.559   6.725  11.154  0.4012 -0.1208  0.6001
  479MOL0     H63165   2.573   6.849  10.974 -0.0873 -2.0414  0.2698
  479MOL0     H63166   2.463   6.824  10.843 -0.3201  2.6965 -1.7826
  479MOL0     H63167   2.773   6.837  10.802 -0.2258  0.4691 -0.5982
  479MOL0     H63168   2.674   6.980  10.794  0.7827 -0.2053  0.7646
  479MOL0     H63169   2.530   6.858  10.617 -0.0305  0.5859 -0.3415
  479MOL0     H63170   2.654   6.734  10.606  2.5446 -0.8299 -1.1871
  479MOL0     H63171   2.748   7.030  10.572  0.0164  1.0636 -1.6766
  479MOL0     H63172   2.831   6.887  10.518  0.0547  1.4566  2.6442
  479MOL0     H63173   2.733   7.016  10.334  0.0321  5.3845  2.6630
  479MOL0     H63174   2.570   6.993  10.409 -0.6909 -1.4250 -2.8177
  479MOL0     H63175   2.651   6.733  10.393  1.8972  0.1423  0.1526
  479MOL0     H63176   2.740   6.798  10.257 -0.6276  1.3587 -0.0220
  479MOL0     H63177   2.536   6.891  10.163 -0.1150  3.0523  2.6074
  479MOL0     H63178   2.538   6.714  10.168  2.4893  1.6806 -1.2431
  479MOL0     H63179   2.325   6.871  10.241 -2.2840 -0.2276  2.0687
  479MOL0     H63180   2.397   6.849  10.400 -1.2276 -0.2381  0.3290
  479MOL0     H63181   2.331   6.588  10.114  0.3127  2.7847 -0.3288
  479MOL0     H63182   2.277   6.259  10.285  2.8338  1.6022 -1.1883
  479MOL0     H63183   2.250   6.346  10.134  1.9274  4.2607  0.2054
  479MOL0     H63184   2.013   6.376  10.189  1.3972 -0.4361  0.0481
  479MOL0     H63185   2.040   6.330  10.358 -1.7022 -1.1094  0.5081
  479MOL0     H63186   2.096   6.150  10.125 -0.5118  1.1931 -0.4659
  479MOL0     H63187   2.116   6.096  10.290 -0.9480 -0.9493  1.0907
  479MOL0     H63188   1.850   6.220  10.222 -0.5863 -0.1766  1.6880
  479MOL0     H63189   1.903   6.110  10.354 -0.3146 -5.8866 -1.2508
  479MOL0     H63190   1.638   6.144  10.316  1.7137  0.2552 -0.3364
  479MOL0     H63191   1.423   6.021  10.357  0.1791  2.0956 -1.1803
  479MOL0     H63192   1.019   5.810  10.242  0.1072  1.1439  0.6285
  479MOL0     H63193   0.842   5.662  10.333 -0.3703  1.4103  1.5776
  479MOL0     H63194   0.716   5.584  10.506 -0.4195  0.7514  1.9363
  479MOL0     H63195   0.689   5.495  10.654 -0.4613  1.2148 -0.6783
  479MOL0     H63196   0.836   5.309  10.569  0.8943  0.8082  0.2148
  479MOL0     H63197   0.811   5.382  10.411 -2.4572  0.5279 -0.6157
  479MOL0     H63198   0.568   5.378  10.447  0.2762  1.2260  1.5612
  479MOL0     H63199   0.598   5.267  10.586 -1.1894 -0.1235 -0.6457
  479MOL0     H63200   0.570   5.198  10.307 -1.4755 -1.0290  1.5114
  479MOL0     H63201   0.739   5.168  10.343 -0.0768  1.5113 -0.4359
  479MOL0     H63202   0.610   4.962  10.382  1.0783  2.0136 -2.9062
  479MOL0     H63203   0.501   5.062  10.493 -0.5811  2.0072 -0.0326
  479MOL0     H63204   0.713   5.101  10.639  2.3233 -0.8311  0.8225
  479MOL0     H63205   0.805   5.018  10.528 -0.0571 -1.3381 -0.4875
  479MOL0     H63206   0.558   4.904  10.673  1.3138  2.3705 -1.6759
  479MOL0     H63207   0.644   4.803  10.557  4.0385 -0.6069 -0.0532
  479MOL0     H63208   0.749   4.923  10.811 -0.9981  1.2923 -2.8290
  479MOL0     H63209   0.836   4.811  10.715 -0.2919  2.0581 -1.2129
  479MOL0     H63210   1.103   5.596  10.673  1.9841  0.1780 -0.7885
  479MOL0     H63211   1.277   5.762  10.580  0.7528 -1.4851 -0.4533
  479MOL0     H63212   1.621   5.667  10.180  2.0799  0.3525  0.8016
  479MOL0     H63213   1.812   5.786  10.139  1.0141  1.2832  1.4864
  479MOL0     H63214   2.565   6.421  10.845 -1.0350  1.8110 -0.9113
  479MOL0     H63215   2.507   6.250  11.033 -0.5699  0.1174  2.3242
  479MOL0     H63216   2.658   6.227  11.616 -1.1903  1.4499 -1.3229
  479MOL0     H63217   2.623   6.030  11.762  0.7452 -0.4018 -0.2980
  479MOL0     H63218   2.413   5.677  11.664  1.3285 -0.8784  1.9313
  479MOL0     H63219   2.270   5.781  11.711  1.5087  3.5008  0.8639
  479MOL0     H63220   2.358   5.566  11.853  1.1903 -0.2093  0.4752
  479MOL0     H63221   2.456   5.695  11.919 -1.2069  3.6752  0.5643
  479MOL0     H63222   2.252   5.629  12.037  3.2215  0.0540 -0.9531
  479MOL0     H63223   2.157   5.709  11.905  2.5942 -0.1655 -5.2887
  479MOL0     H63224   2.199   5.855  12.121  0.1698 -1.7406  0.6415
  479MOL0     H63225   2.370   5.852  12.091 -1.5291 -0.4412  2.4879
  479MOL0     H63226   2.280   6.123  11.786  0.5483  0.2572  0.2952
  479MOL0     H63227   2.298   5.895  11.517  1.2645  0.4456 -1.1998
  479MOL0     H63228   2.326   6.083  11.371 -0.8578 -0.5837 -0.0805
  480MOL0     O63229   6.188   4.829   4.455  0.4428  0.3537 -0.9956
  480MOL0     C63230   6.193   4.833   4.574 -0.8064 -0.2753  0.4086
  480MOL0     O63231   6.313   4.852   4.643 -0.7085  0.0724  0.3519
  480MOL0     C63232   6.431   4.868   4.559 -0.4755  0.4430 -0.4545
  480MOL0     C63233   6.476   4.788   4.455  0.0369  0.8929 -0.9099
  480MOL0     C63234   6.588   4.810   4.375  0.7981 -0.3239  0.2775
  480MOL0     C63235   6.672   4.909   4.402 -0.1630  0.6790  0.1802
  480MOL0     O63236   6.788   4.944   4.338 -0.6168  0.4415  0.0126
  480MOL0     C63237   6.881   4.834   4.349  0.1266  0.0108 -0.4448
  480MOL0     C63238   7.027   4.879   4.319  0.3663 -0.1054 -0.0052
  480MOL0     C63239   7.144   4.773   4.338  0.7157  1.0721  0.5781
  480MOL0     C63240   7.181   4.691   4.210  0.1733 -0.2413 -1.0070
  480MOL0     C63241   7.234   4.553   4.257 -0.3656 -0.1480  0.1621
  480MOL0     C63242   7.267   4.450   4.140  0.7005  0.9949  0.0564
  480MOL0     C63243   7.151   4.422   4.039 -0.6463 -0.2604  0.3417
  480MOL0     C63244   7.175   4.313   3.929  0.3835 -0.3900 -0.6836
  480MOL0     N63245   7.290   4.347   3.851  0.4159 -0.1020 -0.1434
  480MOL0     C63246   7.312   4.466   3.789 -0.4953 -0.1078  0.4521
  480MOL0     C63247   7.415   4.449   3.704  0.6420 -0.2331 -0.3737
  480MOL0     C63248   7.462   4.526   3.580  0.6301 -0.0510 -0.4646
  480MOL0     C63249   7.574   4.620   3.618 -0.5720 -0.3934  0.4161
  480MOL0     C63250   7.538   4.708   3.739  0.8544 -0.1058  0.2315
  480MOL0     C63251   7.416   4.803   3.724 -0.7185 -0.0456 -1.2792
  480MOL0     O63252   7.447   4.909   3.634  0.9878 -0.4516  0.0725
  480MOL0     C63253   7.346   5.001   3.609 -0.1969  0.0795 -0.5485
  480MOL0     C63254   7.384   5.090   3.515  0.2962  0.6381  1.0363
  480MOL0     C63255   7.281   5.178   3.464  1.1765 -0.3245  0.3316
  480MOL0     C63256   7.149   5.187   3.521  0.0287 -0.3677 -0.1659
  480MOL0     C63257   7.041   5.284   3.470 -0.1906  0.0326 -0.4850
  480MOL0     O63258   7.061   5.353   3.354  0.5409 -0.8003 -0.0515
  480MOL0     C63259   6.981   5.462   3.315  1.1156 -0.0324  0.1582
  480MOL0     C63260   6.840   5.460   3.333  0.1812 -0.3383 -0.0666
  480MOL0     C63261   6.762   5.559   3.276  0.6181  0.1981  0.2372
  480MOL0     C63262   6.821   5.677   3.220 -0.0334  0.2128 -0.5337
  480MOL0     O63263   6.753   5.787   3.185 -0.2826  0.0283 -0.2208
  480MOL0     C63264   6.645   5.832   3.265  1.2658  0.1227 -0.1142
  480MOL0     C63265   6.612   5.972   3.229 -0.6930 -0.1950 -0.5578
  480MOL0     C63266   6.540   5.972   3.091 -0.8114  1.2861  0.1606
  480MOL0     C63267   6.523   6.117   3.052  0.0673  0.5119  0.3152
  480MOL0     C63268   6.385   6.167   3.022 -0.0510 -0.2824  0.0668
  480MOL0     C63269   6.395   6.316   2.990 -0.4742 -0.7238 -0.2227
  480MOL0     C63270   6.280   6.343   2.889  0.8472 -0.4245  0.2838
  480MOL0     C63271   6.222   6.480   2.897 -0.7263  0.0891 -1.0229
  480MOL0    Cl63272   6.354   6.595   2.865 -0.4923 -0.3836  0.2973
  480MOL0     C63273   6.964   5.681   3.201 -0.3579 -0.0337  0.7777
  480MOL0     C63274   7.034   5.570   3.242  0.4582 -0.8327 -0.6079
  480MOL0     O63275   6.935   5.280   3.533  0.9374 -0.4680 -0.2097
  480MOL0     C63276   7.119   5.089   3.613 -0.1321 -0.8891 -0.1695
  480MOL0     C63277   7.215   4.992   3.650 -0.5097 -0.6054 -1.2913
  480MOL0     N63278   7.455   4.314   3.719  0.4568 -0.4231  0.9551
  480MOL0     N63279   7.376   4.262   3.802  0.4592 -0.5497 -0.4246
  480MOL0     C63280   6.628   4.994   4.506 -0.4908  0.1772  0.3017
  480MOL0     C63281   6.511   4.979   4.584 -0.2350 -0.4441  0.2452
  480MOL0     C63282   6.073   4.844   4.657  0.8021  0.4215  0.3593
  480MOL0     C63283   6.080   4.868   4.791  0.2729  0.8959  0.1871
  480MOL0     C63284   5.968   4.897   4.867  0.3171  0.3204 -0.9029
  480MOL0     C63285   5.837   4.891   4.815 -0.3541 -0.2817 -0.7254
  480MOL0     O63286   5.731   4.920   4.901 -0.7365  0.3722  0.4740
  480MOL0     C63287   5.604   4.935   4.848  0.9181 -0.4703  0.3954
  480MOL0     C63288   5.499   4.923   4.959  0.1304 -0.5508  0.4958
  480MOL0     C63289   5.534   4.995   5.092  1.0401  0.6109 -0.0515
  480MOL0     C63290   5.408   5.033   5.181  1.2065 -0.3809 -0.0545
  480MOL0     C63291   5.317   5.110   5.098 -0.7275  0.4444  0.3643
  480MOL0     C63292   5.236   5.180   5.048  0.1738 -0.5903  1.6681
  480MOL0     C63293   5.830   4.873   4.676  0.3149  0.7302  0.6207
  480MOL0     C63294   5.945   4.860   4.599  0.3797  0.2096  0.1615
  480MOL0     H63295   6.404   4.714   4.420  2.0120 -0.7770 -1.6266
  480MOL0     H63296   6.591   4.729   4.304 -1.9599  1.1029 -1.6420
  480MOL0     H63297   6.863   4.756   4.274  0.7763  0.5593 -1.2051
  480MOL0     H63298   6.883   4.803   4.453 -1.7684  0.4036 -0.2677
  480MOL0     H63299   7.054   4.962   4.385  3.2209 -0.7589 -0.2281
  480MOL0     H63300   7.036   4.914   4.215 -1.7375 -0.8633 -0.4875
  480MOL0     H63301   7.097   4.704   4.409  0.9030  2.0140  1.6460
  480MOL0     H63302   7.241   4.812   4.369  2.5585 -0.5126 -2.5977
  480MOL0     H63303   7.095   4.679   4.144 -0.9949 -0.1886  0.4535
  480MOL0     H63304   7.261   4.744   4.157  1.7675  0.3492  1.8055
  480MOL0     H63305   7.177   4.498   4.332 -1.0752  0.6021  0.1820
  480MOL0     H63306   7.327   4.573   4.311 -0.5027 -2.5454  1.4375
  480MOL0     H63307   7.302   4.364   4.199 -0.9310  2.3654  3.2758
  480MOL0     H63308   7.356   4.485   4.087 -1.1682  1.9257 -2.6416
  480MOL0     H63309   7.072   4.390   4.107  1.4241 -1.2133  2.4465
  480MOL0     H63310   7.118   4.512   3.986  0.1134 -1.2070 -1.8479
  480MOL0     H63311   7.085   4.315   3.867  0.8833 -0.3076 -1.4302
  480MOL0     H63312   7.202   4.214   3.965  2.1449  0.4311  0.3678
  480MOL0     H63313   7.261   4.561   3.797  1.7341  1.2482 -0.4417
  480MOL0     H63314   7.373   4.570   3.535  0.2712  0.5354  0.7729
  480MOL0     H63315   7.504   4.454   3.509  0.9572  0.0020 -0.3233
  480MOL0     H63316   7.599   4.683   3.532 -0.0140  0.6815  1.3308
  480MOL0     H63317   7.666   4.566   3.641  0.0732  1.0742  1.4593
  480MOL0     H63318   7.524   4.638   3.822  2.9029  1.3147  1.8968
  480MOL0     H63319   7.629   4.764   3.760 -0.3176  1.4323  1.4613
  480MOL0     H63320   7.382   4.836   3.823  0.0772 -3.9426  0.4823
  480MOL0     H63321   7.328   4.746   3.693 -1.7158  0.5917  0.2350
  480MOL0     H63322   7.486   5.097   3.480  0.0462  1.5611  0.4665
  480MOL0     H63323   7.301   5.226   3.369 -2.4120  1.8822  0.5159
  480MOL0     H63324   6.786   5.377   3.376 -0.6684 -0.1573 -0.7606
  480MOL0     H63325   6.655   5.580   3.274  1.0214  2.5193  0.3994
  480MOL0     H63326   6.682   5.829   3.368  1.5464 -0.6476 -0.2325
  480MOL0     H63327   6.551   5.776   3.256 -0.9157  3.2368  1.6778
  480MOL0     H63328   6.703   6.033   3.231 -0.5593 -0.3853 -0.7332
  480MOL0     H63329   6.542   6.001   3.308 -0.2968 -2.6023  0.7732
  480MOL0     H63330   6.439   5.932   3.084 -1.2592  2.5518 -1.4163
  480MOL0     H63331   6.604   5.925   3.015  3.4613  1.8887  3.0394
  480MOL0     H63332   6.586   6.180   3.116  0.8476 -0.9813  1.0626
  480MOL0     H63333   6.577   6.122   2.957  1.6520 -1.4167  1.0448
  480MOL0     H63334   6.306   6.151   3.096 -0.3878 -1.3680 -0.5073
  480MOL0     H63335   6.346   6.114   2.934 -0.3392  0.1550 -0.0729
  480MOL0     H63336   6.491   6.334   2.942 -0.0486  0.9842  1.1765
  480MOL0     H63337   6.391   6.381   3.078 -2.3887  2.5693 -2.4966
  480MOL0     H63338   6.316   6.322   2.788 -0.5689  2.6905 -1.0094
  480MOL0     H63339   6.199   6.279   2.925  0.3428  2.4648  5.1841
  480MOL0     H63340   6.179   6.503   2.995  1.3936 -1.8829  0.4761
  480MOL0     H63341   6.141   6.478   2.823 -2.8726 -0.1242  1.1800
  480MOL0     H63342   7.001   5.771   3.154 -1.6976 -0.2833 -0.8645
  480MOL0     H63343   7.139   5.579   3.214  0.5280  2.2493  0.2796
  480MOL0     H63344   7.023   5.091   3.663 -1.1272 -2.3062 -1.9151
  480MOL0     H63345   7.182   4.910   3.714 -0.5407  0.1227 -0.3540
  480MOL0     H63346   6.687   5.082   4.529  0.5711  0.4829 -3.0373
  480MOL0     H63347   6.479   5.054   4.655 -1.2015  0.5973 -1.2465
  480MOL0     H63348   6.177   4.857   4.837  1.0802 -1.7592 -1.9259
  480MOL0     H63349   5.968   4.913   4.974  1.0402  1.6442 -1.0849
  480MOL0     H63350   5.582   4.854   4.779  1.4316  1.4596 -2.2088
  480MOL0     H63351   5.598   5.036   4.805 -2.2639 -0.9310 -0.4857
  480MOL0     H63352   5.404   4.965   4.922  1.5719  1.4666 -1.1298
  480MOL0     H63353   5.492   4.816   4.977 -0.4421 -0.6110 -0.0307
  480MOL0     H63354   5.586   5.087   5.062  0.6942  1.0365  0.6392
  480MOL0     H63355   5.598   4.934   5.156  2.8784 -0.5887 -2.8357
  480MOL0     H63356   5.354   4.959   5.240  0.9622  0.9805  1.4980
  480MOL0     H63357   5.438   5.115   5.247 -0.5548  1.2527 -1.1775
  480MOL0     H63358   5.153   5.243   5.022  2.8974  3.5552  2.0076
  480MOL0     H63359   5.742   4.864   4.613  0.7024  1.1014  0.0235
  480MOL0     H63360   5.931   4.840   4.493  1.7244 -0.2772  0.0557
  481MOL0     O63361   6.270   3.815   4.005  0.3884  0.0683 -0.3358
  481MOL0     C63362   6.321   3.903   3.927  1.5577 -0.8832 -0.3732
  481MOL0     O63363   6.278   4.032   3.926  0.3783  0.8685  0.5389
  481MOL0     C63364   6.195   4.090   4.021  0.2582 -0.0463 -1.6089
  481MOL0     C63365   6.139   4.216   3.999  0.8856  0.6255 -0.3427
  481MOL0     C63366   6.048   4.286   4.094 -0.5790  0.4442  0.2965
  481MOL0     C63367   6.037   4.228   4.220 -0.2634 -0.6911  0.2662
  481MOL0     O63368   5.969   4.292   4.322 -0.6386 -0.8244 -0.0138
  481MOL0     C63369   5.901   4.419   4.306 -0.1878  0.0776 -0.5487
  481MOL0     C63370   5.872   4.481   4.450  0.2110  0.0094  0.1535
  481MOL0     C63371   5.794   4.393   4.556  0.1784  0.4594  0.0634
  481MOL0     C63372   5.664   4.336   4.498 -0.0452 -0.3811  0.0809
  481MOL0     C63373   5.610   4.224   4.583  0.2580 -0.5131 -0.3316
  481MOL0     C63374   5.529   4.272   4.700  0.1557 -0.6097 -0.2310
  481MOL0     C63375   5.406   4.180   4.723  0.8037  0.1559  0.5651
  481MOL0     C63376   5.352   4.207   4.858 -0.2193 -0.1808 -0.3917
  481MOL0     N63377   5.219   4.139   4.882  0.1681 -0.1268  0.3606
  481MOL0     C63378   5.091   4.181   4.850 -0.0884  0.3942  1.4143
  481MOL0     C63379   5.018   4.072   4.870 -0.3088 -0.8721  0.3056
  481MOL0     C63380   4.877   4.058   4.848  0.5548  0.2493  0.0768
  481MOL0     C63381   4.812   4.040   4.985  0.2582 -0.5736  0.2427
  481MOL0     C63382   4.674   3.971   4.996  0.3041  0.8100 -0.4221
  481MOL0     C63383   4.692   3.828   4.955 -0.4561  0.2031  0.2727
  481MOL0     O63384   4.572   3.749   4.999  0.6193  0.1008 -0.4763
  481MOL0     C63385   4.459   3.773   4.925  0.1723 -0.2920  0.3332
  481MOL0     C63386   4.366   3.871   4.966  0.4184 -0.0126  0.1782
  481MOL0     C63387   4.245   3.895   4.903 -0.5354 -0.6360  0.6126
  481MOL0     C63388   4.195   3.804   4.803  1.3617 -0.4136 -0.2067
  481MOL0     C63389   4.055   3.816   4.755 -0.5112  0.7375 -0.0428
  481MOL0     O63390   3.985   3.927   4.768  0.3689  0.1930 -0.0259
  481MOL0     C63391   3.876   3.937   4.691 -0.0004 -0.2915 -0.8999
  481MOL0     C63392   3.889   3.957   4.555  1.0188  0.0950  0.4253
  481MOL0     C63393   3.783   3.958   4.461  0.2747 -0.3511 -0.2590
  481MOL0     C63394   3.653   3.950   4.516 -0.0000  1.2566  0.0239
  481MOL0     O63395   3.539   3.963   4.446 -0.1138  0.4704 -0.1847
  481MOL0     C63396   3.529   3.894   4.321 -0.0074  0.6786 -0.1012
  481MOL0     C63397   3.383   3.852   4.298 -0.8658  0.4204 -0.0162
  481MOL0     C63398   3.343   3.748   4.398  0.9198 -0.1143  0.3643
  481MOL0     C63399   3.223   3.797   4.493  0.6936 -0.1339  0.0434
  481MOL0     C63400   3.188   3.692   4.592 -0.0889 -0.4310 -0.7819
  481MOL0     C63401   3.099   3.753   4.700 -0.9058  0.1574 -0.0506
  481MOL0     C63402   3.042   3.641   4.784  0.7083  1.4607 -0.8191
  481MOL0     C63403   2.980   3.671   4.920 -0.5427 -0.6560  0.4161
  481MOL0    Cl63404   3.074   3.783   5.025 -0.1632  0.4991 -0.0449
  481MOL0     C63405   3.631   3.930   4.648 -0.6510 -1.0218  0.2107
  481MOL0     C63406   3.737   3.931   4.736  0.2268  0.2671  0.0880
  481MOL0     O63407   4.009   3.707   4.706 -0.5430  0.5333 -0.1601
  481MOL0     C63408   4.289   3.709   4.754 -0.6392 -0.8377 -0.2197
  481MOL0     C63409   4.417   3.695   4.813 -0.2165  0.2529 -0.5454
  481MOL0     N63410   5.096   3.974   4.913 -0.1890  0.3236  0.7409
  481MOL0     N63411   5.216   4.013   4.916  0.3050 -0.4208 -0.6065
  481MOL0     C63412   6.097   4.105   4.247  1.3081 -0.5145 -0.0025
  481MOL0     C63413   6.176   4.036   4.159  0.0268 -0.1571  1.1182
  481MOL0     C63414   6.410   3.865   3.817  0.5602  0.3615  0.3387
  481MOL0     C63415   6.422   3.734   3.773  1.1720 -0.0251 -0.4475
  481MOL0     C63416   6.490   3.707   3.656 -0.6074  0.5461 -0.2654
  481MOL0     C63417   6.556   3.809   3.588 -0.3689  0.5908  0.4488
  481MOL0     O63418   6.616   3.786   3.468 -0.0814 -0.3573 -0.1209
  481MOL0     C63419   6.646   3.649   3.420 -0.1692  0.3016 -0.5729
  481MOL0     C63420   6.777   3.628   3.340  0.8271  0.0248  0.5001
  481MOL0     C63421   6.895   3.681   3.421  0.1174 -0.6952 -0.5176
  481MOL0     C63422   6.996   3.754   3.338 -0.0595  0.0774  1.1852
  481MOL0     C63423   7.053   3.672   3.230  0.3391 -0.2196 -0.0404
  481MOL0     C63424   7.093   3.604   3.138  0.1289 -1.2195 -0.8640
  481MOL0     C63425   6.550   3.938   3.638  0.0163 -0.4333  0.0064
  481MOL0     C63426   6.484   3.961   3.756 -0.2226  0.1567  0.3589
  481MOL0     H63427   6.169   4.270   3.909 -0.4778  1.8411 -0.1062
  481MOL0     H63428   6.015   4.386   4.069  2.1053  1.3822  0.1170
  481MOL0     H63429   5.804   4.413   4.257 -0.5050 -3.2708  0.2228
  481MOL0     H63430   5.972   4.493   4.268 -0.9937  1.4601  0.5415
  481MOL0     H63431   5.810   4.570   4.430 -0.3062 -0.5158 -0.6287
  481MOL0     H63432   5.964   4.511   4.501  2.0140 -1.0737 -2.2940
  481MOL0     H63433   5.777   4.456   4.643 -0.0456 -3.1368  2.8855
  481MOL0     H63434   5.871   4.318   4.577  1.0423  0.5338 -2.4476
  481MOL0     H63435   5.585   4.407   4.473 -1.4365 -2.1377 -0.7686
  481MOL0     H63436   5.684   4.292   4.400 -3.2983  1.0593 -1.3853
  481MOL0     H63437   5.695   4.164   4.617 -0.4220 -0.5197  1.4481
  481MOL0     H63438   5.552   4.161   4.516  2.6111 -2.1692 -0.9379
  481MOL0     H63439   5.509   4.379   4.701  1.9983 -0.0175  5.0429
  481MOL0     H63440   5.592   4.256   4.788  1.4624  0.9263 -0.8509
  481MOL0     H63441   5.330   4.216   4.652  0.2336 -0.6474  0.7521
  481MOL0     H63442   5.420   4.071   4.718  0.0841  0.1055 -1.3211
  481MOL0     H63443   5.343   4.313   4.880  1.0509  0.2347 -1.7071
  481MOL0     H63444   5.416   4.157   4.932 -2.4165 -0.3796  1.5009
  481MOL0     H63445   5.061   4.272   4.800  2.2865  0.5424  0.1272
  481MOL0     H63446   4.859   3.976   4.778 -1.4085  1.4555 -0.9353
  481MOL0     H63447   4.834   4.148   4.801  1.7375  0.6052 -0.3690
  481MOL0     H63448   4.791   4.142   5.019  0.5889  0.7945 -3.2627
  481MOL0     H63449   4.881   3.986   5.051 -1.3896  1.2150  3.6866
  481MOL0     H63450   4.638   3.980   5.099  1.3100  0.3046 -0.0166
  481MOL0     H63451   4.601   4.012   4.925  1.9237  1.4707 -1.7767
  481MOL0     H63452   4.789   3.790   4.989  1.5761  2.9374 -2.0184
  481MOL0     H63453   4.690   3.809   4.847 -2.9905 -0.0374  0.2851
  481MOL0     H63454   4.389   3.926   5.057 -1.9949  3.5118 -1.1399
  481MOL0     H63455   4.185   3.976   4.943  1.5356 -0.1832  3.0827
  481MOL0     H63456   3.991   3.956   4.516  0.8875 -0.1953  0.0786
  481MOL0     H63457   3.791   3.983   4.356 -0.9882  1.7542  0.0803
  481MOL0     H63458   3.590   3.806   4.299 -2.5236 -1.2845  0.3047
  481MOL0     H63459   3.547   3.965   4.240  6.0156  1.1143  1.1578
  481MOL0     H63460   3.356   3.817   4.198  0.3978  0.3560 -0.3512
  481MOL0     H63461   3.336   3.950   4.312  1.3303  1.2102  2.5702
  481MOL0     H63462   3.430   3.709   4.452 -0.3489 -0.2915  2.4101
  481MOL0     H63463   3.309   3.662   4.339 -1.1192  0.4707  0.6142
  481MOL0     H63464   3.247   3.892   4.541 -1.7995  1.3469 -1.4485
  481MOL0     H63465   3.135   3.817   4.433  0.5035  0.1672  0.4187
  481MOL0     H63466   3.284   3.664   4.637  0.2589  2.0597  0.1820
  481MOL0     H63467   3.143   3.611   4.534 -0.3751 -0.1023 -1.0216
  481MOL0     H63468   3.018   3.802   4.645  0.0623  2.0125  0.1185
  481MOL0     H63469   3.144   3.827   4.767 -0.7489  0.3935 -0.4185
  481MOL0     H63470   2.956   3.602   4.729 -0.3791  0.2680  1.5853
  481MOL0     H63471   3.115   3.563   4.805  2.4740  3.6566  1.8538
  481MOL0     H63472   2.964   3.578   4.976  1.8798 -0.4923  1.5339
  481MOL0     H63473   2.886   3.725   4.911 -1.9585 -2.8120  1.2591
  481MOL0     H63474   3.528   3.931   4.680 -0.1548  2.4264  2.2403
  481MOL0     H63475   3.708   3.902   4.837  1.9952 -1.6699  0.1255
  481MOL0     H63476   4.264   3.642   4.672 -4.6070 -1.7309  1.4766
  481MOL0     H63477   4.492   3.624   4.781  1.0226  0.5595  1.4568
  481MOL0     H63478   6.086   4.071   4.350 -0.5607 -1.2590 -0.4012
  481MOL0     H63479   6.219   3.939   4.182 -1.0360 -0.5459  1.4788
  481MOL0     H63480   6.355   3.654   3.804  2.5587 -1.4712 -1.0101
  481MOL0     H63481   6.489   3.608   3.611 -0.3156 -0.2437  1.4007
  481MOL0     H63482   6.560   3.608   3.367 -1.6452 -1.7144  2.9964
  481MOL0     H63483   6.655   3.572   3.497  4.0146 -0.7516 -1.8338
  481MOL0     H63484   6.782   3.521   3.318  0.9193  0.1391 -0.0669
  481MOL0     H63485   6.772   3.690   3.250  2.3486  1.4286  1.3183
  481MOL0     H63486   6.941   3.595   3.472 -1.2604 -0.5117  1.1208
  481MOL0     H63487   6.875   3.737   3.512 -3.1483 -1.8484 -0.4031
  481MOL0     H63488   6.965   3.849   3.292 -0.1651 -0.4009  0.2535
  481MOL0     H63489   7.081   3.775   3.403  2.3938  1.0054 -2.0424
  481MOL0     H63490   7.148   3.539   3.073  3.0882 -2.4713  2.5268
  481MOL0     H63491   6.596   4.018   3.581  1.0890 -1.0220  0.0182
  481MOL0     H63492   6.495   4.065   3.787  0.6348  0.8007 -1.8825
  482MOL0     O63493   4.122   7.551   4.321  0.0185  0.5505 -0.0045
  482MOL0     C63494   4.186   7.638   4.378 -0.2598 -0.0899  0.5629
  482MOL0     O63495   4.157   7.696   4.499 -0.3825  0.7753  0.2761
  482MOL0     C63496   4.057   7.648   4.582 -0.9447  0.1718 -0.5108
  482MOL0     C63497   3.940   7.579   4.535  0.5089 -1.0774  0.0183
  482MOL0     C63498   3.851   7.530   4.631 -0.2672  0.6917  0.8613
  482MOL0     C63499   3.881   7.544   4.770  0.2768 -0.4565 -0.0812
  482MOL0     O63500   3.813   7.481   4.871 -0.5280 -0.0770 -0.1189
  482MOL0     C63501   3.880   7.419   4.982 -0.6389 -0.0278 -0.4298
  482MOL0     C63502   3.773   7.327   5.044  0.2441  0.0332 -0.2063
  482MOL0     C63503   3.827   7.264   5.166 -0.1479 -0.9559  0.4435
  482MOL0     C63504   3.740   7.164   5.255  1.1720 -0.7577  0.2496
  482MOL0     C63505   3.836   7.093   5.354 -0.8214  0.8287  0.8237
  482MOL0     C63506   3.767   7.018   5.469 -0.7149  0.7801 -0.6003
  482MOL0     C63507   3.687   7.105   5.564  0.7501 -0.2846  0.8835
  482MOL0     C63508   3.618   7.017   5.670  0.3939 -0.0450 -0.2478
  482MOL0     N63509   3.516   6.922   5.613  0.2632  0.3924 -0.1247
  482MOL0     C63510   3.531   6.789   5.589  0.0141  0.1381  0.4162
  482MOL0     C63511   3.421   6.749   5.522  0.2628 -0.2522 -0.7598
  482MOL0     C63512   3.391   6.599   5.498  0.4163 -0.4103 -0.3264
  482MOL0     C63513   3.244   6.582   5.513  0.3434  0.0069  0.4797
  482MOL0     C63514   3.196   6.437   5.495 -0.2826 -0.4278 -0.3683
  482MOL0     C63515   3.042   6.425   5.486 -0.5186  0.3858  0.2185
  482MOL0     O63516   3.003   6.432   5.346 -0.4499  0.2390 -0.2021
  482MOL0     C63517   2.870   6.419   5.320  0.0743  0.9751 -0.4505
  482MOL0     C63518   2.829   6.370   5.198  0.1976  0.4621 -0.1189
  482MOL0     C63519   2.693   6.356   5.161  0.2427  0.4718  0.4466
  482MOL0     C63520   2.588   6.386   5.248 -1.3383  0.7535  0.6508
  482MOL0     C63521   2.446   6.365   5.212  0.3005  0.1765  0.2395
  482MOL0     O63522   2.353   6.377   5.313 -0.3906  0.4225  0.2256
  482MOL0     C63523   2.223   6.354   5.281  0.5171  0.8349 -0.1587
  482MOL0     C63524   2.154   6.255   5.353  0.5403  0.2207  0.2714
  482MOL0     C63525   2.025   6.211   5.324 -0.4357 -0.2385 -0.0797
  482MOL0     C63526   1.960   6.275   5.213  0.2447 -0.5825 -0.2645
  482MOL0     O63527   1.841   6.233   5.157  0.6486 -0.0096 -0.5148
  482MOL0     C63528   1.750   6.184   5.253  0.4827  0.3908  0.2946
  482MOL0     C63529   1.613   6.198   5.193 -0.0943  0.1830 -0.8896
  482MOL0     C63530   1.572   6.066   5.123  0.0789  0.6418  0.2070
  482MOL0     C63531   1.459   6.077   5.024 -0.4384  0.2794  0.5574
  482MOL0     C63532   1.401   5.944   4.977 -0.8011 -0.1584  0.8848
  482MOL0     C63533   1.280   5.970   4.877  0.3767  0.5103  0.9348
  482MOL0     C63534   1.152   6.028   4.940  0.3918  0.5699 -0.1844
  482MOL0     C63535   1.028   6.037   4.833 -0.1852  0.1152 -0.2855
  482MOL0    Cl63536   1.070   6.141   4.703 -0.5377  0.0332  0.5940
  482MOL0     C63537   2.021   6.377   5.152  0.9724  0.4068  0.7765
  482MOL0     C63538   2.148   6.417   5.180  0.1392 -0.5629  1.0938
  482MOL0     O63539   2.421   6.348   5.094  0.8411 -0.0163 -0.0293
  482MOL0     C63540   2.634   6.426   5.377  1.4568 -0.0137  0.0552
  482MOL0     C63541   2.765   6.435   5.410 -0.8369  1.2907 -0.5971
  482MOL0     N63542   3.335   6.854   5.506 -0.5874  0.6317  0.5167
  482MOL0     N63543   3.392   6.953   5.556  1.0292  0.2619 -0.0597
  482MOL0     C63544   4.001   7.596   4.811 -0.4170  0.7889 -0.0085
  482MOL0     C63545   4.085   7.643   4.716  0.3037  0.0576 -0.8939
  482MOL0     C63546   4.305   7.701   4.307  0.2528 -0.0011 -0.2587
  482MOL0     C63547   4.342   7.835   4.335 -0.4725 -0.0910 -0.0225
  482MOL0     C63548   4.454   7.887   4.263  0.0989 -0.5714 -1.0846
  482MOL0     C63549   4.526   7.815   4.178 -0.3772  0.5713  1.3709
  482MOL0     O63550   4.618   7.882   4.105  0.0854  0.4947 -0.3648
  482MOL0     C63551   4.755   7.846   4.130  0.3080  0.0397  0.2332
  482MOL0     C63552   4.796   7.880   4.270 -0.0125 -0.2392  0.1272
  482MOL0     C63553   4.787   8.030   4.295  0.4383 -0.5614  0.1549
  482MOL0     C63554   4.851   8.069   4.431 -0.0029 -0.0914  0.5401
  482MOL0     C63555   4.828   8.211   4.454 -0.7913 -0.7484 -0.4703
  482MOL0     C63556   4.798   8.334   4.459 -0.5028  0.7924 -0.0791
  482MOL0     C63557   4.509   7.677   4.173 -0.7043  0.3244 -0.5758
  482MOL0     C63558   4.394   7.624   4.241  0.0744 -0.7435 -0.0372
  482MOL0     H63559   3.912   7.576   4.430 -2.4952 -0.9849  0.7369
  482MOL0     H63560   3.755   7.497   4.594 -0.3683  0.5683  1.2265
  482MOL0     H63561   3.892   7.499   5.056  1.0916  1.2638 -2.0177
  482MOL0     H63562   3.970   7.362   4.958 -2.4698 -3.5068  0.3448
  482MOL0     H63563   3.738   7.244   4.983 -1.2955 -0.1348  0.8685
  482MOL0     H63564   3.685   7.386   5.069  0.9884  2.2602 -2.4061
  482MOL0     H63565   3.854   7.344   5.236  1.0565 -0.8709 -0.0945
  482MOL0     H63566   3.922   7.221   5.133  0.3654  1.9645 -2.3890
  482MOL0     H63567   3.672   7.234   5.305 -0.8698 -0.6500 -2.4601
  482MOL0     H63568   3.689   7.086   5.198  0.7087 -1.3286  1.4210
  482MOL0     H63569   3.907   7.165   5.396  2.4777 -2.9202  2.3275
  482MOL0     H63570   3.885   7.013   5.298 -1.6135 -0.0806  1.3981
  482MOL0     H63571   3.845   6.964   5.523  0.4554  2.5862 -0.4214
  482MOL0     H63572   3.708   6.938   5.423 -0.3067  1.6635 -2.7941
  482MOL0     H63573   3.764   7.167   5.611  1.1880  1.8745 -2.3361
  482MOL0     H63574   3.621   7.177   5.514  2.4952  1.3928  0.8711
  482MOL0     H63575   3.557   7.080   5.736  0.5244  0.8748 -0.9853
  482MOL0     H63576   3.690   6.951   5.719  1.0212 -1.6566 -3.1148
  482MOL0     H63577   3.612   6.726   5.625 -1.1894 -0.3969  2.3394
  482MOL0     H63578   3.446   6.543   5.574  3.2331  0.4915 -1.5616
  482MOL0     H63579   3.431   6.574   5.400  2.8210  1.6358  0.0439
  482MOL0     H63580   3.182   6.644   5.448 -4.3374  0.1073  4.4611
  482MOL0     H63581   3.206   6.627   5.605 -0.2770 -0.5752  0.5200
  482MOL0     H63582   3.244   6.384   5.412 -0.1227  3.6100 -3.1640
  482MOL0     H63583   3.216   6.379   5.586 -2.1258  2.2585  1.9236
  482MOL0     H63584   2.996   6.513   5.533 -0.4268  1.5558 -1.7662
  482MOL0     H63585   3.011   6.330   5.531 -1.1483  1.1658  1.4909
  482MOL0     H63586   2.911   6.338   5.135  1.6930 -0.4953  2.1978
  482MOL0     H63587   2.678   6.313   5.062  1.7323  0.6336  0.1241
  482MOL0     H63588   2.208   6.216   5.439 -0.7927  0.5963  1.3064
  482MOL0     H63589   1.984   6.124   5.375 -2.3245  0.4296 -0.3525
  482MOL0     H63590   1.766   6.241   5.345  3.8597  0.0446  0.0165
  482MOL0     H63591   1.773   6.079   5.272 -3.7063 -1.4490 -2.9953
  482MOL0     H63592   1.626   6.268   5.109  4.5006 -1.3013 -1.6570
  482MOL0     H63593   1.544   6.241   5.266  2.0914  1.1209  0.7412
  482MOL0     H63594   1.533   5.999   5.200  0.6910 -1.3465 -1.1201
  482MOL0     H63595   1.654   6.006   5.082 -0.6046 -1.3065  1.5259
  482MOL0     H63596   1.374   6.123   5.076  0.6353  0.8648  1.8531
  482MOL0     H63597   1.488   6.149   4.947 -1.0788  1.1905  1.1381
  482MOL0     H63598   1.357   5.881   5.055 -2.6095  1.9708  1.6867
  482MOL0     H63599   1.481   5.893   4.924 -1.2444  4.2044 -4.9559
  482MOL0     H63600   1.250   5.872   4.839 -1.8976  1.4587  0.1144
  482MOL0     H63601   1.314   6.024   4.788  4.2074 -1.3542  1.0492
  482MOL0     H63602   1.117   5.960   5.019  0.7924  0.4792 -0.0816
  482MOL0     H63603   1.169   6.125   4.987  2.6223  0.6053 -0.9648
  482MOL0     H63604   0.941   6.070   4.891 -0.9102 -1.4014 -0.4497
  482MOL0     H63605   1.015   5.933   4.802  1.5794 -0.2344  0.0705
  482MOL0     H63606   1.967   6.432   5.076  0.6515 -0.2340  0.5412
  482MOL0     H63607   2.201   6.484   5.114 -3.1418  1.0202 -0.1774
  482MOL0     H63608   2.561   6.436   5.457 -0.1493 -1.6606 -1.1135
  482MOL0     H63609   2.794   6.454   5.513  0.3771  1.3690 -0.9302
  482MOL0     H63610   4.027   7.624   4.912  0.2785 -1.9909  0.6810
  482MOL0     H63611   4.175   7.686   4.758 -0.1409  0.2567 -0.1212
  482MOL0     H63612   4.288   7.907   4.396 -1.0901  0.3250 -1.0288
  482MOL0     H63613   4.481   7.992   4.274 -0.8980 -0.3835 -0.1347
  482MOL0     H63614   4.810   7.912   4.063 -1.9685  3.0809  1.1282
  482MOL0     H63615   4.775   7.742   4.102 -1.0908 -0.5839  1.3908
  482MOL0     H63616   4.739   7.822   4.344 -1.4462 -1.6525 -1.9918
  482MOL0     H63617   4.901   7.850   4.271 -0.1774 -0.8529 -0.5022
  482MOL0     H63618   4.684   8.064   4.293  1.3546  2.5615  0.4168
  482MOL0     H63619   4.842   8.088   4.221 -1.2355  1.6611  0.5464
  482MOL0     H63620   4.789   8.019   4.506 -2.0395 -0.0270 -1.0162
  482MOL0     H63621   4.954   8.037   4.448 -0.5152 -1.6443  0.9657
  482MOL0     H63622   4.787   8.440   4.464  2.5238  1.3802 -2.4891
  482MOL0     H63623   4.570   7.615   4.107 -1.4833  2.1156 -3.1290
  482MOL0     H63624   4.370   7.519   4.226 -0.4936 -0.2400 -3.5021
  483MOL0     O63625  10.370   0.744   7.125 -0.4932 -0.0532  0.5229
  483MOL0     C63626  10.301   0.743   7.025 -0.8909 -0.2460 -0.0556
  483MOL0     O63627  10.282   0.635   6.942 -0.4315 -0.1872  0.3190
  483MOL0     C63628  10.380   0.540   6.934 -0.3769 -0.6432 -0.8081
  483MOL0     C63629  10.339   0.413   6.898 -0.6279 -0.0526 -0.3603
  483MOL0     C63630  10.432   0.314   6.857  0.2581 -0.7528 -0.1197
  483MOL0     C63631  10.571   0.342   6.859  0.3183 -0.0379 -0.6347
  483MOL0     O63632  10.651   0.238   6.816  0.3449  0.5062 -0.1202
  483MOL0     C63633  10.793   0.249   6.798 -0.4220 -0.1527  0.3709
  483MOL0     C63634  10.866   0.211   6.929 -0.4110  0.3514  0.0303
  483MOL0     C63635  11.012   0.170   6.905 -0.3475 -0.4444  0.0492
  483MOL0     C63636  11.094   0.287   6.848 -0.7412 -0.4782 -0.3639
  483MOL0     C63637  11.239   0.269   6.878 -0.2811 -0.9156  0.4904
  483MOL0     C63638  11.340   0.378   6.828  0.2590 -0.3391  0.7662
  483MOL0     C63639  11.490   0.331   6.813  0.9689 -0.3987 -0.7256
  483MOL0     C63640  11.502   0.209   6.720  0.5878 -0.7070  0.0439
  483MOL0     N63641  11.633   0.180   6.674  0.0494 -0.2283  0.2906
  483MOL0     C63642  11.730   0.124   6.744 -0.1465 -0.3682 -0.2996
  483MOL0     C63643  11.836   0.123   6.664  0.2123 -0.2644 -0.1152
  483MOL0     C63644  11.982   0.087   6.700 -0.2496  0.9996  0.7079
  483MOL0     C63645  12.076   0.205   6.694  0.3489  0.3148  0.8104
  483MOL0     C63646  12.213   0.173   6.762 -0.4226 -0.2474  0.7473
  483MOL0     C63647  12.318   0.095   6.685 -1.2496  0.4788  0.0470
  483MOL0     O63648  12.406   0.029   6.782 -0.0760  1.2788 -0.3892
  483MOL0     C63649  12.545   0.053   6.794 -0.4300 -0.0386  0.4911
  483MOL0     C63650  12.627  -0.038   6.863 -0.0563  0.3199  0.3781
  483MOL0     C63651  12.768  -0.013   6.873  0.2955 -0.1799  1.0785
  483MOL0     C63652  12.823   0.109   6.813 -0.1451  0.6200  0.5704
  483MOL0     C63653  12.970   0.119   6.802  0.4225 -0.9149  0.4257
  483MOL0     O63654  13.013   0.226   6.735 -0.4266  0.0484 -0.1048
  483MOL0     C63655  13.141   0.268   6.718  0.8879  0.0638 -0.7860
  483MOL0     C63656  13.170   0.314   6.591  0.6699 -0.5504 -0.5149
  483MOL0     C63657  13.304   0.353   6.558  0.4223 -0.2403 -0.1200
  483MOL0     C63658  13.405   0.338   6.652  0.3325  0.0776 -0.6682
  483MOL0     O63659  13.533   0.381   6.615 -0.1507 -0.1462 -0.8562
  483MOL0     C63660  13.649   0.328   6.688 -0.1714  0.2804  0.4323
  483MOL0     C63661  13.777   0.382   6.617 -0.4965 -0.2783 -0.7089
  483MOL0     C63662  13.814   0.518   6.665 -0.7635 -0.5337 -0.8972
  483MOL0     C63663  13.749   0.631   6.589 -0.2253  0.0451 -0.0243
  483MOL0     C63664  13.800   0.771   6.638  0.2120  0.6765 -0.2211
  483MOL0     C63665  13.763   0.883   6.539 -0.1199  0.2676 -0.0050
  483MOL0     C63666  13.818   1.021   6.579 -0.7195 -0.0908 -0.4450
  483MOL0     C63667  13.756   1.126   6.500 -0.2483  0.5284  0.0149
  483MOL0    Cl63668  13.787   1.285   6.573 -0.0845  0.0125 -0.3820
  483MOL0     C63669  13.377   0.294   6.791 -0.7164 -0.1590  0.9504
  483MOL0     C63670  13.235   0.263   6.815 -0.1522  0.0644  0.0676
  483MOL0     O63671  13.034   0.041   6.867  0.0150  0.4335  0.3891
  483MOL0     C63672  12.738   0.201   6.754  0.4637 -0.1503  0.6888
  483MOL0     C63673  12.598   0.182   6.746 -0.3045 -0.0539 -0.6137
  483MOL0     N63674  11.797   0.181   6.541 -0.9544 -0.2606 -0.0693
  483MOL0     N63675  11.676   0.222   6.552 -0.4726 -0.5388 -0.0386
  483MOL0     C63676  10.612   0.472   6.894 -0.0849 -0.0147  0.0932
  483MOL0     C63677  10.519   0.565   6.944 -1.1512 -0.5997  0.0368
  483MOL0     C63678  10.225   0.863   6.984  0.6006 -1.0833 -0.8598
  483MOL0     C63679  10.102   0.855   6.909 -0.2814  0.0489 -0.1457
  483MOL0     C63680  10.020   0.971   6.887 -1.0621  0.0111 -0.2248
  483MOL0     C63681  10.062   1.098   6.927  0.1807 -0.6559  0.0185
  483MOL0     O63682   9.980   1.195   6.880 -0.3627  0.3135 -0.6492
  483MOL0     C63683  10.012   1.338   6.901 -0.4811  0.3238 -0.0997
  483MOL0     C63684  10.135   1.395   6.830  0.2622 -1.5225  0.0791
  483MOL0     C63685  10.165   1.538   6.863  1.0229  0.7875 -0.2395
  483MOL0     C63686  10.292   1.575   6.800 -0.8379 -0.5252  0.3443
  483MOL0     C63687  10.273   1.591   6.659 -0.5142  0.2884  0.1889
  483MOL0     C63688  10.239   1.613   6.541 -0.1342  0.2420 -0.5497
  483MOL0     C63689  10.175   1.108   7.013 -0.5410 -0.9354 -0.5962
  483MOL0     C63690  10.258   0.997   7.032  0.3115  0.0785  0.2400
  483MOL0     H63691  10.233   0.407   6.875 -1.0616 -0.1525  1.4793
  483MOL0     H63692  10.378   0.234   6.806 -0.7665 -0.5175  0.5508
  483MOL0     H63693  10.826   0.340   6.748  1.5792  0.0417  1.9221
  483MOL0     H63694  10.820   0.169   6.728 -0.2525  0.5513 -0.3823
  483MOL0     H63695  10.818   0.136   6.992  2.8561 -1.3649  0.7229
  483MOL0     H63696  10.872   0.307   6.979  0.1080  2.1397 -3.1762
  483MOL0     H63697  11.014   0.083   6.839  2.4153  1.4745 -2.6848
  483MOL0     H63698  11.071   0.145   6.993  2.1886  1.2913 -1.0367
  483MOL0     H63699  11.079   0.281   6.740  0.8424 -0.1402 -0.6283
  483MOL0     H63700  11.078   0.388   6.884  4.3123 -0.0566  1.4225
  483MOL0     H63701  11.280   0.175   6.840  0.3350 -0.6890  0.5753
  483MOL0     H63702  11.256   0.264   6.986  0.5627 -1.8507  0.3302
  483MOL0     H63703  11.335   0.472   6.884  2.8899 -0.9522  2.2099
  483MOL0     H63704  11.292   0.403   6.733  2.2405 -0.1756 -0.2287
  483MOL0     H63705  11.548   0.410   6.764  2.0780  0.9721  2.5170
  483MOL0     H63706  11.534   0.300   6.908  4.1305 -0.7370 -2.1957
  483MOL0     H63707  11.439   0.225   6.632  2.4268  0.1455 -1.1630
  483MOL0     H63708  11.484   0.116   6.776  1.8796 -1.3565 -0.5786
  483MOL0     H63709  11.727   0.090   6.847  1.0908 -1.1678 -0.5109
  483MOL0     H63710  12.017   0.010   6.631 -0.5557 -0.4264  2.0758
  483MOL0     H63711  11.982   0.036   6.797 -0.5468 -1.1952 -0.4006
  483MOL0     H63712  12.026   0.286   6.748 -1.9482  1.1146 -2.2617
  483MOL0     H63713  12.099   0.247   6.595  1.9555  0.2778  1.1437
  483MOL0     H63714  12.255   0.269   6.792 -0.7185  0.6029 -1.3717
  483MOL0     H63715  12.200   0.122   6.858  1.4398 -2.0562  0.1269
  483MOL0     H63716  12.369   0.166   6.619 -2.3609 -1.0785 -2.6359
  483MOL0     H63717  12.273   0.021   6.619  1.4164 -2.6263  1.4456
  483MOL0     H63718  12.582  -0.132   6.896 -0.6991  1.6237  3.5646
  483MOL0     H63719  12.828  -0.088   6.923  0.2686 -1.3480 -0.5456
  483MOL0     H63720  13.090   0.327   6.519 -0.1838  2.2781  0.8236
  483MOL0     H63721  13.330   0.401   6.465  1.0674  0.3793  0.3682
  483MOL0     H63722  13.646   0.219   6.682 -0.4023  0.2797  0.5254
  483MOL0     H63723  13.657   0.358   6.792 -0.6046 -1.4809  1.0045
  483MOL0     H63724  13.760   0.381   6.509 -0.8130  1.3185 -0.6884
  483MOL0     H63725  13.861   0.314   6.639 -0.8620 -0.1030  1.4941
  483MOL0     H63726  13.922   0.531   6.654 -0.4943 -2.3470 -0.6499
  483MOL0     H63727  13.797   0.513   6.773  0.9385 -3.3327 -0.6587
  483MOL0     H63728  13.771   0.617   6.482  3.0059 -0.2395  0.5850
  483MOL0     H63729  13.641   0.632   6.606 -0.3405  2.2369 -0.5746
  483MOL0     H63730  13.907   0.786   6.658  0.3068  2.0318 -1.5108
  483MOL0     H63731  13.757   0.770   6.739  1.3406  0.9289  0.2865
  483MOL0     H63732  13.656   0.873   6.518 -0.1407  1.4275 -0.5103
  483MOL0     H63733  13.805   0.855   6.443  0.4740 -1.6217  0.7546
  483MOL0     H63734  13.790   1.039   6.683  1.1984  1.2301 -0.0987
  483MOL0     H63735  13.926   1.032   6.571 -0.8028  1.4305  0.1559
  483MOL0     H63736  13.646   1.126   6.496 -0.3609  2.4541  1.5493
  483MOL0     H63737  13.786   1.100   6.398 -4.5461 -1.6376 -0.9350
  483MOL0     H63738  13.461   0.283   6.859  0.3253 -2.0120 -0.5460
  483MOL0     H63739  13.203   0.223   6.910  0.3763  0.6636  0.5045
  483MOL0     H63740  12.771   0.288   6.700 -1.0972  0.7565  1.1105
  483MOL0     H63741  12.530   0.262   6.718  1.7039  3.9697  4.3253
  483MOL0     H63742  10.715   0.505   6.890  0.7252 -2.3417 -0.1504
  483MOL0     H63743  10.561   0.660   6.974  0.0936 -1.2807  0.5083
  483MOL0     H63744  10.064   0.761   6.870 -1.0440  0.7025 -1.0360
  483MOL0     H63745   9.938   0.952   6.818  2.2351  2.5157 -5.4334
  483MOL0     H63746  10.016   1.359   7.008  0.7987  0.5519 -0.1818
  483MOL0     H63747   9.926   1.393   6.863 -0.7830 -0.3679 -0.4359
  483MOL0     H63748  10.220   1.331   6.854  1.5415 -1.2831 -3.3645
  483MOL0     H63749  10.119   1.394   6.722  0.7123 -1.7590  0.0139
  483MOL0     H63750  10.169   1.541   6.973 -1.0017 -0.9161 -0.0614
  483MOL0     H63751  10.080   1.601   6.836 -1.6601 -1.3825  2.4754
  483MOL0     H63752  10.336   1.662   6.850 -1.9415  0.2354  0.0295
  483MOL0     H63753  10.359   1.492   6.821 -1.0417 -1.2290 -1.5504
  483MOL0     H63754  10.209   1.635   6.440 -3.3135  0.0894  0.2447
  483MOL0     H63755  10.202   1.208   7.045 -2.0743 -1.2459  1.9336
  483MOL0     H63756  10.344   1.009   7.098  2.9883  1.0608 -3.1371
  484MOL0     O63757   9.019   4.162   2.432 -0.6854 -0.1792 -0.8357
  484MOL0     C63758   9.000   4.219   2.539 -0.1444  0.5712  0.3733
  484MOL0     O63759   9.074   4.325   2.586 -0.8235 -0.0048  0.3456
  484MOL0     C63760   9.163   4.389   2.497 -1.8628 -0.3377 -0.9959
  484MOL0     C63761   9.280   4.325   2.443  0.6958 -0.2779  0.5533
  484MOL0     C63762   9.348   4.390   2.336 -0.9075  0.4112  0.5968
  484MOL0     C63763   9.314   4.515   2.291  0.3288  0.8962 -0.3842
  484MOL0     O63764   9.396   4.591   2.208  0.4494  0.8639  0.0188
  484MOL0     C63765   9.372   4.726   2.175 -0.4768  0.1340  0.7486
  484MOL0     C63766   9.270   4.740   2.061 -0.3852  0.2335 -0.5099
  484MOL0     C63767   9.220   4.889   2.054 -0.5179  0.8864 -0.5545
  484MOL0     C63768   9.158   4.937   2.186 -0.5784  0.0529  0.0235
  484MOL0     C63769   9.079   5.061   2.172 -0.0532 -0.3614  0.5554
  484MOL0     C63770   9.154   5.172   2.107  0.0945 -1.1560 -0.2637
  484MOL0     C63771   9.274   5.205   2.203  0.0706 -0.1107 -0.1220
  484MOL0     C63772   9.365   5.314   2.149  0.3593  1.0694 -0.2586
  484MOL0     N63773   9.477   5.342   2.247 -0.1561 -0.6072 -0.8690
  484MOL0     C63774   9.518   5.470   2.300  0.3985  1.7973 -0.2447
  484MOL0     C63775   9.624   5.435   2.372 -0.2038 -0.0034  0.3489
  484MOL0     C63776   9.701   5.534   2.454 -0.1328  0.0271 -0.0668
  484MOL0     C63777   9.636   5.587   2.581 -0.3019 -0.4619 -0.0615
  484MOL0     C63778   9.570   5.723   2.547 -0.5550  0.2645 -0.2531
  484MOL0     C63779   9.464   5.742   2.656  0.1945  0.7850  0.0974
  484MOL0     O63780   9.361   5.638   2.661  0.1916  0.6253  1.2348
  484MOL0     C63781   9.268   5.651   2.556 -0.1868  0.5347 -0.4626
  484MOL0     C63782   9.224   5.535   2.497  0.2833  0.3961  0.9417
  484MOL0     C63783   9.113   5.520   2.413 -0.2937 -0.0930  0.7996
  484MOL0     C63784   9.046   5.639   2.372 -0.2847 -0.1018  0.0818
  484MOL0     C63785   8.919   5.631   2.292 -0.0471  0.3019 -0.4398
  484MOL0     O63786   8.867   5.499   2.303 -0.0077 -0.4944  0.4616
  484MOL0     C63787   8.747   5.464   2.243  0.0146  0.5626 -0.1929
  484MOL0     C63788   8.743   5.412   2.110  0.6389 -1.2280  0.7113
  484MOL0     C63789   8.614   5.374   2.063  0.5324  0.2695 -0.4086
  484MOL0     C63790   8.495   5.391   2.147  0.5919 -0.8350 -0.3733
  484MOL0     O63791   8.370   5.353   2.113  0.4960  0.1901  0.3832
  484MOL0     C63792   8.332   5.298   1.986 -0.1405  0.4932 -0.1436
  484MOL0     C63793   8.383   5.157   2.001 -0.6556  0.4315 -0.1709
  484MOL0     C63794   8.257   5.092   2.064 -0.7962 -1.1375  0.8450
  484MOL0     C63795   8.295   4.944   2.104  0.5385  0.6299  0.0717
  484MOL0     C63796   8.172   4.863   2.162 -0.4376 -0.2425 -0.8288
  484MOL0     C63797   8.036   4.874   2.097 -0.6945 -0.8081 -0.0422
  484MOL0     C63798   7.935   4.810   2.199 -0.1914  0.5942  0.0010
  484MOL0     C63799   7.935   4.657   2.182 -0.3765  0.5707 -0.1409
  484MOL0    Cl63800   7.857   4.609   2.033 -0.1031  0.3245 -0.1408
  484MOL0     C63801   8.509   5.454   2.275  0.6573  0.0365  0.1940
  484MOL0     C63802   8.635   5.490   2.321  1.1410  0.0281 -0.2103
  484MOL0     O63803   8.873   5.727   2.234 -0.6946 -0.1857 -0.2628
  484MOL0     C63804   9.097   5.761   2.418  0.4597  0.3951 -0.0621
  484MOL0     C63805   9.208   5.768   2.502  0.3199 -0.0674  0.5234
  484MOL0     N63806   9.647   5.298   2.379  0.7367 -0.1329  0.3530
  484MOL0     N63807   9.559   5.252   2.299 -0.3195 -0.1903 -0.4440
  484MOL0     C63808   9.189   4.566   2.337 -0.1458 -0.2938 -0.1250
  484MOL0     C63809   9.116   4.507   2.435  0.5868  0.6055 -0.9121
  484MOL0     C63810   8.910   4.154   2.638 -0.2829 -0.8989  1.6248
  484MOL0     C63811   8.894   4.217   2.758 -0.0115  0.2290 -0.1923
  484MOL0     C63812   8.790   4.184   2.852 -0.4783  0.4520 -0.5648
  484MOL0     C63813   8.701   4.085   2.821  1.5985  0.6857 -0.8008
  484MOL0     O63814   8.598   4.035   2.903 -0.5132  0.2957  0.1167
  484MOL0     C63815   8.568   4.115   3.020 -0.1541  0.4536 -0.5755
  484MOL0     C63816   8.658   4.069   3.142 -0.3691  0.4398 -0.5729
  484MOL0     C63817   8.649   4.164   3.259 -0.0417 -0.1383  0.6756
  484MOL0     C63818   8.507   4.155   3.311 -0.7873 -0.2031  0.7325
  484MOL0     C63819   8.511   4.154   3.454  0.2433  0.3510  0.8938
  484MOL0     C63820   8.489   4.119   3.567  0.3065  0.0176 -1.1857
  484MOL0     C63821   8.715   4.020   2.691  0.4376 -0.8015 -1.1691
  484MOL0     C63822   8.825   4.048   2.609  0.4268 -0.9641  0.1577
  484MOL0     H63823   9.337   4.240   2.480  0.8982  0.8994  3.1607
  484MOL0     H63824   9.433   4.340   2.290 -0.5004 -0.4903  2.2780
  484MOL0     H63825   9.469   4.753   2.134 -0.2783 -2.7969 -0.9743
  484MOL0     H63826   9.353   4.784   2.267  2.1829 -1.2268  2.2653
  484MOL0     H63827   9.190   4.666   2.066 -0.4134  0.0428 -2.6911
  484MOL0     H63828   9.320   4.730   1.964  2.9730 -0.9710  1.1643
  484MOL0     H63829   9.146   4.892   1.974  0.6101 -0.4944 -1.7069
  484MOL0     H63830   9.303   4.956   2.029 -1.1707  1.8023 -0.2880
  484MOL0     H63831   9.096   4.860   2.232  0.8626 -1.5208 -0.5666
  484MOL0     H63832   9.228   4.962   2.266 -1.4674  1.8418  0.2999
  484MOL0     H63833   9.042   5.091   2.271  4.0984  1.9903  1.6218
  484MOL0     H63834   8.987   5.042   2.115 -0.8375  1.0951  1.2651
  484MOL0     H63835   9.081   5.253   2.107  0.2721 -0.9921  0.2530
  484MOL0     H63836   9.189   5.149   2.006  0.2056 -3.9928  0.3292
  484MOL0     H63837   9.243   5.221   2.307 -2.6739  0.2684 -0.9399
  484MOL0     H63838   9.336   5.115   2.203 -1.1096 -0.9693 -2.1616
  484MOL0     H63839   9.311   5.401   2.108 -0.4821 -0.8910 -3.6827
  484MOL0     H63840   9.418   5.272   2.064 -1.4614 -2.1075  0.0061
  484MOL0     H63841   9.482   5.572   2.288  0.2138  1.8768  0.9110
  484MOL0     H63842   9.711   5.614   2.380 -2.0310 -2.1417 -2.8404
  484MOL0     H63843   9.796   5.489   2.484 -1.5978 -1.4117  2.8112
  484MOL0     H63844   9.717   5.607   2.652  1.3272 -1.8436 -1.4320
  484MOL0     H63845   9.567   5.505   2.603 -1.0212  0.2800  0.5121
  484MOL0     H63846   9.642   5.805   2.552  0.1470 -0.3463 -0.0540
  484MOL0     H63847   9.516   5.722   2.452 -1.0670 -4.4861 -0.1552
  484MOL0     H63848   9.440   5.849   2.656 -0.7310  0.5841 -0.3414
  484MOL0     H63849   9.527   5.731   2.745 -0.5810  1.2541  0.7226
  484MOL0     H63850   9.271   5.445   2.537  1.0211  1.5838  2.8972
  484MOL0     H63851   9.070   5.422   2.394  0.1582 -0.2328  0.4610
  484MOL0     H63852   8.826   5.419   2.041  0.8679  3.7903  1.0805
  484MOL0     H63853   8.610   5.318   1.970 -1.2172 -2.6878  1.3241
  484MOL0     H63854   8.383   5.351   1.905 -2.0210  2.2551 -0.2391
  484MOL0     H63855   8.227   5.313   1.960 -0.5202 -0.1361  0.9322
  484MOL0     H63856   8.460   5.146   2.077 -3.0333 -0.0554  2.3242
  484MOL0     H63857   8.421   5.121   1.905  2.7954  2.5459  0.2508
  484MOL0     H63858   8.168   5.089   2.001  0.7570 -2.3580 -1.4321
  484MOL0     H63859   8.229   5.141   2.158 -2.3269  0.9329 -0.6033
  484MOL0     H63860   8.327   4.885   2.017 -0.9998  0.9027 -0.7206
  484MOL0     H63861   8.373   4.933   2.180  0.9445  0.2436 -0.3896
  484MOL0     H63862   8.163   4.899   2.265  1.8983 -1.6054 -0.0739
  484MOL0     H63863   8.206   4.759   2.169  1.3390  0.3723  0.2839
  484MOL0     H63864   8.041   4.821   2.002 -0.0702 -1.7655  0.5060
  484MOL0     H63865   8.002   4.978   2.092  1.3565 -0.0897  0.0249
  484MOL0     H63866   7.968   4.845   2.297  2.5535  1.8361 -1.2745
  484MOL0     H63867   7.837   4.856   2.182  2.1077  5.0486 -3.0263
  484MOL0     H63868   7.888   4.596   2.260 -2.6140  2.2740 -0.0380
  484MOL0     H63869   8.037   4.619   2.184  0.1999  1.7029  4.9311
  484MOL0     H63870   8.423   5.505   2.318  0.0254  0.5222 -1.5351
  484MOL0     H63871   8.647   5.547   2.412 -2.2120  0.6043  0.0135
  484MOL0     H63872   9.033   5.842   2.384 -2.0048 -1.0313  0.9250
  484MOL0     H63873   9.240   5.869   2.528  1.8094 -0.4762  0.3322
  484MOL0     H63874   9.161   4.665   2.301  0.3696 -0.0072  0.2344
  484MOL0     H63875   9.022   4.551   2.466  1.4466  2.8053 -1.1900
  484MOL0     H63876   8.966   4.293   2.786 -0.0245  0.5151 -0.9335
  484MOL0     H63877   8.783   4.231   2.949 -0.1245 -1.6949  0.5642
  484MOL0     H63878   8.463   4.093   3.042 -0.6948  0.0476 -3.1909
  484MOL0     H63879   8.579   4.223   3.006  1.9573  0.7196  2.2308
  484MOL0     H63880   8.614   3.970   3.155 -4.2576  1.4031 -4.0593
  484MOL0     H63881   8.757   4.068   3.095 -0.9463  1.8114 -1.9161
  484MOL0     H63882   8.683   4.265   3.238 -1.5475 -0.0428 -1.7027
  484MOL0     H63883   8.716   4.135   3.340  0.2698  2.9961  1.6588
  484MOL0     H63884   8.445   4.235   3.269  0.3601  0.9080  1.0925
  484MOL0     H63885   8.448   4.065   3.289 -1.5787  0.4560  0.0508
  484MOL0     H63886   8.488   4.077   3.666 -2.1572  1.9413 -0.2851
  484MOL0     H63887   8.637   3.951   2.662 -0.8684  0.6648 -1.2478
  484MOL0     H63888   8.838   4.005   2.510  2.1949  0.4856 -0.2711
  485MOL0     O63889   3.051   3.339  10.035  0.1200  0.3203  0.4906
  485MOL0     C63890   3.018   3.263  10.127  0.1681 -0.1969  0.9914
  485MOL0     O63891   2.894   3.214  10.147 -0.1408 -0.2376  0.5500
  485MOL0     C63892   2.792   3.255  10.060 -1.2669  0.2507 -0.0559
  485MOL0     C63893   2.766   3.384  10.004 -0.1495  0.7561 -0.0292
  485MOL0     C63894   2.644   3.419   9.942 -0.4566 -0.4554 -0.2458
  485MOL0     C63895   2.549   3.327   9.922 -0.4020 -0.4217  0.3278
  485MOL0     O63896   2.444   3.344   9.832 -0.8165  0.0643  0.6951
  485MOL0     C63897   2.375   3.466   9.829 -0.1217 -0.4245  0.0693
  485MOL0     C63898   2.227   3.443   9.795  0.1372  1.1527  0.2659
  485MOL0     C63899   2.161   3.561   9.731 -0.2909  0.1464 -0.1252
  485MOL0     C63900   2.028   3.504   9.672 -0.7914  1.1958  0.3763
  485MOL0     C63901   1.920   3.483   9.783  0.5600 -0.1468  1.1584
  485MOL0     C63902   1.812   3.393   9.714 -0.7468 -0.3822  0.5740
  485MOL0     C63903   1.691   3.367   9.800  0.1484 -0.0469 -0.2381
  485MOL0     C63904   1.566   3.297   9.727 -0.2774 -0.1508  0.1956
  485MOL0     N63905   1.477   3.400   9.665  0.1443  0.0187 -0.0053
  485MOL0     C63906   1.490   3.536   9.678 -0.5881  0.3212  0.3466
  485MOL0     C63907   1.387   3.595   9.608  0.3472 -0.5117  1.4208
  485MOL0     C63908   1.360   3.744   9.609  0.1560  0.4187 -0.0509
  485MOL0     C63909   1.278   3.776   9.739 -0.8361 -0.3755 -0.3309
  485MOL0     C63910   1.234   3.924   9.754  0.3055  0.6446  0.6771
  485MOL0     C63911   1.339   4.029   9.767 -0.4079  0.2711 -0.6616
  485MOL0     O63912   1.445   4.035   9.671  0.1910  0.2204 -0.1548
  485MOL0     C63913   1.526   4.141   9.670 -0.1385  0.5152 -0.2449
  485MOL0     C63914   1.535   4.240   9.775  0.3425  0.6234  0.1742
  485MOL0     C63915   1.647   4.328   9.775 -0.4161  1.1533 -0.4810
  485MOL0     C63916   1.741   4.331   9.671  0.2919 -0.0334 -0.2731
  485MOL0     C63917   1.862   4.412   9.665  1.4909  0.7499 -0.3396
  485MOL0     O63918   1.967   4.376   9.586  0.8552  0.4159 -0.6972
  485MOL0     C63919   2.089   4.429   9.604 -0.0274 -0.7654  0.2552
  485MOL0     C63920   2.202   4.351   9.633  0.5699  0.7423  0.2660
  485MOL0     C63921   2.334   4.413   9.652 -0.4315 -0.2985 -0.9016
  485MOL0     C63922   2.351   4.549   9.630  0.5823  0.2939 -0.1664
  485MOL0     O63923   2.468   4.622   9.631 -0.2927  1.3335 -0.4175
  485MOL0     C63924   2.596   4.544   9.650 -0.1853  0.2327  0.2916
  485MOL0     C63925   2.720   4.644   9.654  0.1341 -0.2241 -0.1812
  485MOL0     C63926   2.854   4.582   9.671 -0.0930  0.6269 -0.5471
  485MOL0     C63927   2.945   4.690   9.710 -0.3727 -0.4866 -0.8008
  485MOL0     C63928   3.093   4.648   9.697  0.5370 -0.2438 -0.1110
  485MOL0     C63929   3.151   4.692   9.559  0.0465  0.7131 -0.2855
  485MOL0     C63930   3.285   4.650   9.545 -0.0460 -0.1258 -0.5537
  485MOL0     C63931   3.394   4.716   9.630 -0.9662  0.4373  1.0220
  485MOL0    Cl63932   3.557   4.644   9.596  0.3302  0.9158 -0.0601
  485MOL0     C63933   2.240   4.622   9.588  0.3000  0.2692 -0.0897
  485MOL0     C63934   2.107   4.566   9.586  0.2286 -0.1198  0.4310
  485MOL0     O63935   1.868   4.508   9.750 -0.6223  0.5124 -0.4457
  485MOL0     C63936   1.725   4.243   9.571 -0.6313  0.4818 -0.4912
  485MOL0     C63937   1.623   4.143   9.569  0.3874 -0.2640 -0.8807
  485MOL0     N63938   1.321   3.489   9.541 -1.0413 -0.4515 -0.8016
  485MOL0     N63939   1.387   3.377   9.574  0.5714 -0.1179  0.1346
  485MOL0     C63940   2.573   3.198   9.965  0.2380 -0.2188 -0.4760
  485MOL0     C63941   2.692   3.162  10.043  0.2697 -0.3055  0.3050
  485MOL0     C63942   3.130   3.220  10.209  0.8797  0.5428 -0.0845
  485MOL0     C63943   3.096   3.128  10.316  0.8461  0.1977 -0.0265
  485MOL0     C63944   3.189   3.101  10.410  0.5055  0.3534 -0.2070
  485MOL0     C63945   3.313   3.168  10.414  0.3763  0.7752  0.3761
  485MOL0     O63946   3.403   3.130  10.513  0.1659 -1.1702 -0.0431
  485MOL0     C63947   3.495   3.035  10.465 -0.7036  0.0984  0.5559
  485MOL0     C63948   3.532   2.948  10.581 -0.5608 -0.2859 -1.1180
  485MOL0     C63949   3.617   3.029  10.683  0.6107 -0.2210  0.5457
  485MOL0     C63950   3.523   3.103  10.792  1.0297  0.3948  0.1620
  485MOL0     C63951   3.616   3.177  10.878  0.2447 -0.0993  0.9719
  485MOL0     C63952   3.697   3.241  10.945 -0.0594 -0.0764  0.0848
  485MOL0     C63953   3.340   3.259  10.313  0.1495  0.3963  0.4022
  485MOL0     C63954   3.248   3.289  10.211 -0.2263  0.6860  0.6315
  485MOL0     H63955   2.834   3.466  10.024 -0.1183  0.6619  0.2446
  485MOL0     H63956   2.635   3.520   9.905 -2.9442 -1.3652 -2.4517
  485MOL0     H63957   2.408   3.533   9.750 -0.1388 -1.0046 -0.4308
  485MOL0     H63958   2.372   3.518   9.926 -3.2161 -1.6467  0.7565
  485MOL0     H63959   2.166   3.408   9.878  3.3415  1.4149  2.9515
  485MOL0     H63960   2.226   3.362   9.722 -3.0738  1.2826  0.0469
  485MOL0     H63961   2.216   3.610   9.650 -3.0371  0.5833 -1.8756
  485MOL0     H63962   2.138   3.641   9.802  0.0713  1.1531 -1.1207
  485MOL0     H63963   1.982   3.567   9.596  0.9385  0.4063 -1.4242
  485MOL0     H63964   2.049   3.414   9.614  1.9429  3.6996 -2.9343
  485MOL0     H63965   1.878   3.578   9.817 -0.9768 -0.0756 -0.7618
  485MOL0     H63966   1.953   3.411   9.858  0.9079  0.4299  1.5649
  485MOL0     H63967   1.869   3.306   9.680 -0.6473 -0.5627  1.1856
  485MOL0     H63968   1.778   3.452   9.629 -0.6511 -1.5194 -0.2756
  485MOL0     H63969   1.723   3.301   9.882 -0.2338  2.8796  2.4818
  485MOL0     H63970   1.671   3.456   9.859 -0.5936  0.4790 -1.2663
  485MOL0     H63971   1.514   3.236   9.801  1.5935  0.0940  1.7868
  485MOL0     H63972   1.603   3.232   9.648  2.2395  3.1228 -1.6290
  485MOL0     H63973   1.561   3.597   9.733 -0.3349  0.9244 -0.6256
  485MOL0     H63974   1.301   3.771   9.521  1.2064  2.5314 -0.1739
  485MOL0     H63975   1.447   3.810   9.601 -0.8737  2.0257  1.3335
  485MOL0     H63976   1.344   3.749   9.823  1.4951  0.8826 -1.6651
  485MOL0     H63977   1.191   3.712   9.757 -1.2180 -0.0260 -0.9222
  485MOL0     H63978   1.175   3.943   9.664 -2.1675 -5.1259  0.5985
  485MOL0     H63979   1.163   3.943   9.836  1.1168  1.6264  1.1697
  485MOL0     H63980   1.392   4.023   9.862 -0.8735 -1.3588 -0.4850
  485MOL0     H63981   1.285   4.124   9.775 -0.2984  0.1882  1.8150
  485MOL0     H63982   1.474   4.241   9.865  1.5425 -3.1626  1.2213
  485MOL0     H63983   1.666   4.397   9.858 -1.2305  0.6703  0.1250
  485MOL0     H63984   2.192   4.243   9.637 -1.7417  0.7920 -1.8266
  485MOL0     H63985   2.413   4.343   9.677  0.4307  0.6589 -0.9058
  485MOL0     H63986   2.622   4.467   9.577  1.7134  0.0764  1.0643
  485MOL0     H63987   2.598   4.498   9.749 -3.3569  0.9609  0.8016
  485MOL0     H63988   2.685   4.719   9.726 -0.8943  1.3120 -2.1982
  485MOL0     H63989   2.731   4.699   9.561 -3.2371  3.0713  1.1119
  485MOL0     H63990   2.884   4.517   9.588  2.4387  0.2632  0.5402
  485MOL0     H63991   2.855   4.505   9.749 -1.5581  2.3583  1.2586
  485MOL0     H63992   2.933   4.781   9.651 -3.1118 -2.1779 -3.1112
  485MOL0     H63993   2.921   4.710   9.815  0.3781 -0.7457 -0.5700
  485MOL0     H63994   3.112   4.542   9.716 -0.1615  0.0230  2.3075
  485MOL0     H63995   3.152   4.713   9.762  1.1488  2.1186 -2.8062
  485MOL0     H63996   3.134   4.799   9.544 -0.4596  0.3776 -2.5535
  485MOL0     H63997   3.090   4.653   9.477 -0.5031 -1.6963  1.1697
  485MOL0     H63998   3.289   4.541   9.555 -0.2278 -0.2950 -2.1370
  485MOL0     H63999   3.314   4.678   9.444  1.3744  1.4820  0.2379
  485MOL0     H64000   3.385   4.698   9.737 -2.0666 -0.8656  0.7402
  485MOL0     H64001   3.395   4.824   9.612 -0.8745  0.5000  1.3925
  485MOL0     H64002   2.258   4.717   9.540  1.2438  0.1169 -0.0576
  485MOL0     H64003   2.021   4.627   9.560  1.0250  0.2857 -1.3678
  485MOL0     H64004   1.786   4.244   9.481  0.0470  1.4963 -0.0382
  485MOL0     H64005   1.601   4.078   9.485 -2.7894 -0.0223 -0.3654
  485MOL0     H64006   2.504   3.117   9.943  2.2485 -2.4255  0.7752
  485MOL0     H64007   2.710   3.065  10.089 -0.3007  0.9755  3.4864
  485MOL0     H64008   2.994   3.092  10.327  0.7000  0.7702  0.5937
  485MOL0     H64009   3.174   3.019  10.480  2.9172 -0.0543 -0.0846
  485MOL0     H64010   3.584   3.086  10.428 -0.1488 -0.2007  1.4493
  485MOL0     H64011   3.459   2.976  10.379  2.0492 -1.0042  0.0599
  485MOL0     H64012   3.449   2.903  10.636  0.1381 -0.1720  0.0681
  485MOL0     H64013   3.595   2.872  10.534  3.1288 -1.0419  4.1512
  485MOL0     H64014   3.664   3.116  10.636  1.1283  0.8817  2.9364
  485MOL0     H64015   3.688   2.969  10.741  0.4061 -1.1957 -0.1746
  485MOL0     H64016   3.465   3.184  10.747  0.5449 -0.0155  0.0370
  485MOL0     H64017   3.462   3.029  10.845  1.4078  0.4974  0.7439
  485MOL0     H64018   3.754   3.305  11.010 -0.1706 -1.7654  1.9277
  485MOL0     H64019   3.431   3.312  10.339 -0.0410  0.0901  1.7618
  485MOL0     H64020   3.260   3.366  10.136 -0.2378 -3.2029 -3.7951
  486MOL0     O64021   6.473  10.208   2.771 -0.9242 -0.1549 -0.3889
  486MOL0     C64022   6.528  10.103   2.821 -0.3136 -0.2439  0.9856
  486MOL0     O64023   6.476  10.034   2.926 -0.0342  0.1335  0.1787
  486MOL0     C64024   6.342  10.068   2.950  0.0108  0.0140 -0.5000
  486MOL0     C64025   6.244   9.979   2.930 -0.4859 -0.1405 -0.7258
  486MOL0     C64026   6.110  10.009   2.957 -0.4940 -0.1921  0.3072
  486MOL0     C64027   6.084  10.129   3.017 -0.2066  0.0403 -0.4108
  486MOL0     O64028   5.951  10.142   3.032  0.6108 -0.2419 -0.0580
  486MOL0     C64029   5.890  10.255   2.967  0.7845 -0.4531  0.2225
  486MOL0     C64030   5.865  10.239   2.811  0.8956  0.4120 -0.5556
  486MOL0     C64031   5.810  10.113   2.759 -0.4872 -0.1198 -0.4807
  486MOL0     C64032   5.750  10.113   2.622  0.5799 -0.6653  0.0624
  486MOL0     C64033   5.722   9.972   2.568  0.3786  0.7292  0.1591
  486MOL0     C64034   5.636   9.995   2.450  0.0010  0.0645 -0.0032
  486MOL0     C64035   5.610   9.866   2.374  0.2642 -0.0508 -0.7578
  486MOL0     C64036   5.505   9.775   2.435  0.3554  0.0187  0.5558
  486MOL0     N64037   5.486   9.649   2.358 -0.5482  0.8132  0.9716
  486MOL0     C64038   5.590   9.561   2.331 -0.0994 -0.0112 -0.2285
  486MOL0     C64039   5.539   9.447   2.267  0.8479 -0.9402 -0.0347
  486MOL0     C64040   5.609   9.331   2.208 -0.0776  0.5835 -0.4266
  486MOL0     C64041   5.532   9.197   2.203  0.8792 -0.6060 -0.5076
  486MOL0     C64042   5.598   9.096   2.115 -0.0461  0.3160 -0.3333
  486MOL0     C64043   5.696   9.013   2.193 -0.2030 -0.3087  0.9110
  486MOL0     O64044   5.714   8.897   2.106 -0.4167  0.7227 -0.9980
  486MOL0     C64045   5.841   8.839   2.104 -0.9255  0.0832  0.2381
  486MOL0     C64046   5.882   8.759   1.999 -0.6318 -0.2238 -0.0711
  486MOL0     C64047   6.018   8.715   1.989  0.5577  0.5065  0.6535
  486MOL0     C64048   6.109   8.722   2.094 -0.2891 -0.2445  0.3432
  486MOL0     C64049   6.246   8.663   2.101 -0.3593 -0.2643  0.2468
  486MOL0     O64050   6.296   8.607   1.987 -1.1228 -0.0028  0.6965
  486MOL0     C64051   6.424   8.555   1.996  1.2192  0.4575  0.2148
  486MOL0     C64052   6.426   8.431   2.058 -0.7676  0.2489 -0.4102
  486MOL0     C64053   6.554   8.370   2.060  0.7389  0.2507 -0.2910
  486MOL0     C64054   6.662   8.423   1.994  0.1060 -0.9133 -0.2631
  486MOL0     O64055   6.787   8.369   2.011 -0.4372 -0.1245  0.0460
  486MOL0     C64056   6.818   8.283   2.120 -0.3241 -0.2575 -0.3770
  486MOL0     C64057   6.979   8.274   2.124 -1.0369 -0.9918  0.2879
  486MOL0     C64058   7.043   8.167   2.212  0.4234  0.5758  0.1098
  486MOL0     C64059   7.194   8.160   2.195  0.3196 -0.3975  0.8222
  486MOL0     C64060   7.265   8.072   2.299  0.4496 -0.7768  0.1256
  486MOL0     C64061   7.212   7.933   2.310  0.0706 -0.3583  0.5803
  486MOL0     C64062   7.305   7.858   2.409 -0.9741  0.3472 -0.1891
  486MOL0     C64063   7.245   7.775   2.517 -1.1506 -0.1992  0.2663
  486MOL0    Cl64064   7.174   7.631   2.450 -0.2647  0.3572 -0.0049
  486MOL0     C64065   6.658   8.546   1.937 -0.0299 -0.0013 -0.0492
  486MOL0     C64066   6.538   8.613   1.931  0.0258 -0.0645 -0.7142
  486MOL0     O64067   6.291   8.650   2.215 -0.1479 -0.6454 -0.2891
  486MOL0     C64068   6.065   8.794   2.211  0.0042  0.1496 -0.2701
  486MOL0     C64069   5.934   8.849   2.211 -0.6708  0.7674  0.1133
  486MOL0     N64070   5.399   9.478   2.266 -0.4900  0.8335  1.2756
  486MOL0     N64071   5.372   9.595   2.312 -0.2417 -0.0690 -1.3498
  486MOL0     C64072   6.185  10.231   3.047 -0.4806 -0.3226  0.4967
  486MOL0     C64073   6.315  10.195   3.010  0.7655 -0.2412 -0.7608
  486MOL0     C64074   6.651  10.048   2.758  0.2758 -0.8536  0.5851
  486MOL0     C64075   6.712  10.110   2.647 -0.2345 -0.1589  0.0202
  486MOL0     C64076   6.838  10.070   2.596  0.4400 -0.5726  0.0840
  486MOL0     C64077   6.897   9.949   2.645  0.1668 -0.1989  0.0038
  486MOL0     O64078   7.014   9.919   2.573  0.0966  0.3197  0.0008
  486MOL0     C64079   7.122   9.839   2.622  0.4412  0.1173 -1.0508
  486MOL0     C64080   7.230   9.837   2.521 -0.8853  1.2225 -0.3811
  486MOL0     C64081   7.201   9.722   2.421 -0.7410  0.9204  0.4044
  486MOL0     C64082   7.307   9.682   2.314  0.1414 -0.6028  0.8492
  486MOL0     C64083   7.431   9.627   2.368  0.0761  0.1694 -1.4577
  486MOL0     C64084   7.530   9.595   2.421 -0.2398  0.5828  0.2728
  486MOL0     C64085   6.851   9.894   2.770  0.4354 -0.3272 -0.5870
  486MOL0     C64086   6.729   9.941   2.819 -0.5692 -0.4900 -0.5775
  486MOL0     H64087   6.266   9.885   2.880  0.1543  0.3727 -1.4361
  486MOL0     H64088   6.032   9.940   2.928 -0.5202  0.5470 -1.4949
  486MOL0     H64089   5.940  10.352   2.973 -2.0985  1.2640 -1.0102
  486MOL0     H64090   5.794  10.255   3.020 -0.6357  1.0893 -2.1388
  486MOL0     H64091   5.960  10.252   2.759  1.1359 -1.5579 -0.6675
  486MOL0     H64092   5.789  10.311   2.778 -1.8428 -2.5558 -1.2867
  486MOL0     H64093   5.747  10.080   2.843 -0.8159 -1.5146 -1.2434
  486MOL0     H64094   5.889  10.040   2.741  1.0479  1.6523 -1.3051
  486MOL0     H64095   5.657  10.169   2.635 -1.0749 -2.9840 -0.8950
  486MOL0     H64096   5.807  10.183   2.561  0.8054  1.2830  2.3683
  486MOL0     H64097   5.679   9.901   2.639  2.6336  2.8070  3.9606
  486MOL0     H64098   5.821   9.941   2.532  0.4281  1.0012  0.0627
  486MOL0     H64099   5.694  10.054   2.377  0.9741  0.5530  1.1329
  486MOL0     H64100   5.544  10.052   2.468  0.0531 -0.7784  3.4830
  486MOL0     H64101   5.575   9.899   2.275 -0.5642 -0.4099 -0.5930
  486MOL0     H64102   5.705   9.815   2.355 -0.3172 -0.5792 -2.3751
  486MOL0     H64103   5.411   9.831   2.430  0.1838 -0.2514  0.6948
  486MOL0     H64104   5.521   9.754   2.541  3.3045  0.3714  0.2775
  486MOL0     H64105   5.695   9.588   2.345  0.3467 -1.4015 -0.6942
  486MOL0     H64106   5.705   9.325   2.262 -1.5766  1.8658  2.6414
  486MOL0     H64107   5.634   9.350   2.103 -1.1840 -3.4239 -1.5682
  486MOL0     H64108   5.437   9.212   2.153  0.0460 -1.3751  0.7750
  486MOL0     H64109   5.525   9.161   2.306 -1.8618  0.9604 -0.0646
  486MOL0     H64110   5.514   9.036   2.081 -0.2790 -0.2986  1.2469
  486MOL0     H64111   5.646   9.137   2.025  2.8323  3.1857  2.2514
  486MOL0     H64112   5.661   8.977   2.291  0.5618  1.2731  1.7995
  486MOL0     H64113   5.790   9.063   2.218  1.0098 -2.7567  1.5704
  486MOL0     H64114   5.802   8.746   1.926  1.4951  0.3135 -2.6666
  486MOL0     H64115   6.052   8.663   1.900 -0.0421  1.3540 -0.0951
  486MOL0     H64116   6.344   8.393   2.119 -1.4525  2.1499 -0.0864
  486MOL0     H64117   6.561   8.272   2.106  1.8092 -1.0713 -3.0230
  486MOL0     H64118   6.788   8.179   2.103  0.8064 -0.4374 -1.3594
  486MOL0     H64119   6.788   8.322   2.218 -0.9372 -1.7350  0.0486
  486MOL0     H64120   7.018   8.372   2.153  0.6474 -0.9961 -1.7551
  486MOL0     H64121   7.011   8.258   2.021  1.5182  1.4590  0.5733
  486MOL0     H64122   6.992   8.075   2.181 -3.3638  2.4173  0.2053
  486MOL0     H64123   7.025   8.198   2.315  2.2966  1.2519  0.2729
  486MOL0     H64124   7.213   8.122   2.094 -0.7620  1.8521 -0.2934
  486MOL0     H64125   7.244   8.257   2.194  1.1602 -0.8141  0.6130
  486MOL0     H64126   7.255   8.103   2.403 -1.8038 -2.5982  0.5516
  486MOL0     H64127   7.372   8.072   2.276  0.2950 -4.2099 -1.2212
  486MOL0     H64128   7.216   7.885   2.212 -3.9157 -0.8126  0.4888
  486MOL0     H64129   7.107   7.938   2.340  0.1711  0.6632  0.8085
  486MOL0     H64130   7.388   7.798   2.370  2.4184  1.3892  4.5140
  486MOL0     H64131   7.372   7.929   2.458 -0.9732  2.4264 -2.9634
  486MOL0     H64132   7.162   7.837   2.549 -1.6664 -1.4754  1.4970
  486MOL0     H64133   7.309   7.746   2.601  0.5518 -2.1754 -1.5926
  486MOL0     H64134   6.747   8.590   1.893 -1.6147  0.8752 -2.6904
  486MOL0     H64135   6.531   8.703   1.872 -1.6856  0.1692 -0.2143
  486MOL0     H64136   6.134   8.806   2.294  1.6535  0.7846 -1.6553
  486MOL0     H64137   5.923   8.912   2.299  1.3852  1.8882 -0.3600
  486MOL0     H64138   6.148  10.320   3.096  0.3386  1.0039 -1.1994
  486MOL0     H64139   6.400  10.261   3.025  2.2061 -2.2898  0.6320
  486MOL0     H64140   6.671  10.194   2.592 -0.7226 -0.1629  0.3760
  486MOL0     H64141   6.887  10.110   2.507 -1.0471  2.1203  0.3724
  486MOL0     H64142   7.102   9.740   2.666 -1.2089  1.1477  0.6725
  486MOL0     H64143   7.160   9.891   2.711 -0.3333  0.5762 -0.9766
  486MOL0     H64144   7.257   9.927   2.464 -0.2802 -0.6887 -3.3311
  486MOL0     H64145   7.315   9.816   2.587 -0.2694  1.8963 -0.9316
  486MOL0     H64146   7.100   9.733   2.379 -1.6681  1.1371  2.5430
  486MOL0     H64147   7.189   9.627   2.472 -1.6044  0.9969  0.3571
  486MOL0     H64148   7.268   9.611   2.240  2.1329 -0.8230 -0.0328
  486MOL0     H64149   7.336   9.765   2.251 -3.0660  0.1619  0.1749
  486MOL0     H64150   7.631   9.568   2.446  0.2676  1.6481 -0.5421
  486MOL0     H64151   6.915   9.821   2.819  0.2528  1.2013  2.1311
  486MOL0     H64152   6.689   9.893   2.908 -2.7045  1.4695 -0.3701
  487MOL0     O64153   9.142   2.351   1.742 -0.1470 -0.7808  0.7760
  487MOL0     C64154   9.054   2.258   1.752 -0.0870  0.6629 -0.1514
  487MOL0     O64155   9.068   2.155   1.833 -0.0617  0.3646 -0.7020
  487MOL0     C64156   9.189   2.119   1.901 -0.2718 -0.4140 -0.5781
  487MOL0     C64157   9.180   2.027   2.004  0.6920 -0.4828 -0.1885
  487MOL0     C64158   9.293   1.997   2.084 -0.2450 -0.4702 -0.0745
  487MOL0     C64159   9.422   2.057   2.066 -0.0916 -0.0331  0.0534
  487MOL0     O64160   9.522   2.059   2.163  0.7945 -0.2572 -0.2512
  487MOL0     C64161   9.536   1.936   2.232  0.1599 -0.3860 -0.2948
  487MOL0     C64162   9.673   1.915   2.304  0.5639 -1.1781 -0.3623
  487MOL0     C64163   9.663   1.810   2.414  0.7316  0.0946 -0.1603
  487MOL0     C64164   9.790   1.802   2.503  0.0580  0.1941  0.0859
  487MOL0     C64165   9.918   1.787   2.411 -0.7308  0.6929 -0.0128
  487MOL0     C64166  10.044   1.769   2.499 -0.6759  0.8219  0.1760
  487MOL0     C64167  10.072   1.885   2.604 -0.0852 -0.5360  0.4319
  487MOL0     C64168  10.064   2.024   2.555  0.2602 -0.6001  0.5297
  487MOL0     N64169  10.145   2.064   2.448 -0.8946  0.4315 -0.2919
  487MOL0     C64170  10.272   2.013   2.432 -0.4009  0.2254  0.0936
  487MOL0     C64171  10.330   2.088   2.333 -0.4335  0.1275 -0.2439
  487MOL0     C64172  10.466   2.077   2.280 -0.1690  0.7006  0.0660
  487MOL0     C64173  10.577   2.059   2.380 -0.1577  0.4613 -1.1396
  487MOL0     C64174  10.701   2.009   2.306 -0.6084  0.5555 -0.3544
  487MOL0     C64175  10.796   2.109   2.241  0.2894  0.4783  0.0035
  487MOL0     O64176  10.893   2.168   2.329  0.0788  0.3572  0.1694
  487MOL0     C64177  11.016   2.113   2.361  0.5990 -0.0109  0.3159
  487MOL0     C64178  11.055   1.983   2.321 -0.7663  0.9053  0.3511
  487MOL0     C64179  11.185   1.935   2.359  0.0041 -0.1235 -0.2929
  487MOL0     C64180  11.281   2.009   2.430 -0.7961 -0.0225  0.2085
  487MOL0     C64181  11.399   1.942   2.494  1.4238 -0.0951 -0.1757
  487MOL0     O64182  11.478   2.002   2.597 -0.4761 -0.4521  0.0256
  487MOL0     C64183  11.553   1.911   2.668  0.1200 -0.5293 -0.6868
  487MOL0     C64184  11.506   1.833   2.778 -0.2141 -0.3132 -0.2352
  487MOL0     C64185  11.580   1.745   2.861 -0.3767  0.6253  0.5723
  487MOL0     C64186  11.708   1.709   2.821  0.7373 -0.1772 -0.0135
  487MOL0     O64187  11.774   1.606   2.883 -0.0911 -0.5355  0.3681
  487MOL0     C64188  11.910   1.636   2.909 -0.2379  0.0850 -0.2250
  487MOL0     C64189  11.923   1.767   2.990 -0.1406  0.5721 -0.2855
  487MOL0     C64190  11.847   1.750   3.131 -0.7513 -0.3655  0.3385
  487MOL0     C64191  11.910   1.848   3.242 -0.1169 -0.4505  0.3646
  487MOL0     C64192  11.833   1.838   3.380  1.1103  0.2556 -0.2474
  487MOL0     C64193  11.677   1.847   3.362 -0.0800  1.0489 -0.1424
  487MOL0     C64194  11.607   1.883   3.485 -0.4069 -0.7587  0.4239
  487MOL0     C64195  11.460   1.901   3.463  0.3425  0.6643  0.1426
  487MOL0    Cl64196  11.422   2.046   3.371  0.5604  0.3418 -0.0745
  487MOL0     C64197  11.758   1.784   2.709  0.2852  0.0082 -0.4411
  487MOL0     C64198  11.683   1.880   2.635  0.0467  0.3519 -0.2131
  487MOL0     O64199  11.414   1.829   2.451 -0.1776  0.3155  0.3173
  487MOL0     C64200  11.237   2.132   2.472 -0.2808 -1.0755 -0.6239
  487MOL0     C64201  11.113   2.180   2.432  1.2612  0.1480  0.8997
  487MOL0     N64202  10.240   2.187   2.287 -0.0956 -0.3715 -0.3702
  487MOL0     N64203  10.130   2.176   2.364 -0.3857 -0.0084  0.1223
  487MOL0     C64204   9.428   2.141   1.954  0.4025 -0.3149  0.2199
  487MOL0     C64205   9.318   2.168   1.874  0.2253  0.3341 -0.6155
  487MOL0     C64206   8.932   2.286   1.674  0.1039  0.6894 -0.9095
  487MOL0     C64207   8.813   2.213   1.705 -1.0080 -0.8351 -0.0719
  487MOL0     C64208   8.700   2.264   1.649  0.6519 -0.4614  0.0011
  487MOL0     C64209   8.690   2.367   1.545  0.0552 -0.3530  0.3334
  487MOL0     O64210   8.565   2.399   1.490  0.1137 -0.0628  0.0152
  487MOL0     C64211   8.561   2.526   1.420  0.1517  0.2882  0.6294
  487MOL0     C64212   8.596   2.493   1.269  0.1379 -0.0510 -0.1411
  487MOL0     C64213   8.510   2.379   1.214 -0.0927  0.2201 -0.7872
  487MOL0     C64214   8.478   2.395   1.066 -0.6611  0.0635 -0.6808
  487MOL0     C64215   8.596   2.370   0.985  0.5898 -0.8689  0.0356
  487MOL0     C64216   8.701   2.359   0.929  0.3414  0.5004 -0.2034
  487MOL0     C64217   8.812   2.429   1.506  0.2354 -0.0240 -0.1204
  487MOL0     C64218   8.931   2.383   1.576  0.6325 -1.1627 -0.1521
  487MOL0     H64219   9.089   1.968   2.017  1.4125 -1.3470  1.1417
  487MOL0     H64220   9.287   1.938   2.175  2.6920 -0.2182  0.3594
  487MOL0     H64221   9.520   1.851   2.166  1.9371 -1.7248  0.8745
  487MOL0     H64222   9.466   1.925   2.315  2.2560 -0.0364  1.6262
  487MOL0     H64223   9.671   2.008   2.363 -2.9888 -1.6219  0.4859
  487MOL0     H64224   9.759   1.902   2.239  0.8309 -1.5163  0.0533
  487MOL0     H64225   9.639   1.713   2.369  0.1278  0.8821 -1.6124
  487MOL0     H64226   9.579   1.838   2.479  0.3198  1.4081 -1.2165
  487MOL0     H64227   9.793   1.897   2.556  0.4257  1.4608 -2.0706
  487MOL0     H64228   9.785   1.718   2.573 -1.0930 -3.1824 -3.6812
  487MOL0     H64229   9.933   1.865   2.335  2.3575  0.6439  0.4504
  487MOL0     H64230   9.896   1.695   2.357  1.9327  0.7278 -1.3096
  487MOL0     H64231  10.133   1.762   2.435  0.1163  1.4397  1.1751
  487MOL0     H64232  10.039   1.674   2.553  1.6169  1.6067  1.9456
  487MOL0     H64233   9.998   1.879   2.685  0.2653  3.4561  1.2610
  487MOL0     H64234  10.168   1.865   2.653 -0.4558 -0.2364  1.3039
  487MOL0     H64235  10.095   2.093   2.635 -0.3239 -0.2949  0.4990
  487MOL0     H64236   9.959   2.047   2.538  0.5736  0.6498  0.1662
  487MOL0     H64237  10.315   1.938   2.497 -0.8902  0.2147  0.4137
  487MOL0     H64238  10.483   2.169   2.223  1.9370  1.2438  1.4509
  487MOL0     H64239  10.470   1.993   2.210  0.9774 -0.0882  1.0317
  487MOL0     H64240  10.531   1.990   2.451 -0.2542  0.1708 -1.4818
  487MOL0     H64241  10.616   2.147   2.432 -1.9881  1.4943 -1.4389
  487MOL0     H64242  10.747   1.945   2.381 -0.2795  0.3762 -0.7079
  487MOL0     H64243  10.679   1.932   2.232  0.7301 -0.7586  0.5650
  487MOL0     H64244  10.732   2.185   2.197  1.7756  2.2713  0.8266
  487MOL0     H64245  10.842   2.057   2.156  0.5785  0.8264 -0.0525
  487MOL0     H64246  10.972   1.928   2.277  0.5025 -1.6803  0.9819
  487MOL0     H64247  11.204   1.830   2.340  0.7537  0.5578 -4.0614
  487MOL0     H64248  11.401   1.857   2.789  0.2250  1.4378  0.4998
  487MOL0     H64249  11.537   1.701   2.950 -0.9245  2.1601  1.0793
  487MOL0     H64250  11.960   1.639   2.812  0.3938  3.8362  0.0592
  487MOL0     H64251  11.958   1.559   2.969 -1.3839 -1.2225 -0.9085
  487MOL0     H64252  11.884   1.850   2.931  0.0815  0.5530 -0.4583
  487MOL0     H64253  12.028   1.782   3.017 -0.1717  3.0423 -1.2809
  487MOL0     H64254  11.868   1.651   3.172  0.0014 -0.9125 -1.2916
  487MOL0     H64255  11.741   1.763   3.112 -0.7494  2.0165  1.6003
  487MOL0     H64256  12.018   1.844   3.255 -0.0055 -2.5835 -0.7112
  487MOL0     H64257  11.889   1.945   3.197  0.8068  0.2960  1.5018
  487MOL0     H64258  11.868   1.916   3.448  1.1357  1.6080 -1.7604
  487MOL0     H64259  11.854   1.751   3.442 -1.0396 -1.0938 -1.2692
  487MOL0     H64260  11.640   1.751   3.323 -0.3929  1.6706 -1.4206
  487MOL0     H64261  11.654   1.915   3.280  2.8813  0.9232 -1.1856
  487MOL0     H64262  11.614   1.801   3.557  1.5837 -0.1973  0.9554
  487MOL0     H64263  11.650   1.974   3.528  2.9114 -1.2052 -1.5284
  487MOL0     H64264  11.411   1.917   3.559  0.4370 -1.5947  0.6160
  487MOL0     H64265  11.420   1.808   3.420  1.4648  0.3818 -0.3239
  487MOL0     H64266  11.858   1.753   2.678 -0.0350 -0.1172 -1.3684
  487MOL0     H64267  11.739   1.922   2.553 -0.0755  0.7872 -0.0756
  487MOL0     H64268  11.306   2.204   2.517 -3.4348  1.7141  0.1690
  487MOL0     H64269  11.091   2.283   2.455 -2.9922  0.1391 -1.9412
  487MOL0     H64270   9.529   2.178   1.944  0.1010 -0.0199 -2.6307
  487MOL0     H64271   9.340   2.239   1.795 -0.3558  2.5673  1.1254
  487MOL0     H64272   8.809   2.135   1.780  6.2021 -0.1622  1.7226
  487MOL0     H64273   8.610   2.214   1.685  1.0343 -0.4757  0.9585
  487MOL0     H64274   8.622   2.608   1.458 -1.3975  1.2475  1.1576
  487MOL0     H64275   8.469   2.583   1.435  2.9946  4.7592  3.1451
  487MOL0     H64276   8.576   2.587   1.216 -2.2292  0.7036  1.8815
  487MOL0     H64277   8.701   2.468   1.254  0.8412  2.9524 -0.9996
  487MOL0     H64278   8.412   2.379   1.263 -0.4282 -0.6758 -1.4315
  487MOL0     H64279   8.546   2.280   1.242 -3.9299 -0.7938  1.1650
  487MOL0     H64280   8.394   2.337   1.028 -0.4424 -3.5453  3.5009
  487MOL0     H64281   8.452   2.499   1.044  0.4436 -0.2023 -3.7025
  487MOL0     H64282   8.796   2.364   0.878  1.5599  0.2498  1.9343
  487MOL0     H64283   8.817   2.510   1.434 -1.4447  1.3988  1.2724
  487MOL0     H64284   9.018   2.444   1.554 -1.2842  1.4349 -1.0249
  488MOL0     O64285   6.731   5.193   0.150  0.0712 -0.7146  0.1649
  488MOL0     C64286   6.729   5.122   0.052  0.4474 -0.1061 -0.6643
  488MOL0     O64287   6.611   5.087  -0.022  0.8797  0.0455 -1.1573
  488MOL0     C64288   6.499   5.133   0.043 -0.2465 -1.2117 -0.8080
  488MOL0     C64289   6.460   5.069   0.161  0.5768 -0.2330  0.1875
  488MOL0     C64290   6.352   5.117   0.226  0.2392 -0.0535 -0.3349
  488MOL0     C64291   6.279   5.226   0.179 -0.0750  1.3361  0.0264
  488MOL0     O64292   6.162   5.247   0.251 -1.1627  0.7171  0.5620
  488MOL0     C64293   6.082   5.365   0.238 -0.5459  0.1703 -1.0185
  488MOL0     C64294   5.974   5.356   0.147  0.2702  0.4302 -0.2486
  488MOL0     C64295   5.892   5.239   0.170  0.1826 -0.3494  0.0528
  488MOL0     C64296   5.767   5.240   0.074  0.7836  0.6313  0.4364
  488MOL0     C64297   5.678   5.110   0.058 -1.1841  0.7402 -0.7083
  488MOL0     C64298   5.585   5.062   0.177 -0.6639 -0.3363 -1.0886
  488MOL0     C64299   5.501   5.180   0.244 -0.4078  0.1678 -0.4855
  488MOL0     C64300   5.352   5.188   0.199  0.3881  0.0980  0.1315
  488MOL0     N64301   5.246   5.168   0.301  0.0500 -0.7882 -0.3933
  488MOL0     C64302   5.197   5.048   0.351  0.0421  0.9140 -0.1634
  488MOL0     C64303   5.107   5.094   0.440  0.5788 -0.2136 -0.3894
  488MOL0     C64304   4.996   4.999   0.494 -0.0794  0.0419 -0.3252
  488MOL0     C64305   4.979   5.015   0.641  0.4456  0.2695 -0.4334
  488MOL0     C64306   4.921   5.152   0.683  0.0973  0.0904 -0.0097
  488MOL0     C64307   4.852   5.153   0.822  0.6713 -0.1591  0.6592
  488MOL0     O64308   4.836   5.287   0.866  0.3115  0.5530 -0.1855
  488MOL0     C64309   4.724   5.325   0.936 -0.3801  0.1339 -0.7922
  488MOL0     C64310   4.673   5.454   0.917 -0.0314  0.1843 -0.1408
  488MOL0     C64311   4.566   5.500   1.004 -0.6823 -0.6734  0.7088
  488MOL0     C64312   4.501   5.422   1.092 -0.2737  0.0468 -0.2979
  488MOL0     C64313   4.390   5.466   1.179 -0.6312 -0.8117  0.1458
  488MOL0     O64314   4.295   5.369   1.202 -0.7365 -0.5601 -0.1596
  488MOL0     C64315   4.167   5.395   1.253  0.0185  0.1650 -0.0256
  488MOL0     C64316   4.149   5.408   1.389  0.3945 -0.9210  0.1125
  488MOL0     C64317   4.023   5.407   1.445 -0.2367 -0.2622  0.6761
  488MOL0     C64318   3.914   5.425   1.354 -0.7515 -0.0076  0.1223
  488MOL0     O64319   3.791   5.451   1.407  0.3617  1.4255 -0.0929
  488MOL0     C64320   3.676   5.384   1.357  1.4164 -0.2826  0.3670
  488MOL0     C64321   3.587   5.362   1.477 -0.0741 -0.1269  0.0773
  488MOL0     C64322   3.574   5.482   1.568 -1.5531  1.4268 -0.0138
  488MOL0     C64323   3.495   5.605   1.520 -0.0547  0.4862  0.0933
  488MOL0     C64324   3.476   5.712   1.627 -0.0389 -0.6958 -0.8800
  488MOL0     C64325   3.374   5.825   1.587 -0.7289  0.3521  0.1829
  488MOL0     C64326   3.360   5.936   1.697  0.1944 -0.3741  0.0684
  488MOL0     C64327   3.272   6.054   1.658  1.0719  0.6617 -0.5400
  488MOL0    Cl64328   3.110   5.984   1.597 -0.2644  0.1115 -0.5072
  488MOL0     C64329   3.931   5.428   1.215  0.3071  0.3860  0.0325
  488MOL0     C64330   4.060   5.412   1.165  0.8831 -0.8148 -0.9292
  488MOL0     O64331   4.385   5.584   1.217 -0.4284 -0.3251  0.5403
  488MOL0     C64332   4.550   5.298   1.110 -1.0680  0.6858 -0.6123
  488MOL0     C64333   4.660   5.245   1.031  0.7165 -0.3643  0.5179
  488MOL0     N64334   5.095   5.234   0.429 -0.3831 -0.5675  0.3390
  488MOL0     N64335   5.178   5.280   0.353  0.1330 -0.6739 -0.5412
  488MOL0     C64336   6.314   5.286   0.062  0.0000  0.0202  0.7613
  488MOL0     C64337   6.424   5.241  -0.012 -0.5295 -0.4483  0.8106
  488MOL0     C64338   6.835   5.024   0.030 -0.2801 -0.4303 -0.2447
  488MOL0     C64339   6.824   4.918  -0.058 -0.0153  0.1157 -0.5770
  488MOL0     C64340   6.924   4.814  -0.059  0.3440 -0.0236  0.7780
  488MOL0     C64341   7.038   4.815   0.035  0.9867  1.0911  0.6228
  488MOL0     O64342   7.131   4.712   0.053 -0.0324 -0.5615  0.8593
  488MOL0     C64343   7.093   4.594  -0.022  0.8160  0.3127  0.4579
  488MOL0     C64344   7.189   4.483   0.013 -0.1702  0.4637 -0.9706
  488MOL0     C64345   7.209   4.374  -0.092 -0.5025  0.3594  0.1550
  488MOL0     C64346   7.086   4.289  -0.107  0.4405 -0.2757  0.4489
  488MOL0     C64347   6.958   4.360  -0.141  0.5678  0.1943  0.3502
  488MOL0     C64348   6.852   4.407  -0.181 -0.7755  0.4707 -0.1074
  488MOL0     C64349   7.043   4.926   0.116  0.4202  0.8395 -0.3912
  488MOL0     C64350   6.951   5.034   0.104 -0.7734  0.1478 -0.3440
  488MOL0     H64351   6.518   4.980   0.184  0.0779 -1.1060 -1.7782
  488MOL0     H64352   6.308   5.064   0.310  0.8228 -2.4951 -1.4612
  488MOL0     H64353   6.132   5.461   0.224  0.5577  0.1270  1.9753
  488MOL0     H64354   6.040   5.379   0.338 -0.8269  1.6978 -1.3210
  488MOL0     H64355   6.017   5.358   0.047  0.2036 -1.4304 -0.3356
  488MOL0     H64356   5.914   5.445   0.168 -2.1144 -1.2697  0.4542
  488MOL0     H64357   5.858   5.232   0.274 -1.0323 -1.6075 -0.4085
  488MOL0     H64358   5.962   5.157   0.151  1.8944  1.1321 -0.2674
  488MOL0     H64359   5.701   5.326   0.089  0.9638  0.6911  0.9287
  488MOL0     H64360   5.793   5.261  -0.030 -1.7039  1.7522 -0.0084
  488MOL0     H64361   5.751   5.033   0.034 -1.0098  1.1251 -1.4442
  488MOL0     H64362   5.615   5.117  -0.031 -2.0159  2.1352 -0.0478
  488MOL0     H64363   5.645   5.020   0.258  0.6180  0.4182 -1.6301
  488MOL0     H64364   5.515   4.984   0.143 -0.1260 -0.0862 -2.8205
  488MOL0     H64365   5.500   5.166   0.352 -0.1292  1.3096 -0.3217
  488MOL0     H64366   5.551   5.275   0.223  2.9378 -0.6869  2.5435
  488MOL0     H64367   5.331   5.119   0.117  2.9527 -1.3649  0.5679
  488MOL0     H64368   5.328   5.283   0.152  2.4885  1.1680  1.0814
  488MOL0     H64369   5.240   4.950   0.334  0.7338  1.3151 -0.7913
  488MOL0     H64370   5.027   4.895   0.476 -0.3715 -0.2107  0.5881
  488MOL0     H64371   4.905   5.028   0.440 -2.4672  3.3973  4.7115
  488MOL0     H64372   5.071   4.987   0.692 -0.0617 -0.0733  0.3197
  488MOL0     H64373   4.906   4.942   0.677  1.2400  0.7373  2.3515
  488MOL0     H64374   5.008   5.218   0.687  1.0130 -1.1210  2.4522
  488MOL0     H64375   4.852   5.188   0.606  0.5009  0.3242 -0.2628
  488MOL0     H64376   4.915   5.117   0.905  2.4251  0.0992 -0.5058
  488MOL0     H64377   4.761   5.093   0.817  1.7358 -1.7585 -0.7551
  488MOL0     H64378   4.705   5.520   0.837 -0.4403 -0.6276 -0.9908
  488MOL0     H64379   4.530   5.602   0.996  2.9737  0.6527 -0.8803
  488MOL0     H64380   4.224   5.403   1.467 -0.9718 -1.2385  1.4699
  488MOL0     H64381   4.011   5.406   1.553 -1.9988 -0.6968  0.5127
  488MOL0     H64382   3.699   5.290   1.306  0.6733  0.8751 -2.2445
  488MOL0     H64383   3.622   5.446   1.285 -1.0075 -1.2115  1.2761
  488MOL0     H64384   3.626   5.277   1.534  1.3258  1.4382  1.5827
  488MOL0     H64385   3.484   5.337   1.449 -0.3172  2.1340 -1.2867
  488MOL0     H64386   3.674   5.513   1.600 -0.6930  1.7538 -2.7117
  488MOL0     H64387   3.524   5.441   1.656 -2.3243 -1.6283 -1.7062
  488MOL0     H64388   3.552   5.654   1.441  0.0806 -1.9129 -1.3883
  488MOL0     H64389   3.401   5.565   1.481  1.3631  0.3888 -3.6557
  488MOL0     H64390   3.562   5.756   1.677 -0.1694  0.2689 -1.4804
  488MOL0     H64391   3.427   5.658   1.708 -0.0408  0.5168 -0.0523
  488MOL0     H64392   3.279   5.780   1.557 -0.0611 -0.0545 -1.4266
  488MOL0     H64393   3.421   5.865   1.497 -2.0167  0.0914 -0.6443
  488MOL0     H64394   3.330   5.889   1.791  0.2675  0.8223  0.7091
  488MOL0     H64395   3.463   5.964   1.721  0.7868 -2.6939  0.4849
  488MOL0     H64396   3.317   6.118   1.582  4.4224  0.1535  0.8073
  488MOL0     H64397   3.254   6.099   1.756 -1.4841 -2.8469  0.8048
  488MOL0     H64398   3.844   5.441   1.152  2.4963  1.4573 -2.9654
  488MOL0     H64399   4.064   5.400   1.057 -4.1487 -0.8800 -1.3495
  488MOL0     H64400   4.508   5.237   1.190 -1.9385  1.7618 -0.2123
  488MOL0     H64401   4.686   5.141   1.043  3.3367  0.4179  2.5172
  488MOL0     H64402   6.268   5.372   0.015  1.0949 -0.9688 -2.4240
  488MOL0     H64403   6.450   5.281  -0.109 -1.0438  0.1780  0.9235
  488MOL0     H64404   6.732   4.908  -0.115 -1.6337  1.9337  1.5199
  488MOL0     H64405   6.915   4.730  -0.128 -0.9777 -0.2685  1.2159
  488MOL0     H64406   7.096   4.618  -0.128  2.5515 -1.6986 -0.0237
  488MOL0     H64407   6.995   4.567   0.018  1.6237 -2.7308  0.6299
  488MOL0     H64408   7.282   4.519   0.058 -1.1784 -2.3423  4.2008
  488MOL0     H64409   7.151   4.446   0.109  1.1902  1.4642  0.0030
  488MOL0     H64410   7.287   4.310  -0.050  0.0773  2.9129  3.4325
  488MOL0     H64411   7.251   4.413  -0.185  0.6368  0.3264  0.6365
  488MOL0     H64412   7.101   4.201  -0.170  1.2767 -0.0705  0.3580
  488MOL0     H64413   7.067   4.252  -0.006 -0.0290 -0.5132  0.2802
  488MOL0     H64414   6.774   4.446  -0.243  0.1716  0.9382 -1.0336
  488MOL0     H64415   7.128   4.921   0.184  0.0399  1.3796  0.1360
  488MOL0     H64416   6.962   5.124   0.164  0.8539 -0.8954  1.0123
  489MOL0     O64417   9.690  11.373  10.852 -0.5746 -0.0805 -0.1243
  489MOL0     C64418   9.694  11.468  10.932 -0.1227 -0.2745  0.9519
  489MOL0     O64419   9.779  11.572  10.933 -0.5475  0.0941  0.8201
  489MOL0     C64420   9.861  11.589  10.828  0.3644 -0.0342  0.4627
  489MOL0     C64421   9.994  11.595  10.860  0.5449  1.2521  0.4655
  489MOL0     C64422  10.091  11.589  10.760  0.2855  0.5668  0.0319
  489MOL0     C64423  10.062  11.599  10.625  1.3037  0.1684  0.4829
  489MOL0     O64424  10.162  11.622  10.540  0.3691 -0.1348 -0.6108
  489MOL0     C64425  10.138  11.614  10.400  0.0517 -0.6140 -0.0836
  489MOL0     C64426  10.274  11.636  10.326 -0.6399 -0.0069  0.4766
  489MOL0     C64427  10.266  11.651  10.167 -0.6312  0.4027 -0.2521
  489MOL0     C64428  10.180  11.530  10.115 -0.0597  0.0389  0.1994
  489MOL0     C64429  10.202  11.526   9.961  0.7729  0.5200  0.1413
  489MOL0     C64430  10.130  11.642   9.894 -0.0930 -0.2185  0.3872
  489MOL0     C64431  10.121  11.627   9.743  1.0383 -0.0953 -0.4548
  489MOL0     C64432   9.997  11.534   9.715  0.3210  0.6276  0.5817
  489MOL0     N64433   9.880  11.597   9.655 -0.9140  0.5526  0.0002
  489MOL0     C64434   9.883  11.716   9.575  0.2000  0.5776 -0.4450
  489MOL0     C64435   9.764  11.723   9.500  0.1008  0.5309  0.9603
  489MOL0     C64436   9.724  11.828   9.400 -0.0107  1.0009  0.1785
  489MOL0     C64437   9.737  11.973   9.450 -0.2690 -0.0111 -1.3144
  489MOL0     C64438   9.707  12.076   9.340 -0.0493 -1.3881  0.4720
  489MOL0     C64439   9.570  12.062   9.264  0.0628  0.4494 -0.8989
  489MOL0     O64440   9.509  12.185   9.228 -0.1184 -0.2126 -0.3616
  489MOL0     C64441   9.566  12.280   9.145 -0.8075  0.3610 -1.3454
  489MOL0     C64442   9.644  12.250   9.038 -1.0642 -0.1351 -0.5197
  489MOL0     C64443   9.705  12.348   8.958  0.8400 -0.4300 -0.8417
  489MOL0     C64444   9.696  12.486   8.985  0.0452 -0.2122  0.3457
  489MOL0     C64445   9.759  12.590   8.911  0.1445 -0.8599 -0.5745
  489MOL0     O64446   9.793  12.710   8.974 -0.1207  0.1151 -0.0258
  489MOL0     C64447   9.873  12.801   8.901  1.2559 -0.2408 -0.0735
  489MOL0     C64448  10.009  12.811   8.918 -0.2450 -0.0576 -0.3946
  489MOL0     C64449  10.078  12.905   8.835  0.4575 -0.1940 -0.0978
  489MOL0     C64450  10.012  12.985   8.740 -0.5499  0.1025  1.0983
  489MOL0     O64451  10.086  13.057   8.650  0.3638 -0.3995 -0.3784
  489MOL0     C64452  10.032  13.140   8.540  0.4145 -0.2385 -0.2899
  489MOL0     C64453  10.136  13.249   8.513 -1.2352  0.4928  0.3207
  489MOL0     C64454  10.271  13.206   8.455  0.0360  1.0571 -0.7658
  489MOL0     C64455  10.337  13.322   8.391  0.4119  0.3367 -0.2353
  489MOL0     C64456  10.494  13.310   8.384 -0.1163 -0.1046  0.1391
  489MOL0     C64457  10.565  13.405   8.293 -0.7790 -0.3309 -0.1761
  489MOL0     C64458  10.722  13.390   8.270 -0.2065  0.6303  0.2008
  489MOL0     C64459  10.779  13.497   8.165  0.3176 -0.2917  0.6006
  489MOL0    Cl64460  10.743  13.448   8.000  0.0207  0.0694 -0.2903
  489MOL0     C64461   9.870  12.971   8.731  0.5435 -0.0283 -0.1676
  489MOL0     C64462   9.804  12.888   8.820 -0.2075  0.1207 -0.1937
  489MOL0     O64463   9.786  12.558   8.798 -0.1455 -0.3546  0.6771
  489MOL0     C64464   9.603  12.522   9.084  0.5196 -0.4376  0.3088
  489MOL0     C64465   9.534  12.417   9.160  0.1726 -0.7571 -0.5617
  489MOL0     N64466   9.685  11.611   9.535  0.3351 -0.3226 -0.2597
  489MOL0     N64467   9.757  11.542   9.631 -0.2002 -0.1993  0.2062
  489MOL0     C64468   9.919  11.595  10.593  0.1657  0.9164 -0.3181
  489MOL0     C64469   9.816  11.580  10.692  0.6904 -0.5918 -0.3785
  489MOL0     C64470   9.592  11.459  11.045 -0.6770 -0.5035  0.4053
  489MOL0     C64471   9.598  11.552  11.157 -0.0724  0.3862 -0.2363
  489MOL0     C64472   9.518  11.524  11.271 -1.0011  0.3177  0.6500
  489MOL0     C64473   9.434  11.417  11.274 -0.2336 -0.0780  0.5773
  489MOL0     O64474   9.372  11.411  11.398  0.0182 -0.0302  0.2456
  489MOL0     C64475   9.285  11.300  11.421  0.4683  0.5707 -0.0236
  489MOL0     C64476   9.140  11.346  11.428  0.5537  0.0151 -0.2240
  489MOL0     C64477   9.089  11.400  11.287  0.6156  0.4473  0.8188
  489MOL0     C64478   8.965  11.484  11.304  1.6195 -0.0000  0.2773
  489MOL0     C64479   8.851  11.397  11.335  1.1470 -0.4259  0.0203
  489MOL0     C64480   8.772  11.307  11.360  0.2886 -0.3393  0.7007
  489MOL0     C64481   9.419  11.333  11.163 -1.0767  0.9048  0.4465
  489MOL0     C64482   9.499  11.355  11.047 -0.6233 -0.0264 -0.4004
  489MOL0     H64483  10.009  11.601  10.967  1.5991  0.2442  0.3915
  489MOL0     H64484  10.194  11.581  10.793 -0.1914 -3.9602  1.0048
  489MOL0     H64485  10.077  11.698  10.365  1.0214 -0.1956 -0.8299
  489MOL0     H64486  10.091  11.519  10.373  0.8316 -0.6466 -1.4416
  489MOL0     H64487  10.352  11.562  10.344  1.1218  1.5663 -0.3663
  489MOL0     H64488  10.311  11.730  10.369 -1.2819  0.5911 -0.2546
  489MOL0     H64489  10.362  11.650  10.114 -1.8956 -2.1632 -2.7523
  489MOL0     H64490  10.219  11.747  10.144 -2.2112  0.0870  1.3910
  489MOL0     H64491  10.201  11.434  10.164  1.8981  1.3619  2.1716
  489MOL0     H64492  10.078  11.557  10.143 -0.6648 -0.7095 -1.2255
  489MOL0     H64493  10.158  11.428   9.939  0.8736  0.4216  0.3780
  489MOL0     H64494  10.309  11.540   9.945  0.8334  6.0131  2.9255
  489MOL0     H64495  10.178  11.738   9.916 -0.8358  0.4751 -0.8915
  489MOL0     H64496  10.033  11.654   9.944  1.6893  0.0995  4.1065
  489MOL0     H64497  10.113  11.724   9.693  4.1314 -0.3234 -1.6194
  489MOL0     H64498  10.212  11.591   9.695  1.0332  1.9402 -2.1663
  489MOL0     H64499   9.971  11.477   9.805 -0.4529  0.9651  0.5762
  489MOL0     H64500  10.038  11.451   9.656  1.1292 -0.1451  2.1533
  489MOL0     H64501   9.961  11.791   9.576  0.3921  0.4163 -1.5787
  489MOL0     H64502   9.625  11.795   9.368 -0.0367 -3.2379  3.6896
  489MOL0     H64503   9.788  11.832   9.312  2.8999  0.5280  2.1162
  489MOL0     H64504   9.826  11.997   9.509 -2.1305  3.3682  0.4369
  489MOL0     H64505   9.655  11.980   9.522 -0.5404  1.1687 -1.7192
  489MOL0     H64506   9.708  12.174   9.389 -2.1163  0.0796 -2.1395
  489MOL0     H64507   9.788  12.080   9.268  0.5735  0.1498  1.2070
  489MOL0     H64508   9.501  12.013   9.335 -0.0125  1.8109  0.0145
  489MOL0     H64509   9.579  12.002   9.174  2.5112 -2.0853  0.8636
  489MOL0     H64510   9.665  12.148   9.009 -0.7490 -0.0804 -0.4803
  489MOL0     H64511   9.767  12.304   8.881  1.7914 -0.1164 -0.2729
  489MOL0     H64512  10.058  12.740   8.984 -0.2066  0.1500 -0.1991
  489MOL0     H64513  10.186  12.906   8.842  0.4910 -0.2139 -0.6015
  489MOL0     H64514   9.938  13.192   8.555  0.3826 -0.3707 -0.0306
  489MOL0     H64515  10.030  13.075   8.452  0.1493 -0.0503 -0.4229
  489MOL0     H64516  10.160  13.297   8.608  0.4834 -1.9752  1.2612
  489MOL0     H64517  10.086  13.313   8.440  4.0099 -0.5694 -5.0093
  489MOL0     H64518  10.259  13.116   8.393  0.8503  0.6691 -0.3760
  489MOL0     H64519  10.342  13.186   8.535 -1.0503  0.9952  0.2054
  489MOL0     H64520  10.309  13.325   8.286  2.4198 -0.8974 -0.8735
  489MOL0     H64521  10.307  13.421   8.427 -1.1078  0.5821 -2.0796
  489MOL0     H64522  10.499  13.204   8.358 -2.3565 -0.0147 -0.9519
  489MOL0     H64523  10.534  13.320   8.485  3.2465  2.1319 -1.2353
  489MOL0     H64524  10.555  13.507   8.331 -0.9247 -0.2197 -0.5145
  489MOL0     H64525  10.523  13.410   8.193  0.8788  2.7370 -0.8667
  489MOL0     H64526  10.775  13.404   8.365  1.6605 -1.3549 -0.4801
  489MOL0     H64527  10.756  13.296   8.226 -0.6921  0.7432 -0.4254
  489MOL0     H64528  10.887  13.513   8.170  0.4493 -1.5000  2.6236
  489MOL0     H64529  10.748  13.602   8.175 -0.3416 -0.5898  1.8942
  489MOL0     H64530   9.816  13.037   8.664 -2.0446 -0.6211  1.2005
  489MOL0     H64531   9.695  12.889   8.818 -0.2174  2.1762 -0.7443
  489MOL0     H64532   9.566  12.622   9.101  0.2456 -0.5693  0.5045
  489MOL0     H64533   9.457  12.437   9.234  0.2616 -1.6844 -0.2095
  489MOL0     H64534   9.884  11.583  10.490 -0.2874  0.8074 -0.1577
  489MOL0     H64535   9.711  11.565  10.673  0.5003 -0.2461  0.3714
  489MOL0     H64536   9.664  11.637  11.175 -1.2455  0.8794  2.1443
  489MOL0     H64537   9.533  11.575  11.366 -0.0327 -1.0285  1.2350
  489MOL0     H64538   9.319  11.254  11.515  0.6973 -3.9058 -2.0519
  489MOL0     H64539   9.298  11.221  11.347 -0.2951  1.2536 -0.9115
  489MOL0     H64540   9.081  11.257  11.452  1.7123 -1.5261 -2.6737
  489MOL0     H64541   9.132  11.415  11.512  0.1593  1.0039 -1.0543
  489MOL0     H64542   9.068  11.315  11.222  0.5484  0.3406  0.9783
  489MOL0     H64543   9.167  11.461  11.241  1.4145 -2.2585 -1.7378
  489MOL0     H64544   8.966  11.550  11.391 -1.4030  3.4272 -1.9641
  489MOL0     H64545   8.941  11.539  11.212 -1.0091 -0.7366  0.4437
  489MOL0     H64546   8.699  11.232  11.379  0.6262 -0.6166  0.9285
  489MOL0     H64547   9.357  11.247  11.140 -0.0899  0.2761  0.0443
  489MOL0     H64548   9.492  11.288  10.961  1.0893 -0.1524 -0.4871
  490MOL0     O64549   9.459   6.473   5.511 -0.0815 -1.0467  0.1574
  490MOL0     C64550   9.387   6.530   5.437  0.2759 -0.1664  1.0777
  490MOL0     O64551   9.270   6.591   5.457 -0.4020 -0.8937 -0.1975
  490MOL0     C64552   9.254   6.661   5.573  0.8310 -0.6524  0.5789
  490MOL0     C64553   9.127   6.708   5.606 -0.2452  0.5891 -0.4541
  490MOL0     C64554   9.106   6.775   5.719 -0.4708 -0.0501 -0.2936
  490MOL0     C64555   9.214   6.810   5.805  1.0411  0.9391 -0.2732
  490MOL0     O64556   9.203   6.881   5.921 -0.2197  0.3191 -0.7791
  490MOL0     C64557   9.075   6.932   5.969 -0.3352  0.0978 -0.4614
  490MOL0     C64558   9.028   7.063   5.916  0.4272  0.2614  0.5618
  490MOL0     C64559   9.147   7.165   5.904 -0.2188 -0.5965  0.2304
  490MOL0     C64560   9.118   7.295   5.839  0.0515 -0.0070 -0.5387
  490MOL0     C64561   9.239   7.374   5.787 -0.1926  0.5633  0.1052
  490MOL0     C64562   9.345   7.434   5.889 -1.0273  0.4042 -0.3133
  490MOL0     C64563   9.466   7.512   5.829 -0.9670  0.1664 -0.0340
  490MOL0     C64564   9.552   7.578   5.936  0.1106 -0.0198  0.5403
  490MOL0     N64565   9.626   7.490   6.028  0.5565  0.1461  0.3204
  490MOL0     C64566   9.765   7.481   6.026  1.4179  0.5078  0.0565
  490MOL0     C64567   9.799   7.397   6.127 -0.3810  0.4551 -0.3167
  490MOL0     C64568   9.937   7.347   6.157 -0.1806  0.5778 -0.3093
  490MOL0     C64569   9.995   7.444   6.249  0.7200 -0.0265 -1.2589
  490MOL0     C64570  10.141   7.425   6.262  0.2499 -0.1518  0.0786
  490MOL0     C64571  10.177   7.290   6.327  0.3353  0.3987 -1.7322
  490MOL0     O64572  10.111   7.296   6.461  0.4993  0.1888 -0.2032
  490MOL0     C64573  10.177   7.238   6.569 -0.4474  1.0242 -0.4386
  490MOL0     C64574  10.277   7.133   6.561  0.1643 -0.2018  0.0448
  490MOL0     C64575  10.331   7.077   6.678 -0.3369  0.4926 -0.9125
  490MOL0     C64576  10.297   7.135   6.806 -0.1305 -0.4297  1.3730
  490MOL0     C64577  10.371   7.101   6.924  0.8669  1.0838  0.9432
  490MOL0     O64578  10.315   7.148   7.047 -1.0078 -0.1177  0.0653
  490MOL0     C64579  10.384   7.149   7.165 -0.0502 -0.3393  0.2554
  490MOL0     C64580  10.306   7.098   7.278 -0.0433  0.0667 -0.0674
  490MOL0     C64581  10.359   7.091   7.402  0.0109 -0.1344 -0.0246
  490MOL0     C64582  10.499   7.120   7.425 -0.2304 -0.1304 -1.0208
  490MOL0     O64583  10.551   7.105   7.549 -0.2089 -0.1258 -1.1619
  490MOL0     C64584  10.677   7.176   7.582 -0.4021 -0.6027  1.3992
  490MOL0     C64585  10.718   7.162   7.727 -0.5420  0.7155  1.5447
  490MOL0     C64586  10.626   7.252   7.819 -0.2382  0.1910  0.6976
  490MOL0     C64587  10.709   7.287   7.937 -1.2251 -0.3323  0.2567
  490MOL0     C64588  10.628   7.344   8.047 -0.1442 -0.3202  0.0352
  490MOL0     C64589  10.720   7.398   8.162  0.4831  0.2564 -0.5169
  490MOL0     C64590  10.649   7.431   8.293  0.2087  0.0087 -0.6494
  490MOL0     C64591  10.751   7.503   8.391 -0.6845 -0.1903  0.1276
  490MOL0    Cl64592  10.667   7.576   8.534  0.6886  0.3136 -0.6138
  490MOL0     C64593  10.575   7.156   7.315  0.2061 -0.3715  0.9617
  490MOL0     C64594  10.513   7.173   7.189  0.2212  0.7302 -0.6965
  490MOL0     O64595  10.480   7.046   6.907 -0.3383  0.7068  0.0297
  490MOL0     C64596  10.199   7.236   6.810  0.6026  0.7263 -1.1703
  490MOL0     C64597  10.140   7.282   6.691 -0.7424  0.0111 -0.0469
  490MOL0     N64598   9.675   7.353   6.175 -0.2304  0.5987  0.9988
  490MOL0     N64599   9.577   7.407   6.116 -0.2560 -0.2213  0.6999
  490MOL0     C64600   9.339   6.772   5.767  0.0160  0.2803 -0.6936
  490MOL0     C64601   9.363   6.708   5.648 -1.2682  0.3366  1.6628
  490MOL0     C64602   9.435   6.537   5.295  0.3893 -0.1451 -0.2013
  490MOL0     C64603   9.345   6.525   5.189 -1.0679  0.2390  0.4446
  490MOL0     C64604   9.399   6.528   5.056  0.7517  0.5416  0.0455
  490MOL0     C64605   9.534   6.536   5.028  0.1352  0.1184 -0.8720
  490MOL0     O64606   9.576   6.544   4.905 -0.2165 -0.1212  0.4857
  490MOL0     C64607   9.704   6.604   4.872  0.3189 -0.0049  0.1857
  490MOL0     C64608   9.696   6.643   4.720  0.0869 -0.1441  0.4260
  490MOL0     C64609   9.624   6.534   4.636  0.2730 -0.0030 -0.4042
  490MOL0     C64610   9.699   6.411   4.615 -0.7513 -0.5693  0.0397
  490MOL0     C64611   9.801   6.413   4.515  0.4860 -0.3230  0.2827
  490MOL0     C64612   9.878   6.420   4.427 -0.2382  0.0550  0.9115
  490MOL0     C64613   9.623   6.546   5.144  0.6312 -0.1171 -0.6691
  490MOL0     C64614   9.573   6.556   5.269  0.1437 -0.0977  0.0598
  490MOL0     H64615   9.045   6.670   5.545  0.0152 -2.1227  0.7698
  490MOL0     H64616   9.001   6.790   5.744 -1.5851 -4.4218 -1.6204
  490MOL0     H64617   9.083   6.927   6.078  2.8420  4.5575 -0.2105
  490MOL0     H64618   8.999   6.857   5.947 -1.7436  1.2897  0.1206
  490MOL0     H64619   8.946   7.106   5.973 -2.2036  0.6522 -3.1304
  490MOL0     H64620   8.972   7.039   5.825 -1.4914  0.5942  1.5885
  490MOL0     H64621   9.227   7.119   5.846 -1.7990 -1.4161 -1.3868
  490MOL0     H64622   9.193   7.190   6.000 -1.1645  2.6865 -0.0483
  490MOL0     H64623   9.051   7.273   5.755 -1.5984  0.3689  0.6323
  490MOL0     H64624   9.062   7.364   5.902 -1.3564 -0.4954 -1.2097
  490MOL0     H64625   9.203   7.457   5.725  2.8163  1.6737 -0.3237
  490MOL0     H64626   9.294   7.309   5.718  0.2224  3.1620 -2.1732
  490MOL0     H64627   9.383   7.344   5.939 -2.4321  0.0761  0.2063
  490MOL0     H64628   9.292   7.494   5.963 -1.7177 -1.3195  0.6403
  490MOL0     H64629   9.522   7.446   5.762 -1.0253 -2.3062  2.2302
  490MOL0     H64630   9.436   7.598   5.767  1.3020  0.1067 -1.3228
  490MOL0     H64631   9.484   7.641   5.995 -1.5057 -2.3205  1.3008
  490MOL0     H64632   9.628   7.637   5.885  2.6815 -2.4169  1.3583
  490MOL0     H64633   9.823   7.519   5.942 -2.3561  1.1290 -2.5096
  490MOL0     H64634   9.979   7.343   6.057 -0.3484  0.0595 -0.3645
  490MOL0     H64635   9.938   7.246   6.199 -2.6447  1.1430  1.3305
  490MOL0     H64636   9.943   7.436   6.345  2.5720  0.6048 -0.1449
  490MOL0     H64637   9.974   7.542   6.205  0.0513 -0.2451 -1.4420
  490MOL0     H64638  10.192   7.442   6.167  0.6938 -0.3263  0.2847
  490MOL0     H64639  10.178   7.504   6.328 -0.4377  0.8061 -0.6586
  490MOL0     H64640  10.285   7.281   6.341  0.1611  0.5761  0.0230
  490MOL0     H64641  10.149   7.208   6.261  1.9893  0.0138 -1.9931
  490MOL0     H64642  10.314   7.092   6.468 -0.9599 -0.2025 -0.4139
  490MOL0     H64643  10.396   6.991   6.675 -1.1963 -0.1480 -1.6581
  490MOL0     H64644  10.205   7.064   7.258  0.7156 -0.3944 -3.6591
  490MOL0     H64645  10.298   7.066   7.488  0.4632  0.7591  0.5736
  490MOL0     H64646  10.671   7.283   7.559  1.5242 -0.7082  0.1349
  490MOL0     H64647  10.750   7.123   7.519 -2.4436 -0.4608 -1.2248
  490MOL0     H64648  10.820   7.200   7.737 -1.0997  2.8655 -0.0571
  490MOL0     H64649  10.725   7.058   7.761  1.0234 -0.0103 -0.7528
  490MOL0     H64650  10.532   7.202   7.844  0.0532 -0.1688  1.1006
  490MOL0     H64651  10.601   7.341   7.760  0.8749 -0.0340 -0.1564
  490MOL0     H64652  10.770   7.206   7.978 -1.4636 -0.0956  1.1133
  490MOL0     H64653  10.783   7.358   7.900 -0.9459  0.0928  1.5606
  490MOL0     H64654  10.568   7.270   8.101  1.3548 -1.4782  0.1781
  490MOL0     H64655  10.561   7.418   8.003  0.5312  1.4121  1.7684
  490MOL0     H64656  10.780   7.481   8.123  0.1436  0.2975 -0.9734
  490MOL0     H64657  10.786   7.316   8.192 -1.3360 -0.8951  0.5674
  490MOL0     H64658  10.582   7.510   8.255 -0.6053 -0.6657 -0.6531
  490MOL0     H64659  10.599   7.350   8.346 -2.5512  2.3594  0.6582
  490MOL0     H64660  10.808   7.575   8.331 -3.9061  0.8741 -1.8738
  490MOL0     H64661  10.818   7.428   8.434  0.9032  0.4192 -1.1429
  490MOL0     H64662  10.682   7.174   7.319  0.5638 -2.1881  0.2423
  490MOL0     H64663  10.577   7.201   7.105  3.0442 -0.4288  0.9197
  490MOL0     H64664  10.172   7.275   6.907  3.4163 -1.9772  0.8773
  490MOL0     H64665  10.058   7.349   6.713 -0.4137 -0.0316  1.4037
  490MOL0     H64666   9.422   6.820   5.819 -0.9448  1.4635 -0.2106
  490MOL0     H64667   9.465   6.685   5.620 -0.6283  2.6694  1.9408
  490MOL0     H64668   9.241   6.509   5.215 -0.3310 -0.9083  3.0770
  490MOL0     H64669   9.338   6.512   4.967 -0.2677  0.6273  0.7153
  490MOL0     H64670   9.784   6.536   4.902  1.2997  0.6322 -0.8644
  490MOL0     H64671   9.719   6.693   4.935 -3.2477 -0.3186  1.6980
  490MOL0     H64672   9.639   6.734   4.698 -2.5596 -2.0291 -1.1307
  490MOL0     H64673   9.798   6.659   4.683 -0.0792  0.9637  0.3931
  490MOL0     H64674   9.599   6.578   4.539  0.2851  1.7193  0.3379
  490MOL0     H64675   9.536   6.494   4.687  0.6701 -1.3072 -0.7144
  490MOL0     H64676   9.734   6.372   4.711 -2.0873 -2.3553 -0.1355
  490MOL0     H64677   9.629   6.337   4.575 -0.6280 -2.9536  3.7333
  490MOL0     H64678   9.956   6.441   4.358  0.4056  0.9632  1.8907
  490MOL0     H64679   9.729   6.548   5.121  0.5040  0.6045 -1.2454
  490MOL0     H64680   9.641   6.562   5.352  0.8939  1.5398 -0.6254
  491MOL0     O64681   2.931  10.634   0.062 -0.2332  0.5502  0.0511
  491MOL0     C64682   2.897  10.715  -0.027  0.4924  0.2254  0.0625
  491MOL0     O64683   2.958  10.835  -0.049  0.5027  0.1508 -0.7468
  491MOL0     C64684   3.085  10.856  -0.017 -0.8683 -0.3963 -0.7239
  491MOL0     C64685   3.129  10.987   0.007  0.3918  0.1752  0.0399
  491MOL0     C64686   3.260  11.010   0.068 -1.0505 -0.3694  0.4916
  491MOL0     C64687   3.348  10.903   0.092 -0.0815  0.5957 -0.0787
  491MOL0     O64688   3.469  10.929   0.150  0.4355  0.2799  0.1352
  491MOL0     C64689   3.551  10.822   0.188 -0.4424 -0.2634  0.1402
  491MOL0     C64690   3.656  10.856   0.291  0.2793  1.3338 -0.3496
  491MOL0     C64691   3.742  10.736   0.337 -0.2891 -0.1444 -0.3871
  491MOL0     C64692   3.816  10.788   0.454  0.1400  0.8296  0.1851
  491MOL0     C64693   3.906  10.686   0.525 -0.1699  0.3237  1.0394
  491MOL0     C64694   3.861  10.546   0.511 -0.1934  0.7683  0.2362
  491MOL0     C64695   3.966  10.449   0.561 -0.4796  0.1366  0.1426
  491MOL0     C64696   4.045  10.365   0.457 -0.7391  0.6164  0.0999
  491MOL0     N64697   4.167  10.307   0.513 -1.0348 -0.8008 -0.6925
  491MOL0     C64698   4.171  10.224   0.626  0.0317 -0.2756  0.6593
  491MOL0     C64699   4.299  10.204   0.657  0.1930 -0.4031  0.0302
  491MOL0     C64700   4.339  10.128   0.780 -0.3717  0.1875  0.9884
  491MOL0     C64701   4.355  10.213   0.907 -0.0399  0.6326 -0.4147
  491MOL0     C64702   4.244  10.301   0.954  0.2246 -0.2665 -0.7574
  491MOL0     C64703   4.207  10.274   1.102  0.1651 -0.2907  0.5213
  491MOL0     O64704   4.107  10.365   1.151  0.1173  0.0668 -0.4924
  491MOL0     C64705   4.002  10.408   1.080  0.0144 -0.5722 -0.4558
  491MOL0     C64706   3.934  10.309   1.013  0.1798  0.9651 -0.1599
  491MOL0     C64707   3.812  10.339   0.954 -0.8700  0.4885  1.1941
  491MOL0     C64708   3.768  10.473   0.934  1.2984  0.0917  0.3528
  491MOL0     C64709   3.640  10.505   0.863  0.2783  0.0691 -0.0685
  491MOL0     O64710   3.626  10.638   0.818  1.2032 -0.7616  1.0531
  491MOL0     C64711   3.526  10.670   0.719  0.4327  0.4165 -0.2234
  491MOL0     C64712   3.460  10.795   0.735  0.3923  0.7189  0.2158
  491MOL0     C64713   3.371  10.831   0.633 -0.3706  0.7948 -0.8250
  491MOL0     C64714   3.343  10.739   0.533  0.3087  0.0406  0.2398
  491MOL0     O64715   3.255  10.780   0.434 -0.4293 -0.7079 -0.8029
  491MOL0     C64716   3.116  10.754   0.451  0.8409 -0.3459 -1.1963
  491MOL0     C64717   3.031  10.834   0.358  0.1679  0.1966  0.0167
  491MOL0     C64718   2.879  10.822   0.370 -0.0144 -0.4371 -0.6140
  491MOL0     C64719   2.814  10.942   0.299 -0.8817  0.1400 -1.2171
  491MOL0     C64720   2.669  10.897   0.271  0.0461  0.1618 -0.1632
  491MOL0     C64721   2.595  10.998   0.201  0.4937 -0.8767  0.1816
  491MOL0     C64722   2.453  10.951   0.189  0.4452 -0.4357 -0.0818
  491MOL0     C64723   2.360  11.052   0.113 -0.5576  0.4290  0.5215
  491MOL0    Cl64724   2.373  11.203   0.195  0.3989  0.8149 -0.1629
  491MOL0     C64725   3.405  10.624   0.519 -0.1157  0.1201 -0.5252
  491MOL0     C64726   3.503  10.590   0.606 -0.0382  0.4481 -0.2044
  491MOL0     O64727   3.550  10.421   0.860  0.3830 -0.4329  0.0569
  491MOL0     C64728   3.833  10.576   1.013 -0.0059  0.9538 -0.2079
  491MOL0     C64729   3.946  10.542   1.081 -0.2460  0.3253 -0.0002
  491MOL0     N64730   4.373  10.262   0.548  0.3046  0.7034 -0.0651
  491MOL0     N64731   4.291  10.333   0.476  0.0273  0.2119 -0.8794
  491MOL0     C64732   3.311  10.782   0.043  0.5190 -0.1217 -0.6910
  491MOL0     C64733   3.183  10.759  -0.009  0.6270  0.2249 -0.1078
  491MOL0     C64734   2.774  10.692  -0.108 -0.7758 -0.7896  0.5538
  491MOL0     C64735   2.693  10.587  -0.078  0.3580  0.5876  0.3899
  491MOL0     C64736   2.559  10.571  -0.140 -0.2197 -0.4614  0.3958
  491MOL0     C64737   2.515  10.672  -0.224  1.0072  0.5646 -0.2103
  491MOL0     O64738   2.404  10.660  -0.299  0.9692  0.3195 -0.5546
  491MOL0     C64739   2.313  10.767  -0.279 -0.2492 -0.2571  0.0786
  491MOL0     C64740   2.170  10.715  -0.314  0.7770 -0.0481 -0.3511
  491MOL0     C64741   2.158  10.688  -0.466 -0.3635 -0.1392  0.6468
  491MOL0     C64742   2.024  10.657  -0.503  0.5223  0.7463  0.5786
  491MOL0     C64743   1.925  10.758  -0.477 -0.8203 -0.8640  0.6408
  491MOL0     C64744   1.845  10.844  -0.450 -0.1130 -0.1804 -0.2613
  491MOL0     C64745   2.596  10.777  -0.250  0.7201  0.1697 -0.7541
  491MOL0     C64746   2.726  10.794  -0.199  0.0144  0.3886 -0.4275
  491MOL0     H64747   3.058  11.068  -0.010 -0.1611 -0.3220 -0.0855
  491MOL0     H64748   3.283  11.105   0.115  0.3024 -0.7841  0.6977
  491MOL0     H64749   3.614  10.775   0.112  1.5780 -0.3724  1.7825
  491MOL0     H64750   3.488  10.747   0.239  0.1331 -0.2943  0.8280
  491MOL0     H64751   3.606  10.908   0.373 -0.1100 -0.4910  0.6156
  491MOL0     H64752   3.715  10.923   0.228  1.8168  0.6182  0.2764
  491MOL0     H64753   3.816  10.697   0.266  2.1031  2.6383  0.3862
  491MOL0     H64754   3.676  10.657   0.373 -1.3009  1.6531  2.0136
  491MOL0     H64755   3.885  10.870   0.431 -0.0945  0.4780 -1.9923
  491MOL0     H64756   3.749  10.834   0.527 -1.0545  0.4058 -0.6094
  491MOL0     H64757   3.899  10.712   0.631  0.2646  0.4394  1.0395
  491MOL0     H64758   4.006  10.698   0.483  1.2056  0.4292  4.0320
  491MOL0     H64759   3.842  10.514   0.408 -1.5531  1.0757  0.3627
  491MOL0     H64760   3.773  10.524   0.573 -1.0915  2.4983 -0.3209
  491MOL0     H64761   4.047  10.497   0.617  0.4961 -0.9981 -0.2449
  491MOL0     H64762   3.918  10.378   0.630  0.2240 -1.9984 -1.4602
  491MOL0     H64763   4.089  10.436   0.386 -0.3934 -1.6153 -2.0872
  491MOL0     H64764   3.982  10.298   0.398 -2.2850  0.8865  1.3917
  491MOL0     H64765   4.093  10.170   0.678 -1.5332  2.7183  1.6693
  491MOL0     H64766   4.430  10.070   0.767 -1.4568 -1.7559  1.5670
  491MOL0     H64767   4.266  10.048   0.799  2.3595 -2.5440  0.6410
  491MOL0     H64768   4.442  10.277   0.889  1.1225 -0.1424  2.0030
  491MOL0     H64769   4.385  10.146   0.989 -0.4132  1.0721  0.0912
  491MOL0     H64770   4.268  10.407   0.937  0.7871 -0.0979  0.9262
  491MOL0     H64771   4.164  10.278   0.884 -0.1683 -0.1996 -0.3297
  491MOL0     H64772   4.298  10.298   1.157 -0.1246  1.0834  0.4334
  491MOL0     H64773   4.173  10.172   1.122  0.1651 -0.5996 -0.9338
  491MOL0     H64774   3.974  10.209   1.014 -1.4229  0.2406  2.2203
  491MOL0     H64775   3.768  10.259   0.895 -1.1953  0.2651  1.7385
  491MOL0     H64776   3.491  10.860   0.816  1.9267 -1.0581  1.1364
  491MOL0     H64777   3.326  10.930   0.627 -0.1513  0.9768  0.2778
  491MOL0     H64778   3.089  10.789   0.551 -0.7781 -1.9588 -1.0230
  491MOL0     H64779   3.112  10.645   0.442 -1.2852 -0.3336 -0.8867
  491MOL0     H64780   3.066  10.811   0.257 -2.1758 -0.3285 -0.7241
  491MOL0     H64781   3.045  10.940   0.380 -1.6966  0.0830  2.1290
  491MOL0     H64782   2.850  10.833   0.474  1.6076  4.1850 -0.4557
  491MOL0     H64783   2.850  10.722   0.334 -2.1562 -0.0625 -0.0416
  491MOL0     H64784   2.822  11.032   0.361 -2.9582 -0.8046  0.5462
  491MOL0     H64785   2.861  10.961   0.203  1.2418  1.4995  0.0066
  491MOL0     H64786   2.618  10.873   0.365 -0.3036 -0.0380 -0.3980
  491MOL0     H64787   2.662  10.806   0.210 -2.4526  0.4238 -0.3815
  491MOL0     H64788   2.614  11.020   0.095  1.5874  1.3455  0.7794
  491MOL0     H64789   2.598  11.091   0.259  0.8675 -0.6330 -0.2135
  491MOL0     H64790   2.442  10.857   0.135 -0.3046 -2.9860  4.1284
  491MOL0     H64791   2.410  10.935   0.288  4.1869 -1.4321  1.5351
  491MOL0     H64792   2.253  11.028   0.108 -0.2042 -1.5480  1.6540
  491MOL0     H64793   2.397  11.071   0.011 -3.2614 -0.1578 -0.6634
  491MOL0     H64794   3.388  10.553   0.438 -0.7798  0.2678 -0.5234
  491MOL0     H64795   3.551  10.493   0.597 -2.0676 -0.6276 -0.1081
  491MOL0     H64796   3.786  10.674   1.009  2.0599  2.0783  1.1587
  491MOL0     H64797   3.993  10.625   1.135 -0.6354  0.0675  0.7393
  491MOL0     H64798   3.369  10.690   0.044  3.0527  1.3681 -0.3802
  491MOL0     H64799   3.155  10.664  -0.053 -0.8347  0.4699  0.2252
  491MOL0     H64800   2.734  10.506  -0.019  1.2590  0.6811 -0.0915
  491MOL0     H64801   2.503  10.479  -0.128 -0.6303 -0.2808 -0.1229
  491MOL0     H64802   2.322  10.843  -0.356 -1.8582 -0.5300 -0.4108
  491MOL0     H64803   2.325  10.821  -0.184  1.0474 -1.6545  0.7595
  491MOL0     H64804   2.149  10.625  -0.256 -0.7799  0.3420 -0.2491
  491MOL0     H64805   2.091  10.788  -0.292 -0.5867 -0.7970 -2.4412
  491MOL0     H64806   2.218  10.599  -0.487  2.4851  1.8144 -0.0594
  491MOL0     H64807   2.203  10.768  -0.525 -0.1773 -0.0464  0.9118
  491MOL0     H64808   2.013  10.635  -0.609 -2.7805 -0.2329  0.9832
  491MOL0     H64809   2.004  10.558  -0.459  6.2963 -1.4648 -0.9056
  491MOL0     H64810   1.776  10.922  -0.424 -2.2286 -2.2196  0.6969
  491MOL0     H64811   2.553  10.847  -0.321  1.1325 -0.1673 -1.3408
  491MOL0     H64812   2.783  10.884  -0.220 -1.2532  1.3955  0.2696
  492MOL0     O64813   4.128   3.988   2.896  1.3645  0.0993  0.3737
  492MOL0     C64814   4.200   4.013   2.800  0.2820  0.2593 -0.2448
  492MOL0     O64815   4.225   3.927   2.699  1.2361 -0.6906 -0.6542
  492MOL0     C64816   4.126   3.837   2.664 -1.3640 -0.9136 -0.8266
  492MOL0     C64817   3.994   3.831   2.691  0.0893  0.5433 -0.5172
  492MOL0     C64818   3.916   3.731   2.633 -0.3141  1.4140  0.3806
  492MOL0     C64819   3.966   3.630   2.545  0.3870 -0.1610 -0.1231
  492MOL0     O64820   3.877   3.531   2.510  0.0587 -0.0473 -0.7501
  492MOL0     C64821   3.928   3.411   2.464  1.1234  0.3028  0.0169
  492MOL0     C64822   3.800   3.315   2.447 -0.0451 -1.0833 -0.5380
  492MOL0     C64823   3.742   3.271   2.588  0.1366  0.9419 -0.1885
  492MOL0     C64824   3.621   3.177   2.574  0.8895 -0.3225 -0.1143
  492MOL0     C64825   3.540   3.178   2.711  0.6276 -0.6734 -0.8231
  492MOL0     C64826   3.414   3.094   2.694  1.0505 -0.0262 -0.7529
  492MOL0     C64827   3.433   2.943   2.703  0.5731 -0.5568  1.0725
  492MOL0     C64828   3.317   2.854   2.639  0.9022 -0.1002  0.4338
  492MOL0     N64829   3.181   2.869   2.695  0.0996  0.4309 -0.5425
  492MOL0     C64830   3.090   2.971   2.663  0.2613 -0.2402 -0.2879
  492MOL0     C64831   2.982   2.943   2.730 -0.1587 -0.2055 -1.2180
  492MOL0     C64832   2.858   3.030   2.728 -0.1843 -0.6848 -0.4801
  492MOL0     C64833   2.869   3.142   2.835 -0.1601  0.0335 -0.3934
  492MOL0     C64834   2.746   3.240   2.830  0.7618 -0.3950  0.4792
  492MOL0     C64835   2.609   3.188   2.886 -0.1630 -0.0462 -0.3117
  492MOL0     O64836   2.511   3.247   2.816 -0.1680 -0.0198  0.2326
  492MOL0     C64837   2.447   3.158   2.730 -0.1144 -0.5788 -0.2190
  492MOL0     C64838   2.311   3.141   2.748 -0.0954 -0.1988 -0.0106
  492MOL0     C64839   2.239   3.047   2.673 -0.5070  0.0999  0.6604
  492MOL0     C64840   2.309   2.980   2.574 -1.2016  1.1380 -0.0671
  492MOL0     C64841   2.245   2.873   2.498  0.2373  1.2633  0.3143
  492MOL0     O64842   2.309   2.773   2.436 -0.5758 -0.4128  0.1706
  492MOL0     C64843   2.262   2.646   2.410  0.5059 -0.0363 -0.0570
  492MOL0     C64844   2.319   2.567   2.310 -1.0944 -0.2923 -0.4740
  492MOL0     C64845   2.291   2.432   2.285 -1.1346  0.2766 -0.0252
  492MOL0     C64846   2.212   2.361   2.381 -1.3300  0.1248  0.3380
  492MOL0     O64847   2.190   2.226   2.380  0.2734  0.1892 -0.0592
  492MOL0     C64848   2.255   2.142   2.480  0.2488  0.6903  0.6140
  492MOL0     C64849   2.188   2.001   2.488 -1.1268 -0.5385 -0.4115
  492MOL0     C64850   2.056   2.009   2.563 -0.8785  0.7906 -0.8472
  492MOL0     C64851   1.955   2.118   2.529 -0.1697  0.0660 -0.4723
  492MOL0     C64852   1.827   2.079   2.596 -0.1269  0.3490  0.1453
  492MOL0     C64853   1.724   2.193   2.586 -0.1213  0.5517 -0.1356
  492MOL0     C64854   1.763   2.320   2.662 -0.2911 -0.2269  0.0500
  492MOL0     C64855   1.633   2.408   2.678  0.7846  1.0799  0.1889
  492MOL0    Cl64856   1.640   2.513   2.818 -0.6001 -0.2638 -0.1577
  492MOL0     C64857   2.146   2.436   2.472  0.3139 -1.4211  0.1600
  492MOL0     C64858   2.170   2.575   2.488  0.2761  0.6847 -0.1983
  492MOL0     O64859   2.122   2.876   2.494 -0.3345 -0.1520 -0.0841
  492MOL0     C64860   2.448   3.013   2.549  0.1125 -0.0973  0.0400
  492MOL0     C64861   2.516   3.097   2.628  0.0361  0.3647 -0.0259
  492MOL0     N64862   3.017   2.832   2.821 -0.1165 -1.1369  0.6170
  492MOL0     N64863   3.136   2.796   2.798  0.1090  0.3605  0.2756
  492MOL0     C64864   4.093   3.647   2.503 -0.1730  0.1292 -0.1414
  492MOL0     C64865   4.174   3.752   2.556 -0.0154  1.0464  0.3276
  492MOL0     C64866   4.256   4.148   2.795 -0.9238 -0.0387 -0.1478
  492MOL0     C64867   4.215   4.244   2.888 -1.0796 -0.0181  0.4481
  492MOL0     C64868   4.262   4.372   2.883  0.6108  0.5145 -0.5137
  492MOL0     C64869   4.369   4.414   2.795 -0.6920  0.3257  0.4471
  492MOL0     O64870   4.437   4.536   2.797 -0.7559  0.1363  0.0406
  492MOL0     C64871   4.373   4.644   2.865  1.0169 -1.0106 -0.0133
  492MOL0     C64872   4.253   4.689   2.774  0.5094 -0.2651 -0.3904
  492MOL0     C64873   4.162   4.796   2.837  0.3214  0.2220  0.2537
  492MOL0     C64874   4.049   4.737   2.913  0.1959 -1.0422  0.7211
  492MOL0     C64875   3.959   4.662   2.820  0.1213  0.0500  0.3574
  492MOL0     C64876   3.892   4.587   2.747  0.2720 -0.2530 -0.6065
  492MOL0     C64877   4.413   4.303   2.713 -1.0938  0.6360 -1.1672
  492MOL0     C64878   4.362   4.177   2.714  0.1510  0.4214  0.2171
  492MOL0     H64879   3.941   3.903   2.753 -3.1574 -1.6924 -0.4184
  492MOL0     H64880   3.809   3.726   2.649 -0.1276  0.3387  1.4426
  492MOL0     H64881   3.990   3.371   2.544  0.4264  0.9403  0.8899
  492MOL0     H64882   3.986   3.421   2.371  4.2447 -0.7743  1.7003
  492MOL0     H64883   3.838   3.222   2.402  2.8224 -0.6833  0.8429
  492MOL0     H64884   3.730   3.361   2.377  1.1678  1.9165  0.0883
  492MOL0     H64885   3.709   3.355   2.650  0.2879 -0.2387  1.5612
  492MOL0     H64886   3.824   3.231   2.649 -0.5360  1.1028  0.8555
  492MOL0     H64887   3.556   3.205   2.490  0.2166 -0.6093  0.3093
  492MOL0     H64888   3.667   3.079   2.559 -0.8246 -1.5672  2.2453
  492MOL0     H64889   3.505   3.276   2.744  1.1069 -0.6595 -0.3475
  492MOL0     H64890   3.603   3.143   2.793 -1.5440  0.3409  1.4173
  492MOL0     H64891   3.372   3.128   2.599 -3.1096  2.9681  1.8065
  492MOL0     H64892   3.352   3.117   2.782 -1.6566 -1.2440 -2.2174
  492MOL0     H64893   3.533   2.921   2.664 -0.0008  0.9363 -1.4847
  492MOL0     H64894   3.443   2.917   2.809  0.3544 -0.2621  1.1662
  492MOL0     H64895   3.341   2.749   2.659  2.7884  0.2176  0.1016
  492MOL0     H64896   3.324   2.864   2.531  2.2743  0.7639  0.5683
  492MOL0     H64897   3.106   3.056   2.598 -2.8828  0.4144 -0.3717
  492MOL0     H64898   2.771   2.967   2.745  0.5064 -1.5910 -0.2106
  492MOL0     H64899   2.854   3.074   2.628  1.9809 -2.0175 -1.2384
  492MOL0     H64900   2.964   3.196   2.825  0.7994 -1.2427  1.2778
  492MOL0     H64901   2.870   3.093   2.932  0.9394  1.8831  0.5807
  492MOL0     H64902   2.787   3.323   2.888  3.1229  0.1347 -1.7421
  492MOL0     H64903   2.725   3.275   2.728  0.1094 -2.0677  0.0134
  492MOL0     H64904   2.609   3.215   2.992  3.0506 -3.4838  0.8271
  492MOL0     H64905   2.596   3.079   2.885 -3.4440  0.2445 -1.7574
  492MOL0     H64906   2.270   3.197   2.831  1.5671  0.0203  0.6918
  492MOL0     H64907   2.138   3.015   2.694 -0.1340  0.2047  2.8999
  492MOL0     H64908   2.394   2.620   2.253 -1.4474  2.7611  1.6188
  492MOL0     H64909   2.355   2.389   2.209  1.6112 -0.0754  2.2921
  492MOL0     H64910   2.242   2.189   2.579  1.5610  1.0482  0.6342
  492MOL0     H64911   2.363   2.132   2.468  0.4369 -0.4159  2.6920
  492MOL0     H64912   2.248   1.935   2.552 -0.1551 -0.4376 -1.1923
  492MOL0     H64913   2.182   1.962   2.386  5.0569 -2.5055 -0.4420
  492MOL0     H64914   2.067   2.003   2.672  2.8045 -1.6665 -1.1732
  492MOL0     H64915   2.016   1.913   2.527  2.3500 -0.8496 -0.4749
  492MOL0     H64916   2.005   2.211   2.559 -0.2920  0.2886 -0.9459
  492MOL0     H64917   1.935   2.132   2.422 -0.2824 -2.6311 -0.8667
  492MOL0     H64918   1.845   2.059   2.702  1.9871  0.3524 -0.1714
  492MOL0     H64919   1.774   1.996   2.549  1.7576  0.9874 -3.4607
  492MOL0     H64920   1.629   2.145   2.609 -0.4782  0.9454 -0.7553
  492MOL0     H64921   1.719   2.219   2.480  1.1011  3.0842  0.3369
  492MOL0     H64922   1.810   2.286   2.755  2.8582 -1.0484 -1.7048
  492MOL0     H64923   1.831   2.381   2.602 -1.5316 -0.3970 -1.5917
  492MOL0     H64924   1.547   2.340   2.682 -1.0339  3.3008  1.0307
  492MOL0     H64925   1.611   2.458   2.583 -1.1027 -0.3184 -0.1641
  492MOL0     H64926   2.086   2.385   2.546  1.8559  1.6538  3.8651
  492MOL0     H64927   2.125   2.626   2.573  0.1341 -0.8245  0.6626
  492MOL0     H64928   2.507   2.971   2.468  0.8778  1.3443 -0.1791
  492MOL0     H64929   2.620   3.115   2.605  0.0278 -0.8688 -1.1041
  492MOL0     H64930   4.127   3.588   2.419 -0.1222 -0.1598  0.0778
  492MOL0     H64931   4.272   3.772   2.516 -0.3175  0.9880 -0.4597
  492MOL0     H64932   4.136   4.212   2.955 -1.2928 -1.9905 -0.6398
  492MOL0     H64933   4.194   4.445   2.928  0.2581  1.8495 -3.0387
  492MOL0     H64934   4.437   4.731   2.854  0.7324 -0.8910 -0.8241
  492MOL0     H64935   4.358   4.629   2.972  0.0911 -0.2714 -0.0190
  492MOL0     H64936   4.298   4.737   2.686 -1.8389 -1.8810 -2.6173
  492MOL0     H64937   4.196   4.613   2.720  0.8405  1.3376 -3.2130
  492MOL0     H64938   4.118   4.862   2.762 -1.5471 -0.4599  0.6951
  492MOL0     H64939   4.216   4.854   2.913  2.0495 -1.7700  0.6350
  492MOL0     H64940   4.075   4.671   2.996  0.5277 -4.1897 -1.7014
  492MOL0     H64941   3.982   4.819   2.940 -0.0987 -0.2116 -2.2149
  492MOL0     H64942   3.818   4.527   2.698  0.8271  0.4868 -2.4345
  492MOL0     H64943   4.489   4.331   2.640 -1.6417  1.5777 -1.3832
  492MOL0     H64944   4.391   4.102   2.641 -2.4434 -0.4620 -0.0349
  493MOL0     O64945   8.888   4.749   8.344  0.5429 -0.0538 -0.2512
  493MOL0     C64946   8.811   4.804   8.424 -0.3622  0.1477 -0.4804
  493MOL0     O64947   8.722   4.735   8.497 -0.1629 -0.2307  0.3766
  493MOL0     C64948   8.717   4.595   8.505  0.4078 -0.2319  0.0971
  493MOL0     C64949   8.669   4.563   8.633  0.4778 -0.7131  0.7925
  493MOL0     C64950   8.654   4.433   8.674  0.0750  0.0910  0.4527
  493MOL0     C64951   8.686   4.325   8.586 -0.4031 -0.3507  0.5691
  493MOL0     O64952   8.666   4.200   8.638 -0.3149  0.3634  0.6894
  493MOL0     C64953   8.613   4.098   8.552 -0.7162  0.4292 -0.2314
  493MOL0     C64954   8.609   3.959   8.616 -0.3992 -0.6678 -0.3656
  493MOL0     C64955   8.482   3.929   8.701 -0.7216 -0.4984  0.1223
  493MOL0     C64956   8.504   3.803   8.779  0.3781  0.6207  0.0191
  493MOL0     C64957   8.435   3.687   8.700 -0.1271  0.0836 -0.5250
  493MOL0     C64958   8.490   3.555   8.754  0.5211 -0.7959 -0.6069
  493MOL0     C64959   8.402   3.496   8.861 -1.1980  0.9197 -0.3827
  493MOL0     C64960   8.471   3.383   8.943  0.6220  0.9177  0.8787
  493MOL0     N64961   8.593   3.440   9.009 -0.0385  0.1164 -0.4989
  493MOL0     C64962   8.583   3.529   9.110 -0.0228 -0.6453 -0.2698
  493MOL0     C64963   8.710   3.537   9.157  0.1548 -0.2359  0.4375
  493MOL0     C64964   8.744   3.593   9.284  0.5770 -0.5966 -0.4170
  493MOL0     C64965   8.870   3.676   9.281  0.3588 -0.7786 -0.1683
  493MOL0     C64966   8.951   3.658   9.420 -0.8357  0.6111  0.3773
  493MOL0     C64967   9.077   3.745   9.432  0.1208  1.0095 -0.1126
  493MOL0     O64968   9.164   3.704   9.328 -1.2274 -0.0411 -0.2698
  493MOL0     C64969   9.281   3.784   9.311  0.2920  0.4826 -0.0673
  493MOL0     C64970   9.318   3.895   9.393 -0.0852  0.0746  0.1107
  493MOL0     C64971   9.424   3.979   9.361  0.1563  0.3045  0.2850
  493MOL0     C64972   9.501   3.951   9.246 -0.5338 -0.6572  0.3860
  493MOL0     C64973   9.622   4.021   9.211  0.6654 -1.0365  0.4188
  493MOL0     O64974   9.687   4.075   9.321 -0.9784  0.1743  0.3093
  493MOL0     C64975   9.791   4.156   9.292 -0.1596 -0.0350  1.0352
  493MOL0     C64976   9.769   4.290   9.268 -0.0435  0.0801  0.1228
  493MOL0     C64977   9.877   4.377   9.257 -0.3364 -0.5761  1.0996
  493MOL0     C64978  10.011   4.334   9.269  0.1797 -0.0908 -0.0158
  493MOL0     O64979  10.114   4.432   9.266  0.0820  0.4678  0.0457
  493MOL0     C64980  10.216   4.400   9.177 -0.6757  0.3186  0.2371
  493MOL0     C64981  10.331   4.496   9.188  0.8532  0.3142  0.9437
  493MOL0     C64982  10.312   4.645   9.211  0.2836  0.2916 -0.0494
  493MOL0     C64983  10.331   4.720   9.075  1.0449  0.1263 -1.2054
  493MOL0     C64984  10.321   4.875   9.116  0.5232 -0.2105 -0.0938
  493MOL0     C64985  10.355   4.927   8.974  0.4159 -0.1195 -0.5186
  493MOL0     C64986  10.339   5.079   8.963  0.2820  0.1971  0.1819
  493MOL0     C64987  10.364   5.125   8.818 -0.6667  0.0230  0.2539
  493MOL0    Cl64988  10.251   5.042   8.714 -0.3150 -0.2044  0.6268
  493MOL0     C64989  10.029   4.202   9.293  0.8327  0.2067  0.8185
  493MOL0     C64990   9.921   4.110   9.305 -0.3782 -0.3798  0.0880
  493MOL0     O64991   9.656   4.030   9.089 -0.5139  0.5948 -0.0371
  493MOL0     C64992   9.461   3.844   9.165 -0.1515  0.5257  0.9872
  493MOL0     C64993   9.353   3.758   9.197 -0.2622  0.3941  0.6243
  493MOL0     N64994   8.785   3.446   9.086  0.1866  0.0688  0.4434
  493MOL0     N64995   8.714   3.398   8.993 -0.6332 -0.0846  0.7135
  493MOL0     C64996   8.755   4.354   8.460  0.1183 -0.4611  0.8903
  493MOL0     C64997   8.765   4.492   8.428 -0.7424 -0.5906  0.0045
  493MOL0     C64998   8.804   4.952   8.417  0.2539  0.3323  0.2158
  493MOL0     C64999   8.907   5.027   8.366 -0.4587  0.6435 -0.0492
  493MOL0     C65000   8.920   5.165   8.384  0.1009 -0.4342  0.2543
  493MOL0     C65001   8.824   5.243   8.448 -0.7107  0.3657 -0.4096
  493MOL0     O65002   8.847   5.379   8.453  0.6287 -0.3104 -0.3828
  493MOL0     C65003   8.752   5.472   8.509  0.0218 -0.1719  0.6517
  493MOL0     C65004   8.768   5.479   8.660  1.6631  1.0971  0.0410
  493MOL0     C65005   8.889   5.554   8.720  0.7832  0.1470  0.9386
  493MOL0     C65006   9.016   5.462   8.711 -0.8730  0.5215 -0.9515
  493MOL0     C65007   9.129   5.549   8.765 -0.8840 -0.1345 -0.4618
  493MOL0     C65008   9.223   5.607   8.808  0.1785 -0.2244 -0.4823
  493MOL0     C65009   8.708   5.165   8.486  0.5125  0.9070  0.0095
  493MOL0     C65010   8.698   5.022   8.478 -0.3002  0.2902 -0.8004
  493MOL0     H65011   8.644   4.647   8.696  1.8052  0.6461 -0.4181
  493MOL0     H65012   8.616   4.407   8.772  1.1385  0.6958  1.0297
  493MOL0     H65013   8.685   4.090   8.469  0.4137  1.8527  0.5582
  493MOL0     H65014   8.514   4.126   8.516  0.6877  3.9631 -1.7935
  493MOL0     H65015   8.695   3.947   8.682 -3.4776  0.1584  4.2567
  493MOL0     H65016   8.616   3.888   8.532  5.0698  0.5000 -1.2438
  493MOL0     H65017   8.394   3.916   8.637  0.4942 -1.0124 -1.5102
  493MOL0     H65018   8.461   4.008   8.773 -1.3355 -2.5150  2.2679
  493MOL0     H65019   8.610   3.782   8.794  0.6306 -0.9292 -3.1702
  493MOL0     H65020   8.438   3.817   8.865 -0.9065 -1.3390 -0.5773
  493MOL0     H65021   8.453   3.694   8.592 -0.2453  3.1871 -0.4246
  493MOL0     H65022   8.326   3.679   8.709  0.0484 -0.5626  1.4745
  493MOL0     H65023   8.596   3.562   8.783  0.1740 -2.6558  1.3091
  493MOL0     H65024   8.481   3.485   8.670  0.0513 -1.0906 -0.3078
  493MOL0     H65025   8.389   3.581   8.928  2.7071  1.8383 -0.5776
  493MOL0     H65026   8.304   3.456   8.831 -1.0025  1.2886 -1.5748
  493MOL0     H65027   8.499   3.304   8.872 -3.7438 -1.4014  1.4368
  493MOL0     H65028   8.401   3.335   9.011 -1.9550  1.4050 -1.2415
  493MOL0     H65029   8.497   3.582   9.148  0.2322 -0.0561 -0.5049
  493MOL0     H65030   8.754   3.514   9.359  0.2663  1.0709  1.4837
  493MOL0     H65031   8.655   3.642   9.324 -0.2300 -3.1314  1.0757
  493MOL0     H65032   8.854   3.780   9.254  4.5527  0.3817  0.9796
  493MOL0     H65033   8.934   3.628   9.206 -0.5123 -2.5149  0.1395
  493MOL0     H65034   8.891   3.688   9.507  0.6451  5.7934 -0.0701
  493MOL0     H65035   8.985   3.555   9.434 -1.5602  0.4029  0.6657
  493MOL0     H65036   9.126   3.719   9.526  2.3797  2.5596 -0.7688
  493MOL0     H65037   9.038   3.847   9.429  2.8196  2.0985 -0.7839
  493MOL0     H65038   9.252   3.910   9.478  2.0258  3.0065  1.4031
  493MOL0     H65039   9.442   4.062   9.428 -0.2186  1.6339 -1.2021
  493MOL0     H65040   9.666   4.324   9.258 -0.4165 -0.2083  2.4023
  493MOL0     H65041   9.854   4.480   9.231  2.0015 -0.2857 -0.0297
  493MOL0     H65042  10.181   4.404   9.073  1.1209  0.2440 -0.3980
  493MOL0     H65043  10.249   4.299   9.199  0.5850  0.5904 -0.3515
  493MOL0     H65044  10.395   4.477   9.101 -0.9074 -0.7884 -0.1736
  493MOL0     H65045  10.379   4.453   9.277  5.4486  1.4682 -0.6805
  493MOL0     H65046  10.393   4.695   9.265  0.0340  1.6767 -0.9081
  493MOL0     H65047  10.215   4.659   9.261 -0.1865 -1.6529 -0.3650
  493MOL0     H65048  10.423   4.680   9.031  1.2376 -1.5764  0.5844
  493MOL0     H65049  10.251   4.696   9.004 -0.4776 -0.1355  0.5263
  493MOL0     H65050  10.401   4.904   9.184 -0.5160  3.6262 -0.2957
  493MOL0     H65051  10.224   4.917   9.143  0.8039  2.1207 -2.3633
  493MOL0     H65052  10.283   4.880   8.906 -0.0928 -1.6245  0.9823
  493MOL0     H65053  10.457   4.902   8.945  1.1268  0.0820  1.6755
  493MOL0     H65054  10.240   5.114   8.991  2.0978  4.1490  2.4792
  493MOL0     H65055  10.392   5.136   9.039 -0.7589  0.5619  0.6491
  493MOL0     H65056  10.466   5.116   8.781 -1.2485 -0.4062 -1.3153
  493MOL0     H65057  10.342   5.229   8.794  1.9457  0.3123 -1.3318
  493MOL0     H65058  10.122   4.146   9.291  0.0175 -1.6635 -5.5104
  493MOL0     H65059   9.934   4.003   9.310  0.2366 -0.4803 -2.5446
  493MOL0     H65060   9.520   3.821   9.077  1.0083 -0.4434  1.9901
  493MOL0     H65061   9.327   3.672   9.137  1.1985  0.3482  0.0094
  493MOL0     H65062   8.792   4.285   8.385 -0.0204 -0.2531  0.6292
  493MOL0     H65063   8.805   4.527   8.333 -1.6911 -1.8062 -0.8891
  493MOL0     H65064   8.992   4.971   8.329 -0.8681 -1.9649  2.5362
  493MOL0     H65065   9.011   5.214   8.350 -0.9662 -0.5352 -3.0752
  493MOL0     H65066   8.650   5.436   8.492  0.0348 -0.1452  0.5167
  493MOL0     H65067   8.757   5.570   8.461 -0.7226  0.2366  1.3706
  493MOL0     H65068   8.675   5.527   8.693 -0.0480 -1.1847 -1.1578
  493MOL0     H65069   8.764   5.379   8.704  1.9312  1.2362  0.3835
  493MOL0     H65070   8.852   5.578   8.820  1.0196 -3.5291  2.0611
  493MOL0     H65071   8.915   5.639   8.656  0.2382 -0.0249  0.4793
  493MOL0     H65072   9.005   5.372   8.772 -1.3818  1.4427  0.3677
  493MOL0     H65073   9.041   5.443   8.607  0.4499 -0.2135 -0.5215
  493MOL0     H65074   9.299   5.673   8.846  1.1657 -2.0402  0.8115
  493MOL0     H65075   8.627   5.216   8.537  1.2924  1.1386  1.0739
  493MOL0     H65076   8.612   4.966   8.513 -0.3826  0.6955 -0.3396
  494MOL0     O65077   8.614  10.723   2.261  0.4601 -0.0016 -0.1667
  494MOL0     C65078   8.659  10.822   2.207 -0.2199 -0.8548 -0.2888
  494MOL0     O65079   8.791  10.859   2.188  0.0129  0.0152 -0.0310
  494MOL0     C65080   8.893  10.769   2.187  0.3239 -0.6120  1.0677
  494MOL0     C65081   9.013  10.799   2.250 -0.6284 -0.3265 -0.5319
  494MOL0     C65082   9.122  10.717   2.236  0.6485  0.0417  0.9379
  494MOL0     C65083   9.114  10.596   2.164 -0.3148  0.0112  0.5865
  494MOL0     O65084   9.228  10.517   2.145 -0.5319 -0.4580 -0.7962
  494MOL0     C65085   9.226  10.393   2.083  0.3574 -0.1226 -0.8380
  494MOL0     C65086   9.354  10.317   2.112 -0.3769 -0.5185 -0.7867
  494MOL0     C65087   9.463  10.333   2.010 -0.3327  0.2619  0.2526
  494MOL0     C65088   9.599  10.266   2.053 -0.2364 -0.1524  0.2655
  494MOL0     C65089   9.701  10.284   1.941 -1.2686  0.8668  0.1973
  494MOL0     C65090   9.840  10.221   1.971 -0.1579  0.0435  0.4238
  494MOL0     C65091   9.931  10.231   1.839  0.6846 -1.3521 -0.1893
  494MOL0     C65092  10.070  10.262   1.886  0.3832 -0.4078 -0.6202
  494MOL0     N65093  10.174  10.247   1.786  0.3741 -0.9524  0.6720
  494MOL0     C65094  10.222  10.129   1.739  0.3071  0.5389 -0.9229
  494MOL0     C65095  10.311  10.157   1.643 -0.7129 -0.7266  0.0643
  494MOL0     C65096  10.367  10.042   1.559 -0.2870 -0.1223 -0.2638
  494MOL0     C65097  10.407  10.098   1.421  0.2428  0.1712  1.0289
  494MOL0     C65098  10.287  10.141   1.337  0.4614  0.8295 -1.0419
  494MOL0     C65099  10.324  10.197   1.201 -0.2185  0.6831  0.1027
  494MOL0     O65100  10.257  10.140   1.094 -0.2098 -0.0028  0.3804
  494MOL0     C65101  10.122  10.167   1.081 -0.5467 -0.0042  0.7418
  494MOL0     C65102  10.092  10.276   1.010  0.8832 -0.8223  0.4086
  494MOL0     C65103   9.957  10.316   0.971 -0.2452 -0.9748  0.2309
  494MOL0     C65104   9.850  10.236   1.032 -0.3564 -0.2978 -0.1316
  494MOL0     C65105   9.708  10.269   1.002 -0.7443 -0.2338  0.4944
  494MOL0     O65106   9.620  10.218   1.091 -0.2002 -0.4444  0.0887
  494MOL0     C65107   9.490  10.249   1.083 -0.1903 -0.8118  0.0474
  494MOL0     C65108   9.444  10.381   1.042  0.2792  0.3362 -0.0334
  494MOL0     C65109   9.309  10.406   1.044 -0.1360  0.1336 -0.6010
  494MOL0     C65110   9.209  10.303   1.069 -0.4488 -0.2984 -0.2689
  494MOL0     O65111   9.077  10.345   1.048  0.3767  0.4963  0.5372
  494MOL0     C65112   8.999  10.243   0.992 -0.5832  0.0817 -0.0498
  494MOL0     C65113   8.924  10.307   0.879 -0.1465  0.9685 -0.3451
  494MOL0     C65114   8.826  10.215   0.804 -0.5422 -0.0769 -0.9993
  494MOL0     C65115   8.746  10.291   0.698  0.2814 -0.7757  0.1674
  494MOL0     C65116   8.600  10.311   0.722  0.0030  0.4758 -0.2572
  494MOL0     C65117   8.590  10.418   0.824  0.5692 -0.3671  0.2297
  494MOL0     C65118   8.440  10.467   0.833 -0.4255 -0.0591  0.5699
  494MOL0     C65119   8.331  10.363   0.853  0.8930  0.3696  0.7990
  494MOL0    Cl65120   8.338  10.274   1.012  0.0470 -0.1951 -0.3729
  494MOL0     C65121   9.255  10.174   1.106 -0.1227 -0.1418 -0.2536
  494MOL0     C65122   9.396  10.148   1.119 -0.6872 -0.3688  0.5986
  494MOL0     O65123   9.684  10.317   0.894 -0.2973  0.2478  0.2225
  494MOL0     C65124   9.885  10.129   1.115 -0.7781 -0.4593  1.4352
  494MOL0     C65125  10.022  10.091   1.139  0.4908 -0.7610  0.3717
  494MOL0     N65126  10.324  10.299   1.634 -0.3563 -0.6668 -0.1006
  494MOL0     N65127  10.238  10.354   1.717  0.4191 -0.6947 -0.1103
  494MOL0     C65128   8.991  10.558   2.110 -0.2832  0.0329 -0.2243
  494MOL0     C65129   8.881  10.645   2.116 -1.5198  1.0154  0.3847
  494MOL0     C65130   8.566  10.923   2.145  0.5521 -0.3373  0.3146
  494MOL0     C65131   8.436  10.872   2.123  0.7135  0.2597  0.2946
  494MOL0     C65132   8.346  10.968   2.070 -0.1914 -0.3043  0.5521
  494MOL0     C65133   8.376  11.104   2.043  0.1233 -0.6493 -0.8057
  494MOL0     O65134   8.277  11.197   2.010  0.2419 -0.2650  0.1780
  494MOL0     C65135   8.161  11.141   1.940 -0.0716  0.8731  0.0021
  494MOL0     C65136   8.068  11.261   1.889  0.4733  0.8665 -0.1800
  494MOL0     C65137   8.149  11.340   1.780 -0.6991 -0.1525 -0.1339
  494MOL0     C65138   8.230  11.460   1.844  0.3484 -0.9524  0.5508
  494MOL0     C65139   8.301  11.529   1.730  0.2809  0.4404  0.7657
  494MOL0     C65140   8.368  11.569   1.634 -0.1955 -0.1616  0.1583
  494MOL0     C65141   8.504  11.154   2.076  0.6118  0.8509 -0.3579
  494MOL0     C65142   8.597  11.060   2.122  0.0324  0.9387 -0.1426
  494MOL0     H65143   9.017  10.886   2.314 -2.0779  1.7543 -3.0964
  494MOL0     H65144   9.213  10.746   2.287  1.9030 -3.2103  0.7973
  494MOL0     H65145   9.209  10.398   1.975 -0.0167  1.8660 -0.7131
  494MOL0     H65146   9.148  10.331   2.130  0.8574  1.0164  1.6729
  494MOL0     H65147   9.308  10.218   2.104 -1.9327  0.2260 -1.5655
  494MOL0     H65148   9.399  10.342   2.209 -1.0540  0.1008 -0.6200
  494MOL0     H65149   9.478  10.441   2.011 -1.2426  0.3970 -0.1353
  494MOL0     H65150   9.430  10.299   1.911 -0.4163 -3.9553  1.5419
  494MOL0     H65151   9.638  10.321   2.138  2.5823 -2.0604  0.3634
  494MOL0     H65152   9.575  10.169   2.097 -1.7805 -1.4082 -3.0002
  494MOL0     H65153   9.706  10.391   1.916  0.1922  1.0286  1.0574
  494MOL0     H65154   9.669  10.232   1.850  2.7624 -1.7836  0.0563
  494MOL0     H65155   9.824  10.114   1.985 -1.2615 -0.0797 -1.4756
  494MOL0     H65156   9.889  10.262   2.060  0.5581  4.6049 -1.7321
  494MOL0     H65157   9.928  10.137   1.783 -0.5779 -1.7019  0.4358
  494MOL0     H65158   9.901  10.321   1.784  3.5400 -0.4609 -0.4912
  494MOL0     H65159  10.092  10.184   1.960 -0.0822  0.7808  0.8040
  494MOL0     H65160  10.073  10.362   1.929  0.8427 -0.0147 -1.5379
  494MOL0     H65161  10.191  10.030   1.770  2.0003 -0.2120 -1.5103
  494MOL0     H65162  10.297   9.962   1.532  2.2755 -2.4735 -0.4227
  494MOL0     H65163  10.445   9.990   1.615 -0.5615 -0.5501 -0.2752
  494MOL0     H65164  10.471  10.021   1.377 -1.0529 -0.0243 -0.6358
  494MOL0     H65165  10.471  10.185   1.432  1.6298 -0.8162  0.9745
  494MOL0     H65166  10.217  10.057   1.338 -1.1233  2.0821  1.0757
  494MOL0     H65167  10.238  10.229   1.380  1.5486  2.3678 -2.8270
  494MOL0     H65168  10.431  10.175   1.189 -0.6538 -0.2523 -3.1613
  494MOL0     H65169  10.306  10.305   1.205 -1.3061  0.6100 -1.5740
  494MOL0     H65170  10.177  10.332   0.971 -0.0910 -0.6530 -1.5968
  494MOL0     H65171   9.936  10.392   0.897 -0.4460  0.4302  1.6650
  494MOL0     H65172   9.507  10.457   0.998 -2.6344  0.8280 -3.9219
  494MOL0     H65173   9.284  10.503   1.003 -2.9878 -0.2596  0.0518
  494MOL0     H65174   8.930  10.196   1.063 -2.7898 -1.3949 -2.9126
  494MOL0     H65175   9.064  10.162   0.955  0.2806 -0.5489  2.6283
  494MOL0     H65176   8.997  10.343   0.806  3.0446 -4.2320 -0.2229
  494MOL0     H65177   8.867  10.393   0.915 -2.1606 -0.4585  0.0584
  494MOL0     H65178   8.755  10.162   0.868  0.9132  1.2082  1.8699
  494MOL0     H65179   8.888  10.130   0.773  1.2118 -0.5521  3.1536
  494MOL0     H65180   8.782  10.394   0.690 -2.5519  0.1689 -1.9250
  494MOL0     H65181   8.755  10.241   0.602 -2.6252 -0.6346 -0.2622
  494MOL0     H65182   8.544  10.224   0.758  1.2173 -0.5918 -0.8595
  494MOL0     H65183   8.546  10.328   0.629 -1.6002  1.0518  0.7322
  494MOL0     H65184   8.655  10.500   0.795  2.1392 -1.3964  0.7205
  494MOL0     H65185   8.622  10.365   0.915  1.8761  2.4875  1.5434
  494MOL0     H65186   8.431  10.547   0.907 -0.2488  1.6868 -1.2069
  494MOL0     H65187   8.408  10.517   0.741 -3.2714  0.0029  1.5013
  494MOL0     H65188   8.331  10.296   0.767  4.0551  0.4578  0.5950
  494MOL0     H65189   8.237  10.419   0.860  0.4574 -0.3251  0.5148
  494MOL0     H65190   9.176  10.100   1.112 -1.0358  0.9053  1.5167
  494MOL0     H65191   9.440  10.057   1.158 -0.4801 -0.5700 -0.0887
  494MOL0     H65192   9.814  10.057   1.154 -2.0489  0.5978  1.1677
  494MOL0     H65193  10.040   9.995   1.186  1.6280 -3.3177 -4.6943
  494MOL0     H65194   8.982  10.462   2.059 -0.7033 -0.0224 -0.0505
  494MOL0     H65195   8.785  10.609   2.083 -0.9773 -2.7185  2.3340
  494MOL0     H65196   8.401  10.770   2.136 -0.0003  0.4382 -0.1455
  494MOL0     H65197   8.243  10.938   2.052 -0.1664  0.0798 -0.2277
  494MOL0     H65198   8.092  11.080   1.999  0.1754 -1.4196 -1.9422
  494MOL0     H65199   8.197  11.081   1.855 -1.2057  2.0344 -1.3432
  494MOL0     H65200   7.987  11.209   1.838  0.2530  2.3836 -1.4541
  494MOL0     H65201   8.030  11.316   1.976 -2.7929  2.5632 -2.4533
  494MOL0     H65202   8.092  11.393   1.703 -0.6557  2.4325  1.4884
  494MOL0     H65203   8.218  11.273   1.728  0.5077  1.3055 -0.4893
  494MOL0     H65204   8.160  11.529   1.891  0.3020 -1.9235  1.9655
  494MOL0     H65205   8.306  11.437   1.919  2.4270  1.8715 -0.5018
  494MOL0     H65206   8.421  11.591   1.543  0.6240  3.4305  1.3257
  494MOL0     H65207   8.542  11.256   2.071  1.6815  0.4552 -0.5751
  494MOL0     H65208   8.696  11.087   2.159 -0.1591  1.4939 -0.0187
  495MOL0     O65209   8.562   0.902   6.809  0.8358  0.8727 -0.5579
  495MOL0     C65210   8.447   0.954   6.808 -0.8572 -0.1105 -1.4032
  495MOL0     O65211   8.412   1.082   6.768  0.8758 -0.2324 -0.2361
  495MOL0     C65212   8.509   1.156   6.706 -1.3109  0.2313  0.6513
  495MOL0     C65213   8.568   1.117   6.590 -0.3529 -0.3193  0.4244
  495MOL0     C65214   8.654   1.203   6.519 -1.4126  0.8118  0.7812
  495MOL0     C65215   8.691   1.327   6.566  0.3139 -0.3602 -0.0710
  495MOL0     O65216   8.755   1.416   6.493  0.8544  0.3726  0.3066
  495MOL0     C65217   8.901   1.408   6.498  0.1821  0.6188  0.5640
  495MOL0     C65218   8.965   1.296   6.411  0.2990  0.2321 -0.1056
  495MOL0     C65219   9.116   1.290   6.398 -0.0384 -0.2191  1.2560
  495MOL0     C65220   9.189   1.266   6.526 -0.5691  0.4089  0.7028
  495MOL0     C65221   9.339   1.258   6.492 -0.5447 -0.0204 -0.1751
  495MOL0     C65222   9.434   1.251   6.620  0.2246 -0.0590  0.8841
  495MOL0     C65223   9.574   1.194   6.594 -0.8183  0.0673  0.6359
  495MOL0     C65224   9.677   1.230   6.696  0.1450  0.4856  0.2014
  495MOL0     N65225   9.639   1.175   6.825  0.4281 -0.6440 -0.3131
  495MOL0     C65226   9.656   1.043   6.864  0.0232 -0.1505 -0.7714
  495MOL0     C65227   9.604   1.031   6.982 -0.1683  0.0488  0.6748
  495MOL0     C65228   9.575   0.899   7.042  0.0858  0.6432 -1.3913
  495MOL0     C65229   9.589   0.892   7.199  0.4549 -0.2912 -0.2104
  495MOL0     C65230   9.507   0.778   7.265  0.0440 -0.6236 -0.3031
  495MOL0     C65231   9.358   0.808   7.235  0.8376  0.3624 -1.2486
  495MOL0     O65232   9.273   0.728   7.326  0.5841 -0.0256 -0.0223
  495MOL0     C65233   9.248   0.750   7.450 -0.5196 -0.7245 -0.5971
  495MOL0     C65234   9.258   0.870   7.521 -0.3383  0.2367  0.6952
  495MOL0     C65235   9.267   0.874   7.667 -1.3834  0.2396 -0.1360
  495MOL0     C65236   9.255   0.747   7.734 -0.9650 -0.3926  0.2448
  495MOL0     C65237   9.263   0.729   7.878 -1.1598 -0.8407  0.3933
  495MOL0     O65238   9.266   0.603   7.932  0.4949  0.3787 -1.1134
  495MOL0     C65239   9.245   0.586   8.066  0.1681 -0.4168 -0.3073
  495MOL0     C65240   9.294   0.472   8.122  0.3614  0.3503 -0.4454
  495MOL0     C65241   9.277   0.442   8.259  0.1499 -0.3345  0.4831
  495MOL0     C65242   9.213   0.542   8.340  0.0398  0.4243  0.9808
  495MOL0     O65243   9.212   0.536   8.474 -0.2409 -0.1969 -0.0921
  495MOL0     C65244   9.163   0.413   8.535 -0.1751 -0.1739 -0.3888
  495MOL0     C65245   9.016   0.379   8.521  0.7049  0.3596  0.5997
  495MOL0     C65246   8.913   0.473   8.585 -0.9190  0.0244  0.3521
  495MOL0     C65247   8.912   0.609   8.525 -1.1633 -0.7221 -0.1931
  495MOL0     C65248   8.810   0.688   8.595 -0.9768  0.0016 -0.0671
  495MOL0     C65249   8.664   0.663   8.558  0.6980  0.4602  0.6268
  495MOL0     C65250   8.566   0.766   8.584 -0.7049 -0.0953 -0.3238
  495MOL0     C65251   8.436   0.730   8.510 -0.5647  0.4001 -0.5119
  495MOL0    Cl65252   8.327   0.867   8.519  0.0554  0.3105  0.1809
  495MOL0     C65253   9.171   0.657   8.281 -0.5984  0.1504 -0.0532
  495MOL0     C65254   9.183   0.682   8.146  0.2039 -0.1102 -0.7994
  495MOL0     O65255   9.288   0.838   7.945 -0.4999 -0.1341  0.4653
  495MOL0     C65256   9.223   0.631   7.659  0.0564 -1.0356  0.7552
  495MOL0     C65257   9.234   0.636   7.520 -0.0643 -0.3691 -0.7173
  495MOL0     N65258   9.552   1.162   7.016 -0.6627 -0.1074  0.1482
  495MOL0     N65259   9.578   1.245   6.923 -0.1468  0.0564  0.6710
  495MOL0     C65260   8.623   1.370   6.685  0.3440 -0.7289 -0.1432
  495MOL0     C65261   8.541   1.279   6.762  0.2403 -0.3702 -0.2187
  495MOL0     C65262   8.333   0.861   6.811 -0.5270 -0.1724 -0.4432
  495MOL0     C65263   8.324   0.761   6.912  0.3114 -1.2620  0.3500
  495MOL0     C65264   8.217   0.674   6.906 -1.5174  1.0449  0.7881
  495MOL0     C65265   8.128   0.660   6.796  0.1622  0.0071 -0.2309
  495MOL0     O65266   8.026   0.561   6.785  0.0714 -0.7976 -0.1040
  495MOL0     C65267   7.972   0.505   6.908 -0.3925 -0.5098 -0.3728
  495MOL0     C65268   7.846   0.418   6.904  0.3494 -0.5276 -0.6680
  495MOL0     C65269   7.713   0.494   6.903 -0.1669  0.3313 -0.8393
  495MOL0     C65270   7.605   0.433   6.992  0.7776  0.3937 -0.2573
  495MOL0     C65271   7.490   0.525   6.979 -0.2024  0.3306  0.1799
  495MOL0     C65272   7.398   0.601   6.955  0.4897  1.8304 -0.1874
  495MOL0     C65273   8.140   0.756   6.693  0.0676 -0.2048  0.3033
  495MOL0     C65274   8.240   0.858   6.700 -0.3804 -0.2681 -0.0349
  495MOL0     H65275   8.516   1.033   6.544 -0.6135 -0.8705  1.7056
  495MOL0     H65276   8.686   1.173   6.420  3.8857  0.5855  2.2614
  495MOL0     H65277   8.937   1.374   6.596  0.6680 -6.1213 -1.4531
  495MOL0     H65278   8.934   1.504   6.457 -1.4521 -0.1677 -2.9573
  495MOL0     H65279   8.926   1.300   6.309 -0.6894  2.0230  0.2927
  495MOL0     H65280   8.937   1.206   6.465  0.4187 -0.4493 -1.1587
  495MOL0     H65281   9.159   1.377   6.347  0.3749  0.1359  2.1867
  495MOL0     H65282   9.131   1.203   6.335  0.4040 -0.3787  1.5818
  495MOL0     H65283   9.171   1.347   6.597  1.0694  0.3131  1.2796
  495MOL0     H65284   9.155   1.176   6.577 -1.2466  0.6224  0.6413
  495MOL0     H65285   9.361   1.341   6.424  0.3353 -0.6785 -0.7268
  495MOL0     H65286   9.357   1.169   6.430 -1.5500 -0.1163 -0.3385
  495MOL0     H65287   9.391   1.198   6.706  2.1429 -0.5732  1.5837
  495MOL0     H65288   9.442   1.357   6.646  0.1780 -0.0087  0.6973
  495MOL0     H65289   9.571   1.085   6.591  3.1986 -0.1869 -0.9365
  495MOL0     H65290   9.618   1.221   6.497 -0.9863 -0.6720  0.3508
  495MOL0     H65291   9.697   1.338   6.696  0.2537  0.4662  0.3366
  495MOL0     H65292   9.769   1.181   6.664  0.4337  1.9759 -1.3885
  495MOL0     H65293   9.697   0.963   6.804 -1.2679  0.4154 -2.5046
  495MOL0     H65294   9.630   0.817   6.996  4.1572  2.3309 -0.0565
  495MOL0     H65295   9.473   0.889   7.005  0.0218  1.4619 -1.4612
  495MOL0     H65296   9.552   0.990   7.232  0.7335 -0.5769  0.9923
  495MOL0     H65297   9.694   0.871   7.218  0.5937 -0.4767 -1.1229
  495MOL0     H65298   9.533   0.679   7.227  1.1785 -2.3733  4.3773
  495MOL0     H65299   9.514   0.775   7.374  0.1937  2.1548 -0.1657
  495MOL0     H65300   9.323   0.794   7.132  0.8702 -1.9785 -0.9781
  495MOL0     H65301   9.349   0.913   7.265  0.4493 -0.1250  0.3955
  495MOL0     H65302   9.265   0.957   7.456 -0.9772  0.3683  0.7979
  495MOL0     H65303   9.297   0.960   7.726 -1.9072 -0.0190  0.5070
  495MOL0     H65304   9.333   0.405   8.046  0.2821 -0.4547  0.2020
  495MOL0     H65305   9.306   0.348   8.306 -1.1800  0.6894  3.6674
  495MOL0     H65306   9.177   0.424   8.643 -0.0788 -1.4115 -0.2591
  495MOL0     H65307   9.224   0.328   8.503 -2.6670 -1.5449 -1.8699
  495MOL0     H65308   8.997   0.279   8.562 -1.6705  0.5783  0.1675
  495MOL0     H65309   8.998   0.368   8.413  0.3043 -0.4452  0.7394
  495MOL0     H65310   8.939   0.476   8.691 -1.3422 -1.0428  0.4955
  495MOL0     H65311   8.809   0.439   8.573 -0.7564  0.4106 -3.2031
  495MOL0     H65312   9.010   0.656   8.532 -1.1849 -0.8061  0.8228
  495MOL0     H65313   8.886   0.602   8.419 -1.6198  1.8855 -0.3130
  495MOL0     H65314   8.831   0.790   8.559 -1.8027  0.1489 -0.1476
  495MOL0     H65315   8.830   0.673   8.702 -1.5148 -0.9947 -0.0954
  495MOL0     H65316   8.615   0.578   8.606 -1.2809 -1.1597 -3.7747
  495MOL0     H65317   8.659   0.652   8.450  0.9720  0.0082  0.6553
  495MOL0     H65318   8.556   0.783   8.692  1.7961 -0.2713 -0.0082
  495MOL0     H65319   8.597   0.860   8.538 -0.5402  0.7401  1.3936
  495MOL0     H65320   8.376   0.653   8.558 -3.7213  2.2960 -1.1071
  495MOL0     H65321   8.449   0.703   8.405 -1.1355  2.0148 -1.0381
  495MOL0     H65322   9.122   0.725   8.350 -0.8917 -1.1714  1.0659
  495MOL0     H65323   9.151   0.777   8.104  4.3948  1.8484 -0.1129
  495MOL0     H65324   9.227   0.530   7.696  2.6472 -1.0499  0.6498
  495MOL0     H65325   9.226   0.542   7.465 -0.4400 -0.4719 -0.4902
  495MOL0     H65326   8.635   1.478   6.692  1.6270  0.0937 -7.3501
  495MOL0     H65327   8.493   1.305   6.855  0.7181 -1.3801  0.3212
  495MOL0     H65328   8.387   0.758   7.000 -0.2288  2.2308  0.9982
  495MOL0     H65329   8.219   0.613   6.996  2.3779  1.8357  1.4506
  495MOL0     H65330   7.952   0.584   6.980 -2.8817 -2.2583  1.0013
  495MOL0     H65331   8.045   0.432   6.945  4.1262  3.7584  0.1485
  495MOL0     H65332   7.851   0.350   6.818 -3.8092  0.6488 -2.0758
  495MOL0     H65333   7.846   0.344   6.985  0.6998 -0.9069 -1.0103
  495MOL0     H65334   7.676   0.494   6.800 -1.1808 -2.3645 -0.5355
  495MOL0     H65335   7.729   0.593   6.948  0.7001 -1.1862  2.4813
  495MOL0     H65336   7.572   0.332   6.965  1.7105  0.2637 -0.9591
  495MOL0     H65337   7.627   0.421   7.099  1.3152 -1.0917 -0.5074
  495MOL0     H65338   7.318   0.657   6.914  1.9369  2.5626 -2.1690
  495MOL0     H65339   8.066   0.748   6.613 -0.0163 -1.0423  0.4509
  495MOL0     H65340   8.224   0.940   6.630 -4.1603  0.4224  1.4034
  496MOL0     O65341   4.351  11.016   5.136 -0.4779 -0.1181  0.1956
  496MOL0     C65342   4.375  11.065   5.025  0.7516 -0.0681  0.2214
  496MOL0     O65343   4.494  11.055   4.960  0.9043  1.0281  0.5795
  496MOL0     C65344   4.597  10.991   5.020 -0.3626 -0.3752 -0.8748
  496MOL0     C65345   4.643  10.875   4.969 -1.1755  0.2054 -0.5018
  496MOL0     C65346   4.762  10.817   5.022 -1.0466  0.4467  0.2201
  496MOL0     C65347   4.838  10.876   5.122 -0.1426 -0.9373  0.3041
  496MOL0     O65348   4.964  10.835   5.144 -0.7755 -0.3017  0.6596
  496MOL0     C65349   5.011  10.864   5.280 -0.5611  0.6504  0.0316
  496MOL0     C65350   5.111  10.756   5.309 -0.4812  0.8392 -0.5519
  496MOL0     C65351   5.173  10.751   5.449  0.1475 -0.8818  0.3673
  496MOL0     C65352   5.254  10.631   5.485 -0.7915  0.0723  0.0042
  496MOL0     C65353   5.178  10.522   5.557  0.4287 -0.3505 -0.4193
  496MOL0     C65354   5.150  10.548   5.710  0.1529  0.0606  0.1950
  496MOL0     C65355   5.110  10.413   5.775 -0.1911 -0.6220 -1.0635
  496MOL0     C65356   5.010  10.435   5.886  0.0750 -0.2116 -0.2813
  496MOL0     N65357   5.027  10.561   5.963 -0.3976  0.1307 -0.5400
  496MOL0     C65358   5.105  10.577   6.074  0.1840  0.4928 -0.0070
  496MOL0     C65359   5.067  10.704   6.124 -0.0100 -0.2399  0.0995
  496MOL0     C65360   5.139  10.777   6.234 -0.2200 -0.5612  0.2578
  496MOL0     C65361   5.038  10.804   6.350 -0.6793  0.1700 -0.4673
  496MOL0     C65362   5.110  10.877   6.459  0.0525  0.0270 -0.0626
  496MOL0     C65363   5.023  10.897   6.581  0.1928 -0.0795 -0.5053
  496MOL0     O65364   4.923  11.005   6.557 -0.2013  0.2702  0.4723
  496MOL0     C65365   4.796  10.986   6.608  0.2458 -0.1244  0.0196
  496MOL0     C65366   4.683  11.021   6.536 -1.2456  0.1850 -0.3962
  496MOL0     C65367   4.551  11.008   6.589 -0.3570 -0.2332 -0.2588
  496MOL0     C65368   4.539  10.954   6.719  0.4337 -0.4656  0.9453
  496MOL0     C65369   4.401  10.926   6.773  0.3302 -0.4023  0.2185
  496MOL0     O65370   4.298  10.940   6.691  0.4341  0.0372 -0.1913
  496MOL0     C65371   4.174  10.909   6.745 -0.3005 -0.7347  1.1833
  496MOL0     C65372   4.127  10.776   6.763 -0.3430 -0.0090  0.9336
  496MOL0     C65373   3.997  10.755   6.810 -0.1369  0.2854 -1.0949
  496MOL0     C65374   3.908  10.866   6.851 -0.4880  0.5979  0.0251
  496MOL0     O65375   3.791  10.843   6.921  0.7238 -0.0304 -0.5569
  496MOL0     C65376   3.713  10.960   6.961 -0.1623 -0.3727  0.4148
  496MOL0     C65377   3.575  10.919   7.016  0.6475 -0.5515  0.7432
  496MOL0     C65378   3.514  11.033   7.091  0.4587  0.2878 -0.1371
  496MOL0     C65379   3.447  11.126   6.993 -0.3838  0.4933  0.7103
  496MOL0     C65380   3.349  11.232   7.053 -0.2098  1.3047  0.5186
  496MOL0     C65381   3.331  11.349   6.956  1.3321 -0.3878  0.3731
  496MOL0     C65382   3.194  11.337   6.880  0.2771 -0.9262 -0.3211
  496MOL0     C65383   3.069  11.363   6.982 -1.2655  0.1043  0.6352
  496MOL0    Cl65384   2.913  11.371   6.887  0.2310 -0.4350 -0.2732
  496MOL0     C65385   3.957  10.996   6.824 -0.0656  0.2445  0.3704
  496MOL0     C65386   4.085  11.017   6.774  0.6024 -0.9907  0.7762
  496MOL0     O65387   4.397  10.884   6.890  1.7059  0.4919 -0.5356
  496MOL0     C65388   4.648  10.916   6.790  0.1274  0.2551  0.0891
  496MOL0     C65389   4.777  10.926   6.734  0.1474  0.7298 -0.8818
  496MOL0     N65390   4.966  10.749   6.042  0.1358 -0.4361  0.0870
  496MOL0     N65391   4.944  10.661   5.957  0.5633 -0.0637  0.0066
  496MOL0     C65392   4.789  10.995   5.182  0.3457 -0.6956  0.6468
  496MOL0     C65393   4.667  11.050   5.132 -0.6292 -0.2189 -0.7512
  496MOL0     C65394   4.272  11.149   4.958  0.8583 -0.5347  0.2985
  496MOL0     C65395   4.300  11.218   4.842 -0.7579 -0.0058  0.7141
  496MOL0     C65396   4.206  11.277   4.772  0.8305 -0.9370  0.3206
  496MOL0     C65397   4.072  11.276   4.812 -0.5649 -0.2060  0.7215
  496MOL0     O65398   3.972  11.337   4.734  0.0672  0.7261 -0.0633
  496MOL0     C65399   3.841  11.280   4.728  0.1377 -0.1455 -0.2798
  496MOL0     C65400   3.771  11.333   4.600 -0.0699  1.1656 -0.2050
  496MOL0     C65401   3.618  11.330   4.582 -0.0392 -0.2815 -0.1928
  496MOL0     C65402   3.565  11.428   4.478  0.3985 -0.2944  0.2760
  496MOL0     C65403   3.536  11.557   4.540 -0.1553 -0.0710  0.3005
  496MOL0     C65404   3.522  11.671   4.588  0.1423 -0.6587  0.3617
  496MOL0     C65405   4.049  11.224   4.938 -1.2992  0.3337  0.1630
  496MOL0     C65406   4.143  11.150   5.008  0.0991  0.5695  0.5246
  496MOL0     H65407   4.589  10.825   4.890  0.1733 -1.5112 -0.4028
  496MOL0     H65408   4.795  10.723   4.979 -2.3890 -0.5603  1.2988
  496MOL0     H65409   4.937  10.853   5.360  0.4837  4.6978  1.7952
  496MOL0     H65410   5.061  10.960   5.290  1.0830 -0.0344 -1.1728
  496MOL0     H65411   5.187  10.778   5.233 -0.4458  1.5602 -0.3166
  496MOL0     H65412   5.062  10.659   5.300 -2.2050  1.6373 -0.1281
  496MOL0     H65413   5.102  10.761   5.532  1.3870 -3.1366  1.7767
  496MOL0     H65414   5.227  10.846   5.459 -3.8768  1.7390 -0.1425
  496MOL0     H65415   5.294  10.591   5.391 -0.2682  2.5391 -0.8916
  496MOL0     H65416   5.340  10.662   5.545 -1.9487  3.0964  0.2418
  496MOL0     H65417   5.242  10.434   5.552 -4.5619 -4.3374 -1.0858
  496MOL0     H65418   5.080  10.522   5.509  1.4212 -1.7728 -2.6036
  496MOL0     H65419   5.075  10.628   5.713  1.1556  1.1428 -1.5591
  496MOL0     H65420   5.237  10.589   5.763  0.1027  0.0529  0.2820
  496MOL0     H65421   5.055  10.350   5.705  2.0732 -3.0394 -0.8246
  496MOL0     H65422   5.184  10.348   5.822 -0.9216 -3.4018 -3.4660
  496MOL0     H65423   5.015  10.348   5.952  1.7844 -0.5233 -0.7710
  496MOL0     H65424   4.911  10.437   5.839 -0.4242 -2.3079  0.5596
  496MOL0     H65425   5.190  10.520   6.110 -1.2998 -1.2405  0.8813
  496MOL0     H65426   5.164  10.877   6.196  1.2083 -1.8687 -2.5096
  496MOL0     H65427   5.233  10.729   6.262  1.0369  0.9330 -1.1741
  496MOL0     H65428   4.999  10.708   6.387  1.7652 -2.1794 -3.4334
  496MOL0     H65429   4.956  10.864   6.311  1.2097  0.6156 -4.1947
  496MOL0     H65430   5.198  10.817   6.484 -1.4884 -3.2184 -1.8750
  496MOL0     H65431   5.136  10.976   6.420  2.7959  0.3993  2.3511
  496MOL0     H65432   5.080  10.934   6.667 -0.9152  0.8021 -0.1362
  496MOL0     H65433   4.972  10.802   6.601 -2.7425  1.4716 -0.1842
  496MOL0     H65434   4.695  11.043   6.430  1.1534  2.6522  0.2685
  496MOL0     H65435   4.463  11.026   6.528 -0.4369  0.5659  0.0881
  496MOL0     H65436   4.190  10.694   6.732 -2.6244 -1.1731 -1.0082
  496MOL0     H65437   3.976  10.650   6.823  2.7902 -0.5796 -2.4459
  496MOL0     H65438   3.687  11.017   6.871  0.4043 -0.2122  0.3488
  496MOL0     H65439   3.765  11.024   7.034 -0.1753 -1.3198  1.2676
  496MOL0     H65440   3.579  10.840   7.091  1.8791 -0.4247  0.8304
  496MOL0     H65441   3.510  10.889   6.933 -0.3149  0.1256  1.2236
  496MOL0     H65442   3.585  11.078   7.161 -1.6309  0.7174  1.8439
  496MOL0     H65443   3.441  10.987   7.158 -0.5383  0.4718 -1.0715
  496MOL0     H65444   3.524  11.178   6.936 -1.3131  0.1871 -0.9005
  496MOL0     H65445   3.385  11.067   6.925  1.0716 -1.3210  0.8721
  496MOL0     H65446   3.402  11.255   7.146  1.5346  0.3881 -0.2056
  496MOL0     H65447   3.250  11.190   7.073 -1.3706  4.5667  2.5344
  496MOL0     H65448   3.416  11.360   6.888  1.7892 -0.9743  0.8462
  496MOL0     H65449   3.313  11.441   7.012 -1.8478 -0.1944 -0.7736
  496MOL0     H65450   3.198  11.405   6.795  0.8308 -2.9890 -2.0496
  496MOL0     H65451   3.186  11.233   6.845  3.4761 -1.3384 -0.1930
  496MOL0     H65452   3.085  11.458   7.035  3.7491  0.1551 -0.5295
  496MOL0     H65453   3.066  11.279   7.052 -0.8621 -0.8207 -0.4397
  496MOL0     H65454   3.902  11.087   6.845  2.6757  1.6103  2.4362
  496MOL0     H65455   4.113  11.118   6.747 -0.2393 -1.2698 -1.3862
  496MOL0     H65456   4.635  10.873   6.889  3.6828 -1.2806  0.0043
  496MOL0     H65457   4.871  10.893   6.779 -0.7879  0.2233  0.7712
  496MOL0     H65458   4.842  11.055   5.255  1.5855  0.2206 -0.9305
  496MOL0     H65459   4.635  11.145   5.173 -0.9284  0.5625 -2.7057
  496MOL0     H65460   4.403  11.217   4.810 -0.7722 -2.7506  0.5229
  496MOL0     H65461   4.227  11.340   4.686 -2.4068 -1.0943 -0.7076
  496MOL0     H65462   3.786  11.306   4.819  2.1574 -0.9649  1.2516
  496MOL0     H65463   3.845  11.171   4.731 -1.9459 -0.2552  0.7676
  496MOL0     H65464   3.796  11.439   4.591 -0.6428  1.2456 -0.9047
  496MOL0     H65465   3.804  11.259   4.527 -0.0317  0.6345  0.3379
  496MOL0     H65466   3.565  11.359   4.674  0.4735  2.2234 -0.6150
  496MOL0     H65467   3.586  11.227   4.565  1.4961 -0.9740  0.8780
  496MOL0     H65468   3.643  11.442   4.402  2.2552 -2.1746  1.7222
  496MOL0     H65469   3.472  11.393   4.433  0.8661  3.0426 -4.0191
  496MOL0     H65470   3.511  11.765   4.638 -0.0983  0.7906 -2.2473
  496MOL0     H65471   3.955  11.232   4.991  0.0204  1.6821  2.4521
  496MOL0     H65472   4.129  11.114   5.110  1.3738 -0.8837  0.2248
  497MOL0     O65473   8.049   3.449   5.691 -1.0618 -0.3626  0.0003
  497MOL0     C65474   8.165   3.477   5.723 -0.3684 -0.1657 -0.1173
  497MOL0     O65475   8.202   3.529   5.842 -0.3577  0.2638  0.3298
  497MOL0     C65476   8.103   3.523   5.932 -0.5597  0.3096 -1.0260
  497MOL0     C65477   8.013   3.625   5.946  0.6395  0.0102 -0.0168
  497MOL0     C65478   7.905   3.606   6.029  0.5868 -0.8613 -0.4368
  497MOL0     C65479   7.916   3.512   6.127 -0.3285  0.4778 -0.4149
  497MOL0     O65480   7.820   3.489   6.220 -0.2153  0.0333  0.4127
  497MOL0     C65481   7.716   3.583   6.243  0.0357 -0.7362 -0.4729
  497MOL0     C65482   7.626   3.520   6.352  0.5922 -0.2588 -0.5218
  497MOL0     C65483   7.550   3.636   6.415 -0.3564  0.3009 -0.0645
  497MOL0     C65484   7.462   3.579   6.531 -0.3660 -0.3899  1.0117
  497MOL0     C65485   7.536   3.557   6.658  1.3069  0.5563 -0.1312
  497MOL0     C65486   7.437   3.483   6.751 -0.2395  0.7587 -0.3835
  497MOL0     C65487   7.516   3.431   6.863 -1.0364 -0.4831 -0.6463
  497MOL0     C65488   7.441   3.335   6.963 -0.2557  0.1539  0.8314
  497MOL0     N65489   7.343   3.401   7.043  0.4031 -0.2828 -0.1319
  497MOL0     C65490   7.205   3.409   7.033 -0.7563  0.2729  0.6006
  497MOL0     C65491   7.162   3.518   7.105 -0.6844 -0.1931  0.4689
  497MOL0     C65492   7.031   3.577   7.147  0.8269  0.0909  0.3317
  497MOL0     C65493   6.995   3.533   7.292  0.2783  0.8391 -0.3330
  497MOL0     C65494   6.994   3.633   7.405 -0.5784  0.4878 -0.5573
  497MOL0     C65495   7.134   3.699   7.423 -0.3113 -0.7511 -1.1438
  497MOL0     O65496   7.122   3.797   7.528  0.2830  0.0160 -0.2990
  497MOL0     C65497   7.129   3.749   7.651  0.1588 -0.8306  0.0004
  497MOL0     C65498   7.021   3.774   7.739  0.2652  0.4784 -0.1071
  497MOL0     C65499   7.030   3.753   7.875  0.2123  0.1594  0.1763
  497MOL0     C65500   7.150   3.691   7.934 -0.5018  0.2556  0.1309
  497MOL0     C65501   7.166   3.653   8.073  0.8489  0.5217  0.8593
  497MOL0     O65502   7.227   3.539   8.102 -0.5307  0.4289  0.1927
  497MOL0     C65503   7.238   3.486   8.229  0.1042 -0.3744 -0.3928
  497MOL0     C65504   7.157   3.515   8.340  0.6592 -0.0690  0.6399
  497MOL0     C65505   7.190   3.466   8.471 -0.8668 -0.2044  0.5400
  497MOL0     C65506   7.301   3.388   8.492  0.6836  1.6440  0.1862
  497MOL0     O65507   7.350   3.329   8.610  0.4387  0.7149 -0.4597
  497MOL0     C65508   7.261   3.318   8.722 -0.5409 -0.3800 -0.6869
  497MOL0     C65509   7.151   3.209   8.724 -0.5405  0.2380  0.1567
  497MOL0     C65510   7.035   3.236   8.822 -0.0852  0.1011 -0.2280
  497MOL0     C65511   6.922   3.142   8.784 -0.3421  0.4663 -0.0437
  497MOL0     C65512   6.841   3.191   8.655 -1.2098  0.7061 -0.1825
  497MOL0     C65513   6.794   3.333   8.673 -0.5262 -0.0314  0.4667
  497MOL0     C65514   6.716   3.388   8.552  0.0372  0.4903  0.0805
  497MOL0     C65515   6.802   3.485   8.462  0.2855 -0.4457 -2.2432
  497MOL0    Cl65516   6.684   3.500   8.328 -0.3996  0.5041 -0.0267
  497MOL0     C65517   7.370   3.351   8.377  0.0158 -0.6699  0.2385
  497MOL0     C65518   7.345   3.407   8.247 -0.9527  0.6701 -0.1776
  497MOL0     O65519   7.127   3.740   8.156 -0.4591 -0.3346  0.3456
  497MOL0     C65520   7.248   3.651   7.836  0.2412 -0.0200  0.2727
  497MOL0     C65521   7.236   3.688   7.705 -0.3656 -0.6247  0.4893
  497MOL0     N65522   7.278   3.555   7.175  0.3131  0.9045  0.0386
  497MOL0     N65523   7.383   3.493   7.134  0.0508 -0.0764  0.0622
  497MOL0     C65524   8.022   3.431   6.136  0.3897  0.7890  0.4394
  497MOL0     C65525   8.115   3.430   6.032 -0.5745  0.5311 -0.4584
  497MOL0     C65526   8.261   3.466   5.607  0.3636 -0.0514  0.7228
  497MOL0     C65527   8.402   3.492   5.622  0.1420 -0.1994  0.3075
  497MOL0     C65528   8.488   3.465   5.516  1.0072  0.7120 -0.6160
  497MOL0     C65529   8.431   3.439   5.384 -0.4659  0.0986  0.2733
  497MOL0     O65530   8.512   3.408   5.280 -0.0190  0.5440  0.7188
  497MOL0     C65531   8.529   3.522   5.188 -0.3677 -0.6543 -0.7890
  497MOL0     C65532   8.679   3.547   5.176  0.4781 -0.1968  0.7876
  497MOL0     C65533   8.718   3.556   5.028 -0.3053  1.4656 -0.1263
  497MOL0     C65534   8.829   3.462   4.985 -0.2841  0.7288  0.6700
  497MOL0     C65535   8.963   3.492   5.053 -0.1908 -0.0283 -0.1009
  497MOL0     C65536   9.053   3.528   5.116  0.6192 -0.0511  0.2041
  497MOL0     C65537   8.293   3.412   5.374 -0.5470 -0.2525  0.5650
  497MOL0     C65538   8.208   3.439   5.476 -0.0895  0.0943  0.8602
  497MOL0     H65539   8.023   3.706   5.874  1.1044 -2.4369 -2.8989
  497MOL0     H65540   7.827   3.682   6.031 -0.3106 -1.7486 -0.8184
  497MOL0     H65541   7.648   3.608   6.161 -0.1251 -0.0633 -0.1414
  497MOL0     H65542   7.767   3.674   6.275 -3.5430  1.0272  0.7821
  497MOL0     H65543   7.697   3.487   6.428  0.1682  4.2180  2.2103
  497MOL0     H65544   7.565   3.443   6.304 -1.1585  2.6232 -3.3499
  497MOL0     H65545   7.490   3.696   6.346 -0.3201  0.1118 -0.2616
  497MOL0     H65546   7.633   3.699   6.449  1.3943 -1.5419 -0.7592
  497MOL0     H65547   7.381   3.653   6.534 -1.2848 -1.2399 -1.1509
  497MOL0     H65548   7.416   3.487   6.493 -2.1236  0.6077  0.5760
  497MOL0     H65549   7.578   3.653   6.691  1.0181  0.0395  1.8298
  497MOL0     H65550   7.613   3.484   6.631 -0.0822 -0.0422 -2.8030
  497MOL0     H65551   7.394   3.401   6.692  0.3841 -1.4922  2.0935
  497MOL0     H65552   7.345   3.533   6.783 -1.0675 -0.3007 -1.0386
  497MOL0     H65553   7.601   3.379   6.818 -0.3118 -0.6492  0.8796
  497MOL0     H65554   7.554   3.516   6.919 -1.0911  0.9435 -2.6469
  497MOL0     H65555   7.509   3.286   7.034  1.8885  0.8980 -0.6079
  497MOL0     H65556   7.388   3.254   6.911  1.9891 -2.5560  2.4806
  497MOL0     H65557   7.130   3.346   6.988 -0.7980 -1.0248  2.3854
  497MOL0     H65558   6.954   3.549   7.074  0.5346  0.1544  0.6109
  497MOL0     H65559   7.051   3.685   7.156 -2.5214  0.9239 -0.5734
  497MOL0     H65560   7.064   3.452   7.321 -2.3056 -2.2789 -2.1663
  497MOL0     H65561   6.896   3.487   7.300  0.9119 -1.5370 -3.9355
  497MOL0     H65562   6.912   3.705   7.399 -0.0648  1.0025 -1.7678
  497MOL0     H65563   6.970   3.572   7.492 -1.4783 -0.7393 -1.6228
  497MOL0     H65564   7.168   3.744   7.329  1.2978  1.2596  0.3273
  497MOL0     H65565   7.198   3.618   7.458  1.8455  1.6329  0.7708
  497MOL0     H65566   6.928   3.798   7.689  0.1793  0.6663  0.1388
  497MOL0     H65567   6.956   3.773   7.952  1.9309 -0.4695  2.0645
  497MOL0     H65568   7.065   3.572   8.335 -0.1742 -1.0677  2.8605
  497MOL0     H65569   7.126   3.509   8.547 -3.4588 -0.7299 -1.2196
  497MOL0     H65570   7.219   3.417   8.741  0.9051  1.0538 -4.0981
  497MOL0     H65571   7.323   3.303   8.811  1.1101 -0.4917 -1.8095
  497MOL0     H65572   7.189   3.108   8.742 -0.6305  0.2059  0.1675
  497MOL0     H65573   7.114   3.213   8.621  0.1821  1.2713 -0.0732
  497MOL0     H65574   7.006   3.341   8.817 -2.4942 -0.4655  0.5865
  497MOL0     H65575   7.073   3.213   8.922  2.0476  2.5910 -0.3670
  497MOL0     H65576   6.953   3.038   8.780 -2.3340 -0.1738  0.1138
  497MOL0     H65577   6.868   3.157   8.877  3.9751  4.1891  2.3011
  497MOL0     H65578   6.760   3.119   8.641 -1.1569  1.1123 -3.4114
  497MOL0     H65579   6.903   3.177   8.566 -1.9939  0.7510 -0.7406
  497MOL0     H65580   6.878   3.403   8.676  0.4033 -1.1368  0.8800
  497MOL0     H65581   6.744   3.346   8.769  0.0176  2.2626  0.4916
  497MOL0     H65582   6.683   3.305   8.488 -1.7546  1.2491 -0.0370
  497MOL0     H65583   6.624   3.443   8.575  0.0300  1.1056 -1.3469
  497MOL0     H65584   6.890   3.431   8.428  0.6102 -0.8286 -0.8208
  497MOL0     H65585   6.818   3.573   8.525  1.2573 -1.1768 -1.4436
  497MOL0     H65586   7.459   3.289   8.385 -1.1308 -2.6588 -1.2986
  497MOL0     H65587   7.405   3.377   8.162 -1.3038  1.4585 -0.7143
  497MOL0     H65588   7.336   3.597   7.869  0.9912  0.9410 -0.1305
  497MOL0     H65589   7.324   3.661   7.648  0.5046 -0.9306  1.9340
  497MOL0     H65590   8.023   3.349   6.206 -0.9473 -0.4602 -0.9528
  497MOL0     H65591   8.177   3.343   6.015 -4.0256 -2.1572 -0.5051
  497MOL0     H65592   8.438   3.522   5.720  0.3653  3.3864 -0.7202
  497MOL0     H65593   8.596   3.461   5.527  0.8384  0.7453  1.3745
  497MOL0     H65594   8.485   3.616   5.224 -0.1389 -0.6775 -0.4427
  497MOL0     H65595   8.481   3.497   5.093  1.9532 -1.4706 -1.8149
  497MOL0     H65596   8.717   3.640   5.219  6.7655 -1.5184 -0.8357
  497MOL0     H65597   8.728   3.467   5.232  0.3004  0.9996  2.7528
  497MOL0     H65598   8.764   3.655   5.028  0.8571  0.9500 -0.6042
  497MOL0     H65599   8.628   3.560   4.965  0.7026 -1.6583 -1.9991
  497MOL0     H65600   8.808   3.357   5.010 -0.6960  0.6603  0.0482
  497MOL0     H65601   8.844   3.467   4.877 -0.7471 -1.2231  0.4782
  497MOL0     H65602   9.127   3.583   5.171 -0.2123  0.4135  0.8813
  497MOL0     H65603   8.268   3.373   5.276  5.3207 -4.0785  0.0982
  497MOL0     H65604   8.105   3.422   5.445  0.3315 -0.5069 -0.2904
  498MOL0     O65605   8.456   1.729   0.964  0.1725  0.4726 -0.5195
  498MOL0     C65606   8.416   1.617   0.922 -0.2903 -1.7130 -0.2811
  498MOL0     O65607   8.500   1.531   0.882  0.0714  0.6322 -0.2366
  498MOL0     C65608   8.627   1.561   0.858 -0.7338 -0.2925  0.0019
  498MOL0     C65609   8.716   1.489   0.933  0.7618  0.7062  0.4631
  498MOL0     C65610   8.856   1.499   0.906 -0.2729 -0.2924 -0.0665
  498MOL0     C65611   8.903   1.602   0.822 -0.4554  0.3735  1.0155
  498MOL0     O65612   9.031   1.639   0.811  0.1982  0.6299  0.4085
  498MOL0     C65613   9.121   1.632   0.927  0.4023 -0.7520  0.0676
  498MOL0     C65614   9.222   1.747   0.930 -0.4173  0.2839 -0.1990
  498MOL0     C65615   9.320   1.748   0.818  0.1140  0.5944  0.7436
  498MOL0     C65616   9.422   1.853   0.842  0.8409 -0.6886  0.3766
  498MOL0     C65617   9.533   1.850   0.741  0.7619 -0.0420  0.3357
  498MOL0     C65618   9.627   1.737   0.755  0.3959  0.1052  0.1422
  498MOL0     C65619   9.660   1.682   0.615 -0.1045 -0.2970  0.2571
  498MOL0     C65620   9.758   1.570   0.625 -0.3391  0.7650 -0.8775
  498MOL0     N65621   9.737   1.479   0.744 -0.1534 -0.0306 -0.4474
  498MOL0     C65622   9.633   1.392   0.746  0.8150 -0.3114 -0.0331
  498MOL0     C65623   9.652   1.318   0.858 -0.1396 -0.1852 -0.2437
  498MOL0     C65624   9.560   1.214   0.900  0.2211  0.0249 -1.2910
  498MOL0     C65625   9.450   1.271   0.993  0.4594  1.0590  0.1974
  498MOL0     C65626   9.339   1.167   1.020  0.6537  0.4936 -0.0045
  498MOL0     C65627   9.209   1.220   1.078 -0.0798  0.3919 -0.7250
  498MOL0     O65628   9.109   1.124   1.049  0.7568  0.5118 -0.6395
  498MOL0     C65629   8.974   1.142   1.081 -0.4720  0.7232 -0.8400
  498MOL0     C65630   8.919   1.258   1.143 -0.4589 -0.3414  0.9686
  498MOL0     C65631   8.785   1.263   1.176 -0.7830 -1.2581 -0.1616
  498MOL0     C65632   8.698   1.157   1.142 -0.1446 -0.0531 -0.5247
  498MOL0     C65633   8.558   1.173   1.164  0.8132 -0.9633 -0.0508
  498MOL0     O65634   8.513   1.295   1.218  0.1445 -0.4939  0.1676
  498MOL0     C65635   8.387   1.347   1.220  0.1257 -0.1666 -0.7739
  498MOL0     C65636   8.365   1.476   1.260 -0.2739 -0.1653 -1.5275
  498MOL0     C65637   8.241   1.538   1.241 -1.4942 -0.1601  0.9418
  498MOL0     C65638   8.133   1.474   1.189 -0.7446  0.1536 -0.8375
  498MOL0     O65639   8.014   1.540   1.169 -0.4776  0.2835  0.5008
  498MOL0     C65640   7.973   1.611   1.291  0.3987 -0.2335  0.2820
  498MOL0     C65641   7.834   1.685   1.274 -0.2814  0.0469 -0.0816
  498MOL0     C65642   7.743   1.629   1.158 -0.0916 -0.1005  0.3879
  498MOL0     C65643   7.611   1.694   1.153  0.6554  0.0595 -0.0026
  498MOL0     C65644   7.489   1.608   1.170  1.2063  0.2980  0.4509
  498MOL0     C65645   7.475   1.519   1.291  0.1972 -1.4542 -0.1820
  498MOL0     C65646   7.357   1.427   1.279  0.5412  0.4740  0.3623
  498MOL0     C65647   7.358   1.304   1.382  0.6798  0.2002 -0.8565
  498MOL0    Cl65648   7.190   1.239   1.391  0.2253  0.0188  0.2107
  498MOL0     C65649   8.147   1.341   1.159  0.0667 -0.3488  0.7974
  498MOL0     C65650   8.275   1.279   1.162  0.6178 -0.0800 -0.2858
  498MOL0     O65651   8.486   1.077   1.145  0.1247  1.0887  0.0817
  498MOL0     C65652   8.754   1.042   1.083 -0.3263 -0.1707  1.3491
  498MOL0     C65653   8.886   1.034   1.051 -0.6137  0.1253 -0.5089
  498MOL0     N65654   9.765   1.366   0.924  0.5332  0.2159 -0.5350
  498MOL0     N65655   9.815   1.465   0.856  0.1977 -0.2329 -0.6530
  498MOL0     C65656   8.811   1.678   0.756 -0.1736 -0.4815  0.6262
  498MOL0     C65657   8.674   1.657   0.768 -0.2186 -0.7219 -0.7474
  498MOL0     C65658   8.267   1.624   0.888  0.0065 -0.4147 -0.6375
  498MOL0     C65659   8.212   1.532   0.795  0.1364 -0.2507 -0.5344
  498MOL0     C65660   8.072   1.536   0.770  0.0449  0.6659 -0.1247
  498MOL0     C65661   7.991   1.637   0.828 -0.6781  0.8660  0.4811
  498MOL0     O65662   7.850   1.630   0.805 -0.0598  0.2887 -0.3856
  498MOL0     C65663   7.789   1.536   0.719  0.2925  0.4333 -0.4570
  498MOL0     C65664   7.652   1.607   0.684  0.7649 -0.6108 -0.2731
  498MOL0     C65665   7.535   1.543   0.759  0.0796 -0.0341  0.4393
  498MOL0     C65666   7.414   1.640   0.746 -0.2480  0.3099  0.1880
  498MOL0     C65667   7.298   1.577   0.806  0.9652 -0.7295  0.4330
  498MOL0     C65668   7.197   1.534   0.854 -0.6163  0.1736  0.7429
  498MOL0     C65669   8.049   1.729   0.913  0.1265 -0.0102  0.6556
  498MOL0     C65670   8.192   1.728   0.944  0.7425 -0.1244 -0.8665
  498MOL0     H65671   8.682   1.420   1.010  1.1457  1.2554  1.1449
  498MOL0     H65672   8.924   1.435   0.963  0.6156  1.8836  1.4314
  498MOL0     H65673   9.170   1.536   0.943 -0.7214 -0.8221  4.3075
  498MOL0     H65674   9.057   1.651   1.015  1.1929  1.4380  0.2326
  498MOL0     H65675   9.275   1.722   1.023 -1.1566  0.7114  0.3596
  498MOL0     H65676   9.166   1.841   0.935  0.0148  0.5310  0.1280
  498MOL0     H65677   9.276   1.770   0.721 -1.1163  1.2328  1.4248
  498MOL0     H65678   9.367   1.649   0.817  0.6572  0.8348  1.5480
  498MOL0     H65679   9.376   1.952   0.839  0.8796 -0.6659 -2.7218
  498MOL0     H65680   9.469   1.826   0.936  1.7966 -3.0944 -0.7012
  498MOL0     H65681   9.594   1.942   0.740 -0.2226  0.6262  0.3601
  498MOL0     H65682   9.492   1.848   0.639 -1.0986  0.2140  1.0437
  498MOL0     H65683   9.576   1.656   0.808 -1.6387  0.6759 -0.8700
  498MOL0     H65684   9.714   1.757   0.819  0.6108  0.0562 -0.1301
  498MOL0     H65685   9.568   1.646   0.568 -0.0142 -0.6119  0.3183
  498MOL0     H65686   9.681   1.765   0.546 -0.4295 -0.3690  0.0719
  498MOL0     H65687   9.859   1.610   0.624 -1.0267  2.5927 -2.1401
  498MOL0     H65688   9.736   1.504   0.540 -3.0561  1.2467 -0.6371
  498MOL0     H65689   9.548   1.377   0.679 -0.5358  0.4474  1.4486
  498MOL0     H65690   9.627   1.151   0.960  1.3834  1.0119 -1.5073
  498MOL0     H65691   9.513   1.158   0.818 -1.5576 -1.1092  0.4111
  498MOL0     H65692   9.405   1.356   0.941 -1.4369  1.5369  2.4449
  498MOL0     H65693   9.479   1.296   1.096 -2.0463  1.6414  0.8144
  498MOL0     H65694   9.314   1.120   0.924  2.7840 -2.1243  0.5785
  498MOL0     H65695   9.395   1.092   1.076  1.7941  2.2556  1.2983
  498MOL0     H65696   9.189   1.312   1.022 -0.2351 -0.2365 -1.7257
  498MOL0     H65697   9.209   1.223   1.188 -1.0163 -3.0590 -0.5097
  498MOL0     H65698   8.988   1.337   1.169  0.5351 -1.2642  1.2056
  498MOL0     H65699   8.754   1.352   1.229 -1.8353  0.1395 -2.9372
  498MOL0     H65700   8.445   1.546   1.284  1.4578 -2.3248 -0.6391
  498MOL0     H65701   8.254   1.643   1.264  1.5484  0.2387 -1.7852
  498MOL0     H65702   8.041   1.686   1.333 -1.4723  1.9759 -0.4239
  498MOL0     H65703   7.949   1.539   1.369 -5.0138  1.2048  0.3625
  498MOL0     H65704   7.854   1.791   1.256  3.6841 -0.6386 -0.6996
  498MOL0     H65705   7.790   1.693   1.374  0.0054 -0.2027  0.0682
  498MOL0     H65706   7.733   1.521   1.171 -2.6543  0.1156  0.8675
  498MOL0     H65707   7.799   1.659   1.069 -0.3541  1.7449  0.8069
  498MOL0     H65708   7.603   1.778   1.222  1.0436  0.6653 -0.6834
  498MOL0     H65709   7.600   1.734   1.051 -4.3601  1.5172  0.8441
  498MOL0     H65710   7.492   1.532   1.092  0.2529  0.8361 -0.1457
  498MOL0     H65711   7.407   1.681   1.169  1.7198  0.8895  0.9523
  498MOL0     H65712   7.459   1.596   1.367 -1.1431 -1.6892 -0.2023
  498MOL0     H65713   7.571   1.471   1.313  0.9787  0.6623  1.3418
  498MOL0     H65714   7.262   1.480   1.283 -0.9619 -1.8678 -1.4521
  498MOL0     H65715   7.345   1.377   1.183  0.2919 -0.8537  1.0533
  498MOL0     H65716   7.387   1.342   1.481 -2.6797  1.6313 -0.2776
  498MOL0     H65717   7.430   1.230   1.346  1.6571  1.2680 -1.1628
  498MOL0     H65718   8.069   1.293   1.101  0.9762  2.9887 -3.8365
  498MOL0     H65719   8.278   1.178   1.122  0.1707 -0.2995  0.2307
  498MOL0     H65720   8.690   0.955   1.078  2.1596 -2.0322 -0.8601
  498MOL0     H65721   8.942   0.946   1.020  1.8984  2.2561 -2.4523
  498MOL0     H65722   8.856   1.741   0.679 -0.3899 -0.2188  0.7115
  498MOL0     H65723   8.603   1.713   0.706  0.3091  0.2953 -0.4577
  498MOL0     H65724   8.290   1.475   0.747  2.0415  0.7711  1.1652
  498MOL0     H65725   8.033   1.455   0.708  0.2595 -1.3211  2.2039
  498MOL0     H65726   7.782   1.437   0.763 -1.6774  0.3389 -0.8767
  498MOL0     H65727   7.843   1.538   0.623 -0.0719  1.4127 -0.6634
  498MOL0     H65728   7.659   1.715   0.702 -0.7810 -0.2851 -1.4160
  498MOL0     H65729   7.628   1.589   0.579 -0.0270 -2.1984  0.1509
  498MOL0     H65730   7.550   1.530   0.866  2.9633  2.1682  0.4401
  498MOL0     H65731   7.508   1.446   0.715 -0.0860  1.2895 -2.6375
  498MOL0     H65732   7.439   1.729   0.804  1.3781  1.4754 -2.1926
  498MOL0     H65733   7.386   1.674   0.646  1.6340  2.8226  0.4353
  498MOL0     H65734   7.099   1.499   0.879  1.1624 -5.3671  1.4084
  498MOL0     H65735   7.975   1.788   0.966  1.5185  1.9055  0.6163
  498MOL0     H65736   8.230   1.801   1.016  2.4231 -0.9624 -0.8392
  499MOL0     O65737   1.120   5.611   8.200  0.1746  0.6243 -0.3513
  499MOL0     C65738   1.115   5.605   8.323  0.7774  0.2192  0.4854
  499MOL0     O65739   1.174   5.695   8.406 -0.0315  0.2635 -0.8622
  499MOL0     C65740   1.269   5.774   8.357  0.6131 -0.5289 -0.1978
  499MOL0     C65741   1.275   5.896   8.429  0.0910 -0.1861  0.1944
  499MOL0     C65742   1.353   6.002   8.386 -1.0013  0.8831  0.6820
  499MOL0     C65743   1.445   5.987   8.282  1.0733 -0.4420  0.5901
  499MOL0     O65744   1.523   6.104   8.257 -0.6064  0.4859 -0.0089
  499MOL0     C65745   1.572   6.118   8.121 -0.2382 -0.1839  0.0297
  499MOL0     C65746   1.663   6.239   8.124 -0.0008  0.5986 -0.8655
  499MOL0     C65747   1.757   6.219   7.999 -0.1368 -0.1887 -0.5736
  499MOL0     C65748   1.846   6.333   7.984 -0.5794 -0.4573 -0.0549
  499MOL0     C65749   1.932   6.316   7.862 -0.1927 -1.6214  0.2698
  499MOL0     C65750   1.989   6.458   7.824  0.0253  0.1194 -0.0320
  499MOL0     C65751   1.899   6.564   7.763 -0.3557  0.6212 -0.3864
  499MOL0     C65752   1.958   6.691   7.738 -0.7455  0.3436  0.1897
  499MOL0     N65753   1.867   6.794   7.683 -0.3658 -0.2918  0.2455
  499MOL0     C65754   1.799   6.775   7.569 -0.4396 -0.3593 -0.4818
  499MOL0     C65755   1.726   6.887   7.553  0.9630 -1.0568  0.2527
  499MOL0     C65756   1.616   6.913   7.454 -0.4875  0.2000  0.1123
  499MOL0     C65757   1.486   6.946   7.520 -0.5573  0.6356 -0.5397
  499MOL0     C65758   1.437   6.818   7.609 -0.3203 -0.1744  0.2194
  499MOL0     C65759   1.298   6.831   7.675  0.6521 -1.1618 -0.7148
  499MOL0     O65760   1.286   6.709   7.754 -0.3336  0.8007 -0.9730
  499MOL0     C65761   1.158   6.681   7.791 -0.3986  0.2228  0.3855
  499MOL0     C65762   1.080   6.758   7.878 -0.4763  0.2042  0.3410
  499MOL0     C65763   0.960   6.706   7.936 -0.8051  0.9935 -0.3383
  499MOL0     C65764   0.918   6.574   7.898 -0.0306 -1.0937  0.3253
  499MOL0     C65765   0.799   6.510   7.964 -0.0951  0.1472 -0.6349
  499MOL0     O65766   0.773   6.556   8.094 -0.3024  0.3893  0.2035
  499MOL0     C65767   0.658   6.515   8.164 -0.5541  0.1625 -0.4081
  499MOL0     C65768   0.611   6.386   8.171  0.1318 -0.0539 -0.0004
  499MOL0     C65769   0.497   6.355   8.250  0.0491 -0.0758  0.5769
  499MOL0     C65770   0.424   6.456   8.320 -0.4383 -0.0533  0.2158
  499MOL0     O65771   0.305   6.417   8.385 -1.0532  0.2685  0.1462
  499MOL0     C65772   0.224   6.513   8.446  0.1497 -0.4946  0.0181
  499MOL0     C65773   0.154   6.445   8.563  0.3644  0.3160  0.6824
  499MOL0     C65774   0.242   6.364   8.659 -0.0763 -0.8462  0.1306
  499MOL0     C65775   0.360   6.452   8.712  0.2337  0.0607  0.2967
  499MOL0     C65776   0.462   6.375   8.800  0.1456 -0.6657  0.6585
  499MOL0     C65777   0.393   6.303   8.918 -1.0492  0.7635  0.0818
  499MOL0     C65778   0.349   6.387   9.037  0.2147 -0.0636  0.1377
  499MOL0     C65779   0.252   6.311   9.132 -0.2185  0.0776  0.2626
  499MOL0    Cl65780   0.321   6.142   9.181 -0.1572 -0.0825 -0.0025
  499MOL0     C65781   0.476   6.592   8.318  0.1857  0.2882  0.7485
  499MOL0     C65782   0.578   6.617   8.221  0.7238  0.2398  0.2399
  499MOL0     O65783   0.717   6.455   7.894  0.0631 -0.0550 -0.2954
  499MOL0     C65784   0.985   6.505   7.802 -0.1575  0.3895  1.4236
  499MOL0     C65785   1.113   6.556   7.748 -0.3467  0.0864 -0.4338
  499MOL0     N65786   1.748   6.965   7.663  0.3999 -0.6848 -0.0309
  499MOL0     N65787   1.839   6.914   7.738 -0.0159 -0.1465  0.0943
  499MOL0     C65788   1.444   5.869   8.214  0.2146 -1.0869 -0.2325
  499MOL0     C65789   1.354   5.769   8.249  0.5432  1.1870 -0.1570
  499MOL0     C65790   1.019   5.514   8.389 -0.4809 -0.0177 -0.8689
  499MOL0     C65791   0.989   5.530   8.528  0.2455 -0.0461 -1.4075
  499MOL0     C65792   0.896   5.442   8.584 -0.2609  0.0086 -0.2095
  499MOL0     C65793   0.843   5.336   8.519 -0.0978  0.5419 -0.1721
  499MOL0     O65794   0.754   5.264   8.604  0.0197 -0.4953  0.6631
  499MOL0     C65795   0.689   5.155   8.538 -0.5643 -0.9485  0.4288
  499MOL0     C65796   0.591   5.095   8.636 -0.4604 -0.0595 -0.6821
  499MOL0     C65797   0.504   5.204   8.699  0.0384 -0.1506  0.0998
  499MOL0     C65798   0.419   5.283   8.608  0.4885  0.0581  0.2599
  499MOL0     C65799   0.315   5.203   8.545  0.3236  0.1795 -0.0678
  499MOL0     C65800   0.240   5.114   8.495  0.6820 -0.6595 -0.6510
  499MOL0     C65801   0.893   5.311   8.391  0.3020 -0.0287  0.8079
  499MOL0     C65802   0.974   5.406   8.321  0.4559  0.1168  0.3300
  499MOL0     H65803   1.208   5.915   8.512 -0.7507 -0.0278 -0.5019
  499MOL0     H65804   1.358   6.090   8.448 -3.0144 -0.1171  2.4152
  499MOL0     H65805   1.485   6.126   8.056 -0.5825  2.0025  0.6942
  499MOL0     H65806   1.634   6.033   8.089  0.1429  0.0809  0.0547
  499MOL0     H65807   1.730   6.240   8.211 -2.3176  0.9245  0.9923
  499MOL0     H65808   1.609   6.334   8.123 -1.1743  0.0966  2.2969
  499MOL0     H65809   1.693   6.184   7.917  1.5592  0.1264 -2.0867
  499MOL0     H65810   1.817   6.134   8.033  0.6964  0.5020 -0.3158
  499MOL0     H65811   1.786   6.424   7.976  2.0550  1.8104  3.2103
  499MOL0     H65812   1.909   6.332   8.073 -0.3046  0.6242 -0.2149
  499MOL0     H65813   1.874   6.285   7.775 -0.5913 -0.0457 -0.0563
  499MOL0     H65814   2.014   6.250   7.893 -1.8364 -2.9329  2.0993
  499MOL0     H65815   2.063   6.438   7.746  0.4117 -1.4661  0.6968
  499MOL0     H65816   2.031   6.499   7.916  2.2923 -0.6533 -0.6573
  499MOL0     H65817   1.862   6.518   7.671  2.6165 -3.4430  0.1349
  499MOL0     H65818   1.817   6.575   7.834  0.8136 -3.7681  2.0304
  499MOL0     H65819   2.043   6.675   7.671  0.0688  3.4417  0.3156
  499MOL0     H65820   2.001   6.728   7.832 -0.0017 -2.5543  1.1138
  499MOL0     H65821   1.806   6.690   7.502  4.7308 -1.7680  1.3630
  499MOL0     H65822   1.607   6.822   7.392  2.1353 -0.3740  0.4555
  499MOL0     H65823   1.638   6.991   7.381 -1.1679  4.1438  3.7476
  499MOL0     H65824   1.412   6.972   7.443 -1.4674  1.1692  0.4884
  499MOL0     H65825   1.502   7.040   7.574  2.8316  0.8139 -1.6311
  499MOL0     H65826   1.438   6.739   7.533 -0.9184 -1.4387  1.4886
  499MOL0     H65827   1.512   6.792   7.685 -1.5081 -3.5996  0.3764
  499MOL0     H65828   1.214   6.849   7.608 -0.8924  2.5314  1.9452
  499MOL0     H65829   1.301   6.921   7.736 -3.4752 -0.9690 -0.5628
  499MOL0     H65830   1.129   6.847   7.914  1.2216 -1.4375  2.3184
  499MOL0     H65831   0.895   6.749   8.011 -1.9903 -0.3434 -0.5607
  499MOL0     H65832   0.668   6.308   8.122  0.8815 -0.0486  0.8420
  499MOL0     H65833   0.464   6.251   8.251  0.3746 -0.1842  0.5815
  499MOL0     H65834   0.149   6.539   8.371  1.9585  0.8029 -1.4475
  499MOL0     H65835   0.280   6.600   8.481  2.2997 -2.4958  1.9020
  499MOL0     H65836   0.082   6.375   8.520  0.0727 -0.6553  2.6714
  499MOL0     H65837   0.105   6.529   8.611 -1.5990  0.2868 -1.1220
  499MOL0     H65838   0.298   6.285   8.610 -0.3205 -0.9663  0.0423
  499MOL0     H65839   0.180   6.322   8.739 -1.6837  1.1847  0.0423
  499MOL0     H65840   0.412   6.500   8.628 -0.2682  2.6189  1.3568
  499MOL0     H65841   0.312   6.532   8.769 -2.4313 -1.9132  1.0287
  499MOL0     H65842   0.519   6.461   8.836 -1.7796  0.2647  1.5987
  499MOL0     H65843   0.520   6.302   8.743 -2.4862 -2.0427 -0.4495
  499MOL0     H65844   0.472   6.231   8.942 -1.5622 -0.2860 -1.2564
  499MOL0     H65845   0.309   6.245   8.881  0.8149 -2.4452  0.5234
  499MOL0     H65846   0.422   6.437   9.101 -2.3172  0.8093  2.5684
  499MOL0     H65847   0.296   6.471   8.992 -0.0835 -0.8091 -0.9509
  499MOL0     H65848   0.155   6.298   9.084  0.2818 -1.1589 -0.4566
  499MOL0     H65849   0.232   6.370   9.223  0.8265  1.8194 -0.5835
  499MOL0     H65850   0.432   6.679   8.363  1.4536  0.6640  1.3008
  499MOL0     H65851   0.605   6.722   8.210  2.1147 -0.3065 -2.2013
  499MOL0     H65852   0.965   6.401   7.781  0.2172  0.2729  1.6265
  499MOL0     H65853   1.171   6.484   7.691  1.1715 -1.4030  2.7716
  499MOL0     H65854   1.511   5.842   8.134  0.2120  0.4048 -0.7716
  499MOL0     H65855   1.345   5.687   8.178  0.0823 -1.0012  2.2640
  499MOL0     H65856   1.026   5.617   8.581 -1.4969 -0.2248  0.1848
  499MOL0     H65857   0.865   5.457   8.688 -0.4985 -3.6756  0.3828
  499MOL0     H65858   0.759   5.074   8.515 -0.1721 -1.1091  2.0783
  499MOL0     H65859   0.642   5.186   8.444  0.0493 -3.5217 -0.8179
  499MOL0     H65860   0.535   5.027   8.571  1.7553 -0.0195 -2.7928
  499MOL0     H65861   0.656   5.048   8.710  0.8259  1.3885 -0.8461
  499MOL0     H65862   0.563   5.277   8.755 -2.3575  1.7778  0.2705
  499MOL0     H65863   0.429   5.158   8.765 -2.7262 -0.7282 -3.1674
  499MOL0     H65864   0.375   5.366   8.663  1.2564  1.5067 -1.2484
  499MOL0     H65865   0.478   5.335   8.532  1.1563 -3.1823 -1.6414
  499MOL0     H65866   0.189   5.028   8.458  0.2880  0.2390 -2.3219
  499MOL0     H65867   0.855   5.220   8.344 -0.0132  0.1396  0.7320
  499MOL0     H65868   0.990   5.387   8.215  1.4541  2.4638  0.0110
  500MOL0     O65869   2.245  10.287   8.875 -0.9714  0.5735  0.3822
  500MOL0     C65870   2.207  10.190   8.811  0.3821  0.5047  0.1754
  500MOL0     O65871   2.097  10.182   8.727  0.1218  0.1170 -0.2439
  500MOL0     C65872   2.007  10.283   8.749  0.3116  0.0757  0.2003
  500MOL0     C65873   1.970  10.345   8.870 -0.5363 -0.4607 -0.6177
  500MOL0     C65874   1.861  10.435   8.860 -0.0161  0.0480 -0.7960
  500MOL0     C65875   1.804  10.481   8.745  0.0631  0.1832  0.0840
  500MOL0     O65876   1.703  10.569   8.748  0.4633  0.2205 -0.2886
  500MOL0     C65877   1.734  10.693   8.682  0.1320 -0.2716  0.0076
  500MOL0     C65878   1.630  10.804   8.702 -0.1025  0.8005 -0.2168
  500MOL0     C65879   1.488  10.749   8.682 -0.6835  0.4688 -0.0433
  500MOL0     C65880   1.464  10.688   8.536  0.1006  0.3058 -0.3889
  500MOL0     C65881   1.319  10.697   8.501  0.1950  0.3111 -0.4363
  500MOL0     C65882   1.266  10.642   8.360  0.5519  0.2388  0.6729
  500MOL0     C65883   1.111  10.651   8.363  0.2180  0.4122  0.8611
  500MOL0     C65884   1.055  10.797   8.321 -0.4051 -0.1184 -0.3568
  500MOL0     N65885   0.990  10.791   8.189 -0.0840  0.1459  0.1287
  500MOL0     C65886   1.049  10.822   8.063  0.6127  0.1008  0.0211
  500MOL0     C65887   0.959  10.783   7.968 -0.2726  0.1674 -0.8339
  500MOL0     C65888   0.984  10.781   7.814  0.7596  1.0536 -0.2075
  500MOL0     C65889   0.853  10.755   7.735 -0.3587  0.6151 -0.0898
  500MOL0     C65890   0.846  10.844   7.605  0.7747 -0.7074  0.1861
  500MOL0     C65891   0.717  10.812   7.531  0.7715  0.1767 -1.2452
  500MOL0     O65892   0.726  10.837   7.398  0.7875  0.4112  0.2979
  500MOL0     C65893   0.613  10.844   7.322 -0.9960  0.0839  0.4249
  500MOL0     C65894   0.489  10.786   7.359 -0.1482  0.2467  1.2442
  500MOL0     C65895   0.374  10.778   7.274 -0.2933 -0.2999  0.0248
  500MOL0     C65896   0.391  10.827   7.142 -0.1782  0.8649 -1.4677
  500MOL0     C65897   0.274  10.841   7.057 -0.6975 -0.3117 -0.3920
  500MOL0     O65898   0.168  10.764   7.095 -0.0937  0.2782  0.4511
  500MOL0     C65899   0.047  10.756   7.019 -0.3370 -0.5108  0.3384
  500MOL0     C65900  -0.063  10.846   7.009  0.6034 -0.2885 -0.7904
  500MOL0     C65901  -0.173  10.821   6.927  0.1542  0.4667 -0.9824
  500MOL0     C65902  -0.176  10.704   6.856 -0.4676 -1.3933 -0.1240
  500MOL0     O65903  -0.293  10.705   6.770  0.1478  0.5681 -0.3083
  500MOL0     C65904  -0.287  10.622   6.657  1.3793 -0.0140  0.9847
  500MOL0     C65905  -0.433  10.592   6.606  0.1424 -0.2600  0.3058
  500MOL0     C65906  -0.489  10.722   6.547 -1.1062  0.8692  0.4862
  500MOL0     C65907  -0.631  10.712   6.530 -0.0482  0.9704 -0.6872
  500MOL0     C65908  -0.713  10.763   6.648  1.1987 -0.0113 -0.0671
  500MOL0     C65909  -0.865  10.724   6.635 -0.2518 -1.0891 -0.7089
  500MOL0     C65910  -0.927  10.800   6.518 -0.0569 -0.3237  0.1281
  500MOL0     C65911  -1.080  10.821   6.524  0.0958  0.8114 -0.7846
  500MOL0    Cl65912  -1.159  10.662   6.582 -0.4470 -0.2613  0.2035
  500MOL0     C65913  -0.077  10.618   6.860  0.0799  0.5660  1.3787
  500MOL0     C65914   0.032  10.642   6.940 -0.3112  0.1685  0.3564
  500MOL0     O65915   0.278  10.905   6.957 -0.2933  0.4229 -0.0919
  500MOL0     C65916   0.520  10.880   7.094  0.4638 -0.4521 -0.0740
  500MOL0     C65917   0.628  10.885   7.190  0.1743  0.5317  0.4901
  500MOL0     N65918   0.849  10.732   8.039 -0.8075  0.0972  0.1230
  500MOL0     N65919   0.862  10.740   8.172 -0.5001 -0.3528 -0.9082
  500MOL0     C65920   1.836  10.409   8.629 -0.2468  0.0838  0.3277
  500MOL0     C65921   1.943  10.317   8.630  0.7903 -0.1529 -0.3031
  500MOL0     C65922   2.302  10.080   8.814 -0.3668  0.9706 -0.0403
  500MOL0     C65923   2.255   9.950   8.789 -0.6838  0.1823 -0.6228
  500MOL0     C65924   2.349   9.846   8.797 -0.2321 -0.0979 -0.5983
  500MOL0     C65925   2.495   9.877   8.801  0.6342 -0.6638 -0.1682
  500MOL0     O65926   2.594   9.783   8.795  0.3997 -0.1265  0.3009
  500MOL0     C65927   2.573   9.654   8.846 -0.8611 -0.9757  0.4215
  500MOL0     C65928   2.530   9.546   8.748 -0.5704  0.1622  0.1075
  500MOL0     C65929   2.485   9.419   8.817 -0.3309  0.1811  0.7135
  500MOL0     C65930   2.370   9.363   8.738 -0.0460  0.3569 -0.1923
  500MOL0     C65931   2.247   9.440   8.751 -0.4111  0.5457  0.0196
  500MOL0     C65932   2.150   9.507   8.786  0.1648  0.0573 -0.1247
  500MOL0     C65933   2.539  10.011   8.818 -0.1305  0.4575  0.7222
  500MOL0     C65934   2.439  10.105   8.837 -0.3573 -0.2600  0.3675
  500MOL0     H65935   2.019  10.332   8.966 -1.7190 -0.5068  0.0021
  500MOL0     H65936   1.837  10.476   8.957  0.9495 -1.3985  0.1004
  500MOL0     H65937   1.764  10.683   8.577  0.4854 -0.5482  0.1299
  500MOL0     H65938   1.832  10.729   8.715 -0.8469  0.2596  2.5679
  500MOL0     H65939   1.647  10.891   8.638 -0.5225  2.6420  2.0446
  500MOL0     H65940   1.637  10.829   8.808 -0.4238 -5.0573  1.5306
  500MOL0     H65941   1.422  10.825   8.724 -1.3405 -0.5432  0.8094
  500MOL0     H65942   1.476  10.662   8.747 -0.9916  1.8520  1.8264
  500MOL0     H65943   1.513  10.747   8.459 -0.2058  4.3188  2.1821
  500MOL0     H65944   1.494  10.583   8.534 -0.5801  0.1155 -0.9233
  500MOL0     H65945   1.299  10.803   8.520 -3.3949 -0.2147 -0.5815
  500MOL0     H65946   1.258  10.653   8.580  1.1713  1.0327  0.7580
  500MOL0     H65947   1.301  10.538   8.357  0.4159  0.1914 -2.2075
  500MOL0     H65948   1.314  10.701   8.281  2.6055  0.1035  1.7487
  500MOL0     H65949   1.067  10.580   8.293 -1.6829  2.4622 -0.1279
  500MOL0     H65950   1.058  10.632   8.456 -0.9291  2.6562  0.7431
  500MOL0     H65951   1.125  10.881   8.329 -0.3498 -0.2584  0.7400
  500MOL0     H65952   0.974  10.827   8.387 -0.9923 -1.5086 -0.4168
  500MOL0     H65953   1.146  10.869   8.045  0.6204  0.3894  0.7555
  500MOL0     H65954   1.050  10.700   7.783 -1.6396 -0.2178 -2.2858
  500MOL0     H65955   1.016  10.883   7.791  1.4969  1.2218  1.4130
  500MOL0     H65956   0.771  10.783   7.801  0.0615  0.1847  0.6319
  500MOL0     H65957   0.846  10.648   7.711  2.7933  0.1124  0.7540
  500MOL0     H65958   0.847  10.949   7.636  4.2477 -0.6829  0.4335
  500MOL0     H65959   0.937  10.828   7.545  2.4164 -1.7756  2.7893
  500MOL0     H65960   0.642  10.883   7.568  1.9289  0.5052  0.6124
  500MOL0     H65961   0.694  10.708   7.552 -1.1843  1.1093  1.9670
  500MOL0     H65962   0.477  10.748   7.460 -1.2914 -1.0448  0.6559
  500MOL0     H65963   0.274  10.772   7.316 -0.9056  2.8636 -0.7124
  500MOL0     H65964  -0.061  10.936   7.069 -0.0735 -2.0081  2.0089
  500MOL0     H65965  -0.257  10.885   6.902  2.3015  3.0969 -2.0543
  500MOL0     H65966  -0.226  10.531   6.666 -0.7468 -1.3728  2.5383
  500MOL0     H65967  -0.244  10.675   6.571  1.4165  0.5762  1.3643
  500MOL0     H65968  -0.495  10.548   6.685 -0.7632 -0.5037 -0.5133
  500MOL0     H65969  -0.423  10.510   6.534  4.8848  1.4814 -1.3939
  500MOL0     H65970  -0.439  10.740   6.451 -0.4596  1.6747  0.9636
  500MOL0     H65971  -0.465  10.801   6.618  1.6973  0.7903 -0.2655
  500MOL0     H65972  -0.651  10.763   6.435 -0.4505  0.0463 -1.1061
  500MOL0     H65973  -0.648  10.608   6.501 -2.2059  0.3267  2.4593
  500MOL0     H65974  -0.699  10.871   6.650  1.0950  0.0277 -0.9887
  500MOL0     H65975  -0.658  10.732   6.737  3.6056 -0.4271 -1.6191
  500MOL0     H65976  -0.918  10.767   6.721  2.4287  0.9350  0.0827
  500MOL0     H65977  -0.882  10.617   6.625 -1.8062 -0.8959 -0.3312
  500MOL0     H65978  -0.876  10.896   6.525  0.9600 -0.5254 -3.0000
  500MOL0     H65979  -0.904  10.755   6.421  0.9937 -3.0915  1.5549
  500MOL0     H65980  -1.121  10.844   6.425 -1.6961  4.2487  0.5568
  500MOL0     H65981  -1.109  10.906   6.586  0.9893 -0.3027  1.2496
  500MOL0     H65982  -0.086  10.535   6.791 -3.5616  2.5476 -0.8386
  500MOL0     H65983   0.109  10.566   6.949 -0.6037  0.0075  1.7538
  500MOL0     H65984   0.542  10.917   6.994  3.8661 -1.2971  0.2207
  500MOL0     H65985   0.728  10.918   7.161 -0.0370  1.1124  0.4012
  500MOL0     H65986   1.774  10.429   8.542 -0.9754  2.6280  1.3227
  500MOL0     H65987   1.957  10.248   8.548  1.4946  2.7121 -2.7789
  500MOL0     H65988   2.149   9.932   8.774 -0.9103  0.8879  0.0354
  500MOL0     H65989   2.307   9.746   8.797 -1.4425  0.2930 -3.9044
  500MOL0     H65990   2.497   9.658   8.924 -1.3232  0.8483 -0.0776
  500MOL0     H65991   2.668   9.619   8.889  0.3383 -0.1619 -1.4214
  500MOL0     H65992   2.439   9.590   8.705 -0.6394 -1.0408 -1.0459
  500MOL0     H65993   2.603   9.528   8.668 -0.8457 -0.0313 -0.1057
  500MOL0     H65994   2.464   9.445   8.922  1.7330 -0.9091  1.4723
  500MOL0     H65995   2.564   9.344   8.811 -0.2957  0.2463  0.3710
  500MOL0     H65996   2.402   9.358   8.633  2.2046  0.9966  0.4130
  500MOL0     H65997   2.339   9.264   8.772  2.0574  0.0858  1.1220
  500MOL0     H65998   2.062   9.562   8.815  1.9777  1.6528  2.8417
  500MOL0     H65999   2.646  10.030   8.828 -0.3821  4.2373 -1.6284
  500MOL0     H66000   2.465  10.209   8.854  1.5228 -0.5132 -0.6807
  501MOL0     O66001  10.882  11.408   3.203  0.1510 -0.1350  0.2323
  501MOL0     C66002  10.901  11.449   3.322 -0.3817  0.7809  0.1583
  501MOL0     O66003  11.020  11.494   3.381  0.4970 -0.2420 -0.7604
  501MOL0     C66004  11.132  11.510   3.304 -0.3348 -0.4191  0.4510
  501MOL0     C66005  11.145  11.601   3.204 -0.0354  0.5214  0.0999
  501MOL0     C66006  11.257  11.608   3.127 -0.0524 -1.1644  0.2697
  501MOL0     C66007  11.371  11.530   3.160 -0.3564 -0.1003  0.4766
  501MOL0     O66008  11.490  11.520   3.113  0.4228 -0.3721 -0.2892
  501MOL0     C66009  11.548  11.617   3.026  0.4685  0.2626  0.3565
  501MOL0     C66010  11.696  11.584   3.029  0.5400  0.4044  0.1083
  501MOL0     C66011  11.776  11.709   3.005 -1.1083  0.1081 -0.6426
  501MOL0     C66012  11.922  11.674   3.022  0.1082  0.5776  0.4399
  501MOL0     C66013  12.002  11.810   2.995 -0.7243 -0.0110  0.4122
  501MOL0     C66014  11.949  11.934   3.079  0.7328 -0.7635 -0.2950
  501MOL0     C66015  12.060  12.036   3.096 -0.8160 -0.1188  0.1019
  501MOL0     C66016  12.129  12.020   3.229 -0.4486  0.2886 -0.8093
  501MOL0     N66017  12.211  11.902   3.249 -0.2331 -0.1689 -0.2551
  501MOL0     C66018  12.171  11.804   3.328  0.2882 -0.4097  0.3960
  501MOL0     C66019  12.265  11.714   3.339 -0.5931  0.1403 -0.4535
  501MOL0     C66020  12.244  11.585   3.426  0.0788 -0.4905  0.2215
  501MOL0     C66021  12.233  11.462   3.328  0.7866 -0.4014  0.3648
  501MOL0     C66022  12.107  11.457   3.241 -0.4709 -0.1415 -0.2249
  501MOL0     C66023  12.089  11.338   3.154 -0.0847 -0.2566 -0.2339
  501MOL0     O66024  12.070  11.227   3.251 -0.3695 -0.5426  0.0666
  501MOL0     C66025  11.947  11.169   3.251  0.1249 -0.5166  0.8291
  501MOL0     C66026  11.934  11.024   3.227 -0.7680 -0.2632 -0.7261
  501MOL0     C66027  11.813  10.964   3.215  0.3598 -0.1675 -0.3383
  501MOL0     C66028  11.697  11.039   3.236  0.5186 -0.0177 -0.0447
  501MOL0     C66029  11.564  10.976   3.227 -0.2557  0.7122 -0.8022
  501MOL0     O66030  11.447  11.055   3.223  0.1487 -0.4057 -0.0127
  501MOL0     C66031  11.319  11.013   3.189 -0.1241  0.6675  0.0174
  501MOL0     C66032  11.269  10.883   3.197  1.0357 -0.2773  0.0999
  501MOL0     C66033  11.133  10.858   3.157 -0.4114  0.5552 -1.2876
  501MOL0     C66034  11.046  10.964   3.128 -0.3431  0.0690  0.3567
  501MOL0     O66035  10.924  10.933   3.107 -0.0124  0.0140  0.6041
  501MOL0     C66036  10.816  11.021   3.114  1.5592  0.4728  0.5873
  501MOL0     C66037  10.696  10.933   3.157 -0.0229 -0.4050  0.6591
  501MOL0     C66038  10.568  11.018   3.168  0.9335  0.2719  0.6423
  501MOL0     C66039  10.471  11.020   3.043 -0.3731 -0.8933 -0.4681
  501MOL0     C66040  10.375  11.135   3.075  0.1732 -0.7154 -0.1176
  501MOL0     C66041  10.259  11.159   2.978  0.7611  0.5453 -0.2271
  501MOL0     C66042  10.152  11.261   3.017  0.0424  0.2337  0.2749
  501MOL0     C66043  10.066  11.287   2.889 -0.6371 -1.0180 -0.2833
  501MOL0    Cl66044  10.157  11.380   2.763 -0.0679 -0.1637  0.0888
  501MOL0     C66045  11.099  11.098   3.142 -0.6643  0.7654 -0.7915
  501MOL0     C66046  11.236  11.117   3.160  0.4956  0.0198 -0.0186
  501MOL0     O66047  11.558  10.853   3.194  0.1800 -0.2283  0.1740
  501MOL0     C66048  11.705  11.180   3.240  0.2721  0.1038 -0.1511
  501MOL0     C66049  11.820  11.238   3.246 -0.2300 -0.2755 -0.0843
  501MOL0     N66050  12.378  11.769   3.275  0.2621 -0.1446 -0.0970
  501MOL0     N66051  12.348  11.881   3.226 -0.0545  0.3693  0.1838
  501MOL0     C66052  11.358  11.448   3.275 -1.7308 -0.8690 -0.1921
  501MOL0     C66053  11.243  11.444   3.343  0.7451 -0.0027  1.1689
  501MOL0     C66054  10.789  11.418   3.412 -0.8494 -0.2264  0.2188
  501MOL0     C66055  10.804  11.430   3.555  0.2425 -1.0056 -0.4404
  501MOL0     C66056  10.696  11.402   3.641  0.1585 -0.7570 -0.5594
  501MOL0     C66057  10.571  11.363   3.587 -0.1930 -0.2054  0.7941
  501MOL0     O66058  10.463  11.314   3.646  0.2889 -0.7474 -0.6196
  501MOL0     C66059  10.469  11.336   3.791 -1.0829 -0.1849 -0.0666
  501MOL0     C66060  10.319  11.333   3.835 -0.4001 -0.4738 -0.3315
  501MOL0     C66061  10.230  11.448   3.774  0.1113 -0.6857  0.1365
  501MOL0     C66062  10.267  11.587   3.829  0.2130  0.3269  0.2832
  501MOL0     C66063  10.170  11.683   3.786  0.1126  0.4247  0.8160
  501MOL0     C66064  10.078  11.747   3.727  0.2703 -0.6421 -0.0451
  501MOL0     C66065  10.556  11.356   3.442  0.2428  0.9341 -0.5885
  501MOL0     C66066  10.666  11.380   3.358 -0.2745 -0.5419 -0.2024
  501MOL0     H66067  11.056  11.658   3.181 -2.0819 -1.5835  2.2048
  501MOL0     H66068  11.264  11.679   3.045  0.4159 -0.9240  0.5155
  501MOL0     H66069  11.518  11.719   3.053  2.7066  0.8441  0.8703
  501MOL0     H66070  11.512  11.599   2.924  2.7313  3.0271 -1.0596
  501MOL0     H66071  11.730  11.509   2.956  1.6498 -0.9772  1.9654
  501MOL0     H66072  11.721  11.547   3.128 -0.9057 -0.1340  0.2945
  501MOL0     H66073  11.751  11.778   3.086  0.3935 -1.4964  1.3102
  501MOL0     H66074  11.763  11.759   2.909  1.2126  1.3978 -0.3498
  501MOL0     H66075  11.937  11.644   3.126 -0.5469 -1.6883 -0.0648
  501MOL0     H66076  11.946  11.587   2.961  0.2662  0.0872  1.1890
  501MOL0     H66077  12.005  11.844   2.891 -1.0219  3.8305  1.5106
  501MOL0     H66078  12.105  11.778   3.018  0.2169  0.2475 -2.8894
  501MOL0     H66079  11.908  11.908   3.178  0.6086  2.8808  0.7437
  501MOL0     H66080  11.860  11.967   3.026  1.0626 -1.0209 -1.0148
  501MOL0     H66081  12.127  12.043   3.010  1.6266 -1.7719  1.7344
  501MOL0     H66082  12.005  12.130   3.090  0.6102  0.8103  0.9019
  501MOL0     H66083  12.049  12.028   3.303 -0.5763 -1.3869 -0.7257
  501MOL0     H66084  12.193  12.108   3.240  0.3457 -0.3432 -0.1090
  501MOL0     H66085  12.072  11.801   3.374  0.1346 -0.0759  0.0887
  501MOL0     H66086  12.158  11.587   3.493 -0.0477  0.3545  0.0418
  501MOL0     H66087  12.334  11.568   3.487  0.6274 -1.2837 -0.7648
  501MOL0     H66088  12.224  11.369   3.385 -4.7760 -1.6665 -1.9101
  501MOL0     H66089  12.326  11.447   3.272  0.0683 -0.1213 -0.9501
  501MOL0     H66090  12.015  11.480   3.295  1.1245  1.8757  1.8755
  501MOL0     H66091  12.101  11.536   3.165  0.7569 -1.7464 -2.0828
  501MOL0     H66092  12.178  11.315   3.095 -0.7272 -1.9120 -0.5871
  501MOL0     H66093  12.001  11.353   3.090 -0.4146 -2.2682 -0.3217
  501MOL0     H66094  12.013  10.950   3.213  0.0274  0.8150 -2.2448
  501MOL0     H66095  11.810  10.862   3.178  0.7375  0.6961 -2.9337
  501MOL0     H66096  11.325  10.791   3.214  2.2630 -0.1129 -2.5297
  501MOL0     H66097  11.087  10.760   3.155  2.5183 -0.9348 -0.7462
  501MOL0     H66098  10.799  11.058   3.012 -0.5767 -0.4724  0.5404
  501MOL0     H66099  10.840  11.103   3.182 -1.9663  2.8774 -0.7654
  501MOL0     H66100  10.717  10.880   3.250 -1.5813 -3.6491 -0.6792
  501MOL0     H66101  10.672  10.853   3.087 -1.1834  2.6411 -2.7321
  501MOL0     H66102  10.591  11.123   3.186 -0.1486  0.7412 -0.5374
  501MOL0     H66103  10.505  10.980   3.249  3.1099 -0.5064  2.0490
  501MOL0     H66104  10.513  11.038   2.944  2.8605 -0.4866  0.8483
  501MOL0     H66105  10.424  10.922   3.031 -0.3296 -0.8038 -1.3783
  501MOL0     H66106  10.417  11.233   3.101 -3.5601  1.9546 -3.0814
  501MOL0     H66107  10.333  11.101   3.170 -0.4412 -1.8691 -0.7847
  501MOL0     H66108  10.201  11.068   2.966  1.8765 -0.0781 -1.0493
  501MOL0     H66109  10.307  11.163   2.880  2.8247 -3.3411  0.4274
  501MOL0     H66110  10.097  11.228   3.106  0.5726 -0.3211  0.4011
  501MOL0     H66111  10.208  11.351   3.045  2.5093 -1.7754  2.2609
  501MOL0     H66112   9.973  11.344   2.898 -1.6631 -2.2546 -2.3087
  501MOL0     H66113  10.038  11.189   2.849  2.5438 -1.7152 -1.0966
  501MOL0     H66114  11.035  11.185   3.139  0.5764  1.8713  1.7270
  501MOL0     H66115  11.278  11.217   3.156  2.7896 -0.8771  0.2727
  501MOL0     H66116  11.630  11.258   3.244  1.1072  1.0157 -1.4835
  501MOL0     H66117  11.828  11.346   3.249 -2.0288 -0.1086  2.7415
  501MOL0     H66118  11.444  11.390   3.306  1.7363  2.7645 -1.9874
  501MOL0     H66119  11.232  11.370   3.422  2.9922 -1.5187  0.1796
  501MOL0     H66120  10.893  11.453   3.613 -2.1987  1.1710  2.7535
  501MOL0     H66121  10.707  11.412   3.749 -0.5423 -0.6160 -0.4967
  501MOL0     H66122  10.501  11.439   3.811  1.4664 -0.4238 -2.3820
  501MOL0     H66123  10.523  11.258   3.845 -1.6919  0.4222  1.4844
  501MOL0     H66124  10.275  11.236   3.814  0.0657 -0.5637 -0.9203
  501MOL0     H66125  10.316  11.328   3.944 -0.5990 -1.8152 -0.3841
  501MOL0     H66126  10.124  11.425   3.792 -0.8477  1.7856 -1.8153
  501MOL0     H66127  10.231  11.450   3.665 -3.3418 -0.1525  0.0033
  501MOL0     H66128  10.284  11.597   3.936  0.5694  1.1044  0.1600
  501MOL0     H66129  10.366  11.602   3.784 -0.4296 -2.4833 -2.4606
  501MOL0     H66130  10.003  11.799   3.671 -1.5528 -0.3885  2.4380
  501MOL0     H66131  10.458  11.318   3.414  0.2809  0.0008  0.4619
  501MOL0     H66132  10.646  11.378   3.252  0.0187 -0.3315 -0.2644
  502MOL0     O66133   6.053   7.988  10.163 -0.4578 -0.1328  0.7390
  502MOL0     C66134   6.169   8.031  10.149  0.0243  0.3597  1.3460
  502MOL0     O66135   6.281   7.995  10.220 -0.2423 -0.7853 -0.1049
  502MOL0     C66136   6.281   7.913  10.329 -0.3108 -0.8354 -0.3915
  502MOL0     C66137   6.211   7.795  10.334  0.5565 -1.2342  0.6529
  502MOL0     C66138   6.208   7.720  10.449 -0.3416  0.6453 -0.2764
  502MOL0     C66139   6.294   7.750  10.555 -1.1383  0.2346 -0.3066
  502MOL0     O66140   6.327   7.646  10.646 -0.0053 -0.2339  0.9913
  502MOL0     C66141   6.341   7.695  10.782 -0.3606 -0.1196 -0.4046
  502MOL0     C66142   6.219   7.778  10.824  0.8439  0.3265  0.0570
  502MOL0     C66143   6.162   7.730  10.966 -0.5875 -0.3058  0.1614
  502MOL0     C66144   6.016   7.710  10.968  0.9033 -0.5269 -0.7122
  502MOL0     C66145   5.960   7.691  11.112  0.0378 -0.5766  0.1493
  502MOL0     C66146   5.815   7.635  11.099  0.4610  0.1738 -0.7532
  502MOL0     C66147   5.711   7.712  11.015 -0.4894  0.6681  0.2411
  502MOL0     C66148   5.683   7.844  11.082  0.2102  0.3042 -0.1420
  502MOL0     N66149   5.553   7.900  11.043 -0.4795  0.0363  0.3335
  502MOL0     C66150   5.427   7.857  11.071  0.0657 -1.2409 -0.1708
  502MOL0     C66151   5.346   7.938  11.003  0.6543 -0.5312 -0.6314
  502MOL0     C66152   5.187   7.942  11.022 -0.3620  0.7224  0.5650
  502MOL0     C66153   5.103   7.993  10.910 -0.6351  0.0527  0.1394
  502MOL0     C66154   5.090   7.906  10.784 -1.0647 -0.4348 -0.0073
  502MOL0     C66155   5.014   7.977  10.672 -0.3885  0.4518 -0.0601
  502MOL0     O66156   4.872   7.969  10.693  0.5851  0.2467 -0.0043
  502MOL0     C66157   4.794   8.029  10.595  0.1173 -0.1271 -0.0648
  502MOL0     C66158   4.671   8.088  10.635  0.7250  0.4361 -0.2313
  502MOL0     C66159   4.578   8.137  10.538 -0.9371 -0.4093 -0.5448
  502MOL0     C66160   4.626   8.161  10.416  0.5984 -0.0737  1.0044
  502MOL0     C66161   4.536   8.234  10.318 -0.1744  0.7313 -0.0467
  502MOL0     O66162   4.422   8.282  10.368  0.0079  0.4116 -0.6831
  502MOL0     C66163   4.314   8.326  10.293  0.1011  0.3594  0.2754
  502MOL0     C66164   4.323   8.383  10.159 -0.3841 -0.1927  0.1194
  502MOL0     C66165   4.213   8.434  10.098 -0.3086 -0.0093 -0.5284
  502MOL0     C66166   4.090   8.438  10.164  0.5253  0.9279  0.6769
  502MOL0     O66167   3.985   8.506  10.107 -0.3971 -0.3644  0.0179
  502MOL0     C66168   3.995   8.604  10.007  0.2592  0.1380 -0.7542
  502MOL0     C66169   3.860   8.667   9.980  0.3826  0.4610  0.4778
  502MOL0     C66170   3.761   8.559   9.917 -0.0453 -1.3125  0.6350
  502MOL0     C66171   3.616   8.606   9.924 -0.0145 -0.3700 -0.2260
  502MOL0     C66172   3.525   8.568  10.052  0.1325 -0.3744  0.0150
  502MOL0     C66173   3.377   8.612  10.023 -0.2672  0.8707 -0.0002
  502MOL0     C66174   3.292   8.568  10.141  0.0116 -0.6285  0.5264
  502MOL0     C66175   3.276   8.666  10.259 -0.9114  0.3348 -0.2002
  502MOL0    Cl66176   3.218   8.839  10.219  0.1225 -0.1528 -0.4387
  502MOL0     C66177   4.079   8.372  10.288 -0.1163 -0.5943  0.2829
  502MOL0     C66178   4.193   8.320  10.353  0.3711 -0.8729  0.2969
  502MOL0     O66179   4.563   8.222  10.198  0.2059 -0.6996  0.1103
  502MOL0     C66180   4.749   8.106  10.378 -0.4888 -0.5471 -1.0195
  502MOL0     C66181   4.841   8.037  10.466  0.4714 -0.2366  0.0907
  502MOL0     N66182   5.423   8.027  10.935 -0.4811 -0.3665  0.4697
  502MOL0     N66183   5.550   8.004  10.962  0.0788  0.4972  0.3362
  502MOL0     C66184   6.372   7.872  10.555  0.3550 -0.6453 -0.6054
  502MOL0     C66185   6.367   7.951  10.446  1.1495 -0.2810  0.0229
  502MOL0     C66186   6.207   8.131  10.043  0.3351 -0.3219  1.6484
  502MOL0     C66187   6.161   8.105   9.912  0.7464  0.4655 -0.2979
  502MOL0     C66188   6.192   8.175   9.798 -0.9286 -0.8977 -0.6457
  502MOL0     C66189   6.280   8.284   9.816  0.1119  0.0616  0.1715
  502MOL0     O66190   6.303   8.359   9.698 -0.2354  0.2383 -0.3172
  502MOL0     C66191   6.416   8.444   9.693  0.3152  0.8741  0.4099
  502MOL0     C66192   6.536   8.355   9.696 -0.1061  0.4696  0.1296
  502MOL0     C66193   6.658   8.442   9.685 -0.8050  0.1497  0.4669
  502MOL0     C66194   6.777   8.359   9.627  0.8553 -0.4160 -0.2926
  502MOL0     C66195   6.755   8.312   9.490  0.1522  0.6554  0.9742
  502MOL0     C66196   6.741   8.277   9.371  0.0374  0.5146  0.2426
  502MOL0     C66197   6.340   8.311   9.941 -0.4075 -0.2575 -0.5891
  502MOL0     C66198   6.306   8.230  10.057 -0.1954 -1.0328  0.2048
  502MOL0     H66199   6.145   7.757  10.256 -2.0731  0.7148  1.7863
  502MOL0     H66200   6.156   7.626  10.459  0.8834 -0.1623 -1.1727
  502MOL0     H66201   6.435   7.752  10.791  0.2856 -0.6659 -2.9617
  502MOL0     H66202   6.364   7.609  10.845  1.7984  0.1389 -0.7591
  502MOL0     H66203   6.141   7.750  10.754  0.1637  0.1341  0.8709
  502MOL0     H66204   6.243   7.885  10.829  1.0391  0.2526  3.9979
  502MOL0     H66205   6.193   7.804  11.041 -2.0248  0.6266 -0.1325
  502MOL0     H66206   6.193   7.629  10.994 -1.5218  0.1148  2.9324
  502MOL0     H66207   5.965   7.785  10.907  0.9316  2.3153  2.4882
  502MOL0     H66208   6.005   7.611  10.922 -3.2025 -0.6537  0.1205
  502MOL0     H66209   5.942   7.786  11.164 -0.8786 -0.3485 -0.5590
  502MOL0     H66210   6.011   7.619  11.177 -0.5625  1.0200  2.5179
  502MOL0     H66211   5.779   7.621  11.201  1.0397  1.1549 -0.3973
  502MOL0     H66212   5.835   7.536  11.057  0.2241  0.5993 -1.9028
  502MOL0     H66213   5.738   7.721  10.909 -0.1179  1.8090  0.4083
  502MOL0     H66214   5.622   7.650  11.021 -0.6181  0.7289 -0.9071
  502MOL0     H66215   5.766   7.904  11.044 -1.7358  1.1697 -3.3985
  502MOL0     H66216   5.676   7.847  11.191 -2.1866 -1.9039 -0.1240
  502MOL0     H66217   5.396   7.779  11.141  0.3345  1.2595  2.9528
  502MOL0     H66218   5.160   7.994  11.115  1.2788 -1.3314  2.3100
  502MOL0     H66219   5.170   7.835  11.034  1.6585 -0.2475 -3.5037
  502MOL0     H66220   5.151   8.087  10.880  2.6812 -1.2971  0.7754
  502MOL0     H66221   5.004   8.004  10.956  0.0862 -0.5936  1.9418
  502MOL0     H66222   5.191   7.887  10.747 -0.7222  2.8586 -1.1354
  502MOL0     H66223   5.033   7.814  10.803 -4.0781  0.5873 -3.0638
  502MOL0     H66224   5.030   7.911  10.586 -2.1027 -0.4655  0.2722
  502MOL0     H66225   5.051   8.079  10.662 -0.7265  0.8099  1.9708
  502MOL0     H66226   4.645   8.083  10.740  2.7252  2.5636  0.4378
  502MOL0     H66227   4.480   8.175  10.565 -0.0621  2.5535 -1.1697
  502MOL0     H66228   4.422   8.403  10.120 -0.6366 -0.5204 -0.7005
  502MOL0     H66229   4.212   8.479   9.999 -4.6195 -0.9985 -1.1454
  502MOL0     H66230   4.027   8.558   9.914 -0.3736 -0.9779 -0.4463
  502MOL0     H66231   4.066   8.679  10.042 -0.9098  0.5554  0.8506
  502MOL0     H66232   3.865   8.755   9.914  2.2362 -1.3850 -2.0574
  502MOL0     H66233   3.804   8.696  10.069 -2.6272  1.7132 -1.6486
  502MOL0     H66234   3.759   8.458   9.958  1.2301 -1.0223  1.4551
  502MOL0     H66235   3.792   8.544   9.813 -0.6713 -0.6930  0.3448
  502MOL0     H66236   3.620   8.715   9.932 -0.1497 -0.5065  3.2945
  502MOL0     H66237   3.557   8.582   9.835 -1.9926  3.8743 -0.3127
  502MOL0     H66238   3.556   8.620  10.143  0.9251 -4.4224  2.3006
  502MOL0     H66239   3.542   8.462  10.072  3.0675  0.2283  1.1980
  502MOL0     H66240   3.345   8.563   9.931 -2.1616  1.7047  0.1713
  502MOL0     H66241   3.363   8.719  10.011 -0.8703  0.7868 -0.0556
  502MOL0     H66242   3.187   8.549  10.117 -0.1939  1.6693 -0.7125
  502MOL0     H66243   3.323   8.470  10.179 -2.0748 -1.0856  1.1641
  502MOL0     H66244   3.374   8.662  10.309 -0.8186 -5.3157 -0.2292
  502MOL0     H66245   3.214   8.630  10.341  1.1424  0.5332  1.5434
  502MOL0     H66246   3.984   8.359  10.340 -0.4298  0.6867  0.0775
  502MOL0     H66247   4.187   8.286  10.455  2.0618  0.5034  0.8887
  502MOL0     H66248   4.776   8.107  10.272 -0.2389  0.8259 -0.9656
  502MOL0     H66249   4.933   7.987  10.439 -0.5995 -2.2325  0.0175
  502MOL0     H66250   6.445   7.893  10.633  1.3037  1.6568 -1.9954
  502MOL0     H66251   6.418   8.047  10.447  1.6910 -0.4131 -3.2559
  502MOL0     H66252   6.090   8.023   9.913  1.2187  0.0214 -1.4357
  502MOL0     H66253   6.160   8.128   9.705  0.1936 -0.7926 -1.1056
  502MOL0     H66254   6.419   8.501   9.787  1.7982 -0.1419  1.0278
  502MOL0     H66255   6.416   8.514   9.610 -2.2485  0.0119 -0.4062
  502MOL0     H66256   6.542   8.300   9.791 -3.7124  1.6376  1.1988
  502MOL0     H66257   6.511   8.290   9.612 -0.9138  2.0497 -0.9041
  502MOL0     H66258   6.688   8.484   9.781  3.2201  2.4426 -1.4994
  502MOL0     H66259   6.661   8.524   9.613  0.4070  2.2367  2.7380
  502MOL0     H66260   6.871   8.414   9.623  1.6487 -1.6435  0.4787
  502MOL0     H66261   6.800   8.270   9.687  1.6379  0.4198  0.6847
  502MOL0     H66262   6.747   8.228   9.277  1.8546 -0.9926  1.0786
  502MOL0     H66263   6.412   8.390   9.959 -0.3826  0.3517 -2.9927
  502MOL0     H66264   6.357   8.261  10.148  2.2727  0.3978 -1.5432
  503MOL0     O66265   3.470  10.131   2.206 -0.3605  0.2865  0.9140
  503MOL0     C66266   3.458  10.048   2.117 -0.8063 -0.3537  0.2875
  503MOL0     O66267   3.549   9.961   2.074  0.2918  0.0292 -0.9920
  503MOL0     C66268   3.679   9.951   2.122 -0.1362  0.3269  0.6265
  503MOL0     C66269   3.732   9.827   2.158 -0.6192 -0.6807  0.1910
  503MOL0     C66270   3.861   9.830   2.218  0.3492  0.9831  0.7081
  503MOL0     C66271   3.942   9.949   2.218  0.3466  0.5431  0.2529
  503MOL0     O66272   4.065   9.954   2.266  0.4434  0.4016 -0.0166
  503MOL0     C66273   4.157   9.887   2.177  0.6167 -0.6062 -0.5218
  503MOL0     C66274   4.212   9.987   2.066 -0.4658 -0.1470  0.0122
  503MOL0     C66275   4.348   9.948   2.005  0.3506 -0.7884  0.3349
  503MOL0     C66276   4.327   9.832   1.908  0.0908  1.2119 -0.2254
  503MOL0     C66277   4.459   9.768   1.874 -1.2371 -1.2024 -0.4341
  503MOL0     C66278   4.572   9.870   1.836 -0.7481  0.4631 -0.8390
  503MOL0     C66279   4.687   9.780   1.781 -0.3644  0.3313 -0.0711
  503MOL0     C66280   4.803   9.880   1.746 -0.7092 -0.0707 -0.4425
  503MOL0     N66281   4.932   9.807   1.716 -0.6329  1.2459 -0.9927
  503MOL0     C66282   4.994   9.709   1.791  0.0068  0.0448  0.5872
  503MOL0     C66283   5.125   9.698   1.753  0.7600 -1.3059  0.1155
  503MOL0     C66284   5.222   9.592   1.796 -0.8492  0.3853  0.7271
  503MOL0     C66285   5.305   9.510   1.685 -0.0522 -0.1319  0.6581
  503MOL0     C66286   5.400   9.424   1.758  0.0477  0.1114 -0.1551
  503MOL0     C66287   5.476   9.331   1.664 -0.5878  0.8167 -0.6336
  503MOL0     O66288   5.441   9.199   1.702  0.0439 -0.2878  0.2252
  503MOL0     C66289   5.523   9.095   1.672 -0.4443  0.1972  0.7773
  503MOL0     C66290   5.630   9.100   1.581  0.1562 -0.0666 -0.2641
  503MOL0     C66291   5.698   8.996   1.552  0.1407 -0.0047 -0.1690
  503MOL0     C66292   5.683   8.872   1.622  0.1432 -0.0351 -0.3027
  503MOL0     C66293   5.772   8.756   1.597  0.4321  0.1475 -0.9320
  503MOL0     O66294   5.889   8.788   1.533  1.1115 -0.4688  0.4593
  503MOL0     C66295   5.953   8.682   1.466  0.5820  0.2386 -0.3464
  503MOL0     C66296   6.086   8.649   1.494  0.5800 -0.3914 -0.3625
  503MOL0     C66297   6.156   8.536   1.446 -0.5823  0.5378  0.1114
  503MOL0     C66298   6.083   8.445   1.365 -0.0292 -0.0776 -0.1619
  503MOL0     O66299   6.150   8.333   1.322 -0.1997  0.4165 -0.1221
  503MOL0     C66300   6.132   8.212   1.399  0.4972  0.1592 -0.4202
  503MOL0     C66301   6.203   8.090   1.340  0.1123 -0.6570  0.2036
  503MOL0     C66302   6.360   8.108   1.332 -0.6351  0.5214 -0.6771
  503MOL0     C66303   6.409   7.970   1.283 -0.8992 -0.6162 -0.7118
  503MOL0     C66304   6.572   7.968   1.287  0.2112  0.6138 -0.2591
  503MOL0     C66305   6.623   7.826   1.269 -0.1905  0.2704 -0.0584
  503MOL0     C66306   6.763   7.826   1.216  0.2527 -0.1380 -0.3615
  503MOL0     C66307   6.831   7.696   1.209  0.2100  0.4564  0.5679
  503MOL0    Cl66308   6.995   7.720   1.142  0.0059 -0.7086 -0.3161
  503MOL0     C66309   5.950   8.465   1.334  0.7045 -0.6400  0.1538
  503MOL0     C66310   5.888   8.586   1.380  0.1045  0.5512 -0.8193
  503MOL0     O66311   5.736   8.641   1.625 -0.3383 -0.1238 -0.0708
  503MOL0     C66312   5.587   8.863   1.725  0.7134 -0.0698 -1.0276
  503MOL0     C66313   5.504   8.976   1.738  0.6094  0.7136 -0.1850
  503MOL0     N66314   5.140   9.788   1.649  0.7754  0.4893  0.1793
  503MOL0     N66315   5.021   9.833   1.613 -0.1737 -0.9273 -0.1453
  503MOL0     C66316   3.885  10.066   2.169 -0.1713  0.0744  1.2756
  503MOL0     C66317   3.750  10.066   2.131  0.6513 -0.7912  0.6495
  503MOL0     C66318   3.322  10.034   2.061  0.3595 -0.7481  0.6604
  503MOL0     C66319   3.223  10.130   2.096  1.1122  0.3812 -0.6113
  503MOL0     C66320   3.094  10.125   2.035  0.5266 -1.0373  0.2040
  503MOL0     C66321   3.063  10.040   1.934 -0.5830  0.1635  0.6046
  503MOL0     O66322   2.935  10.049   1.881  0.2601  0.7195 -0.0644
  503MOL0     C66323   2.897   9.994   1.755  0.1587  0.0997 -0.4348
  503MOL0     C66324   2.777  10.073   1.691 -0.0235  0.8596 -0.6791
  503MOL0     C66325   2.657  10.122   1.783  0.6830  0.1288 -0.7382
  503MOL0     C66326   2.564  10.193   1.679 -0.1873 -0.2998 -0.3215
  503MOL0     C66327   2.433  10.117   1.662 -0.6797 -0.3083 -0.1865
  503MOL0     C66328   2.327  10.071   1.636 -0.3180  0.5130  0.5845
  503MOL0     C66329   3.161   9.947   1.893 -0.4571 -0.2706  0.5842
  503MOL0     C66330   3.292   9.955   1.954  0.6139  0.0248  1.1810
  503MOL0     H66331   3.685   9.734   2.127 -1.5266  0.6146 -2.6936
  503MOL0     H66332   3.900   9.734   2.252  2.9126  1.0988 -1.5662
  503MOL0     H66333   4.119   9.790   2.142  0.3314 -1.1444  1.1784
  503MOL0     H66334   4.247   9.855   2.231  3.0591  3.2456 -1.9150
  503MOL0     H66335   4.245  10.075   2.123 -0.9608  1.6384 -2.2865
  503MOL0     H66336   4.136  10.015   1.993 -2.2496  1.4512  2.3036
  503MOL0     H66337   4.425   9.918   2.076  2.6956  4.4301  0.4647
  503MOL0     H66338   4.392  10.036   1.956 -0.8657 -0.5015 -0.3063
  503MOL0     H66339   4.258   9.756   1.945  1.0872 -0.1112 -0.9551
  503MOL0     H66340   4.287   9.861   1.810  0.7706 -0.1147 -0.9290
  503MOL0     H66341   4.452   9.701   1.788 -0.6123  0.9036 -2.2277
  503MOL0     H66342   4.494   9.708   1.958 -1.2445  0.0247  0.4768
  503MOL0     H66343   4.606   9.928   1.923  0.2680  0.6691 -1.3543
  503MOL0     H66344   4.533   9.950   1.773 -1.8527  1.4299  1.0097
  503MOL0     H66345   4.719   9.727   1.872  1.8829  3.3060  1.0528
  503MOL0     H66346   4.657   9.708   1.705 -0.1744  0.4476 -0.2616
  503MOL0     H66347   4.821   9.954   1.824 -1.3244 -1.1562  0.7686
  503MOL0     H66348   4.783   9.932   1.652 -1.0243 -1.1703 -1.0016
  503MOL0     H66349   4.954   9.654   1.876  0.6647  0.4798  1.1837
  503MOL0     H66350   5.167   9.517   1.854 -2.7115 -1.8347 -3.4391
  503MOL0     H66351   5.302   9.632   1.859  2.3806  0.3376 -2.9861
  503MOL0     H66352   5.361   9.569   1.612  1.5263 -0.2002  1.7576
  503MOL0     H66353   5.231   9.448   1.633  1.8377 -0.9413 -1.1639
  503MOL0     H66354   5.481   9.484   1.800  0.9548  0.9205 -2.8011
  503MOL0     H66355   5.354   9.362   1.834  0.3530 -1.1707 -0.9889
  503MOL0     H66356   5.583   9.352   1.677 -1.1765  3.4991  0.6058
  503MOL0     H66357   5.438   9.357   1.565 -3.9047 -0.6769  0.1224
  503MOL0     H66358   5.652   9.196   1.535  1.3133  0.7510  1.8685
  503MOL0     H66359   5.775   9.026   1.481 -0.7602  0.2401 -1.0724
  503MOL0     H66360   6.133   8.723   1.559  0.3471  1.0912 -1.8198
  503MOL0     H66361   6.258   8.508   1.469 -0.9725  0.1539  1.5113
  503MOL0     H66362   6.024   8.198   1.403  0.4399  0.5665 -0.4451
  503MOL0     H66363   6.168   8.217   1.503 -1.7528 -0.6807  0.4644
  503MOL0     H66364   6.152   8.070   1.245  2.3490  1.0238 -1.4599
  503MOL0     H66365   6.196   8.010   1.415 -1.2866 -0.5517  0.2159
  503MOL0     H66366   6.391   8.135   1.434  1.7245  0.4681 -1.3162
  503MOL0     H66367   6.401   8.176   1.257  1.6407 -1.9645 -1.8457
  503MOL0     H66368   6.367   7.892   1.346  2.0112 -0.7043  1.3364
  503MOL0     H66369   6.391   7.963   1.175 -1.8469  4.2181 -1.1265
  503MOL0     H66370   6.608   8.002   1.384 -2.2850  1.4664  0.4440
  503MOL0     H66371   6.597   8.031   1.201 -3.6217 -0.9750 -2.8638
  503MOL0     H66372   6.557   7.772   1.200 -0.9482 -1.7966  2.1479
  503MOL0     H66373   6.622   7.773   1.365 -0.7188 -2.4815 -1.4676
  503MOL0     H66374   6.763   7.882   1.122 -3.1476 -0.5200 -0.6835
  503MOL0     H66375   6.824   7.889   1.281  0.5793 -0.6217 -0.1908
  503MOL0     H66376   6.768   7.623   1.156  1.3804 -0.1538 -0.0080
  503MOL0     H66377   6.841   7.657   1.311  0.5839 -0.0385  0.3495
  503MOL0     H66378   5.901   8.389   1.273  0.2672 -1.9055  1.9809
  503MOL0     H66379   5.783   8.599   1.356  0.3289 -0.1571 -2.2174
  503MOL0     H66380   5.575   8.777   1.789 -0.2515  1.0372  0.3192
  503MOL0     H66381   5.416   8.970   1.801  1.6690  0.8443  1.3652
  503MOL0     H66382   3.950  10.153   2.164  0.6350 -0.4692  2.0393
  503MOL0     H66383   3.721  10.165   2.098  1.9129 -0.9674 -1.1629
  503MOL0     H66384   3.235  10.215   2.163  2.0101  0.2032 -0.5287
  503MOL0     H66385   3.018  10.198   2.062  1.6656  0.7047 -1.0719
  503MOL0     H66386   2.857   9.895   1.781  0.7243 -0.9038 -3.0390
  503MOL0     H66387   2.983   9.989   1.687 -0.6370 -0.5917 -1.4168
  503MOL0     H66388   2.827  10.165   1.659  0.2921  0.6576 -0.7691
  503MOL0     H66389   2.735  10.011   1.610 -0.1984 -1.7325  1.2613
  503MOL0     H66390   2.680  10.193   1.864 -1.4694  0.2322 -0.1445
  503MOL0     H66391   2.603  10.039   1.829 -2.1202  0.3892 -3.2572
  503MOL0     H66392   2.546  10.294   1.718  2.0533  0.3632 -0.8885
  503MOL0     H66393   2.604  10.219   1.581 -1.3955  2.7033 -0.1328
  503MOL0     H66394   2.235  10.027   1.605  0.7797 -0.9905 -0.7722
  503MOL0     H66395   3.138   9.865   1.826  3.9029 -1.9376  0.7784
  503MOL0     H66396   3.371   9.898   1.907 -0.0940 -0.5186  0.6248
  504MOL0     O66397   2.455   7.196   2.033  0.1849  0.5697  0.7309
  504MOL0     C66398   2.473   7.229   1.913  0.1408 -0.4417  0.6231
  504MOL0     O66399   2.558   7.161   1.821  0.3146 -0.1650 -0.4083
  504MOL0     C66400   2.630   7.053   1.859 -1.5341 -0.1429  0.0608
  504MOL0     C66401   2.767   7.054   1.819  0.8620  0.3998 -0.5905
  504MOL0     C66402   2.857   6.942   1.841 -0.2383  0.2391 -0.6573
  504MOL0     C66403   2.809   6.834   1.917 -0.2110 -0.7892 -0.3242
  504MOL0     O66404   2.905   6.738   1.958 -0.2567  0.4127  0.4221
  504MOL0     C66405   2.871   6.650   2.072 -0.2339 -0.8596  0.2773
  504MOL0     C66406   2.900   6.741   2.196  1.0531  0.1818 -0.6659
  504MOL0     C66407   3.045   6.778   2.202 -0.4636 -0.4532  0.0354
  504MOL0     C66408   3.078   6.890   2.312  0.6356  0.9093  0.0629
  504MOL0     C66409   3.221   6.932   2.339 -0.8388  0.7564 -0.4434
  504MOL0     C66410   3.226   7.035   2.459 -0.2307 -0.2478 -0.0063
  504MOL0     C66411   3.163   7.001   2.601 -0.1406  0.2236  0.1083
  504MOL0     C66412   3.251   7.061   2.715 -0.1445  0.4785 -0.1141
  504MOL0     N66413   3.363   6.980   2.744  0.4754 -0.5595  0.6826
  504MOL0     C66414   3.433   6.978   2.866  0.1955  0.5809 -0.4382
  504MOL0     C66415   3.555   6.917   2.835  0.0149 -0.4775  0.1928
  504MOL0     C66416   3.672   6.898   2.945  0.1790  0.4436 -0.0732
  504MOL0     C66417   3.635   6.787   3.042 -0.4221  0.3246 -0.7052
  504MOL0     C66418   3.709   6.782   3.178  0.4465 -0.9800 -0.4946
  504MOL0     C66419   3.859   6.767   3.153 -0.0118  0.7406 -0.1848
  504MOL0     O66420   3.940   6.760   3.269  0.0672 -0.1213 -0.4606
  504MOL0     C66421   3.938   6.639   3.338 -0.3423  0.2408 -0.8914
  504MOL0     C66422   4.013   6.639   3.459  0.5576  0.2263  1.1389
  504MOL0     C66423   4.019   6.518   3.528  0.1223 -0.3217  1.1285
  504MOL0     C66424   3.972   6.395   3.482  0.0543  0.4505 -0.0931
  504MOL0     C66425   4.019   6.263   3.550 -0.1898 -0.1414  0.5071
  504MOL0     O66426   3.971   6.151   3.490  0.2967  0.1881 -0.3780
  504MOL0     C66427   3.991   6.028   3.547 -0.7345  0.2616 -0.4265
  504MOL0     C66428   3.879   5.942   3.545 -1.4431 -0.0835 -0.2128
  504MOL0     C66429   3.881   5.816   3.605  0.0797 -0.4020  0.4558
  504MOL0     C66430   3.987   5.781   3.675 -0.3856  0.3902  1.0587
  504MOL0     O66431   3.981   5.654   3.724 -0.1825 -0.6319  0.1314
  504MOL0     C66432   4.068   5.608   3.831  0.8011 -1.0150 -0.0128
  504MOL0     C66433   4.011   5.480   3.899  0.1374 -0.2478 -0.2132
  504MOL0     C66434   4.130   5.401   3.962 -0.2486  0.1853 -0.8403
  504MOL0     C66435   4.093   5.257   3.993 -1.0257 -1.0113 -0.4293
  504MOL0     C66436   4.203   5.165   4.052  0.4239  0.0240  0.7224
  504MOL0     C66437   4.234   5.199   4.197  0.0807 -0.2861 -0.3309
  504MOL0     C66438   4.348   5.110   4.257 -0.4883 -0.8304 -0.4229
  504MOL0     C66439   4.343   4.960   4.242  0.3302 -0.4474  0.1168
  504MOL0    Cl66440   4.182   4.904   4.294  0.3397  0.0672  0.0039
  504MOL0     C66441   4.108   5.844   3.680 -0.5466 -0.6921 -1.3706
  504MOL0     C66442   4.105   5.979   3.629  0.4072 -0.1407  0.5688
  504MOL0     O66443   4.100   6.267   3.645  0.4629  0.1496  0.2699
  504MOL0     C66444   3.887   6.398   3.373 -0.5923 -0.0074  0.3997
  504MOL0     C66445   3.877   6.523   3.298 -0.1140  0.3276  0.2622
  504MOL0     N66446   3.550   6.867   2.702  0.3153  0.2170  0.9263
  504MOL0     N66447   3.434   6.903   2.654 -0.5840  0.0576 -0.2237
  504MOL0     C66448   2.667   6.830   1.941 -0.2791 -0.5552  0.9050
  504MOL0     C66449   2.586   6.939   1.928  1.0027  0.1617  0.4355
  504MOL0     C66450   2.405   7.349   1.862  0.2232  0.4400  0.5719
  504MOL0     C66451   2.335   7.430   1.950 -0.2923 -0.1572 -0.0456
  504MOL0     C66452   2.274   7.548   1.907 -0.6966  0.4098 -0.4850
  504MOL0     C66453   2.263   7.584   1.770  0.3107  0.5311 -0.8877
  504MOL0     O66454   2.197   7.687   1.722  0.9738 -0.0224  0.2952
  504MOL0     C66455   2.135   7.788   1.803  0.0449 -0.3115  0.0232
  504MOL0     C66456   2.065   7.877   1.708  0.5428  0.4164 -0.5780
  504MOL0     C66457   1.982   7.979   1.779 -0.6264 -0.4404 -0.1538
  504MOL0     C66458   1.916   8.072   1.676  0.1662 -0.0621  0.2902
  504MOL0     C66459   1.820   8.163   1.747 -0.8553 -0.0510  0.1492
  504MOL0     C66460   1.727   8.233   1.769  0.7879 -0.7864 -0.3259
  504MOL0     C66461   2.325   7.498   1.694  0.7342 -0.7952 -0.2978
  504MOL0     C66462   2.400   7.385   1.730  0.0343  0.2165  0.2638
  504MOL0     H66463   2.812   7.139   1.770 -0.5237  1.1565 -0.5944
  504MOL0     H66464   2.962   6.961   1.822 -0.1108 -0.1110 -0.2985
  504MOL0     H66465   2.948   6.573   2.078 -0.6721 -1.2928  0.3070
  504MOL0     H66466   2.775   6.599   2.076 -0.5196 -0.2820  1.2477
  504MOL0     H66467   2.875   6.682   2.285  0.7289 -1.8598 -2.0594
  504MOL0     H66468   2.836   6.830   2.187 -0.2045 -0.8395 -2.4689
  504MOL0     H66469   3.089   6.808   2.106  2.5315 -0.5084  1.2623
  504MOL0     H66470   3.106   6.691   2.232  0.4488  0.6608  1.5343
  504MOL0     H66471   3.022   6.978   2.276 -1.4333 -0.2313  0.3255
  504MOL0     H66472   3.026   6.861   2.404  0.9068 -0.6720 -0.2581
  504MOL0     H66473   3.277   6.977   2.256  0.5253  2.1274  1.1713
  504MOL0     H66474   3.266   6.836   2.366 -0.6678  1.0625  0.3684
  504MOL0     H66475   3.180   7.127   2.421 -0.5394 -1.6944 -3.5340
  504MOL0     H66476   3.324   7.082   2.472 -2.0918  4.2448 -0.1224
  504MOL0     H66477   3.064   7.043   2.615 -0.2453  0.0643 -0.1376
  504MOL0     H66478   3.165   6.892   2.610  1.6328 -0.1299 -2.8060
  504MOL0     H66479   3.200   7.046   2.811  0.9724 -0.2524  0.3909
  504MOL0     H66480   3.278   7.166   2.706  2.4779 -0.0530  0.7118
  504MOL0     H66481   3.407   7.004   2.968 -1.4068 -0.8782 -0.4284
  504MOL0     H66482   3.684   6.990   3.002  1.2463  1.1039 -1.3042
  504MOL0     H66483   3.769   6.886   2.896  0.8182 -0.2023  1.3030
  504MOL0     H66484   3.636   6.688   2.995 -1.4627  0.6921 -1.5572
  504MOL0     H66485   3.531   6.806   3.071 -0.3864  1.4961 -1.3024
  504MOL0     H66486   3.696   6.870   3.242  0.2288 -1.9169  0.8083
  504MOL0     H66487   3.675   6.702   3.244 -0.8550  1.3915  1.9291
  504MOL0     H66488   3.898   6.853   3.097  0.3172 -0.3911 -1.7721
  504MOL0     H66489   3.889   6.681   3.093  2.8696  0.9308  0.8164
  504MOL0     H66490   4.061   6.733   3.485  0.5991  1.1011 -1.7945
  504MOL0     H66491   4.084   6.520   3.616 -0.9956  0.1706  1.9716
  504MOL0     H66492   3.791   5.973   3.489 -1.4888  2.1010  0.9387
  504MOL0     H66493   3.791   5.756   3.602 -1.1341  0.9952  4.1799
  504MOL0     H66494   4.084   5.697   3.893  1.0207  0.9192 -2.6978
  504MOL0     H66495   4.158   5.583   3.774 -0.0883 -0.9939 -1.4511
  504MOL0     H66496   3.962   5.407   3.834 -2.2420 -0.6476  1.8457
  504MOL0     H66497   3.944   5.502   3.983  1.8531 -1.8821  1.6965
  504MOL0     H66498   4.164   5.445   4.056  0.6158 -2.6902  0.3059
  504MOL0     H66499   4.222   5.395   3.903 -0.1833 -2.8084 -0.5940
  504MOL0     H66500   4.007   5.271   4.059 -1.9639  1.4618 -2.0046
  504MOL0     H66501   4.056   5.220   3.897 -2.2431 -0.9941  0.0082
  504MOL0     H66502   4.291   5.183   3.990 -0.3094 -3.3699 -1.5626
  504MOL0     H66503   4.178   5.059   4.053 -0.6399  0.2619  0.7477
  504MOL0     H66504   4.146   5.194   4.262 -0.0199  0.5646 -0.3934
  504MOL0     H66505   4.256   5.306   4.193 -2.2238  0.2123 -1.6323
  504MOL0     H66506   4.440   5.149   4.212 -1.2558  0.4836 -0.8902
  504MOL0     H66507   4.360   5.139   4.362 -0.7394  0.8946 -0.8402
  504MOL0     H66508   4.422   4.921   4.307 -0.4800  0.2398  1.5736
  504MOL0     H66509   4.363   4.929   4.139  0.7018  3.1261 -1.0177
  504MOL0     H66510   4.198   5.800   3.723 -0.6257  0.4806  0.0507
  504MOL0     H66511   4.194   6.040   3.637 -0.3501  1.1081 -0.1716
  504MOL0     H66512   3.832   6.314   3.333  0.3321  0.0847 -1.1740
  504MOL0     H66513   3.839   6.519   3.197 -0.6901  3.1894  0.2866
  504MOL0     H66514   2.626   6.736   1.977 -3.0793  0.1957 -0.0288
  504MOL0     H66515   2.482   6.939   1.961  0.6766 -1.8009 -0.4269
  504MOL0     H66516   2.334   7.431   2.059  0.1658  0.5127 -0.0387
  504MOL0     H66517   2.221   7.604   1.985  0.4190  0.0655  0.5493
  504MOL0     H66518   2.204   7.847   1.863 -0.7259  0.2078  0.4248
  504MOL0     H66519   2.068   7.748   1.880  0.4039 -1.4487 -0.2392
  504MOL0     H66520   2.142   7.918   1.641  1.9783 -2.2812 -0.6763
  504MOL0     H66521   2.006   7.809   1.646  0.9229  0.4522 -0.9842
  504MOL0     H66522   2.034   8.018   1.868 -1.9635 -4.2142  2.5096
  504MOL0     H66523   1.910   7.923   1.839  0.9211 -0.7602  1.5122
  504MOL0     H66524   1.993   8.124   1.619 -2.8342  1.9535 -2.3009
  504MOL0     H66525   1.862   8.011   1.603  0.8902  1.8499 -1.9739
  504MOL0     H66526   1.644   8.297   1.790 -0.0001 -1.8161 -0.2062
  504MOL0     H66527   2.300   7.497   1.588 -0.9198 -3.4806  0.0040
  504MOL0     H66528   2.451   7.328   1.652  0.5076  0.3660  0.4582
  505MOL0     O66529   0.575   3.532   4.647  0.3075 -0.0106 -0.2298
  505MOL0     C66530   0.635   3.579   4.747  0.5745  0.8030 -0.6442
  505MOL0     O66531   0.588   3.672   4.840 -0.6052 -0.1160 -0.0685
  505MOL0     C66532   0.479   3.745   4.810 -0.3484  0.0074 -0.9477
  505MOL0     C66533   0.390   3.765   4.915  0.2474 -0.0184 -0.8956
  505MOL0     C66534   0.269   3.834   4.904  0.4536  0.6563  0.5504
  505MOL0     C66535   0.242   3.897   4.772  0.8231 -0.3417 -0.0070
  505MOL0     O66536   0.128   3.971   4.734 -0.0074 -0.0924  0.3514
  505MOL0     C66537   0.011   3.960   4.816 -0.8561  0.0897  0.1980
  505MOL0     C66538  -0.060   3.828   4.802 -0.2345  0.0497  0.1362
  505MOL0     C66539  -0.178   3.805   4.897  0.7743  0.1709  0.0955
  505MOL0     C66540  -0.224   3.659   4.919 -0.3169  0.5727  0.9158
  505MOL0     C66541  -0.200   3.603   5.058  0.2636  0.5006  0.0150
  505MOL0     C66542  -0.312   3.652   5.160  0.5542  0.0887  0.6052
  505MOL0     C66543  -0.279   3.613   5.310  0.1259  0.2459 -0.3382
  505MOL0     C66544  -0.270   3.729   5.409 -0.1809 -0.2332  0.2048
  505MOL0     N66545  -0.206   3.676   5.532 -0.2478 -0.6751  0.0851
  505MOL0     C66546  -0.269   3.605   5.633  0.4299 -0.0621  0.4963
  505MOL0     C66547  -0.166   3.583   5.712 -0.0148  1.4070 -0.3751
  505MOL0     C66548  -0.169   3.520   5.850  0.4090  0.0743  0.6202
  505MOL0     C66549  -0.136   3.378   5.850 -0.4852  1.3961 -0.3924
  505MOL0     C66550  -0.221   3.277   5.779  0.8703 -0.0787  0.6664
  505MOL0     C66551  -0.210   3.285   5.625 -1.1198 -0.1702  1.0377
  505MOL0     O66552  -0.252   3.166   5.558 -0.8230  0.7231 -0.3412
  505MOL0     C66553  -0.231   3.136   5.426 -0.0202  0.6187 -0.1545
  505MOL0     C66554  -0.189   3.233   5.332  0.1681 -0.3448 -0.5100
  505MOL0     C66555  -0.159   3.201   5.198  1.0650  0.3615 -0.6092
  505MOL0     C66556  -0.175   3.078   5.143  0.1839 -0.0086 -0.0081
  505MOL0     C66557  -0.127   3.033   5.006  0.3027  1.6590  0.1736
  505MOL0     O66558  -0.112   2.895   4.979  0.4763  0.1054  0.0610
  505MOL0     C66559  -0.103   2.883   4.841 -1.0612  0.9149 -0.5705
  505MOL0     C66560   0.017   2.852   4.783  0.3893  0.0324 -0.5764
  505MOL0     C66561   0.031   2.826   4.645 -0.2701 -0.3266 -0.4381
  505MOL0     C66562  -0.084   2.823   4.559 -0.6785  0.1868 -0.4112
  505MOL0     O66563  -0.069   2.789   4.428  0.8219  0.4981 -0.3539
  505MOL0     C66564  -0.159   2.845   4.330  0.5954  1.1296 -0.5495
  505MOL0     C66565  -0.118   2.796   4.186  0.1318  0.6829  0.2778
  505MOL0     C66566   0.021   2.845   4.145 -0.3223 -1.1511  0.6501
  505MOL0     C66567   0.041   2.805   3.999  0.6602  0.4464 -0.2347
  505MOL0     C66568   0.157   2.879   3.926  0.5700 -0.1775  0.2255
  505MOL0     C66569   0.135   2.862   3.780 -0.0224 -0.4319 -0.3047
  505MOL0     C66570   0.240   2.918   3.696  1.1480 -0.7371  0.5194
  505MOL0     C66571   0.201   3.030   3.602  0.4439  0.7319 -1.1505
  505MOL0    Cl66572   0.066   2.991   3.483 -0.0605  0.3114  0.0491
  505MOL0     C66573  -0.199   2.873   4.617 -0.3679 -0.5442 -0.0520
  505MOL0     C66574  -0.211   2.893   4.761  1.3439 -0.8254  0.6941
  505MOL0     O66575  -0.127   3.128   4.925  0.6132  1.7206 -0.4766
  505MOL0     C66576  -0.232   2.980   5.230 -0.4141  0.7994  0.0331
  505MOL0     C66577  -0.250   3.009   5.367  0.7518  0.0980  0.4535
  505MOL0     N66578  -0.048   3.613   5.652  0.3497 -0.2969  0.5234
  505MOL0     N66579  -0.076   3.680   5.543 -0.0247 -0.7064 -0.3185
  505MOL0     C66580   0.336   3.884   4.673  0.4580 -0.2320 -0.8405
  505MOL0     C66581   0.451   3.807   4.690 -0.4765 -0.6015 -0.4527
  505MOL0     C66582   0.768   3.514   4.780  0.0345  0.0812  0.0235
  505MOL0     C66583   0.831   3.452   4.681 -0.4595  1.3502 -0.0911
  505MOL0     C66584   0.957   3.396   4.691  1.1398  0.2848 -0.0579
  505MOL0     C66585   1.018   3.399   4.821  1.3372 -0.2460 -0.5896
  505MOL0     O66586   1.146   3.350   4.858  0.1528 -0.4083  0.8095
  505MOL0     C66587   1.229   3.318   4.750 -0.8784  0.4449 -0.0237
  505MOL0     C66588   1.246   3.169   4.726  0.3358  0.1533  0.5446
  505MOL0     C66589   1.302   3.135   4.585 -0.9104  0.2182  0.2202
  505MOL0     C66590   1.451   3.185   4.586  0.0073  0.4246 -0.8540
  505MOL0     C66591   1.497   3.145   4.457 -0.4303 -0.3433  0.6549
  505MOL0     C66592   1.540   3.127   4.339 -0.2657 -0.4477  0.0065
  505MOL0     C66593   0.948   3.468   4.924  0.4761 -0.2957  0.7229
  505MOL0     C66594   0.823   3.526   4.911  0.2705 -0.1246 -1.0965
  505MOL0     H66595   0.406   3.705   5.004 -0.5473 -1.7178 -1.8486
  505MOL0     H66596   0.194   3.842   4.982 -1.4096  1.6031 -1.2441
  505MOL0     H66597  -0.057   4.044   4.803  1.1334  1.6115 -0.9617
  505MOL0     H66598   0.040   3.962   4.921  2.9184 -1.0345 -0.6675
  505MOL0     H66599   0.017   3.755   4.828 -0.7147 -0.5154  0.0007
  505MOL0     H66600  -0.088   3.820   4.696  2.7792 -0.2562 -0.7116
  505MOL0     H66601  -0.263   3.869   4.872  0.9468  0.3068 -0.1416
  505MOL0     H66602  -0.140   3.837   4.995  1.5667 -0.9611  0.1737
  505MOL0     H66603  -0.321   3.649   4.869 -1.3292  4.4859  1.7362
  505MOL0     H66604  -0.170   3.594   4.850 -2.0711  1.4246 -1.3749
  505MOL0     H66605  -0.098   3.635   5.081 -0.1983  1.5206  0.7284
  505MOL0     H66606  -0.199   3.494   5.050  1.8026  0.3222  1.8263
  505MOL0     H66607  -0.415   3.618   5.150  0.2653  0.2789  2.5587
  505MOL0     H66608  -0.309   3.761   5.155 -0.3674  0.1348  0.9967
  505MOL0     H66609  -0.362   3.548   5.338  1.7297 -0.8897  2.2308
  505MOL0     H66610  -0.186   3.555   5.308 -0.4553 -0.9204  2.2293
  505MOL0     H66611  -0.365   3.779   5.426 -0.1923 -1.0295  2.9442
  505MOL0     H66612  -0.209   3.807   5.362 -2.1819  1.7861  0.8023
  505MOL0     H66613  -0.375   3.591   5.647  0.0275  1.7502 -0.4343
  505MOL0     H66614  -0.266   3.532   5.898 -0.5556  1.8200 -1.6014
  505MOL0     H66615  -0.091   3.575   5.905  1.8199  0.5683 -1.7547
  505MOL0     H66616  -0.107   3.344   5.950  4.4520  0.1873 -1.9963
  505MOL0     H66617  -0.043   3.380   5.792 -0.4688  1.7415 -0.3580
  505MOL0     H66618  -0.198   3.173   5.801 -0.8394 -0.7869 -0.6559
  505MOL0     H66619  -0.328   3.292   5.798 -0.5070 -3.7741 -2.8539
  505MOL0     H66620  -0.104   3.286   5.596 -0.6381 -1.0868  2.6572
  505MOL0     H66621  -0.270   3.370   5.591  2.1371  1.3715 -1.5102
  505MOL0     H66622  -0.170   3.334   5.366 -0.8393 -1.2845  3.2655
  505MOL0     H66623  -0.110   3.284   5.147  1.2193  0.3098 -0.5483
  505MOL0     H66624   0.104   2.854   4.848 -1.0697 -0.4055  1.4999
  505MOL0     H66625   0.121   2.795   4.594 -0.6530  0.4768 -1.6396
  505MOL0     H66626  -0.150   2.954   4.332  0.7307  1.2055 -2.9659
  505MOL0     H66627  -0.265   2.821   4.347  0.4103  0.5371 -2.3052
  505MOL0     H66628  -0.189   2.853   4.126 -0.3439  1.3701  1.4449
  505MOL0     H66629  -0.140   2.690   4.172  2.0189 -0.3090  3.7057
  505MOL0     H66630   0.101   2.795   4.201  0.5667 -2.3247 -1.5179
  505MOL0     H66631   0.013   2.953   4.161 -2.9827 -1.1545 -0.1897
  505MOL0     H66632   0.065   2.699   3.997  1.9850  0.7403 -2.0729
  505MOL0     H66633  -0.050   2.816   3.939  0.6932 -5.1687 -1.8257
  505MOL0     H66634   0.257   2.837   3.943  0.3860 -0.3516  0.9248
  505MOL0     H66635   0.163   2.985   3.954 -0.5674 -0.0080 -0.1256
  505MOL0     H66636   0.041   2.912   3.757  0.4840 -0.1788 -1.8976
  505MOL0     H66637   0.129   2.755   3.756  0.9465 -0.7063  0.5910
  505MOL0     H66638   0.316   2.962   3.762  1.7301 -1.0944  0.0996
  505MOL0     H66639   0.297   2.842   3.642  1.9277  1.2412 -1.6164
  505MOL0     H66640   0.285   3.079   3.551  2.4168 -2.1731 -0.9381
  505MOL0     H66641   0.151   3.103   3.666 -1.5786 -1.5912  0.1075
  505MOL0     H66642  -0.288   2.897   4.559  0.0671  2.5138  0.4027
  505MOL0     H66643  -0.302   2.927   4.809 -0.2214 -2.4908 -0.8935
  505MOL0     H66644  -0.242   2.877   5.197  1.0355  0.2427  1.2115
  505MOL0     H66645  -0.293   2.927   5.424 -1.6045  1.7647  1.2672
  505MOL0     H66646   0.317   3.929   4.576 -1.1680  2.8659  0.7574
  505MOL0     H66647   0.521   3.808   4.607 -1.2331  3.2097 -1.2566
  505MOL0     H66648   0.785   3.447   4.583  0.3315  0.4553 -0.4323
  505MOL0     H66649   0.988   3.335   4.606  0.7713  0.3877 -0.2661
  505MOL0     H66650   1.332   3.343   4.776  0.0398  2.2892 -4.5696
  505MOL0     H66651   1.211   3.370   4.656  1.4868  2.1025  0.3510
  505MOL0     H66652   1.311   3.125   4.802 -0.9026  0.3932  1.7846
  505MOL0     H66653   1.143   3.133   4.713 -0.3477  1.9215  0.7661
  505MOL0     H66654   1.239   3.187   4.513 -1.2296 -0.5988 -0.1085
  505MOL0     H66655   1.291   3.031   4.553 -0.1503  0.2430 -0.1439
  505MOL0     H66656   1.436   3.293   4.590  0.0501  0.3956  1.6853
  505MOL0     H66657   1.508   3.145   4.670 -0.8847 -6.2847 -2.8051
  505MOL0     H66658   1.569   3.110   4.237 -4.2211 -3.5487 -0.8598
  505MOL0     H66659   0.993   3.485   5.021  0.6905  1.5950  0.3245
  505MOL0     H66660   0.785   3.589   4.991  2.8113 -0.7278  0.7290
  506MOL0     O66661   4.812   9.502   2.047  0.5977  0.6436 -0.6248
  506MOL0     C66662   4.915   9.491   2.113 -0.5651  0.5403  0.5401
  506MOL0     O66663   4.994   9.384   2.118 -0.8532 -0.3488 -0.5296
  506MOL0     C66664   4.961   9.263   2.067  0.1186  0.1002 -0.3108
  506MOL0     C66665   4.853   9.189   2.094  0.8576  0.6278 -0.4777
  506MOL0     C66666   4.832   9.058   2.037  0.0854 -0.3220  0.7534
  506MOL0     C66667   4.940   9.000   1.968  0.6763 -0.3663 -0.3899
  506MOL0     O66668   4.929   8.866   1.939  1.2277 -0.3225  0.0919
  506MOL0     C66669   5.020   8.820   1.839 -0.8797  0.0765 -0.3725
  506MOL0     C66670   4.969   8.844   1.696 -0.3242  0.3238  0.3956
  506MOL0     C66671   5.054   8.786   1.588 -0.3381  0.3234 -0.3867
  506MOL0     C66672   5.210   8.810   1.597  0.4627 -0.5263  0.2975
  506MOL0     C66673   5.278   8.751   1.478  0.3378 -0.5989  0.7832
  506MOL0     C66674   5.291   8.605   1.501  0.6847  0.3596 -0.0394
  506MOL0     C66675   5.384   8.551   1.392 -0.2497 -0.3138 -0.0197
  506MOL0     C66676   5.385   8.393   1.381  0.2031 -1.3295  0.3337
  506MOL0     N66677   5.446   8.362   1.252  0.9906 -0.0439 -0.6585
  506MOL0     C66678   5.388   8.322   1.131 -0.2032  0.7808 -0.6405
  506MOL0     C66679   5.499   8.291   1.051  1.0079 -0.3610  0.1602
  506MOL0     C66680   5.488   8.257   0.902 -0.2539  0.1156  0.2131
  506MOL0     C66681   5.593   8.327   0.814 -0.5618  1.6245  0.0216
  506MOL0     C66682   5.522   8.355   0.672 -0.1596  0.1321 -0.4366
  506MOL0     C66683   5.434   8.475   0.669  0.5862 -0.4255 -1.0368
  506MOL0     O66684   5.381   8.485   0.537 -0.1745 -0.1071  0.5997
  506MOL0     C66685   5.253   8.450   0.514  0.2992  0.3223 -0.1941
  506MOL0     C66686   5.191   8.501   0.403  0.3663  0.0343 -0.1455
  506MOL0     C66687   5.056   8.474   0.368 -0.3280 -0.8270  0.3330
  506MOL0     C66688   4.979   8.405   0.453  0.2564 -0.5290 -0.1093
  506MOL0     C66689   4.842   8.378   0.427  0.2153  0.3638 -0.4557
  506MOL0     O66690   4.787   8.264   0.476  0.0155 -0.3460 -1.3802
  506MOL0     C66691   4.700   8.192   0.396  0.4360  0.1590 -0.3085
  506MOL0     C66692   4.592   8.132   0.471 -0.4673 -0.7913 -0.1197
  506MOL0     C66693   4.503   8.051   0.405 -1.4943  0.6009  0.3318
  506MOL0     C66694   4.502   8.040   0.259 -0.9701  0.4056 -0.2080
  506MOL0     O66695   4.403   7.979   0.187  0.0174 -0.3776  0.7069
  506MOL0     C66696   4.284   7.933   0.251  0.7359 -1.0196  0.2257
  506MOL0     C66697   4.293   7.785   0.296  0.3743  1.1534 -0.2714
  506MOL0     C66698   4.174   7.757   0.385 -1.0826 -0.1874 -0.1635
  506MOL0     C66699   4.173   7.610   0.429  0.4391  0.9908  0.1767
  506MOL0     C66700   4.046   7.567   0.494  0.9166 -0.5466  0.7042
  506MOL0     C66701   4.028   7.625   0.639 -0.5152 -0.0237  0.6781
  506MOL0     C66702   3.937   7.534   0.730  0.2156 -0.6866 -0.0101
  506MOL0     C66703   3.919   7.589   0.878 -0.0567 -0.5276 -0.5542
  506MOL0    Cl66704   3.774   7.542   0.963 -0.1037 -0.3719  0.6831
  506MOL0     C66705   4.603   8.109   0.187 -0.0192 -1.0527  0.0080
  506MOL0     C66706   4.694   8.193   0.252  0.5840  0.4881  0.3480
  506MOL0     O66707   4.785   8.467   0.370  0.7525  0.3224 -0.4123
  506MOL0     C66708   5.045   8.340   0.561 -0.6857 -0.2940  0.0009
  506MOL0     C66709   5.179   8.357   0.591  0.2778 -0.4601 -0.3826
  506MOL0     N66710   5.613   8.294   1.126  0.2876  0.4566 -0.3176
  506MOL0     N66711   5.575   8.348   1.244 -0.6061  0.9654  0.0414
  506MOL0     C66712   5.058   9.075   1.962 -0.3409 -0.1222 -0.2954
  506MOL0     C66713   5.072   9.205   2.000 -0.8120 -0.4534 -0.7810
  506MOL0     C66714   4.961   9.624   2.176 -0.3843  0.1526 -0.7678
  506MOL0     C66715   5.100   9.647   2.195  0.7640  0.7253  0.5282
  506MOL0     C66716   5.147   9.764   2.251  0.4206  0.9483  0.1424
  506MOL0     C66717   5.047   9.857   2.288 -1.3695  0.7578  0.0323
  506MOL0     O66718   5.092   9.976   2.331  0.3404 -0.6465  0.1167
  506MOL0     C66719   5.120  10.066   2.222 -0.4420 -0.5311 -0.4606
  506MOL0     C66720   5.161  10.199   2.276 -0.3196 -0.1614 -0.8124
  506MOL0     C66721   5.262  10.180   2.390 -1.2685 -0.4730 -0.1986
  506MOL0     C66722   5.296  10.311   2.467 -0.4814  0.9224  0.9889
  506MOL0     C66723   5.390  10.396   2.388  0.7918 -0.3261  0.2505
  506MOL0     C66724   5.473  10.470   2.344 -0.2967 -0.5380  1.0626
  506MOL0     C66725   4.910   9.841   2.266 -0.4273  0.0340  0.8122
  506MOL0     C66726   4.869   9.721   2.214 -0.9411  0.5877  0.6802
  506MOL0     H66727   4.775   9.231   2.157 -0.3245  0.0805 -1.5228
  506MOL0     H66728   4.741   9.000   2.047  0.1052 -0.6000 -0.5334
  506MOL0     H66729   5.023   8.711   1.841 -2.4583 -0.1090 -3.1557
  506MOL0     H66730   5.125   8.849   1.847 -0.1053 -1.3982 -3.7382
  506MOL0     H66731   4.964   8.952   1.683 -2.6621  0.8366  3.9970
  506MOL0     H66732   4.864   8.816   1.682 -0.8050  1.1303  2.0947
  506MOL0     H66733   5.020   8.808   1.486 -2.1660 -3.1648 -0.6810
  506MOL0     H66734   5.035   8.679   1.596 -1.0605  0.3664 -1.3305
  506MOL0     H66735   5.225   8.918   1.597  2.4583 -0.7679  0.4844
  506MOL0     H66736   5.240   8.777   1.697  2.3674  2.3919  0.8030
  506MOL0     H66737   5.374   8.801   1.470 -0.4543  1.0158  0.9586
  506MOL0     H66738   5.220   8.760   1.386  2.2597  0.7870 -0.3485
  506MOL0     H66739   5.193   8.558   1.504 -0.7097  2.9211 -1.7126
  506MOL0     H66740   5.353   8.585   1.589  1.0253  0.4690 -0.2486
  506MOL0     H66741   5.346   8.588   1.296 -1.3363  2.0972  1.2612
  506MOL0     H66742   5.489   8.582   1.395 -0.2213 -0.2976 -0.9055
  506MOL0     H66743   5.283   8.355   1.367  0.3889 -1.0573 -2.1046
  506MOL0     H66744   5.431   8.353   1.472  0.0277  3.6478  2.9721
  506MOL0     H66745   5.285   8.328   1.097 -0.5750 -1.2232  0.0010
  506MOL0     H66746   5.390   8.292   0.869  0.2801  0.3022 -1.2137
  506MOL0     H66747   5.481   8.148   0.901 -1.7527 -0.0614  4.6061
  506MOL0     H66748   5.678   8.258   0.809 -2.1935 -0.6518  1.7253
  506MOL0     H66749   5.615   8.423   0.863 -0.1350  2.6109 -2.0063
  506MOL0     H66750   5.595   8.366   0.591 -1.3098  5.9872 -1.1406
  506MOL0     H66751   5.461   8.272   0.635 -3.2395  3.4175 -3.6264
  506MOL0     H66752   5.503   8.558   0.686  1.1537 -1.2867  1.2112
  506MOL0     H66753   5.365   8.482   0.754 -0.1683 -2.5635 -1.4149
  506MOL0     H66754   5.245   8.578   0.349 -4.6902  3.4095 -1.0770
  506MOL0     H66755   5.019   8.538   0.289  0.0233  0.1574  0.9363
  506MOL0     H66756   4.588   8.135   0.579  2.8830  0.2231  0.0847
  506MOL0     H66757   4.434   7.992   0.464 -2.6572 -0.5021 -1.9905
  506MOL0     H66758   4.201   7.956   0.183 -0.4265  0.4055  2.0201
  506MOL0     H66759   4.270   8.000   0.337  1.4886 -0.4658 -0.0599
  506MOL0     H66760   4.382   7.781   0.361 -0.6056  2.6574  1.2509
  506MOL0     H66761   4.305   7.718   0.211  0.1011  2.3249 -1.2619
  506MOL0     H66762   4.085   7.780   0.326 -0.4014  1.7826 -0.4797
  506MOL0     H66763   4.181   7.830   0.466  4.7982  0.3019 -0.7033
  506MOL0     H66764   4.171   7.546   0.340 -1.4942 -0.0062  0.8869
  506MOL0     H66765   4.259   7.599   0.495 -1.3860 -1.9704  2.2506
  506MOL0     H66766   4.043   7.459   0.511 -1.4369 -1.1479 -2.6588
  506MOL0     H66767   3.967   7.608   0.431  0.8215  0.3835  1.3934
  506MOL0     H66768   3.985   7.725   0.643 -1.8366 -0.0393 -5.1040
  506MOL0     H66769   4.130   7.610   0.676 -0.0766 -0.2305 -0.5791
  506MOL0     H66770   3.843   7.517   0.677  1.8085 -0.6801 -2.9991
  506MOL0     H66771   3.980   7.433   0.740  0.8735 -0.5893 -1.6545
  506MOL0     H66772   3.904   7.698   0.883 -0.0450 -0.5523  0.0387
  506MOL0     H66773   4.001   7.551   0.939 -1.2057  1.0536  2.1685
  506MOL0     H66774   4.597   8.101   0.079 -0.2537  0.7529 -0.1368
  506MOL0     H66775   4.772   8.244   0.196  0.0544  0.3475 -0.5407
  506MOL0     H66776   5.005   8.275   0.638 -0.0503  1.8128  2.2584
  506MOL0     H66777   5.217   8.302   0.676 -0.9433  0.2322  0.6465
  506MOL0     H66778   5.152   9.048   1.915  0.4559 -0.5511  1.4512
  506MOL0     H66779   5.157   9.271   1.982 -0.4906 -0.9999 -1.2977
  506MOL0     H66780   5.169   9.566   2.173  0.9251  1.0052  0.0060
  506MOL0     H66781   5.253   9.788   2.256  0.3371  1.0356  2.0152
  506MOL0     H66782   5.039  10.084   2.151 -0.4369 -2.0799 -0.9079
  506MOL0     H66783   5.203  10.014   2.171 -0.2414 -2.0742  1.3100
  506MOL0     H66784   5.202  10.261   2.196 -0.5345 -0.0689 -0.8502
  506MOL0     H66785   5.074  10.247   2.322 -0.3647 -0.0201 -1.0472
  506MOL0     H66786   5.360  10.146   2.356 -0.7508 -1.4304  2.0632
  506MOL0     H66787   5.236  10.105   2.465  0.3605 -1.9630 -1.0313
  506MOL0     H66788   5.201  10.359   2.491 -1.6248 -0.5588 -0.3565
  506MOL0     H66789   5.357  10.285   2.554 -0.4257 -4.3217 -0.2970
  506MOL0     H66790   5.553  10.530   2.306  1.2979 -2.5394  1.0938
  506MOL0     H66791   4.836   9.916   2.293 -0.8317  0.7112 -1.9046
  506MOL0     H66792   4.762   9.700   2.212 -1.2849  1.7041 -3.9029
  507MOL0     O66793  11.234   7.479  11.115  0.0452  0.8447 -0.1127
  507MOL0     C66794  11.263   7.475  10.999  0.0014 -0.0656 -0.5247
  507MOL0     O66795  11.228   7.377  10.915  1.0345  0.1452  0.0038
  507MOL0     C66796  11.129   7.286  10.943  0.2947 -0.4021 -0.1510
  507MOL0     C66797  11.132   7.204  11.053  0.3828 -0.6180  0.3731
  507MOL0     C66798  11.031   7.113  11.071 -0.3770 -0.5081  0.1188
  507MOL0     C66799  10.926   7.111  10.982  0.0856  0.2879 -0.3220
  507MOL0     O66800  10.820   7.031  10.998  1.0101  0.1666  0.4613
  507MOL0     C66801  10.779   6.994  11.133  0.0544  0.0506  0.2952
  507MOL0     C66802  10.716   6.858  11.158  0.4510 -0.5440  0.0740
  507MOL0     C66803  10.777   6.743  11.086  0.1081  0.7913 -0.2963
  507MOL0     C66804  10.934   6.728  11.091  0.1753 -1.1299  0.0727
  507MOL0     C66805  10.994   6.580  11.079 -0.4408  0.6568  0.0839
  507MOL0     C66806  11.142   6.588  11.057 -0.0952  0.6329  0.7438
  507MOL0     C66807  11.201   6.652  11.175  0.1366  0.1497 -0.8953
  507MOL0     C66808  11.351   6.604  11.187  0.6168  0.2110 -0.7801
  507MOL0     N66809  11.360   6.477  11.263 -0.6542  0.8292 -0.6635
  507MOL0     C66810  11.303   6.445  11.386  0.8109 -0.1021  1.1213
  507MOL0     C66811  11.279   6.313  11.386 -0.3521  0.3264 -0.1656
  507MOL0     C66812  11.210   6.222  11.492  0.3396  0.4977  0.7397
  507MOL0     C66813  11.062   6.248  11.487 -0.1684 -0.0508  0.6485
  507MOL0     C66814  11.008   6.171  11.369  0.3548 -0.6293 -0.1507
  507MOL0     C66815  10.858   6.200  11.363  0.2037 -0.9330  0.3006
  507MOL0     O66816  10.834   6.342  11.353  0.2737 -0.1395 -0.1393
  507MOL0     C66817  10.719   6.374  11.280  0.1486 -0.3018 -0.0346
  507MOL0     C66818  10.732   6.366  11.142  0.0126 -0.2203  1.1135
  507MOL0     C66819  10.625   6.382  11.053  0.1977 -0.2050  0.3052
  507MOL0     C66820  10.506   6.422  11.115 -0.3955  0.5526  0.7068
  507MOL0     C66821  10.387   6.421  11.038  0.3182  0.7620  0.4165
  507MOL0     O66822  10.279   6.489  11.089 -0.5261  0.1369  0.2298
  507MOL0     C66823  10.177   6.521  11.004 -0.1742  0.2873  0.8296
  507MOL0     C66824  10.182   6.618  10.902 -0.3440  0.3203 -0.3121
  507MOL0     C66825  10.053   6.649  10.837  0.0236  0.5018  0.1399
  507MOL0     C66826   9.933   6.587  10.873  1.2817  0.1713 -0.7420
  507MOL0     O66827   9.811   6.601  10.821 -0.7462 -0.3947 -0.2373
  507MOL0     C66828   9.794   6.660  10.691 -0.3769 -0.4518  0.1449
  507MOL0     C66829   9.670   6.600  10.632  0.4279 -1.0643 -1.0833
  507MOL0     C66830   9.551   6.666  10.700 -0.6226  0.3053  0.1083
  507MOL0     C66831   9.434   6.598  10.625 -0.2370 -0.4476  0.1676
  507MOL0     C66832   9.305   6.664  10.684 -0.3168  0.0148 -0.0886
  507MOL0     C66833   9.177   6.590  10.639 -0.8867  0.1495 -0.2802
  507MOL0     C66834   9.054   6.684  10.660 -0.1158 -0.5266  0.3185
  507MOL0     C66835   8.920   6.614  10.640 -0.6102 -0.2152 -0.9805
  507MOL0    Cl66836   8.783   6.728  10.657 -0.0237  0.4920  0.2186
  507MOL0     C66837   9.934   6.496  10.990  0.3519 -1.0381  0.4892
  507MOL0     C66838  10.060   6.466  11.047  0.8524  0.8931 -0.1362
  507MOL0     O66839  10.386   6.373  10.929  0.6310  0.0259  0.2678
  507MOL0     C66840  10.505   6.460  11.249 -0.2803 -0.5514  0.2841
  507MOL0     C66841  10.611   6.429  11.327  0.4237 -0.5430 -0.1203
  507MOL0     N66842  11.335   6.264  11.267  0.5212 -0.1419 -0.1870
  507MOL0     N66843  11.385   6.356  11.202 -0.0933  0.4659  0.2979
  507MOL0     C66844  10.918   7.200  10.880 -0.4638 -0.0360  0.5046
  507MOL0     C66845  11.025   7.277  10.852 -0.6925  0.7571  0.3238
  507MOL0     C66846  11.376   7.570  10.957  1.0538  0.1905  0.4099
  507MOL0     C66847  11.438   7.558  10.831  0.4750 -0.4077  0.3210
  507MOL0     C66848  11.556   7.628  10.801  0.9597 -0.7444  0.3839
  507MOL0     C66849  11.593   7.722  10.897 -0.8926 -0.3504 -0.5426
  507MOL0     O66850  11.703   7.812  10.888  0.0978  0.8677  0.4126
  507MOL0     C66851  11.779   7.792  10.762  0.2430 -0.5059 -0.4282
  507MOL0     C66852  11.885   7.906  10.769 -0.8118  0.1628  0.8313
  507MOL0     C66853  11.997   7.882  10.857 -0.6666 -0.8192  0.0733
  507MOL0     C66854  11.960   7.878  11.008 -0.4269 -0.3200 -0.4903
  507MOL0     C66855  12.082   7.849  11.083  0.2605 -0.2103 -0.1048
  507MOL0     C66856  12.191   7.832  11.138  1.1291 -0.3158 -0.0256
  507MOL0     C66857  11.529   7.729  11.012  0.0350 -0.2205 -0.7078
  507MOL0     C66858  11.428   7.653  11.046  0.1902 -0.2721  0.1554
  507MOL0     H66859  11.209   7.223  11.127  1.1952 -2.6942  0.1229
  507MOL0     H66860  11.036   7.051  11.160 -4.3817 -1.7697 -0.3252
  507MOL0     H66861  10.700   7.063  11.165  0.0651  0.4908 -0.6142
  507MOL0     H66862  10.872   6.993  11.190  1.7637  1.2721 -2.2982
  507MOL0     H66863  10.608   6.858  11.142 -0.1339  1.9511  3.0356
  507MOL0     H66864  10.727   6.841  11.266  0.2870  3.0511  0.7947
  507MOL0     H66865  10.739   6.745  10.984 -0.4116 -0.5555 -0.1584
  507MOL0     H66866  10.743   6.651  11.134 -0.5900 -0.2012 -2.5511
  507MOL0     H66867  10.975   6.780  11.004  0.2781 -1.5239 -0.1163
  507MOL0     H66868  10.975   6.774  11.181  0.2817 -0.4400 -0.3246
  507MOL0     H66869  10.943   6.530  10.996  0.7363 -0.2879 -0.1054
  507MOL0     H66870  10.962   6.515  11.161 -4.1983  0.8645 -1.0376
  507MOL0     H66871  11.176   6.643  10.968  2.4229  4.0488  3.5165
  507MOL0     H66872  11.186   6.488  11.050  0.3264  0.6942  2.2909
  507MOL0     H66873  11.198   6.761  11.172 -1.7379  0.3207  2.4646
  507MOL0     H66874  11.145   6.631  11.266  2.4364  0.7003  0.7276
  507MOL0     H66875  11.414   6.682  11.233  0.9418  0.1379 -1.0971
  507MOL0     H66876  11.392   6.598  11.086  0.2066 -0.1390 -0.9278
  507MOL0     H66877  11.269   6.522  11.455  0.7463  2.6404 -1.7021
  507MOL0     H66878  11.238   6.254  11.593  1.0509  3.8180 -0.3786
  507MOL0     H66879  11.239   6.119  11.473 -1.5356  0.1866 -0.6806
  507MOL0     H66880  11.036   6.354  11.487 -0.5583 -0.0996 -1.4427
  507MOL0     H66881  11.017   6.212  11.580 -0.2236 -2.7046 -0.3129
  507MOL0     H66882  11.047   6.199  11.271 -0.4509 -1.2860 -0.6723
  507MOL0     H66883  11.024   6.065  11.389  0.3653 -0.7339 -0.6923
  507MOL0     H66884  10.807   6.169  11.455  1.2289 -1.2131  0.7844
  507MOL0     H66885  10.811   6.151  11.278  1.1343 -2.8924  0.8505
  507MOL0     H66886  10.825   6.324  11.103 -1.5137 -2.7081 -0.0708
  507MOL0     H66887  10.641   6.354  10.949  2.2805  1.0049  0.2274
  507MOL0     H66888  10.270   6.665  10.859 -1.9569  4.3086  0.2357
  507MOL0     H66889  10.057   6.737  10.773  1.2690  2.2368  2.4719
  507MOL0     H66890   9.864   6.641  10.610 -0.4271  1.4126 -0.3744
  507MOL0     H66891   9.781   6.768  10.697 -4.4480 -0.7437 -0.5079
  507MOL0     H66892   9.670   6.493  10.655  3.1917 -0.8367  0.3627
  507MOL0     H66893   9.676   6.622  10.525  1.4594 -0.5475 -0.9264
  507MOL0     H66894   9.548   6.776  10.697  1.2135  0.4287  1.3049
  507MOL0     H66895   9.557   6.643  10.806  1.5612 -0.1768 -0.0713
  507MOL0     H66896   9.444   6.615  10.518 -1.9651 -0.5804 -0.0292
  507MOL0     H66897   9.422   6.492  10.651  1.4291 -0.5777  0.5650
  507MOL0     H66898   9.303   6.767  10.649 -3.2609  0.0275 -0.1097
  507MOL0     H66899   9.308   6.648  10.792 -0.6908 -2.8760 -0.4125
  507MOL0     H66900   9.169   6.500  10.699  0.6011 -1.1130 -1.8713
  507MOL0     H66901   9.182   6.553  10.536  1.2525 -0.8745  0.1454
  507MOL0     H66902   9.058   6.712  10.765 -2.6340  1.7497 -0.0854
  507MOL0     H66903   9.061   6.777  10.603  0.1596  0.0996  1.3643
  507MOL0     H66904   8.912   6.530  10.710 -2.6155  0.4785 -0.2939
  507MOL0     H66905   8.921   6.570  10.540 -0.0227 -4.0487  0.5459
  507MOL0     H66906   9.848   6.444  11.030 -1.4530  1.3727 -0.0640
  507MOL0     H66907  10.080   6.393  11.124 -2.4985  0.0562  0.1008
  507MOL0     H66908  10.420   6.519  11.285  1.2256  1.7718  0.2586
  507MOL0     H66909  10.607   6.459  11.432 -1.6345 -1.1677  0.0181
  507MOL0     H66910  10.834   7.198  10.811 -0.8021  1.7338  0.8213
  507MOL0     H66911  11.012   7.340  10.763  1.9159  0.9072 -0.0376
  507MOL0     H66912  11.396   7.491  10.756  1.5557 -0.1566 -0.5498
  507MOL0     H66913  11.602   7.618  10.703 -1.3496 -0.6864 -0.7908
  507MOL0     H66914  11.725   7.813  10.670 -0.0159  0.5898 -0.0453
  507MOL0     H66915  11.829   7.696  10.755 -0.8924 -1.0412 -1.6480
  507MOL0     H66916  11.933   7.915  10.671 -0.7513 -0.9870  0.7440
  507MOL0     H66917  11.843   7.999  10.809 -1.1740  0.4141 -0.1133
  507MOL0     H66918  12.066   7.967  10.851 -0.1632 -1.1868  0.5041
  507MOL0     H66919  12.041   7.786  10.828  0.7474 -0.1766 -0.0021
  507MOL0     H66920  11.926   7.978  11.033 -2.8059 -1.0658 -0.5511
  507MOL0     H66921  11.885   7.800  11.023 -1.4328  0.4390 -1.4342
  507MOL0     H66922  12.279   7.817  11.198  0.7498 -2.9942  0.0004
  507MOL0     H66923  11.558   7.799  11.090 -2.7204 -2.2926  2.4890
  507MOL0     H66924  11.384   7.655  11.145  0.6354 -2.1888  0.4346
  508MOL0     O66925   4.581   6.468   5.790 -0.2852 -0.0020 -0.5966
  508MOL0     C66926   4.514   6.557   5.842  0.1326  0.8382 -0.5967
  508MOL0     O66927   4.562   6.678   5.873  0.0892  0.3339 -0.5253
  508MOL0     C66928   4.689   6.710   5.843  0.4706  0.8086  0.3546
  508MOL0     C66929   4.721   6.778   5.725 -0.6430 -0.1555  0.3041
  508MOL0     C66930   4.857   6.798   5.690  0.0848 -0.4893  0.7667
  508MOL0     C66931   4.957   6.763   5.782 -0.3363 -0.0471  0.0342
  508MOL0     O66932   5.088   6.784   5.736  0.2212  0.1251  0.0506
  508MOL0     C66933   5.196   6.793   5.820  0.1702  0.0295 -0.0141
  508MOL0     C66934   5.326   6.802   5.750  0.0949 -0.2026  1.4676
  508MOL0     C66935   5.449   6.830   5.843 -0.4009 -0.1930  0.2469
  508MOL0     C66936   5.491   6.687   5.898 -0.5509 -1.2144  0.6010
  508MOL0     C66937   5.574   6.718   6.034 -0.1027 -0.2902  0.1155
  508MOL0     C66938   5.618   6.594   6.113  0.6622 -0.6639  0.4491
  508MOL0     C66939   5.494   6.505   6.152  0.1113  0.4873 -0.6702
  508MOL0     C66940   5.392   6.574   6.247  0.9176  1.0612  0.6677
  508MOL0     N66941   5.458   6.598   6.371  0.2283 -0.0042 -0.8927
  508MOL0     C66942   5.496   6.505   6.467 -0.2478  0.4010  0.7017
  508MOL0     C66943   5.568   6.581   6.550  0.1213  0.3348 -0.4211
  508MOL0     C66944   5.619   6.529   6.687  0.2014  0.1548  0.3375
  508MOL0     C66945   5.764   6.577   6.709  0.1297 -0.4080  1.1708
  508MOL0     C66946   5.870   6.542   6.597  0.0612  0.4595  0.0840
  508MOL0     C66947   6.014   6.536   6.645 -0.1095  0.1912  0.2537
  508MOL0     O66948   6.040   6.451   6.763  0.7588 -0.2871  0.7882
  508MOL0     C66949   6.155   6.453   6.831 -0.4309  0.0376  0.3046
  508MOL0     C66950   6.167   6.401   6.965  0.6615 -0.0829  0.8197
  508MOL0     C66951   6.291   6.400   7.030  0.9183 -0.6202 -0.1669
  508MOL0     C66952   6.400   6.450   6.965 -0.1675  0.2859 -0.4075
  508MOL0     C66953   6.534   6.434   7.023  0.2950  0.7997 -0.0262
  508MOL0     O66954   6.641   6.455   6.935 -0.2425 -0.0767 -0.2361
  508MOL0     C66955   6.768   6.469   6.988 -0.3518  0.2540  0.5101
  508MOL0     C66956   6.858   6.367   6.973 -1.3033 -0.1524  0.3719
  508MOL0     C66957   6.994   6.392   7.009 -0.4274  0.5948 -1.3758
  508MOL0     C66958   7.035   6.514   7.064  0.3208 -0.4762 -0.6248
  508MOL0     O66959   7.161   6.554   7.110  0.2232  0.5175 -0.3703
  508MOL0     C66960   7.238   6.434   7.153 -0.3002 -0.0637  0.6224
  508MOL0     C66961   7.343   6.406   7.050 -0.0000  0.3380  0.6728
  508MOL0     C66962   7.428   6.524   7.010  0.2029  0.1318 -0.3425
  508MOL0     C66963   7.522   6.474   6.897  0.2496 -0.2165 -0.1503
  508MOL0     C66964   7.614   6.601   6.868 -0.5804  0.5929  0.4584
  508MOL0     C66965   7.545   6.735   6.822 -0.2283 -0.4097  0.2880
  508MOL0     C66966   7.490   6.748   6.680 -0.4563  0.2189 -0.0085
  508MOL0     C66967   7.349   6.695   6.678  0.5670 -0.4235  0.2693
  508MOL0    Cl66968   7.230   6.788   6.789 -0.0208 -0.1061 -0.6256
  508MOL0     C66969   6.939   6.624   7.058  0.3416  0.6965  0.1604
  508MOL0     C66970   6.802   6.598   7.020 -0.6696  0.1544 -0.3914
  508MOL0     O66971   6.548   6.389   7.139  0.1765 -0.0231  1.0166
  508MOL0     C66972   6.393   6.516   6.845  0.0647 -0.6025  0.0340
  508MOL0     C66973   6.274   6.512   6.778  0.0369 -0.3170  0.0213
  508MOL0     N66974   5.574   6.712   6.512 -0.3200  0.0560 -0.9089
  508MOL0     N66975   5.494   6.728   6.412  0.1157 -0.0820 -0.6055
  508MOL0     C66976   4.928   6.704   5.911 -0.3434 -0.4343  0.4393
  508MOL0     C66977   4.797   6.680   5.934 -0.6895  0.8285 -0.1008
  508MOL0     C66978   4.377   6.534   5.892  0.2945  0.2723 -0.4616
  508MOL0     C66979   4.302   6.625   5.976 -0.3297 -0.0757  0.0809
  508MOL0     C66980   4.168   6.613   6.007 -0.6163  0.2306  0.8109
  508MOL0     C66981   4.099   6.499   5.962  0.9197  0.9839  0.6361
  508MOL0     O66982   3.965   6.487   5.960 -0.3644  1.5965 -0.2763
  508MOL0     C66983   3.886   6.612   5.956  1.0057 -0.8929  1.2598
  508MOL0     C66984   3.828   6.657   5.813  0.3313 -0.4381  0.2610
  508MOL0     C66985   3.893   6.619   5.682 -0.8466  0.4070  0.2214
  508MOL0     C66986   3.884   6.466   5.638  0.0817 -0.5293  0.0804
  508MOL0     C66987   3.739   6.424   5.603 -0.4063 -0.2248  0.0583
  508MOL0     C66988   3.633   6.396   5.545  0.4600  0.3935 -0.6482
  508MOL0     C66989   4.164   6.405   5.883  0.0926  0.6827  1.0608
  508MOL0     C66990   4.296   6.427   5.846 -0.0501 -0.4384 -0.3455
  508MOL0     H66991   4.637   6.808   5.662 -0.8309 -0.7390  0.2713
  508MOL0     H66992   4.884   6.835   5.591 -1.3177  0.0022  0.5389
  508MOL0     H66993   5.194   6.706   5.886  1.8099  2.1132  3.0578
  508MOL0     H66994   5.179   6.881   5.883 -0.6486 -0.9411  1.1609
  508MOL0     H66995   5.317   6.899   5.700  0.8442 -1.2644 -0.8477
  508MOL0     H66996   5.339   6.722   5.677  2.1679  1.2400  0.1250
  508MOL0     H66997   5.403   6.889   5.923 -3.3955  2.2533 -2.9811
  508MOL0     H66998   5.532   6.869   5.783 -1.7605  0.2247 -1.4203
  508MOL0     H66999   5.398   6.632   5.915 -0.8320 -0.2436  2.4538
  508MOL0     H67000   5.558   6.644   5.824  2.4213  1.8483  1.2459
  508MOL0     H67001   5.523   6.794   6.093 -1.1928 -0.7286 -0.2329
  508MOL0     H67002   5.660   6.762   5.984 -0.7447 -1.6700 -2.3956
  508MOL0     H67003   5.679   6.616   6.201 -0.3961 -4.9565  2.5077
  508MOL0     H67004   5.689   6.536   6.052  1.5339  1.2712 -0.4626
  508MOL0     H67005   5.441   6.481   6.059 -3.6807  0.3036  1.3100
  508MOL0     H67006   5.523   6.407   6.192 -2.3475 -0.9360 -2.0907
  508MOL0     H67007   5.310   6.501   6.245 -0.6081  2.6908 -2.1610
  508MOL0     H67008   5.362   6.674   6.216 -3.3774  0.8866  3.4138
  508MOL0     H67009   5.478   6.399   6.475 -3.9382  1.0228  2.5332
  508MOL0     H67010   5.609   6.420   6.695 -1.2610  0.0467 -1.9115
  508MOL0     H67011   5.561   6.574   6.768 -3.1482 -1.7445 -0.8039
  508MOL0     H67012   5.793   6.531   6.804 -1.2312 -0.7058  1.4645
  508MOL0     H67013   5.754   6.686   6.707 -1.3628 -0.5390 -0.9634
  508MOL0     H67014   5.851   6.442   6.559 -0.5293  0.5878  0.0229
  508MOL0     H67015   5.858   6.604   6.507 -0.2370 -1.2966 -1.1352
  508MOL0     H67016   6.055   6.636   6.659  1.4494 -0.7351  3.2332
  508MOL0     H67017   6.080   6.499   6.566  1.2034  0.4017  1.2167
  508MOL0     H67018   6.080   6.357   7.012 -0.7984  0.1678 -1.4862
  508MOL0     H67019   6.291   6.342   7.122 -1.9933 -1.5482 -0.6670
  508MOL0     H67020   6.818   6.274   6.935 -1.5714 -0.4031  1.2552
  508MOL0     H67021   7.057   6.308   6.985 -0.2887  1.2801 -3.7409
  508MOL0     H67022   7.169   6.353   7.179  0.1599 -0.5072  0.4640
  508MOL0     H67023   7.283   6.458   7.249  0.2277  0.3787  0.2732
  508MOL0     H67024   7.298   6.354   6.964 -1.3639  0.4370  1.2969
  508MOL0     H67025   7.403   6.338   7.110 -0.9988  0.4514  1.8390
  508MOL0     H67026   7.489   6.551   7.096 -2.4508 -1.2114  2.1367
  508MOL0     H67027   7.362   6.608   6.988 -0.3348 -0.1886  0.0005
  508MOL0     H67028   7.576   6.390   6.941  0.0923  1.4199  3.5223
  508MOL0     H67029   7.475   6.434   6.806  0.3594 -0.3045 -0.1679
  508MOL0     H67030   7.696   6.575   6.800 -0.4062  1.9172  0.1208
  508MOL0     H67031   7.659   6.629   6.964  2.4421  1.0624 -0.9614
  508MOL0     H67032   7.623   6.810   6.835 -1.3233  1.3473 -2.4824
  508MOL0     H67033   7.460   6.756   6.887  0.1342  0.9181  0.3621
  508MOL0     H67034   7.483   6.855   6.657  0.3188  0.7348  1.9941
  508MOL0     H67035   7.551   6.690   6.611 -1.7724 -2.2348  0.7652
  508MOL0     H67036   7.348   6.592   6.714  1.6699 -0.0111  1.5555
  508MOL0     H67037   7.313   6.684   6.575  2.5592 -1.9868 -0.3234
  508MOL0     H67038   6.952   6.723   7.102  1.6692 -0.0472  1.5133
  508MOL0     H67039   6.730   6.675   7.044 -0.8706 -1.0164  3.5601
  508MOL0     H67040   6.481   6.557   6.798 -0.4206  0.3402 -0.0855
  508MOL0     H67041   6.265   6.572   6.689 -2.7737  4.2645  2.9679
  508MOL0     H67042   5.000   6.689   5.990 -0.2905  2.5218  1.0560
  508MOL0     H67043   4.781   6.632   6.030  0.8128 -1.4107 -0.8960
  508MOL0     H67044   4.339   6.727   5.982  1.7992 -0.6230 -2.0030
  508MOL0     H67045   4.129   6.703   6.053  2.9919  2.8964 -0.8808
  508MOL0     H67046   3.935   6.692   6.013  1.9392 -1.6821  1.6047
  508MOL0     H67047   3.799   6.587   6.016  2.0665 -3.0299  2.0114
  508MOL0     H67048   3.728   6.613   5.799  0.1156 -0.5866  2.0172
  508MOL0     H67049   3.811   6.765   5.819 -0.9251 -0.2386 -3.8541
  508MOL0     H67050   4.000   6.640   5.673 -0.7380 -0.1148  0.2388
  508MOL0     H67051   3.834   6.670   5.606 -1.7305 -1.6257 -0.5103
  508MOL0     H67052   3.946   6.472   5.548 -0.1198  1.1658  0.0231
  508MOL0     H67053   3.909   6.392   5.714 -1.8244 -1.3621 -0.0579
  508MOL0     H67054   3.548   6.375   5.483 -1.0604  1.3930  0.9833
  508MOL0     H67055   4.111   6.325   5.833 -2.4156  1.4033  2.3757
  508MOL0     H67056   4.333   6.350   5.780 -0.5225 -0.4049 -0.6571
  509MOL0     O67057  10.056   0.871   8.968  0.8845  0.6131  0.4933
  509MOL0     C67058  10.137   0.791   9.016  0.4886 -0.0675 -0.0158
  509MOL0     O67059  10.261   0.807   9.035 -0.7039  0.4842  0.2082
  509MOL0     C67060  10.328   0.933   9.014  0.0260  0.6526 -0.0094
  509MOL0     C67061  10.262   1.047   9.065  0.0327  1.3440 -0.3801
  509MOL0     C67062  10.321   1.170   9.026  0.1466 -0.2454 -0.0325
  509MOL0     C67063  10.423   1.181   8.932  0.1641  0.5930  0.9097
  509MOL0     O67064  10.436   1.302   8.870  0.2424 -0.7280  0.3126
  509MOL0     C67065  10.568   1.335   8.822 -0.5022 -0.5943 -0.6891
  509MOL0     C67066  10.587   1.477   8.881 -0.8182  0.3465 -0.9622
  509MOL0     C67067  10.734   1.519   8.885 -0.1641 -0.6641  0.3083
  509MOL0     C67068  10.827   1.433   8.976  0.1703 -0.3455 -0.3494
  509MOL0     C67069  10.969   1.479   8.982 -0.8496 -0.5152  0.2614
  509MOL0     C67070  11.038   1.473   8.841  0.2864  0.2464 -0.0056
  509MOL0     C67071  11.175   1.533   8.834 -0.5337 -0.5941  0.1094
  509MOL0     C67072  11.177   1.671   8.756 -0.1519 -0.1549  0.5029
  509MOL0     N67073  11.065   1.768   8.779 -0.2826 -0.8477 -0.1536
  509MOL0     C67074  11.043   1.842   8.889 -0.9802  0.0332  0.5059
  509MOL0     C67075  10.932   1.915   8.868 -0.1845 -0.1127  0.4611
  509MOL0     C67076  10.868   2.003   8.976  0.1350  0.0043  0.3286
  509MOL0     C67077  10.734   1.951   9.033  0.1093  0.1976  0.0021
  509MOL0     C67078  10.631   1.909   8.926  0.6348  0.0830  0.1081
  509MOL0     C67079  10.496   1.866   8.986 -0.6427  0.4562 -0.4094
  509MOL0     O67080  10.513   1.763   9.078  0.2830 -0.4892  0.2754
  509MOL0     C67081  10.399   1.703   9.139 -0.9025 -0.7583  0.5390
  509MOL0     C67082  10.270   1.712   9.094  0.7520 -0.6224 -0.3970
  509MOL0     C67083  10.166   1.629   9.140  0.2068  0.3163  0.0933
  509MOL0     C67084  10.193   1.538   9.245 -0.3815 -0.2385 -0.3201
  509MOL0     C67085  10.100   1.432   9.288  0.1970  1.2039 -0.0307
  509MOL0     O67086  10.147   1.339   9.380 -0.1626  0.1024 -0.1139
  509MOL0     C67087  10.058   1.238   9.415  0.3033  0.0743  0.2511
  509MOL0     C67088  10.023   1.225   9.547  1.1213 -0.2480  0.5605
  509MOL0     C67089   9.931   1.121   9.590 -0.1472  0.0268  0.0861
  509MOL0     C67090   9.884   1.034   9.489  0.2232 -0.0525 -0.1800
  509MOL0     O67091   9.789   0.942   9.527 -0.0765  0.4930 -0.4679
  509MOL0     C67092   9.670   1.008   9.566 -0.1488  0.0950 -0.7413
  509MOL0     C67093   9.544   0.920   9.571 -0.2235  0.8532  0.3815
  509MOL0     C67094   9.560   0.809   9.677 -0.0972  0.6901  1.1044
  509MOL0     C67095   9.429   0.738   9.687 -0.0707  0.1099 -0.4765
  509MOL0     C67096   9.428   0.627   9.793  0.1162 -0.0373 -0.8429
  509MOL0     C67097   9.307   0.542   9.789  0.3001  0.5800  0.8646
  509MOL0     C67098   9.314   0.446   9.910  0.2218  0.5690  0.1305
  509MOL0     C67099   9.196   0.344   9.916 -0.4560 -0.0020  0.9214
  509MOL0    Cl67100   9.190   0.288  10.079  0.6213  0.1925 -0.2366
  509MOL0     C67101   9.909   1.064   9.354  0.0498 -0.1996 -1.4709
  509MOL0     C67102  10.005   1.161   9.316 -0.5785 -0.3391 -0.3850
  509MOL0     O67103   9.989   1.436   9.237  0.4458  0.2087  0.5274
  509MOL0     C67104  10.319   1.534   9.302 -0.1932  0.0355 -0.4287
  509MOL0     C67105  10.424   1.607   9.237  0.2071 -0.1834 -1.1990
  509MOL0     N67106  10.891   1.895   8.744  0.7588  0.7504 -0.1113
  509MOL0     N67107  10.972   1.802   8.691  0.0337 -0.4158 -0.6568
  509MOL0     C67108  10.480   1.062   8.881 -0.5032 -0.9351 -0.6443
  509MOL0     C67109  10.438   0.935   8.923 -0.6270 -1.3181  0.0672
  509MOL0     C67110  10.083   0.655   9.055 -0.1920  0.0198 -0.8505
  509MOL0     C67111  10.157   0.582   9.148 -0.2500 -0.5339  0.5450
  509MOL0     C67112  10.122   0.456   9.193  0.0370  0.6464  0.1914
  509MOL0     C67113   9.997   0.404   9.166 -0.0065  0.3890  0.6891
  509MOL0     O67114   9.974   0.279   9.205 -0.7331 -0.7702  0.0722
  509MOL0     C67115   9.873   0.205   9.149 -0.2341 -1.2427 -1.4073
  509MOL0     C67116   9.880   0.069   9.219  0.6508 -0.4559  0.3152
  509MOL0     C67117  10.025   0.015   9.231 -1.9220  0.4911  1.1083
  509MOL0     C67118  10.089   0.043   9.364  0.1283 -0.4834 -0.6765
  509MOL0     C67119  10.223  -0.018   9.376 -0.4495 -0.7815  0.1062
  509MOL0     C67120  10.340  -0.053   9.376 -0.4280 -0.0372 -0.5046
  509MOL0     C67121   9.917   0.474   9.072 -0.7727 -0.7654 -0.2768
  509MOL0     C67122   9.956   0.603   9.018  0.4431 -0.1202 -0.7964
  509MOL0     H67123  10.182   1.033   9.136 -0.8010  0.0817 -1.5365
  509MOL0     H67124  10.260   1.259   9.040 -4.2049 -3.3372  3.4379
  509MOL0     H67125  10.565   1.335   8.713  2.8261  0.4257 -0.8949
  509MOL0     H67126  10.646   1.270   8.864 -0.6885 -0.5344 -0.2443
  509MOL0     H67127  10.565   1.477   8.988  0.3749 -0.2736 -0.7035
  509MOL0     H67128  10.521   1.547   8.830 -0.1437  2.1227  0.4844
  509MOL0     H67129  10.740   1.620   8.929  3.9075  0.0239 -1.4335
  509MOL0     H67130  10.779   1.525   8.786  2.3538 -0.7218  1.3780
  509MOL0     H67131  10.784   1.432   9.076  1.7210  0.8049  0.3790
  509MOL0     H67132  10.824   1.330   8.941  1.2878 -1.3119  2.1258
  509MOL0     H67133  11.035   1.413   9.039  0.0906 -1.6087 -1.9804
  509MOL0     H67134  10.975   1.576   9.034  1.4555 -0.9529  0.9171
  509MOL0     H67135  10.980   1.532   8.769 -0.3323 -1.8779 -1.3310
  509MOL0     H67136  11.039   1.374   8.794 -2.1134 -0.1764  0.6792
  509MOL0     H67137  11.201   1.541   8.940 -3.1942  1.0436  0.7453
  509MOL0     H67138  11.236   1.455   8.788  0.2331  0.9194 -1.5461
  509MOL0     H67139  11.153   1.648   8.651  0.0051  2.2429 -0.1198
  509MOL0     H67140  11.277   1.715   8.764  0.0199 -0.8287  2.3896
  509MOL0     H67141  11.105   1.847   8.979  0.3032  0.4508 -0.3673
  509MOL0     H67142  10.859   2.108   8.947  0.4906 -0.4346 -1.5346
  509MOL0     H67143  10.940   2.010   9.057 -0.2792  0.1049  0.6946
  509MOL0     H67144  10.696   2.030   9.098  0.3327  0.8475 -0.6472
  509MOL0     H67145  10.754   1.866   9.100 -1.2077 -0.8456 -0.8758
  509MOL0     H67146  10.607   1.994   8.863  0.1701  0.9568  1.4287
  509MOL0     H67147  10.655   1.817   8.872  1.4354 -0.3765  1.2063
  509MOL0     H67148  10.440   1.833   8.898 -0.8250 -2.0629  0.5749
  509MOL0     H67149  10.445   1.947   9.039  0.0196  1.2171 -0.9125
  509MOL0     H67150  10.239   1.774   9.011 -0.2345  3.0424  2.4215
  509MOL0     H67151  10.069   1.612   9.095 -1.8994 -6.5876  5.4515
  509MOL0     H67152  10.060   1.292   9.624  0.2838 -1.4510  2.0804
  509MOL0     H67153   9.897   1.102   9.691 -0.1335 -0.1507  0.0588
  509MOL0     H67154   9.650   1.078   9.484 -3.8396  1.0562  0.7778
  509MOL0     H67155   9.691   1.054   9.664 -0.1890  1.5666 -1.4034
  509MOL0     H67156   9.522   0.868   9.477 -0.1428 -0.6285  1.1517
  509MOL0     H67157   9.452   0.978   9.582  1.6432  3.7049  2.0218
  509MOL0     H67158   9.582   0.853   9.775 -2.5029 -0.1144  2.0682
  509MOL0     H67159   9.630   0.731   9.646 -0.7678 -0.1485  1.6779
  509MOL0     H67160   9.350   0.810   9.709  1.6717  2.3216 -1.0772
  509MOL0     H67161   9.409   0.692   9.590 -0.5479  1.3482 -0.9900
  509MOL0     H67162   9.433   0.676   9.891 -1.1129 -2.9349  0.8119
  509MOL0     H67163   9.517   0.564   9.790  0.2783  0.1381  0.1199
  509MOL0     H67164   9.304   0.484   9.696  1.7544  0.7560  0.6866
  509MOL0     H67165   9.224   0.612   9.786 -0.2227 -0.0350  0.8362
  509MOL0     H67166   9.403   0.383   9.913  0.0748  0.3631  2.5495
  509MOL0     H67167   9.321   0.506  10.002 -1.0358 -0.5946  1.0220
  509MOL0     H67168   9.203   0.263   9.843 -1.0211  0.1007  0.7472
  509MOL0     H67169   9.102   0.396   9.891 -0.7857 -0.4565  1.2004
  509MOL0     H67170   9.841   1.009   9.290 -1.1183 -1.0776  0.4441
  509MOL0     H67171  10.036   1.171   9.212  0.6563  3.9327  0.1675
  509MOL0     H67172  10.347   1.485   9.395 -0.0389  3.5185  1.5278
  509MOL0     H67173  10.519   1.592   9.288 -0.8204 -0.4406  0.7376
  509MOL0     H67174  10.544   1.070   8.794 -1.3735  1.0922 -1.1623
  509MOL0     H67175  10.477   0.849   8.870 -1.3712 -2.1259  0.7956
  509MOL0     H67176  10.256   0.618   9.173 -0.8322 -0.4362  2.9688
  509MOL0     H67177  10.197   0.400   9.249 -0.4056 -1.1009 -0.9032
  509MOL0     H67178   9.900   0.191   9.044  1.5612 -1.7106 -0.9216
  509MOL0     H67179   9.772   0.243   9.162  0.6376  1.0736 -0.8780
  509MOL0     H67180   9.836   0.081   9.318 -0.4478 -0.0426 -0.2114
  509MOL0     H67181   9.815   0.001   9.163  0.2861 -1.4236  1.8502
  509MOL0     H67182  10.082   0.069   9.154 -0.4491  1.4006  2.7454
  509MOL0     H67183  10.033  -0.093   9.219  0.6477  0.2003  4.1069
  509MOL0     H67184  10.086   0.149   9.389 -1.5991  0.1489 -3.2016
  509MOL0     H67185  10.029  -0.005   9.442  3.0996  0.4932  2.4564
  509MOL0     H67186  10.436  -0.096   9.356 -0.7492  0.0437 -2.3970
  509MOL0     H67187   9.812   0.448   9.056 -2.2572  4.6255 -1.2788
  509MOL0     H67188   9.894   0.661   8.950  2.0064 -0.9664 -3.0645
  510MOL0     O67189   2.998   3.329   8.841  0.1852  0.6410 -0.7993
  510MOL0     C67190   3.085   3.343   8.764  0.1019  0.5203 -0.5101
  510MOL0     O67191   3.071   3.310   8.631  0.4061  0.1205 -0.4904
  510MOL0     C67192   2.957   3.268   8.563 -0.6520 -0.0506 -0.4148
  510MOL0     C67193   2.823   3.305   8.586 -0.2321  0.4947  0.3324
  510MOL0     C67194   2.728   3.265   8.494  0.4083 -1.2928  1.5615
  510MOL0     C67195   2.763   3.186   8.379  0.2854 -0.3502 -0.0988
  510MOL0     O67196   2.679   3.151   8.276  0.4331 -0.0810  0.0718
  510MOL0     C67197   2.545   3.211   8.274 -0.1451 -0.4663 -0.0562
  510MOL0     C67198   2.434   3.107   8.321 -0.1274 -0.4358 -0.0009
  510MOL0     C67199   2.296   3.175   8.362  0.4909  1.5492 -0.3133
  510MOL0     C67200   2.194   3.057   8.376 -0.5998 -0.4612  0.0199
  510MOL0     C67201   2.054   3.107   8.385  0.1458 -0.1756 -0.5941
  510MOL0     C67202   1.997   3.135   8.242  0.0678 -0.2500  0.5721
  510MOL0     C67203   1.846   3.147   8.239 -0.3467 -0.4085  1.2415
  510MOL0     C67204   1.796   3.185   8.102  0.3321  0.4823 -0.1844
  510MOL0     N67205   1.656   3.146   8.074 -0.6416 -0.6179  0.7174
  510MOL0     C67206   1.544   3.216   8.109 -0.2533  0.9289 -0.6233
  510MOL0     C67207   1.444   3.137   8.064  0.5705 -0.2743 -0.1439
  510MOL0     C67208   1.299   3.154   8.101 -0.3111  0.7914  0.6251
  510MOL0     C67209   1.261   3.070   8.220 -0.3338 -0.2835  0.3880
  510MOL0     C67210   1.324   3.116   8.356  0.8765 -0.7445  0.0404
  510MOL0     C67211   1.257   3.048   8.477 -0.4891 -0.0295  0.2693
  510MOL0     O67212   1.315   2.929   8.524 -0.0818  0.9359 -0.5012
  510MOL0     C67213   1.445   2.926   8.565 -0.7322  0.5353 -0.4928
  510MOL0     C67214   1.516   2.801   8.550  0.4943 -0.7468  0.8220
  510MOL0     C67215   1.651   2.804   8.583  0.3495 -0.0124  0.0030
  510MOL0     C67216   1.728   2.921   8.618  0.2824  0.3813 -0.4062
  510MOL0     C67217   1.866   2.908   8.661 -0.3651 -0.4083 -0.4699
  510MOL0     O67218   1.927   3.022   8.711  0.2954 -0.1220 -0.3584
  510MOL0     C67219   2.059   3.033   8.748 -0.4508 -0.0404  0.1046
  510MOL0     C67220   2.107   3.162   8.753  0.2228  0.4024  0.7485
  510MOL0     C67221   2.245   3.190   8.774  0.3595  0.0024  0.0285
  510MOL0     C67222   2.331   3.087   8.797  0.4787 -1.2411  0.8161
  510MOL0     O67223   2.464   3.132   8.818  0.2224 -0.2876 -0.2934
  510MOL0     C67224   2.573   3.037   8.802  0.3764  0.0180 -0.2368
  510MOL0     C67225   2.597   2.981   8.939  0.1274 -0.2143 -0.3294
  510MOL0     C67226   2.642   3.087   9.050 -0.1189  0.8996 -0.0113
  510MOL0     C67227   2.624   3.034   9.189  0.4922 -0.0048 -0.0174
  510MOL0     C67228   2.710   3.114   9.284 -0.7648  0.4218  0.1452
  510MOL0     C67229   2.855   3.059   9.280 -0.0903  0.5012  0.9952
  510MOL0     C67230   2.970   3.159   9.317 -0.5969  0.2103  0.3447
  510MOL0     C67231   2.970   3.278   9.226 -0.2496  0.2998  0.5225
  510MOL0    Cl67232   3.114   3.373   9.253 -0.3968 -0.0172  0.6691
  510MOL0     C67233   2.289   2.951   8.799 -0.3921 -0.1406  0.5236
  510MOL0     C67234   2.150   2.926   8.764  0.0658 -0.0261 -0.0350
  510MOL0     O67235   1.924   2.800   8.650  0.5086  0.3428 -0.4611
  510MOL0     C67236   1.653   3.038   8.631 -0.7035 -0.2766  0.9562
  510MOL0     C67237   1.515   3.045   8.599 -0.6617 -0.3059  0.2313
  510MOL0     N67238   1.495   3.029   7.997 -0.3586  0.1753 -0.1638
  510MOL0     N67239   1.622   3.031   8.012 -0.1372 -0.0778  0.3836
  510MOL0     C67240   2.894   3.147   8.363  0.3398  0.0849  0.0992
  510MOL0     C67241   2.996   3.196   8.449  0.0623 -0.7865  0.8154
  510MOL0     C67242   3.218   3.399   8.800 -0.6563  0.3299 -0.2414
  510MOL0     C67243   3.304   3.452   8.707 -0.5986 -1.0701 -0.1360
  510MOL0     C67244   3.432   3.505   8.747  1.2430  0.1478 -0.6862
  510MOL0     C67245   3.480   3.488   8.878 -0.0884  0.5733  0.5108
  510MOL0     O67246   3.605   3.517   8.923  0.0604  0.5124  0.4170
  510MOL0     C67247   3.695   3.580   8.833 -0.5813 -0.0891 -0.3852
  510MOL0     C67248   3.831   3.614   8.903  0.5742  0.1525 -0.6912
  510MOL0     C67249   3.891   3.488   8.969  0.6326 -0.4450 -0.3457
  510MOL0     C67250   4.005   3.537   9.055 -0.0392  0.2044 -0.2319
  510MOL0     C67251   4.048   3.436   9.156  0.2733 -0.4926  0.7030
  510MOL0     C67252   4.082   3.346   9.226 -0.1924 -1.0175  0.3639
  510MOL0     C67253   3.394   3.438   8.973  0.3271  0.9214  0.9444
  510MOL0     C67254   3.267   3.397   8.933  0.6812  0.3018  0.4528
  510MOL0     H67255   2.789   3.360   8.672 -1.2340 -2.1826  1.7674
  510MOL0     H67256   2.625   3.289   8.518  0.6362 -0.1049  1.4396
  510MOL0     H67257   2.522   3.228   8.169 -0.9831 -1.3036 -0.0202
  510MOL0     H67258   2.542   3.305   8.331 -2.3415 -0.6584  0.2484
  510MOL0     H67259   2.468   3.046   8.405 -1.2239  1.1768  1.7146
  510MOL0     H67260   2.420   3.039   8.237  2.4194  1.2556 -1.9094
  510MOL0     H67261   2.266   3.245   8.284  2.1916  1.2050 -1.3158
  510MOL0     H67262   2.306   3.210   8.465  1.5560 -1.5931  0.7717
  510MOL0     H67263   2.199   3.004   8.280  2.0028  0.3423 -0.3632
  510MOL0     H67264   2.223   3.002   8.466 -3.1487  1.2310  2.0367
  510MOL0     H67265   2.044   3.196   8.448  1.4016 -0.7513  0.4781
  510MOL0     H67266   1.989   3.033   8.432  2.4329 -1.9258 -0.0438
  510MOL0     H67267   2.024   3.060   8.168 -1.4091 -0.9456  0.7103
  510MOL0     H67268   2.056   3.221   8.209  2.2396 -0.5277  3.3470
  510MOL0     H67269   1.797   3.052   8.264  1.4107 -2.5466 -2.5083
  510MOL0     H67270   1.818   3.228   8.307 -0.3642  1.6626 -1.0879
  510MOL0     H67271   1.852   3.129   8.026  3.0971  3.9436 -0.9808
  510MOL0     H67272   1.806   3.293   8.089 -3.8144  1.6116  3.6373
  510MOL0     H67273   1.534   3.315   8.153 -0.8663  0.4362  0.3886
  510MOL0     H67274   1.234   3.127   8.018  0.7301 -1.9036  0.5870
  510MOL0     H67275   1.300   3.261   8.124 -1.5791  1.6032 -2.5751
  510MOL0     H67276   1.273   2.962   8.209 -3.0760 -0.3944 -3.5350
  510MOL0     H67277   1.153   3.087   8.233  0.2034  2.5870  1.8735
  510MOL0     H67278   1.433   3.107   8.359  1.6045  4.6346  3.4149
  510MOL0     H67279   1.305   3.223   8.373  0.0641 -0.9245  0.2976
  510MOL0     H67280   1.154   3.024   8.451  0.3040 -1.1820 -2.0739
  510MOL0     H67281   1.257   3.129   8.550  1.1416  0.1267  0.1466
  510MOL0     H67282   1.470   2.710   8.513 -0.9096  0.0356  0.5768
  510MOL0     H67283   1.690   2.704   8.568 -1.9203 -1.1284  1.0221
  510MOL0     H67284   2.035   3.242   8.754  1.3705  1.5834 -1.9217
  510MOL0     H67285   2.275   3.295   8.776 -2.5206  0.9074  0.4853
  510MOL0     H67286   2.660   3.088   8.762 -1.0543  0.7071 -2.6444
  510MOL0     H67287   2.544   2.953   8.738 -3.0213 -0.2126  1.3741
  510MOL0     H67288   2.681   2.911   8.939  0.0793 -0.3971  3.0157
  510MOL0     H67289   2.512   2.927   8.980  1.3708 -2.1142 -0.1183
  510MOL0     H67290   2.598   3.187   9.038 -1.3045  0.5087  0.8526
  510MOL0     H67291   2.745   3.103   9.020 -0.8434  0.7816 -2.8455
  510MOL0     H67292   2.517   3.041   9.214  0.8242 -2.0226  2.2716
  510MOL0     H67293   2.654   2.929   9.198 -1.1508 -0.3550  2.5328
  510MOL0     H67294   2.678   3.116   9.389 -0.5502  3.5502  0.2626
  510MOL0     H67295   2.695   3.217   9.251 -0.4434  0.2950 -0.3939
  510MOL0     H67296   2.875   3.014   9.182  2.4672  0.1545  1.6085
  510MOL0     H67297   2.858   2.974   9.348  0.3768  1.1223  1.7637
  510MOL0     H67298   2.964   3.183   9.424  0.6808 -1.6391  0.8698
  510MOL0     H67299   3.067   3.110   9.308 -1.4693 -1.3993 -0.8822
  510MOL0     H67300   2.874   3.329   9.238  0.6416  1.6113  2.5844
  510MOL0     H67301   2.970   3.251   9.120 -0.7838  0.3492  0.5063
  510MOL0     H67302   2.348   2.861   8.815 -0.2536 -0.3803 -1.2169
  510MOL0     H67303   2.103   2.828   8.771 -0.2097  0.2081  1.9339
  510MOL0     H67304   1.703   3.128   8.665 -1.9520  0.2869  1.3440
  510MOL0     H67305   1.474   3.145   8.611 -0.0099 -0.2874  2.8197
  510MOL0     H67306   2.925   3.084   8.280  1.1884 -0.2206  0.6347
  510MOL0     H67307   3.097   3.173   8.415 -1.5415 -0.9828 -4.9077
  510MOL0     H67308   3.268   3.443   8.605 -1.0386 -0.1778 -0.0687
  510MOL0     H67309   3.496   3.545   8.669  0.5525  0.2045 -1.2247
  510MOL0     H67310   3.652   3.679   8.815 -1.7479  0.0260  2.4301
  510MOL0     H67311   3.709   3.533   8.736  0.6200  1.2600 -0.9062
  510MOL0     H67312   3.889   3.654   8.820 -1.8696 -1.2195 -3.2137
  510MOL0     H67313   3.814   3.690   8.980  3.0766 -0.8672  1.0087
  510MOL0     H67314   3.921   3.412   8.896  3.2801  0.0723  0.1067
  510MOL0     H67315   3.816   3.442   9.033  1.4492 -4.2581 -1.8871
  510MOL0     H67316   4.088   3.560   8.988 -0.7123 -0.1735 -1.2181
  510MOL0     H67317   3.973   3.625   9.112  0.1526  0.1527 -0.0448
  510MOL0     H67318   4.126   3.275   9.293  0.2389  0.1015  1.2982
  510MOL0     H67319   3.435   3.427   9.073  0.8695 -0.4538  0.6027
  510MOL0     H67320   3.199   3.359   9.008  1.6505 -2.6297 -0.0336
  511MOL0     O67321   7.052   7.919   7.631  0.9268 -0.0930  0.4314
  511MOL0     C67322   7.108   7.815   7.670 -0.3050  0.2472 -0.3938
  511MOL0     O67323   7.079   7.690   7.631 -0.2833  0.1068  0.3705
  511MOL0     C67324   6.986   7.666   7.526 -0.4370  0.6858 -1.0853
  511MOL0     C67325   7.039   7.665   7.389  1.0133  0.2603 -0.0675
  511MOL0     C67326   6.956   7.615   7.284  0.1986 -0.2917  0.1620
  511MOL0     C67327   6.822   7.585   7.306 -0.1961  0.5198 -0.3688
  511MOL0     O67328   6.734   7.537   7.215 -0.0311  0.0910 -0.2801
  511MOL0     C67329   6.767   7.521   7.074  0.0806  0.7330  0.0292
  511MOL0     C67330   6.679   7.404   7.041  0.1184 -0.0942  1.2826
  511MOL0     C67331   6.689   7.378   6.890 -0.0171 -0.1103 -0.0477
  511MOL0     C67332   6.580   7.287   6.824 -0.2356  0.8173  0.4541
  511MOL0     C67333   6.605   7.277   6.677 -0.2061  0.1186 -0.0617
  511MOL0     C67334   6.733   7.201   6.619 -0.2611  0.0241 -0.2819
  511MOL0     C67335   6.792   7.251   6.487  0.8452  0.2928 -0.6022
  511MOL0     C67336   6.694   7.208   6.369 -0.4005  0.8141 -0.2604
  511MOL0     N67337   6.783   7.230   6.259  0.0814 -0.3288 -0.2512
  511MOL0     C67338   6.825   7.127   6.179 -0.0750  0.2135  0.2406
  511MOL0     C67339   6.863   7.194   6.064  0.3036 -0.7604  0.1123
  511MOL0     C67340   6.926   7.138   5.944  0.7228 -0.5405 -0.2121
  511MOL0     C67341   6.841   7.038   5.882  1.2552 -0.3993  0.0258
  511MOL0     C67342   6.701   7.101   5.845 -1.0109  0.4706  0.1505
  511MOL0     C67343   6.622   7.023   5.738 -0.2152 -0.0734 -0.4330
  511MOL0     O67344   6.596   6.893   5.798 -0.8725 -0.2272  0.3122
  511MOL0     C67345   6.591   6.780   5.722  0.8832 -0.0608  0.1457
  511MOL0     C67346   6.592   6.647   5.783 -0.0879  0.1334 -1.0096
  511MOL0     C67347   6.597   6.534   5.701 -0.4730  0.1194 -0.9546
  511MOL0     C67348   6.587   6.550   5.556  0.1715 -0.0927 -0.0043
  511MOL0     C67349   6.576   6.422   5.472 -0.0266  1.0020  0.1969
  511MOL0     O67350   6.537   6.433   5.344 -1.0145 -0.2673 -0.0143
  511MOL0     C67351   6.531   6.317   5.268 -0.3131 -0.0886 -0.9848
  511MOL0     C67352   6.638   6.240   5.239 -1.0780 -0.2005  0.6576
  511MOL0     C67353   6.619   6.118   5.168 -0.4301  1.0532  0.3367
  511MOL0     C67354   6.490   6.079   5.129 -1.0764  0.0024  0.1598
  511MOL0     O67355   6.467   5.968   5.061 -0.5920  0.4326  0.5282
  511MOL0     C67356   6.519   5.860   5.144  0.2396 -0.7635 -0.3284
  511MOL0     C67357   6.467   5.724   5.111 -0.5271  0.0370  0.4317
  511MOL0     C67358   6.515   5.611   5.199  0.2770 -0.0131  0.1910
  511MOL0     C67359   6.530   5.634   5.351 -0.0120  0.6913  0.1971
  511MOL0     C67360   6.577   5.507   5.429 -0.4912 -0.9883  0.5665
  511MOL0     C67361   6.606   5.538   5.579  0.3945 -0.4525  0.1419
  511MOL0     C67362   6.622   5.420   5.657 -0.1861  0.1487 -1.6761
  511MOL0     C67363   6.757   5.345   5.657  0.3079 -0.5331  0.8962
  511MOL0    Cl67364   6.765   5.281   5.825 -0.3269 -0.2237  0.0508
  511MOL0     C67365   6.385   6.168   5.146 -1.1248  0.0192 -0.6410
  511MOL0     C67366   6.404   6.289   5.212  0.0382 -0.4313 -0.1911
  511MOL0     O67367   6.619   6.314   5.520 -0.4793 -0.9889 -0.2997
  511MOL0     C67368   6.580   6.678   5.500  0.7838 -0.1580  0.2954
  511MOL0     C67369   6.586   6.791   5.579  0.4771  0.0348 -0.0587
  511MOL0     N67370   6.856   7.332   6.087  0.8197  0.2935 -0.4344
  511MOL0     N67371   6.797   7.353   6.199 -0.0061  0.0647 -0.4032
  511MOL0     C67372   6.771   7.600   7.439  0.3211  0.4742  0.4524
  511MOL0     C67373   6.853   7.623   7.551  0.3833  0.1137 -0.2674
  511MOL0     C67374   7.221   7.841   7.755  0.5888  0.3960  0.1307
  511MOL0     C67375   7.285   7.962   7.760 -0.5150  0.3469  0.8778
  511MOL0     C67376   7.418   7.972   7.804 -0.2245 -0.6749 -0.2703
  511MOL0     C67377   7.475   7.873   7.875  0.9342  0.6621 -0.7996
  511MOL0     O67378   7.605   7.864   7.927 -0.2416 -0.3232  0.2357
  511MOL0     C67379   7.657   7.987   7.979  0.1454 -0.4337  0.6802
  511MOL0     C67380   7.745   7.938   8.088  0.6798  1.2325  0.4148
  511MOL0     C67381   7.747   8.043   8.202  0.4413  0.5494  0.9179
  511MOL0     C67382   7.850   8.036   8.308  0.1697  0.2359  0.9913
  511MOL0     C67383   7.860   7.912   8.389 -0.7020  0.2083 -0.5078
  511MOL0     C67384   7.853   7.808   8.452 -0.0083 -0.1194  0.1518
  511MOL0     C67385   7.405   7.750   7.882  0.0326  0.3355 -0.6889
  511MOL0     C67386   7.276   7.734   7.825  0.2625 -0.5807 -0.7650
  511MOL0     H67387   7.143   7.692   7.379  1.8000 -1.0291  3.2884
  511MOL0     H67388   6.984   7.598   7.180 -3.1251 -1.1057 -0.7090
  511MOL0     H67389   6.873   7.508   7.051  1.1670  2.4994  3.2931
  511MOL0     H67390   6.726   7.608   7.021  0.0504  1.2277  0.8363
  511MOL0     H67391   6.576   7.418   7.077  0.0635 -1.5248  1.7137
  511MOL0     H67392   6.715   7.312   7.087 -0.3085 -1.0612 -0.2215
  511MOL0     H67393   6.787   7.349   6.850 -1.0586  0.5963 -3.4400
  511MOL0     H67394   6.675   7.472   6.835 -0.6242 -2.4590 -4.3126
  511MOL0     H67395   6.574   7.186   6.866  2.6513  0.5563  0.4228
  511MOL0     H67396   6.486   7.340   6.839  0.1664  2.0414 -1.0843
  511MOL0     H67397   6.595   7.377   6.633  3.0802 -0.4432 -2.5205
  511MOL0     H67398   6.515   7.231   6.634  0.2581  1.0621 -2.1903
  511MOL0     H67399   6.698   7.098   6.606  2.5776 -1.0191 -0.5712
  511MOL0     H67400   6.816   7.212   6.690 -1.0450 -1.0924  0.8529
  511MOL0     H67401   6.808   7.359   6.486 -0.1827  0.5040  1.3867
  511MOL0     H67402   6.895   7.214   6.486  2.2688  3.8192 -1.0962
  511MOL0     H67403   6.612   7.279   6.361 -0.4300  0.8422  0.2675
  511MOL0     H67404   6.666   7.102   6.374  1.5276  0.1044 -2.7465
  511MOL0     H67405   6.810   7.021   6.195  0.9852 -0.0380 -0.3417
  511MOL0     H67406   7.019   7.087   5.972 -0.2147 -3.4755 -2.0198
  511MOL0     H67407   6.948   7.217   5.871  0.8816 -1.3175 -1.0297
  511MOL0     H67408   6.822   6.953   5.948 -2.0183  1.0726  1.1808
  511MOL0     H67409   6.891   7.001   5.792  0.9472  1.1912 -0.8321
  511MOL0     H67410   6.642   7.114   5.936 -1.8434  3.1499 -0.6697
  511MOL0     H67411   6.720   7.197   5.797 -1.2975 -0.1494 -1.2790
  511MOL0     H67412   6.685   7.019   5.648  1.6202 -3.1059  0.8436
  511MOL0     H67413   6.533   7.081   5.711 -0.0311  0.1932 -0.4757
  511MOL0     H67414   6.596   6.639   5.891  2.2958  0.9073 -0.9980
  511MOL0     H67415   6.604   6.434   5.742 -1.4849  1.8406  4.1696
  511MOL0     H67416   6.734   6.272   5.278 -0.1833  0.2684 -1.7396
  511MOL0     H67417   6.703   6.054   5.144 -2.6534 -0.9523 -2.9388
  511MOL0     H67418   6.489   5.867   5.249  1.8044 -1.4737  0.1984
  511MOL0     H67419   6.628   5.866   5.145  0.2534  1.3676 -3.4868
  511MOL0     H67420   6.510   5.694   5.015  1.1590  2.1972  0.4204
  511MOL0     H67421   6.358   5.725   5.112 -0.5758  0.4634 -1.4520
  511MOL0     H67422   6.612   5.570   5.165 -1.1199 -1.9976 -1.7208
  511MOL0     H67423   6.459   5.517   5.200 -0.9689  0.7141  1.0871
  511MOL0     H67424   6.601   5.717   5.363  2.1160 -1.1147  0.8078
  511MOL0     H67425   6.435   5.667   5.392  1.0333  2.4288  1.3474
  511MOL0     H67426   6.670   5.465   5.392  0.6085  0.3520  1.6908
  511MOL0     H67427   6.511   5.422   5.410  1.2511 -2.1723 -0.4463
  511MOL0     H67428   6.530   5.603   5.623  2.3222  0.5371  2.1753
  511MOL0     H67429   6.698   5.595   5.567 -1.5703  2.9148 -0.0794
  511MOL0     H67430   6.597   5.446   5.761 -1.4369 -0.4180 -1.8197
  511MOL0     H67431   6.546   5.348   5.627  0.7103 -0.3827 -2.7050
  511MOL0     H67432   6.850   5.401   5.642  0.6658 -0.9001  1.6519
  511MOL0     H67433   6.746   5.267   5.582 -0.9579  4.1225 -4.4377
  511MOL0     H67434   6.286   6.137   5.114 -1.4600 -0.3994  0.7635
  511MOL0     H67435   6.318   6.354   5.225  0.3160 -0.0324 -0.3238
  511MOL0     H67436   6.577   6.689   5.392 -0.7361  0.1970  0.3553
  511MOL0     H67437   6.569   6.886   5.529  0.7450 -0.8741 -1.9484
  511MOL0     H67438   6.668   7.579   7.466  0.2805 -0.3540 -0.3083
  511MOL0     H67439   6.809   7.638   7.649  2.1236 -0.6280  0.6668
  511MOL0     H67440   7.250   8.055   7.716 -2.2720  0.3546  2.1988
  511MOL0     H67441   7.479   8.059   7.783 -3.3200  1.7628  0.1417
  511MOL0     H67442   7.578   8.042   8.030  0.4577  1.5636 -0.8694
  511MOL0     H67443   7.715   8.048   7.908 -0.2193 -0.5376  0.2908
  511MOL0     H67444   7.706   7.846   8.132  0.9242  0.3608 -1.1359
  511MOL0     H67445   7.850   7.926   8.061  0.7677 -0.1596  1.2755
  511MOL0     H67446   7.655   8.051   8.261  1.2328 -1.2159  2.5081
  511MOL0     H67447   7.769   8.142   8.162 -2.7832  0.2798 -2.0618
  511MOL0     H67448   7.940   8.055   8.250 -0.0284  2.4052  1.3384
  511MOL0     H67449   7.836   8.118   8.379 -1.0869  1.3359 -0.4968
  511MOL0     H67450   7.819   7.715   8.492 -2.8131  0.1272 -1.4103
  511MOL0     H67451   7.460   7.668   7.928  0.8814  1.3565  0.1745
  511MOL0     H67452   7.217   7.643   7.823  0.8664 -1.0787  1.3420
  512MOL0     O67453  10.436  10.343   4.193  0.5062 -0.0898  0.2948
  512MOL0     C67454  10.357  10.358   4.287  0.1380 -0.7523  0.0514
  512MOL0     O67455  10.365  10.452   4.386  0.1036  0.9977  0.3653
  512MOL0     C67456  10.486  10.520   4.390  0.9136  0.4546 -0.9041
  512MOL0     C67457  10.615  10.473   4.414 -0.2091 -0.0510  0.0181
  512MOL0     C67458  10.731  10.557   4.413  0.0024  0.4978  0.1929
  512MOL0     C67459  10.712  10.684   4.365 -0.1834  0.1750 -0.3983
  512MOL0     O67460  10.816  10.761   4.322 -0.1162 -0.4713  0.7878
  512MOL0     C67461  10.945  10.742   4.385 -0.6864 -0.6203 -0.0159
  512MOL0     C67462  11.051  10.840   4.324 -0.0741  0.2038  1.1635
  512MOL0     C67463  11.200  10.829   4.377  0.0497  0.5296  0.7275
  512MOL0     C67464  11.270  10.686   4.383 -0.3015 -0.7251  0.2103
  512MOL0     C67465  11.417  10.709   4.407 -0.6173  0.3713 -0.0310
  512MOL0     C67466  11.501  10.583   4.420 -0.5465  0.4535 -0.0634
  512MOL0     C67467  11.649  10.604   4.458 -0.4399 -0.6263 -0.0906
  512MOL0     C67468  11.722  10.465   4.436 -0.0276  0.4741 -0.3224
  512MOL0     N67469  11.868  10.469   4.442 -0.1211 -0.4439  0.3868
  512MOL0     C67470  11.950  10.460   4.327  0.2626  0.0097 -0.6141
  512MOL0     C67471  12.067  10.510   4.362 -0.4264 -0.2151  0.0652
  512MOL0     C67472  12.187  10.543   4.272 -0.2339 -0.3706 -0.1239
  512MOL0     C67473  12.192  10.470   4.132  0.6041 -0.3538 -0.5008
  512MOL0     C67474  12.201  10.563   4.007  0.4910  0.8445  0.1762
  512MOL0     C67475  12.056  10.615   3.980 -0.1967 -1.2527 -0.1846
  512MOL0     O67476  11.950  10.530   4.016 -0.2999 -0.3465 -0.6831
  512MOL0     C67477  11.826  10.579   3.989  0.2647  0.3203 -0.4546
  512MOL0     C67478  11.796  10.713   3.978 -0.0877 -0.1980  0.2790
  512MOL0     C67479  11.665  10.755   3.953 -0.2868  0.3544 -0.9437
  512MOL0     C67480  11.563  10.661   3.956 -0.7734 -0.2419  0.3736
  512MOL0     C67481  11.421  10.717   3.956  0.3480 -0.1009  0.5523
  512MOL0     O67482  11.413  10.855   3.972  0.3255  0.3593 -0.7040
  512MOL0     C67483  11.292  10.918   3.988  0.8063  0.5580  0.6211
  512MOL0     C67484  11.276  11.034   4.065  0.1332  0.2777 -0.5318
  512MOL0     C67485  11.154  11.103   4.076  0.4609 -0.1309 -0.4337
  512MOL0     C67486  11.034  11.063   4.008  0.3825  0.7352 -0.2090
  512MOL0     O67487  10.914  11.122   4.029 -0.1786  0.6251  0.1830
  512MOL0     C67488  10.804  11.031   4.028  0.1617 -0.3129  0.4944
  512MOL0     C67489  10.744  11.044   3.894  0.9458 -0.4260 -0.1230
  512MOL0     C67490  10.593  10.994   3.881 -0.0175 -0.4339 -0.2036
  512MOL0     C67491  10.579  10.851   3.930  0.0398  0.4071  0.6464
  512MOL0     C67492  10.429  10.812   3.940 -0.6869  0.1102 -0.6515
  512MOL0     C67493  10.401  10.666   3.936  0.4408  1.3254  0.0703
  512MOL0     C67494  10.249  10.647   3.892  0.6778  0.5216 -0.7042
  512MOL0     C67495  10.208  10.505   3.937  0.6741  0.1250  0.3811
  512MOL0    Cl67496  10.315  10.382   3.855 -0.2608 -0.5673 -0.0870
  512MOL0     C67497  11.050  10.943   3.939 -0.3741  0.2899  0.9314
  512MOL0     C67498  11.169  10.882   3.919  0.3152  0.4772  0.4193
  512MOL0     O67499  11.324  10.639   3.962 -0.4821 -0.0427  0.6159
  512MOL0     C67500  11.590  10.526   3.955 -0.0786 -1.1111 -0.4728
  512MOL0     C67501  11.720  10.487   3.973 -0.6145 -0.2328 -0.7958
  512MOL0     N67502  12.054  10.563   4.488  0.4064  0.1661  0.1125
  512MOL0     N67503  11.934  10.548   4.533 -0.3217 -0.0298 -0.7239
  512MOL0     C67504  10.582  10.726   4.334 -0.5135 -0.9539  0.1467
  512MOL0     C67505  10.472  10.653   4.358  0.2100 -0.2724  0.3402
  512MOL0     C67506  10.226  10.283   4.275 -0.0008 -0.5501 -0.2009
  512MOL0     C67507  10.186  10.212   4.157 -0.6964 -0.6701 -0.1810
  512MOL0     C67508  10.072  10.142   4.149  0.3707  0.4627  0.1780
  512MOL0     C67509   9.985  10.121   4.252 -0.1037 -0.1265 -0.7232
  512MOL0     O67510   9.881  10.034   4.230 -1.1095  0.5235  0.5712
  512MOL0     C67511   9.776  10.061   4.321 -0.8115  0.0174  0.3791
  512MOL0     C67512   9.674   9.941   4.324  0.1032 -0.1472 -0.2504
  512MOL0     C67513   9.532   9.986   4.313 -0.6625  0.4241  0.3888
  512MOL0     C67514   9.407   9.883   4.323 -0.1599 -0.9718 -0.0724
  512MOL0     C67515   9.442   9.777   4.232 -0.1424  0.1942 -0.7782
  512MOL0     C67516   9.457   9.677   4.164 -0.0826 -0.2814  0.1144
  512MOL0     C67517  10.017  10.193   4.369  0.0369 -0.4699  0.8060
  512MOL0     C67518  10.133  10.272   4.380  0.6501  0.6023  0.1352
  512MOL0     H67519  10.627  10.372   4.452 -0.2510 -0.8882 -2.0580
  512MOL0     H67520  10.831  10.526   4.440  1.1495  3.9822  0.4492
  512MOL0     H67521  10.974  10.638   4.367 -0.8420 -1.4097  3.4920
  512MOL0     H67522  10.947  10.761   4.493  0.3496 -0.1337 -0.1054
  512MOL0     H67523  11.032  10.947   4.338  0.0455  0.7306 -1.9469
  512MOL0     H67524  11.046  10.811   4.219 -2.2169 -1.5622  1.6827
  512MOL0     H67525  11.197  10.849   4.485 -0.8708  0.7838  0.6544
  512MOL0     H67526  11.273  10.887   4.319  0.8307 -3.0453 -2.2381
  512MOL0     H67527  11.230  10.634   4.470 -2.2988 -0.3086 -0.4168
  512MOL0     H67528  11.255  10.641   4.284 -4.1731  0.2432  0.2137
  512MOL0     H67529  11.429  10.768   4.499  0.6055  2.5653 -1.5190
  512MOL0     H67530  11.460  10.766   4.325 -1.2069  1.9516  0.7225
  512MOL0     H67531  11.492  10.522   4.330 -0.4497  0.1733  0.1158
  512MOL0     H67532  11.453  10.524   4.499 -0.1082 -0.8016 -0.7116
  512MOL0     H67533  11.692  10.680   4.392 -3.1462  2.4239  1.4140
  512MOL0     H67534  11.631  10.634   4.561 -3.7389  1.4415 -1.0997
  512MOL0     H67535  11.696  10.425   4.338 -1.8440  2.1735 -0.6092
  512MOL0     H67536  11.696  10.394   4.515 -1.5395  0.0601 -1.1707
  512MOL0     H67537  11.916  10.416   4.234  0.4006 -0.9178 -0.2380
  512MOL0     H67538  12.272  10.500   4.327  0.1131  1.7263  1.0927
  512MOL0     H67539  12.220  10.645   4.251 -0.7647 -0.4250 -1.2999
  512MOL0     H67540  12.102  10.408   4.127 -1.7787  2.9370 -2.3410
  512MOL0     H67541  12.282  10.408   4.133  3.7609  3.7162  2.7183
  512MOL0     H67542  12.272  10.646   4.014  1.2693  0.2036  0.0405
  512MOL0     H67543  12.230  10.499   3.923 -2.3615 -1.1890  0.5807
  512MOL0     H67544  12.047  10.631   3.872  1.4440  0.3479 -0.1305
  512MOL0     H67545  12.051  10.707   4.039 -1.1769 -1.3190 -0.1461
  512MOL0     H67546  11.873  10.788   3.968  0.8315 -0.8154  2.2788
  512MOL0     H67547  11.640  10.859   3.931  0.5389  0.8217  0.1888
  512MOL0     H67548  11.366  11.068   4.114  1.0391 -1.2753 -1.0512
  512MOL0     H67549  11.145  11.194   4.133  1.0358  0.2333 -0.9108
  512MOL0     H67550  10.741  11.056   4.114 -0.7842  0.3325 -0.3599
  512MOL0     H67551  10.824  10.925   4.047  0.6823 -0.0555  1.4619
  512MOL0     H67552  10.811  10.994   3.823 -0.2491  1.9165 -3.1558
  512MOL0     H67553  10.745  11.151   3.869  1.0803 -0.4857 -0.3739
  512MOL0     H67554  10.565  10.997   3.775 -0.3721  1.1681 -0.0889
  512MOL0     H67555  10.529  11.061   3.939  0.0156  1.7396 -2.4969
  512MOL0     H67556  10.633  10.775   3.874 -3.2305 -2.0336  0.5149
  512MOL0     H67557  10.612  10.855   4.034 -1.8291  1.1844  1.2728
  512MOL0     H67558  10.363  10.862   3.868  0.0529  2.2909  0.0979
  512MOL0     H67559  10.394  10.851   4.036 -0.1271  0.6157 -0.6459
  512MOL0     H67560  10.413  10.617   4.033 -1.2063  1.7522  0.5234
  512MOL0     H67561  10.462  10.617   3.861 -0.9151 -0.5368  0.1194
  512MOL0     H67562  10.190  10.725   3.939  0.2119  0.7729 -1.6704
  512MOL0     H67563  10.263  10.656   3.783  3.0784 -2.9480 -0.8549
  512MOL0     H67564  10.103  10.486   3.911  0.0749 -0.8339  3.2106
  512MOL0     H67565  10.208  10.494   4.045  0.1443  2.2400  0.6323
  512MOL0     H67566  10.969  10.889   3.890  0.6692 -0.3019 -0.2073
  512MOL0     H67567  11.167  10.800   3.847 -1.1243  0.4495  0.4676
  512MOL0     H67568  11.511  10.455   3.933 -3.4157  2.2596 -0.2830
  512MOL0     H67569  11.721  10.380   3.993 -1.1399 -0.1032 -0.0522
  512MOL0     H67570  10.582  10.829   4.299  0.5398 -0.1954  2.1582
  512MOL0     H67571  10.372  10.688   4.333  0.3246 -0.5938 -0.6062
  512MOL0     H67572  10.257  10.213   4.075  1.3755  2.4918  1.4745
  512MOL0     H67573  10.050  10.095   4.054 -0.0873 -2.0565  1.4515
  512MOL0     H67574   9.732  10.153   4.281  1.9295  1.5244  0.6295
  512MOL0     H67575   9.803  10.058   4.427 -0.1307  0.3542  0.2189
  512MOL0     H67576   9.707   9.873   4.245  3.4054 -3.2563  3.3543
  512MOL0     H67577   9.689   9.884   4.416  0.1529 -2.7459 -1.7433
  512MOL0     H67578   9.523  10.009   4.207 -0.0203 -1.5295 -0.1351
  512MOL0     H67579   9.517  10.068   4.384 -0.0707 -0.1770  1.2415
  512MOL0     H67580   9.388   9.854   4.427  0.5509 -0.5103  0.1973
  512MOL0     H67581   9.316   9.929   4.284 -0.0586 -2.7186 -2.5466
  512MOL0     H67582   9.476   9.587   4.109  2.1618  0.6194 -0.6705
  512MOL0     H67583   9.952  10.187   4.456 -0.5118  1.7447  0.6051
  512MOL0     H67584  10.149  10.322   4.475 -0.8476 -0.3864  0.9493
  513MOL0     O67585   4.112   7.054   9.588  0.2817  0.0805 -0.5875
  513MOL0     C67586   4.222   7.012   9.550 -0.2774  0.6563  0.2168
  513MOL0     O67587   4.241   6.896   9.476  0.0948 -0.8092  0.7091
  513MOL0     C67588   4.149   6.813   9.420 -0.0511 -0.6476  1.3221
  513MOL0     C67589   4.017   6.810   9.446  0.2558 -0.5550 -0.6778
  513MOL0     C67590   3.935   6.715   9.384 -0.5070 -0.4023  0.5865
  513MOL0     C67591   3.977   6.625   9.299 -0.4980  0.1658  0.5997
  513MOL0     O67592   3.900   6.526   9.233 -1.3952 -0.7279  0.3860
  513MOL0     C67593   3.764   6.542   9.216 -1.5617  0.8617  0.3609
  513MOL0     C67594   3.718   6.656   9.117 -0.3834  0.9195 -0.7936
  513MOL0     C67595   3.570   6.669   9.146  0.9867  0.1186  0.1551
  513MOL0     C67596   3.501   6.750   9.038 -1.1545 -0.2087 -0.3627
  513MOL0     C67597   3.349   6.754   9.074 -1.0859  0.8683  0.6539
  513MOL0     C67598   3.255   6.789   8.948 -0.3045 -0.0127 -0.6621
  513MOL0     C67599   3.113   6.728   8.961  0.0022 -0.3141 -0.4418
  513MOL0     C67600   3.094   6.597   8.892  0.0018  0.1979 -0.0227
  513MOL0     N67601   3.201   6.495   8.897  0.6037  0.0517  0.2191
  513MOL0     C67602   3.292   6.486   8.799 -0.2622 -0.3979  0.0063
  513MOL0     C67603   3.385   6.411   8.852  0.1968 -0.3499 -1.1819
  513MOL0     C67604   3.521   6.373   8.794  0.7926  0.1161 -0.3410
  513MOL0     C67605   3.619   6.328   8.904 -0.7900 -0.4852 -1.0937
  513MOL0     C67606   3.741   6.269   8.840 -0.7749 -0.1580 -0.5529
  513MOL0     C67607   3.869   6.313   8.925  0.7282 -1.2756  0.8117
  513MOL0     O67608   3.904   6.446   8.880 -0.3866  0.1909  0.4527
  513MOL0     C67609   4.019   6.502   8.925  0.2621  0.1418  0.0060
  513MOL0     C67610   4.038   6.636   8.919  0.1242 -0.6717  0.6981
  513MOL0     C67611   4.150   6.705   8.963 -0.4812  0.6201 -0.6264
  513MOL0     C67612   4.267   6.630   9.006 -0.8062 -0.8122  0.2686
  513MOL0     C67613   4.386   6.702   9.056 -0.8621  0.0818 -1.3736
  513MOL0     O67614   4.498   6.625   9.098 -0.5735  0.3625 -0.1779
  513MOL0     C67615   4.610   6.678   9.156  0.2234 -0.4105  0.1656
  513MOL0     C67616   4.714   6.591   9.178 -0.9109  0.5929  0.0567
  513MOL0     C67617   4.833   6.626   9.242 -0.0165 -0.9091 -0.5811
  513MOL0     C67618   4.844   6.749   9.310 -0.8746 -0.8505  0.2253
  513MOL0     O67619   4.961   6.757   9.388  0.0417 -0.3446  0.2097
  513MOL0     C67620   5.000   6.889   9.427 -0.2864 -0.2821 -0.1121
  513MOL0     C67621   5.136   6.874   9.495 -0.5460  0.6085  0.3231
  513MOL0     C67622   5.134   6.785   9.614 -1.1465 -0.2172 -0.8546
  513MOL0     C67623   5.275   6.765   9.678  0.3564  0.6648 -0.9387
  513MOL0     C67624   5.377   6.690   9.586  0.7043  0.0227  0.2095
  513MOL0     C67625   5.481   6.593   9.660  1.4152 -1.3614 -0.4209
  513MOL0     C67626   5.567   6.516   9.572 -0.2019 -0.0159 -0.2201
  513MOL0     C67627   5.692   6.481   9.652  0.2867  0.4845  0.4883
  513MOL0    Cl67628   5.808   6.431   9.532 -0.1645 -0.5488  0.1458
  513MOL0     C67629   4.745   6.843   9.301  0.5958  0.0810  1.2243
  513MOL0     C67630   4.623   6.804   9.239  0.6798  1.2205 -0.2169
  513MOL0     O67631   4.383   6.824   9.067  0.0870 -0.1484  0.0452
  513MOL0     C67632   4.262   6.493   8.990  0.5552  0.5937 -0.1100
  513MOL0     C67633   4.134   6.430   8.960 -0.4338 -0.2535 -0.1070
  513MOL0     N67634   3.337   6.347   8.965  1.4969 -0.0077 -0.0349
  513MOL0     N67635   3.216   6.399   8.987 -0.8391  0.3188 -0.5902
  513MOL0     C67636   4.113   6.614   9.287  0.2674 -0.1893  0.4662
  513MOL0     C67637   4.199   6.701   9.348 -0.2120  0.4143 -0.3293
  513MOL0     C67638   4.341   7.082   9.598 -0.6883 -0.4841  0.0542
  513MOL0     C67639   4.331   7.219   9.619 -0.1271 -0.2936 -0.0599
  513MOL0     C67640   4.456   7.296   9.636 -0.3900  0.8126 -0.3867
  513MOL0     C67641   4.582   7.231   9.646  0.1251 -1.0446  1.1273
  513MOL0     O67642   4.703   7.300   9.676  0.3292  1.3005  0.4492
  513MOL0     C67643   4.712   7.432   9.639 -0.1543  0.1420 -0.0200
  513MOL0     C67644   4.861   7.473   9.661 -0.7584 -0.0644 -0.8918
  513MOL0     C67645   4.885   7.571   9.787 -0.7929 -0.5341  0.5534
  513MOL0     C67646   5.033   7.564   9.817  0.2926  0.6028 -0.9656
  513MOL0     C67647   5.108   7.662   9.734 -0.1660 -1.1712 -0.0877
  513MOL0     C67648   5.149   7.750   9.657 -0.1160  0.3458 -0.7574
  513MOL0     C67649   4.590   7.095   9.624 -0.5195  0.0911 -0.7916
  513MOL0     C67650   4.474   7.023   9.585  0.2564 -0.4016  0.9662
  513MOL0     H67651   3.958   6.875   9.509  0.4528 -2.3857  1.5395
  513MOL0     H67652   3.832   6.718   9.419 -1.9900  1.3832 -3.3480
  513MOL0     H67653   3.705   6.560   9.306 -3.9662 -0.2500 -0.8852
  513MOL0     H67654   3.721   6.450   9.176 -3.7616  1.1160  1.9601
  513MOL0     H67655   3.746   6.615   9.019  2.4935 -1.7120  0.9401
  513MOL0     H67656   3.785   6.740   9.139  2.3465 -0.5067 -2.9323
  513MOL0     H67657   3.556   6.712   9.245  0.3655 -1.0137  0.5789
  513MOL0     H67658   3.526   6.569   9.147 -1.0437  0.9675  0.1496
  513MOL0     H67659   3.545   6.849   9.025 -1.5102  0.0292  0.1552
  513MOL0     H67660   3.520   6.702   8.942 -3.7230  0.5723 -1.3418
  513MOL0     H67661   3.341   6.825   9.157  2.7841  2.4838 -0.1267
  513MOL0     H67662   3.317   6.656   9.108  0.5748 -1.0693 -2.8569
  513MOL0     H67663   3.306   6.749   8.859 -1.9048 -3.1187 -0.3194
  513MOL0     H67664   3.256   6.898   8.935 -1.0053  0.1782  0.7303
  513MOL0     H67665   3.082   6.718   9.066 -0.1905 -2.5806 -0.6586
  513MOL0     H67666   3.036   6.794   8.921 -0.9235 -0.6568  0.7304
  513MOL0     H67667   3.079   6.620   8.786 -0.8865 -1.1581 -0.2089
  513MOL0     H67668   3.003   6.558   8.939  0.5792 -0.0858  0.8772
  513MOL0     H67669   3.293   6.552   8.713  0.3418 -1.2370 -0.6497
  513MOL0     H67670   3.566   6.455   8.737  0.6483  0.0449 -0.5577
  513MOL0     H67671   3.509   6.287   8.727  0.7168 -0.8925  0.9190
  513MOL0     H67672   3.575   6.249   8.966 -0.2643 -0.0690 -0.1573
  513MOL0     H67673   3.634   6.411   8.974 -2.9390 -1.0574  0.1284
  513MOL0     H67674   3.730   6.160   8.837  1.1086 -0.4704  1.3006
  513MOL0     H67675   3.764   6.298   8.737 -0.1156 -1.8203 -0.9080
  513MOL0     H67676   3.953   6.250   8.895  0.3213 -1.9608  1.0850
  513MOL0     H67677   3.852   6.312   9.033  0.6286  0.2439  0.8278
  513MOL0     H67678   3.949   6.691   8.889 -0.5508 -2.3876 -0.6409
  513MOL0     H67679   4.146   6.813   8.952 -0.9896  0.3974 -3.1242
  513MOL0     H67680   4.719   6.486   9.151  2.4055  1.1082 -1.8692
  513MOL0     H67681   4.919   6.563   9.261  0.9733  1.0775  2.2295
  513MOL0     H67682   4.931   6.946   9.489 -2.9211 -0.7998 -2.3396
  513MOL0     H67683   5.015   6.945   9.334 -0.3385 -0.1201 -0.0221
  513MOL0     H67684   5.182   6.970   9.521  1.5963 -0.1986 -0.2486
  513MOL0     H67685   5.195   6.828   9.415 -1.7533  0.5041 -0.5252
  513MOL0     H67686   5.101   6.684   9.588  2.1822 -1.8171  0.5343
  513MOL0     H67687   5.073   6.836   9.689 -0.9240  0.2807 -1.0100
  513MOL0     H67688   5.308   6.867   9.699 -0.8680  1.2421 -1.7178
  513MOL0     H67689   5.271   6.710   9.772  1.2896 -1.8461 -2.2737
  513MOL0     H67690   5.444   6.756   9.529  0.2957 -0.2899 -0.6476
  513MOL0     H67691   5.312   6.639   9.515 -1.4667 -2.0221  3.4106
  513MOL0     H67692   5.426   6.525   9.725  2.6878 -1.8686  0.1711
  513MOL0     H67693   5.530   6.664   9.728 -1.9856 -0.3928  1.2241
  513MOL0     H67694   5.531   6.419   9.535  1.7310 -1.4780  1.4987
  513MOL0     H67695   5.602   6.577   9.488  4.0539 -3.9263 -1.7087
  513MOL0     H67696   5.675   6.408   9.732 -3.7088  1.6567  0.9180
  513MOL0     H67697   5.724   6.568   9.710  0.5178 -1.2043  3.0443
  513MOL0     H67698   4.742   6.943   9.342 -1.1812  0.6327 -0.0819
  513MOL0     H67699   4.541   6.875   9.234 -0.2262  0.3274  1.2362
  513MOL0     H67700   4.354   6.436   8.999  0.1008 -0.0241  0.7177
  513MOL0     H67701   4.132   6.321   8.956  0.9296 -0.3897  1.4957
  513MOL0     H67702   4.134   6.536   9.214 -2.2492  0.3851 -0.9800
  513MOL0     H67703   4.307   6.694   9.337 -0.0663  2.8528 -1.1775
  513MOL0     H67704   4.234   7.266   9.604  0.2198 -0.1588 -2.2266
  513MOL0     H67705   4.441   7.401   9.657  1.5010  1.1952 -0.7109
  513MOL0     H67706   4.640   7.489   9.697  0.6962  3.1481 -1.7155
  513MOL0     H67707   4.679   7.442   9.535 -1.3717 -1.6313  0.1378
  513MOL0     H67708   4.921   7.383   9.678 -1.1555 -0.3292 -0.8855
  513MOL0     H67709   4.892   7.520   9.567  2.0159  0.7324  0.3257
  513MOL0     H67710   4.818   7.533   9.864 -1.8193  1.0606  0.4998
  513MOL0     H67711   4.843   7.666   9.752  2.5209 -0.0159 -2.6447
  513MOL0     H67712   5.050   7.582   9.923 -2.0993 -3.6039  0.3598
  513MOL0     H67713   5.072   7.464   9.799  1.6110  0.2180  3.0639
  513MOL0     H67714   5.214   7.805   9.592 -1.0760  1.3192 -0.9262
  513MOL0     H67715   4.688   7.050   9.635 -0.1167  1.4327  1.7833
  513MOL0     H67716   4.478   6.917   9.565 -1.1360 -0.5827  1.5453
  514MOL0     O67717   1.403   0.435   6.931  0.0893 -0.2199 -0.2192
  514MOL0     C67718   1.417   0.473   7.047  0.2395  0.5376 -0.1923
  514MOL0     O67719   1.315   0.511   7.132 -0.0842 -0.0534 -0.2199
  514MOL0     C67720   1.183   0.502   7.089 -0.4275  0.3040 -0.7692
  514MOL0     C67721   1.119   0.374   7.067  0.8568  0.7844 -0.0507
  514MOL0     C67722   0.984   0.373   7.047 -0.6573  0.6431  0.2521
  514MOL0     C67723   0.905   0.478   7.064  0.8114 -1.1410  1.1284
  514MOL0     O67724   0.770   0.444   7.046  0.4513 -0.2702  0.0351
  514MOL0     C67725   0.679   0.547   7.088  0.6128  0.8816  0.2225
  514MOL0     C67726   0.532   0.496   7.068  0.2936  0.1206  0.8577
  514MOL0     C67727   0.443   0.596   7.127 -0.6036  0.6445 -0.9335
  514MOL0     C67728   0.300   0.559   7.110  0.0888 -0.4505 -0.1729
  514MOL0     C67729   0.213   0.677   7.152  0.1748 -0.1599 -0.5476
  514MOL0     C67730   0.060   0.667   7.129 -0.4649 -0.4326 -0.0940
  514MOL0     C67731  -0.006   0.553   7.204 -0.2165 -0.2947  0.2046
  514MOL0     C67732  -0.150   0.580   7.184 -0.2431  0.0681  0.0019
  514MOL0     N67733  -0.229   0.477   7.259 -1.0160  0.2373 -0.4610
  514MOL0     C67734  -0.218   0.444   7.389 -0.1396 -0.2331 -0.2423
  514MOL0     C67735  -0.310   0.351   7.401  0.9298  0.7017 -0.1966
  514MOL0     C67736  -0.319   0.279   7.532  0.5124  0.1590  0.0169
  514MOL0     C67737  -0.193   0.193   7.535 -0.5369 -0.5364  0.6486
  514MOL0     C67738  -0.200   0.099   7.656 -0.3944 -1.3995 -0.3823
  514MOL0     C67739  -0.173   0.163   7.795 -0.1349  0.5433  0.1959
  514MOL0     O67740  -0.167   0.055   7.890 -0.2811  0.0918  0.6217
  514MOL0     C67741  -0.147   0.092   8.019  0.9314  0.2014  0.4524
  514MOL0     C67742  -0.138  -0.012   8.107 -0.2726 -0.1655 -0.5908
  514MOL0     C67743  -0.106   0.007   8.247  0.3812 -0.7600 -0.3465
  514MOL0     C67744  -0.083   0.139   8.299 -0.2301 -0.4294  0.4731
  514MOL0     C67745  -0.067   0.169   8.448 -0.1270  1.2786  0.7273
  514MOL0     O67746  -0.036   0.057   8.516 -0.4608 -0.8461 -0.0329
  514MOL0     C67747   0.024   0.072   8.638  0.1760  0.8429  0.0442
  514MOL0     C67748   0.121   0.156   8.669 -0.1823 -0.4305  0.2311
  514MOL0     C67749   0.180   0.149   8.793  0.6502  0.1097  0.6421
  514MOL0     C67750   0.136   0.057   8.893  0.3403 -0.6398 -0.2813
  514MOL0     O67751   0.189   0.052   9.026 -0.5890  0.5222 -0.6460
  514MOL0     C67752   0.312   0.125   9.043  0.2212 -1.0604  0.3133
  514MOL0     C67753   0.374   0.082   9.179 -1.1180 -0.4591 -0.6615
  514MOL0     C67754   0.468   0.185   9.225  1.1150 -1.1859 -0.6023
  514MOL0     C67755   0.389   0.304   9.290  0.5426 -0.3043 -0.0964
  514MOL0     C67756   0.472   0.435   9.300 -0.1684  0.3839  0.1871
  514MOL0     C67757   0.497   0.508   9.424  1.2125  0.2750 -0.0209
  514MOL0     C67758   0.366   0.577   9.484  0.0816  0.4103 -0.0132
  514MOL0     C67759   0.363   0.629   9.631  0.2633  0.1433  0.3813
  514MOL0    Cl67760   0.445   0.785   9.625  0.4194 -0.4447  0.1963
  514MOL0     C67761   0.024  -0.010   8.862 -0.2018  0.5530  0.1264
  514MOL0     C67762  -0.032   0.004   8.742  0.3690 -0.6177 -0.0827
  514MOL0     O67763  -0.070   0.281   8.493 -0.3331  0.2679 -0.0546
  514MOL0     C67764  -0.092   0.243   8.206 -0.2258  0.6874 -0.1614
  514MOL0     C67765  -0.125   0.217   8.068 -0.2395 -0.4647  1.1818
  514MOL0     N67766  -0.360   0.319   7.280  0.1660 -0.0468 -0.6646
  514MOL0     N67767  -0.318   0.404   7.196  0.5020 -0.8579 -0.2489
  514MOL0     C67768   0.965   0.594   7.114  0.1650  0.1798  0.1073
  514MOL0     C67769   1.102   0.609   7.123  0.2307 -0.2773  0.0171
  514MOL0     C67770   1.568   0.481   7.102  0.5520 -0.1722 -0.0486
  514MOL0     C67771   1.592   0.468   7.242 -0.0899  0.2414 -0.1909
  514MOL0     C67772   1.721   0.463   7.294  1.1402 -0.5839 -0.8806
  514MOL0     C67773   1.835   0.476   7.212  0.1516  0.9271 -0.7824
  514MOL0     O67774   1.968   0.461   7.261  1.0676 -0.1361 -0.7988
  514MOL0     C67775   2.072   0.422   7.176  0.7305  0.4487  0.1441
  514MOL0     C67776   2.210   0.465   7.206 -0.2237  0.2034 -0.5426
  514MOL0     C67777   2.231   0.618   7.212 -0.1881 -0.4267 -0.1337
  514MOL0     C67778   2.381   0.661   7.245 -0.0511 -0.4238 -0.6921
  514MOL0     C67779   2.478   0.605   7.151 -0.1137 -0.3472 -0.3287
  514MOL0     C67780   2.563   0.573   7.060  0.7390  0.6556 -0.2122
  514MOL0     C67781   1.803   0.513   7.079  0.8537 -0.2495  0.3902
  514MOL0     C67782   1.671   0.519   7.022 -1.0534 -0.3972 -0.3237
  514MOL0     H67783   1.183   0.289   7.048 -0.9339 -0.5333 -0.4162
  514MOL0     H67784   0.946   0.276   7.017  0.1839  1.4901 -4.3288
  514MOL0     H67785   0.707   0.641   7.039 -3.0500  0.6087 -2.8282
  514MOL0     H67786   0.684   0.565   7.195 -3.0727 -0.0104  0.6766
  514MOL0     H67787   0.523   0.395   7.110  2.3131 -2.6067 -4.2900
  514MOL0     H67788   0.517   0.495   6.960  1.1759  2.2046  0.6704
  514MOL0     H67789   0.449   0.697   7.084 -4.4379  0.6531 -1.8476
  514MOL0     H67790   0.473   0.612   7.231 -0.5685 -0.1327 -0.8203
  514MOL0     H67791   0.269   0.524   7.012  0.3143 -2.5425  0.4513
  514MOL0     H67792   0.276   0.477   7.178  1.9590 -2.1050 -1.4092
  514MOL0     H67793   0.251   0.766   7.101  3.0063  0.9038  2.9510
  514MOL0     H67794   0.231   0.695   7.258  3.8314  1.5119 -1.2893
  514MOL0     H67795   0.040   0.659   7.022 -0.9478  5.1272 -0.7260
  514MOL0     H67796   0.016   0.759   7.169  2.3220 -0.9659  5.0772
  514MOL0     H67797   0.013   0.455   7.159  0.5080  0.6350 -1.6337
  514MOL0     H67798   0.014   0.555   7.311 -1.8057 -2.4985  0.6056
  514MOL0     H67799  -0.168   0.573   7.076  1.0465 -1.7063 -0.1523
  514MOL0     H67800  -0.174   0.681   7.216 -0.9530 -0.6287  1.7668
  514MOL0     H67801  -0.139   0.484   7.451 -0.2638 -0.1180 -0.1567
  514MOL0     H67802  -0.404   0.211   7.539 -0.2650  0.9053 -1.5189
  514MOL0     H67803  -0.323   0.346   7.619  3.2653  1.2746 -0.6231
  514MOL0     H67804  -0.101   0.253   7.536 -1.2842  0.6637  2.2993
  514MOL0     H67805  -0.181   0.122   7.453  2.1843 -1.2705  1.5776
  514MOL0     H67806  -0.291   0.038   7.649 -0.9946 -0.5031 -0.6335
  514MOL0     H67807  -0.120   0.025   7.646 -0.2800 -1.3734  0.3094
  514MOL0     H67808  -0.249   0.237   7.821 -0.2923  0.3359  0.3310
  514MOL0     H67809  -0.085   0.227   7.784  1.8062 -2.3561 -3.5362
  514MOL0     H67810  -0.153  -0.111   8.067  1.0242 -0.7573  0.3090
  514MOL0     H67811  -0.103  -0.078   8.314  0.4029 -1.7450 -1.5641
  514MOL0     H67812   0.167   0.222   8.596 -0.8974 -0.1047  0.0719
  514MOL0     H67813   0.274   0.201   8.810  0.1147  1.0871  0.6430
  514MOL0     H67814   0.299   0.234   9.033 -0.8366 -1.2818 -1.2020
  514MOL0     H67815   0.393   0.097   8.976  0.2919  1.2950 -0.7002
  514MOL0     H67816   0.430  -0.012   9.176  0.7632  0.5932 -0.2334
  514MOL0     H67817   0.297   0.069   9.255 -0.0572  1.2480  0.7990
  514MOL0     H67818   0.533   0.232   9.151  0.2049  1.3127  0.0954
  514MOL0     H67819   0.530   0.133   9.299 -1.3128 -1.6076  1.2495
  514MOL0     H67820   0.309   0.333   9.221  0.3529 -1.6391 -0.4747
  514MOL0     H67821   0.339   0.290   9.386 -1.1590  0.1110 -0.8859
  514MOL0     H67822   0.431   0.506   9.228  0.1548 -2.3229 -2.9069
  514MOL0     H67823   0.573   0.414   9.263 -0.3042  0.9424 -0.5383
  514MOL0     H67824   0.568   0.589   9.406 -0.0761  0.9768 -2.4522
  514MOL0     H67825   0.533   0.446   9.507  1.1341 -1.7427 -1.4335
  514MOL0     H67826   0.345   0.669   9.428  2.3750  1.2569  0.4286
  514MOL0     H67827   0.282   0.509   9.466 -0.5577  1.4999 -1.3311
  514MOL0     H67828   0.422   0.556   9.687  2.9829  1.3523 -0.7513
  514MOL0     H67829   0.264   0.634   9.676 -0.3837 -0.8395 -0.8647
  514MOL0     H67830  -0.024  -0.077   8.933  0.1256 -0.0786 -0.2333
  514MOL0     H67831  -0.124  -0.049   8.717  0.7024 -0.9206 -0.6686
  514MOL0     H67832  -0.076   0.348   8.231  3.3691  0.0349  0.8994
  514MOL0     H67833  -0.143   0.306   8.010 -0.0270 -0.1519  1.5948
  514MOL0     H67834   0.903   0.680   7.137 -2.8934 -1.4124 -1.3953
  514MOL0     H67835   1.155   0.702   7.140 -1.2990  0.5404  0.5337
  514MOL0     H67836   1.506   0.448   7.306  0.1337  0.1495  0.0813
  514MOL0     H67837   1.718   0.445   7.401 -4.5554 -1.5097 -0.8665
  514MOL0     H67838   2.048   0.451   7.073  3.7507 -3.8047 -2.0858
  514MOL0     H67839   2.072   0.313   7.165  0.8615  0.6781 -3.1177
  514MOL0     H67840   2.244   0.412   7.295  3.1654 -3.6159 -3.7202
  514MOL0     H67841   2.278   0.426   7.130  0.8800 -1.5989  1.2677
  514MOL0     H67842   2.164   0.658   7.289 -0.9718 -0.2979 -0.8818
  514MOL0     H67843   2.191   0.667   7.123 -0.6844  1.3403  1.0058
  514MOL0     H67844   2.397   0.768   7.255  3.7329 -1.0252  1.5558
  514MOL0     H67845   2.398   0.632   7.350 -0.6509  0.6504 -0.2768
  514MOL0     H67846   2.633   0.528   6.992  1.7178 -1.3305  1.9907
  514MOL0     H67847   1.877   0.543   7.005  0.3471 -3.8758 -1.8240
  514MOL0     H67848   1.659   0.529   6.915  0.1817 -1.9650 -0.6496
  515MOL0     O67849   2.908   1.294   7.611 -0.3132  0.0259  0.6978
  515MOL0     C67850   2.923   1.280   7.732 -0.2642  0.0108 -0.0654
  515MOL0     O67851   3.021   1.216   7.793  0.1680  0.1330 -0.1764
  515MOL0     C67852   3.130   1.150   7.734  0.5770  0.1556  0.4718
  515MOL0     C67853   3.194   1.055   7.807  0.4377  0.5813  1.2699
  515MOL0     C67854   3.307   0.985   7.760  0.6641  0.4764  0.2727
  515MOL0     C67855   3.345   1.004   7.621 -0.7968  0.4974 -0.7448
  515MOL0     O67856   3.450   0.931   7.556  0.4768  0.3076 -0.0289
  515MOL0     C67857   3.458   0.794   7.581 -0.5294  0.1837  0.2503
  515MOL0     C67858   3.569   0.736   7.493 -0.5362  0.3105 -0.1166
  515MOL0     C67859   3.604   0.587   7.517 -0.1181  0.3573 -0.2864
  515MOL0     C67860   3.703   0.513   7.421  0.0847 -0.1976 -0.9825
  515MOL0     C67861   3.838   0.576   7.459 -0.6577  0.0397  0.2431
  515MOL0     C67862   3.953   0.544   7.364  0.4654 -0.0182  0.6645
  515MOL0     C67863   4.001   0.401   7.371  0.2722 -1.3718  0.9626
  515MOL0     C67864   4.123   0.368   7.278 -0.1556  0.9358 -0.4204
  515MOL0     N67865   4.100   0.320   7.140  0.3426  0.9012 -0.1952
  515MOL0     C67866   4.092   0.400   7.030  0.4471 -0.3304  0.0828
  515MOL0     C67867   4.064   0.318   6.925 -0.3086 -0.6757 -0.8117
  515MOL0     C67868   4.057   0.356   6.779  0.0195 -0.2191  0.9764
  515MOL0     C67869   4.118   0.262   6.684 -1.0481  0.7421  0.4522
  515MOL0     C67870   4.260   0.222   6.706 -0.1280  0.4805 -0.0377
  515MOL0     C67871   4.365   0.329   6.673  0.2415  0.4663 -0.4265
  515MOL0     O67872   4.335   0.460   6.723 -0.0491 -0.4447 -0.2733
  515MOL0     C67873   4.380   0.497   6.846  0.5027  0.4782  0.6829
  515MOL0     C67874   4.432   0.416   6.944  0.2939  0.1688  0.1497
  515MOL0     C67875   4.465   0.470   7.068  0.1499 -0.1054  0.0057
  515MOL0     C67876   4.439   0.600   7.099  0.6413 -0.7181  0.2945
  515MOL0     C67877   4.477   0.668   7.220 -0.0997  1.5303  0.0845
  515MOL0     O67878   4.499   0.797   7.233  0.1312 -0.9030  0.3442
  515MOL0     C67879   4.505   0.840   7.363  0.0265  0.0820 -0.9754
  515MOL0     C67880   4.405   0.930   7.406  0.3212 -0.2341 -0.0561
  515MOL0     C67881   4.402   0.971   7.542  0.1499 -0.2359  0.5220
  515MOL0     C67882   4.511   0.948   7.627  0.7261  0.4816 -0.0944
  515MOL0     O67883   4.497   1.001   7.751 -0.2887 -0.1653  0.5608
  515MOL0     C67884   4.614   1.045   7.820  0.0575  0.4292  0.2628
  515MOL0     C67885   4.574   1.096   7.959  0.1867 -0.0339  0.3462
  515MOL0     C67886   4.486   1.216   7.940 -0.3865  0.1804  0.9049
  515MOL0     C67887   4.573   1.340   7.909 -0.6741  0.1663 -0.1875
  515MOL0     C67888   4.485   1.465   7.873  1.0052 -0.3842  0.2630
  515MOL0     C67889   4.366   1.485   7.973  0.1097 -0.0812 -0.7062
  515MOL0     C67890   4.264   1.587   7.939 -0.2539 -0.4889 -0.2010
  515MOL0     C67891   4.191   1.631   8.072  0.0393 -0.6679  0.6387
  515MOL0    Cl67892   4.294   1.716   8.180  0.0388  0.3712 -0.0596
  515MOL0     C67893   4.613   0.858   7.580  0.4665  0.1835  0.0225
  515MOL0     C67894   4.610   0.808   7.452 -0.0436  0.7249  0.0821
  515MOL0     O67895   4.474   0.586   7.315 -0.0192  0.5142  0.3073
  515MOL0     C67896   4.382   0.683   7.005  0.0969  0.4177 -0.6178
  515MOL0     C67897   4.358   0.632   6.880 -1.0364 -0.5526 -0.2640
  515MOL0     N67898   4.049   0.196   6.979 -0.4691 -0.3672  0.2217
  515MOL0     N67899   4.081   0.196   7.105 -0.3828 -1.1592  0.1042
  515MOL0     C67900   3.284   1.110   7.555  0.7761 -0.9630 -0.5715
  515MOL0     C67901   3.177   1.180   7.610  0.6412 -0.4189 -0.7215
  515MOL0     C67902   2.808   1.319   7.816  0.9622  0.4165 -0.4643
  515MOL0     C67903   2.701   1.394   7.752  0.2618 -0.4414 -0.5309
  515MOL0     C67904   2.616   1.465   7.832  0.4824  0.2784  0.8735
  515MOL0     C67905   2.612   1.447   7.970  0.2965  0.2538  0.2092
  515MOL0     O67906   2.501   1.511   8.037  0.7407  1.1645  0.5247
  515MOL0     C67907   2.539   1.640   8.076 -0.0046 -1.3993  0.1655
  515MOL0     C67908   2.447   1.740   8.005 -0.5640 -0.6411 -0.1156
  515MOL0     C67909   2.305   1.736   8.052 -0.2835  0.8449 -0.4479
  515MOL0     C67910   2.241   1.874   8.049 -0.7957 -0.1843 -0.1541
  515MOL0     C67911   2.254   1.927   7.907 -1.1376 -0.4927  0.7639
  515MOL0     C67912   2.251   1.956   7.783 -0.1351 -0.6002  0.8486
  515MOL0     C67913   2.708   1.368   8.032  0.1025 -0.3954  0.6744
  515MOL0     C67914   2.807   1.298   7.955 -0.3328 -0.4049  0.8673
  515MOL0     H67915   3.150   1.025   7.902  1.0927 -0.1427  1.3514
  515MOL0     H67916   3.359   0.908   7.816  1.7335  0.7845 -0.2663
  515MOL0     H67917   3.365   0.738   7.567  1.5843 -4.0918  1.6994
  515MOL0     H67918   3.487   0.775   7.685 -1.2988 -1.3037  0.2138
  515MOL0     H67919   3.656   0.798   7.516  0.0136  0.7048 -2.9037
  515MOL0     H67920   3.539   0.755   7.390  1.8437 -0.9320 -1.1134
  515MOL0     H67921   3.513   0.526   7.523 -1.3596  2.0310 -1.3133
  515MOL0     H67922   3.647   0.585   7.617 -0.1504 -2.3654 -0.2438
  515MOL0     H67923   3.712   0.404   7.427 -2.3678 -0.5418 -2.2873
  515MOL0     H67924   3.666   0.528   7.319 -2.0704  1.6086 -0.0364
  515MOL0     H67925   3.865   0.542   7.560  0.2963 -2.4712 -0.7817
  515MOL0     H67926   3.824   0.685   7.461 -1.5167 -0.0205 -1.2628
  515MOL0     H67927   4.039   0.604   7.393 -1.1313  4.2895 -2.4464
  515MOL0     H67928   3.923   0.578   7.265 -0.9061 -0.2682  0.9678
  515MOL0     H67929   4.020   0.382   7.477 -1.8680 -0.3845  1.5604
  515MOL0     H67930   3.914   0.338   7.352 -2.3444  2.1545  0.4070
  515MOL0     H67931   4.184   0.291   7.326 -0.1800  1.7085  0.8761
  515MOL0     H67932   4.183   0.459   7.285  2.0131 -0.5646  3.5797
  515MOL0     H67933   4.123   0.504   7.025  0.8594 -0.4984 -1.2369
  515MOL0     H67934   4.096   0.458   6.765 -4.0533  1.2829 -0.8836
  515MOL0     H67935   3.951   0.375   6.760 -0.0363  1.8089  2.9397
  515MOL0     H67936   4.098   0.307   6.587 -3.0290 -0.2387  0.3578
  515MOL0     H67937   4.055   0.174   6.671 -2.8958  2.2870 -1.8486
  515MOL0     H67938   4.275   0.207   6.813 -0.1208  3.8065  0.5067
  515MOL0     H67939   4.275   0.129   6.650 -1.6977  0.9017 -1.2395
  515MOL0     H67940   4.385   0.339   6.565  3.5214  1.7461  0.1843
  515MOL0     H67941   4.462   0.291   6.707  1.4604  3.7431  0.1166
  515MOL0     H67942   4.431   0.308   6.930  0.3201 -0.0577  1.7418
  515MOL0     H67943   4.501   0.403   7.145 -0.4542  0.9937  1.2900
  515MOL0     H67944   4.324   0.948   7.335  2.0177 -1.5978 -2.4821
  515MOL0     H67945   4.319   1.028   7.582 -1.6727 -2.3483 -0.0730
  515MOL0     H67946   4.669   1.118   7.760  4.0058 -2.5615 -0.1726
  515MOL0     H67947   4.683   0.960   7.825 -1.1078 -0.6932 -1.2721
  515MOL0     H67948   4.666   1.124   8.009  0.7926 -1.2799 -0.0170
  515MOL0     H67949   4.537   1.016   8.024  0.7610  0.5711  1.4251
  515MOL0     H67950   4.418   1.219   8.026 -0.5713 -1.4870  0.8523
  515MOL0     H67951   4.415   1.197   7.859  1.2598  1.1694 -0.8439
  515MOL0     H67952   4.632   1.359   8.000  0.6607 -0.9077 -0.7907
  515MOL0     H67953   4.646   1.335   7.827 -0.5506 -0.1761 -0.0585
  515MOL0     H67954   4.451   1.434   7.774  0.9875 -5.4782  1.5468
  515MOL0     H67955   4.546   1.555   7.866  1.3351 -0.6774 -0.8989
  515MOL0     H67956   4.407   1.492   8.075 -0.3206 -2.4777 -0.2933
  515MOL0     H67957   4.300   1.398   7.968 -0.2903 -0.3528  4.2758
  515MOL0     H67958   4.326   1.671   7.905  1.9795 -1.3792  1.3870
  515MOL0     H67959   4.187   1.561   7.866 -0.0251  0.1121 -0.6762
  515MOL0     H67960   4.149   1.545   8.125 -0.1732  0.5017  2.4165
  515MOL0     H67961   4.112   1.698   8.038 -0.1040 -0.3154  1.6493
  515MOL0     H67962   4.690   0.811   7.640 -1.2614 -1.1605  1.2906
  515MOL0     H67963   4.676   0.729   7.418  0.2017  0.5931  0.8415
  515MOL0     H67964   4.361   0.788   7.027  2.2977  0.7342  0.2083
  515MOL0     H67965   4.314   0.706   6.814 -1.0060 -1.0904 -0.8924
  515MOL0     H67966   3.323   1.140   7.458  0.4574  1.6348  0.0404
  515MOL0     H67967   3.135   1.256   7.545 -1.5859 -1.1333 -0.2011
  515MOL0     H67968   2.682   1.421   7.648 -3.2620  1.9289  0.5283
  515MOL0     H67969   2.542   1.530   7.786  0.6170  1.2293  1.9504
  515MOL0     H67970   2.641   1.666   8.048 -0.6275  3.3462  1.4485
  515MOL0     H67971   2.520   1.645   8.183  1.9339 -1.4764  0.5375
  515MOL0     H67972   2.485   1.842   8.003 -0.1681 -0.7952 -1.3327
  515MOL0     H67973   2.462   1.713   7.900  4.0079 -0.4714  0.2927
  515MOL0     H67974   2.296   1.697   8.154 -2.9417  1.0737 -0.5127
  515MOL0     H67975   2.248   1.663   7.993  0.6478 -0.2861 -0.0015
  515MOL0     H67976   2.139   1.875   8.087 -1.1458 -1.2266 -1.0191
  515MOL0     H67977   2.292   1.946   8.114  0.2143 -1.1822  0.2024
  515MOL0     H67978   2.253   1.970   7.677  2.0060 -2.1812  0.5997
  515MOL0     H67979   2.709   1.362   8.140 -4.3411  1.4585  1.0655
  515MOL0     H67980   2.870   1.235   8.017 -0.8802 -0.2446  1.6002
  516MOL0     O67981  11.112   6.680   2.844 -0.9715  0.3558  0.6007
  516MOL0     C67982  11.166   6.748   2.935 -0.7491  0.1726  0.0642
  516MOL0     O67983  11.147   6.738   3.067  0.4126  0.3733 -0.1389
  516MOL0     C67984  11.030   6.684   3.102  0.3001  0.3844  0.9791
  516MOL0     C67985  10.936   6.756   3.174 -0.0062 -0.5365  0.1821
  516MOL0     C67986  10.815   6.694   3.227 -0.1047 -0.4718 -0.3856
  516MOL0     C67987  10.802   6.555   3.214  0.1089  0.2379  0.0132
  516MOL0     O67988  10.693   6.501   3.279  1.0162 -0.1196 -0.4064
  516MOL0     C67989  10.578   6.446   3.213  0.0917  0.5919  0.4039
  516MOL0     C67990  10.501   6.540   3.130 -0.8317 -0.2261 -0.6437
  516MOL0     C67991  10.406   6.464   3.041 -0.2094 -0.9025  0.8582
  516MOL0     C67992  10.286   6.554   2.998 -0.0729 -0.4707  0.4742
  516MOL0     C67993  10.344   6.666   2.901  0.1375  0.9264 -0.4941
  516MOL0     C67994  10.345   6.811   2.953  1.2594  0.2416 -0.1101
  516MOL0     C67995  10.382   6.902   2.840 -0.2539  0.2553  0.8617
  516MOL0     C67996  10.325   7.048   2.859  0.3885 -0.0080  0.1147
  516MOL0     N67997  10.384   7.132   2.752 -0.3076 -0.5843 -0.3598
  516MOL0     C67998  10.500   7.199   2.779 -0.5081  0.2871  0.5951
  516MOL0     C67999  10.521   7.287   2.677  0.3712 -0.2843  0.2848
  516MOL0     C68000  10.625   7.383   2.657 -0.3282 -0.5527 -0.0278
  516MOL0     C68001  10.714   7.331   2.547  0.1035  0.3347 -0.3821
  516MOL0     C68002  10.850   7.393   2.542 -0.0328  0.4482  0.1735
  516MOL0     C68003  10.862   7.537   2.574 -0.0991 -0.1370  0.3711
  516MOL0     O68004  11.004   7.545   2.565 -0.5255 -0.5684  1.0158
  516MOL0     C68005  11.060   7.659   2.609 -0.3184 -0.4023  0.0791
  516MOL0     C68006  10.999   7.783   2.640  0.2494  0.7397 -1.2222
  516MOL0     C68007  11.077   7.894   2.673 -0.2905 -0.7296  0.4079
  516MOL0     C68008  11.216   7.890   2.675 -0.6567 -0.5455  0.7537
  516MOL0     C68009  11.298   8.007   2.721 -0.1833 -0.2732  0.6709
  516MOL0     O68010  11.231   8.114   2.774  0.2318 -0.1542  0.1397
  516MOL0     C68011  11.289   8.235   2.793 -0.4044  0.3136 -0.3168
  516MOL0     C68012  11.220   8.353   2.784 -0.2328  0.6158  1.0693
  516MOL0     C68013  11.279   8.478   2.799  0.2648 -0.4219 -0.0997
  516MOL0     C68014  11.410   8.488   2.851 -0.4237 -0.6650  0.6618
  516MOL0     O68015  11.489   8.605   2.857  1.0760  0.2946  0.0551
  516MOL0     C68016  11.461   8.679   2.980  0.1045  0.9417  0.1337
  516MOL0     C68017  11.504   8.829   2.969  0.6039 -0.7641  0.2258
  516MOL0     C68018  11.506   8.907   3.095  0.1505 -0.2971 -0.2240
  516MOL0     C68019  11.554   9.057   3.079 -0.6690  0.2641  0.4451
  516MOL0     C68020  11.608   9.114   3.205 -0.5141  0.0134 -0.4257
  516MOL0     C68021  11.746   9.057   3.242  0.5479  0.0706 -0.2226
  516MOL0     C68022  11.800   9.104   3.370  0.3065  0.5482 -0.2922
  516MOL0     C68023  11.893   9.002   3.423 -0.5868 -0.2443  0.9632
  516MOL0    Cl68024  12.031   8.977   3.312 -0.1376 -0.4807 -0.0132
  516MOL0     C68025  11.481   8.376   2.866  1.2371  0.4468 -1.0540
  516MOL0     C68026  11.426   8.247   2.837 -0.0733 -0.0342 -0.0655
  516MOL0     O68027  11.418   8.005   2.700 -0.5442 -0.6886 -0.4758
  516MOL0     C68028  11.276   7.770   2.638 -0.5554 -0.1380  0.5742
  516MOL0     C68029  11.194   7.656   2.605 -0.1161 -0.1468  0.4695
  516MOL0     N68030  10.403   7.273   2.593 -0.3596 -0.3407 -0.3781
  516MOL0     N68031  10.319   7.190   2.649 -0.3612  0.3280  0.8659
  516MOL0     C68032  10.901   6.473   3.146 -0.1102 -0.2482 -0.2054
  516MOL0     C68033  11.016   6.547   3.094  0.4606  0.4171 -0.4353
  516MOL0     C68034  11.281   6.835   2.891  0.9498 -0.3629 -0.3922
  516MOL0     C68035  11.319   6.834   2.759  0.1436  0.4319 -0.6488
  516MOL0     C68036  11.415   6.918   2.706  0.6435  0.9059  1.2583
  516MOL0     C68037  11.495   6.989   2.791 -0.8319 -0.5442 -0.3664
  516MOL0     O68038  11.599   7.057   2.729  0.6090 -0.1071  0.4683
  516MOL0     C68039  11.731   7.071   2.783  1.1514  0.0468  0.5508
  516MOL0     C68040  11.841   7.013   2.688 -0.6294 -0.3392  0.8006
  516MOL0     C68041  11.878   7.123   2.585 -0.5516  0.2008  0.9075
  516MOL0     C68042  11.771   7.212   2.527  0.2470 -0.1909  0.7245
  516MOL0     C68043  11.828   7.301   2.416  0.1910 -0.0919 -0.1845
  516MOL0     C68044  11.879   7.371   2.330  0.3357  1.5260  0.2439
  516MOL0     C68045  11.460   6.995   2.923 -0.4664  1.1302 -0.0390
  516MOL0     C68046  11.348   6.926   2.974  0.7230  0.3868  1.0910
  516MOL0     H68047  10.953   6.860   3.201 -1.8952 -0.7824  2.6788
  516MOL0     H68048  10.749   6.765   3.277  2.7680  1.0752  1.4764
  516MOL0     H68049  10.511   6.402   3.288  0.7845 -4.3269 -1.4662
  516MOL0     H68050  10.617   6.370   3.145 -1.8911 -1.1935  1.1395
  516MOL0     H68051  10.573   6.591   3.064 -0.2788  0.3904  0.4030
  516MOL0     H68052  10.458   6.616   3.194 -0.5842 -2.2520  2.0896
  516MOL0     H68053  10.355   6.384   3.095 -2.2243  2.2232  4.0585
  516MOL0     H68054  10.462   6.432   2.954 -1.1756  0.0010 -0.1231
  516MOL0     H68055  10.208   6.499   2.944  2.5613 -3.0267 -1.0048
  516MOL0     H68056  10.233   6.600   3.082 -2.0425 -3.2499  0.8875
  516MOL0     H68057  10.289   6.668   2.806  1.4260  1.2841 -1.2607
  516MOL0     H68058  10.444   6.637   2.865  1.2926  0.5289  2.6817
  516MOL0     H68059  10.418   6.835   3.032  2.4878 -2.5106 -0.3097
  516MOL0     H68060  10.242   6.830   2.983  1.9750  2.5329  1.2165
  516MOL0     H68061  10.486   6.899   2.808 -0.7771 -0.1958 -0.9006
  516MOL0     H68062  10.335   6.863   2.749 -1.8687  0.7476  1.4381
  516MOL0     H68063  10.355   7.086   2.957  1.0742 -0.7735  0.2165
  516MOL0     H68064  10.216   7.042   2.857  0.4617 -1.7476 -1.1445
  516MOL0     H68065  10.563   7.206   2.867 -0.8954  1.6726  0.7908
  516MOL0     H68066  10.674   7.389   2.755 -0.0975 -2.8325  0.0418
  516MOL0     H68067  10.587   7.484   2.636  1.3547  0.3686  1.0965
  516MOL0     H68068  10.664   7.351   2.452  1.8492 -1.3201 -1.7464
  516MOL0     H68069  10.716   7.223   2.560  1.1978  0.5155  1.2773
  516MOL0     H68070  10.918   7.331   2.601  1.1494 -0.9642 -2.5232
  516MOL0     H68071  10.884   7.386   2.438  1.0988  0.3607  0.5425
  516MOL0     H68072  10.826   7.565   2.674  4.5238  4.0889  1.3153
  516MOL0     H68073  10.817   7.598   2.495  3.7281  3.6345  0.7490
  516MOL0     H68074  10.891   7.790   2.640 -0.2877 -3.5300  1.8129
  516MOL0     H68075  11.020   7.984   2.694 -1.8596 -1.8553  1.1131
  516MOL0     H68076  11.118   8.355   2.747 -0.9355 -2.0500  2.5527
  516MOL0     H68077  11.236   8.571   2.763  1.8636  0.1011 -0.7442
  516MOL0     H68078  11.516   8.639   3.065  0.9533  1.8744  0.0527
  516MOL0     H68079  11.353   8.671   2.993  0.0994  1.3386  0.3352
  516MOL0     H68080  11.449   8.870   2.884  0.0075  0.8979  1.3792
  516MOL0     H68081  11.611   8.817   2.948  1.1294 -0.4849  2.5114
  516MOL0     H68082  11.567   8.851   3.166  0.2852 -0.9744 -0.8502
  516MOL0     H68083  11.405   8.901   3.136  0.7229 -2.8568  1.0209
  516MOL0     H68084  11.642   9.058   3.014 -0.7285 -0.6689  0.3357
  516MOL0     H68085  11.464   9.113   3.050 -5.5444 -4.6157  4.1118
  516MOL0     H68086  11.537   9.119   3.288 -0.2533  0.4107 -0.2242
  516MOL0     H68087  11.630   9.218   3.175  0.5462 -0.5831 -1.8490
  516MOL0     H68088  11.819   9.089   3.168  0.6296  3.8686  1.2942
  516MOL0     H68089  11.749   8.948   3.232  0.2253 -0.1742  1.8641
  516MOL0     H68090  11.836   9.207   3.360 -2.2445  1.3774 -1.7805
  516MOL0     H68091  11.717   9.120   3.439 -1.6297  0.2603 -2.4221
  516MOL0     H68092  11.849   8.903   3.440  0.7148 -0.6732  2.0459
  516MOL0     H68093  11.941   9.042   3.513  3.7702  0.8206 -1.5303
  516MOL0     H68094  11.582   8.382   2.905  0.6573 -0.2873  0.6442
  516MOL0     H68095  11.488   8.160   2.858  0.0088 -0.9838 -3.7182
  516MOL0     H68096  11.383   7.754   2.644 -0.6792 -0.5708  2.0381
  516MOL0     H68097  11.253   7.568   2.580 -0.3182  0.1059 -0.9808
  516MOL0     H68098  10.892   6.365   3.135  1.8004 -0.3444 -1.0597
  516MOL0     H68099  11.096   6.497   3.040 -0.1226 -1.5580  0.4447
  516MOL0     H68100  11.269   6.779   2.679  0.4450  0.4262 -0.8361
  516MOL0     H68101  11.430   6.918   2.599 -2.5949 -0.8910  0.6747
  516MOL0     H68102  11.742   7.021   2.880 -2.2087 -0.9705  0.5096
  516MOL0     H68103  11.746   7.178   2.802 -0.5030  0.8547 -2.0950
  516MOL0     H68104  11.933   6.987   2.743  0.5560 -0.6973 -1.2511
  516MOL0     H68105  11.792   6.929   2.638  0.8588 -1.4068  1.0498
  516MOL0     H68106  11.936   7.075   2.506  0.0432  1.1564  0.7595
  516MOL0     H68107  11.952   7.186   2.635  1.4652 -1.1264 -0.2847
  516MOL0     H68108  11.692   7.150   2.484  1.6678 -2.7314  1.6037
  516MOL0     H68109  11.736   7.279   2.606  0.9846  0.0089  0.8925
  516MOL0     H68110  11.927   7.441   2.264  1.6298 -0.0357 -0.5272
  516MOL0     H68111  11.513   7.057   2.995  1.0231 -1.0792  0.9165
  516MOL0     H68112  11.330   6.929   3.081 -0.2503 -1.2555  1.0041
  517MOL0     O68113   0.189   4.479   1.036 -0.2744 -0.2944 -0.4288
  517MOL0     C68114   0.168   4.596   1.005 -0.3654  0.8774 -0.1405
  517MOL0     O68115   0.051   4.646   0.963 -0.1154  0.2617 -0.4561
  517MOL0     C68116  -0.054   4.565   0.972  0.0402 -0.3769  0.5882
  517MOL0     C68117  -0.134   4.565   0.858 -0.2313  0.0568  0.1845
  517MOL0     C68118  -0.260   4.494   0.858  0.2415 -0.8110 -0.1551
  517MOL0     C68119  -0.301   4.433   0.971 -0.6579 -0.3610  0.3131
  517MOL0     O68120  -0.418   4.365   0.995 -0.0331 -0.2441  0.3833
  517MOL0     C68121  -0.519   4.375   0.892  0.8784 -0.2248 -1.0982
  517MOL0     C68122  -0.656   4.364   0.967 -0.4770 -0.5227  0.3456
  517MOL0     C68123  -0.754   4.324   0.860 -0.1326  0.7143 -0.8266
  517MOL0     C68124  -0.894   4.283   0.925 -0.8053  0.0247 -0.4490
  517MOL0     C68125  -0.968   4.199   0.813  0.3450 -0.7554  0.1386
  517MOL0     C68126  -1.121   4.222   0.813  0.1014  1.1136  0.5008
  517MOL0     C68127  -1.195   4.181   0.685  0.9784 -0.3083 -0.4578
  517MOL0     C68128  -1.351   4.189   0.695  0.3710 -0.1143  0.4118
  517MOL0     N68129  -1.411   4.158   0.826 -0.3007 -0.3010  0.9035
  517MOL0     C68130  -1.440   4.256   0.915  0.8424  0.1352 -0.0593
  517MOL0     C68131  -1.521   4.200   1.008 -0.4945  0.5596 -0.1348
  517MOL0     C68132  -1.636   4.261   1.093  0.2298 -0.0614  0.0438
  517MOL0     C68133  -1.575   4.330   1.215  0.5664  0.2481 -0.8355
  517MOL0     C68134  -1.677   4.374   1.323  0.1295  0.0050 -0.4766
  517MOL0     C68135  -1.802   4.285   1.344  0.3906 -0.5445  0.2134
  517MOL0     O68136  -1.774   4.144   1.355  0.0751  0.0568 -0.5424
  517MOL0     C68137  -1.839   4.083   1.457 -0.2769  0.0891  0.1834
  517MOL0     C68138  -1.763   4.049   1.564  0.2310 -0.4707  0.1228
  517MOL0     C68139  -1.823   4.016   1.680  0.5499  0.5592  0.2323
  517MOL0     C68140  -1.961   3.999   1.694  0.2810  0.1111 -0.1925
  517MOL0     C68141  -2.009   3.942   1.825  0.4858 -0.0829  0.1049
  517MOL0     O68142  -1.914   3.942   1.924 -0.0063 -0.5211  0.5358
  517MOL0     C68143  -1.957   3.917   2.049  1.1467 -0.1984 -0.3257
  517MOL0     C68144  -1.934   3.794   2.103 -0.2118  0.2133 -0.7935
  517MOL0     C68145  -1.986   3.765   2.235 -0.8966 -0.4551 -0.1645
  517MOL0     C68146  -2.068   3.866   2.299 -1.0878  0.4912 -0.1576
  517MOL0     O68147  -2.123   3.856   2.419  0.0625  0.7219  0.0977
  517MOL0     C68148  -2.211   3.748   2.433 -0.0595 -0.2451  0.4176
  517MOL0     C68149  -2.321   3.779   2.532 -0.8473 -0.4111 -0.2350
  517MOL0     C68150  -2.262   3.802   2.662 -0.5300  0.0622  0.0233
  517MOL0     C68151  -2.351   3.859   2.771  0.7726 -0.3710 -0.1339
  517MOL0     C68152  -2.442   3.756   2.835  0.3004  0.1301  0.0911
  517MOL0     C68153  -2.477   3.798   2.983 -0.0506 -0.5317 -0.0959
  517MOL0     C68154  -2.562   3.692   3.054  0.6860  0.5107 -0.1443
  517MOL0     C68155  -2.559   3.708   3.206 -0.4966 -0.0243  0.5409
  517MOL0    Cl68156  -2.651   3.558   3.260  0.0554  0.1287 -0.0294
  517MOL0     C68157  -2.086   3.991   2.234  0.0271  0.6824 -0.7091
  517MOL0     C68158  -2.029   4.020   2.113  0.1425  0.0306 -1.1000
  517MOL0     O68159  -2.133   3.948   1.844  1.2220  0.6721  0.7010
  517MOL0     C68160  -2.042   4.027   1.580  0.0851  0.5505  0.2128
  517MOL0     C68161  -1.979   4.069   1.464 -0.2253  0.0962  0.3195
  517MOL0     N68162  -1.507   4.065   0.995 -0.4587 -0.3727 -0.4344
  517MOL0     N68163  -1.457   4.038   0.877  0.3818  0.3511 -0.0118
  517MOL0     C68164  -0.222   4.432   1.081 -0.4030 -0.9421  0.9022
  517MOL0     C68165  -0.099   4.501   1.084 -0.4769 -0.7587 -0.2881
  517MOL0     C68166   0.295   4.684   1.009 -0.1267  0.1779  1.1399
  517MOL0     C68167   0.418   4.621   1.050  0.1116  0.1851 -0.4211
  517MOL0     C68168   0.539   4.699   1.041 -0.8195 -0.9466  0.2047
  517MOL0     C68169   0.537   4.833   1.004 -0.4647  0.5576  0.8602
  517MOL0     O68170   0.654   4.901   0.992 -0.4398 -0.1734  0.4280
  517MOL0     C68171   0.660   5.029   1.045  0.1251 -0.0372 -0.4217
  517MOL0     C68172   0.807   5.080   1.061  0.6894 -0.3822 -1.1350
  517MOL0     C68173   0.899   4.979   1.124  0.3587 -0.2078 -0.2735
  517MOL0     C68174   1.034   5.042   1.138  0.5423 -0.8603 -0.3162
  517MOL0     C68175   1.120   5.036   1.019 -0.5942 -0.0888 -0.0394
  517MOL0     C68176   1.202   5.033   0.930 -0.1485  0.8466  0.0673
  517MOL0     C68177   0.417   4.891   0.967 -0.4773 -1.2875  0.7958
  517MOL0     C68178   0.299   4.818   0.962  0.2684  0.9626  0.5356
  517MOL0     H68179  -0.091   4.621   0.776 -0.2327  0.8397  0.7076
  517MOL0     H68180  -0.328   4.491   0.773 -0.6743 -2.1531  0.5773
  517MOL0     H68181  -0.502   4.297   0.817 -3.4292 -0.8697 -1.6568
  517MOL0     H68182  -0.521   4.468   0.835 -0.9195 -2.1319 -4.4461
  517MOL0     H68183  -0.682   4.463   1.007  0.4510  0.1381 -0.6046
  517MOL0     H68184  -0.638   4.294   1.048  2.9661  0.0752  0.2752
  517MOL0     H68185  -0.715   4.236   0.808  0.8507 -0.5548  1.8394
  517MOL0     H68186  -0.756   4.398   0.780  0.3047  1.7306  0.0824
  517MOL0     H68187  -0.885   4.220   1.014 -0.8270 -0.6672 -0.9279
  517MOL0     H68188  -0.956   4.372   0.939  2.1127  1.8942  1.6247
  517MOL0     H68189  -0.931   4.097   0.822  3.6908  0.2489 -0.7872
  517MOL0     H68190  -0.926   4.229   0.717  1.3283  1.6116  1.2336
  517MOL0     H68191  -1.139   4.330   0.813 -2.3411  0.8846 -3.1208
  517MOL0     H68192  -1.162   4.183   0.907 -0.8781 -0.1391 -0.3998
  517MOL0     H68193  -1.162   4.243   0.601 -1.0026  1.8590  0.2516
  517MOL0     H68194  -1.171   4.077   0.665 -1.4944 -1.3861  1.6628
  517MOL0     H68195  -1.395   4.129   0.615 -0.9591  1.5340 -0.1582
  517MOL0     H68196  -1.374   4.293   0.668  1.8201 -0.0205 -0.6015
  517MOL0     H68197  -1.431   4.362   0.893 -1.8631  1.0717  2.5893
  517MOL0     H68198  -1.702   4.178   1.119  1.8987 -1.1862  0.8897
  517MOL0     H68199  -1.693   4.342   1.049 -1.8073 -1.2623  0.3426
  517MOL0     H68200  -1.512   4.417   1.192 -1.2594  0.8766 -4.0426
  517MOL0     H68201  -1.509   4.265   1.272  1.4127  1.0512 -0.8744
  517MOL0     H68202  -1.631   4.383   1.422 -1.0983 -0.2889  0.1370
  517MOL0     H68203  -1.696   4.477   1.293 -0.9897  0.0391  0.3077
  517MOL0     H68204  -1.873   4.316   1.267 -2.3835 -1.5387  2.1953
  517MOL0     H68205  -1.861   4.323   1.428  0.4100  5.0111 -1.9078
  517MOL0     H68206  -1.655   4.043   1.553  0.0842 -2.7251 -0.6861
  517MOL0     H68207  -1.762   3.997   1.767  1.2412 -1.8656 -0.7091
  517MOL0     H68208  -1.877   3.727   2.040 -0.3202 -0.0737 -0.5856
  517MOL0     H68209  -1.975   3.670   2.286 -2.1666  0.0702  1.1839
  517MOL0     H68210  -2.156   3.657   2.456  0.6386  0.0197 -0.1742
  517MOL0     H68211  -2.264   3.721   2.341  0.9140  2.3708 -1.0289
  517MOL0     H68212  -2.376   3.686   2.552  4.0903 -3.6095  0.2725
  517MOL0     H68213  -2.383   3.860   2.492  1.0020  0.5060 -1.3453
  517MOL0     H68214  -2.184   3.877   2.646 -0.3499  0.3170  1.8923
  517MOL0     H68215  -2.198   3.729   2.713 -0.0804  0.3836 -0.0796
  517MOL0     H68216  -2.289   3.906   2.848 -2.4825  2.4083  1.1018
  517MOL0     H68217  -2.420   3.939   2.740  1.6672  1.3865  2.1451
  517MOL0     H68218  -2.391   3.659   2.837  2.2470  1.1000  0.7136
  517MOL0     H68219  -2.531   3.740   2.774  2.3978  1.9844 -3.8901
  517MOL0     H68220  -2.525   3.896   2.990 -2.4968 -1.7800  2.7438
  517MOL0     H68221  -2.383   3.805   3.039  0.9147 -2.2941 -1.3903
  517MOL0     H68222  -2.664   3.693   3.015  0.7782 -1.5929 -0.5663
  517MOL0     H68223  -2.510   3.598   3.033  1.0265  0.9924 -1.5876
  517MOL0     H68224  -2.618   3.793   3.242 -0.9909  1.1266 -2.6735
  517MOL0     H68225  -2.455   3.710   3.240 -0.7326 -0.3071  1.3043
  517MOL0     H68226  -2.155   4.064   2.276 -0.6012 -0.8101  0.9616
  517MOL0     H68227  -2.063   4.107   2.059  1.6377  1.1015 -0.3795
  517MOL0     H68228  -2.150   4.037   1.587 -0.1508  1.4383 -3.0647
  517MOL0     H68229  -2.039   4.108   1.382 -0.7578  3.6177  2.2125
  517MOL0     H68230  -0.253   4.380   1.172  1.6525  1.2452  3.0027
  517MOL0     H68231  -0.041   4.502   1.176 -1.3836 -1.5657  0.3009
  517MOL0     H68232   0.420   4.515   1.076 -0.0550 -0.2231 -1.9871
  517MOL0     H68233   0.636   4.659   1.067 -1.1860 -1.7231  0.4108
  517MOL0     H68234   0.605   5.022   1.140  0.4285  4.6496  0.3782
  517MOL0     H68235   0.612   5.106   0.983 -0.9518  1.3723  2.0178
  517MOL0     H68236   0.827   5.106   0.957 -1.8703  1.6105 -1.2376
  517MOL0     H68237   0.808   5.177   1.112  1.8295  0.4980 -2.7360
  517MOL0     H68238   0.900   4.887   1.065 -3.7216 -1.0528  0.6414
  517MOL0     H68239   0.854   4.938   1.215  0.2668 -0.1347 -0.2846
  517MOL0     H68240   1.025   5.146   1.170  1.8024 -0.5132 -1.0280
  517MOL0     H68241   1.084   4.992   1.222 -1.6813 -2.9509 -0.1299
  517MOL0     H68242   1.270   5.031   0.846 -0.2482  4.4142 -0.2779
  517MOL0     H68243   0.425   4.996   0.943  1.5352 -1.1160  1.9530
  517MOL0     H68244   0.201   4.852   0.931 -1.9706 -2.3745  3.1743
  518MOL0     O68245   1.866   4.989   4.908 -0.4446  0.0413 -0.8292
  518MOL0     C68246   1.831   4.971   4.795 -0.3755 -0.0175 -0.6677
  518MOL0     O68247   1.702   4.955   4.760 -0.5258 -0.7687  0.1417
  518MOL0     C68248   1.611   4.968   4.861  0.3625 -0.1228  0.1301
  518MOL0     C68249   1.584   5.073   4.948  0.2431 -0.5482 -0.0048
  518MOL0     C68250   1.489   5.061   5.057 -0.8279  0.1089 -0.3541
  518MOL0     C68251   1.417   4.942   5.066  0.2112  0.1711  0.2886
  518MOL0     O68252   1.335   4.916   5.169 -0.4022  0.1443 -0.4066
  518MOL0     C68253   1.230   4.822   5.166  0.5856  0.5614 -0.1627
  518MOL0     C68254   1.134   4.859   5.275  0.6766 -0.7825 -0.0426
  518MOL0     C68255   1.027   4.756   5.306 -0.3663  0.1978  0.8063
  518MOL0     C68256   0.942   4.779   5.432 -0.1446 -0.2966  0.7063
  518MOL0     C68257   0.806   4.707   5.434 -0.0162  0.2937  0.1003
  518MOL0     C68258   0.708   4.765   5.330  0.4129  0.2760 -0.2853
  518MOL0     C68259   0.645   4.896   5.372  0.0860 -0.0148  0.5328
  518MOL0     C68260   0.555   4.882   5.497 -0.6626  0.4291 -0.1428
  518MOL0     N68261   0.472   4.994   5.527  0.3501  0.7264  0.0361
  518MOL0     C68262   0.515   5.117   5.558  0.4964  0.4101  0.9528
  518MOL0     C68263   0.405   5.192   5.596  1.2255 -0.0275  0.1767
  518MOL0     C68264   0.399   5.318   5.678 -0.5346  0.9389  0.8207
  518MOL0     C68265   0.375   5.445   5.598 -0.4222  0.4881 -0.7749
  518MOL0     C68266   0.227   5.493   5.597  0.2463  1.1609  0.1128
  518MOL0     C68267   0.193   5.550   5.734  0.5134 -0.7894  1.3527
  518MOL0     O68268   0.051   5.570   5.759  0.7012  0.0793  0.0670
  518MOL0     C68269   0.013   5.642   5.869 -1.2250 -0.8174 -1.1799
  518MOL0     C68270   0.092   5.706   5.965 -0.0261 -0.1001 -0.1256
  518MOL0     C68271   0.040   5.784   6.051  0.5405  0.0708 -0.8304
  518MOL0     C68272  -0.098   5.815   6.055  0.0275 -0.2627 -0.4009
  518MOL0     C68273  -0.160   5.902   6.159 -0.7975 -1.6224  0.4318
  518MOL0     O68274  -0.065   5.961   6.246 -0.6977 -0.4988  1.2577
  518MOL0     C68275  -0.098   6.024   6.361 -0.1962 -0.5975 -1.0195
  518MOL0     C68276  -0.046   5.981   6.488 -0.4818 -0.0753 -0.2402
  518MOL0     C68277  -0.079   6.033   6.612  0.2881 -0.6144 -0.2753
  518MOL0     C68278  -0.169   6.141   6.614  0.4365 -0.8001  0.7881
  518MOL0     O68279  -0.185   6.234   6.716 -0.6646  0.1405 -0.6572
  518MOL0     C68280  -0.067   6.267   6.795  0.2675 -0.7097 -0.3724
  518MOL0     C68281  -0.076   6.225   6.948  1.0985 -0.2722 -0.1091
  518MOL0     C68282  -0.080   6.070   6.964  0.0667 -0.6284 -0.4315
  518MOL0     C68283  -0.102   6.027   7.109  0.1096  0.0354 -0.6074
  518MOL0     C68284   0.013   6.049   7.204  0.1210 -0.2248 -0.1533
  518MOL0     C68285  -0.032   5.997   7.344  0.4405  0.8579  0.1634
  518MOL0     C68286   0.058   6.046   7.455 -0.4870  0.7080  0.1721
  518MOL0     C68287  -0.004   6.002   7.585 -0.2185  0.2134  0.0824
  518MOL0    Cl68288   0.112   6.006   7.720 -0.0372 -0.2116  0.4746
  518MOL0     C68289  -0.229   6.186   6.489 -0.0856  0.3359  0.0842
  518MOL0     C68290  -0.196   6.124   6.366 -0.2207  0.0287  0.9832
  518MOL0     O68291  -0.289   5.924   6.167  0.3953  0.0496  0.5845
  518MOL0     C68292  -0.181   5.756   5.959 -0.1655  0.3264  0.1258
  518MOL0     C68293  -0.122   5.670   5.869  0.2939 -0.1020 -0.1463
  518MOL0     N68294   0.289   5.107   5.594  0.2077  0.8295  0.6541
  518MOL0     N68295   0.336   4.992   5.553 -0.1333 -0.3480 -0.0523
  518MOL0     C68296   1.438   4.848   4.966  0.3127  0.7122 -0.5490
  518MOL0     C68297   1.537   4.850   4.875  0.3051 -0.2979  0.2936
  518MOL0     C68298   1.941   4.940   4.700  0.2707  0.3536  0.1098
  518MOL0     C68299   2.072   4.983   4.724 -0.0088 -0.0045  0.0661
  518MOL0     C68300   2.171   4.963   4.627 -0.5179  0.1149 -1.1996
  518MOL0     C68301   2.146   4.889   4.513  0.3509  0.5638  0.3359
  518MOL0     O68302   2.237   4.851   4.417 -0.4960 -0.6904  0.0619
  518MOL0     C68303   2.380   4.883   4.419 -1.1662 -0.6840 -1.3149
  518MOL0     C68304   2.457   4.799   4.325 -1.0476  0.0464  0.5598
  518MOL0     C68305   2.401   4.834   4.179 -0.2626 -0.5133  1.2363
  518MOL0     C68306   2.468   4.733   4.078 -1.1200 -0.4360 -0.6542
  518MOL0     C68307   2.612   4.738   4.063 -0.1591  0.1479  0.6136
  518MOL0     C68308   2.732   4.724   4.037  0.5854  0.4584 -0.6381
  518MOL0     C68309   2.019   4.830   4.498 -0.0955 -0.0507  0.4054
  518MOL0     C68310   1.916   4.852   4.586  0.4224 -0.8441  0.0643
  518MOL0     H68311   1.632   5.168   4.929  0.4496 -0.9691 -1.7513
  518MOL0     H68312   1.492   5.137   5.134 -2.9008 -0.4165  0.2903
  518MOL0     H68313   1.273   4.722   5.177  0.7500  0.4731 -1.4168
  518MOL0     H68314   1.169   4.826   5.075 -1.2414 -1.0052  0.9109
  518MOL0     H68315   1.086   4.951   5.240  0.7801 -0.8532 -0.3697
  518MOL0     H68316   1.185   4.896   5.365 -3.9718  0.4139  2.4274
  518MOL0     H68317   1.079   4.660   5.304 -1.7427 -0.5512 -0.4342
  518MOL0     H68318   0.965   4.756   5.216 -1.6963 -0.5983  1.6908
  518MOL0     H68319   1.000   4.740   5.516  0.7050 -1.5371 -0.4102
  518MOL0     H68320   0.921   4.886   5.439  3.5013  1.2309 -4.7676
  518MOL0     H68321   0.773   4.724   5.537  0.7679 -0.9817  0.6004
  518MOL0     H68322   0.822   4.600   5.415 -0.0086 -0.3517  3.2300
  518MOL0     H68323   0.631   4.691   5.304  1.7147 -1.9529  1.7794
  518MOL0     H68324   0.760   4.788   5.237  1.9788 -2.1718 -0.1071
  518MOL0     H68325   0.716   4.978   5.387 -1.7864  1.4368  1.9607
  518MOL0     H68326   0.583   4.919   5.285 -2.8591 -3.5481  1.4598
  518MOL0     H68327   0.616   4.862   5.585  1.7700 -1.3148 -2.0809
  518MOL0     H68328   0.489   4.796   5.480  1.6011 -1.5767  0.6491
  518MOL0     H68329   0.617   5.150   5.570 -0.1183  1.6457  3.4615
  518MOL0     H68330   0.495   5.327   5.728 -0.0419  2.4926 -0.3236
  518MOL0     H68331   0.328   5.304   5.760 -2.3247 -1.1475 -0.9352
  518MOL0     H68332   0.405   5.420   5.496  0.7668 -0.2532 -0.2675
  518MOL0     H68333   0.445   5.523   5.630  0.5525 -0.7663  0.2609
  518MOL0     H68334   0.209   5.569   5.521  1.0628 -0.2744 -1.5910
  518MOL0     H68335   0.173   5.402   5.568  4.0984 -1.1358 -0.5765
  518MOL0     H68336   0.252   5.642   5.738 -1.3929  0.6532 -1.1256
  518MOL0     H68337   0.236   5.480   5.806  1.1183 -0.2980  1.4726
  518MOL0     H68338   0.199   5.688   5.970 -0.1097 -0.6165 -0.1265
  518MOL0     H68339   0.110   5.831   6.119  1.0835 -2.1036  0.1950
  518MOL0     H68340   0.018   5.894   6.477  0.8405  0.7892  0.4261
  518MOL0     H68341  -0.034   5.994   6.703 -1.9786 -1.1931  0.6515
  518MOL0     H68342  -0.038   6.372   6.784  0.8508 -0.6789  1.1989
  518MOL0     H68343   0.021   6.209   6.765 -0.7779 -1.0902 -2.8956
  518MOL0     H68344  -0.175   6.252   6.985 -1.1192 -2.6553 -3.6589
  518MOL0     H68345   0.010   6.268   7.001  0.6287 -0.8275  1.1374
  518MOL0     H68346   0.006   6.020   6.920 -1.7123 -3.0644 -1.3639
  518MOL0     H68347  -0.162   6.021   6.910 -2.3150  0.0373  2.3534
  518MOL0     H68348  -0.191   6.072   7.154 -0.3338  0.7815 -2.1474
  518MOL0     H68349  -0.116   5.918   7.105  0.7474 -0.0313 -1.5173
  518MOL0     H68350   0.025   6.156   7.223 -2.3449 -0.0911  1.0566
  518MOL0     H68351   0.100   6.002   7.158 -1.3722 -1.8753 -1.4580
  518MOL0     H68352  -0.022   5.888   7.347  2.0736  0.8489 -2.4750
  518MOL0     H68353  -0.136   6.028   7.360 -0.1535 -1.2074  0.5436
  518MOL0     H68354   0.153   5.994   7.440 -1.1755 -0.2260 -1.1708
  518MOL0     H68355   0.052   6.155   7.460  0.2451  0.7743 -0.2108
  518MOL0     H68356  -0.034   5.898   7.596 -2.6855  0.8316 -0.2191
  518MOL0     H68357  -0.096   6.060   7.603  0.5354  0.8658  2.0910
  518MOL0     H68358  -0.300   6.268   6.487 -1.7514 -0.9173  2.7771
  518MOL0     H68359  -0.234   6.173   6.276  1.7384 -0.3842 -0.1297
  518MOL0     H68360  -0.287   5.774   5.966 -0.1910 -0.2384  1.8429
  518MOL0     H68361  -0.193   5.630   5.797  0.2699  0.0730 -0.2208
  518MOL0     H68362   1.385   4.753   4.963  2.5234 -0.5801 -1.1626
  518MOL0     H68363   1.572   4.762   4.822  0.7853 -0.2436  0.5115
  518MOL0     H68364   2.096   5.036   4.817 -1.3962  0.8048 -0.0114
  518MOL0     H68365   2.268   5.004   4.653 -1.7231  0.6075  3.5593
  518MOL0     H68366   2.412   4.869   4.522  1.3650  1.9899 -1.5922
  518MOL0     H68367   2.401   4.990   4.406 -1.4956 -0.2852  1.0996
  518MOL0     H68368   2.565   4.816   4.324 -1.2710  1.9343 -1.5530
  518MOL0     H68369   2.436   4.697   4.356  4.6125 -1.1678  1.4422
  518MOL0     H68370   2.429   4.934   4.146  2.2882 -2.1810 -2.4030
  518MOL0     H68371   2.292   4.825   4.185 -0.3126 -0.0505  1.0714
  518MOL0     H68372   2.455   4.625   4.083 -0.6018 -0.6233 -2.5797
  518MOL0     H68373   2.419   4.749   3.981 -0.8889  1.6526 -0.4772
  518MOL0     H68374   2.838   4.714   4.034  0.3195 -3.8125 -1.3997
  518MOL0     H68375   2.000   4.769   4.410  3.0645 -0.9177  0.2169
  518MOL0     H68376   1.820   4.804   4.570  0.6042 -2.1821  2.5072
  519MOL0     O68377   8.336   1.018   1.843  0.7559 -0.3254  1.0549
  519MOL0     C68378   8.361   0.958   1.940  0.4313  0.3199  0.4330
  519MOL0     O68379   8.271   0.903   2.035 -0.0797 -0.3953 -0.1626
  519MOL0     C68380   8.146   0.933   2.021  0.2070 -0.3850  0.6249
  519MOL0     C68381   8.085   1.021   2.115 -0.4417  0.4102  0.5952
  519MOL0     C68382   7.948   1.061   2.082 -1.0746 -0.2978 -0.1135
  519MOL0     C68383   7.879   1.015   1.963 -0.1849  0.4352  0.2903
  519MOL0     O68384   7.749   1.049   1.926  0.3393 -0.0726  0.5440
  519MOL0     C68385   7.658   1.133   1.998  0.7208 -0.3358  0.4353
  519MOL0     C68386   7.527   1.176   1.933 -0.1674 -0.9922 -0.8199
  519MOL0     C68387   7.434   1.049   1.926 -0.0371  0.6471  0.0346
  519MOL0     C68388   7.308   1.091   1.832 -1.5848 -0.1236  0.0176
  519MOL0     C68389   7.244   0.968   1.773  0.3593  0.3676  0.7585
  519MOL0     C68390   7.156   0.977   1.646 -0.0225  0.4543 -0.3018
  519MOL0     C68391   7.105   0.852   1.599  0.4057 -0.0980  0.2006
  519MOL0     C68392   7.025   0.871   1.469 -0.7109 -0.0908  0.0019
  519MOL0     N68393   6.975   0.742   1.417 -0.6039  0.4799 -0.8706
  519MOL0     C68394   7.031   0.673   1.320  0.2063 -0.3265 -0.4415
  519MOL0     C68395   6.936   0.583   1.277  0.5882 -0.2599 -1.2043
  519MOL0     C68396   6.950   0.497   1.164 -0.1857  1.2142  0.2935
  519MOL0     C68397   7.073   0.414   1.171 -0.0240  0.1365  0.5362
  519MOL0     C68398   7.077   0.283   1.090 -0.1805 -0.0985  1.0995
  519MOL0     C68399   7.108   0.286   0.934 -0.0189  0.0913 -0.2585
  519MOL0     O68400   7.233   0.346   0.921 -0.0015 -0.2083 -0.3431
  519MOL0     C68401   7.341   0.267   0.920  0.3713  0.1449 -0.4682
  519MOL0     C68402   7.360   0.184   0.817  0.5235 -0.3549  0.2058
  519MOL0     C68403   7.451   0.072   0.824 -0.8605 -1.0630 -0.3377
  519MOL0     C68404   7.531   0.054   0.937  0.8789  0.5128 -0.3562
  519MOL0     C68405   7.634  -0.055   0.936  1.0102  0.4949  0.7198
  519MOL0     O68406   7.651  -0.126   0.821  0.2768  0.5594  0.3119
  519MOL0     C68407   7.753  -0.214   0.823 -0.5716  0.3030  0.0058
  519MOL0     C68408   7.862  -0.204   0.730 -1.0528 -0.1693  0.0864
  519MOL0     C68409   7.971  -0.298   0.734  0.6045  0.7683 -0.3475
  519MOL0     C68410   7.953  -0.419   0.811 -0.0769  1.4029 -0.4388
  519MOL0     O68411   8.036  -0.534   0.798 -0.3410 -0.5101  0.1812
  519MOL0     C68412   8.145  -0.528   0.705 -0.2769  0.0923  0.5552
  519MOL0     C68413   8.213  -0.651   0.668  1.0246  0.9252 -0.0290
  519MOL0     C68414   8.103  -0.736   0.590 -0.1709  1.4727  0.1866
  519MOL0     C68415   8.152  -0.887   0.562  0.2406  0.0992 -0.1405
  519MOL0     C68416   8.247  -0.898   0.437 -0.3881  1.2031  0.3264
  519MOL0     C68417   8.262  -1.039   0.392 -0.4451 -0.0494  0.3698
  519MOL0     C68418   8.358  -1.061   0.269  0.0606  0.2291 -0.2736
  519MOL0     C68419   8.350  -1.205   0.226  0.3200  0.3623 -0.0788
  519MOL0    Cl68420   8.388  -1.330   0.353  0.5130 -0.2342 -0.5126
  519MOL0     C68421   7.843  -0.439   0.891 -0.3652 -0.9475 -0.4382
  519MOL0     C68422   7.753  -0.328   0.913 -0.8612  0.7115  1.1068
  519MOL0     O68423   7.695  -0.063   1.039  0.4898  0.5552  0.1106
  519MOL0     C68424   7.509   0.148   1.036 -0.3047  0.1554 -0.4681
  519MOL0     C68425   7.416   0.253   1.035  0.5180 -0.0407 -0.6752
  519MOL0     N68426   6.822   0.602   1.350  0.1084  0.0920 -0.1087
  519MOL0     N68427   6.850   0.700   1.432  0.5291  0.8351 -0.0628
  519MOL0     C68428   7.947   0.938   1.883 -0.7227  0.2355  1.0046
  519MOL0     C68429   8.076   0.894   1.908 -0.8196  0.4338 -0.7016
  519MOL0     C68430   8.502   0.929   1.975 -0.0706  0.5849  0.3681
  519MOL0     C68431   8.547   0.853   2.084 -0.1833  0.7113  0.3603
  519MOL0     C68432   8.675   0.848   2.128 -0.2303 -0.1829  0.8883
  519MOL0     C68433   8.778   0.922   2.057  0.9806  0.7120 -0.1325
  519MOL0     O68434   8.912   0.927   2.082  0.1629 -0.5278 -0.2447
  519MOL0     C68435   8.948   0.932   2.220 -0.8132  0.0240 -0.2897
  519MOL0     C68436   9.100   0.938   2.217 -0.8443 -0.0897 -0.0974
  519MOL0     C68437   9.170   0.882   2.349  0.3300 -0.3669  0.3933
  519MOL0     C68438   9.326   0.857   2.334  0.0172  0.3536 -0.1637
  519MOL0     C68439   9.395   0.986   2.326  1.1466 -0.4046 -0.1104
  519MOL0     C68440   9.452   1.097   2.330  0.2167  0.5439  0.1046
  519MOL0     C68441   8.741   0.980   1.943  0.7566  0.0122 -0.2088
  519MOL0     C68442   8.607   0.991   1.898 -0.6712  0.0835  0.8345
  519MOL0     H68443   8.137   1.056   2.203 -0.0168  1.3521 -0.0151
  519MOL0     H68444   7.898   1.129   2.150 -1.9774  2.1555 -2.9868
  519MOL0     H68445   7.719   1.218   2.029  2.4649 -2.1485  2.3052
  519MOL0     H68446   7.626   1.073   2.084 -1.3000 -1.0151 -0.7059
  519MOL0     H68447   7.558   1.223   1.839  5.4013  1.5799  1.8088
  519MOL0     H68448   7.473   1.237   2.006  1.5202 -0.7985  0.3213
  519MOL0     H68449   7.412   1.009   2.025  1.1759  0.5998  0.3105
  519MOL0     H68450   7.487   0.966   1.878  0.5048 -0.5882  2.6119
  519MOL0     H68451   7.239   1.140   1.901 -1.5498 -0.4824  0.3135
  519MOL0     H68452   7.332   1.161   1.752 -0.1894 -0.5903 -0.0042
  519MOL0     H68453   7.188   0.915   1.851 -4.7750 -0.1227 -2.7032
  519MOL0     H68454   7.327   0.900   1.756 -0.5610 -0.5997 -0.0292
  519MOL0     H68455   7.213   1.015   1.561 -1.3666  1.3982 -0.8258
  519MOL0     H68456   7.074   1.047   1.662 -0.3418  0.6363 -2.4402
  519MOL0     H68457   7.194   0.792   1.576  1.0907  1.1494 -0.5018
  519MOL0     H68458   7.046   0.803   1.677 -0.8314 -0.3198 -0.8437
  519MOL0     H68459   7.078   0.919   1.385  4.2328 -1.6582  1.8396
  519MOL0     H68460   6.947   0.938   1.504  1.2591  1.0607  2.5017
  519MOL0     H68461   7.126   0.688   1.269 -0.1719 -2.3716 -1.8660
  519MOL0     H68462   6.959   0.551   1.069  1.1996  0.3903 -0.0701
  519MOL0     H68463   6.864   0.430   1.163  2.1516 -2.0069 -0.7778
  519MOL0     H68464   7.095   0.383   1.274 -2.5811 -0.1966  1.0551
  519MOL0     H68465   7.154   0.479   1.136  0.1286  0.4549  1.4397
  519MOL0     H68466   7.146   0.211   1.136 -3.0882 -3.1898  0.9774
  519MOL0     H68467   6.982   0.231   1.104 -0.1709  0.1173  2.0062
  519MOL0     H68468   7.035   0.361   0.901 -0.1351  2.4726  4.4608
  519MOL0     H68469   7.094   0.193   0.879  1.4673 -0.0518 -0.4206
  519MOL0     H68470   7.283   0.184   0.740 -1.5742  2.3564  2.1087
  519MOL0     H68471   7.441  -0.002   0.745 -0.0273 -1.1543 -0.3696
  519MOL0     H68472   7.873  -0.122   0.661 -4.1314  0.5445  0.2797
  519MOL0     H68473   8.046  -0.284   0.657 -0.2498  2.1068 -0.9722
  519MOL0     H68474   8.227  -0.472   0.752 -0.2645 -3.1870  5.1028
  519MOL0     H68475   8.110  -0.481   0.613 -2.0069  0.6170  1.4358
  519MOL0     H68476   8.243  -0.703   0.759  3.4015  0.1697 -1.1463
  519MOL0     H68477   8.293  -0.631   0.595 -0.5834 -0.1288 -2.1972
  519MOL0     H68478   8.063  -0.679   0.506 -3.0942  1.3292  1.3570
  519MOL0     H68479   8.021  -0.740   0.662 -0.4644  2.0146 -0.1080
  519MOL0     H68480   8.198  -0.916   0.657 -1.0219  0.7495  0.6955
  519MOL0     H68481   8.063  -0.950   0.564 -0.5661  1.2038 -0.1202
  519MOL0     H68482   8.349  -0.864   0.456  1.3062 -2.6505 -0.7446
  519MOL0     H68483   8.195  -0.841   0.359 -2.8812 -3.9012 -2.2642
  519MOL0     H68484   8.166  -1.086   0.372 -0.1655 -0.7106  0.5575
  519MOL0     H68485   8.302  -1.081   0.485 -1.4655  0.0381  0.8593
  519MOL0     H68486   8.305  -1.000   0.195 -4.5373  1.5820  3.6441
  519MOL0     H68487   8.466  -1.047   0.279  0.4628 -3.3029  1.8165
  519MOL0     H68488   8.422  -1.230   0.148 -0.2526 -3.1751  0.3356
  519MOL0     H68489   8.248  -1.221   0.188 -0.9582 -0.7126  3.3919
  519MOL0     H68490   7.829  -0.525   0.956 -1.8434 -1.8548 -1.8691
  519MOL0     H68491   7.674  -0.344   0.985 -2.2822 -0.3580 -0.6001
  519MOL0     H68492   7.551   0.137   1.135  1.9469 -0.9292 -1.4858
  519MOL0     H68493   7.406   0.313   1.125  0.2998  1.1428 -1.4742
  519MOL0     H68494   7.893   0.909   1.793 -2.4540  1.1769  1.7075
  519MOL0     H68495   8.111   0.808   1.851  0.6988 -0.7808  1.9073
  519MOL0     H68496   8.466   0.822   2.150 -0.5214  5.0266  2.2781
  519MOL0     H68497   8.690   0.798   2.223 -1.4309 -4.6231 -1.0195
  519MOL0     H68498   8.931   0.841   2.278  1.9427 -0.3742  0.0222
  519MOL0     H68499   8.897   1.014   2.272  4.6454  3.0930  0.9858
  519MOL0     H68500   9.147   0.883   2.135 -1.0884  0.3883 -0.5619
  519MOL0     H68501   9.132   1.042   2.212 -2.6402  0.5088  0.1306
  519MOL0     H68502   9.114   0.792   2.375 -1.8605  1.2723  1.7062
  519MOL0     H68503   9.157   0.956   2.429  0.9565  0.4839 -0.2733
  519MOL0     H68504   9.370   0.797   2.415  1.8738  0.9913 -0.6411
  519MOL0     H68505   9.349   0.804   2.241  1.0844  0.4902  0.0042
  519MOL0     H68506   9.511   1.185   2.319  0.8582 -0.0288 -1.2784
  519MOL0     H68507   8.814   1.028   1.878 -1.1488  2.8825 -0.4032
  519MOL0     H68508   8.578   1.045   1.808  1.8932  0.9811  0.4751
  520MOL0     O68509   9.740   2.306   3.228  0.3596 -0.3014 -0.5945
  520MOL0     C68510   9.810   2.374   3.146  0.1981  1.1319  0.1755
  520MOL0     O68511   9.757   2.443   3.037  0.0755  0.4498 -0.5454
  520MOL0     C68512   9.629   2.432   2.995  0.3475 -0.7270 -0.1421
  520MOL0     C68513   9.552   2.538   2.944 -0.6272 -0.1641 -0.7399
  520MOL0     C68514   9.428   2.537   2.895 -1.0993  0.6968  0.5970
  520MOL0     C68515   9.358   2.411   2.906  0.6501 -0.8062 -0.8805
  520MOL0     O68516   9.224   2.412   2.870  0.4353 -0.3675 -0.6664
  520MOL0     C68517   9.176   2.490   2.755  0.3106 -0.0537  1.4910
  520MOL0     C68518   9.034   2.449   2.719 -0.3839 -0.0181  0.5629
  520MOL0     C68519   9.001   2.497   2.568  0.9877 -0.4408 -0.6014
  520MOL0     C68520   8.860   2.453   2.534 -0.2148 -0.9229  0.0453
  520MOL0     C68521   8.789   2.569   2.472 -0.2994  0.1978  0.6740
  520MOL0     C68522   8.643   2.536   2.445 -0.7395 -0.3237  0.0781
  520MOL0     C68523   8.579   2.645   2.361 -0.1615  1.1970  0.4365
  520MOL0     C68524   8.429   2.626   2.328 -0.3922  0.3521 -0.2504
  520MOL0     N68525   8.354   2.729   2.242 -0.4051 -0.8200  0.1330
  520MOL0     C68526   8.370   2.725   2.107  0.5751 -0.4522 -0.0733
  520MOL0     C68527   8.349   2.857   2.065  0.5428 -0.7683 -0.2287
  520MOL0     C68528   8.359   2.911   1.930  0.8635  0.3864  0.0209
  520MOL0     C68529   8.230   2.975   1.894  0.0030 -0.2375  1.1660
  520MOL0     C68530   8.114   2.875   1.861 -0.2893  0.8009  0.1143
  520MOL0     C68531   8.138   2.791   1.728  0.3936 -0.1219  0.1376
  520MOL0     O68532   8.117   2.868   1.611 -0.0585 -0.1115 -0.4512
  520MOL0     C68533   8.003   2.947   1.602 -1.0330  1.4585 -0.1252
  520MOL0     C68534   7.884   2.914   1.652  0.6910  0.0690  0.2827
  520MOL0     C68535   7.779   3.004   1.645 -0.8759 -0.7107  0.0689
  520MOL0     C68536   7.792   3.124   1.572  0.0208 -0.0498 -0.3357
  520MOL0     C68537   7.683   3.218   1.549 -0.1299  0.3977 -0.7012
  520MOL0     O68538   7.707   3.304   1.449  0.2253 -0.8064  0.7722
  520MOL0     C68539   7.585   3.359   1.398 -0.8564  0.9127 -0.1144
  520MOL0     C68540   7.506   3.291   1.306 -0.1135 -0.7006  0.6558
  520MOL0     C68541   7.378   3.339   1.280 -0.3725  0.4508  0.8791
  520MOL0     C68542   7.325   3.453   1.337 -0.3415  0.2084  0.1844
  520MOL0     O68543   7.195   3.499   1.323 -0.1156  0.4078 -0.7742
  520MOL0     C68544   7.106   3.422   1.238  0.2371  0.4816  0.8060
  520MOL0     C68545   6.965   3.487   1.247  0.3707 -0.4224 -0.4909
  520MOL0     C68546   6.911   3.472   1.389  0.2022 -0.3903 -0.0561
  520MOL0     C68547   6.769   3.514   1.401  0.7260  0.0241 -0.0470
  520MOL0     C68548   6.717   3.524   1.554  0.1779  0.6545 -0.0163
  520MOL0     C68549   6.705   3.379   1.611 -0.1135 -0.2261 -1.1065
  520MOL0     C68550   6.605   3.391   1.735  0.6725  1.4355 -0.3113
  520MOL0     C68551   6.564   3.252   1.789  0.1848  0.3728 -0.2057
  520MOL0    Cl68552   6.445   3.164   1.680  0.0640 -0.5246  0.2076
  520MOL0     C68553   7.406   3.526   1.426 -0.0333  0.1484  0.7162
  520MOL0     C68554   7.538   3.474   1.463  0.0439 -0.5687 -0.2493
  520MOL0     O68555   7.587   3.218   1.622 -0.1857  0.3816 -0.1294
  520MOL0     C68556   7.923   3.160   1.523  0.4963  0.1578 -0.3776
  520MOL0     C68557   8.027   3.073   1.548 -0.3535  0.8176  0.1787
  520MOL0     N68558   8.311   2.931   2.177 -0.3348 -0.2853  0.3705
  520MOL0     N68559   8.325   2.855   2.280  0.1970 -0.3313  0.9321
  520MOL0     C68560   9.423   2.307   2.973  0.0140  0.3198 -0.7903
  520MOL0     C68561   9.556   2.315   3.007 -1.2241  0.4512  0.8456
  520MOL0     C68562   9.955   2.383   3.167  0.8665  0.0602  0.4594
  520MOL0     C68563  10.038   2.458   3.078  0.3646  0.1029 -0.2077
  520MOL0     C68564  10.177   2.470   3.102 -0.0146  0.0432 -1.1298
  520MOL0     C68565  10.236   2.414   3.225  0.6755  1.1323 -0.1802
  520MOL0     O68566  10.368   2.423   3.257  0.8510 -0.1105  0.1731
  520MOL0     C68567  10.452   2.433   3.136  0.5268 -0.6904 -1.3273
  520MOL0     C68568  10.588   2.406   3.172  0.5294  1.1631  0.5436
  520MOL0     C68569  10.606   2.272   3.252 -0.0167 -0.3932 -0.3831
  520MOL0     C68570  10.759   2.256   3.263  0.6193 -0.7352 -0.0907
  520MOL0     C68571  10.789   2.134   3.334 -0.1934  0.1024  0.4764
  520MOL0     C68572  10.822   2.036   3.392 -0.0861  0.6188  0.5582
  520MOL0     C68573  10.155   2.348   3.316  0.6564  0.8745  0.3701
  520MOL0     C68574  10.018   2.334   3.280 -0.8079  0.4049 -0.7859
  520MOL0     H68575   9.592   2.639   2.940 -4.2200  1.4397 -0.2658
  520MOL0     H68576   9.390   2.634   2.865 -1.0381  1.1011  1.8083
  520MOL0     H68577   9.253   2.481   2.677 -1.7916 -2.7104 -0.4823
  520MOL0     H68578   9.171   2.593   2.789  1.5535  0.9561 -1.1346
  520MOL0     H68579   8.966   2.496   2.791  1.3017  0.2352  2.0589
  520MOL0     H68580   9.021   2.341   2.728 -1.9617  0.1373  0.4371
  520MOL0     H68581   9.079   2.455   2.504  1.3766  1.4314 -1.4292
  520MOL0     H68582   9.009   2.606   2.565  2.4925 -0.4747  0.7640
  520MOL0     H68583   8.848   2.367   2.468 -0.5611 -0.8087 -0.0412
  520MOL0     H68584   8.799   2.434   2.622 -3.3995  1.0639 -1.5240
  520MOL0     H68585   8.829   2.584   2.371 -0.1799 -3.1661  0.0977
  520MOL0     H68586   8.798   2.661   2.532  0.2697  1.1186 -0.7606
  520MOL0     H68587   8.597   2.526   2.543  0.9357 -0.5441  0.8773
  520MOL0     H68588   8.635   2.445   2.385 -1.1622  0.4055 -1.0071
  520MOL0     H68589   8.583   2.737   2.420 -0.7622 -0.3214  3.0136
  520MOL0     H68590   8.636   2.652   2.268 -2.2920 -1.3403 -1.1915
  520MOL0     H68591   8.378   2.621   2.425  2.4437  1.9916  1.4477
  520MOL0     H68592   8.422   2.532   2.273 -0.4674  0.5120 -0.5127
  520MOL0     H68593   8.390   2.637   2.048  1.5037 -0.8501  0.8026
  520MOL0     H68594   8.386   2.836   1.856 -0.3228 -0.7429  0.6962
  520MOL0     H68595   8.436   2.989   1.919 -0.1150  1.5113  0.8673
  520MOL0     H68596   8.235   3.039   1.805 -0.1588  0.1384  1.4246
  520MOL0     H68597   8.211   3.048   1.973  1.2442  1.3482  0.0893
  520MOL0     H68598   8.096   2.813   1.949 -0.0770 -0.8897 -0.9938
  520MOL0     H68599   8.018   2.928   1.862 -0.7293  0.2545  4.4838
  520MOL0     H68600   8.088   2.694   1.727  0.5028 -0.1904 -2.0332
  520MOL0     H68601   8.240   2.751   1.725  0.0256 -1.6771  3.4809
  520MOL0     H68602   7.862   2.814   1.688 -2.4911  0.2857 -0.7701
  520MOL0     H68603   7.686   2.991   1.699 -0.0189  0.4544  1.9224
  520MOL0     H68604   7.540   3.202   1.255  3.9341  1.6043 -1.2222
  520MOL0     H68605   7.306   3.287   1.218 -0.9191  0.8776  1.1435
  520MOL0     H68606   7.089   3.317   1.264  1.3799  1.0784  4.6951
  520MOL0     H68607   7.136   3.417   1.133  0.9020 -2.9384  1.0314
  520MOL0     H68608   6.904   3.440   1.169  0.5595 -1.5624  0.0400
  520MOL0     H68609   6.976   3.595   1.229 -0.1173  0.0590  1.8011
  520MOL0     H68610   6.965   3.527   1.466  2.1786 -1.4863 -0.6068
  520MOL0     H68611   6.920   3.369   1.424  2.6173 -0.3404 -0.4032
  520MOL0     H68612   6.757   3.617   1.367  2.4732  0.8485  1.6051
  520MOL0     H68613   6.706   3.454   1.336 -1.9673  0.9285  1.5744
  520MOL0     H68614   6.619   3.571   1.561 -0.6425 -0.8832 -0.5994
  520MOL0     H68615   6.788   3.582   1.613  1.6304 -1.3079  0.2850
  520MOL0     H68616   6.801   3.343   1.650  0.1276 -0.6391 -2.0461
  520MOL0     H68617   6.671   3.305   1.538  1.1565 -4.5243  2.2197
  520MOL0     H68618   6.650   3.443   1.820  3.6748  0.1097 -0.9749
  520MOL0     H68619   6.510   3.437   1.707 -2.6392 -1.9865  3.7137
  520MOL0     H68620   6.523   3.252   1.890 -2.0554 -1.1756 -1.0513
  520MOL0     H68621   6.654   3.190   1.788  0.7308  1.1374  0.5779
  520MOL0     H68622   7.351   3.614   1.458 -1.1317  0.7198 -2.4609
  520MOL0     H68623   7.607   3.517   1.535  0.1607 -2.0436  0.5557
  520MOL0     H68624   7.935   3.254   1.470 -0.0084  1.0580  1.0322
  520MOL0     H68625   8.128   3.084   1.509  1.3889 -1.8202  3.5044
  520MOL0     H68626   9.357   2.221   2.975 -0.8297  0.8459 -2.9333
  520MOL0     H68627   9.604   2.228   3.050 -1.8023  0.3860  1.3645
  520MOL0     H68628   9.992   2.523   3.003  3.6416  6.6919  2.6152
  520MOL0     H68629  10.246   2.515   3.032  0.1668  1.7467  0.0864
  520MOL0     H68630  10.446   2.534   3.094  1.1246 -1.4211 -3.2541
  520MOL0     H68631  10.419   2.366   3.056 -1.4901  1.6361 -2.5977
  520MOL0     H68632  10.636   2.397   3.075 -0.5905 -2.7771  0.1637
  520MOL0     H68633  10.621   2.489   3.235  0.0124  0.7610  1.3802
  520MOL0     H68634  10.570   2.184   3.198  1.4213 -0.2469 -1.6333
  520MOL0     H68635  10.551   2.269   3.347  0.5948 -3.5983 -0.0149
  520MOL0     H68636  10.815   2.245   3.170  3.1719  0.8661  1.1162
  520MOL0     H68637  10.797   2.348   3.309 -1.0335 -1.0457  2.0947
  520MOL0     H68638  10.843   1.944   3.443 -4.2558 -1.0521 -0.3773
  520MOL0     H68639  10.199   2.297   3.401  0.5619 -2.0251 -1.1895
  520MOL0     H68640   9.957   2.288   3.357 -0.8141 -0.6113 -1.3661
  521MOL0     O68641  10.488   9.191   0.932 -0.5465  0.4195 -0.2422
  521MOL0     C68642  10.441   9.097   1.001  0.7323 -0.7183 -0.8282
  521MOL0     O68643  10.444   9.082   1.139  0.2852  0.3096  0.3662
  521MOL0     C68644  10.482   9.185   1.215 -0.1328  0.4049 -0.6259
  521MOL0     C68645  10.386   9.279   1.266 -0.2474  0.1569 -0.7405
  521MOL0     C68646  10.438   9.397   1.331  0.1328  0.9471 -0.9159
  521MOL0     C68647  10.574   9.422   1.344 -0.3262 -0.4441 -0.1452
  521MOL0     O68648  10.630   9.539   1.399  0.2916 -0.0660 -0.0064
  521MOL0     C68649  10.584   9.663   1.346 -0.7553  0.5885  0.5818
  521MOL0     C68650  10.689   9.719   1.248  0.1145  0.2405 -0.4244
  521MOL0     C68651  10.800   9.785   1.324 -0.6705  0.4059  0.1015
  521MOL0     C68652  10.879   9.871   1.220 -0.0574  0.0820  0.1337
  521MOL0     C68653  10.994   9.960   1.281  0.6296  0.7398  0.4166
  521MOL0     C68654  11.050  10.048   1.163 -0.1004  0.1785 -1.3357
  521MOL0     C68655  11.117  10.170   1.243  1.2575  0.4405  0.8095
  521MOL0     C68656  11.191  10.259   1.143  0.1674  0.3795  0.2882
  521MOL0     N68657  11.094  10.352   1.074 -1.6216  0.0301 -0.1267
  521MOL0     C68658  11.069  10.479   1.126 -0.0628  0.8162 -0.8027
  521MOL0     C68659  10.970  10.522   1.038 -0.2251 -0.2845  0.2557
  521MOL0     C68660  10.899  10.657   1.026  0.0987 -0.6215  0.2329
  521MOL0     C68661  11.001  10.763   1.082  0.7791  1.2880 -1.0203
  521MOL0     C68662  10.954  10.907   1.077  0.2243 -1.1213  0.0175
  521MOL0     C68663  11.053  11.014   1.131 -0.2178 -1.0342 -0.3264
  521MOL0     O68664  11.170  11.000   1.053 -0.0234 -0.5889 -0.1956
  521MOL0     C68665  11.216  11.117   0.997  0.6550 -0.1788  0.1330
  521MOL0     C68666  11.283  11.103   0.879 -0.0387 -0.8282 -0.3172
  521MOL0     C68667  11.342  11.212   0.829  0.5960  0.4539 -0.7475
  521MOL0     C68668  11.342  11.337   0.890 -1.4412 -0.0406 -0.3014
  521MOL0     C68669  11.414  11.451   0.829  1.1251 -0.9558  0.0814
  521MOL0     O68670  11.447  11.441   0.696 -0.5722  0.0045 -0.0086
  521MOL0     C68671  11.521  11.541   0.640 -0.4451  1.1092  0.5140
  521MOL0     C68672  11.481  11.673   0.649  0.1411 -0.0241 -0.3035
  521MOL0     C68673  11.573  11.771   0.606  0.1210 -0.5953  0.4074
  521MOL0     C68674  11.696  11.740   0.547  0.9977 -0.9405  0.0930
  521MOL0     O68675  11.776  11.851   0.529 -0.0185  0.4817  0.5417
  521MOL0     C68676  11.903  11.833   0.462 -0.1089  0.4727 -0.0703
  521MOL0     C68677  11.991  11.955   0.434  0.5268  1.0266 -0.4249
  521MOL0     C68678  12.068  11.987   0.565 -0.0720  0.2548 -0.5193
  521MOL0     C68679  12.124  12.128   0.577 -0.2778  0.7455  0.0302
  521MOL0     C68680  12.145  12.187   0.723  0.0164 -0.2228  0.3999
  521MOL0     C68681  12.183  12.335   0.695  0.5531  0.2093  0.4667
  521MOL0     C68682  12.211  12.391   0.835 -0.0754 -0.2456 -0.5985
  521MOL0     C68683  12.280  12.537   0.822 -0.3056 -0.2816 -0.1652
  521MOL0    Cl68684  12.333  12.605   0.967 -0.0340  0.4417  0.6186
  521MOL0     C68685  11.730  11.605   0.536  0.0361 -0.2009 -0.6137
  521MOL0     C68686  11.644  11.511   0.584  0.4306 -0.7399 -0.8650
  521MOL0     O68687  11.423  11.549   0.899 -0.3257 -0.1037  0.0410
  521MOL0     C68688  11.276  11.347   1.018  0.1930  0.0531 -0.1817
  521MOL0     C68689  11.210  11.231   1.061  0.6927 -0.6075 -1.3085
  521MOL0     N68690  10.960  10.423   0.942 -0.5381 -1.0315  0.7021
  521MOL0     N68691  11.040  10.330   0.955 -0.3160  0.8240  0.0870
  521MOL0     C68692  10.659   9.329   1.299 -0.5191 -0.2268  0.2335
  521MOL0     C68693  10.624   9.206   1.238  0.0031  0.8523  0.2287
  521MOL0     C68694  10.381   8.986   0.920 -0.0874 -0.4335  0.4644
  521MOL0     C68695  10.384   8.853   0.966  0.5500  0.5393 -0.2601
  521MOL0     C68696  10.342   8.749   0.880 -0.3383  0.4978 -0.6037
  521MOL0     C68697  10.290   8.768   0.749 -0.1683 -1.7038  0.3623
  521MOL0     O68698  10.260   8.667   0.659 -0.0689 -0.7625 -0.0002
  521MOL0     C68699  10.136   8.685   0.582 -0.0129  0.4838  0.4641
  521MOL0     C68700  10.051   8.561   0.574 -0.4342  0.4591  0.7001
  521MOL0     C68701   9.966   8.536   0.707 -0.0575  0.1426  0.5374
  521MOL0     C68702   9.879   8.415   0.704  0.8475  0.2044  0.2934
  521MOL0     C68703   9.942   8.300   0.761  0.7914 -1.5233  0.1399
  521MOL0     C68704   9.991   8.206   0.818 -0.0692  0.1177  0.6233
  521MOL0     C68705  10.285   8.897   0.709 -0.0569  1.3276 -0.1707
  521MOL0     C68706  10.334   9.005   0.789  0.8076 -1.1452  0.7308
  521MOL0     H68707  10.282   9.287   1.238 -1.4352 -3.3525  1.8958
  521MOL0     H68708  10.376   9.470   1.382 -0.6374 -0.4749  0.2711
  521MOL0     H68709  10.580   9.743   1.420 -2.2793  0.7678  0.3492
  521MOL0     H68710  10.489   9.658   1.292  0.0471 -0.9713 -0.7929
  521MOL0     H68711  10.640   9.794   1.184  0.1858  1.9987  1.4940
  521MOL0     H68712  10.738   9.644   1.185 -0.3151 -0.2073 -0.2266
  521MOL0     H68713  10.864   9.707   1.365 -1.7996 -0.9592 -0.6294
  521MOL0     H68714  10.767   9.845   1.410  0.8825 -1.0836  1.8271
  521MOL0     H68715  10.926   9.798   1.154  0.9637 -1.5074  2.4532
  521MOL0     H68716  10.809   9.942   1.177 -0.9273 -0.4406  0.6497
  521MOL0     H68717  11.076   9.904   1.326 -0.6768 -0.5489  1.2811
  521MOL0     H68718  10.952  10.023   1.360 -1.7064  0.3936 -0.4918
  521MOL0     H68719  10.959  10.093   1.121 -0.5077  0.7583  0.0987
  521MOL0     H68720  11.122   9.994   1.102  3.9832  2.3345  1.1408
  521MOL0     H68721  11.047  10.234   1.298 -0.6879  1.3401 -2.4248
  521MOL0     H68722  11.190  10.127   1.312 -1.0760 -1.1125  2.4408
  521MOL0     H68723  11.247  10.192   1.079 -1.2126  1.0918 -1.7802
  521MOL0     H68724  11.267  10.311   1.203 -0.2071 -0.5883  1.6470
  521MOL0     H68725  11.111  10.535   1.208  2.8392 -2.7433  0.3874
  521MOL0     H68726  10.812  10.650   1.092 -1.2425 -2.1512 -1.5952
  521MOL0     H68727  10.873  10.690   0.925  3.4686  1.6930 -0.0389
  521MOL0     H68728  11.101  10.758   1.037  0.9302 -0.5848 -0.5334
  521MOL0     H68729  11.024  10.730   1.183 -1.3127  3.7834  0.4032
  521MOL0     H68730  10.942  10.937   0.972  2.3808  1.7603  0.4657
  521MOL0     H68731  10.857  10.932   1.122 -0.8779 -1.7921 -1.8526
  521MOL0     H68732  11.088  10.997   1.234 -0.2463  1.6541  0.1879
  521MOL0     H68733  11.021  11.118   1.130  5.1465  0.9476 -0.0450
  521MOL0     H68734  11.285  11.003   0.836  1.1658 -1.1169  0.3574
  521MOL0     H68735  11.399  11.185   0.741  0.0873 -0.2349 -0.8752
  521MOL0     H68736  11.395  11.717   0.697 -0.2662 -1.2974  0.1674
  521MOL0     H68737  11.546  11.876   0.620  0.8913  0.0184 -2.1744
  521MOL0     H68738  11.884  11.780   0.368 -0.3996 -1.5209  1.0623
  521MOL0     H68739  11.959  11.759   0.520  1.6698  1.5342 -0.3665
  521MOL0     H68740  11.927  12.039   0.406 -0.1686 -0.0360 -2.2231
  521MOL0     H68741  12.062  11.956   0.350 -0.6599  2.9250 -1.4709
  521MOL0     H68742  12.146  11.911   0.575 -0.6579 -0.6067 -2.0410
  521MOL0     H68743  12.003  11.980   0.652 -1.5151  1.4039 -1.4522
  521MOL0     H68744  12.221  12.111   0.530 -1.4408 -1.8586 -1.6165
  521MOL0     H68745  12.063  12.199   0.520 -1.3935  1.7504  2.3098
  521MOL0     H68746  12.224  12.133   0.776  1.0417  0.4005 -0.4539
  521MOL0     H68747  12.067  12.197   0.800  2.0671  4.2961  2.2636
  521MOL0     H68748  12.103  12.383   0.637  2.8906  1.8689 -1.6054
  521MOL0     H68749  12.279  12.346   0.645  1.4435 -0.3801  2.0123
  521MOL0     H68750  12.123  12.394   0.901 -0.6240  3.6675 -1.2891
  521MOL0     H68751  12.271  12.322   0.896 -2.4190 -1.7008  0.1904
  521MOL0     H68752  12.209  12.609   0.782 -1.5305 -1.5233 -0.3004
  521MOL0     H68753  12.363  12.528   0.751 -0.9037 -2.4700 -0.6590
  521MOL0     H68754  11.833  11.577   0.514  1.4272  1.2421  3.1654
  521MOL0     H68755  11.667  11.405   0.587  0.2999 -0.7622  1.3885
  521MOL0     H68756  11.259  11.441   1.071  0.5565  0.9411 -1.5826
  521MOL0     H68757  11.161  11.246   1.157  1.1140  1.2508 -1.3421
  521MOL0     H68758  10.766   9.349   1.302  0.1433 -3.3354  0.1818
  521MOL0     H68759  10.711   9.151   1.204 -0.6884 -0.8451  1.1127
  521MOL0     H68760  10.413   8.811   1.062 -0.0874 -0.8525 -0.6486
  521MOL0     H68761  10.352   8.643   0.900 -0.0591  0.6773  0.2527
  521MOL0     H68762  10.160   8.721   0.481  2.7158  2.4003  1.6855
  521MOL0     H68763  10.083   8.766   0.633  1.3661  1.4883  0.3502
  521MOL0     H68764   9.975   8.568   0.495 -0.7095 -1.3859  0.7506
  521MOL0     H68765  10.108   8.478   0.532  0.0994  0.9771  0.3830
  521MOL0     H68766   9.887   8.611   0.714 -0.5111 -0.2778 -0.0046
  521MOL0     H68767  10.020   8.553   0.801  2.3081  0.1808 -0.7643
  521MOL0     H68768   9.789   8.434   0.763 -1.3193  1.2922 -3.0846
  521MOL0     H68769   9.839   8.398   0.604 -1.5749 -0.2375  1.2883
  521MOL0     H68770  10.031   8.118   0.865  1.0581 -0.6200 -1.6088
  521MOL0     H68771  10.254   8.910   0.606 -1.2993  2.3651  0.3065
  521MOL0     H68772  10.327   9.108   0.757  1.0475 -0.5535  2.5137
  522MOL0     O68773  11.393   2.359   8.574 -0.6603 -0.1072 -0.4689
  522MOL0     C68774  11.517   2.382   8.581  0.8786  0.6459 -0.1226
  522MOL0     O68775  11.613   2.297   8.634  0.1892 -0.0345 -0.0112
  522MOL0     C68776  11.557   2.184   8.708 -1.3025  0.2323 -0.4892
  522MOL0     C68777  11.478   2.191   8.829 -0.5484  0.0503  0.6634
  522MOL0     C68778  11.445   2.084   8.909 -0.1521  0.1921 -0.3720
  522MOL0     C68779  11.488   1.955   8.860 -0.4296 -0.4529 -0.3232
  522MOL0     O68780  11.445   1.847   8.935  0.2601  0.1408  0.0624
  522MOL0     C68781  11.500   1.846   9.067  1.6878  0.4902  0.2356
  522MOL0     C68782  11.492   1.695   9.111 -0.1393  0.3165  0.0547
  522MOL0     C68783  11.578   1.594   9.025  0.8333  0.4003 -0.5105
  522MOL0     C68784  11.556   1.454   9.074  0.1858  1.0603  0.4001
  522MOL0     C68785  11.629   1.364   8.970 -0.1248 -0.3367  0.5374
  522MOL0     C68786  11.585   1.225   9.007 -0.2315 -0.5865 -0.1903
  522MOL0     C68787  11.623   1.127   8.901  0.0023  0.6643 -0.0152
  522MOL0     C68788  11.525   1.133   8.784  0.5884 -0.3184 -0.9828
  522MOL0     N68789  11.384   1.104   8.804  1.1397  0.3586 -0.2618
  522MOL0     C68790  11.335   0.979   8.839  1.4266 -0.7167 -0.3796
  522MOL0     C68791  11.202   0.990   8.811 -0.2417  0.3982  0.4434
  522MOL0     C68792  11.105   0.869   8.842  0.3175 -0.3194  0.4316
  522MOL0     C68793  11.100   0.821   8.988  0.2786 -0.6304  0.1852
  522MOL0     C68794  11.082   0.938   9.085 -0.8170 -0.6988 -0.0081
  522MOL0     C68795  10.976   1.047   9.056 -0.5493  0.3405  0.2265
  522MOL0     O68796  10.963   1.124   9.183 -0.3167  0.6171 -0.1319
  522MOL0     C68797  10.908   1.060   9.290  1.5060  0.1206 -0.3911
  522MOL0     C68798  10.805   0.969   9.282 -0.4121  0.5771 -0.5504
  522MOL0     C68799  10.745   0.905   9.394 -0.1540 -0.5445  0.6270
  522MOL0     C68800  10.784   0.946   9.519 -0.1065  0.3232 -0.4902
  522MOL0     C68801  10.709   0.877   9.634 -0.4774  0.0287 -0.2424
  522MOL0     O68802  10.725   0.937   9.748  0.4164 -0.7471 -0.1169
  522MOL0     C68803  10.647   0.907   9.859  0.7011  0.0135 -0.0369
  522MOL0     C68804  10.510   0.882   9.847 -0.4864  0.4092 -0.7417
  522MOL0     C68805  10.424   0.857   9.953 -0.4539 -0.2529 -0.4019
  522MOL0     C68806  10.492   0.851  10.083  0.2505 -0.9729  0.6570
  522MOL0     O68807  10.437   0.800  10.199 -0.1048 -0.2539  0.1123
  522MOL0     C68808  10.322   0.717  10.185  0.2117 -0.0140  1.1902
  522MOL0     C68809  10.319   0.632  10.311 -0.9447 -0.0542 -0.5190
  522MOL0     C68810  10.330   0.716  10.440 -0.1738  1.2436 -0.0268
  522MOL0     C68811  10.325   0.621  10.563  1.3049  0.3970 -0.7538
  522MOL0     C68812  10.179   0.601  10.615 -0.3579 -0.5581 -0.4229
  522MOL0     C68813  10.108   0.715  10.695  0.3590  0.4857 -0.2776
  522MOL0     C68814   9.961   0.679  10.713  0.4293 -1.1644 -0.0009
  522MOL0     C68815   9.939   0.540  10.754 -0.3020  0.8280 -0.7694
  522MOL0    Cl68816   9.763   0.490  10.780 -0.2496  0.1563 -0.2115
  522MOL0     C68817  10.628   0.877  10.097  0.8246 -0.8452 -0.9217
  522MOL0     C68818  10.700   0.923   9.982 -0.5067  0.4829  1.1745
  522MOL0     O68819  10.649   0.767   9.611 -0.3982  0.4477 -0.6127
  522MOL0     C68820  10.886   1.041   9.526  0.3768 -0.1148  0.5176
  522MOL0     C68821  10.932   1.108   9.415 -0.8593 -0.8068 -0.3086
  522MOL0     N68822  11.177   1.119   8.766 -0.4615  0.1576  0.1248
  522MOL0     N68823  11.283   1.193   8.767  0.2221  0.5776 -0.5643
  522MOL0     C68824  11.571   1.943   8.748  0.2243  0.4060 -0.0983
  522MOL0     C68825  11.600   2.058   8.675  0.3102 -0.8218  0.4079
  522MOL0     C68826  11.556   2.512   8.519  0.3134 -0.2361  0.1798
  522MOL0     C68827  11.469   2.597   8.436  0.0875  0.6866  0.2290
  522MOL0     C68828  11.500   2.732   8.405 -0.3133 -0.0562 -0.1749
  522MOL0     C68829  11.620   2.788   8.440  0.2058 -0.1268 -0.1265
  522MOL0     O68830  11.664   2.916   8.398  0.3792 -0.0965 -0.2655
  522MOL0     C68831  11.793   2.976   8.433  1.0522 -1.0602 -0.4601
  522MOL0     C68832  11.782   3.125   8.405  0.1138 -0.0674  0.4432
  522MOL0     C68833  11.920   3.184   8.466 -0.2171  0.0307 -0.6166
  522MOL0     C68834  11.905   3.338   8.489  0.0792  0.2545 -0.6974
  522MOL0     C68835  11.928   3.412   8.365  0.3838  0.3730 -0.9355
  522MOL0     C68836  11.930   3.458   8.249  0.1188 -0.1571  0.6942
  522MOL0     C68837  11.710   2.702   8.510 -1.0872  0.5906 -0.4104
  522MOL0     C68838  11.683   2.563   8.546  0.1815  0.0672  0.3333
  522MOL0     H68839  11.437   2.290   8.848  1.1824  0.5647  1.9089
  522MOL0     H68840  11.381   2.082   8.996 -0.2089 -2.1699 -0.4126
  522MOL0     H68841  11.427   1.898   9.129  0.4795  2.2582 -2.4882
  522MOL0     H68842  11.597   1.896   9.073  2.5293 -1.0567 -0.0408
  522MOL0     H68843  11.388   1.661   9.109 -0.7041  1.9752 -0.3642
  522MOL0     H68844  11.535   1.703   9.212 -2.4301  1.2431  1.0374
  522MOL0     H68845  11.684   1.620   9.013  0.3193  1.5796 -3.1570
  522MOL0     H68846  11.544   1.595   8.921  1.0682  1.3414 -0.5859
  522MOL0     H68847  11.594   1.455   9.176  0.4034  0.9755  0.3191
  522MOL0     H68848  11.449   1.429   9.068  0.1851  1.3021 -3.8859
  522MOL0     H68849  11.738   1.376   8.968 -0.3434  2.6362 -2.4560
  522MOL0     H68850  11.602   1.386   8.867  1.2838 -2.9047 -0.4605
  522MOL0     H68851  11.476   1.223   9.015 -0.1499  1.4844  3.1788
  522MOL0     H68852  11.622   1.189   9.103  1.9252  0.8438 -0.4230
  522MOL0     H68853  11.722   1.144   8.858 -0.5680 -2.9702 -3.4267
  522MOL0     H68854  11.630   1.026   8.942  1.0775  1.3025  1.4767
  522MOL0     H68855  11.555   1.077   8.695 -1.7447  0.0909 -2.1024
  522MOL0     H68856  11.529   1.235   8.745  1.6635 -0.6715 -1.8381
  522MOL0     H68857  11.391   0.900   8.888  0.6296  0.3605  2.4569
  522MOL0     H68858  11.139   0.796   8.768 -0.6166  1.9886 -2.5024
  522MOL0     H68859  11.003   0.903   8.820  1.8811  6.6878  1.7803
  522MOL0     H68860  11.191   0.763   9.004 -1.2799 -2.7568  1.9046
  522MOL0     H68861  11.016   0.753   9.004 -0.9259  0.7121 -0.1913
  522MOL0     H68862  11.070   0.895   9.185 -0.1143 -2.6798 -0.7335
  522MOL0     H68863  11.179   0.987   9.081 -1.0472 -0.3549 -1.9956
  522MOL0     H68864  10.879   1.012   9.020 -0.0791 -2.2428  1.2517
  522MOL0     H68865  11.019   1.101   8.971  0.2580 -2.0351 -0.9663
  522MOL0     H68866  10.776   0.932   9.185  0.5810  0.3882 -0.7813
  522MOL0     H68867  10.676   0.824   9.375 -1.5823 -0.0826  3.3715
  522MOL0     H68868  10.462   0.877   9.749  0.8837  1.3252 -1.5047
  522MOL0     H68869  10.319   0.835   9.936 -1.4407  2.3111  1.5773
  522MOL0     H68870  10.329   0.668  10.087  2.6595  1.6417  0.4542
  522MOL0     H68871  10.237   0.786  10.182  1.2113  1.2289  0.2075
  522MOL0     H68872  10.397   0.555  10.317  0.2365  0.6785 -4.0047
  522MOL0     H68873  10.221   0.583  10.304 -0.5278 -1.2888  1.5084
  522MOL0     H68874  10.267   0.805  10.453  2.4191  3.3696 -0.9856
  522MOL0     H68875  10.430   0.759  10.444  0.0452  0.7155  0.2701
  522MOL0     H68876  10.367   0.524  10.537  0.2565 -0.0033 -1.0071
  522MOL0     H68877  10.380   0.660  10.649 -1.0970  0.1684  0.9914
  522MOL0     H68878  10.194   0.512  10.677 -0.1465 -0.0369  0.2863
  522MOL0     H68879  10.111   0.588  10.530 -0.8176  4.1001 -1.0242
  522MOL0     H68880  10.121   0.810  10.643 -0.9020 -0.5536 -2.6949
  522MOL0     H68881  10.157   0.722  10.792  2.7882  0.9418 -1.4747
  522MOL0     H68882   9.927   0.735  10.801 -0.8986  0.3740 -1.4470
  522MOL0     H68883   9.905   0.713  10.626  0.9697 -0.6523 -0.1557
  522MOL0     H68884   9.999   0.511  10.841 -0.9249 -1.6637 -1.0758
  522MOL0     H68885   9.966   0.462  10.682  0.8489 -1.7198  2.1889
  522MOL0     H68886  10.682   0.863  10.190 -0.4175 -0.9855 -0.2099
  522MOL0     H68887  10.794   0.973  10.004  0.1945 -1.2621  2.3749
  522MOL0     H68888  10.910   1.074   9.626 -2.9176  1.1958  1.0066
  522MOL0     H68889  11.008   1.183   9.437 -1.4736 -1.0922  3.3004
  522MOL0     H68890  11.601   1.845   8.713 -0.0324 -0.8556  2.9506
  522MOL0     H68891  11.673   2.047   8.595  0.1922  2.7317 -0.3291
  522MOL0     H68892  11.373   2.555   8.406  0.4317 -1.3144  1.6703
  522MOL0     H68893  11.430   2.806   8.369  2.0564  3.1511  1.2775
  522MOL0     H68894  11.877   2.930   8.380  1.1841 -1.0874 -0.2261
  522MOL0     H68895  11.817   2.955   8.538  2.4228  0.5050 -0.4117
  522MOL0     H68896  11.782   3.131   8.296 -0.7787 -0.1405  0.4377
  522MOL0     H68897  11.693   3.155   8.461 -0.2791  0.3381 -0.3735
  522MOL0     H68898  12.005   3.161   8.401  1.0332 -2.1445  1.6014
  522MOL0     H68899  11.947   3.136   8.561 -1.7565 -3.3704 -1.7473
  522MOL0     H68900  11.808   3.349   8.539  0.2899 -2.9727  0.6228
  522MOL0     H68901  11.983   3.363   8.562 -0.4307 -2.4070  0.8977
  522MOL0     H68902  11.927   3.507   8.154 -0.4434 -0.1759  0.6987
  522MOL0     H68903  11.801   2.742   8.553 -1.4689 -2.1475  3.3948
  522MOL0     H68904  11.754   2.519   8.615  1.4211  0.9349 -0.3495
  523MOL0     O68905  10.791   7.399   3.000  0.0126 -0.2414  0.8451
  523MOL0     C68906  10.829   7.451   3.107 -0.0354  0.0477  0.1112
  523MOL0     O68907  10.773   7.424   3.232 -0.3542  0.2621  0.2791
  523MOL0     C68908  10.673   7.321   3.229  0.5026 -0.0403 -0.8228
  523MOL0     C68909  10.554   7.362   3.282 -0.3697  0.0692  0.1032
  523MOL0     C68910  10.445   7.275   3.302 -0.7679  0.1264 -0.1311
  523MOL0     C68911  10.458   7.139   3.249 -0.3565 -0.7048 -0.7801
  523MOL0     O68912  10.367   7.036   3.250 -0.3726 -1.2515 -0.3730
  523MOL0     C68913  10.262   7.049   3.347 -0.1819 -0.0073  0.6374
  523MOL0     C68914  10.153   6.958   3.301 -0.3984  0.0655  0.3303
  523MOL0     C68915  10.045   6.958   3.415  0.0124  0.3175  0.8867
  523MOL0     C68916   9.950   6.845   3.415  0.2706  0.6009 -0.7236
  523MOL0     C68917   9.877   6.832   3.280 -0.1253  0.0027  0.1618
  523MOL0     C68918   9.815   6.690   3.294 -0.4446 -0.8025 -0.0868
  523MOL0     C68919   9.712   6.671   3.175 -0.5414 -0.4707 -0.6247
  523MOL0     C68920   9.770   6.635   3.043  0.3144  0.9932  0.6618
  523MOL0     N68921   9.816   6.492   3.034  0.0054 -0.1243 -1.2240
  523MOL0     C68922   9.721   6.390   3.033  0.2412 -0.6147  0.7724
  523MOL0     C68923   9.803   6.279   3.010 -0.2772 -0.4111  0.2729
  523MOL0     C68924   9.766   6.132   2.991  0.2842 -0.2120 -0.0478
  523MOL0     C68925   9.615   6.120   2.957  0.3962 -0.5906  0.3581
  523MOL0     C68926   9.551   6.030   3.062  0.7948  0.5257 -0.2652
  523MOL0     C68927   9.398   6.035   3.075 -0.7346 -0.4419 -0.0949
  523MOL0     O68928   9.334   5.955   2.980  1.2889  0.0950  0.0179
  523MOL0     C68929   9.200   5.988   2.949 -0.6215 -0.3768 -1.1610
  523MOL0     C68930   9.143   5.917   2.842 -0.2891  0.9210 -0.3239
  523MOL0     C68931   9.020   5.940   2.793 -0.1653  0.3915  0.2923
  523MOL0     C68932   8.936   6.032   2.856  0.3163  0.2814 -0.6610
  523MOL0     C68933   8.795   6.052   2.806  0.2760  0.9223 -0.1344
  523MOL0     O68934   8.749   5.944   2.719 -0.5755 -0.4668  0.2787
  523MOL0     C68935   8.635   5.952   2.642 -0.4512  0.1752 -0.8365
  523MOL0     C68936   8.624   5.845   2.549  0.5368 -0.5307 -0.5643
  523MOL0     C68937   8.537   5.851   2.444 -0.2696  0.6711  0.1823
  523MOL0     C68938   8.446   5.956   2.440  0.2410  0.0597  0.5407
  523MOL0     O68939   8.358   5.976   2.335  0.2728 -0.6192  0.5748
  523MOL0     C68940   8.335   5.872   2.235 -0.9196  0.5556 -0.5846
  523MOL0     C68941   8.222   5.908   2.153  0.0392 -0.0009  0.0898
  523MOL0     C68942   8.115   5.982   2.232 -0.4849  0.6231  0.2150
  523MOL0     C68943   7.986   5.968   2.155  0.7905  0.2831  0.5493
  523MOL0     C68944   7.868   6.039   2.224  0.7684 -0.0231  0.4403
  523MOL0     C68945   7.744   6.024   2.142 -0.2225 -0.2324 -0.6027
  523MOL0     C68946   7.727   6.139   2.041  0.1665  0.0116 -0.5253
  523MOL0     C68947   7.600   6.130   1.967  0.2205  0.2597 -0.6291
  523MOL0    Cl68948   7.566   6.275   1.867 -0.2030  0.4745  0.6261
  523MOL0     C68949   8.448   6.055   2.533  0.5503 -0.0740 -0.5242
  523MOL0     C68950   8.541   6.059   2.639  0.6255  0.3804 -0.0167
  523MOL0     O68951   8.736   6.152   2.836  0.6508 -0.1766  0.0556
  523MOL0     C68952   8.975   6.099   2.974 -0.2240 -0.4953 -0.4345
  523MOL0     C68953   9.108   6.081   3.013 -0.6491 -0.2118  0.2175
  523MOL0     N68954   9.940   6.317   2.993  1.1218  0.9429 -0.5220
  523MOL0     N68955   9.939   6.443   3.008 -0.0400 -0.0405 -0.7095
  523MOL0     C68956  10.570   7.109   3.177  0.3779  0.5569 -0.6408
  523MOL0     C68957  10.681   7.199   3.172  0.1812 -0.2011 -0.4624
  523MOL0     C68958  10.934   7.558   3.102 -0.2942 -0.5059  0.4600
  523MOL0     C68959  11.003   7.598   2.992 -0.1204  0.4468 -0.5535
  523MOL0     C68960  11.083   7.707   2.997 -1.2888  0.7564  0.4898
  523MOL0     C68961  11.110   7.773   3.120 -0.3349 -0.1869 -0.3443
  523MOL0     O68962  11.201   7.882   3.114  1.2430 -0.3000 -0.3314
  523MOL0     C68963  11.202   7.987   3.222  1.4013  0.1799  0.1975
  523MOL0     C68964  11.270   8.117   3.170 -0.6911 -0.1345  0.3580
  523MOL0     C68965  11.229   8.241   3.244 -0.1247 -0.4519  0.3106
  523MOL0     C68966  11.309   8.364   3.204  0.2235  0.3680  0.1708
  523MOL0     C68967  11.283   8.479   3.292  0.9138 -0.4292  0.5175
  523MOL0     C68968  11.288   8.574   3.375  0.2011  0.2727  0.4324
  523MOL0     C68969  11.053   7.725   3.235 -0.7505  0.9035 -0.1369
  523MOL0     C68970  10.962   7.624   3.225  0.3449  0.5270 -0.8126
  523MOL0     H68971  10.537   7.461   3.324 -1.2666  0.0829 -0.2769
  523MOL0     H68972  10.355   7.307   3.354 -0.9097  1.1773 -0.9968
  523MOL0     H68973  10.233   7.155   3.353  1.0179  0.3956 -0.3060
  523MOL0     H68974  10.313   7.020   3.439 -0.1039  0.5895  0.7877
  523MOL0     H68975  10.193   6.860   3.276  2.2063  0.6282  1.8538
  523MOL0     H68976  10.110   7.003   3.211 -0.5891 -1.6672 -0.4737
  523MOL0     H68977  10.001   7.059   3.411 -1.9638 -0.5337 -0.6345
  523MOL0     H68978  10.091   6.959   3.514 -0.0360  1.0907  0.9126
  523MOL0     H68979  10.004   6.757   3.450 -0.4053  1.0699  1.6846
  523MOL0     H68980   9.881   6.881   3.493  2.5294  4.6679 -0.2865
  523MOL0     H68981   9.945   6.837   3.195 -1.8974  1.2320 -1.2514
  523MOL0     H68982   9.798   6.907   3.271 -0.2210 -0.0242  0.7098
  523MOL0     H68983   9.776   6.686   3.396 -0.7731 -2.2385 -0.2414
  523MOL0     H68984   9.884   6.605   3.297 -0.9997 -1.4145  5.2510
  523MOL0     H68985   9.643   6.599   3.220 -0.5258  0.8622  1.6505
  523MOL0     H68986   9.659   6.766   3.170  1.6323  0.9451  1.2932
  523MOL0     H68987   9.851   6.708   3.033  0.3185  1.0220  0.9141
  523MOL0     H68988   9.700   6.654   2.961 -0.8388  1.0455  1.6285
  523MOL0     H68989   9.616   6.399   3.059 -0.4271  2.0325 -2.1731
  523MOL0     H68990   9.791   6.072   3.079  2.7603 -1.7831 -1.7033
  523MOL0     H68991   9.828   6.101   2.906  0.5261  1.9014 -0.7138
  523MOL0     H68992   9.599   6.101   2.850 -1.1152  1.6648  0.1227
  523MOL0     H68993   9.569   6.219   2.956  0.8663 -0.3727 -0.0700
  523MOL0     H68994   9.579   5.926   3.043 -0.6747  0.0666 -0.1017
  523MOL0     H68995   9.589   6.063   3.159 -2.3377  1.6403  0.7309
  523MOL0     H68996   9.365   6.136   3.048 -0.9424 -0.6341 -0.5794
  523MOL0     H68997   9.354   6.019   3.174 -0.0615  1.8089  0.6196
  523MOL0     H68998   9.193   5.831   2.797 -1.3834 -1.4552  2.6477
  523MOL0     H68999   8.998   5.871   2.712 -1.2026 -0.8108  1.5532
  523MOL0     H69000   8.694   5.763   2.543  2.6638  1.1722 -0.0834
  523MOL0     H69001   8.546   5.767   2.376 -3.7611 -0.2834  0.6888
  523MOL0     H69002   8.316   5.775   2.283  4.0490  0.7167  2.4904
  523MOL0     H69003   8.426   5.854   2.177  2.1674 -0.6028  4.0037
  523MOL0     H69004   8.186   5.822   2.096 -0.7219  0.2059  0.2550
  523MOL0     H69005   8.247   5.984   2.078  1.1454  2.0374  2.3600
  523MOL0     H69006   8.148   6.086   2.246  1.3351 -0.0092  0.8795
  523MOL0     H69007   8.116   5.931   2.328  2.4820 -2.0965 -1.1079
  523MOL0     H69008   8.007   6.000   2.052  1.0220  0.3355  0.6128
  523MOL0     H69009   7.965   5.860   2.147  1.6179  0.2607 -4.0708
  523MOL0     H69010   7.899   6.142   2.244  1.3883 -0.0143 -0.4817
  523MOL0     H69011   7.842   5.993   2.319 -0.2411 -1.1050 -0.3361
  523MOL0     H69012   7.665   6.025   2.217 -1.1157 -0.6242 -1.5112
  523MOL0     H69013   7.747   5.929   2.087 -0.1086 -0.0006 -0.9953
  523MOL0     H69014   7.726   6.236   2.090 -1.8464  0.1942 -0.8622
  523MOL0     H69015   7.818   6.141   1.980  0.5768  1.7036  0.0898
  523MOL0     H69016   7.520   6.110   2.038  2.8289  2.3081  3.2657
  523MOL0     H69017   7.612   6.047   1.896  2.2921 -0.9347  1.0045
  523MOL0     H69018   8.376   6.135   2.518 -0.5060 -0.6038  1.3208
  523MOL0     H69019   8.535   6.145   2.705 -3.0340  0.2740 -0.0023
  523MOL0     H69020   8.908   6.153   3.040  2.5846 -1.1425  3.3329
  523MOL0     H69021   9.151   6.124   3.103 -0.3478  1.4564 -0.6823
  523MOL0     H69022  10.585   7.008   3.140 -0.3712 -0.3171  1.3182
  523MOL0     H69023  10.772   7.154   3.135  0.6607 -1.9160  2.5501
  523MOL0     H69024  10.976   7.544   2.901 -0.2908  0.3014 -0.4182
  523MOL0     H69025  11.132   7.748   2.910  2.7248 -0.9177  1.7030
  523MOL0     H69026  11.241   7.948   3.316  0.1783 -2.3432 -0.2390
  523MOL0     H69027  11.096   8.010   3.238  0.6721 -0.5964 -2.7679
  523MOL0     H69028  11.377   8.097   3.182 -0.2484  0.7424 -1.6134
  523MOL0     H69029  11.251   8.138   3.064  0.6319  0.6104  0.2458
  523MOL0     H69030  11.236   8.228   3.352 -1.6352  1.4027  0.6875
  523MOL0     H69031  11.121   8.260   3.233  0.1221 -0.0444 -2.0043
  523MOL0     H69032  11.414   8.334   3.213  0.5083  1.5961  1.1063
  523MOL0     H69033  11.306   8.409   3.104  1.0646  1.9142  0.8170
  523MOL0     H69034  11.267   8.650   3.448 -1.4341 -0.4014  0.7109
  523MOL0     H69035  11.056   7.755   3.339 -2.4105  0.1990  0.1623
  523MOL0     H69036  10.929   7.580   3.319  4.5338  0.5265  0.8555
  524MOL0     O69037   3.301   1.271   3.847  0.5760 -0.6357  0.2249
  524MOL0     C69038   3.382   1.344   3.906 -0.4502  0.0212  0.6615
  524MOL0     O69039   3.436   1.454   3.852 -0.6344 -0.1703  0.3919
  524MOL0     C69040   3.417   1.482   3.717 -0.9100  0.6113 -0.3135
  524MOL0     C69041   3.515   1.453   3.615  0.3504  0.2769  0.3673
  524MOL0     C69042   3.506   1.512   3.486  0.1469  0.7577  0.5237
  524MOL0     C69043   3.401   1.602   3.455 -0.8852 -0.0317 -0.1587
  524MOL0     O69044   3.381   1.661   3.339 -0.4720  0.9662  0.3622
  524MOL0     C69045   3.487   1.736   3.283 -0.5631  0.7508 -0.8789
  524MOL0     C69046   3.457   1.893   3.273  0.3562  0.7085  0.1731
  524MOL0     C69047   3.321   1.924   3.206 -0.1164 -0.4670  0.1757
  524MOL0     C69048   3.283   2.064   3.203  0.2955 -0.2132 -1.0143
  524MOL0     C69049   3.381   2.144   3.119  0.0307  0.3213  0.3516
  524MOL0     C69050   3.392   2.294   3.165  0.1791 -0.5625 -0.3965
  524MOL0     C69051   3.459   2.368   3.048 -0.1030  0.3389  0.7564
  524MOL0     C69052   3.497   2.516   3.077 -0.7836 -0.4006 -0.3995
  524MOL0     N69053   3.574   2.584   2.968  0.9118 -0.2181 -0.2493
  524MOL0     C69054   3.711   2.577   2.951  0.0135  0.7147 -0.4309
  524MOL0     C69055   3.722   2.611   2.823 -0.1203 -0.4587  0.6535
  524MOL0     C69056   3.848   2.618   2.748  0.4734  0.0942  0.1272
  524MOL0     C69057   3.875   2.763   2.703  0.2974  0.4863 -0.6425
  524MOL0     C69058   3.932   2.853   2.818 -1.1612  0.7591 -0.8295
  524MOL0     C69059   4.011   2.968   2.756 -0.0287 -0.2556  0.4755
  524MOL0     O69060   4.037   3.068   2.856  0.1566  0.0479 -1.1065
  524MOL0     C69061   4.109   3.180   2.826  0.3518  0.1101 -0.3752
  524MOL0     C69062   4.170   3.255   2.923  0.1168 -0.4469  0.1552
  524MOL0     C69063   4.256   3.366   2.894  0.0074  1.1820  0.0715
  524MOL0     C69064   4.271   3.402   2.762 -0.6621  0.4636 -0.4262
  524MOL0     C69065   4.357   3.517   2.735 -0.3269 -0.7963  0.1677
  524MOL0     O69066   4.381   3.606   2.836  0.1751 -0.4224 -0.2730
  524MOL0     C69067   4.486   3.693   2.831  0.0769 -0.9278 -0.8734
  524MOL0     C69068   4.610   3.665   2.774  0.6871  0.1629 -0.2600
  524MOL0     C69069   4.716   3.762   2.774  1.0889  0.6424  0.1610
  524MOL0     C69070   4.691   3.890   2.833  0.3552  0.8326 -0.4902
  524MOL0     O69071   4.772   3.996   2.806 -0.0915  0.1457  0.2645
  524MOL0     C69072   4.746   4.118   2.878 -0.1309  0.4391 -1.2747
  524MOL0     C69073   4.836   4.241   2.837  0.7199  0.1753 -0.0352
  524MOL0     C69074   4.982   4.200   2.803 -0.6511  0.0806  0.2628
  524MOL0     C69075   5.085   4.315   2.781 -1.0094 -0.3018 -0.4113
  524MOL0     C69076   5.238   4.284   2.782 -0.2756  0.0011  0.4234
  524MOL0     C69077   5.279   4.185   2.673  0.0137 -0.2519 -0.5931
  524MOL0     C69078   5.264   4.249   2.525 -0.8811  0.5480  0.4407
  524MOL0     C69079   5.352   4.198   2.411 -0.4811 -0.0146 -0.3390
  524MOL0    Cl69080   5.362   4.289   2.268  0.6166 -0.3189 -0.3219
  524MOL0     C69081   4.575   3.897   2.910 -0.2996  0.1516  0.5409
  524MOL0     C69082   4.466   3.816   2.896  0.0298 -0.7171 -0.0521
  524MOL0     O69083   4.401   3.527   2.621 -0.2307  0.3697 -0.6762
  524MOL0     C69084   4.206   3.328   2.663  0.1174 -0.0368  0.0927
  524MOL0     C69085   4.130   3.221   2.697  0.2806  0.3602 -0.1955
  524MOL0     N69086   3.601   2.636   2.761  0.5850  0.2213  0.0329
  524MOL0     N69087   3.513   2.612   2.847 -0.5627 -0.6525 -0.5694
  524MOL0     C69088   3.303   1.628   3.557 -0.5414 -0.3522 -0.0134
  524MOL0     C69089   3.308   1.561   3.680 -0.1065 -0.7388 -0.6410
  524MOL0     C69090   3.423   1.319   4.044  0.6621  0.4830 -0.6817
  524MOL0     C69091   3.378   1.206   4.114  0.0450 -0.2939 -0.4941
  524MOL0     C69092   3.402   1.192   4.249  0.1749  0.0649 -0.1926
  524MOL0     C69093   3.492   1.283   4.320 -0.1632  0.0688  1.2266
  524MOL0     O69094   3.545   1.261   4.445 -0.2117 -0.0591  0.1888
  524MOL0     C69095   3.471   1.208   4.552  0.2226 -0.1830  0.5320
  524MOL0     C69096   3.568   1.148   4.654  0.0499 -0.1469  0.9433
  524MOL0     C69097   3.497   1.090   4.773 -0.7860 -0.9932  0.8937
  524MOL0     C69098   3.597   1.010   4.857 -0.8277  0.2275 -0.3086
  524MOL0     C69099   3.519   0.908   4.930 -0.0066  0.0346  0.4397
  524MOL0     C69100   3.448   0.824   4.986 -0.4981 -0.4899  0.0185
  524MOL0     C69101   3.543   1.392   4.248  0.7148  0.2276  0.2070
  524MOL0     C69102   3.505   1.411   4.114  0.4400  0.4314  0.3077
  524MOL0     H69103   3.593   1.382   3.642  1.1649  0.2092 -1.9732
  524MOL0     H69104   3.578   1.486   3.409  0.4177 -2.0052  1.5911
  524MOL0     H69105   3.526   1.693   3.191  2.0271 -2.3679  1.4255
  524MOL0     H69106   3.565   1.734   3.361 -0.2567 -2.5869 -1.1351
  524MOL0     H69107   3.541   1.930   3.213  0.2993 -0.7364 -0.8316
  524MOL0     H69108   3.461   1.941   3.372 -0.1542 -0.4601  0.7770
  524MOL0     H69109   3.256   1.877   3.281  0.5925 -0.5335  0.7640
  524MOL0     H69110   3.307   1.874   3.110 -1.1566 -5.1747  2.5039
  524MOL0     H69111   3.182   2.079   3.165  0.0374  2.3487  0.5121
  524MOL0     H69112   3.274   2.090   3.308 -0.1620 -1.2866 -0.7740
  524MOL0     H69113   3.344   2.139   3.016  1.3060 -0.0991 -0.1044
  524MOL0     H69114   3.482   2.104   3.110 -0.6508 -0.9457 -4.4065
  524MOL0     H69115   3.454   2.317   3.252 -1.6165  1.6691  0.4156
  524MOL0     H69116   3.293   2.334   3.190  0.1334 -1.4385  0.9290
  524MOL0     H69117   3.558   2.323   3.034  0.3651  1.7189 -0.5500
  524MOL0     H69118   3.406   2.352   2.954  0.1081  2.1859  0.2917
  524MOL0     H69119   3.544   2.535   3.174  0.7933  0.9783 -1.3715
  524MOL0     H69120   3.397   2.559   3.086  0.2465  2.3142 -0.9469
  524MOL0     H69121   3.788   2.568   3.027 -1.7817  1.7024  1.6078
  524MOL0     H69122   3.846   2.551   2.661 -2.1548 -1.0338  0.9556
  524MOL0     H69123   3.934   2.597   2.812  0.1304  1.1278  0.9495
  524MOL0     H69124   3.786   2.811   2.660 -0.9152 -0.8545  0.2868
  524MOL0     H69125   3.949   2.763   2.623  0.1410  3.7727 -0.9150
  524MOL0     H69126   3.846   2.889   2.875 -0.7819 -0.9213  0.8770
  524MOL0     H69127   3.997   2.805   2.891 -0.7135  0.2242 -1.5635
  524MOL0     H69128   3.951   3.008   2.674 -0.3712 -4.4743 -1.6057
  524MOL0     H69129   4.095   2.916   2.710  0.5972 -1.7170  3.0567
  524MOL0     H69130   4.146   3.217   3.022 -4.6661 -2.6123 -1.5303
  524MOL0     H69131   4.304   3.420   2.974 -1.0841  0.5420  1.2048
  524MOL0     H69132   4.623   3.574   2.717  1.4272  0.9347 -1.3657
  524MOL0     H69133   4.805   3.739   2.716 -1.2738 -3.2230 -2.4034
  524MOL0     H69134   4.770   4.093   2.982  2.3209 -1.8741 -2.2460
  524MOL0     H69135   4.645   4.159   2.870 -0.8347 -0.3351  2.1733
  524MOL0     H69136   4.844   4.312   2.919  2.9499 -0.1777  0.1214
  524MOL0     H69137   4.790   4.296   2.754 -0.4792  0.9100  1.0739
  524MOL0     H69138   4.976   4.138   2.713 -0.0098  2.1233 -1.2812
  524MOL0     H69139   5.014   4.132   2.883 -0.6570 -1.3497 -0.8993
  524MOL0     H69140   5.065   4.343   2.677 -0.4594 -1.1807 -0.7632
  524MOL0     H69141   5.078   4.402   2.847  1.9943  2.4528 -3.3563
  524MOL0     H69142   5.260   4.244   2.882 -0.0422 -1.5853 -0.2311
  524MOL0     H69143   5.308   4.367   2.771  2.4784 -2.4290 -2.0941
  524MOL0     H69144   5.231   4.087   2.668  0.5942 -0.5640 -0.1131
  524MOL0     H69145   5.380   4.155   2.701 -0.0303 -0.5521 -0.7504
  524MOL0     H69146   5.156   4.238   2.507 -1.0758 -0.6862  2.1013
  524MOL0     H69147   5.288   4.356   2.524  0.2513  0.3334 -2.0827
  524MOL0     H69148   5.333   4.092   2.393 -1.1601 -0.1393  0.9882
  524MOL0     H69149   5.452   4.209   2.455  0.0197  1.6902 -1.8003
  524MOL0     H69150   4.561   3.988   2.966  0.7075  2.0069 -2.0540
  524MOL0     H69151   4.374   3.847   2.945  1.2000  0.5055  1.4805
  524MOL0     H69152   4.230   3.359   2.562  1.3315  4.2971  1.4740
  524MOL0     H69153   4.105   3.166   2.607  2.0142  1.3380 -1.3161
  524MOL0     H69154   3.217   1.689   3.533 -1.5601 -1.6080  0.2997
  524MOL0     H69155   3.227   1.587   3.748 -1.3596 -0.0007 -2.3367
  524MOL0     H69156   3.315   1.135   4.062 -1.1680 -0.1871  0.7897
  524MOL0     H69157   3.370   1.104   4.303 -0.3019  1.1913  1.4064
  524MOL0     H69158   3.407   1.130   4.510  2.3044 -1.5207 -0.3688
  524MOL0     H69159   3.422   1.290   4.604 -0.2677  0.3055 -0.6753
  524MOL0     H69160   3.619   1.070   4.596 -0.3292  0.7938 -0.7167
  524MOL0     H69161   3.627   1.233   4.688 -1.7764  2.2755 -1.5370
  524MOL0     H69162   3.428   1.018   4.728 -0.1973 -1.1863  0.2818
  524MOL0     H69163   3.445   1.157   4.842 -1.2946  0.6647 -0.9929
  524MOL0     H69164   3.660   0.951   4.789 -2.0084 -0.6845 -0.6532
  524MOL0     H69165   3.658   1.081   4.913 -0.9033  0.1129 -0.0832
  524MOL0     H69166   3.374   0.755   5.020 -1.5888  1.1356  1.0688
  524MOL0     H69167   3.583   1.477   4.303 -1.5278  1.6390 -0.2208
  524MOL0     H69168   3.546   1.491   4.053 -0.6263 -1.0130 -2.5466
  525MOL0     O69169   3.453   2.681   6.809  0.0164 -0.6106 -0.6987
  525MOL0     C69170   3.331   2.675   6.822 -0.1258  0.0669 -0.1459
  525MOL0     O69171   3.261   2.559   6.853  0.3560  0.2466  0.0741
  525MOL0     C69172   3.321   2.449   6.914 -0.3285  0.4148 -0.1587
  525MOL0     C69173   3.442   2.446   6.975  0.1709 -0.7694  0.4920
  525MOL0     C69174   3.488   2.336   7.042  0.3338  0.2363 -0.8540
  525MOL0     C69175   3.411   2.216   7.050 -0.5577 -0.5889 -1.2273
  525MOL0     O69176   3.439   2.107   7.125  0.4227  0.0649  0.7588
  525MOL0     C69177   3.570   2.075   7.165 -0.4754  1.1364 -0.0598
  525MOL0     C69178   3.572   1.945   7.237  0.3474  0.1711  0.6688
  525MOL0     C69179   3.713   1.891   7.250 -0.5745 -0.2106  0.0919
  525MOL0     C69180   3.755   1.827   7.115 -0.0650 -0.5785 -0.2676
  525MOL0     C69181   3.710   1.675   7.103 -1.0768 -0.1296  1.3330
  525MOL0     C69182   3.743   1.610   6.963 -0.1818  0.0840 -0.0399
  525MOL0     C69183   3.701   1.457   6.938  0.0267  0.8200  0.2437
  525MOL0     C69184   3.563   1.420   6.994  0.6519 -0.1846 -0.3251
  525MOL0     N69185   3.514   1.282   6.995 -0.7751  0.3698 -0.9716
  525MOL0     C69186   3.439   1.226   6.888  0.1221 -0.3851 -0.1899
  525MOL0     C69187   3.441   1.095   6.911  0.5994 -0.6845 -0.0299
  525MOL0     C69188   3.342   0.998   6.840 -0.2115 -0.6105 -0.3347
  525MOL0     C69189   3.348   0.855   6.886 -0.0320  0.5463  0.3552
  525MOL0     C69190   3.307   0.833   7.029  0.5979  0.3759  1.0350
  525MOL0     C69191   3.353   0.695   7.089 -0.0205 -0.2345 -0.6861
  525MOL0     O69192   3.327   0.689   7.239 -0.8535  0.1148 -0.4161
  525MOL0     C69193   3.207   0.735   7.287  0.6649 -1.2534  0.8508
  525MOL0     C69194   3.191   0.850   7.361 -0.2030 -0.5774  0.1123
  525MOL0     C69195   3.067   0.897   7.395  0.5172  0.6366 -0.5565
  525MOL0     C69196   2.951   0.819   7.351  0.1997  0.0210 -0.7208
  525MOL0     C69197   2.819   0.867   7.372  0.5399 -1.2330  0.3654
  525MOL0     O69198   2.800   0.986   7.450  0.0502  0.5536 -0.6730
  525MOL0     C69199   2.674   1.045   7.456 -0.2281 -0.7495 -0.1072
  525MOL0     C69200   2.621   1.087   7.576 -0.3146 -0.2194  0.0345
  525MOL0     C69201   2.493   1.146   7.585 -0.6021  0.7163  0.6626
  525MOL0     C69202   2.436   1.190   7.466  0.0585 -0.2018 -0.7924
  525MOL0     O69203   2.324   1.267   7.454  0.2680 -0.5674 -0.3322
  525MOL0     C69204   2.263   1.318   7.573 -0.0315  0.4878 -0.0993
  525MOL0     C69205   2.144   1.407   7.527  0.2550  0.3947  0.1505
  525MOL0     C69206   2.097   1.492   7.642 -0.1490 -0.1411 -0.0323
  525MOL0     C69207   1.974   1.573   7.603 -0.1635 -0.7128  0.3552
  525MOL0     C69208   1.919   1.671   7.706  0.6082  0.2779  0.0481
  525MOL0     C69209   1.889   1.619   7.846 -0.7900  0.2492  0.4084
  525MOL0     C69210   1.841   1.726   7.944  0.1565  0.4254 -0.5966
  525MOL0     C69211   1.799   1.671   8.082  1.5096 -0.6042 -0.6340
  525MOL0    Cl69212   1.938   1.620   8.184  0.7832 -0.0270  0.4843
  525MOL0     C69213   2.484   1.151   7.346 -0.3888 -0.4957  0.6982
  525MOL0     C69214   2.603   1.069   7.339 -0.1754 -0.4342  0.6302
  525MOL0     O69215   2.729   0.801   7.316  0.0345 -0.5192  0.1390
  525MOL0     C69216   2.971   0.699   7.272  0.0337 -1.0155 -0.5310
  525MOL0     C69217   3.095   0.662   7.243 -1.4670 -0.2770  0.3985
  525MOL0     N69218   3.526   1.069   7.025  0.0717  0.0003  0.8424
  525MOL0     N69219   3.557   1.181   7.079 -0.6372 -0.7750  0.5346
  525MOL0     C69220   3.295   2.221   6.978  0.3576 -0.2368  0.6387
  525MOL0     C69221   3.248   2.331   6.910  0.0433 -0.3877 -0.4621
  525MOL0     C69222   3.243   2.796   6.784 -0.8209  0.3286  0.4658
  525MOL0     C69223   3.290   2.923   6.755 -0.5417 -0.4563 -0.0311
  525MOL0     C69224   3.196   3.029   6.730  0.1233 -0.1771  0.0561
  525MOL0     C69225   3.058   3.001   6.731  0.5897 -0.2399  0.3550
  525MOL0     O69226   2.980   3.108   6.689  0.1042 -1.0903 -0.1181
  525MOL0     C69227   2.868   3.076   6.608 -0.3501 -0.3967 -0.2179
  525MOL0     C69228   2.790   3.207   6.574  0.6975  1.1262 -0.6256
  525MOL0     C69229   2.887   3.318   6.552 -0.0467 -0.0871  0.3529
  525MOL0     C69230   2.831   3.448   6.514  0.1214 -1.0071 -0.2200
  525MOL0     C69231   2.742   3.505   6.610  0.6173 -0.3287  0.0581
  525MOL0     C69232   2.687   3.563   6.695 -0.3508  0.4014 -0.0501
  525MOL0     C69233   3.016   2.872   6.763 -0.7814  0.2337  0.4337
  525MOL0     C69234   3.107   2.771   6.787  0.7240 -0.3533 -0.8121
  525MOL0     H69235   3.490   2.542   6.990 -1.8262  0.8433 -2.4748
  525MOL0     H69236   3.580   2.331   7.099 -0.4517 -1.4061  0.3389
  525MOL0     H69237   3.605   2.153   7.233 -2.6929  2.5603 -0.4329
  525MOL0     H69238   3.637   2.067   7.079  1.7374 -2.2936  1.7287
  525MOL0     H69239   3.504   1.874   7.188 -0.1247  0.7816  0.4323
  525MOL0     H69240   3.533   1.977   7.334 -3.0882  0.2486 -0.6009
  525MOL0     H69241   3.717   1.809   7.322 -0.2780 -0.7924 -0.5647
  525MOL0     H69242   3.787   1.967   7.276  3.3676 -3.1921 -1.2871
  525MOL0     H69243   3.699   1.871   7.032 -0.8960  2.1341  1.6041
  525MOL0     H69244   3.862   1.825   7.091 -0.6198  1.4967 -3.5482
  525MOL0     H69245   3.602   1.666   7.112 -1.4831  0.4335 -1.7867
  525MOL0     H69246   3.761   1.622   7.184 -1.3021  2.3037  3.1902
  525MOL0     H69247   3.851   1.614   6.946  0.5798 -4.6903  2.0882
  525MOL0     H69248   3.695   1.670   6.886  0.5963 -2.2740 -2.5591
  525MOL0     H69249   3.684   1.451   6.830 -1.8505 -0.2248  0.5652
  525MOL0     H69250   3.777   1.382   6.963 -0.7546 -1.4215 -3.3462
  525MOL0     H69251   3.491   1.478   6.935 -0.9438 -0.9016  0.8817
  525MOL0     H69252   3.547   1.446   7.099 -1.9458  0.9884 -0.9326
  525MOL0     H69253   3.398   1.269   6.798  0.9179  0.1923 -0.2889
  525MOL0     H69254   3.367   1.007   6.734  1.2429  0.9635  0.0943
  525MOL0     H69255   3.237   1.029   6.852 -0.4613 -1.9315  1.2347
  525MOL0     H69256   3.449   0.817   6.868 -0.8372 -0.5302 -2.2506
  525MOL0     H69257   3.281   0.807   6.814 -0.5477  3.0744 -0.9715
  525MOL0     H69258   3.324   0.920   7.093 -1.5838  0.1438  2.0482
  525MOL0     H69259   3.197   0.833   7.025  0.5842  2.9377 -1.7109
  525MOL0     H69260   3.461   0.688   7.076  0.6503  0.6151  3.0621
  525MOL0     H69261   3.296   0.616   7.040 -0.4700 -1.7547  2.0547
  525MOL0     H69262   3.276   0.917   7.366 -1.0940  0.5493  0.4801
  525MOL0     H69263   3.048   0.984   7.458 -0.0932 -1.7978  2.9035
  525MOL0     H69264   2.682   1.082   7.666  0.8999 -0.7085 -0.7988
  525MOL0     H69265   2.457   1.181   7.681  2.9720  1.7741  1.7634
  525MOL0     H69266   2.330   1.379   7.634  1.4049 -2.8391  1.9275
  525MOL0     H69267   2.221   1.235   7.630 -2.0829  2.2179  1.0838
  525MOL0     H69268   2.059   1.348   7.490  0.8649  1.2119 -2.8823
  525MOL0     H69269   2.178   1.474   7.447 -2.3670  2.0606  0.3344
  525MOL0     H69270   2.179   1.562   7.662 -0.8252  0.8743 -0.6931
  525MOL0     H69271   2.082   1.444   7.739 -3.4982  2.9166  1.2111
  525MOL0     H69272   2.002   1.627   7.512 -1.4768  0.8087  0.8010
  525MOL0     H69273   1.900   1.497   7.575 -0.3901 -0.6347  0.7418
  525MOL0     H69274   1.820   1.706   7.674  0.6033  0.0592 -0.1853
  525MOL0     H69275   1.978   1.762   7.721 -1.0595  1.6728 -1.3902
  525MOL0     H69276   1.971   1.567   7.896 -2.1118 -0.1092  2.3009
  525MOL0     H69277   1.815   1.541   7.828  2.7457 -3.0906 -1.0249
  525MOL0     H69278   1.923   1.798   7.951 -0.2682  0.8282  0.4198
  525MOL0     H69279   1.764   1.781   7.891 -1.2031 -1.0762 -0.2381
  525MOL0     H69280   1.727   1.593   8.058 -0.7330  1.3006 -0.4948
  525MOL0     H69281   1.752   1.757   8.131  5.1874  0.1435  2.0099
  525MOL0     H69282   2.439   1.184   7.253 -0.6599 -1.2289  0.5628
  525MOL0     H69283   2.642   1.051   7.239 -2.5200  0.1785 -0.4590
  525MOL0     H69284   2.888   0.644   7.230 -1.7546  0.4235  0.9181
  525MOL0     H69285   3.116   0.573   7.185 -0.6182 -0.1385  0.4689
  525MOL0     H69286   3.230   2.134   6.979  2.2294 -1.7068  1.3366
  525MOL0     H69287   3.147   2.327   6.872  0.1051 -0.2884 -0.6361
  525MOL0     H69288   3.397   2.942   6.763 -0.7318  2.3046 -2.3285
  525MOL0     H69289   3.239   3.124   6.698  2.7605 -2.2431 -3.1586
  525MOL0     H69290   2.814   2.994   6.656  2.4305 -2.3657 -0.2221
  525MOL0     H69291   2.919   3.044   6.516  0.0093 -1.8294  0.4565
  525MOL0     H69292   2.720   3.193   6.492 -1.4050  1.5113  1.0222
  525MOL0     H69293   2.725   3.224   6.661 -2.9022  3.6788 -3.5191
  525MOL0     H69294   2.945   3.288   6.465  0.1104  2.4703 -0.4992
  525MOL0     H69295   2.950   3.329   6.641  0.1626  1.0693  0.0807
  525MOL0     H69296   2.924   3.506   6.507  0.0739 -0.8726  0.2163
  525MOL0     H69297   2.800   3.451   6.410  2.9812  3.3810 -1.2403
  525MOL0     H69298   2.647   3.626   6.772  2.8409  0.6090  1.6319
  525MOL0     H69299   2.916   2.836   6.783 -1.0388  0.9074  0.3779
  525MOL0     H69300   3.069   2.670   6.802 -0.6650  0.0938 -1.1684
  526MOL0     O69301   1.858   3.798  11.103  0.5063 -0.5745 -0.3798
  526MOL0     C69302   1.885   3.910  11.143 -0.2973 -0.9855  1.2736
  526MOL0     O69303   1.805   4.016  11.159  0.8238  0.2176 -0.1278
  526MOL0     C69304   1.672   3.989  11.161  0.5788 -0.0283  0.3313
  526MOL0     C69305   1.608   3.878  11.224 -0.2946  0.1237  0.3384
  526MOL0     C69306   1.471   3.869  11.218 -1.7339  0.3366  0.0486
  526MOL0     C69307   1.398   3.954  11.147  0.5705 -0.1476  0.4917
  526MOL0     O69308   1.260   3.932  11.126 -0.7548  0.5992 -0.2566
  526MOL0     C69309   1.182   3.890  11.241 -0.5242 -0.5261  0.5805
  526MOL0     C69310   1.040   3.952  11.243  0.9265 -0.2703  0.6205
  526MOL0     C69311   1.050   4.106  11.249 -0.3352  0.1916  0.1172
  526MOL0     C69312   0.917   4.160  11.296 -0.2008  1.0206 -0.3515
  526MOL0     C69313   0.921   4.313  11.308  0.6799  0.7911 -0.0886
  526MOL0     C69314   0.967   4.345  11.462  0.0964 -0.0828 -0.3829
  526MOL0     C69315   1.003   4.490  11.458 -0.6936  0.7346 -0.1635
  526MOL0     C69316   1.078   4.525  11.583 -0.3374  0.4372 -0.8378
  526MOL0     N69317   1.006   4.494  11.712 -0.5963  0.1304  0.8956
  526MOL0     C69318   0.912   4.578  11.767  0.1851  0.6209  0.0015
  526MOL0     C69319   0.882   4.521  11.886  1.3457  0.1445  0.0425
  526MOL0     C69320   0.800   4.577  12.003 -0.2057 -0.5046 -0.3285
  526MOL0     C69321   0.651   4.572  11.969  0.8484 -0.6943 -0.5804
  526MOL0     C69322   0.565   4.592  12.090  0.6357  0.4157  0.0030
  526MOL0     C69323   0.416   4.585  12.053  0.2557 -0.1595  0.0056
  526MOL0     O69324   0.374   4.670  11.950  0.1550  0.6910  0.3398
  526MOL0     C69325   0.235   4.668  11.918 -0.4347  0.3052 -0.6256
  526MOL0     C69326   0.186   4.767  11.827 -0.0689 -0.5062 -0.9024
  526MOL0     C69327   0.054   4.781  11.801 -0.6603 -0.1986 -0.2622
  526MOL0     C69328  -0.034   4.680  11.842  0.5076  0.7386  0.0665
  526MOL0     C69329  -0.183   4.711  11.833 -0.5274 -0.0491 -0.2039
  526MOL0     O69330  -0.217   4.746  11.703 -0.0752 -0.0911 -0.3218
  526MOL0     C69331  -0.342   4.745  11.667 -0.2687 -0.2511 -0.6980
  526MOL0     C69332  -0.439   4.655  11.706  0.0472  0.4379  0.9706
  526MOL0     C69333  -0.575   4.665  11.670  0.1662 -0.0655  1.0014
  526MOL0     C69334  -0.614   4.753  11.573 -0.4010 -0.1321 -0.6234
  526MOL0     O69335  -0.750   4.772  11.533  0.0690 -0.7844  0.7851
  526MOL0     C69336  -0.849   4.671  11.552  0.2579  0.0792 -0.3605
  526MOL0     C69337  -0.989   4.722  11.511  0.3137 -0.3796 -0.1421
  526MOL0     C69338  -1.072   4.622  11.429 -0.2497  0.8855 -0.1326
  526MOL0     C69339  -1.016   4.600  11.284  0.6502 -0.3830 -0.5767
  526MOL0     C69340  -1.050   4.463  11.223 -0.4049 -0.1514  0.2364
  526MOL0     C69341  -1.013   4.463  11.067  0.3813 -0.8604 -0.3316
  526MOL0     C69342  -0.856   4.459  11.053  0.7932 -0.4251  0.1410
  526MOL0     C69343  -0.807   4.399  10.919  0.0617 -0.6495  0.2810
  526MOL0    Cl69344  -0.636   4.406  10.919  0.1338  0.0920 -0.3378
  526MOL0     C69345  -0.514   4.838  11.521  1.0323 -0.5802 -1.5088
  526MOL0     C69346  -0.386   4.830  11.577 -0.6432  0.2361  0.3034
  526MOL0     O69347  -0.261   4.678  11.921 -0.7515 -0.2415 -0.4049
  526MOL0     C69348   0.006   4.585  11.926  0.0408  0.4655 -0.2400
  526MOL0     C69349   0.132   4.584  11.978 -1.0035  0.3244  0.0320
  526MOL0     N69350   0.944   4.399  11.890 -0.4503  0.2502 -0.2816
  526MOL0     N69351   1.021   4.381  11.791  0.3731 -0.0114  0.5330
  526MOL0     C69352   1.460   4.066  11.087 -0.0785 -0.3433  0.8732
  526MOL0     C69353   1.598   4.084  11.094  0.8289  0.2095  0.4777
  526MOL0     C69354   2.024   3.939  11.175  0.2613 -0.7740 -0.6295
  526MOL0     C69355   2.113   3.822  11.152 -0.3951 -0.3013  0.9648
  526MOL0     C69356   2.255   3.848  11.160  0.4970 -1.1176 -1.0594
  526MOL0     C69357   2.308   3.971  11.212 -0.3674 -0.2302  0.2907
  526MOL0     O69358   2.441   4.004  11.230 -0.2025 -0.2403  0.4022
  526MOL0     C69359   2.544   3.918  11.175 -0.1805  0.8461  1.0098
  526MOL0     C69360   2.578   3.789  11.251 -0.3606  0.0775 -0.1658
  526MOL0     C69361   2.666   3.815  11.377  0.3115  0.9617 -0.0524
  526MOL0     C69362   2.807   3.777  11.354 -0.3086 -0.0874  0.7784
  526MOL0     C69363   2.883   3.772  11.485  0.5739 -0.4721  0.7215
  526MOL0     C69364   2.934   3.794  11.592 -0.3588  0.9844  0.4271
  526MOL0     C69365   2.213   4.066  11.250 -0.7181 -0.2943 -0.9748
  526MOL0     C69366   2.069   4.059  11.234 -0.3122  0.7894 -0.2765
  526MOL0     H69367   1.661   3.804  11.283  1.8564  1.9370  0.7852
  526MOL0     H69368   1.420   3.786  11.266 -0.4683  0.1864  1.1848
  526MOL0     H69369   1.240   3.914  11.330 -0.3173 -2.7179  1.0890
  526MOL0     H69370   1.171   3.781  11.239 -0.2768 -0.5451 -0.3073
  526MOL0     H69371   0.997   3.926  11.340  2.6975  1.5299  1.9650
  526MOL0     H69372   0.971   3.910  11.169  1.9759  0.5597 -0.8821
  526MOL0     H69373   1.074   4.141  11.148  0.4147 -3.4434 -1.1222
  526MOL0     H69374   1.130   4.120  11.322  0.6702 -1.6542 -0.5630
  526MOL0     H69375   0.844   4.118  11.225  0.2775  0.0128 -0.2694
  526MOL0     H69376   0.889   4.115  11.391 -0.3449 -1.9536 -1.6694
  526MOL0     H69377   0.816   4.341  11.295  0.1871 -0.6928  0.4568
  526MOL0     H69378   0.978   4.368  11.232 -2.9968  2.9773 -1.5393
  526MOL0     H69379   1.057   4.288  11.488  0.8411  1.1184 -0.2479
  526MOL0     H69380   0.887   4.331  11.536 -0.9488 -0.4421 -1.5477
  526MOL0     H69381   1.061   4.502  11.365  0.2716  1.0083  0.4564
  526MOL0     H69382   0.914   4.553  11.456 -1.0522  0.2513 -2.0551
  526MOL0     H69383   1.099   4.632  11.586  2.3367 -0.0164  0.1310
  526MOL0     H69384   1.175   4.474  11.580 -2.1902 -3.8558  1.7637
  526MOL0     H69385   0.876   4.672  11.727  0.3823 -0.3674 -2.7312
  526MOL0     H69386   0.826   4.681  12.028 -0.1887 -0.1277 -1.8311
  526MOL0     H69387   0.814   4.503  12.082  1.2012 -2.4101 -2.2641
  526MOL0     H69388   0.623   4.474  11.930  0.0087  0.1580 -2.2602
  526MOL0     H69389   0.638   4.645  11.889  1.3032 -1.3321 -1.2471
  526MOL0     H69390   0.586   4.520  12.170  1.3513 -1.1270 -1.5112
  526MOL0     H69391   0.595   4.690  12.130 -2.1821  0.0715  3.4452
  526MOL0     H69392   0.357   4.604  12.143 -0.9269 -2.8618 -0.1247
  526MOL0     H69393   0.404   4.482  12.017  3.6473 -1.2417  1.5231
  526MOL0     H69394   0.250   4.843  11.782 -0.8188  0.6835 -0.0133
  526MOL0     H69395   0.022   4.865  11.740  1.9000 -0.2079 -1.7680
  526MOL0     H69396  -0.418   4.570  11.770  2.0050 -2.3511 -2.9184
  526MOL0     H69397  -0.648   4.592  11.704  0.1393 -1.0809 -1.0375
  526MOL0     H69398  -0.850   4.653  11.660  0.9299  2.2167  0.0542
  526MOL0     H69399  -0.821   4.576  11.506 -0.8680 -0.5656  0.2353
  526MOL0     H69400  -0.976   4.804  11.440 -3.9212  2.8884  2.3383
  526MOL0     H69401  -1.048   4.767  11.592  0.9340 -0.3473  0.2934
  526MOL0     H69402  -1.174   4.660  11.424 -0.4831  0.4165  0.8140
  526MOL0     H69403  -1.071   4.525  11.481 -2.7257 -0.1901 -1.9200
  526MOL0     H69404  -1.074   4.672  11.225 -2.5118 -0.3552  2.2355
  526MOL0     H69405  -0.910   4.616  11.267  0.6858 -2.1856 -2.5334
  526MOL0     H69406  -1.156   4.445  11.240 -0.5869  0.1133 -0.5434
  526MOL0     H69407  -0.990   4.387  11.273  0.3886 -0.7872 -1.5765
  526MOL0     H69408  -1.043   4.556  11.019  2.8478 -0.3121 -0.9399
  526MOL0     H69409  -1.061   4.377  11.020 -0.7344 -0.9182  0.8759
  526MOL0     H69410  -0.810   4.557  11.070  1.8718 -0.9186  0.1093
  526MOL0     H69411  -0.826   4.392  11.134  1.4346 -2.1079 -1.4088
  526MOL0     H69412  -0.862   4.449  10.839  1.1403 -2.2407 -1.5484
  526MOL0     H69413  -0.832   4.292  10.921  1.1101 -0.9226 -0.3902
  526MOL0     H69414  -0.545   4.914  11.449 -0.5445 -1.7941 -2.1757
  526MOL0     H69415  -0.313   4.899  11.535  2.6303 -1.1502  3.2598
  526MOL0     H69416  -0.073   4.517  11.958 -0.3932  0.2061 -1.7992
  526MOL0     H69417   0.169   4.512  12.050  5.8919 -0.5417 -3.4938
  526MOL0     H69418   1.403   4.129  11.019  1.8293 -1.1479 -1.6466
  526MOL0     H69419   1.642   4.169  11.044 -0.6617 -0.9482 -3.1428
  526MOL0     H69420   2.077   3.733  11.102  1.6702 -1.8479  2.1000
  526MOL0     H69421   2.311   3.773  11.104  4.0620 -0.8182  1.7797
  526MOL0     H69422   2.633   3.979  11.160 -0.2278  0.4401 -1.4020
  526MOL0     H69423   2.514   3.881  11.076 -1.3953 -1.5753  2.1907
  526MOL0     H69424   2.477   3.756  11.278 -1.1708  0.8229 -2.1135
  526MOL0     H69425   2.624   3.714  11.186 -0.6719 -0.5953  0.3647
  526MOL0     H69426   2.627   3.751  11.457  3.2114  2.0359  2.4383
  526MOL0     H69427   2.657   3.919  11.408 -1.8339  0.6727  0.4521
  526MOL0     H69428   2.815   3.680  11.304 -0.3873 -0.6484  1.8197
  526MOL0     H69429   2.853   3.840  11.278  0.2208 -2.5122 -1.0304
  526MOL0     H69430   2.973   3.802  11.691 -1.8914  0.2997  1.1209
  526MOL0     H69431   2.247   4.160  11.292 -2.0092 -0.0394 -0.4369
  526MOL0     H69432   2.010   4.149  11.247 -2.4541 -0.5885  0.1900
  527MOL0     O69433   6.992   2.766  10.605  0.2289 -0.0864 -0.1936
  527MOL0     C69434   6.955   2.649  10.632 -0.1959 -0.6639 -0.1614
  527MOL0     O69435   7.029   2.533  10.623 -0.0645 -0.0034 -0.0384
  527MOL0     C69436   7.167   2.529  10.596  0.7922 -0.2978  0.0914
  527MOL0     C69437   7.204   2.399  10.543 -0.1631  0.7189 -0.2825
  527MOL0     C69438   7.339   2.387  10.506  0.0055  0.2463 -0.1508
  527MOL0     C69439   7.436   2.489  10.512 -0.5707 -0.2083 -0.1423
  527MOL0     O69440   7.577   2.462  10.479  0.1422  0.0974 -0.1416
  527MOL0     C69441   7.607   2.412  10.347  0.4700  0.7797 -0.1711
  527MOL0     C69442   7.683   2.274  10.362  1.1404  0.3076 -0.5667
  527MOL0     C69443   7.711   2.214  10.222 -0.1346  0.2864  0.0518
  527MOL0     C69444   7.783   2.076  10.234  0.0021  0.9945  0.7711
  527MOL0     C69445   7.933   2.104  10.188  1.3041  0.5096  0.5589
  527MOL0     C69446   8.007   1.968  10.178  0.6942  0.4874 -0.4904
  527MOL0     C69447   8.151   1.968  10.137 -0.0555 -0.7776 -0.6334
  527MOL0     C69448   8.200   1.837  10.082  0.0743  0.6186  0.0193
  527MOL0     N69449   8.330   1.868  10.011  0.3036  0.1217  0.1922
  527MOL0     C69450   8.343   1.916   9.878  0.4297 -0.1970  0.4047
  527MOL0     C69451   8.470   1.943   9.864 -0.6042 -0.6595  1.5051
  527MOL0     C69452   8.559   1.986   9.747 -0.3370 -0.6092 -1.0331
  527MOL0     C69453   8.518   2.105   9.661  0.0709  0.4686 -0.4953
  527MOL0     C69454   8.550   2.244   9.723  0.6079  0.1339 -0.5203
  527MOL0     C69455   8.453   2.290   9.841  0.2134  0.1226  0.4192
  527MOL0     O69456   8.317   2.294   9.786  1.1622 -0.0117 -0.5492
  527MOL0     C69457   8.221   2.366   9.852  0.6430 -0.0073 -0.7052
  527MOL0     C69458   8.096   2.368   9.789 -0.0299  0.4553 -0.7468
  527MOL0     C69459   7.990   2.426   9.859 -0.3466 -0.7715  0.1568
  527MOL0     C69460   8.003   2.479   9.981 -0.2233  0.0469  0.9763
  527MOL0     C69461   7.877   2.515  10.053  0.2911  0.4793  0.6315
  527MOL0     O69462   7.768   2.528   9.980  0.4292  0.2339 -0.5156
  527MOL0     C69463   7.660   2.592  10.036 -0.6335 -0.4338  0.2671
  527MOL0     C69464   7.524   2.552  10.040  0.1816  0.3523 -0.4863
  527MOL0     C69465   7.426   2.638  10.096  0.0614  0.1867  0.8569
  527MOL0     C69466   7.458   2.756  10.154 -0.8149 -0.5139  0.2383
  527MOL0     O69467   7.363   2.818  10.237 -0.3656  0.4419 -0.1399
  527MOL0     C69468   7.330   2.952  10.203  0.4420  0.5176  0.2834
  527MOL0     C69469   7.242   3.011  10.316  0.1855  0.8084 -0.3205
  527MOL0     C69470   7.216   3.159  10.288 -0.9946 -0.2944  0.7052
  527MOL0     C69471   7.130   3.214  10.399 -0.3216  0.3375  0.4086
  527MOL0     C69472   7.077   3.355  10.389 -0.0635 -0.2869 -0.1753
  527MOL0     C69473   7.172   3.469  10.434  0.3778 -1.0815  0.0933
  527MOL0     C69474   7.104   3.605  10.426 -0.5971 -0.0975  0.3172
  527MOL0     C69475   7.062   3.649  10.565  0.3414  0.4387 -1.0966
  527MOL0    Cl69476   7.196   3.636  10.687 -0.6232 -0.2999  0.0612
  527MOL0     C69477   7.588   2.807  10.137  0.1184 -0.1970  0.2090
  527MOL0     C69478   7.687   2.727  10.068  1.1241 -0.7609  0.0651
  527MOL0     O69479   7.884   2.522  10.176  0.0236 -0.1793  0.0313
  527MOL0     C69480   8.131   2.487  10.044  0.2947 -0.3383  0.6850
  527MOL0     C69481   8.238   2.426   9.977 -0.0821  0.1070 -0.4073
  527MOL0     N69482   8.538   1.895   9.975 -0.2879  0.6889 -0.1740
  527MOL0     N69483   8.455   1.862  10.064 -0.1652 -1.1741 -0.3121
  527MOL0     C69484   7.399   2.607  10.575 -0.0412  0.2722  0.6111
  527MOL0     C69485   7.266   2.636  10.611  0.5679  1.2914 -0.7487
  527MOL0     C69486   6.815   2.639  10.687  0.0695  0.3770 -0.0613
  527MOL0     C69487   6.715   2.749  10.682  0.3170  0.4577 -0.2167
  527MOL0     C69488   6.580   2.730  10.722 -0.9161 -0.3988 -0.5118
  527MOL0     C69489   6.542   2.603  10.763  0.3685  0.1898  0.3293
  527MOL0     O69490   6.412   2.569  10.794  0.6640 -0.7188  0.5668
  527MOL0     C69491   6.307   2.669  10.814 -0.5654  0.0152 -1.1085
  527MOL0     C69492   6.174   2.656  10.731  0.0810 -0.4982 -0.3038
  527MOL0     C69493   6.194   2.638  10.581  0.3468 -0.2628 -0.9012
  527MOL0     C69494   6.174   2.500  10.533  0.1583 -0.3836  0.2460
  527MOL0     C69495   6.190   2.484  10.389 -0.2782  0.6320 -0.2066
  527MOL0     C69496   6.200   2.457  10.274  0.3361 -0.4854  0.3285
  527MOL0     C69497   6.635   2.499  10.757 -0.4233  0.1542 -0.8369
  527MOL0     C69498   6.768   2.515  10.721  0.3847 -0.8397  0.2994
  527MOL0     H69499   7.128   2.327  10.515 -0.5349 -0.6279  3.6581
  527MOL0     H69500   7.379   2.292  10.471  0.7601  0.5805 -0.2098
  527MOL0     H69501   7.669   2.491  10.305  5.9351 -1.3724  2.8289
  527MOL0     H69502   7.517   2.408  10.284 -1.4225 -0.8348  2.4368
  527MOL0     H69503   7.634   2.205  10.431  1.8691 -0.2416 -0.5948
  527MOL0     H69504   7.785   2.282  10.400 -0.0057 -0.5160  3.0709
  527MOL0     H69505   7.761   2.281  10.151  0.2384 -0.8605 -0.8012
  527MOL0     H69506   7.619   2.192  10.169  0.6321 -2.7704 -0.1885
  527MOL0     H69507   7.787   2.024  10.330 -0.3753 -1.4060 -0.4419
  527MOL0     H69508   7.735   2.005  10.166 -0.8077  0.8666  1.4632
  527MOL0     H69509   7.981   2.167  10.264  1.0543  0.7923  0.4827
  527MOL0     H69510   7.937   2.140  10.085 -1.0653 -0.1097  0.1990
  527MOL0     H69511   7.952   1.904  10.109 -0.3611 -0.0757  0.8200
  527MOL0     H69512   7.998   1.921  10.276 -3.6804  2.7763  0.4371
  527MOL0     H69513   8.161   2.043  10.058 -0.5347  1.1217  1.0026
  527MOL0     H69514   8.221   2.001  10.214  1.6924 -1.1743 -1.9870
  527MOL0     H69515   8.127   1.794  10.013 -2.6690  0.0903  2.9830
  527MOL0     H69516   8.216   1.763  10.162 -1.0088  0.5083  0.1511
  527MOL0     H69517   8.260   1.918   9.808  1.9923  0.6995 -1.5131
  527MOL0     H69518   8.561   1.897   9.684 -2.7159  0.7099 -3.1596
  527MOL0     H69519   8.658   2.012   9.785 -0.9800  2.0108 -0.9415
  527MOL0     H69520   8.414   2.105   9.625  0.0152 -0.0645 -0.3326
  527MOL0     H69521   8.575   2.098   9.568 -3.2084 -1.2224 -2.6010
  527MOL0     H69522   8.657   2.236   9.747  0.3685 -3.3743 -0.1562
  527MOL0     H69523   8.535   2.327   9.654 -0.0005  0.8074  0.3892
  527MOL0     H69524   8.478   2.384   9.889  1.3369 -0.2115  0.5269
  527MOL0     H69525   8.455   2.220   9.925  0.6618 -1.8597 -1.1534
  527MOL0     H69526   8.107   2.322   9.691  2.5577  1.0604 -0.8117
  527MOL0     H69527   7.893   2.421   9.810  0.3953  1.9130 -1.8219
  527MOL0     H69528   7.501   2.452  10.003 -3.0481 -0.2417  2.6117
  527MOL0     H69529   7.329   2.590  10.111 -0.1584 -0.0915 -1.1660
  527MOL0     H69530   7.267   2.959  10.114 -0.3954 -0.9999  0.7215
  527MOL0     H69531   7.416   3.019  10.194  1.1939 -0.5697 -0.7743
  527MOL0     H69532   7.287   3.008  10.415  0.0041 -0.2095 -0.2549
  527MOL0     H69533   7.149   2.954  10.330  1.2332 -1.1043 -0.7411
  527MOL0     H69534   7.162   3.175  10.194  1.5749  1.3121 -0.5874
  527MOL0     H69535   7.312   3.210  10.285 -2.2076  2.3305  2.8998
  527MOL0     H69536   7.036   3.159  10.393 -0.9022  1.3622 -0.0310
  527MOL0     H69537   7.185   3.191  10.491 -1.1778 -0.4565  0.7439
  527MOL0     H69538   6.982   3.362  10.443  0.5308  0.2680  0.8268
  527MOL0     H69539   7.051   3.379  10.286 -0.8244  2.2333  0.5154
  527MOL0     H69540   7.265   3.476  10.376  0.5192 -0.1067  0.4103
  527MOL0     H69541   7.192   3.457  10.541 -0.1010  1.7590  0.5697
  527MOL0     H69542   7.166   3.681  10.379 -1.6867 -0.1250 -1.2495
  527MOL0     H69543   7.019   3.604  10.357  0.0520 -0.7726 -0.4866
  527MOL0     H69544   6.990   3.570  10.589  0.6765  0.9081  1.8419
  527MOL0     H69545   7.009   3.745  10.570  1.2303  0.8925  0.4401
  527MOL0     H69546   7.613   2.910  10.161 -0.1116  0.5008 -2.2128
  527MOL0     H69547   7.784   2.775  10.054  0.4545  0.2377 -1.3680
  527MOL0     H69548   8.152   2.541  10.136 -0.5790  1.3528 -0.0635
  527MOL0     H69549   8.329   2.451  10.030 -1.7216  1.2598  2.0403
  527MOL0     H69550   7.481   2.674  10.600 -0.5206  0.5379  1.5311
  527MOL0     H69551   7.244   2.728  10.664 -0.7431  1.9257 -2.2738
  527MOL0     H69552   6.730   2.845  10.633  2.3781  1.0374  1.4042
  527MOL0     H69553   6.512   2.815  10.723 -2.7137 -1.7494  1.0431
  527MOL0     H69554   6.333   2.775  10.810  0.3497 -0.1914 -0.7063
  527MOL0     H69555   6.279   2.647  10.917  1.2089 -2.1572 -1.0445
  527MOL0     H69556   6.121   2.565  10.764  2.7296 -2.6383 -1.5253
  527MOL0     H69557   6.109   2.742  10.748 -0.2638  0.0118 -3.6128
  527MOL0     H69558   6.295   2.671  10.552  1.3315 -2.3010 -0.0075
  527MOL0     H69559   6.127   2.715  10.542  1.6751  1.6023  0.3470
  527MOL0     H69560   6.243   2.429  10.580 -0.1805 -0.9287 -0.0638
  527MOL0     H69561   6.074   2.471  10.566 -0.7238  2.2140  0.1020
  527MOL0     H69562   6.223   2.424  10.175  1.9031 -0.3083  0.6084
  527MOL0     H69563   6.606   2.396  10.776  4.5098 -1.1153  1.4380
  527MOL0     H69564   6.821   2.421  10.717  2.8000  0.3921  1.2201
  528MOL0     O69565   5.110  10.034   4.400  0.5312  0.5898 -0.9484
  528MOL0     C69566   5.088  10.106   4.500  0.3627  0.2596  0.0292
  528MOL0     O69567   4.996  10.079   4.607 -0.3900 -0.6661  0.5476
  528MOL0     C69568   4.914   9.958   4.591  0.3491 -0.1548 -0.0774
  528MOL0     C69569   4.778   9.978   4.565  1.0129  0.0299  0.1970
  528MOL0     C69570   4.686   9.870   4.562  0.7780  0.6943 -0.6393
  528MOL0     C69571   4.737   9.739   4.580  0.2547  0.3282 -0.4381
  528MOL0     O69572   4.641   9.646   4.557 -0.1192 -0.2676  0.2833
  528MOL0     C69573   4.646   9.510   4.608 -0.7730 -0.1002  0.8666
  528MOL0     C69574   4.513   9.436   4.597  0.2625 -0.4300  1.1557
  528MOL0     C69575   4.403   9.509   4.690  0.2896  0.0561  0.0460
  528MOL0     C69576   4.277   9.419   4.705 -0.6462 -0.3190 -0.0438
  528MOL0     C69577   4.158   9.467   4.789  0.2775  0.2879  0.1002
  528MOL0     C69578   4.176   9.496   4.939  0.4452 -0.6521  0.1216
  528MOL0     C69579   4.238   9.377   5.016  0.8572  1.0067 -0.1486
  528MOL0     C69580   4.146   9.249   5.019  0.4978  0.0899  0.7421
  528MOL0     N69581   4.041   9.265   5.123  0.1272  0.6913  1.4106
  528MOL0     C69582   3.927   9.330   5.107  0.1106 -0.6009  0.0337
  528MOL0     C69583   3.843   9.290   5.209  1.0677  0.1127  0.8726
  528MOL0     C69584   3.710   9.344   5.248  1.3058  0.6009  0.8432
  528MOL0     C69585   3.615   9.362   5.124  0.3140 -0.2510  0.8199
  528MOL0     C69586   3.530   9.492   5.126  0.5027  0.3953 -0.0249
  528MOL0     C69587   3.383   9.470   5.183 -0.7688 -0.2405 -0.0392
  528MOL0     O69588   3.386   9.512   5.315  0.0023 -0.1074 -0.4474
  528MOL0     C69589   3.276   9.550   5.382 -0.4806  0.2193  0.3117
  528MOL0     C69590   3.145   9.579   5.331  0.1049 -0.0063  0.5026
  528MOL0     C69591   3.046   9.621   5.410 -0.3562 -0.2674  0.3292
  528MOL0     C69592   3.067   9.653   5.539 -1.2129 -0.6908  0.2087
  528MOL0     C69593   2.954   9.698   5.624 -0.0742 -1.1520  0.0863
  528MOL0     O69594   2.823   9.686   5.579  0.6970  0.8633  0.1570
  528MOL0     C69595   2.714   9.739   5.645  0.6377 -0.0840 -0.1912
  528MOL0     C69596   2.634   9.822   5.571  0.0413  0.1756  0.1530
  528MOL0     C69597   2.519   9.874   5.630  0.6219  0.6563  0.2562
  528MOL0     C69598   2.487   9.840   5.763 -0.2280 -0.5947  0.7336
  528MOL0     O69599   2.375   9.906   5.808  0.1423 -0.1132  0.2908
  528MOL0     C69600   2.283   9.848   5.896  0.1015  0.2651  0.7753
  528MOL0     C69601   2.143   9.902   5.890  0.6733 -0.4414  0.2213
  528MOL0     C69602   2.065   9.868   5.767  1.0353 -0.0522  0.0869
  528MOL0     C69603   1.923   9.943   5.775 -0.3301 -0.1276  0.3130
  528MOL0     C69604   1.821   9.872   5.677  0.8124 -1.1342 -1.1099
  528MOL0     C69605   1.839   9.887   5.526  0.2417  0.6092  0.2997
  528MOL0     C69606   1.831  10.028   5.483 -0.5927 -0.0941  0.0574
  528MOL0     C69607   1.816  10.044   5.329  1.2869 -1.0310 -0.2736
  528MOL0    Cl69608   1.680   9.963   5.261 -0.2129 -0.1048  0.2468
  528MOL0     C69609   2.564   9.747   5.832  0.2757 -0.1821  0.1373
  528MOL0     C69610   2.675   9.699   5.770 -0.7601  0.2773 -0.0142
  528MOL0     O69611   2.989   9.758   5.726  0.5255 -0.1415  0.5119
  528MOL0     C69612   3.189   9.622   5.600 -0.2282 -0.2633  0.4100
  528MOL0     C69613   3.286   9.569   5.521  0.0465 -0.8492  0.2514
  528MOL0     N69614   3.919   9.203   5.287  0.1563  0.2255 -0.4534
  528MOL0     N69615   4.030   9.183   5.231 -0.3551  0.8071 -0.7775
  528MOL0     C69616   4.872   9.722   4.616  0.7897 -0.0038  0.3081
  528MOL0     C69617   4.955   9.827   4.623 -0.3821  0.3034  0.2955
  528MOL0     C69618   5.155  10.228   4.504 -0.5115  0.6105 -0.4604
  528MOL0     C69619   5.126  10.332   4.586  0.5271  0.3383 -0.3288
  528MOL0     C69620   5.187  10.456   4.563 -0.5770 -0.1465 -0.1202
  528MOL0     C69621   5.280  10.484   4.452 -0.9634  0.0997 -0.2081
  528MOL0     O69622   5.338  10.612   4.442  0.1365 -1.0748  0.1403
  528MOL0     C69623   5.410  10.626   4.321 -0.1089 -0.6710 -0.8368
  528MOL0     C69624   5.314  10.635   4.197  0.3971  0.5786 -0.9444
  528MOL0     C69625   5.399  10.691   4.090 -0.5701 -0.1313  0.4959
  528MOL0     C69626   5.430  10.841   4.083  0.3474 -0.2777 -0.3844
  528MOL0     C69627   5.558  10.863   4.024 -0.0940 -0.3572 -0.3082
  528MOL0     C69628   5.659  10.896   3.966  0.3530 -0.5190  0.0600
  528MOL0     C69629   5.314  10.368   4.379 -0.4705 -0.5843 -0.2997
  528MOL0     C69630   5.253  10.244   4.403 -0.3335 -0.4380 -1.2456
  528MOL0     H69631   4.743  10.076   4.537  1.4766  0.5250  1.3252
  528MOL0     H69632   4.580   9.880   4.543 -0.1066  1.5995  3.7094
  528MOL0     H69633   4.675   9.505   4.713 -2.7211  3.9975  1.7746
  528MOL0     H69634   4.722   9.459   4.547  0.3718  2.4076  0.0176
  528MOL0     H69635   4.529   9.333   4.630 -1.0617 -0.0021  3.3708
  528MOL0     H69636   4.472   9.419   4.497 -1.9296  2.0764  1.5179
  528MOL0     H69637   4.386   9.607   4.645 -1.6082  0.1570  0.8983
  528MOL0     H69638   4.448   9.526   4.788  3.1765  4.0358 -1.6939
  528MOL0     H69639   4.256   9.392   4.601  2.4930 -1.5589 -0.4601
  528MOL0     H69640   4.310   9.323   4.747 -0.2301  0.2114  0.8634
  528MOL0     H69641   4.068   9.408   4.772 -0.6947  2.3286 -2.4516
  528MOL0     H69642   4.120   9.563   4.753 -4.4181 -0.7377  1.6195
  528MOL0     H69643   4.080   9.532   4.977 -0.6568 -2.7828 -0.4852
  528MOL0     H69644   4.242   9.583   4.940 -0.0327 -0.1381 -3.0150
  528MOL0     H69645   4.336   9.370   4.968  1.4146  2.4073  0.7005
  528MOL0     H69646   4.243   9.408   5.121  1.9148  0.5453 -0.0497
  528MOL0     H69647   4.232   9.189   5.050  3.0403  3.4350  0.7309
  528MOL0     H69648   4.095   9.237   4.923 -4.1338  1.6093  2.7175
  528MOL0     H69649   3.915   9.405   5.030 -3.5717 -0.1380  0.8408
  528MOL0     H69650   3.720   9.436   5.306  0.2066 -0.2805  2.5198
  528MOL0     H69651   3.666   9.282   5.327  1.2151 -0.4571 -0.0080
  528MOL0     H69652   3.549   9.275   5.110 -0.0919  0.3387 -1.3978
  528MOL0     H69653   3.670   9.358   5.030  0.1251  1.7859  0.5759
  528MOL0     H69654   3.581   9.575   5.176 -1.6092 -0.2304  3.5513
  528MOL0     H69655   3.527   9.512   5.018 -1.3607  0.5784  0.0219
  528MOL0     H69656   3.350   9.366   5.184 -1.3706 -0.0557 -0.0711
  528MOL0     H69657   3.314   9.524   5.117  0.4418 -1.8617 -2.8206
  528MOL0     H69658   3.124   9.555   5.227  0.8425 -2.2812  0.8231
  528MOL0     H69659   2.947   9.636   5.368 -0.2418  1.0557  0.4872
  528MOL0     H69660   2.676   9.849   5.475  1.2473  5.1374  1.7837
  528MOL0     H69661   2.456   9.940   5.571  0.9974  1.1978  0.4473
  528MOL0     H69662   2.319   9.859   5.999  1.2923  0.6713  0.3332
  528MOL0     H69663   2.281   9.741   5.874 -0.5730  0.2202  1.0292
  528MOL0     H69664   2.155  10.010   5.900  0.8517 -0.4015 -0.3939
  528MOL0     H69665   2.096   9.860   5.980 -0.1822 -1.5200 -0.6885
  528MOL0     H69666   2.042   9.761   5.771  0.3520  0.0808 -0.2051
  528MOL0     H69667   2.123   9.892   5.678  0.2836  0.5193 -0.2548
  528MOL0     H69668   1.888   9.956   5.878  1.6094  0.4922  0.9211
  528MOL0     H69669   1.927  10.047   5.742  0.3929 -0.0585  0.6132
  528MOL0     H69670   1.723   9.915   5.697  0.9499 -1.1019 -0.5071
  528MOL0     H69671   1.815   9.765   5.697  0.0102 -1.2233 -1.7895
  528MOL0     H69672   1.755   9.828   5.490  0.9347 -1.3966  1.7734
  528MOL0     H69673   1.932   9.846   5.486  0.5640  1.7474 -0.1706
  528MOL0     H69674   1.743  10.075   5.528 -0.5201  1.3588 -1.2377
  528MOL0     H69675   1.903  10.104   5.514 -4.0636  2.4031  2.8051
  528MOL0     H69676   1.904   9.997   5.284  1.5328 -2.1172  1.2606
  528MOL0     H69677   1.802  10.152   5.321 -0.3481 -1.2704 -1.1705
  528MOL0     H69678   2.518   9.718   5.926  1.0039 -0.5027  0.3974
  528MOL0     H69679   2.743   9.627   5.815  0.5507  1.0597 -0.6607
  528MOL0     H69680   3.200   9.629   5.707 -1.5163 -0.0460  0.5516
  528MOL0     H69681   3.383   9.544   5.561  0.6663 -0.8215 -1.2000
  528MOL0     H69682   4.919   9.628   4.643 -0.4531 -0.3583  1.3546
  528MOL0     H69683   5.058   9.807   4.652 -0.0760  0.6328 -0.5536
  528MOL0     H69684   5.069  10.321   4.678  0.5002 -0.2531 -0.4145
  528MOL0     H69685   5.166  10.549   4.615  0.9810  1.0976 -1.6028
  528MOL0     H69686   5.485  10.546   4.316  0.5201 -0.2194  0.7463
  528MOL0     H69687   5.466  10.720   4.323  0.6559 -1.0839  2.4096
  528MOL0     H69688   5.281  10.533   4.172  2.4060 -0.8995  1.8081
  528MOL0     H69689   5.232  10.696   4.234  1.8462  1.3894  1.1162
  528MOL0     H69690   5.346  10.665   3.998 -0.5209 -0.8315  0.6564
  528MOL0     H69691   5.497  10.642   4.086  0.5911  2.0035 -4.2021
  528MOL0     H69692   5.349  10.892   4.029 -0.7353 -2.3801 -0.8392
  528MOL0     H69693   5.435  10.877   4.187 -1.0999 -2.9584  0.7297
  528MOL0     H69694   5.751  10.917   3.915  0.4053 -1.1685 -0.1260
  528MOL0     H69695   5.394  10.374   4.305  1.2771 -2.7732  1.2696
  528MOL0     H69696   5.278  10.157   4.343 -0.5818 -0.8472 -0.7660
  529MOL0     O69697   4.718   3.970   6.287 -0.1472 -0.7934 -0.2266
  529MOL0     C69698   4.791   3.878   6.322  0.5207 -0.2058 -0.0415
  529MOL0     O69699   4.918   3.861   6.292 -0.7027 -0.7663 -0.3420
  529MOL0     C69700   5.003   3.955   6.231 -0.1883  0.8377 -0.2153
  529MOL0     C69701   5.090   3.906   6.133  0.1493 -0.3641 -1.0800
  529MOL0     C69702   5.167   3.997   6.065  0.1978  0.1602 -0.9807
  529MOL0     C69703   5.145   4.132   6.071 -0.6082  0.0993 -0.0857
  529MOL0     O69704   5.203   4.228   5.987  0.2570 -0.4747  0.0015
  529MOL0     C69705   5.262   4.188   5.856  0.4148 -0.5889 -0.4695
  529MOL0     C69706   5.383   4.283   5.813 -0.3427  0.4424 -1.0791
  529MOL0     C69707   5.340   4.429   5.812  0.3700 -0.4543 -0.1750
  529MOL0     C69708   5.468   4.499   5.770  0.2382 -0.0312  0.0486
  529MOL0     C69709   5.455   4.654   5.763  0.0221  0.1058  0.5470
  529MOL0     C69710   5.346   4.701   5.655 -0.6081  0.2799 -0.0489
  529MOL0     C69711   5.348   4.849   5.641  0.7749  0.5635  0.1999
  529MOL0     C69712   5.246   4.897   5.539  0.3989  0.3236  0.5666
  529MOL0     N69713   5.101   4.874   5.571  0.0270 -0.0179  0.1442
  529MOL0     C69714   5.025   4.967   5.646  0.5407  0.6784 -1.0636
  529MOL0     C69715   4.904   4.912   5.671  0.6590  0.4971  0.2499
  529MOL0     C69716   4.793   4.963   5.752  1.1582  0.3339  0.2514
  529MOL0     C69717   4.655   4.964   5.681 -0.9901  0.2961  0.1498
  529MOL0     C69718   4.556   5.006   5.782 -0.7971  0.2839 -0.4767
  529MOL0     C69719   4.417   5.012   5.717  0.2234 -0.3111  0.4130
  529MOL0     O69720   4.325   5.061   5.817 -0.1502 -0.4293  1.0527
  529MOL0     C69721   4.189   5.040   5.788 -0.0989 -0.4234 -0.0553
  529MOL0     C69722   4.136   5.012   5.661  1.3132  0.2821 -0.4629
  529MOL0     C69723   3.999   4.995   5.643  0.1658  0.2065 -0.1931
  529MOL0     C69724   3.902   5.026   5.738 -0.6375  0.9790 -0.3301
  529MOL0     C69725   3.764   4.992   5.709 -0.5460 -0.1410  0.2783
  529MOL0     O69726   3.672   5.023   5.812 -0.4713 -0.1512  0.0887
  529MOL0     C69727   3.538   4.986   5.835 -0.4776 -0.2534 -0.1773
  529MOL0     C69728   3.455   4.919   5.737 -0.4688 -0.7096  0.4824
  529MOL0     C69729   3.321   4.893   5.764  0.4978  0.2393 -0.2607
  529MOL0     C69730   3.276   4.938   5.891 -0.4947  0.0120 -0.6436
  529MOL0     O69731   3.147   4.909   5.933  0.5076  0.3276 -0.2083
  529MOL0     C69732   3.052   4.990   5.866  0.2404 -0.2374 -0.1634
  529MOL0     C69733   2.921   4.930   5.833 -0.5891 -0.7209 -0.3565
  529MOL0     C69734   2.828   5.025   5.755  0.8812 -0.3831 -0.9187
  529MOL0     C69735   2.893   5.081   5.621 -0.1369 -0.1218 -0.1670
  529MOL0     C69736   2.795   5.175   5.539  0.0393  0.5168  0.7028
  529MOL0     C69737   2.860   5.257   5.431  0.1875  0.1357 -0.7376
  529MOL0     C69738   2.872   5.408   5.466  0.5536 -0.4006  0.5078
  529MOL0     C69739   2.927   5.490   5.346  0.2070 -0.2350 -0.0334
  529MOL0    Cl69740   3.080   5.416   5.298  0.0554  0.3015  0.5562
  529MOL0     C69741   3.352   5.002   5.983  0.1408 -0.0503  0.1642
  529MOL0     C69742   3.485   5.038   5.950  0.5122 -0.3431 -0.2945
  529MOL0     O69743   3.733   4.939   5.604 -0.0055 -0.2557  0.0227
  529MOL0     C69744   3.949   5.063   5.866  0.5564 -0.3447 -0.3186
  529MOL0     C69745   4.090   5.073   5.885 -0.0666  0.3619  0.6115
  529MOL0     N69746   4.897   4.800   5.588  0.1273  0.2405 -0.3923
  529MOL0     N69747   5.021   4.784   5.533 -0.1290  0.1544  1.2189
  529MOL0     C69748   5.064   4.174   6.182 -0.1971 -0.5911  0.3286
  529MOL0     C69749   4.988   4.086   6.260 -0.7543 -1.2565  0.1065
  529MOL0     C69750   4.746   3.775   6.417  1.3126  0.3390  0.8466
  529MOL0     C69751   4.629   3.791   6.484 -1.0390 -0.6792  0.1212
  529MOL0     C69752   4.578   3.699   6.579  0.3068  0.1439 -0.5314
  529MOL0     C69753   4.649   3.587   6.607 -1.3038  1.1333 -0.2910
  529MOL0     O69754   4.612   3.488   6.690 -0.0695  0.8336 -0.6610
  529MOL0     C69755   4.485   3.492   6.762  0.7711 -0.6199  0.9716
  529MOL0     C69756   4.372   3.424   6.678  0.6910 -0.3575 -0.5576
  529MOL0     C69757   4.232   3.460   6.733 -0.0821 -1.0176  0.3096
  529MOL0     C69758   4.181   3.603   6.709  0.2965  0.2980  0.1544
  529MOL0     C69759   4.074   3.640   6.804  0.7157 -0.0396  0.1438
  529MOL0     C69760   3.982   3.675   6.875  0.3278  0.0024  1.2129
  529MOL0     C69761   4.773   3.570   6.541  0.2802  0.3967 -0.5078
  529MOL0     C69762   4.819   3.663   6.446  0.4888  0.9716  0.3136
  529MOL0     H69763   5.100   3.798   6.120 -0.4158 -0.1860 -3.3551
  529MOL0     H69764   5.239   3.952   5.996  3.0524 -1.1592  2.5328
  529MOL0     H69765   5.188   4.197   5.776 -1.7745  0.4377  1.5279
  529MOL0     H69766   5.301   4.086   5.858 -2.6007 -1.8434  1.0503
  529MOL0     H69767   5.406   4.263   5.708  0.1446  1.9018 -1.2758
  529MOL0     H69768   5.467   4.270   5.882 -1.8385  2.2383  1.2264
  529MOL0     H69769   5.323   4.463   5.915  2.9924 -3.3998  1.4005
  529MOL0     H69770   5.263   4.461   5.742 -0.1123  0.9597  0.9578
  529MOL0     H69771   5.547   4.475   5.842 -0.8959 -1.1029  0.9871
  529MOL0     H69772   5.497   4.456   5.674 -1.4914  0.6835 -0.8226
  529MOL0     H69773   5.550   4.706   5.745  0.3545 -0.7338 -0.2269
  529MOL0     H69774   5.433   4.687   5.865  1.2701 -1.5085  1.3927
  529MOL0     H69775   5.248   4.662   5.683  0.1166 -0.4372  1.6023
  529MOL0     H69776   5.366   4.644   5.563 -1.1311 -0.1087  0.0736
  529MOL0     H69777   5.320   4.897   5.736  0.1364  2.0175 -0.6880
  529MOL0     H69778   5.443   4.889   5.605  0.1967  1.4051 -0.4434
  529MOL0     H69779   5.265   4.844   5.445 -0.7994 -1.9087  1.5020
  529MOL0     H69780   5.256   5.005   5.524  1.1140  0.4831  2.0353
  529MOL0     H69781   5.058   5.049   5.709  1.0967  0.8791 -1.5995
  529MOL0     H69782   4.811   5.061   5.796  0.6049  1.1610 -1.3130
  529MOL0     H69783   4.793   4.895   5.838  0.9958  1.5957  1.2699
  529MOL0     H69784   4.627   4.865   5.645 -1.3290  0.1387  0.8472
  529MOL0     H69785   4.668   5.032   5.596 -1.0508 -1.8376 -1.6694
  529MOL0     H69786   4.554   4.928   5.859 -0.8614  0.8747  0.1329
  529MOL0     H69787   4.584   5.097   5.835  1.0428 -1.3998  1.6142
  529MOL0     H69788   4.387   4.910   5.692  2.6386 -0.5689 -1.9182
  529MOL0     H69789   4.413   5.078   5.629 -0.4927 -2.0000 -0.8744
  529MOL0     H69790   4.208   5.004   5.580 -1.6771 -0.0818 -3.2918
  529MOL0     H69791   3.970   4.966   5.542  1.3380 -4.4434  0.5843
  529MOL0     H69792   3.497   4.881   5.645 -1.2207 -1.1333  0.3008
  529MOL0     H69793   3.257   4.831   5.701 -1.6729  1.9665  0.1376
  529MOL0     H69794   3.092   5.036   5.775 -2.0515  2.4350  0.0440
  529MOL0     H69795   3.035   5.086   5.916 -3.6261  0.7638 -2.9270
  529MOL0     H69796   2.874   4.898   5.927 -1.0464  2.2943  0.5549
  529MOL0     H69797   2.926   4.840   5.771  0.8927 -0.7046 -0.2824
  529MOL0     H69798   2.797   5.106   5.821  0.0588 -1.9681  0.6998
  529MOL0     H69799   2.737   4.972   5.725  0.5668  1.2412 -3.0675
  529MOL0     H69800   2.975   5.145   5.655  3.0732 -3.4415 -1.0671
  529MOL0     H69801   2.927   4.996   5.561 -2.6635  1.5055 -4.3454
  529MOL0     H69802   2.752   5.253   5.603  1.2974  4.4770 -2.8866
  529MOL0     H69803   2.709   5.119   5.499  0.2055 -0.0088  1.0612
  529MOL0     H69804   2.823   5.241   5.329  1.8104 -1.3884 -1.1263
  529MOL0     H69805   2.963   5.226   5.410 -0.7820 -2.9967 -1.2934
  529MOL0     H69806   2.771   5.443   5.489  0.7662  1.2781 -0.9450
  529MOL0     H69807   2.933   5.429   5.554  0.3043 -0.6408  0.7427
  529MOL0     H69808   2.946   5.593   5.377 -2.9361  0.5522 -0.3987
  529MOL0     H69809   2.848   5.497   5.271 -0.6565 -0.8231  0.7816
  529MOL0     H69810   3.311   5.036   6.078  1.3493 -0.2904  0.7814
  529MOL0     H69811   3.529   5.091   6.034 -0.9348  2.1136 -0.9791
  529MOL0     H69812   3.887   5.068   5.955 -0.7815  0.1378 -1.2390
  529MOL0     H69813   4.127   5.079   5.987 -1.8003 -1.7160  1.4536
  529MOL0     H69814   5.050   4.278   6.208  1.9697 -0.1918  0.1019
  529MOL0     H69815   4.931   4.131   6.341 -0.3565  2.8929 -1.6203
  529MOL0     H69816   4.565   3.875   6.457 -2.6878 -2.6829 -2.8330
  529MOL0     H69817   4.484   3.712   6.632  2.0972 -1.9243  3.6434
  529MOL0     H69818   4.459   3.595   6.786  0.0423 -0.7531  0.7955
  529MOL0     H69819   4.505   3.445   6.858 -0.8176  1.5319  2.4431
  529MOL0     H69820   4.374   3.464   6.577 -1.0942  3.8012  0.8586
  529MOL0     H69821   4.389   3.315   6.683 -0.7864 -0.5740  0.6362
  529MOL0     H69822   4.234   3.447   6.842  0.2715  0.2072  0.4635
  529MOL0     H69823   4.158   3.396   6.684 -1.8924 -0.5162  2.2096
  529MOL0     H69824   4.256   3.682   6.707  3.3934 -2.4553 -2.0479
  529MOL0     H69825   4.140   3.602   6.608 -1.5589 -1.8076  0.8424
  529MOL0     H69826   3.898   3.718   6.926 -0.0815  1.3813 -0.5248
  529MOL0     H69827   4.836   3.482   6.546 -1.8752 -1.1242  1.5081
  529MOL0     H69828   4.902   3.639   6.379 -0.4221 -1.4881 -0.0434
  530MOL0     O69829  10.667   8.432   8.354  0.5933  0.1047 -0.1099
  530MOL0     C69830  10.683   8.531   8.280 -0.2711 -0.3196  1.4522
  530MOL0     O69831  10.700   8.659   8.317  0.1088 -0.1999  0.5766
  530MOL0     C69832  10.733   8.668   8.449  1.1522  0.1500  0.5032
  530MOL0     C69833  10.644   8.720   8.543  0.5171 -0.4393 -0.3262
  530MOL0     C69834  10.675   8.724   8.683 -0.6343 -1.1921  0.1999
  530MOL0     C69835  10.801   8.681   8.720 -0.3645 -0.7962 -0.6496
  530MOL0     O69836  10.847   8.713   8.849 -0.0435  0.0080 -0.3808
  530MOL0     C69837  10.851   8.855   8.889 -0.4182 -0.4866 -0.6722
  530MOL0     C69838  10.872   8.864   9.038  0.2141 -0.1894  0.7153
  530MOL0     C69839  10.867   9.009   9.089 -0.6818 -1.0851 -0.2204
  530MOL0     C69840  10.858   9.019   9.239  0.8534 -0.3926  0.6187
  530MOL0     C69841  10.893   9.162   9.294  0.2204 -0.1363 -0.7536
  530MOL0     C69842  11.034   9.208   9.253 -0.4244 -0.9111  0.5664
  530MOL0     C69843  11.075   9.317   9.354  0.2794  0.1518 -0.2986
  530MOL0     C69844  10.980   9.442   9.348  0.1941  0.2229  0.4040
  530MOL0     N69845  10.882   9.447   9.465  0.1451  0.5115  0.7620
  530MOL0     C69846  10.903   9.422   9.599 -0.1653 -0.5361 -0.0231
  530MOL0     C69847  10.778   9.434   9.656  0.0844 -0.2769 -0.4472
  530MOL0     C69848  10.749   9.422   9.804 -0.8544 -0.3479 -0.4382
  530MOL0     C69849  10.727   9.272   9.833  0.2815 -0.5791 -0.7726
  530MOL0     C69850  10.860   9.201   9.861  0.1390 -0.7528 -0.1000
  530MOL0     C69851  10.946   9.271   9.967 -0.5724  0.4007  0.6449
  530MOL0     O69852  11.049   9.175  10.014  0.2606  0.2477  1.0346
  530MOL0     C69853  11.144   9.222  10.095  0.4159  0.8577 -1.2470
  530MOL0     C69854  11.142   9.335  10.176  0.8661  0.4922 -0.1530
  530MOL0     C69855  11.244   9.364  10.268  0.1563 -0.6377  0.0742
  530MOL0     C69856  11.342   9.272  10.294 -0.5750  0.0950  0.2120
  530MOL0     C69857  11.463   9.310  10.375 -0.1052  0.2365  0.2863
  530MOL0     O69858  11.471   9.428  10.424 -0.3081  0.0914  1.0071
  530MOL0     C69859  11.562   9.464  10.520 -0.8004  1.1000  0.6586
  530MOL0     C69860  11.626   9.585  10.505 -0.1457 -0.4185 -0.1130
  530MOL0     C69861  11.718   9.635  10.594 -0.6644  0.5646  0.1828
  530MOL0     C69862  11.735   9.568  10.718 -0.0633 -0.0276 -0.4271
  530MOL0     O69863  11.819   9.628  10.808  0.1077  0.2683  0.1262
  530MOL0     C69864  11.797   9.606  10.951 -0.0414  0.7904 -0.0803
  530MOL0     C69865  11.915   9.534  11.014 -0.3597  0.9993  0.0239
  530MOL0     C69866  11.910   9.537  11.165  0.8574 -0.8696 -0.8250
  530MOL0     C69867  12.019   9.450  11.224 -0.6120  0.5926 -0.7614
  530MOL0     C69868  12.051   9.467  11.369 -0.1376  0.1614 -0.9015
  530MOL0     C69869  12.120   9.602  11.386  0.1155 -0.7282  0.0458
  530MOL0     C69870  12.137   9.620  11.531 -0.4426  0.6936 -0.1734
  530MOL0     C69871  12.153   9.771  11.570 -0.4747 -0.5106  1.1531
  530MOL0    Cl69872  12.295   9.853  11.508  0.3555  0.2963  0.5505
  530MOL0     C69873  11.657   9.446  10.740 -0.2536 -0.9708 -0.3957
  530MOL0     C69874  11.571   9.397  10.642  0.1297 -0.6452 -0.0718
  530MOL0     O69875  11.553   9.229  10.393 -0.7327  0.4362  0.2971
  530MOL0     C69876  11.341   9.145  10.223  0.3301  0.3493 -0.6131
  530MOL0     C69877  11.243   9.122  10.125  0.0922  0.1212 -0.1484
  530MOL0     N69878  10.688   9.462   9.555  0.2920 -0.3129  1.1891
  530MOL0     N69879  10.748   9.455   9.439 -0.6839 -0.5754  0.5584
  530MOL0     C69880  10.888   8.635   8.626 -0.0285  0.3679  0.6856
  530MOL0     C69881  10.854   8.624   8.499  0.1155 -0.3589  0.7256
  530MOL0     C69882  10.676   8.506   8.137 -1.1249  0.4238  1.3437
  530MOL0     C69883  10.629   8.386   8.094  0.2386 -0.2347  0.3064
  530MOL0     C69884  10.615   8.360   7.958  0.3345  0.0005 -0.2503
  530MOL0     C69885  10.663   8.446   7.859 -0.2814  0.0952 -0.7881
  530MOL0     O69886  10.679   8.406   7.728 -0.2771 -0.0811 -0.8752
  530MOL0     C69887  10.565   8.422   7.645  0.3027 -0.5367  0.5162
  530MOL0     C69888  10.553   8.319   7.536  0.3268 -0.4046  0.5871
  530MOL0     C69889  10.427   8.358   7.450 -0.7517  0.2597 -0.7197
  530MOL0     C69890  10.436   8.318   7.299 -0.7136  0.1002 -0.3975
  530MOL0     C69891  10.557   8.358   7.231 -0.2124  0.4467 -0.2899
  530MOL0     C69892  10.649   8.398   7.175 -0.3146  0.1179  1.5308
  530MOL0     C69893  10.720   8.569   7.891 -0.3327 -0.2219 -0.1805
  530MOL0     C69894  10.725   8.597   8.033  0.2025 -0.2792  0.6910
  530MOL0     H69895  10.546   8.752   8.509  0.0406 -2.7762 -1.3158
  530MOL0     H69896  10.601   8.756   8.756 -1.6567  2.7993 -2.2345
  530MOL0     H69897  10.758   8.907   8.865 -2.2824 -3.2068  0.1542
  530MOL0     H69898  10.939   8.892   8.835  1.5450 -3.1696  0.4731
  530MOL0     H69899  10.974   8.837   9.068  0.9634  2.8743  1.3312
  530MOL0     H69900  10.798   8.800   9.086  0.3504 -0.6944  0.2574
  530MOL0     H69901  10.774   9.044   9.044 -0.5507 -0.5552 -0.0799
  530MOL0     H69902  10.946   9.075   9.052  0.2250 -2.5087 -0.9188
  530MOL0     H69903  10.763   8.988   9.283  1.1632 -1.5657  0.4917
  530MOL0     H69904  10.942   8.958   9.274  1.0961 -1.5769 -1.8152
  530MOL0     H69905  10.893   9.159   9.404  1.0836 -0.5444 -0.7614
  530MOL0     H69906  10.817   9.235   9.264 -1.6714 -0.8000  2.0411
  530MOL0     H69907  11.032   9.254   9.153 -2.8217  0.3716  1.1284
  530MOL0     H69908  11.111   9.131   9.254 -0.5493 -1.0322  0.9634
  530MOL0     H69909  11.093   9.283   9.457  1.9522  2.6865  0.3498
  530MOL0     H69910  11.165   9.355   9.306 -2.1062  3.9828 -2.2235
  530MOL0     H69911  10.926   9.453   9.254  0.8335 -0.3503 -0.0369
  530MOL0     H69912  11.045   9.528   9.362 -0.0934  0.6311 -0.6918
  530MOL0     H69913  10.994   9.401   9.654  0.1463  0.5772 -0.0955
  530MOL0     H69914  10.652   9.469   9.824  0.1811  1.5394  0.4033
  530MOL0     H69915  10.824   9.479   9.858 -3.1475  1.1831  1.3520
  530MOL0     H69916  10.690   9.217   9.746  0.6029  0.9364 -1.9238
  530MOL0     H69917  10.663   9.269   9.921 -1.4646  0.3552 -1.9489
  530MOL0     H69918  10.834   9.101   9.897  1.2127  0.4258  4.6027
  530MOL0     H69919  10.908   9.196   9.763 -0.7754  1.3284 -0.7242
  530MOL0     H69920  10.883   9.314  10.046  0.0461  2.0722  0.2747
  530MOL0     H69921  11.001   9.359   9.934  2.7243 -1.0596  1.8022
  530MOL0     H69922  11.061   9.406  10.161 -0.4818 -1.2046 -1.3510
  530MOL0     H69923  11.227   9.459  10.317 -3.1674 -0.4355 -1.2115
  530MOL0     H69924  11.608   9.635  10.410  0.6086  3.1635  1.4371
  530MOL0     H69925  11.768   9.726  10.564  2.7774 -1.4579 -0.6776
  530MOL0     H69926  11.710   9.543  10.971  1.1751 -0.2800  2.3851
  530MOL0     H69927  11.790   9.701  11.006  1.3032  0.7666  0.1813
  530MOL0     H69928  12.017   9.560  10.986  0.9707 -0.6231  2.9311
  530MOL0     H69929  11.916   9.428  10.984  0.9131  1.3704 -1.3864
  530MOL0     H69930  11.815   9.499  11.204  0.7755 -0.2759 -0.4298
  530MOL0     H69931  11.924   9.637  11.206 -1.0539 -1.9596  3.0063
  530MOL0     H69932  11.993   9.345  11.207 -1.2638  0.5361  0.4857
  530MOL0     H69933  12.106   9.463  11.158  0.0264  1.9223  0.2755
  530MOL0     H69934  12.129   9.394  11.393  0.7378  0.9568 -1.2581
  530MOL0     H69935  11.964   9.441  11.430  2.2502 -1.1822  2.2827
  530MOL0     H69936  12.050   9.682  11.360 -1.5268 -0.5458  4.3430
  530MOL0     H69937  12.222   9.598  11.346 -0.3720 -4.0201 -1.1908
  530MOL0     H69938  12.050   9.588  11.589  0.5744  0.2283  1.1348
  530MOL0     H69939  12.225   9.559  11.552 -1.2659 -1.5048 -2.6003
  530MOL0     H69940  12.149   9.789  11.677 -1.0834  1.8999  0.7719
  530MOL0     H69941  12.072   9.822  11.518 -1.1478 -2.3235  0.3140
  530MOL0     H69942  11.651   9.392  10.834  2.7401 -0.6826  0.0804
  530MOL0     H69943  11.519   9.302  10.654  1.6432 -1.7381 -1.7241
  530MOL0     H69944  11.424   9.077  10.239 -0.8607 -1.1894 -0.7415
  530MOL0     H69945  11.236   9.026  10.075  1.0151 -0.6741  1.1659
  530MOL0     H69946  10.988   8.601   8.651 -1.1035 -2.8707  1.1041
  530MOL0     H69947  10.922   8.573   8.430 -1.0903  0.3022 -1.0365
  530MOL0     H69948  10.595   8.314   8.168  2.8079  0.4083  2.2392
  530MOL0     H69949  10.570   8.265   7.932  1.6954 -2.2374  4.5140
  530MOL0     H69950  10.565   8.523   7.605 -1.7252 -0.7105 -0.0510
  530MOL0     H69951  10.477   8.412   7.709  0.4339  1.0307  0.9632
  530MOL0     H69952  10.643   8.319   7.475  0.2828  0.6726  0.5131
  530MOL0     H69953  10.530   8.221   7.580  2.0468 -0.2632  1.9554
  530MOL0     H69954  10.418   8.467   7.446  1.1195  0.6149  2.1478
  530MOL0     H69955  10.336   8.315   7.492 -1.4183  1.6526 -0.6700
  530MOL0     H69956  10.410   8.212   7.303 -3.2094  0.6547  0.2239
  530MOL0     H69957  10.348   8.360   7.248  0.5329  0.4963 -2.2969
  530MOL0     H69958  10.733   8.430   7.116 -2.1103  1.6523 -0.3539
  530MOL0     H69959  10.748   8.645   7.819  0.3204 -0.0981  0.2032
  530MOL0     H69960  10.774   8.689   8.063  2.6371 -0.9783 -0.8754
  531MOL0     O69961   7.655   6.581   4.902 -0.6584 -0.0015 -0.1382
  531MOL0     C69962   7.573   6.538   4.828  0.1291 -0.1162  0.5428
  531MOL0     O69963   7.566   6.548   4.693 -0.3319  0.3245 -0.4492
  531MOL0     C69964   7.664   6.616   4.629 -1.1338 -1.1712  0.4062
  531MOL0     C69965   7.709   6.746   4.658  1.6049 -1.0145 -1.1828
  531MOL0     C69966   7.803   6.817   4.587  0.3104 -1.1846  0.2747
  531MOL0     C69967   7.857   6.754   4.475 -0.0406  0.8229 -1.4830
  531MOL0     O69968   7.950   6.823   4.410 -0.3313 -0.4752 -0.1143
  531MOL0     C69969   7.901   6.888   4.291  0.2248  0.5365 -1.0236
  531MOL0     C69970   8.006   6.944   4.200 -0.1577  0.8736  0.6667
  531MOL0     C69971   8.003   7.095   4.211 -0.3443  0.6009  0.0533
  531MOL0     C69972   8.095   7.150   4.103  1.1480  0.0461  0.9492
  531MOL0     C69973   8.243   7.142   4.150 -0.1098 -0.1987  0.4948
  531MOL0     C69974   8.334   7.238   4.077 -0.6345 -0.7932  0.1472
  531MOL0     C69975   8.486   7.199   4.092  0.8120 -0.4363  0.0290
  531MOL0     C69976   8.588   7.307   4.071 -0.0023  0.0212 -0.2623
  531MOL0     N69977   8.724   7.261   4.098  0.3118 -0.4445  0.9421
  531MOL0     C69978   8.828   7.345   4.106 -0.0722 -0.4182  0.4575
  531MOL0     C69979   8.937   7.269   4.140  0.6041 -0.4609  0.4065
  531MOL0     C69980   9.076   7.332   4.126 -1.0637 -0.4382  0.4033
  531MOL0     C69981   9.131   7.389   4.257 -0.3963  0.7002 -0.5073
  531MOL0     C69982   9.220   7.287   4.336  0.4585 -1.1405 -1.3666
  531MOL0     C69983   9.146   7.156   4.369  0.9775  0.3755 -0.4045
  531MOL0     O69984   9.227   7.086   4.463 -0.0734  0.8292 -0.3803
  531MOL0     C69985   9.173   6.959   4.503 -0.3425 -0.3294 -0.1453
  531MOL0     C69986   9.058   6.901   4.459 -0.1453 -0.6568  0.2787
  531MOL0     C69987   9.023   6.771   4.497  0.0488  0.3783 -0.1689
  531MOL0     C69988   9.106   6.691   4.581  0.7451 -1.3526 -0.4196
  531MOL0     C69989   9.068   6.547   4.599  0.0092  0.3800  0.2008
  531MOL0     O69990   8.957   6.498   4.522  0.1253 -0.5006 -0.9343
  531MOL0     C69991   8.899   6.377   4.569  0.5918 -0.1575 -0.3514
  531MOL0     C69992   8.760   6.366   4.580  0.7416 -0.4310 -0.6410
  531MOL0     C69993   8.703   6.246   4.632  0.0996  0.0720 -0.2184
  531MOL0     C69994   8.774   6.132   4.655  0.1955  0.1977 -0.7440
  531MOL0     O69995   8.697   6.019   4.701  0.2634 -0.0307  0.7756
  531MOL0     C69996   8.768   5.899   4.728 -0.0073 -0.5102 -0.2616
  531MOL0     C69997   8.674   5.782   4.761 -0.1720  0.0372  0.1199
  531MOL0     C69998   8.589   5.747   4.633 -0.3247 -0.7140 -1.0093
  531MOL0     C69999   8.492   5.643   4.672  0.1770  0.2400  0.1023
  531MOL0     C70000   8.384   5.627   4.573  0.4694  0.5163 -0.0012
  531MOL0     C70001   8.418   5.521   4.461 -0.2839 -0.6176  0.7793
  531MOL0     C70002   8.301   5.510   4.364  0.0597  0.2438  1.0269
  531MOL0     C70003   8.328   5.478   4.216 -0.0818  0.1277 -0.3540
  531MOL0    Cl70004   8.167   5.477   4.129 -0.4859 -0.3535 -0.0856
  531MOL0     C70005   8.912   6.148   4.637  0.1181  0.8293  0.3476
  531MOL0     C70006   8.974   6.265   4.606  0.0122  0.6864  0.9242
  531MOL0     O70007   9.158   6.483   4.652  0.3861 -0.1755 -0.0124
  531MOL0     C70008   9.226   6.755   4.629  0.1075  0.6449  0.1881
  531MOL0     C70009   9.254   6.887   4.590 -0.4632  0.1293  0.3164
  531MOL0     N70010   8.892   7.133   4.124 -0.5838  1.0498  0.3780
  531MOL0     N70011   8.766   7.133   4.100 -0.1864  1.2914 -0.1003
  531MOL0     C70012   7.803   6.630   4.431 -1.0132  0.5069 -0.9648
  531MOL0     C70013   7.718   6.557   4.513 -0.7785  0.1959  0.4338
  531MOL0     C70014   7.462   6.465   4.897 -0.3211 -0.0921  1.1565
  531MOL0     C70015   7.334   6.449   4.834  0.4019 -0.4163 -0.8762
  531MOL0     C70016   7.223   6.390   4.900 -1.2681 -0.3025  0.5503
  531MOL0     C70017   7.251   6.331   5.023  0.0067  0.0119 -0.1325
  531MOL0     O70018   7.156   6.261   5.084  0.6977  0.4577 -0.7975
  531MOL0     C70019   7.094   6.153   5.014  0.4260  0.2866 -0.2026
  531MOL0     C70020   7.105   6.036   5.110 -0.5706 -0.9662 -0.4231
  531MOL0     C70021   7.002   5.926   5.077 -0.5658 -0.1450 -0.2350
  531MOL0     C70022   7.000   5.816   5.184 -0.9820  1.0541 -0.4662
  531MOL0     C70023   6.938   5.856   5.309  0.0096 -0.0274  0.4572
  531MOL0     C70024   6.893   5.867   5.420  0.0069 -0.8207 -0.2169
  531MOL0     C70025   7.378   6.330   5.082 -0.2752  0.4947  0.4871
  531MOL0     C70026   7.487   6.394   5.019 -0.6597 -0.3477  0.6640
  531MOL0     H70027   7.676   6.802   4.744  2.2623 -3.9676  1.1425
  531MOL0     H70028   7.836   6.914   4.623 -2.5723 -0.2778  0.7450
  531MOL0     H70029   7.827   6.958   4.331  1.6064  2.0740 -1.1103
  531MOL0     H70030   7.854   6.805   4.236  0.6816 -0.7427  0.4530
  531MOL0     H70031   7.982   6.916   4.097  2.9406  0.9247 -0.1595
  531MOL0     H70032   8.107   6.905   4.218  0.8579  3.2742  0.5793
  531MOL0     H70033   8.048   7.134   4.302  2.8975 -3.4154  0.4389
  531MOL0     H70034   7.905   7.132   4.181  0.2966  0.4750 -2.4755
  531MOL0     H70035   8.067   7.110   4.005  0.5195  2.5868  0.0105
  531MOL0     H70036   8.065   7.255   4.101 -0.2576 -0.3398  1.1672
  531MOL0     H70037   8.270   7.039   4.127  1.1603  0.3569 -0.6707
  531MOL0     H70038   8.262   7.162   4.255 -0.2722  1.5756  0.2153
  531MOL0     H70039   8.315   7.335   4.124 -1.3325  0.4226 -2.4598
  531MOL0     H70040   8.307   7.246   3.971  0.6471  0.5031 -0.1165
  531MOL0     H70041   8.509   7.169   4.195 -3.3695 -2.8866  0.4937
  531MOL0     H70042   8.511   7.117   4.025  1.8123  0.1302 -0.3017
  531MOL0     H70043   8.570   7.391   4.139  1.7542  0.9345 -0.8628
  531MOL0     H70044   8.577   7.338   3.966  2.6396 -0.6912 -0.8164
  531MOL0     H70045   8.833   7.450   4.080  0.3719 -0.3501  0.8166
  531MOL0     H70046   9.059   7.412   4.053  0.6133 -1.6708 -1.4283
  531MOL0     H70047   9.153   7.271   4.079 -0.1522  0.0212  1.2674
  531MOL0     H70048   9.049   7.424   4.319  1.4837  1.7413  1.5337
  531MOL0     H70049   9.185   7.483   4.237  1.2739 -0.1396 -0.1393
  531MOL0     H70050   9.311   7.265   4.280  0.1179  0.1310 -2.4658
  531MOL0     H70051   9.256   7.343   4.423  1.1900  1.0515 -3.0056
  531MOL0     H70052   9.115   7.100   4.281 -0.4126  2.2436 -1.1830
  531MOL0     H70053   9.054   7.191   4.418  0.8601  1.1542 -1.1651
  531MOL0     H70054   8.988   6.960   4.401  2.4490 -0.2525 -2.6935
  531MOL0     H70055   8.930   6.720   4.473  1.4725 -4.0053  2.4352
  531MOL0     H70056   8.697   6.450   4.554 -2.6065 -1.8853  2.0011
  531MOL0     H70057   8.597   6.246   4.656  0.7677  0.5549  3.2620
  531MOL0     H70058   8.839   5.924   4.807  0.5928 -3.7317  0.3844
  531MOL0     H70059   8.838   5.876   4.647  2.4589 -2.0021  2.1216
  531MOL0     H70060   8.616   5.796   4.853  2.3193  2.8455  1.4587
  531MOL0     H70061   8.736   5.694   4.781 -0.0737  0.1049  0.1126
  531MOL0     H70062   8.646   5.732   4.540 -0.2132  1.9477 -1.4406
  531MOL0     H70063   8.524   5.832   4.613 -0.1948  0.5632  3.0993
  531MOL0     H70064   8.553   5.552   4.678 -0.4592 -0.2323 -0.3488
  531MOL0     H70065   8.457   5.654   4.775  1.2846 -4.9494  1.3419
  531MOL0     H70066   8.362   5.720   4.519  0.6976  0.0571 -0.9070
  531MOL0     H70067   8.293   5.597   4.626  1.1716 -1.0445  0.3968
  531MOL0     H70068   8.434   5.427   4.515 -0.8362 -0.6315  0.9203
  531MOL0     H70069   8.513   5.546   4.412 -0.3108 -0.7152  0.6779
  531MOL0     H70070   8.228   5.440   4.406  0.3139 -1.3103 -0.9969
  531MOL0     H70071   8.253   5.608   4.355  0.0417  0.0643 -1.7489
  531MOL0     H70072   8.388   5.388   4.202  1.5615  1.3612 -1.7347
  531MOL0     H70073   8.390   5.560   4.178 -2.0020  1.4527 -0.8056
  531MOL0     H70074   8.971   6.061   4.664  0.8712  1.3570  0.4105
  531MOL0     H70075   9.083   6.268   4.599  0.0184 -0.8848 -0.1961
  531MOL0     H70076   9.289   6.708   4.703  0.1206  1.2799  0.5843
  531MOL0     H70077   9.348   6.928   4.626 -1.4956  0.1193  3.2893
  531MOL0     H70078   7.820   6.574   4.340 -0.1749 -1.1174  0.1507
  531MOL0     H70079   7.681   6.460   4.480 -1.3227  1.1709 -2.0703
  531MOL0     H70080   7.319   6.484   4.732  2.0694  0.5108 -0.8521
  531MOL0     H70081   7.119   6.384   4.870 -1.8822 -1.6168  2.7296
  531MOL0     H70082   7.148   6.116   4.926  0.1465 -1.3551  0.2712
  531MOL0     H70083   6.992   6.171   4.982  0.4385  0.2847 -0.2447
  531MOL0     H70084   7.208   6.001   5.106 -1.0412 -2.7013  0.9990
  531MOL0     H70085   7.097   6.078   5.211 -0.6471  0.3469 -0.9572
  531MOL0     H70086   7.027   5.888   4.977  0.6458  3.1274 -1.3247
  531MOL0     H70087   6.901   5.966   5.067 -0.6375 -0.7267 -2.2687
  531MOL0     H70088   6.947   5.727   5.150  1.9316 -0.9367 -0.1364
  531MOL0     H70089   7.099   5.785   5.218 -1.4866 -2.1776 -1.5785
  531MOL0     H70090   6.859   5.864   5.521  0.5798 -1.8308 -0.0408
  531MOL0     H70091   7.380   6.266   5.170  0.2455 -1.0160 -0.5823
  531MOL0     H70092   7.584   6.386   5.067 -1.0133 -3.7332  1.0432
  532MOL0     O70093   5.007   1.607   0.837 -0.4115  0.7144 -0.2815
  532MOL0     C70094   5.027   1.554   0.951 -0.5616  0.1514 -0.1780
  532MOL0     O70095   4.934   1.505   1.037  0.3866  0.2888 -0.0507
  532MOL0     C70096   4.811   1.463   1.005 -0.5608 -0.0613 -0.0520
  532MOL0     C70097   4.762   1.441   0.874  0.2596  0.8496 -0.8089
  532MOL0     C70098   4.629   1.398   0.859 -0.5156 -0.3122 -0.9708
  532MOL0     C70099   4.543   1.371   0.967 -0.4086  0.0308 -0.2450
  532MOL0     O70100   4.414   1.311   0.948 -0.1894 -0.2130 -0.1146
  532MOL0     C70101   4.336   1.272   1.057  0.4746 -0.0798 -0.7808
  532MOL0     C70102   4.198   1.219   1.011  0.5951 -0.4078  0.0943
  532MOL0     C70103   4.108   1.147   1.111 -0.4254 -0.3972 -0.0846
  532MOL0     C70104   3.980   1.110   1.039  0.3459  0.6291  0.4009
  532MOL0     C70105   3.888   1.042   1.139  0.2777  0.4648 -0.2435
  532MOL0     C70106   3.741   1.019   1.085 -0.0299  0.4958  0.2874
  532MOL0     C70107   3.653   0.933   1.173  0.2370 -0.2389 -0.6553
  532MOL0     C70108   3.575   1.012   1.278 -0.1442 -0.5787  0.4545
  532MOL0     N70109   3.540   0.934   1.396 -0.3094 -0.8843 -1.0689
  532MOL0     C70110   3.587   0.810   1.441 -1.5192 -0.4030 -0.2163
  532MOL0     C70111   3.514   0.786   1.545 -0.6411  0.9205 -1.0690
  532MOL0     C70112   3.540   0.662   1.641 -0.0573  0.1124 -0.0518
  532MOL0     C70113   3.440   0.554   1.605 -0.3575 -0.4505 -1.0200
  532MOL0     C70114   3.489   0.424   1.676 -0.4836  0.5272 -0.3316
  532MOL0     C70115   3.412   0.301   1.638 -0.4275 -0.3515  0.7191
  532MOL0     O70116   3.481   0.192   1.692 -0.1525  0.4957  0.1271
  532MOL0     C70117   3.443   0.063   1.683 -0.4393 -0.2272  0.3135
  532MOL0     C70118   3.541  -0.037   1.679  0.5729  0.0907  0.2368
  532MOL0     C70119   3.491  -0.169   1.671 -0.2421 -1.1899  0.0805
  532MOL0     C70120   3.357  -0.202   1.675  0.9167  0.5952 -0.6269
  532MOL0     C70121   3.311  -0.347   1.676 -0.1952  0.3866  0.2579
  532MOL0     O70122   3.182  -0.373   1.729  0.0496  0.6871  0.6037
  532MOL0     C70123   3.141  -0.504   1.724 -0.6083  0.4833  0.2886
  532MOL0     C70124   3.159  -0.597   1.626  0.0297  0.9216  0.4218
  532MOL0     C70125   3.115  -0.726   1.623  0.4276  0.4403 -0.0584
  532MOL0     C70126   3.047  -0.772   1.736  0.1005 -1.2722  0.3122
  532MOL0     O70127   2.995  -0.892   1.757  0.5867  0.2697  0.1453
  532MOL0     C70128   2.971  -0.980   1.644  0.5364 -0.4200  0.2586
  532MOL0     C70129   3.082  -1.093   1.642  0.5430  0.2123 -0.7585
  532MOL0     C70130   3.233  -1.054   1.660  0.0226 -0.7239 -0.9635
  532MOL0     C70131   3.337  -1.161   1.652  0.3097  0.0468 -0.2328
  532MOL0     C70132   3.462  -1.127   1.739 -0.9167  0.4673  0.6220
  532MOL0     C70133   3.589  -1.212   1.717  0.1089 -0.7864 -0.5683
  532MOL0     C70134   3.575  -1.358   1.753 -0.2274  0.2673  0.8219
  532MOL0     C70135   3.700  -1.447   1.721  0.0199 -0.6190 -0.2138
  532MOL0    Cl70136   3.694  -1.490   1.543  0.3370  0.7896 -0.6182
  532MOL0     C70137   3.040  -0.686   1.852  0.3828 -0.2906  0.1294
  532MOL0     C70138   3.089  -0.550   1.843  0.6684 -0.8679 -0.6940
  532MOL0     O70139   3.398  -0.429   1.645  0.2886 -0.1614 -0.1973
  532MOL0     C70140   3.264  -0.104   1.670 -0.2330  0.0481  0.3203
  532MOL0     C70141   3.305   0.030   1.679  0.2112  0.0960 -0.3668
  532MOL0     N70142   3.426   0.889   1.568 -0.2656  0.0562  0.2631
  532MOL0     N70143   3.439   0.970   1.475 -0.8280 -0.6894  0.1496
  532MOL0     C70144   4.594   1.388   1.092 -0.3935 -0.1515  0.2263
  532MOL0     C70145   4.728   1.434   1.110 -0.4610 -0.2170 -0.5231
  532MOL0     C70146   5.168   1.574   1.007 -0.0582 -0.5821 -0.3745
  532MOL0     C70147   5.273   1.635   0.931  0.4928  0.4913  0.1497
  532MOL0     C70148   5.396   1.666   0.982 -0.1854 -0.3056 -0.2237
  532MOL0     C70149   5.435   1.607   1.101  0.3996  0.9705 -0.3309
  532MOL0     O70150   5.557   1.629   1.164 -0.1309 -0.3331 -0.0877
  532MOL0     C70151   5.660   1.533   1.128 -0.9246 -0.0443 -1.1270
  532MOL0     C70152   5.712   1.502   1.267  0.4392  0.1552  0.5367
  532MOL0     C70153   5.825   1.385   1.280 -0.1388  0.3492  1.0738
  532MOL0     C70154   5.857   1.369   1.424  0.3434  1.2817  0.2529
  532MOL0     C70155   5.908   1.233   1.444  0.2418  0.7678  0.1319
  532MOL0     C70156   5.937   1.119   1.453 -0.6373  0.4792  0.1252
  532MOL0     C70157   5.332   1.550   1.185 -0.6275 -0.7920 -0.1709
  532MOL0     C70158   5.201   1.541   1.141 -0.4482  0.4660  0.1844
  532MOL0     H70159   4.808   1.475   0.782 -0.6195  2.2768 -0.7386
  532MOL0     H70160   4.590   1.393   0.757  1.4861 -1.5698 -1.7403
  532MOL0     H70161   4.331   1.350   1.134  1.3593 -0.4878 -0.2894
  532MOL0     H70162   4.393   1.188   1.100 -3.4424 -1.8341  1.5574
  532MOL0     H70163   4.215   1.153   0.925 -2.3269 -1.7348  0.3975
  532MOL0     H70164   4.142   1.301   0.965  3.4307  1.9260  0.5485
  532MOL0     H70165   4.076   1.215   1.191 -0.5577  0.2298 -0.6605
  532MOL0     H70166   4.158   1.064   1.163 -0.6642 -0.3395  0.2390
  532MOL0     H70167   3.924   1.201   1.015 -0.4490  0.6686  2.2194
  532MOL0     H70168   4.010   1.055   0.949  0.8300  1.1862  0.2176
  532MOL0     H70169   3.881   1.113   1.222 -0.2772  0.7325 -0.5174
  532MOL0     H70170   3.934   0.949   1.174 -0.5250 -0.0398 -0.5144
  532MOL0     H70171   3.741   0.959   0.993 -0.6593 -2.6578  2.1689
  532MOL0     H70172   3.692   1.115   1.072 -1.2344  0.0771  1.4564
  532MOL0     H70173   3.583   0.874   1.113  0.6747 -1.3752 -0.0820
  532MOL0     H70174   3.717   0.858   1.219  1.9769  1.1910 -0.6191
  532MOL0     H70175   3.482   1.041   1.230 -1.7702 -1.7620  2.6996
  532MOL0     H70176   3.632   1.102   1.305 -1.8139  0.0501  2.0881
  532MOL0     H70177   3.666   0.744   1.405 -1.9058 -1.0749  0.1425
  532MOL0     H70178   3.533   0.699   1.743 -1.5866  1.7990 -0.7034
  532MOL0     H70179   3.644   0.630   1.637  0.4114  0.8477  3.2509
  532MOL0     H70180   3.433   0.536   1.498 -1.8605  3.0506 -1.6607
  532MOL0     H70181   3.336   0.570   1.637 -0.5280 -0.8050 -1.3898
  532MOL0     H70182   3.596   0.411   1.653 -0.5746 -0.7817 -0.0486
  532MOL0     H70183   3.477   0.449   1.781 -3.5140 -0.9183 -0.2443
  532MOL0     H70184   3.425   0.295   1.529  2.3695  0.7144  0.8902
  532MOL0     H70185   3.305   0.304   1.660 -0.7504  2.7360 -0.7679
  532MOL0     H70186   3.649  -0.036   1.680  0.6327 -1.7533  1.9934
  532MOL0     H70187   3.575  -0.237   1.682 -0.3593 -0.8989  4.3049
  532MOL0     H70188   3.213  -0.565   1.537  0.3240 -0.0270  0.2469
  532MOL0     H70189   3.149  -0.783   1.537  0.4718  0.6329 -0.1678
  532MOL0     H70190   2.985  -0.925   1.551  0.2576 -0.9432 -0.0986
  532MOL0     H70191   2.867  -1.016   1.649  0.0292  1.0797  2.0788
  532MOL0     H70192   3.085  -1.138   1.542  1.9804 -1.3491 -0.0740
  532MOL0     H70193   3.063  -1.171   1.717  0.2084  0.7976 -0.2218
  532MOL0     H70194   3.241  -1.006   1.758  4.6019  0.9341 -1.9109
  532MOL0     H70195   3.269  -0.972   1.598 -0.0920 -1.5005 -2.0749
  532MOL0     H70196   3.294  -1.252   1.695 -2.7770  2.3197  1.8961
  532MOL0     H70197   3.366  -1.169   1.547  0.7372  0.0273 -0.1127
  532MOL0     H70198   3.419  -1.152   1.836 -1.5473 -1.7217 -0.1438
  532MOL0     H70199   3.487  -1.021   1.732  0.6025  0.0219 -2.0182
  532MOL0     H70200   3.657  -1.179   1.796  0.4490 -0.0072 -1.1762
  532MOL0     H70201   3.640  -1.200   1.621  0.6359  1.4430 -0.0654
  532MOL0     H70202   3.567  -1.371   1.861 -0.0942 -0.9737  0.6950
  532MOL0     H70203   3.482  -1.402   1.714 -1.2983  0.3785  3.0727
  532MOL0     H70204   3.706  -1.541   1.778 -1.6654 -0.8570 -0.3801
  532MOL0     H70205   3.785  -1.389   1.758  2.0935 -3.9635  0.7289
  532MOL0     H70206   2.990  -0.732   1.937  0.8394 -1.2236 -0.0943
  532MOL0     H70207   3.091  -0.482   1.927 -3.1732 -0.1241 -1.0588
  532MOL0     H70208   3.160  -0.134   1.668 -1.0329  2.5844  0.4608
  532MOL0     H70209   3.220   0.096   1.676  1.3243  1.8369  2.6849
  532MOL0     H70210   4.528   1.356   1.172 -1.5718 -0.3456 -0.7784
  532MOL0     H70211   4.763   1.467   1.207 -0.9009 -0.1209 -0.3937
  532MOL0     H70212   5.249   1.663   0.829 -0.7495 -1.6093 -0.1764
  532MOL0     H70213   5.458   1.731   0.922 -0.9323  0.3246 -0.3361
  532MOL0     H70214   5.730   1.590   1.066  2.0023 -0.7896  1.2232
  532MOL0     H70215   5.622   1.450   1.067 -1.4570 -0.4471 -0.2641
  532MOL0     H70216   5.752   1.592   1.314 -0.5554  2.1514 -2.2193
  532MOL0     H70217   5.630   1.465   1.329 -1.2020  2.9115  0.1780
  532MOL0     H70218   5.916   1.411   1.225 -0.4062 -1.9714 -0.6106
  532MOL0     H70219   5.779   1.297   1.235  1.1490  0.4572 -0.5387
  532MOL0     H70220   5.921   1.448   1.463  1.3741  1.0400 -0.9021
  532MOL0     H70221   5.761   1.369   1.478 -1.1276  1.2230 -2.2285
  532MOL0     H70222   5.978   1.020   1.461  0.7729  1.1701  2.6193
  532MOL0     H70223   5.338   1.521   1.289 -2.0442  0.8658  0.4301
  532MOL0     H70224   5.130   1.497   1.209  1.6616  0.1432  2.3061
  533MOL0     O70225   1.206   5.527  10.947 -0.3227  0.3084  0.2905
  533MOL0     C70226   1.124   5.621  10.960 -0.2036 -0.0570 -0.4870
  533MOL0     O70227   0.997   5.609  10.980  0.2487  0.1705 -0.9729
  533MOL0     C70228   0.937   5.488  10.994  0.2662  0.3429  0.9384
  533MOL0     C70229   0.936   5.398  10.887 -0.5742  0.7158 -1.3854
  533MOL0     C70230   0.888   5.267  10.899 -0.6106 -0.0717 -1.3265
  533MOL0     C70231   0.838   5.225  11.025  0.0222 -0.0692 -0.2592
  533MOL0     O70232   0.799   5.094  11.043 -0.5666  0.3391 -0.0638
  533MOL0     C70233   0.703   5.057  11.147  0.8626  0.3707  0.0855
  533MOL0     C70234   0.561   5.091  11.097 -0.3073 -0.2728 -0.7373
  533MOL0     C70235   0.473   4.963  11.103  1.0278 -0.6514  1.2325
  533MOL0     C70236   0.335   5.016  11.117  0.1005  0.7059  0.5437
  533MOL0     C70237   0.240   4.904  11.148  0.2876 -1.0006  1.0937
  533MOL0     C70238   0.096   4.948  11.181  0.3308  0.5364 -0.1561
  533MOL0     C70239   0.088   5.005  11.321 -0.3111  0.2173 -0.7160
  533MOL0     C70240  -0.061   5.014  11.375  0.0441  0.1419  1.0123
  533MOL0     N70241  -0.069   5.091  11.497 -0.1353  0.3476  0.4355
  533MOL0     C70242  -0.091   5.228  11.508  0.7538 -0.7279 -0.3296
  533MOL0     C70243  -0.152   5.232  11.631 -0.0715  0.5642  0.8334
  533MOL0     C70244  -0.203   5.358  11.690  0.0349  0.2478  0.1737
  533MOL0     C70245  -0.340   5.406  11.634 -0.1721  0.0244  0.0931
  533MOL0     C70246  -0.434   5.292  11.610 -0.5126 -0.5853 -0.1992
  533MOL0     C70247  -0.475   5.207  11.729  0.4753 -0.3921  0.4389
  533MOL0     O70248  -0.540   5.083  11.693  0.6468  0.8716  0.9949
  533MOL0     C70249  -0.594   5.016  11.797  0.3844 -0.3815 -1.4892
  533MOL0     C70250  -0.730   4.982  11.795  1.2232 -0.3107  0.4461
  533MOL0     C70251  -0.788   4.887  11.890  0.1398 -0.6024 -0.0699
  533MOL0     C70252  -0.701   4.837  11.986 -0.1551  0.5017  0.2643
  533MOL0     C70253  -0.752   4.762  12.100 -0.4191  0.3430 -0.9509
  533MOL0     O70254  -0.882   4.790  12.144 -0.1847 -0.1262  0.9328
  533MOL0     C70255  -0.935   4.738  12.261 -0.1412 -0.0703  0.8428
  533MOL0     C70256  -0.863   4.694  12.371  0.7018 -0.9123  0.3065
  533MOL0     C70257  -0.922   4.635  12.485 -0.2388 -0.1892  0.4847
  533MOL0     C70258  -1.054   4.610  12.486 -0.3215 -0.7079 -0.2395
  533MOL0     O70259  -1.116   4.567  12.604 -0.8948 -0.5009  0.1645
  533MOL0     C70260  -1.221   4.654  12.648  0.2661 -0.5675  0.5711
  533MOL0     C70261  -1.272   4.619  12.778  0.9087  0.4541  0.4598
  533MOL0     C70262  -1.158   4.637  12.879  0.6472  0.5099 -0.8518
  533MOL0     C70263  -1.184   4.588  13.017  0.1414 -0.9615  0.3330
  533MOL0     C70264  -1.222   4.439  13.023  0.0018  0.4828 -0.3708
  533MOL0     C70265  -1.146   4.332  12.946 -0.9002  1.0235 -0.2243
  533MOL0     C70266  -1.202   4.195  12.987 -0.8661  0.0538  0.6843
  533MOL0     C70267  -1.129   4.080  12.915  0.7035 -0.7366 -0.5482
  533MOL0    Cl70268  -1.203   4.051  12.748 -0.0969 -0.3361 -0.6639
  533MOL0     C70269  -1.132   4.641  12.371 -0.7043 -0.4316 -1.0193
  533MOL0     C70270  -1.072   4.710  12.262  0.2739  0.6986  0.6502
  533MOL0     O70271  -0.682   4.672  12.147 -0.7193 -0.7858  0.3416
  533MOL0     C70272  -0.562   4.867  11.990 -0.4603  0.4724  1.0302
  533MOL0     C70273  -0.516   4.968  11.900 -0.1892 -0.4007 -0.6623
  533MOL0     N70274  -0.143   5.109  11.694  0.3459  0.7902 -0.3888
  533MOL0     N70275  -0.087   5.027  11.616  0.8469  0.0942 -0.0159
  533MOL0     C70276   0.842   5.314  11.139  0.2313  0.0685 -0.3538
  533MOL0     C70277   0.892   5.444  11.124  0.3523  0.7728  0.6197
  533MOL0     C70278   1.171   5.756  10.988  0.5902  0.0067  0.0136
  533MOL0     C70279   1.101   5.840  11.075 -0.4731 -0.7305  0.3780
  533MOL0     C70280   1.151   5.974  11.102  0.7893 -0.0245 -0.5133
  533MOL0     C70281   1.268   6.021  11.046 -0.0856 -0.5689 -0.2173
  533MOL0     O70282   1.325   6.145  11.063  0.4027  0.2456 -0.4438
  533MOL0     C70283   1.236   6.256  11.067  0.2466 -0.2829  0.4594
  533MOL0     C70284   1.310   6.359  10.978  0.5955 -0.0402  0.8911
  533MOL0     C70285   1.442   6.416  11.037 -0.5850 -0.2097  0.3176
  533MOL0     C70286   1.540   6.478  10.946 -1.2235  0.2176 -0.5716
  533MOL0     C70287   1.468   6.573  10.859  1.1828  0.2681 -0.5463
  533MOL0     C70288   1.426   6.664  10.785 -0.1799  1.0401  0.3008
  533MOL0     C70289   1.334   5.933  10.962 -0.4199  1.0037  0.9694
  533MOL0     C70290   1.288   5.805  10.936 -0.0203 -0.0646 -0.4096
  533MOL0     H70291   0.974   5.439  10.794  0.2246  0.0504 -1.3746
  533MOL0     H70292   0.885   5.195  10.818 -0.5984  0.4528 -1.8032
  533MOL0     H70293   0.717   5.099  11.247 -3.1770 -1.1723  1.4817
  533MOL0     H70294   0.710   4.948  11.156 -0.6698  0.0858 -1.6103
  533MOL0     H70295   0.561   5.121  10.992 -1.8382 -0.5841 -0.8361
  533MOL0     H70296   0.526   5.178  11.153  1.9244  0.8129 -0.8976
  533MOL0     H70297   0.493   4.898  11.189  0.8418 -1.5968  0.5800
  533MOL0     H70298   0.496   4.913  11.009  1.1131  2.4038 -0.5000
  533MOL0     H70299   0.336   5.079  11.205 -0.7537 -0.4689  1.4234
  533MOL0     H70300   0.316   5.078  11.029  0.1052 -1.2500 -0.9150
  533MOL0     H70301   0.280   4.832  11.220  0.2047 -3.2793 -1.0160
  533MOL0     H70302   0.228   4.833  11.066 -0.2671 -0.7249  0.9323
  533MOL0     H70303   0.039   4.854  11.186 -0.6890  1.0587 -1.4338
  533MOL0     H70304   0.054   5.007  11.099 -1.7125  0.4112  0.7219
  533MOL0     H70305   0.142   4.929  11.377 -0.4683 -2.0600 -3.3947
  533MOL0     H70306   0.122   5.109  11.324  0.5971 -0.0957  0.6606
  533MOL0     H70307  -0.090   4.911  11.398  0.5060 -1.7130 -5.0293
  533MOL0     H70308  -0.127   5.054  11.297  2.0287 -1.7151 -1.8135
  533MOL0     H70309  -0.069   5.312  11.443 -1.1276  1.6606  1.8794
  533MOL0     H70310  -0.131   5.439  11.676 -0.7308  0.7596 -0.9230
  533MOL0     H70311  -0.202   5.354  11.799  2.1139 -1.9539  0.1642
  533MOL0     H70312  -0.319   5.467  11.546 -4.9782  4.1081  1.3386
  533MOL0     H70313  -0.400   5.460  11.708  2.4485 -0.2595  2.6156
  533MOL0     H70314  -0.529   5.328  11.570 -0.9316  0.8443  1.9038
  533MOL0     H70315  -0.395   5.223  11.534 -1.3509 -2.0952  0.6807
  533MOL0     H70316  -0.553   5.265  11.781 -0.4073 -1.2295  0.0831
  533MOL0     H70317  -0.392   5.196  11.800 -1.1278  3.0032  3.1725
  533MOL0     H70318  -0.802   5.025  11.727  1.0759 -1.2480  0.0060
  533MOL0     H70319  -0.896   4.879  11.898  0.2108  0.1322  2.5016
  533MOL0     H70320  -0.756   4.707  12.382  0.8523 -2.1761  0.4927
  533MOL0     H70321  -0.857   4.600  12.566  2.1280  1.4174 -0.5969
  533MOL0     H70322  -1.302   4.638  12.577  0.2287  0.9645  0.2441
  533MOL0     H70323  -1.185   4.757  12.640  2.7920 -1.4163 -0.0194
  533MOL0     H70324  -1.301   4.514  12.787  2.0759  0.2413  2.3645
  533MOL0     H70325  -1.356   4.684  12.802  1.3388  0.8550  0.8900
  533MOL0     H70326  -1.141   4.745  12.886  0.1198  0.4942  1.7938
  533MOL0     H70327  -1.059   4.594  12.859  1.2727  1.1035  0.7973
  533MOL0     H70328  -1.090   4.614  13.066  0.4087  1.9779 -1.5106
  533MOL0     H70329  -1.268   4.646  13.057  0.6498 -1.6217  2.5241
  533MOL0     H70330  -1.324   4.437  12.982 -0.3948  0.2566  0.5930
  533MOL0     H70331  -1.219   4.406  13.127 -0.2889 -6.6708 -2.1114
  533MOL0     H70332  -1.041   4.332  12.976 -1.2171 -0.0610  1.0069
  533MOL0     H70333  -1.159   4.358  12.841 -1.9126  1.2348 -0.0557
  533MOL0     H70334  -1.181   4.183  13.094 -2.2182 -1.0939  0.8516
  533MOL0     H70335  -1.310   4.188  12.972 -0.8807  1.0243  0.2485
  533MOL0     H70336  -1.146   3.983  12.963  1.9489 -1.2756 -1.1421
  533MOL0     H70337  -1.027   4.116  12.902 -0.0585  0.8423 -2.8244
  533MOL0     H70338  -1.240   4.629  12.371 -0.6841 -0.6284 -1.1326
  533MOL0     H70339  -1.142   4.744  12.187 -0.8200  1.5409  1.9952
  533MOL0     H70340  -0.499   4.822  12.066 -1.9154 -2.4732  0.6437
  533MOL0     H70341  -0.410   4.987  11.893 -0.6005  2.2263 -0.9040
  533MOL0     H70342   0.819   5.274  11.238  3.2171 -1.1347 -0.0338
  533MOL0     H70343   0.905   5.510  11.210 -2.5843  0.8102  1.1360
  533MOL0     H70344   1.008   5.819  11.126 -2.0334  0.3740 -1.8350
  533MOL0     H70345   1.092   6.045  11.160 -2.0135 -1.1946 -1.8152
  533MOL0     H70346   1.203   6.299  11.163 -0.6524  1.6556 -0.6431
  533MOL0     H70347   1.149   6.218  11.012  0.6758 -0.1326 -0.3339
  533MOL0     H70348   1.317   6.323  10.875 -0.4361  3.7569 -0.6591
  533MOL0     H70349   1.248   6.449  10.970  0.3793 -0.3220 -1.0139
  533MOL0     H70350   1.492   6.347  11.106 -2.3437  0.6368  2.5622
  533MOL0     H70351   1.411   6.491  11.111  4.4192  2.4483  0.1020
  533MOL0     H70352   1.624   6.519  11.004 -1.5359 -2.5166  2.0706
  533MOL0     H70353   1.580   6.397  10.885  1.5043  2.7156 -2.4091
  533MOL0     H70354   1.391   6.743  10.722 -0.3280  2.3039  1.9307
  533MOL0     H70355   1.425   5.965  10.913  0.1022 -0.2523  1.0784
  533MOL0     H70356   1.343   5.738  10.872  1.5108  0.0202  0.7586
  534MOL0     O70357   6.074   0.445   4.512  0.6008  0.3716 -0.6772
  534MOL0     C70358   6.112   0.535   4.580 -0.7862 -0.0471  1.2046
  534MOL0     O70359   6.178   0.520   4.690  0.0778  0.3187 -1.0271
  534MOL0     C70360   6.213   0.397   4.742  0.0779 -0.6290 -0.3823
  534MOL0     C70361   6.272   0.291   4.676 -0.0396 -0.2678  0.7662
  534MOL0     C70362   6.295   0.176   4.743 -0.2525  0.3181  0.4730
  534MOL0     C70363   6.274   0.169   4.877  0.6786 -0.2369 -0.1888
  534MOL0     O70364   6.291   0.058   4.949  0.4873  1.1305  0.1771
  534MOL0     C70365   6.233  -0.063   4.903 -0.4066 -0.4068 -0.6612
  534MOL0     C70366   6.282  -0.191   4.980  0.0473  0.6318 -0.4213
  534MOL0     C70367   6.186  -0.312   4.976 -0.3345 -0.0257 -0.2940
  534MOL0     C70368   6.192  -0.418   5.091  0.3593 -1.1089  0.5195
  534MOL0     C70369   6.078  -0.511   5.071  1.7727 -0.1464  0.3563
  534MOL0     C70370   5.942  -0.452   5.087 -0.0157 -0.6580 -0.3384
  534MOL0     C70371   5.833  -0.562   5.058  0.4662 -0.1182 -0.0783
  534MOL0     C70372   5.694  -0.509   5.037 -0.1971  0.2420 -0.2981
  534MOL0     N70373   5.591  -0.618   5.036 -0.1859 -0.0039 -0.6429
  534MOL0     C70374   5.568  -0.727   4.958 -1.3219 -0.1187 -0.1240
  534MOL0     C70375   5.451  -0.778   4.998  0.2923  0.6438  0.9339
  534MOL0     C70376   5.364  -0.870   4.907 -1.1828  0.8745 -0.4268
  534MOL0     C70377   5.436  -1.000   4.887 -0.7621 -0.0573  0.6579
  534MOL0     C70378   5.541  -0.999   4.777  0.6144 -1.0519 -0.3770
  534MOL0     C70379   5.620  -1.132   4.787  1.0536  0.6824  0.7143
  534MOL0     O70380   5.532  -1.227   4.713  0.5745 -0.0638  0.3009
  534MOL0     C70381   5.526  -1.363   4.753  0.5042 -0.0255 -0.6869
  534MOL0     C70382   5.451  -1.444   4.674  0.7452  0.7565  0.5470
  534MOL0     C70383   5.432  -1.574   4.714  0.5370 -0.2731 -0.7549
  534MOL0     C70384   5.490  -1.634   4.826  0.2021  0.1490  0.4351
  534MOL0     C70385   5.497  -1.781   4.840 -0.6824 -0.1309 -1.2828
  534MOL0     O70386   5.405  -1.856   4.781  0.3314  0.2961  1.0372
  534MOL0     C70387   5.380  -1.986   4.826  0.1024 -0.1240 -0.4789
  534MOL0     C70388   5.292  -2.004   4.924  0.1498  0.2313  0.0371
  534MOL0     C70389   5.267  -2.124   4.983 -0.2361  0.1503 -0.4789
  534MOL0     C70390   5.344  -2.232   4.937 -0.1430  0.2290  0.5613
  534MOL0     O70391   5.322  -2.356   4.991 -0.1464  0.0047  0.3885
  534MOL0     C70392   5.192  -2.402   5.005 -0.3232 -0.3014 -1.5279
  534MOL0     C70393   5.182  -2.543   5.063  0.7105 -0.3576  0.2959
  534MOL0     C70394   5.226  -2.644   4.958  0.1852 -0.4605 -0.3521
  534MOL0     C70395   5.234  -2.792   5.003 -0.4979  0.9039 -0.5604
  534MOL0     C70396   5.303  -2.897   4.913 -0.0951  0.7058 -0.3070
  534MOL0     C70397   5.214  -2.957   4.800 -0.1950  0.4232  0.4782
  534MOL0     C70398   5.309  -3.022   4.698  0.7150 -0.2534  0.8466
  534MOL0     C70399   5.236  -3.058   4.572 -0.5326  0.2783  0.7112
  534MOL0    Cl70400   5.357  -3.103   4.438 -0.1280 -0.0474  0.4941
  534MOL0     C70401   5.442  -2.216   4.841 -0.3753  0.0785 -0.1237
  534MOL0     C70402   5.461  -2.092   4.782 -0.1930 -0.4866 -0.8610
  534MOL0     O70403   5.583  -1.833   4.913  0.0285  0.2440  0.2204
  534MOL0     C70404   5.581  -1.555   4.894  0.3477  0.6773  0.3229
  534MOL0     C70405   5.598  -1.419   4.861  0.1389  0.5777  0.3161
  534MOL0     N70406   5.408  -0.704   5.108  0.6711  0.3989 -0.5225
  534MOL0     N70407   5.488  -0.612   5.132  0.2298  0.1463 -0.9186
  534MOL0     C70408   6.221   0.282   4.942  0.3682 -1.0345  1.0140
  534MOL0     C70409   6.195   0.398   4.881  0.1285  1.1714  0.1043
  534MOL0     C70410   6.104   0.674   4.527 -0.7793 -0.2369 -0.1600
  534MOL0     C70411   6.058   0.770   4.618  0.4399  0.1158  1.7648
  534MOL0     C70412   6.027   0.902   4.575 -0.5906 -0.0370  0.0684
  534MOL0     C70413   6.067   0.947   4.450 -0.1032 -0.4165 -0.7673
  534MOL0     O70414   6.068   1.089   4.439 -0.2471 -0.0587 -0.5504
  534MOL0     C70415   6.144   1.145   4.323 -1.0677  0.2018  0.3710
  534MOL0     C70416   6.080   1.134   4.184 -0.0213 -0.4393  0.2542
  534MOL0     C70417   6.150   1.232   4.100 -0.5974 -0.1836 -0.2296
  534MOL0     C70418   6.149   1.167   3.955  0.6015 -0.6543  0.7324
  534MOL0     C70419   6.161   1.267   3.847  0.3262 -0.6739 -0.9071
  534MOL0     C70420   6.149   1.344   3.751  0.3197 -0.0580 -0.0196
  534MOL0     C70421   6.130   0.848   4.372 -0.6402 -0.2605 -0.1748
  534MOL0     C70422   6.134   0.714   4.403 -0.5934  0.5484 -0.0352
  534MOL0     H70423   6.268   0.291   4.567 -2.8155 -0.9227  0.8074
  534MOL0     H70424   6.336   0.090   4.692  1.5053  1.6883 -0.5374
  534MOL0     H70425   6.262  -0.085   4.800  4.1283 -1.0065  0.5217
  534MOL0     H70426   6.124  -0.062   4.917 -0.8541  0.8718 -3.4784
  534MOL0     H70427   6.272  -0.165   5.086 -1.3823 -0.6232 -0.2149
  534MOL0     H70428   6.383  -0.205   4.942  0.5064  4.8913 -1.3142
  534MOL0     H70429   6.197  -0.365   4.881  1.4475 -1.2064  0.5129
  534MOL0     H70430   6.089  -0.261   4.980  0.2809  1.2420 -0.8889
  534MOL0     H70431   6.289  -0.467   5.083  1.0657  0.0157  1.8424
  534MOL0     H70432   6.183  -0.367   5.187 -0.5593 -0.2157 -0.0187
  534MOL0     H70433   6.077  -0.588   5.149 -1.1918  0.8538  1.4512
  534MOL0     H70434   6.088  -0.558   4.972  3.7276 -1.6954  1.2280
  534MOL0     H70435   5.922  -0.364   5.024 -0.4133  0.8201  1.7446
  534MOL0     H70436   5.924  -0.422   5.191 -0.0716  3.4501 -1.3594
  534MOL0     H70437   5.855  -0.640   4.984  4.1505 -0.1558  0.8561
  534MOL0     H70438   5.833  -0.617   5.152  1.2336 -0.4358 -0.2563
  534MOL0     H70439   5.697  -0.456   4.941 -1.9275 -0.1978 -0.6227
  534MOL0     H70440   5.676  -0.436   5.116  0.2642 -0.1359  0.1651
  534MOL0     H70441   5.622  -0.743   4.865 -0.3783  2.3677 -0.0800
  534MOL0     H70442   5.330  -0.828   4.812 -1.3991 -0.2476 -0.8692
  534MOL0     H70443   5.273  -0.901   4.961 -0.9145 -0.3273 -0.6260
  534MOL0     H70444   5.358  -1.062   4.844 -1.7847  2.7051 -1.8043
  534MOL0     H70445   5.476  -1.036   4.983  0.0048 -2.7419 -0.5702
  534MOL0     H70446   5.493  -0.976   4.681  1.8078 -0.8651 -0.9607
  534MOL0     H70447   5.611  -0.914   4.782  0.4054 -0.9489  1.3235
  534MOL0     H70448   5.632  -1.167   4.890  0.1607  0.7162  0.8371
  534MOL0     H70449   5.716  -1.126   4.735  2.3491 -5.2173  1.7122
  534MOL0     H70450   5.398  -1.411   4.585  3.4108 -1.0296 -1.8757
  534MOL0     H70451   5.355  -1.635   4.668 -1.5041 -0.8097  2.9580
  534MOL0     H70452   5.235  -1.919   4.959  1.3907  0.1287  2.5750
  534MOL0     H70453   5.184  -2.134   5.053 -0.1313  1.3067 -0.1722
  534MOL0     H70454   5.135  -2.401   4.911 -2.5447  1.8256 -0.2611
  534MOL0     H70455   5.135  -2.336   5.071  1.4014  0.1214 -0.4127
  534MOL0     H70456   5.075  -2.563   5.073  0.7232 -1.8353 -1.8636
  534MOL0     H70457   5.239  -2.545   5.156  0.7110  4.5669  0.6817
  534MOL0     H70458   5.322  -2.613   4.915  1.1775 -2.6712  0.1031
  534MOL0     H70459   5.152  -2.646   4.878 -0.8078  2.4210  0.3865
  534MOL0     H70460   5.277  -2.784   5.103 -5.0766 -0.0536  1.7897
  534MOL0     H70461   5.137  -2.835   5.032  0.7870 -3.4605 -1.8791
  534MOL0     H70462   5.347  -2.972   4.979 -0.5825  0.0850 -0.6742
  534MOL0     H70463   5.392  -2.850   4.870 -0.2008  0.8116 -0.4136
  534MOL0     H70464   5.152  -2.877   4.759 -2.6753 -1.2969  0.6964
  534MOL0     H70465   5.146  -3.031   4.842 -1.0252  1.6676  1.3876
  534MOL0     H70466   5.395  -2.958   4.678  1.8013 -1.7792  0.4370
  534MOL0     H70467   5.348  -3.113   4.746 -2.5026  0.5699  5.8207
  534MOL0     H70468   5.165  -2.977   4.549 -0.7729 -0.0492  0.2822
  534MOL0     H70469   5.179  -3.149   4.591 -0.0504 -0.3301 -0.6838
  534MOL0     H70470   5.504  -2.304   4.821 -1.2401 -0.4709 -0.4181
  534MOL0     H70471   5.538  -2.098   4.706  0.8624 -1.0965  0.2196
  534MOL0     H70472   5.649  -1.607   4.961 -2.0352  3.3699  5.3961
  534MOL0     H70473   5.670  -1.363   4.919 -0.0258 -0.4671  1.5891
  534MOL0     H70474   6.218   0.280   5.050  3.5036 -1.1665  1.2016
  534MOL0     H70475   6.168   0.483   4.944  2.4479  0.4254  2.2583
  534MOL0     H70476   6.045   0.738   4.721 -0.6090 -1.3596  1.2074
  534MOL0     H70477   5.989   0.976   4.645  1.9239  0.7246  0.7218
  534MOL0     H70478   6.240   1.094   4.318 -0.0698  1.9320  1.2429
  534MOL0     H70479   6.159   1.250   4.349  0.7474 -0.5005  2.4643
  534MOL0     H70480   6.104   1.037   4.141  0.3858 -1.1082  1.9184
  534MOL0     H70481   5.974   1.155   4.201 -0.2173 -1.8998  1.0063
  534MOL0     H70482   6.255   1.251   4.127  0.5981 -2.0649 -3.0630
  534MOL0     H70483   6.100   1.329   4.104 -0.4305 -0.1490  1.9119
  534MOL0     H70484   6.228   1.093   3.941  2.1218  0.3220  3.5013
  534MOL0     H70485   6.052   1.121   3.932  0.5653  1.4733 -5.0868
  534MOL0     H70486   6.131   1.415   3.673 -0.6624 -2.3107 -1.9702
  534MOL0     H70487   6.184   0.870   4.280 -1.3674 -2.3731 -1.1947
  534MOL0     H70488   6.181   0.637   4.343  1.0324  0.5855  1.1248
  535MOL0     O70489   1.696   4.017   0.525  0.1806 -0.2515  0.3010
  535MOL0     C70490   1.785   3.933   0.524  0.8265  0.1316 -0.4849
  535MOL0     O70491   1.758   3.796   0.549 -1.4609 -0.3043 -0.0576
  535MOL0     C70492   1.635   3.745   0.575  0.1755 -0.0487  0.4649
  535MOL0     C70493   1.526   3.809   0.620 -0.3667 -0.7226  0.3436
  535MOL0     C70494   1.407   3.743   0.636 -0.6428  0.2446  0.1677
  535MOL0     C70495   1.393   3.607   0.603  0.3963 -0.0198  0.2501
  535MOL0     O70496   1.278   3.533   0.608  0.1844 -0.5968  0.1953
  535MOL0     C70497   1.153   3.589   0.662 -0.8582 -0.1780 -0.1321
  535MOL0     C70498   1.159   3.601   0.808  1.0619  0.4717  0.5874
  535MOL0     C70499   1.200   3.464   0.869 -0.1743 -1.1658  0.1431
  535MOL0     C70500   1.177   3.445   1.018 -0.9774 -0.2764  0.1736
  535MOL0     C70501   1.263   3.527   1.096  0.7892  0.3222  0.3095
  535MOL0     C70502   1.276   3.492   1.242  0.4560 -0.4549 -0.7853
  535MOL0     C70503   1.323   3.617   1.319 -0.1939 -0.5800  0.9450
  535MOL0     C70504   1.359   3.571   1.459  0.1483  0.1651 -0.0344
  535MOL0     N70505   1.501   3.530   1.473  0.0047  0.0831  0.3825
  535MOL0     C70506   1.608   3.607   1.437 -0.2914  0.5084  0.1013
  535MOL0     C70507   1.711   3.522   1.410 -0.1554 -0.3973 -0.4260
  535MOL0     C70508   1.845   3.567   1.359  0.2294  0.0229  0.2973
  535MOL0     C70509   1.850   3.630   1.219 -0.1880  0.2584 -0.1157
  535MOL0     C70510   1.983   3.701   1.183  0.6781 -0.3071 -0.6886
  535MOL0     C70511   1.974   3.780   1.051  0.5519 -0.1729 -0.4838
  535MOL0     O70512   2.112   3.791   1.017  0.1605 -0.3805 -0.7527
  535MOL0     C70513   2.152   3.896   0.941  0.3302 -1.4339  0.4261
  535MOL0     C70514   2.064   3.960   0.846  0.4713 -0.3930 -0.5749
  535MOL0     C70515   2.103   4.074   0.779 -0.1260 -0.0433 -0.2839
  535MOL0     C70516   2.235   4.116   0.807  0.3381 -0.0039 -0.5198
  535MOL0     C70517   2.274   4.243   0.744  0.4321  0.4318  0.2020
  535MOL0     O70518   2.395   4.285   0.780 -0.2767 -0.0235  0.2237
  535MOL0     C70519   2.449   4.398   0.713  0.4799  0.3888 -0.1099
  535MOL0     C70520   2.434   4.445   0.582 -0.3570  0.7569  0.2754
  535MOL0     C70521   2.486   4.557   0.531 -0.7257 -0.1702 -0.3728
  535MOL0     C70522   2.573   4.631   0.610 -0.5247  0.2285 -0.3038
  535MOL0     O70523   2.627   4.738   0.560 -0.0688 -0.3665  0.3686
  535MOL0     C70524   2.709   4.708   0.442 -0.8609 -0.1923  0.0879
  535MOL0     C70525   2.836   4.796   0.419  0.3341  0.0794 -0.1388
  535MOL0     C70526   2.886   4.840   0.556  0.1524 -0.8488 -1.3343
  535MOL0     C70527   2.948   4.721   0.634 -0.3151  0.4189  0.1913
  535MOL0     C70528   2.984   4.776   0.773  0.5979  0.4040  0.1471
  535MOL0     C70529   3.038   4.656   0.856 -0.1051 -0.1909  0.6182
  535MOL0     C70530   3.009   4.686   0.997 -0.3728  0.3770  0.0936
  535MOL0     C70531   3.049   4.568   1.092  0.5804 -0.0558  0.7366
  535MOL0    Cl70532   2.961   4.417   1.069 -0.1620 -0.2902 -0.0380
  535MOL0     C70533   2.598   4.592   0.745  0.3119  0.4637 -0.3716
  535MOL0     C70534   2.533   4.480   0.796  0.7757 -0.1668  0.2885
  535MOL0     O70535   2.193   4.303   0.680 -0.0719 -0.6796 -0.5241
  535MOL0     C70536   2.326   4.047   0.887  0.1829 -0.8432 -0.0267
  535MOL0     C70537   2.281   3.931   0.956  0.5689  0.1241  0.5226
  535MOL0     N70538   1.666   3.404   1.450 -0.0864  0.9979 -0.0904
  535MOL0     N70539   1.540   3.402   1.464 -0.0620 -0.2407 -0.1303
  535MOL0     C70540   1.505   3.541   0.555  0.6021 -0.2445 -0.1223
  535MOL0     C70541   1.620   3.610   0.542 -0.3754  0.1924  0.4231
  535MOL0     C70542   1.920   3.960   0.479 -0.2146  0.3856  0.1108
  535MOL0     C70543   2.028   3.872   0.488 -0.6791  0.0733  0.6039
  535MOL0     C70544   2.152   3.916   0.445  0.0905 -0.3623  0.3594
  535MOL0     C70545   2.179   4.040   0.386 -0.1680 -0.6092  0.2069
  535MOL0     O70546   2.298   4.088   0.334 -0.0920 -0.1884 -0.4732
  535MOL0     C70547   2.408   3.992   0.319  1.4953 -0.5078 -0.1776
  535MOL0     C70548   2.486   3.965   0.457  1.2695 -1.1182  0.2172
  535MOL0     C70549   2.565   4.093   0.505  0.4338  0.8138 -0.0632
  535MOL0     C70550   2.637   4.051   0.631 -0.0326  0.1252  0.7450
  535MOL0     C70551   2.696   4.173   0.688 -0.6655 -0.5944 -0.3105
  535MOL0     C70552   2.753   4.263   0.733  0.4379  0.0982 -0.9021
  535MOL0     C70553   2.071   4.127   0.385  0.2940  0.3658 -0.9494
  535MOL0     C70554   1.945   4.089   0.426 -0.4595 -0.8524 -0.4130
  535MOL0     H70555   1.523   3.912   0.655 -3.6812 -0.2735 -0.9201
  535MOL0     H70556   1.325   3.805   0.672 -0.2903  1.3030 -0.7895
  535MOL0     H70557   1.084   3.510   0.630  2.3814 -2.5046 -1.9693
  535MOL0     H70558   1.123   3.689   0.630  2.9252  1.4222  0.7616
  535MOL0     H70559   1.056   3.624   0.835  0.2197 -0.1333 -1.8050
  535MOL0     H70560   1.215   3.684   0.851 -1.6500  2.3461  0.7036
  535MOL0     H70561   1.305   3.457   0.840  0.5810  3.4483  0.9295
  535MOL0     H70562   1.139   3.392   0.814 -3.9149  0.8543  1.2566
  535MOL0     H70563   1.073   3.460   1.049 -1.4859 -0.3373 -1.3843
  535MOL0     H70564   1.200   3.341   1.041  3.2152 -0.5465 -3.7562
  535MOL0     H70565   1.231   3.632   1.089 -0.8921 -0.1875 -0.0550
  535MOL0     H70566   1.363   3.518   1.054 -0.2531  0.7649 -2.4269
  535MOL0     H70567   1.356   3.418   1.246  0.4791 -0.3855  0.2180
  535MOL0     H70568   1.182   3.440   1.264  1.0717 -2.7558 -3.1256
  535MOL0     H70569   1.400   3.671   1.262 -2.4055  2.4214  0.5140
  535MOL0     H70570   1.242   3.690   1.332 -1.3570 -0.8768 -3.3079
  535MOL0     H70571   1.290   3.494   1.495  0.7201  0.0240  0.7817
  535MOL0     H70572   1.349   3.657   1.526 -3.7625 -1.5697  1.9434
  535MOL0     H70573   1.614   3.713   1.417 -0.3020  0.2746 -1.2313
  535MOL0     H70574   1.914   3.485   1.380 -1.0740 -1.0200  0.5987
  535MOL0     H70575   1.871   3.649   1.427  5.7464 -0.3722 -0.8594
  535MOL0     H70576   1.769   3.703   1.209 -0.7015 -0.6600 -3.6188
  535MOL0     H70577   1.831   3.541   1.159  1.0582 -0.7969  0.9805
  535MOL0     H70578   2.017   3.764   1.266  0.2957  0.5166 -1.1378
  535MOL0     H70579   2.064   3.630   1.197  1.3947  0.8151  1.2864
  535MOL0     H70580   1.939   3.884   1.062  0.8761 -0.2165  1.2083
  535MOL0     H70581   1.907   3.732   0.979 -0.5301 -0.1063  0.4455
  535MOL0     H70582   1.970   3.908   0.829 -0.6473  0.7344  1.6387
  535MOL0     H70583   2.031   4.126   0.718 -1.0337 -0.9943 -0.0571
  535MOL0     H70584   2.373   4.386   0.514  1.0852  0.1227 -0.5094
  535MOL0     H70585   2.467   4.584   0.428  1.3004 -1.1498 -1.0564
  535MOL0     H70586   2.648   4.704   0.351 -1.8390  0.6174  0.6937
  535MOL0     H70587   2.750   4.607   0.454 -0.1070  0.3310  2.4037
  535MOL0     H70588   2.814   4.889   0.367  2.9431  0.7225 -0.1900
  535MOL0     H70589   2.913   4.741   0.365  1.2758  0.7507  0.4906
  535MOL0     H70590   2.814   4.896   0.617  1.6812  0.9645 -1.1252
  535MOL0     H70591   2.965   4.914   0.542  2.3314 -2.6640  0.5005
  535MOL0     H70592   2.880   4.636   0.638  3.4402 -2.8714 -0.4345
  535MOL0     H70593   3.039   4.690   0.582 -0.4198 -1.5449  1.0880
  535MOL0     H70594   2.902   4.823   0.827 -0.8007 -0.9779 -0.6963
  535MOL0     H70595   3.064   4.849   0.761 -0.1345  1.1381 -0.3816
  535MOL0     H70596   3.142   4.645   0.823  0.4817 -1.3332  2.6547
  535MOL0     H70597   2.992   4.558   0.839 -0.5431 -0.0309  0.8719
  535MOL0     H70598   3.060   4.777   1.029 -0.1306  0.0805  0.5719
  535MOL0     H70599   2.907   4.722   1.006 -0.2881  1.3265 -2.0475
  535MOL0     H70600   3.050   4.588   1.200  4.5700  1.3077  0.6377
  535MOL0     H70601   3.151   4.545   1.060  0.0963 -1.2322 -0.0363
  535MOL0     H70602   2.662   4.649   0.812 -1.0168  0.8479  0.6277
  535MOL0     H70603   2.536   4.440   0.896  1.7318  1.4142  0.9345
  535MOL0     H70604   2.430   4.076   0.894  0.4693 -1.0290 -2.6203
  535MOL0     H70605   2.339   3.884   1.034 -0.2304 -0.4720  0.7779
  535MOL0     H70606   1.487   3.441   0.516 -0.1465 -0.9931  1.9774
  535MOL0     H70607   1.699   3.555   0.490 -0.7475 -1.0048  1.0957
  535MOL0     H70608   2.029   3.772   0.531  0.3150 -1.0468 -1.8538
  535MOL0     H70609   2.229   3.840   0.448 -0.9497 -1.4316  3.5178
  535MOL0     H70610   2.479   4.021   0.241  0.5799 -0.6207 -1.0812
  535MOL0     H70611   2.374   3.894   0.284  2.8708 -0.3783 -2.0254
  535MOL0     H70612   2.414   3.936   0.534  0.7432  0.6757  0.4499
  535MOL0     H70613   2.569   3.896   0.439  1.6755 -0.7718  0.7331
  535MOL0     H70614   2.489   4.170   0.523  0.1834  0.1542  1.9569
  535MOL0     H70615   2.641   4.126   0.434 -0.7530  0.0796 -1.7310
  535MOL0     H70616   2.571   4.012   0.709 -0.7879 -0.5175 -0.1968
  535MOL0     H70617   2.717   3.978   0.622  1.1098  1.6333 -3.5911
  535MOL0     H70618   2.775   4.355   0.782  0.9291 -0.1368 -0.6765
  535MOL0     H70619   2.083   4.225   0.338 -2.0222  0.7108 -0.9535
  535MOL0     H70620   1.863   4.160   0.427  0.0837 -0.0565 -2.9790
  536MOL0     O70621   9.050   2.896   6.066 -0.2556  0.0162 -0.0461
  536MOL0     C70622   9.103   2.800   6.015 -0.0526  0.1384 -0.2968
  536MOL0     O70623   9.039   2.700   5.936 -0.9455 -1.1241  0.2838
  536MOL0     C70624   8.907   2.724   5.913 -0.6569 -0.4812 -0.5896
  536MOL0     C70625   8.861   2.750   5.784 -0.6038 -0.2501 -0.3812
  536MOL0     C70626   8.725   2.762   5.755  0.1096  0.1958 -0.3409
  536MOL0     C70627   8.634   2.743   5.855 -0.2209 -0.2103  0.9183
  536MOL0     O70628   8.501   2.774   5.844  0.2299 -0.1638 -0.1637
  536MOL0     C70629   8.444   2.700   5.738 -0.4931 -0.5859  0.6771
  536MOL0     C70630   8.406   2.565   5.797  0.8128 -0.3248  0.9495
  536MOL0     C70631   8.344   2.555   5.941  1.0231  0.9078 -0.1610
  536MOL0     C70632   8.185   2.585   5.954 -1.0576  1.0626  0.0227
  536MOL0     C70633   8.106   2.551   6.084 -0.5134  0.3830  0.2333
  536MOL0     C70634   8.110   2.678   6.172 -1.0261 -0.7990 -0.2091
  536MOL0     C70635   8.017   2.670   6.293  0.5588 -0.4020 -0.5456
  536MOL0     C70636   7.859   2.670   6.259 -0.7367 -0.0530  0.0140
  536MOL0     N70637   7.818   2.795   6.200 -0.1853  0.6192  0.9486
  536MOL0     C70638   7.770   2.906   6.263  0.8008 -0.0089 -0.3503
  536MOL0     C70639   7.735   2.998   6.166 -0.8172  0.4416  0.8551
  536MOL0     C70640   7.684   3.128   6.190  0.0222 -0.7068 -1.1167
  536MOL0     C70641   7.532   3.123   6.200  0.6472  1.2337  0.3495
  536MOL0     C70642   7.479   3.041   6.321 -0.6030 -0.7086  0.3552
  536MOL0     C70643   7.499   3.121   6.454 -0.0920  0.7258  0.4279
  536MOL0     O70644   7.443   3.048   6.564  0.6641 -0.6906  0.0853
  536MOL0     C70645   7.316   3.083   6.604 -0.3759  0.3780 -0.0632
  536MOL0     C70646   7.291   3.056   6.735  0.4672 -0.2789 -0.0569
  536MOL0     C70647   7.167   3.094   6.795 -0.0761 -0.8360  0.2262
  536MOL0     C70648   7.072   3.167   6.721 -0.7303 -0.8600 -0.3346
  536MOL0     C70649   6.943   3.204   6.781 -0.1665  0.3346  0.7285
  536MOL0     O70650   6.880   3.310   6.727 -0.7859 -0.2436 -0.3605
  536MOL0     C70651   6.788   3.387   6.796 -0.5857 -0.3252  0.0714
  536MOL0     C70652   6.786   3.400   6.937 -1.1124  0.0113 -0.3229
  536MOL0     C70653   6.689   3.485   6.998  0.3304  0.0628 -0.3519
  536MOL0     C70654   6.594   3.558   6.918  0.4324  1.0305 -0.6887
  536MOL0     O70655   6.501   3.631   6.981 -0.6292  0.0319 -0.1532
  536MOL0     C70656   6.373   3.593   6.925  0.2956 -0.2381 -0.3045
  536MOL0     C70657   6.278   3.635   7.034  0.1715 -0.1386  0.6809
  536MOL0     C70658   6.134   3.627   6.979  0.1485  0.3144  0.4070
  536MOL0     C70659   6.101   3.735   6.874 -0.4398  0.8583 -0.6071
  536MOL0     C70660   5.958   3.737   6.830  0.7764  0.6236 -0.5943
  536MOL0     C70661   5.904   3.589   6.790  0.5640  0.3865  0.2857
  536MOL0     C70662   5.764   3.605   6.740  1.3062 -0.2449  0.2842
  536MOL0     C70663   5.698   3.471   6.718 -0.8013  0.6189 -0.4570
  536MOL0    Cl70664   5.808   3.357   6.628 -0.0273  0.6912  0.0991
  536MOL0     C70665   6.600   3.547   6.780 -0.4449  0.4736  0.1332
  536MOL0     C70666   6.696   3.466   6.723 -0.0910  0.0369  0.4577
  536MOL0     O70667   6.914   3.148   6.882 -0.5412  1.1352  0.1968
  536MOL0     C70668   7.107   3.194   6.587 -0.2023 -0.6388  0.2787
  536MOL0     C70669   7.228   3.153   6.526  0.3046 -0.0222  0.2807
  536MOL0     N70670   7.758   2.939   6.040  0.1090 -0.6324 -0.8985
  536MOL0     N70671   7.811   2.823   6.066  0.6042 -0.5991 -0.7510
  536MOL0     C70672   8.679   2.711   5.981  0.8727  0.2266 -0.7722
  536MOL0     C70673   8.810   2.701   6.014  0.1441  0.6291 -1.1695
  536MOL0     C70674   9.242   2.781   6.048 -0.2160  0.5980 -0.0850
  536MOL0     C70675   9.310   2.888   6.092 -0.0361  0.0005  0.4915
  536MOL0     C70676   9.447   2.871   6.126 -0.3943 -0.3910  0.9835
  536MOL0     C70677   9.509   2.748   6.111  0.0511  0.1191  0.0912
  536MOL0     O70678   9.642   2.748   6.142 -0.6167  0.1837 -0.6741
  536MOL0     C70679   9.732   2.649   6.086 -0.5607 -0.3713 -0.5581
  536MOL0     C70680   9.743   2.670   5.937  0.3635  0.2758  0.5582
  536MOL0     C70681   9.850   2.573   5.893 -0.6672 -0.6336  0.4265
  536MOL0     C70682   9.838   2.554   5.740 -0.0731 -0.3825 -0.5226
  536MOL0     C70683   9.881   2.417   5.694 -0.6101  0.3486  0.0158
  536MOL0     C70684   9.917   2.306   5.675  0.7654  0.2757  0.2020
  536MOL0     C70685   9.434   2.638   6.062  0.8325  0.0725 -0.2439
  536MOL0     C70686   9.302   2.652   6.030  0.0171  0.3051 -0.1287
  536MOL0     H70687   8.926   2.768   5.698 -0.3029 -0.2728 -0.1617
  536MOL0     H70688   8.714   2.812   5.659  0.4884  3.2532  1.1094
  536MOL0     H70689   8.515   2.676   5.658  1.4166 -4.9035  3.2846
  536MOL0     H70690   8.358   2.757   5.702 -2.3065 -1.6382  3.1262
  536MOL0     H70691   8.498   2.505   5.791  1.3500  0.4800  0.9716
  536MOL0     H70692   8.322   2.532   5.736 -1.3283  1.1042  2.9567
  536MOL0     H70693   8.405   2.613   6.010  2.6627  2.1501 -2.4902
  536MOL0     H70694   8.363   2.450   5.965 -0.9595  1.4024  4.6891
  536MOL0     H70695   8.169   2.689   5.923  0.2817  0.5095 -2.8342
  536MOL0     H70696   8.132   2.524   5.881  1.8217 -3.2201  1.1508
  536MOL0     H70697   8.162   2.470   6.132 -1.1320 -0.3554 -0.2589
  536MOL0     H70698   8.003   2.518   6.065 -0.6983  1.2416 -0.2969
  536MOL0     H70699   8.082   2.762   6.107  2.8383 -0.7787 -2.1732
  536MOL0     H70700   8.212   2.698   6.207  0.1783  0.1269 -3.7959
  536MOL0     H70701   8.050   2.575   6.336  1.1645 -0.3742 -0.9408
  536MOL0     H70702   8.033   2.748   6.368 -2.2920  2.6276 -2.7942
  536MOL0     H70703   7.806   2.661   6.354  0.8729 -0.0296  0.9507
  536MOL0     H70704   7.831   2.590   6.190  0.7607  0.2860 -1.0520
  536MOL0     H70705   7.753   2.917   6.370  0.4939 -2.0828 -0.1464
  536MOL0     H70706   7.711   3.187   6.102 -3.0012 -0.4564 -1.9904
  536MOL0     H70707   7.732   3.163   6.282 -2.7369 -0.2502  0.2577
  536MOL0     H70708   7.481   3.077   6.116 -2.2399 -0.0527  2.6236
  536MOL0     H70709   7.496   3.225   6.213 -0.5538  0.5813  2.9752
  536MOL0     H70710   7.372   3.026   6.303 -0.7585 -0.6196  1.1778
  536MOL0     H70711   7.512   2.937   6.321  0.5672 -0.3557 -0.3841
  536MOL0     H70712   7.465   3.225   6.446  0.5131  0.9908  1.0733
  536MOL0     H70713   7.606   3.135   6.473  0.0372  1.4513 -0.7760
  536MOL0     H70714   7.362   2.995   6.792 -1.3530 -0.4588  2.1804
  536MOL0     H70715   7.155   3.067   6.899  0.0458  2.0346  1.0636
  536MOL0     H70716   6.863   3.360   7.002  0.7090  2.8783 -0.5255
  536MOL0     H70717   6.695   3.492   7.106  0.0815  0.9465 -0.3870
  536MOL0     H70718   6.354   3.487   6.905  0.5680  0.2234 -3.5297
  536MOL0     H70719   6.356   3.650   6.833  0.1616 -0.6702 -0.5497
  536MOL0     H70720   6.298   3.736   7.069 -3.6359  0.5273  1.3482
  536MOL0     H70721   6.277   3.572   7.123 -0.5491 -1.5771 -0.2915
  536MOL0     H70722   6.055   3.640   7.053 -1.3468  1.0707 -1.2423
  536MOL0     H70723   6.127   3.530   6.929  0.2978  2.2548 -3.7982
  536MOL0     H70724   6.132   3.838   6.895  0.0970  0.9520 -1.7762
  536MOL0     H70725   6.153   3.717   6.780 -1.7022  0.2507 -1.2118
  536MOL0     H70726   5.935   3.799   6.743  1.6541  2.4570  0.4161
  536MOL0     H70727   5.898   3.773   6.914  4.1071  0.3404  2.1381
  536MOL0     H70728   5.896   3.539   6.886 -2.8987  1.8354  0.8836
  536MOL0     H70729   5.973   3.533   6.726  1.4250  0.0525  1.4801
  536MOL0     H70730   5.702   3.665   6.807  0.2531  0.6667 -1.4508
  536MOL0     H70731   5.766   3.662   6.647 -1.9076 -1.2468 -0.5394
  536MOL0     H70732   5.609   3.477   6.654 -1.7513 -2.3863  0.4099
  536MOL0     H70733   5.657   3.422   6.807 -2.9290 -0.4065 -1.9101
  536MOL0     H70734   6.529   3.590   6.709  0.1544 -0.5347 -1.1211
  536MOL0     H70735   6.698   3.457   6.615  1.8236 -2.3598  0.6091
  536MOL0     H70736   7.027   3.249   6.539 -1.6189 -0.6794  2.4622
  536MOL0     H70737   7.243   3.168   6.419 -0.5315 -0.9422  0.0199
  536MOL0     H70738   8.600   2.681   6.050  3.5433 -1.2534  1.9288
  536MOL0     H70739   8.836   2.667   6.114  0.3513  0.0205 -1.4236
  536MOL0     H70740   9.272   2.989   6.104  0.1468 -0.1576  2.7735
  536MOL0     H70741   9.500   2.964   6.146 -2.9896  1.1980  0.8863
  536MOL0     H70742   9.690   2.552   6.112 -0.4517 -0.0372  0.9128
  536MOL0     H70743   9.832   2.656   6.129 -0.9194  0.7971  0.1028
  536MOL0     H70744   9.644   2.648   5.896 -0.0264  1.0727  1.0452
  536MOL0     H70745   9.775   2.773   5.915  0.1393 -0.2543 -2.6686
  536MOL0     H70746   9.847   2.482   5.953 -1.6373 -0.6048  0.4407
  536MOL0     H70747   9.947   2.615   5.920 -1.8296  1.9081  0.9424
  536MOL0     H70748   9.732   2.557   5.713 -0.2418 -1.5039 -0.0455
  536MOL0     H70749   9.887   2.636   5.686 -0.7088  0.5324  0.2602
  536MOL0     H70750   9.943   2.203   5.669 -1.8775 -0.3893 -2.0186
  536MOL0     H70751   9.471   2.540   6.032 -2.5846 -1.9360  1.4005
  536MOL0     H70752   9.241   2.572   5.989  0.0593 -0.0508  0.4901
  537MOL0     O70753   7.024   9.531   1.589  0.0917 -0.0646  1.2079
  537MOL0     C70754   7.084   9.475   1.673 -0.1835  0.0210 -0.7926
  537MOL0     O70755   7.170   9.373   1.661 -0.2951 -0.0479 -0.1395
  537MOL0     C70756   7.181   9.307   1.535  0.1002 -0.1003  0.1025
  537MOL0     C70757   7.261   9.351   1.434  0.2549 -0.5946  0.3950
  537MOL0     C70758   7.268   9.283   1.318  0.4150  0.5287  0.1611
  537MOL0     C70759   7.185   9.169   1.292  0.7523 -0.6800  0.1477
  537MOL0     O70760   7.202   9.112   1.170  0.0997  0.4422  0.2499
  537MOL0     C70761   7.157   8.978   1.143 -0.5131  0.6293  0.5479
  537MOL0     C70762   7.231   8.910   1.030  0.3863 -0.4813 -0.1002
  537MOL0     C70763   7.214   8.984   0.895  0.9594  0.4323 -0.0433
  537MOL0     C70764   7.264   8.893   0.792  0.4349  0.2376 -0.1607
  537MOL0     C70765   7.240   8.941   0.649  0.1313  0.4261  0.0736
  537MOL0     C70766   7.101   8.925   0.601 -0.2716  0.9793 -0.0416
  537MOL0     C70767   7.080   9.000   0.474 -0.3099 -0.0957  0.0428
  537MOL0     C70768   6.939   8.985   0.417 -1.3896  0.1174  0.5624
  537MOL0     N70769   6.828   9.012   0.506 -0.1975 -0.0488  0.6465
  537MOL0     C70770   6.778   9.145   0.505  0.0024  0.9705  0.1046
  537MOL0     C70771   6.664   9.129   0.585  0.5495 -0.7730  0.7927
  537MOL0     C70772   6.547   9.218   0.625  0.0900 -0.2568  0.0013
  537MOL0     C70773   6.442   9.231   0.520  0.1125  0.5055 -0.6989
  537MOL0     C70774   6.376   9.100   0.480 -0.4640  1.1461 -0.2901
  537MOL0     C70775   6.314   9.015   0.598  0.0409 -0.2520  0.7675
  537MOL0     O70776   6.189   9.076   0.639 -0.5300  0.0029  0.3025
  537MOL0     C70777   6.074   9.057   0.560  0.3758  0.2598  0.3840
  537MOL0     C70778   6.077   9.006   0.437 -0.6681 -0.2601 -1.0433
  537MOL0     C70779   5.966   8.970   0.372  0.0682  1.3294 -0.3681
  537MOL0     C70780   5.836   8.992   0.421 -0.5394 -0.4258 -0.2221
  537MOL0     C70781   5.714   8.944   0.362  0.4208 -0.4278  0.2569
  537MOL0     O70782   5.595   8.971   0.422 -0.3642 -0.0620 -0.5839
  537MOL0     C70783   5.475   8.940   0.361  1.1332  0.7677 -0.2851
  537MOL0     C70784   5.361   8.991   0.433 -0.5384  0.2789 -0.0543
  537MOL0     C70785   5.233   8.967   0.386 -0.3531  0.0492  0.2345
  537MOL0     C70786   5.216   8.892   0.271  0.5355 -0.5082 -0.4072
  537MOL0     O70787   5.088   8.848   0.237  0.1397  0.2773 -0.6305
  537MOL0     C70788   4.972   8.906   0.288  0.2742  0.5168  0.1649
  537MOL0     C70789   4.849   8.833   0.232  0.2860  0.2060  0.1097
  537MOL0     C70790   4.720   8.861   0.317 -0.1692 -0.6253  0.3521
  537MOL0     C70791   4.623   8.771   0.246  0.3067  0.7543 -0.6133
  537MOL0     C70792   4.478   8.788   0.299 -0.2928  0.1462 -0.1204
  537MOL0     C70793   4.397   8.652   0.303 -0.0674 -0.2762  0.8759
  537MOL0     C70794   4.453   8.538   0.386 -0.3045  0.9486 -0.0933
  537MOL0     C70795   4.355   8.487   0.497 -0.4728  0.5453  0.8852
  537MOL0    Cl70796   4.428   8.376   0.607  0.5373 -0.2984 -0.2217
  537MOL0     C70797   5.325   8.845   0.209 -0.2874  0.2651  0.2389
  537MOL0     C70798   5.451   8.860   0.256  0.2587  0.3335 -0.2336
  537MOL0     O70799   5.730   8.927   0.246 -0.3908 -0.2520 -0.8513
  537MOL0     C70800   5.826   9.071   0.539  0.2218  0.9513 -0.9248
  537MOL0     C70801   5.948   9.087   0.611  0.6657  0.0278 -0.1426
  537MOL0     N70802   6.660   8.998   0.626 -0.0513  0.2372 -0.2055
  537MOL0     N70803   6.764   8.931   0.588 -0.6029  0.3616  0.4342
  537MOL0     C70804   7.099   9.124   1.393 -0.2228 -0.3234  0.6570
  537MOL0     C70805   7.097   9.191   1.508  0.5619  0.7825 -0.3129
  537MOL0     C70806   7.045   9.501   1.816  0.8273 -0.5301  0.2666
  537MOL0     C70807   6.928   9.579   1.852 -0.4466  0.1375 -0.1024
  537MOL0     C70808   6.887   9.595   1.988 -0.7277  0.4292 -0.0540
  537MOL0     C70809   6.957   9.535   2.087  0.8225 -0.8035 -0.5055
  537MOL0     O70810   6.913   9.560   2.211 -0.4232 -0.3562  0.3927
  537MOL0     C70811   6.860   9.434   2.273  0.0531 -0.3657  0.1617
  537MOL0     C70812   6.738   9.472   2.362  0.5524  0.5359  1.1107
  537MOL0     C70813   6.756   9.578   2.468  0.2218 -0.0447 -0.3685
  537MOL0     C70814   6.858   9.528   2.574  0.0962 -0.5589 -0.3468
  537MOL0     C70815   6.804   9.424   2.671 -0.1961  0.2198 -0.1370
  537MOL0     C70816   6.749   9.344   2.742 -1.1234 -0.1168 -0.4911
  537MOL0     C70817   7.082   9.475   2.064  0.0845 -0.5060 -0.5271
  537MOL0     C70818   7.115   9.457   1.933  0.2952  0.0145  0.0817
  537MOL0     H70819   7.324   9.437   1.454  0.6765 -0.4206 -1.5393
  537MOL0     H70820   7.342   9.302   1.241 -0.1395  1.5326 -0.1457
  537MOL0     H70821   7.050   8.977   1.121 -1.2132  2.3039  3.3164
  537MOL0     H70822   7.190   8.904   1.218  1.0854  1.0348  0.2740
  537MOL0     H70823   7.209   8.804   1.011  0.3089 -0.5553  0.3846
  537MOL0     H70824   7.338   8.925   1.045  0.9818 -2.3401 -1.9214
  537MOL0     H70825   7.275   9.073   0.881  1.9211 -0.6062 -3.3217
  537MOL0     H70826   7.108   9.009   0.884  0.4872 -0.9567  1.0213
  537MOL0     H70827   7.371   8.880   0.810  0.3583  1.0461  0.9586
  537MOL0     H70828   7.221   8.793   0.798 -0.6821  0.6144 -1.4847
  537MOL0     H70829   7.302   8.889   0.576  2.0832  2.9438 -0.2049
  537MOL0     H70830   7.267   9.047   0.640  0.3119  0.3167 -0.7145
  537MOL0     H70831   7.024   8.945   0.676 -1.3525  1.8663 -1.3364
  537MOL0     H70832   7.074   8.826   0.561  1.0339  0.8596 -0.6641
  537MOL0     H70833   7.095   9.106   0.494  2.0975 -0.0147 -1.6687
  537MOL0     H70834   7.160   8.977   0.402  0.0784  2.8055 -0.5729
  537MOL0     H70835   6.945   8.878   0.397  1.5997  0.7293 -3.0061
  537MOL0     H70836   6.944   9.039   0.321  1.4548  0.0167  0.5725
  537MOL0     H70837   6.821   9.228   0.450  1.1903 -0.5377 -1.3300
  537MOL0     H70838   6.586   9.319   0.643 -0.3722  0.1613 -1.2409
  537MOL0     H70839   6.499   9.196   0.721 -2.1239  2.9691 -0.2063
  537MOL0     H70840   6.494   9.285   0.439  1.1792  0.2784 -0.1913
  537MOL0     H70841   6.367   9.299   0.560 -0.4957  0.5224 -1.8143
  537MOL0     H70842   6.299   9.110   0.403  0.7243 -0.8608 -1.8226
  537MOL0     H70843   6.455   9.038   0.437 -2.0229 -2.3032  1.3747
  537MOL0     H70844   6.385   9.010   0.681 -0.3423 -1.8198  1.0302
  537MOL0     H70845   6.295   8.914   0.559 -2.5911  1.4656 -2.9980
  537MOL0     H70846   6.161   8.966   0.380  0.4478 -0.9528  0.9621
  537MOL0     H70847   5.963   8.905   0.285 -0.3211 -0.2850  0.8058
  537MOL0     H70848   5.385   9.047   0.523  1.9726 -1.3720  0.3694
  537MOL0     H70849   5.158   8.997   0.458  0.5856  0.5860  1.0208
  537MOL0     H70850   4.973   9.014   0.270  0.5940  0.9861  2.5963
  537MOL0     H70851   4.961   8.889   0.395 -3.6094  0.2036 -0.1442
  537MOL0     H70852   4.866   8.725   0.231 -0.7019 -0.0374  2.5063
  537MOL0     H70853   4.837   8.871   0.130  1.3029  1.5043  0.4387
  537MOL0     H70854   4.718   8.969   0.305 -0.2169 -0.5755  0.7998
  537MOL0     H70855   4.737   8.824   0.419  0.3999 -3.4418 -0.6793
  537MOL0     H70856   4.627   8.802   0.141  0.6705  0.5932 -0.6481
  537MOL0     H70857   4.647   8.665   0.245 -0.9654  0.3565  2.2109
  537MOL0     H70858   4.420   8.861   0.242  2.3905  0.3722 -2.8324
  537MOL0     H70859   4.481   8.829   0.400  0.8976  1.1043 -0.5249
  537MOL0     H70860   4.394   8.606   0.204 -1.5975  1.1828  0.1931
  537MOL0     H70861   4.294   8.675   0.329 -0.4001 -2.5150  1.7294
  537MOL0     H70862   4.476   8.457   0.316  0.0112  0.9679 -0.0130
  537MOL0     H70863   4.548   8.565   0.433 -0.0254  2.8534 -1.6643
  537MOL0     H70864   4.278   8.429   0.446  2.4619 -3.6404  0.6809
  537MOL0     H70865   4.300   8.566   0.550 -1.2848 -0.1829  1.1440
  537MOL0     H70866   5.308   8.800   0.111  1.9801  1.2876 -0.6977
  537MOL0     H70867   5.540   8.815   0.213 -1.4749 -0.9322 -2.7414
  537MOL0     H70868   5.732   9.101   0.583  0.0874  4.4372 -3.2113
  537MOL0     H70869   5.949   9.133   0.710  0.6942  0.3681 -0.2991
  537MOL0     H70870   7.022   9.055   1.361 -1.8931  1.9345 -0.4166
  537MOL0     H70871   7.034   9.163   1.592  0.4590 -1.6094 -1.1201
  537MOL0     H70872   6.865   9.605   1.767  0.5807  2.2272 -0.2979
  537MOL0     H70873   6.788   9.638   1.998 -1.3099 -1.3529  2.9532
  537MOL0     H70874   6.937   9.384   2.333 -1.1225 -0.7707  1.3860
  537MOL0     H70875   6.826   9.359   2.201 -1.6899 -3.7629  4.0778
  537MOL0     H70876   6.670   9.505   2.284  1.8576 -0.9726 -0.7724
  537MOL0     H70877   6.688   9.381   2.398  2.1634 -0.2948  1.3937
  537MOL0     H70878   6.669   9.610   2.525  0.7247 -2.6512  2.0993
  537MOL0     H70879   6.782   9.670   2.414 -1.2343  0.6374  0.0591
  537MOL0     H70880   6.946   9.486   2.524  0.5538 -0.0656  0.0488
  537MOL0     H70881   6.874   9.614   2.639 -1.6111 -0.7308  0.3442
  537MOL0     H70882   6.693   9.269   2.795  0.6486 -1.2100 -0.1030
  537MOL0     H70883   7.156   9.442   2.136  0.0724  0.8292  0.1267
  537MOL0     H70884   7.196   9.388   1.914  0.7714  1.1744 -2.5544
  538MOL0     O70885   5.590   2.286   9.030 -0.3150 -0.3674  0.0466
  538MOL0     C70886   5.668   2.331   9.117  0.1955  0.2339  0.3790
  538MOL0     O70887   5.722   2.457   9.111  0.1313 -0.5591 -0.1273
  538MOL0     C70888   5.670   2.535   9.020 -0.9224 -0.4542  1.1298
  538MOL0     C70889   5.744   2.546   8.908 -0.3247 -0.5343  0.8771
  538MOL0     C70890   5.696   2.618   8.800  0.3832 -0.3817 -0.5491
  538MOL0     C70891   5.562   2.675   8.807 -0.7621 -0.6303 -0.3662
  538MOL0     O70892   5.527   2.763   8.715  0.5326 -0.1660  0.7633
  538MOL0     C70893   5.589   2.760   8.585 -1.0439  0.7285  0.2144
  538MOL0     C70894   5.499   2.842   8.497  0.1811  0.6836  0.2375
  538MOL0     C70895   5.511   2.996   8.512 -0.0882  1.0322  0.5289
  538MOL0     C70896   5.416   3.061   8.612 -0.6858  0.0929  0.6036
  538MOL0     C70897   5.269   3.027   8.597  0.0364  0.0195 -0.7008
  538MOL0     C70898   5.177   3.139   8.635  0.6507  0.4515 -0.0937
  538MOL0     C70899   5.045   3.084   8.698 -0.6168  0.5603  0.1594
  538MOL0     C70900   4.954   3.021   8.591 -0.6201  0.2691  0.0637
  538MOL0     N70901   4.886   3.126   8.519 -0.0520 -0.0890  0.6670
  538MOL0     C70902   4.784   3.208   8.569 -0.1671 -0.2886  1.5574
  538MOL0     C70903   4.746   3.279   8.462  0.3004 -0.7057  0.2621
  538MOL0     C70904   4.652   3.388   8.441 -1.3409  0.1627 -0.4922
  538MOL0     C70905   4.499   3.333   8.435  0.4317  0.4076 -0.0653
  538MOL0     C70906   4.411   3.443   8.384 -1.1503 -0.7039 -0.5454
  538MOL0     C70907   4.260   3.427   8.395 -0.1600  0.0277 -0.0461
  538MOL0     O70908   4.215   3.323   8.305 -0.1498 -0.0313 -0.4011
  538MOL0     C70909   4.137   3.351   8.194  0.5770 -0.6106 -0.2287
  538MOL0     C70910   4.175   3.450   8.104 -0.0234  0.5028 -0.4071
  538MOL0     C70911   4.103   3.462   7.983 -0.2122 -0.1765  0.1552
  538MOL0     C70912   3.989   3.383   7.959  0.4326 -0.4200 -0.0846
  538MOL0     C70913   3.911   3.398   7.832 -0.5058  0.8759 -0.8813
  538MOL0     O70914   3.957   3.480   7.736 -0.1834 -0.0702 -0.0660
  538MOL0     C70915   3.903   3.489   7.604  1.0721 -0.9164  0.4457
  538MOL0     C70916   3.870   3.387   7.511  1.0204 -0.0185 -0.0947
  538MOL0     C70917   3.804   3.406   7.390  0.1044  0.1155 -0.3249
  538MOL0     C70918   3.775   3.530   7.348  0.0259 -0.6045  0.1194
  538MOL0     O70919   3.718   3.551   7.224 -0.5894 -0.2513 -0.9064
  538MOL0     C70920   3.624   3.453   7.175  0.4646 -0.7807  0.0894
  538MOL0     C70921   3.508   3.534   7.111  0.5423 -0.0370  0.0145
  538MOL0     C70922   3.503   3.522   6.960 -0.2155 -0.5350  0.8794
  538MOL0     C70923   3.645   3.547   6.903  0.5189  0.0490  0.4096
  538MOL0     C70924   3.660   3.610   6.760  0.5031  0.1818 -0.4085
  538MOL0     C70925   3.592   3.508   6.670 -0.7838 -1.1320 -0.8641
  538MOL0     C70926   3.445   3.552   6.635  0.2652 -0.5453 -0.3264
  538MOL0     C70927   3.402   3.478   6.510  0.3873  0.1844  0.0043
  538MOL0    Cl70928   3.426   3.292   6.543  0.1832  0.4467  0.5358
  538MOL0     C70929   3.792   3.639   7.438  0.1848 -0.1863  0.0705
  538MOL0     C70930   3.858   3.611   7.562 -0.2220 -0.5703 -0.2079
  538MOL0     O70931   3.814   3.327   7.819  0.6652  0.0403 -0.7040
  538MOL0     C70932   3.956   3.274   8.057 -0.3219 -0.0026  0.2441
  538MOL0     C70933   4.029   3.263   8.171  0.2042  0.7239 -0.3300
  538MOL0     N70934   4.829   3.243   8.350  0.6828  0.7898  0.1292
  538MOL0     N70935   4.906   3.151   8.384 -0.5245  0.0032  0.6714
  538MOL0     C70936   5.484   2.654   8.926  0.5324 -0.6360 -0.3605
  538MOL0     C70937   5.537   2.582   9.027 -0.2942  0.2237 -0.0201
  538MOL0     C70938   5.728   2.228   9.211 -1.3939 -0.5631  0.2768
  538MOL0     C70939   5.844   2.256   9.283  0.0256 -0.2561  0.0241
  538MOL0     C70940   5.894   2.164   9.379 -0.5786  0.1245  0.2326
  538MOL0     C70941   5.842   2.035   9.387  0.0846 -1.0408 -0.4833
  538MOL0     O70942   5.876   1.951   9.497  0.2837 -0.3056  0.4675
  538MOL0     C70943   5.837   1.812   9.494 -0.7560  0.4795 -0.9903
  538MOL0     C70944   5.920   1.743   9.596 -0.1068 -0.3104  0.0076
  538MOL0     C70945   5.917   1.802   9.737 -0.1810 -0.0705  0.1899
  538MOL0     C70946   5.975   1.706   9.846 -0.2011 -0.9514  0.2591
  538MOL0     C70947   6.123   1.724   9.843  0.3939 -0.4217  0.0422
  538MOL0     C70948   6.233   1.756   9.842  0.2525 -1.6086 -0.1890
  538MOL0     C70949   5.738   2.000   9.302 -0.1840 -0.5264 -0.2240
  538MOL0     C70950   5.683   2.097   9.216  0.3128 -0.5012 -0.6428
  538MOL0     H70951   5.842   2.507   8.882 -1.3188 -2.9234  0.4926
  538MOL0     H70952   5.767   2.623   8.718 -0.4254  0.7349 -1.2088
  538MOL0     H70953   5.586   2.663   8.535 -0.1312  0.7194  0.1627
  538MOL0     H70954   5.685   2.813   8.583  0.4194 -1.7689 -0.6337
  538MOL0     H70955   5.404   2.798   8.529  0.6995 -1.8703 -1.3922
  538MOL0     H70956   5.521   2.817   8.392  1.0640  0.5035  0.4606
  538MOL0     H70957   5.479   3.033   8.414 -0.7795 -2.0912 -0.5273
  538MOL0     H70958   5.615   3.020   8.538 -0.6072 -0.1575  4.2610
  538MOL0     H70959   5.448   3.041   8.715 -0.0839 -0.6700  0.2778
  538MOL0     H70960   5.434   3.166   8.588  1.4270 -0.3922 -0.0919
  538MOL0     H70961   5.263   2.941   8.663  2.8636  0.0570 -0.2968
  538MOL0     H70962   5.249   2.992   8.495 -0.7512 -1.8969  0.0719
  538MOL0     H70963   5.150   3.199   8.547 -0.0137 -0.1489 -0.3017
  538MOL0     H70964   5.229   3.202   8.708  4.2683  0.6595 -2.5663
  538MOL0     H70965   5.076   3.001   8.764 -1.2036 -0.8216 -1.2355
  538MOL0     H70966   5.002   3.166   8.756 -2.7801 -0.2453 -0.2074
  538MOL0     H70967   4.883   2.952   8.638 -1.4272 -1.2456 -3.0502
  538MOL0     H70968   5.017   2.959   8.526 -0.2534 -0.4549  1.0857
  538MOL0     H70969   4.761   3.217   8.675  3.7376 -0.0102  2.5520
  538MOL0     H70970   4.672   3.417   8.337 -2.4332  0.4633 -0.6308
  538MOL0     H70971   4.676   3.475   8.503 -1.1186 -1.4988  1.8705
  538MOL0     H70972   4.474   3.304   8.537 -1.6556  4.0435  0.6269
  538MOL0     H70973   4.489   3.244   8.371  1.2888  0.9559 -0.9934
  538MOL0     H70974   4.441   3.530   8.444  0.7711 -2.0111  0.5004
  538MOL0     H70975   4.443   3.468   8.283  1.7414  0.4944  0.5423
  538MOL0     H70976   4.215   3.523   8.368  0.9679  0.3352 -0.9363
  538MOL0     H70977   4.227   3.400   8.496 -2.3174  0.5594 -0.5513
  538MOL0     H70978   4.262   3.512   8.123 -0.3779  1.0418 -0.5383
  538MOL0     H70979   4.130   3.536   7.908 -1.6227 -1.2745 -1.4905
  538MOL0     H70980   3.885   3.281   7.530 -0.8255 -0.3030 -0.0462
  538MOL0     H70981   3.780   3.319   7.331 -2.7033  1.2735 -1.0484
  538MOL0     H70982   3.570   3.392   7.248  2.5677 -0.9274  1.6262
  538MOL0     H70983   3.669   3.380   7.106 -2.6767 -0.7328 -2.2638
  538MOL0     H70984   3.522   3.639   7.141 -1.5571 -0.1090  1.3693
  538MOL0     H70985   3.415   3.494   7.150  0.4844  1.5769  1.6759
  538MOL0     H70986   3.428   3.591   6.919 -0.6597 -1.5521 -0.0577
  538MOL0     H70987   3.483   3.419   6.931  0.0815 -0.8750  1.8493
  538MOL0     H70988   3.695   3.618   6.970  0.8549 -1.3365  1.6582
  538MOL0     H70989   3.699   3.453   6.916 -1.7546 -1.2427  1.0126
  538MOL0     H70990   3.763   3.609   6.724  0.9196 -4.8781  0.0893
  538MOL0     H70991   3.636   3.716   6.758  0.4449  0.1579 -1.6209
  538MOL0     H70992   3.595   3.414   6.726  0.7526 -0.3965  0.3706
  538MOL0     H70993   3.657   3.496   6.584 -2.8648  2.6000 -3.2272
  538MOL0     H70994   3.375   3.527   6.715  0.1484  1.5232  0.2827
  538MOL0     H70995   3.434   3.660   6.624 -0.7988 -0.6224 -0.1453
  538MOL0     H70996   3.480   3.502   6.437 -0.2433 -3.1710 -1.9453
  538MOL0     H70997   3.303   3.499   6.468 -0.5146  2.3219  2.8788
  538MOL0     H70998   3.747   3.730   7.400  2.5662  1.1609  0.2733
  538MOL0     H70999   3.884   3.699   7.619  0.6107 -0.7446 -0.2998
  538MOL0     H71000   3.868   3.212   8.040 -0.2120 -0.4977  1.3993
  538MOL0     H71001   4.005   3.188   8.245  2.5054 -2.6308 -2.6563
  538MOL0     H71002   5.381   2.688   8.927  1.2426  1.7009  1.0987
  538MOL0     H71003   5.485   2.562   9.120 -1.7264 -0.0022 -0.8251
  538MOL0     H71004   5.894   2.352   9.277 -2.2285  1.1104  1.4018
  538MOL0     H71005   5.974   2.192   9.447 -0.9568 -1.7736  1.5602
  538MOL0     H71006   5.853   1.775   9.393  0.1816 -1.0924 -0.3007
  538MOL0     H71007   5.731   1.806   9.520 -1.0080 -0.3703 -2.1682
  538MOL0     H71008   5.884   1.640   9.606  0.4955 -0.4324  1.0816
  538MOL0     H71009   6.021   1.751   9.555  0.0519  2.8145  0.7379
  538MOL0     H71010   5.814   1.828   9.763 -0.6954  1.0170 -2.5665
  538MOL0     H71011   5.967   1.898   9.748 -2.4967  0.9410  2.8362
  538MOL0     H71012   5.955   1.735   9.950  0.0917  2.2719 -0.4892
  538MOL0     H71013   5.927   1.609   9.831 -1.4580 -0.3809  0.4229
  538MOL0     H71014   6.332   1.795   9.832 -0.3116  0.9160  2.6237
  538MOL0     H71015   5.682   1.907   9.301 -1.3855  0.1675  0.0785
  538MOL0     H71016   5.597   2.058   9.161  1.1026 -1.4532 -1.2369
  539MOL0     O71017   3.819   0.380   1.263  0.7064 -0.1821 -0.3952
  539MOL0     C71018   3.727   0.316   1.315  0.3389  0.9941 -0.4271
  539MOL0     O71019   3.743   0.226   1.417 -0.7262 -0.2247 -0.3273
  539MOL0     C71020   3.872   0.198   1.459  0.5406 -0.7789  0.5316
  539MOL0     C71021   3.933   0.274   1.562 -0.5617  0.1463 -0.8514
  539MOL0     C71022   4.067   0.263   1.587  0.0110 -0.0811 -0.6526
  539MOL0     C71023   4.142   0.173   1.518 -0.0956  0.5929  0.0649
  539MOL0     O71024   4.273   0.140   1.551  0.6095 -1.2872 -0.2884
  539MOL0     C71025   4.363   0.249   1.577  0.6944 -0.1476 -0.7264
  539MOL0     C71026   4.497   0.184   1.572  1.0583  0.3242  0.3458
  539MOL0     C71027   4.566   0.190   1.706  0.0070  1.1422  1.1626
  539MOL0     C71028   4.699   0.111   1.703 -0.3329  0.5164 -0.1520
  539MOL0     C71029   4.784   0.121   1.830 -0.5749  0.4586  0.1631
  539MOL0     C71030   4.894   0.010   1.840 -0.0321 -0.0215  0.0518
  539MOL0     C71031   5.001   0.022   1.946  1.3100 -0.5411 -0.5441
  539MOL0     C71032   4.940   0.019   2.087 -0.2305 -0.8538 -0.1031
  539MOL0     N71033   5.063   0.026   2.182  1.2293 -0.0847 -0.8393
  539MOL0     C71034   5.126   0.135   2.224 -0.4558  0.1424 -0.0925
  539MOL0     C71035   5.227   0.099   2.302 -0.1501 -0.5852 -0.2060
  539MOL0     C71036   5.320   0.198   2.364 -0.4313 -0.4848 -0.3048
  539MOL0     C71037   5.425   0.239   2.262 -0.3313  0.7250 -0.4102
  539MOL0     C71038   5.520   0.338   2.328 -0.0672  0.0282 -0.5805
  539MOL0     C71039   5.666   0.330   2.272 -0.2051  0.0989 -0.8682
  539MOL0     O71040   5.734   0.217   2.329  0.9208  0.2365 -0.3005
  539MOL0     C71041   5.869   0.191   2.317 -0.1975 -1.0395 -0.6209
  539MOL0     C71042   5.928   0.101   2.404 -0.1321 -0.1794 -0.3306
  539MOL0     C71043   6.051   0.059   2.389 -0.2016 -1.0193  1.0309
  539MOL0     C71044   6.132   0.114   2.280  0.9014  0.5226 -0.3980
  539MOL0     C71045   6.277   0.091   2.265  0.2348  0.4188  1.3783
  539MOL0     O71046   6.352   0.192   2.235  0.0119 -0.7365  0.5872
  539MOL0     C71047   6.483   0.177   2.196  0.2072  0.2698 -0.5840
  539MOL0     C71048   6.601   0.174   2.287  0.0638 -0.3161  0.5462
  539MOL0     C71049   6.724   0.170   2.221 -0.4255  0.2352 -0.2398
  539MOL0     C71050   6.745   0.178   2.083  0.4253  0.7277  0.5274
  539MOL0     O71051   6.872   0.175   2.021  0.0118 -0.2905 -0.6847
  539MOL0     C71052   6.993   0.186   2.099 -0.6399  0.5249  0.0138
  539MOL0     C71053   7.105   0.182   1.983  0.6023 -0.7220  0.4240
  539MOL0     C71054   7.243   0.166   2.046 -0.8998 -0.5055 -0.2391
  539MOL0     C71055   7.347   0.205   1.941  0.0533  0.8382  0.3357
  539MOL0     C71056   7.492   0.176   1.983 -0.3527 -0.2117 -0.4760
  539MOL0     C71057   7.593   0.199   1.866  0.1246  1.3768 -0.3404
  539MOL0     C71058   7.714   0.292   1.907 -0.7122  0.3254 -0.0697
  539MOL0     C71059   7.843   0.242   1.844 -0.9591  0.6807  0.3207
  539MOL0    Cl71060   7.976   0.327   1.919 -0.4183  0.1050  0.0860
  539MOL0     C71061   6.630   0.179   2.005 -0.3081  0.0667  0.2792
  539MOL0     C71062   6.501   0.170   2.061  0.2065  0.8476 -0.3345
  539MOL0     O71063   6.317  -0.016   2.310  0.0660 -0.1652  0.6170
  539MOL0     C71064   6.071   0.220   2.205 -0.2519  0.1482 -0.2227
  539MOL0     C71065   5.942   0.252   2.222  0.3736 -0.6945  0.6747
  539MOL0     N71066   5.222  -0.037   2.301  0.3082  0.5199  0.7594
  539MOL0     N71067   5.119  -0.079   2.246  0.0083 -0.5012 -0.3687
  539MOL0     C71068   4.087   0.107   1.409 -0.8609  0.8734  0.3185
  539MOL0     C71069   3.948   0.117   1.382 -0.2162  0.5200 -0.3508
  539MOL0     C71070   3.589   0.322   1.250 -0.5984 -0.4694 -0.3573
  539MOL0     C71071   3.543   0.433   1.180 -0.0293  0.4785 -0.7285
  539MOL0     C71072   3.417   0.437   1.116 -0.4841  0.6810  1.0227
  539MOL0     C71073   3.338   0.324   1.128 -0.2505 -0.0136  0.5858
  539MOL0     O71074   3.232   0.328   1.045  0.4941  0.1397  0.6156
  539MOL0     C71075   3.122   0.238   1.065  0.0976 -0.1092 -0.4861
  539MOL0     C71076   3.036   0.267   1.192 -0.4293  0.4290 -0.5918
  539MOL0     C71077   3.023   0.420   1.229 -0.4101 -0.7955 -0.3654
  539MOL0     C71078   2.974   0.514   1.110 -0.1130  0.0142 -0.0605
  539MOL0     C71079   3.017   0.650   1.132 -0.3533  1.3966  0.4330
  539MOL0     C71080   3.046   0.768   1.143  0.7624  0.1163  0.4763
  539MOL0     C71081   3.384   0.217   1.201  0.1150  1.1091  0.7619
  539MOL0     C71082   3.504   0.209   1.259 -1.4809  0.0181 -0.2406
  539MOL0     H71083   3.875   0.340   1.626  1.0439  1.8584 -1.1098
  539MOL0     H71084   4.104   0.325   1.668  0.3552  0.0073 -0.8761
  539MOL0     H71085   4.350   0.318   1.660 -0.7380 -1.3519  0.0905
  539MOL0     H71086   4.351   0.318   1.492  0.5534 -0.2494 -0.7883
  539MOL0     H71087   4.558   0.242   1.502 -0.0891  2.7325  1.2275
  539MOL0     H71088   4.485   0.080   1.541  0.2898  0.6820 -0.6369
  539MOL0     H71089   4.500   0.151   1.785  1.3525 -0.0210  1.7402
  539MOL0     H71090   4.586   0.297   1.719 -3.2486  2.2094 -1.2003
  539MOL0     H71091   4.673   0.008   1.679  1.7782  0.2987 -1.7594
  539MOL0     H71092   4.753   0.164   1.624  1.8842 -0.9984  0.2806
  539MOL0     H71093   4.722   0.101   1.918 -0.9083  0.3112 -0.1032
  539MOL0     H71094   4.832   0.218   1.849 -0.4816  0.1230  1.8139
  539MOL0     H71095   4.941   0.017   1.742  0.2812  3.2182  0.3344
  539MOL0     H71096   4.846  -0.087   1.856  1.3809 -0.7026  0.3020
  539MOL0     H71097   5.072  -0.059   1.931 -1.3731 -2.8885 -1.3590
  539MOL0     H71098   5.043   0.121   1.922 -0.5855  0.2835 -0.6298
  539MOL0     H71099   4.885  -0.076   2.080 -0.2770 -0.7916 -0.5994
  539MOL0     H71100   4.874   0.102   2.111 -2.6933 -3.0982  1.4454
  539MOL0     H71101   5.099   0.240   2.209  0.4360  0.9171  3.0296
  539MOL0     H71102   5.357   0.163   2.460 -0.4901  1.5210  0.5000
  539MOL0     H71103   5.260   0.283   2.397 -0.3946 -0.0669 -1.2632
  539MOL0     H71104   5.379   0.294   2.180 -1.5240  0.6982  0.2207
  539MOL0     H71105   5.472   0.146   2.228 -0.5652 -0.0483  1.2545
  539MOL0     H71106   5.478   0.439   2.315 -4.5142 -1.5216  0.1615
  539MOL0     H71107   5.519   0.318   2.435 -1.5586 -1.0548 -0.7713
  539MOL0     H71108   5.725   0.419   2.295 -3.3946  2.1525  0.0565
  539MOL0     H71109   5.666   0.320   2.163 -0.5902  3.5333 -1.2996
  539MOL0     H71110   5.875   0.058   2.488 -0.4475 -2.3167 -1.5660
  539MOL0     H71111   6.101   0.004   2.469 -1.1298  1.6932  3.6656
  539MOL0     H71112   6.582   0.168   2.394  4.0300  0.0864  1.4072
  539MOL0     H71113   6.807   0.163   2.290 -1.6614 -1.3564  1.1842
  539MOL0     H71114   6.992   0.091   2.154 -0.6841  0.0419 -0.8001
  539MOL0     H71115   6.988   0.275   2.163  2.1854  0.8708 -0.1194
  539MOL0     H71116   7.106   0.282   1.938  1.7624 -0.0327  1.8916
  539MOL0     H71117   7.081   0.105   1.909 -0.0592  1.4156 -1.7302
  539MOL0     H71118   7.268   0.066   2.081 -1.5301 -1.7519 -3.0461
  539MOL0     H71119   7.239   0.232   2.134 -1.4998 -0.5514 -0.2262
  539MOL0     H71120   7.337   0.142   1.852  0.4694 -0.4363  1.1561
  539MOL0     H71121   7.334   0.313   1.926 -0.9128  0.5205 -1.3857
  539MOL0     H71122   7.508   0.070   2.007  2.3836  0.8008  2.8873
  539MOL0     H71123   7.535   0.240   2.060  3.5769 -0.7654 -1.9432
  539MOL0     H71124   7.549   0.250   1.780 -2.2907  1.2737  0.7696
  539MOL0     H71125   7.644   0.111   1.826  1.1218  3.0558 -3.0503
  539MOL0     H71126   7.705   0.394   1.868  2.4854 -0.4325 -3.2983
  539MOL0     H71127   7.728   0.316   2.013 -2.2358  1.7609 -0.1428
  539MOL0     H71128   7.832   0.250   1.736 -4.6957 -4.2981 -0.0365
  539MOL0     H71129   7.870   0.137   1.859  1.4280  1.0781 -0.7497
  539MOL0     H71130   6.645   0.191   1.898  0.6051 -1.5557  0.1829
  539MOL0     H71131   6.414   0.152   1.998 -1.4467  1.0313  1.7632
  539MOL0     H71132   6.132   0.266   2.127  0.5021  1.6860  1.1999
  539MOL0     H71133   5.884   0.310   2.151 -0.8279 -1.2347  1.1697
  539MOL0     H71134   4.158   0.040   1.363 -1.6570  1.7798 -2.4198
  539MOL0     H71135   3.900   0.055   1.307 -1.7800  2.3171 -0.9131
  539MOL0     H71136   3.609   0.519   1.187 -0.4663  0.6697  2.7802
  539MOL0     H71137   3.377   0.520   1.059 -1.8975  0.2720  1.3828
  539MOL0     H71138   3.162   0.136   1.060  2.2357  0.7126 -1.1447
  539MOL0     H71139   3.054   0.243   0.980 -2.3000  0.5443  1.3521
  539MOL0     H71140   2.936   0.226   1.179 -0.0967 -1.6242  2.3520
  539MOL0     H71141   3.088   0.218   1.275 -0.4739  1.0908 -0.1607
  539MOL0     H71142   3.110   0.469   1.273 -0.3494  3.1310 -4.1763
  539MOL0     H71143   2.948   0.442   1.306 -1.2896  3.7336 -2.2153
  539MOL0     H71144   3.003   0.476   1.012  0.3635 -2.0276  0.8094
  539MOL0     H71145   2.865   0.517   1.116 -0.2177  1.9447 -1.9338
  539MOL0     H71146   3.092   0.863   1.163  0.7066  0.6341 -1.6340
  539MOL0     H71147   3.316   0.133   1.206  0.7135  0.6822  2.0830
  539MOL0     H71148   3.537   0.119   1.309  0.3607 -0.8280 -2.7442
  540MOL0     O71149  10.763   8.685   0.337  0.2736 -0.4845 -0.0825
  540MOL0     C71150  10.703   8.719   0.442  0.6832 -1.2035 -0.1274
  540MOL0     O71151  10.577   8.660   0.482 -0.2862 -0.0043 -0.0943
  540MOL0     C71152  10.523   8.563   0.405  0.2927 -0.6188 -0.0224
  540MOL0     C71153  10.494   8.583   0.268  0.6156 -0.1715  0.2687
  540MOL0     C71154  10.422   8.484   0.202 -1.4048  0.2893 -1.2707
  540MOL0     C71155  10.384   8.367   0.265 -0.7321 -0.1766  0.9096
  540MOL0     O71156  10.315   8.269   0.201  0.4876  0.8334 -0.1570
  540MOL0     C71157  10.194   8.326   0.128 -1.4993 -0.1798 -0.6294
  540MOL0     C71158  10.081   8.409   0.194 -0.4484 -0.3320  0.0891
  540MOL0     C71159   9.948   8.323   0.232 -0.3664 -0.6676  0.0952
  540MOL0     C71160   9.991   8.213   0.336 -0.2802 -0.8847  0.0884
  540MOL0     C71161   9.888   8.108   0.376  0.1177  0.4055  0.3499
  540MOL0     C71162   9.839   8.022   0.258  0.0045 -0.8146 -0.3900
  540MOL0     C71163   9.936   7.949   0.155  0.2144 -0.2134 -0.1523
  540MOL0     C71164   9.856   7.859   0.062 -0.1232  0.6334 -0.8910
  540MOL0     N71165   9.810   7.728   0.134 -0.8241  0.7602  0.8721
  540MOL0     C71166   9.695   7.661   0.117  0.2335  0.4971 -0.8412
  540MOL0     C71167   9.704   7.545   0.188 -0.5458  1.2882  0.2920
  540MOL0     C71168   9.591   7.441   0.200  0.0208  0.5867  0.0183
  540MOL0     C71169   9.621   7.316   0.114 -0.5399 -0.4244  1.4708
  540MOL0     C71170   9.638   7.353  -0.036 -0.0178  0.0817 -0.2643
  540MOL0     C71171   9.506   7.401  -0.094  0.6627  0.6327  0.4394
  540MOL0     O71172   9.399   7.308  -0.072 -0.1868 -0.1356  0.7082
  540MOL0     C71173   9.279   7.333  -0.132 -0.2524  0.0275 -0.3327
  540MOL0     C71174   9.203   7.218  -0.151 -0.5740  0.4473  0.6537
  540MOL0     C71175   9.069   7.217  -0.197 -0.4428  0.0992  0.2140
  540MOL0     C71176   9.015   7.345  -0.235  0.3677  0.9100 -0.5767
  540MOL0     C71177   8.876   7.356  -0.281  0.1154 -0.7285  0.8677
  540MOL0     O71178   8.791   7.251  -0.267 -0.6036  0.0055  0.1123
  540MOL0     C71179   8.670   7.258  -0.325 -0.3642  0.2616  0.1610
  540MOL0     C71180   8.662   7.216  -0.451  0.3026 -0.0657 -0.5234
  540MOL0     C71181   8.540   7.218  -0.519  0.3194  0.1164 -0.3282
  540MOL0     C71182   8.421   7.243  -0.456 -0.0824 -0.1892  0.2572
  540MOL0     O71183   8.298   7.238  -0.533 -0.3354  0.2387 -0.0489
  540MOL0     C71184   8.174   7.179  -0.475 -0.0908  0.0570 -0.6056
  540MOL0     C71185   8.170   7.023  -0.483  0.6617 -0.9631  0.4154
  540MOL0     C71186   8.181   6.973  -0.625 -0.0754 -0.0765  0.6609
  540MOL0     C71187   8.238   6.830  -0.627 -0.1511  0.7922 -0.7999
  540MOL0     C71188   8.376   6.805  -0.566 -0.1624 -0.2365 -0.0397
  540MOL0     C71189   8.466   6.712  -0.651 -0.1159  0.6571 -0.3197
  540MOL0     C71190   8.410   6.571  -0.633 -0.2012 -0.8396 -0.0642
  540MOL0     C71191   8.514   6.458  -0.657  0.2884 -0.4818  0.3950
  540MOL0    Cl71192   8.424   6.309  -0.669  0.1039  0.6421 -0.4268
  540MOL0     C71193   8.432   7.272  -0.322  0.8235 -0.8130 -0.9881
  540MOL0     C71194   8.555   7.279  -0.254 -0.4988  0.4524 -0.6259
  540MOL0     O71195   8.841   7.465  -0.332  0.3313  0.1725 -0.5132
  540MOL0     C71196   9.096   7.459  -0.210 -0.3932  0.5086  0.7131
  540MOL0     C71197   9.225   7.457  -0.163  0.0619  0.7457  0.5429
  540MOL0     N71198   9.841   7.531   0.223 -0.3501 -0.0281 -0.2745
  540MOL0     N71199   9.905   7.644   0.192  0.9301  0.7925  0.1619
  540MOL0     C71200  10.415   8.345   0.398 -0.1117  0.1385 -0.6493
  540MOL0     C71201  10.489   8.444   0.471 -0.5774  0.4298 -0.0087
  540MOL0     C71202  10.756   8.832   0.517 -0.9606 -0.5088 -0.2104
  540MOL0     C71203  10.867   8.917   0.479  1.4765  1.2049 -0.2454
  540MOL0     C71204  10.912   9.019   0.553  0.6821  0.3704  1.0395
  540MOL0     C71205  10.849   9.055   0.676 -0.9253 -1.2991 -0.8551
  540MOL0     O71206  10.909   9.159   0.748 -0.3051  0.6271  0.3148
  540MOL0     C71207  10.858   9.209   0.874 -0.2922  0.0878 -0.5875
  540MOL0     C71208  10.851   9.363   0.857  0.8605  0.4278  0.5172
  540MOL0     C71209  10.977   9.437   0.831 -0.0181 -0.8226  1.1288
  540MOL0     C71210  10.953   9.587   0.859 -0.5178 -0.5131 -0.9220
  540MOL0     C71211  11.079   9.652   0.861  0.4975  0.3286 -0.6374
  540MOL0     C71212  11.190   9.695   0.853  0.6567  0.5746 -0.9415
  540MOL0     C71213  10.742   8.970   0.724  0.2545 -0.3627 -0.5278
  540MOL0     C71214  10.697   8.868   0.638  0.6869 -0.2510 -0.6251
  540MOL0     H71215  10.521   8.676   0.219 -0.1264 -0.6366 -1.0628
  540MOL0     H71216  10.400   8.503   0.097 -2.4494 -1.7702 -1.4764
  540MOL0     H71217  10.145   8.244   0.076 -0.5198 -0.8076 -0.5911
  540MOL0     H71218  10.230   8.394   0.050 -2.7022  0.7290 -0.4204
  540MOL0     H71219  10.040   8.477   0.118 -1.2827 -0.0143  0.7985
  540MOL0     H71220  10.122   8.463   0.281  0.4648 -0.9982  0.0832
  540MOL0     H71221   9.907   8.278   0.141  0.2535 -1.7938  0.3556
  540MOL0     H71222   9.866   8.383   0.272  0.4971 -0.5851  1.8116
  540MOL0     H71223  10.081   8.171   0.289  0.8959 -0.3147  1.7215
  540MOL0     H71224  10.017   8.261   0.431  1.9357 -1.5941 -0.1113
  540MOL0     H71225   9.814   8.163   0.434  2.3554  1.5356  2.3063
  540MOL0     H71226   9.942   8.028   0.428  0.4485 -0.5369 -1.3876
  540MOL0     H71227   9.773   8.091   0.204 -0.0314  0.1422  0.8317
  540MOL0     H71228   9.782   7.945   0.312 -3.2911  2.5414  1.3938
  540MOL0     H71229   9.984   8.014   0.082  3.0800 -1.3984  0.5726
  540MOL0     H71230  10.023   7.911   0.209  0.0546 -0.1240  0.1720
  540MOL0     H71231   9.913   7.813  -0.020 -0.3025  0.0552 -0.6971
  540MOL0     H71232   9.774   7.919   0.024 -4.1601 -2.9577  1.2323
  540MOL0     H71233   9.610   7.717   0.078  0.3705  2.5346  1.5537
  540MOL0     H71234   9.497   7.493   0.175 -0.5606  0.6491  2.1144
  540MOL0     H71235   9.570   7.410   0.303  1.7309  0.0703  0.2354
  540MOL0     H71236   9.540   7.245   0.136 -1.3571  0.0354  0.0846
  540MOL0     H71237   9.710   7.261   0.147 -1.2904 -2.6196  0.0201
  540MOL0     H71238   9.718   7.427  -0.048 -0.2466  0.0112 -2.6230
  540MOL0     H71239   9.662   7.262  -0.092  1.4522 -1.6050  2.8302
  540MOL0     H71240   9.516   7.398  -0.203 -1.8205 -3.0516  0.1248
  540MOL0     H71241   9.486   7.500  -0.054  1.6297 -0.3573  3.7204
  540MOL0     H71242   9.244   7.121  -0.125  0.5313 -0.2406 -3.0501
  540MOL0     H71243   9.022   7.120  -0.197 -0.1147 -0.0608  0.7494
  540MOL0     H71244   8.756   7.196  -0.502 -1.1638 -1.3726 -2.8469
  540MOL0     H71245   8.541   7.196  -0.626 -1.8181 -2.1371  0.0210
  540MOL0     H71246   8.084   7.212  -0.528 -0.3241 -0.1912 -0.3744
  540MOL0     H71247   8.162   7.212  -0.371 -0.4703  0.4300 -0.7630
  540MOL0     H71248   8.073   6.987  -0.448 -0.2044 -0.3319 -1.2827
  540MOL0     H71249   8.246   6.977  -0.417  2.3233 -0.1157 -0.8374
  540MOL0     H71250   8.227   7.031  -0.706 -1.0661 -1.9917 -1.3881
  540MOL0     H71251   8.077   6.965  -0.658  0.3756  3.1763 -2.2343
  540MOL0     H71252   8.170   6.775  -0.561  2.2967 -1.1176  0.2929
  540MOL0     H71253   8.231   6.803  -0.733 -0.4827 -1.4193 -0.2787
  540MOL0     H71254   8.361   6.767  -0.464  1.8390  0.7959  0.6863
  540MOL0     H71255   8.423   6.903  -0.575  2.7454 -1.5816 -0.8692
  540MOL0     H71256   8.571   6.708  -0.620 -0.1673  2.0697  0.1210
  540MOL0     H71257   8.473   6.735  -0.758  0.4444 -0.9298 -0.6501
  540MOL0     H71258   8.373   6.560  -0.530  1.1025 -1.0959  0.3923
  540MOL0     H71259   8.324   6.557  -0.699 -0.5363  0.9823 -0.0616
  540MOL0     H71260   8.582   6.448  -0.571 -1.5588  3.0627  2.4795
  540MOL0     H71261   8.575   6.472  -0.747 -0.1050 -5.5380 -0.9825
  540MOL0     H71262   8.346   7.276  -0.255  1.9894  3.8508  0.6100
  540MOL0     H71263   8.566   7.300  -0.149  2.8506  0.9073 -0.9790
  540MOL0     H71264   9.049   7.556  -0.222  0.6767  0.9004 -0.6425
  540MOL0     H71265   9.281   7.549  -0.151  1.6861 -0.2935  1.2336
  540MOL0     H71266  10.410   8.247   0.445 -0.1511  0.5200  0.1439
  540MOL0     H71267  10.534   8.431   0.570 -0.0180  2.6077  0.0679
  540MOL0     H71268  10.904   8.902   0.378 -4.6722 -0.9829 -2.6463
  540MOL0     H71269  10.993   9.071   0.502 -0.0383 -0.3812 -0.9267
  540MOL0     H71270  10.919   9.181   0.959  1.9186 -2.2895 -2.7800
  540MOL0     H71271  10.758   9.169   0.895 -0.4843  1.4185  1.2951
  540MOL0     H71272  10.791   9.371   0.765  1.7867  0.3587 -0.1053
  540MOL0     H71273  10.799   9.392   0.948 -1.2829 -1.5587  0.0242
  540MOL0     H71274  11.011   9.425   0.728 -2.4488  0.7669  0.0406
  540MOL0     H71275  11.061   9.408   0.895  1.2358 -2.1911 -0.9892
  540MOL0     H71276  10.883   9.643   0.796  0.9165  1.6845 -0.6871
  540MOL0     H71277  10.919   9.601   0.962 -0.1613 -0.7313 -0.7730
  540MOL0     H71278  11.291   9.732   0.856 -0.3651  3.5470  0.5887
  540MOL0     H71279  10.683   8.985   0.814 -0.7190  1.4708 -1.4041
  540MOL0     H71280  10.623   8.803   0.683  2.2038  0.2977  2.9652
  541MOL0     O71281   4.357   1.165   5.017  0.5992 -0.0544 -1.0157
  541MOL0     C71282   4.303   1.075   5.080  0.2684 -0.1108 -0.8284
  541MOL0     O71283   4.172   1.051   5.095  0.2878 -0.2952  0.8162
  541MOL0     C71284   4.083   1.132   5.033  0.3513  1.0817 -0.0274
  541MOL0     C71285   4.018   1.236   5.087 -0.6013 -0.2042 -1.0272
  541MOL0     C71286   3.957   1.321   4.997  0.1510  0.3097 -0.8068
  541MOL0     C71287   3.946   1.298   4.860 -0.5652 -0.5449  0.0093
  541MOL0     O71288   3.893   1.390   4.774 -0.1158 -0.1357  1.1882
  541MOL0     C71289   3.839   1.505   4.835 -0.0915  0.1992 -0.1363
  541MOL0     C71290   3.932   1.617   4.862 -0.3728  0.1298 -0.5372
  541MOL0     C71291   3.879   1.707   4.978 -0.1360  0.1482  0.1969
  541MOL0     C71292   3.973   1.823   5.012  0.1876 -0.3248  0.4289
  541MOL0     C71293   4.112   1.792   5.077 -1.1097 -0.1987  0.5893
  541MOL0     C71294   4.091   1.690   5.193 -0.4844 -0.2226 -0.0861
  541MOL0     C71295   4.210   1.687   5.293  0.6587 -0.1889  0.1630
  541MOL0     C71296   4.214   1.812   5.378 -0.6677  0.2484 -0.2489
  541MOL0     N71297   4.342   1.808   5.466 -0.3735 -0.8159  0.2484
  541MOL0     C71298   4.469   1.767   5.425 -1.0086  0.2229 -0.4132
  541MOL0     C71299   4.541   1.758   5.544  0.3343  0.4100 -0.0903
  541MOL0     C71300   4.686   1.732   5.557  0.2234  0.3624  0.9613
  541MOL0     C71301   4.776   1.852   5.582 -0.0457  0.1892  0.3824
  541MOL0     C71302   4.925   1.842   5.559 -0.2955 -0.6235 -0.1206
  541MOL0     C71303   4.969   1.836   5.409 -0.3419 -0.5815  0.3836
  541MOL0     O71304   5.110   1.855   5.382 -0.0140 -0.5982  0.3960
  541MOL0     C71305   5.207   1.749   5.400  0.0323  0.2539 -0.7315
  541MOL0     C71306   5.174   1.611   5.415  0.1705 -0.0039  1.1049
  541MOL0     C71307   5.271   1.514   5.424  0.3083 -0.2326  0.8466
  541MOL0     C71308   5.401   1.550   5.443 -0.1654  0.1210  0.5281
  541MOL0     C71309   5.506   1.446   5.466 -0.2564 -0.6723  0.3604
  541MOL0     O71310   5.475   1.312   5.472 -0.1237 -0.0174 -0.5297
  541MOL0     C71311   5.573   1.217   5.480 -0.8500  0.5569 -0.3896
  541MOL0     C71312   5.610   1.169   5.608  0.5896 -0.3710  0.1904
  541MOL0     C71313   5.713   1.072   5.639 -0.0549  0.0283  0.0147
  541MOL0     C71314   5.779   1.023   5.519  0.4865 -0.0129 -0.9894
  541MOL0     O71315   5.894   0.948   5.530  0.4898  0.4767  0.2280
  541MOL0     C71316   6.009   1.032   5.565 -0.5556 -0.3779 -0.0841
  541MOL0     C71317   6.128   0.960   5.551 -0.1085  0.2410  0.1264
  541MOL0     C71318   6.260   1.011   5.601  0.4682 -0.2775 -0.3775
  541MOL0     C71319   6.260   1.027   5.755 -0.5144 -0.7602  0.0814
  541MOL0     C71320   6.383   1.110   5.789  0.0564 -0.2838 -0.0088
  541MOL0     C71321   6.365   1.137   5.942  0.8053 -0.0532 -0.7345
  541MOL0     C71322   6.483   1.195   6.006 -0.4795 -0.5948 -0.5342
  541MOL0     C71323   6.451   1.248   6.145 -0.6656 -0.2305  0.9622
  541MOL0    Cl71324   6.392   1.111   6.232  0.0596 -0.5827 -0.1068
  541MOL0     C71325   5.749   1.074   5.389  0.0403 -0.1816 -0.0147
  541MOL0     C71326   5.642   1.164   5.371 -0.7075 -0.7697  1.0457
  541MOL0     O71327   5.621   1.491   5.481  0.3252 -0.5271 -0.0035
  541MOL0     C71328   5.440   1.688   5.454  0.0144 -0.5655  0.7347
  541MOL0     C71329   5.342   1.781   5.424 -0.3187 -0.5052 -0.0036
  541MOL0     N71330   4.466   1.790   5.652 -0.4962 -0.5302 -0.0950
  541MOL0     N71331   4.349   1.827   5.600  0.4138  0.5888 -0.0571
  541MOL0     C71332   4.000   1.174   4.808  0.7640  0.1032 -0.4606
  541MOL0     C71333   4.062   1.094   4.894 -0.4592  0.3729 -0.8628
  541MOL0     C71334   4.391   0.993   5.164  0.0822  0.0062  0.4075
  541MOL0     C71335   4.521   1.041   5.198  0.4220  0.5658 -0.9531
  541MOL0     C71336   4.608   0.953   5.261  0.1977  1.1409 -0.7945
  541MOL0     C71337   4.572   0.815   5.295  0.3745 -0.3890  0.1322
  541MOL0     O71338   4.654   0.734   5.372  0.1199 -0.1676 -0.6967
  541MOL0     C71339   4.754   0.785   5.462 -0.2870  0.1132  0.1568
  541MOL0     C71340   4.708   0.905   5.551  0.3401  0.0997 -0.2059
  541MOL0     C71341   4.726   0.892   5.701 -0.3534 -0.1021  0.2610
  541MOL0     C71342   4.867   0.857   5.744  0.6099 -0.1727 -0.1799
  541MOL0     C71343   4.895   0.909   5.881 -0.0228  0.5475 -0.4220
  541MOL0     C71344   4.930   0.964   5.982  0.0762 -0.0889  0.4817
  541MOL0     C71345   4.443   0.776   5.253 -0.2605 -0.3656  0.1621
  541MOL0     C71346   4.357   0.861   5.183 -0.2334 -0.1446 -0.2568
  541MOL0     H71347   4.039   1.264   5.190 -0.6084 -3.7717  0.0938
  541MOL0     H71348   3.925   1.413   5.043 -0.5242  0.2269 -1.1098
  541MOL0     H71349   3.780   1.477   4.923 -0.8359  0.2823 -0.5998
  541MOL0     H71350   3.766   1.550   4.768 -0.9251  0.9726  1.2505
  541MOL0     H71351   3.940   1.681   4.773 -4.1933 -0.2470 -1.3149
  541MOL0     H71352   4.031   1.573   4.881 -0.7188 -1.4471 -2.1218
  541MOL0     H71353   3.860   1.640   5.063 -0.6621 -0.4331 -0.3617
  541MOL0     H71354   3.784   1.750   4.943  1.3393  3.1178 -0.4054
  541MOL0     H71355   3.984   1.883   4.921  1.6455 -2.2632 -0.7446
  541MOL0     H71356   3.929   1.888   5.088  1.2802  0.6434  0.2610
  541MOL0     H71357   4.147   1.886   5.119 -0.7450 -0.8346  1.7802
  541MOL0     H71358   4.176   1.757   4.995  0.9963  2.8446  0.7858
  541MOL0     H71359   4.075   1.589   5.154 -4.9571  0.7936 -1.5327
  541MOL0     H71360   3.999   1.711   5.249 -2.0279  0.7802 -2.7935
  541MOL0     H71361   4.199   1.595   5.352  2.3567 -1.0435 -0.7701
  541MOL0     H71362   4.302   1.665   5.238 -0.1195  0.5612 -1.5002
  541MOL0     H71363   4.123   1.824   5.438  0.3411  0.4201  1.3026
  541MOL0     H71364   4.211   1.904   5.319  1.7759  0.5480 -0.0025
  541MOL0     H71365   4.502   1.747   5.324 -1.1585  3.3015 -1.1729
  541MOL0     H71366   4.731   1.673   5.476  1.8461  1.1878  1.2309
  541MOL0     H71367   4.698   1.663   5.641 -1.7862 -0.5601  0.5495
  541MOL0     H71368   4.779   1.876   5.689  0.0234 -2.2466  0.9845
  541MOL0     H71369   4.732   1.936   5.528 -0.6061 -0.0007  0.5374
  541MOL0     H71370   4.969   1.935   5.597 -1.8032 -0.3622  1.1082
  541MOL0     H71371   4.962   1.760   5.621 -1.8862  0.2587  2.1605
  541MOL0     H71372   4.912   1.918   5.365 -1.4317  0.0615  2.8374
  541MOL0     H71373   4.925   1.749   5.360 -3.1170  1.7310 -1.5575
  541MOL0     H71374   5.073   1.573   5.422  0.0502  0.6539  4.5572
  541MOL0     H71375   5.236   1.412   5.437 -1.9494  0.2898 -0.5403
  541MOL0     H71376   5.561   1.226   5.686  2.3729  4.1911 -1.6687
  541MOL0     H71377   5.749   1.061   5.740  0.6188  0.7806 -0.1364
  541MOL0     H71378   5.998   1.067   5.668 -1.9551  2.0417 -0.9694
  541MOL0     H71379   6.018   1.117   5.497 -1.2092  1.1946  1.6977
  541MOL0     H71380   6.146   0.943   5.444  1.9590 -1.2214  0.6507
  541MOL0     H71381   6.102   0.867   5.602  1.8636 -0.5761 -0.2700
  541MOL0     H71382   6.288   1.106   5.553 -1.9679  1.1349  0.8164
  541MOL0     H71383   6.339   0.939   5.576 -1.6843 -3.2572  0.9064
  541MOL0     H71384   6.176   1.088   5.788 -0.4428 -0.0882 -0.9242
  541MOL0     H71385   6.262   0.926   5.797 -0.0073 -1.0168 -0.5328
  541MOL0     H71386   6.384   1.199   5.725 -0.0404  0.3896  0.9121
  541MOL0     H71387   6.476   1.053   5.778 -0.8301 -1.8604  0.4253
  541MOL0     H71388   6.333   1.045   5.991  2.6745 -0.2654  0.2014
  541MOL0     H71389   6.291   1.216   5.952  2.4763  2.1584 -3.9281
  541MOL0     H71390   6.546   1.108   6.026 -2.6508 -2.8601 -2.8022
  541MOL0     H71391   6.531   1.273   5.946 -1.6660 -0.0316 -0.7681
  541MOL0     H71392   6.371   1.323   6.136  0.1212  0.6348  0.9801
  541MOL0     H71393   6.541   1.285   6.195  0.4871 -2.4846  0.6689
  541MOL0     H71394   5.796   1.025   5.305 -0.0434  1.2635 -0.9454
  541MOL0     H71395   5.613   1.200   5.273 -3.0529 -0.7182  1.7060
  541MOL0     H71396   5.541   1.721   5.478 -0.5038  0.2252  1.8838
  541MOL0     H71397   5.362   1.886   5.441 -2.7657 -0.0520  0.4219
  541MOL0     H71398   3.993   1.158   4.701 -0.4607 -1.6239 -0.1743
  541MOL0     H71399   4.102   0.997   4.867 -1.4414 -0.1492 -0.5104
  541MOL0     H71400   4.555   1.141   5.176  0.7465  0.7123  0.1579
  541MOL0     H71401   4.706   0.990   5.288 -0.6100  2.3267  0.7332
  541MOL0     H71402   4.822   0.829   5.389 -2.0803  1.6226 -0.6909
  541MOL0     H71403   4.811   0.703   5.506 -0.3279 -1.4147 -2.4924
  541MOL0     H71404   4.759   0.998   5.524  0.0742 -0.4211 -2.7304
  541MOL0     H71405   4.603   0.924   5.531  0.0935 -1.6919 -0.7836
  541MOL0     H71406   4.654   0.814   5.727 -0.7945 -1.1290 -3.4609
  541MOL0     H71407   4.702   0.982   5.758 -0.7398 -1.2980  2.0626
  541MOL0     H71408   4.881   0.749   5.758 -0.5513 -0.0663  2.4793
  541MOL0     H71409   4.940   0.895   5.673 -1.0055  0.7322 -1.4027
  541MOL0     H71410   4.960   1.026   6.064 -1.6770 -0.5647  1.5380
  541MOL0     H71411   4.418   0.679   5.293  1.5282 -1.7149 -1.7715
  541MOL0     H71412   4.259   0.821   5.159 -0.8444  0.6715  0.8109
  542MOL0     O71413   7.304   8.882   7.474 -0.8151 -0.3171  1.2966
  542MOL0     C71414   7.392   8.931   7.547  0.7171 -0.0715  0.1599
  542MOL0     O71415   7.360   9.007   7.659  0.1367 -0.4226  0.3667
  542MOL0     C71416   7.245   9.084   7.643 -0.0958  0.6521  0.0805
  542MOL0     C71417   7.194   9.139   7.523  0.2586  0.5875  0.2887
  542MOL0     C71418   7.076   9.213   7.520  0.1028 -0.3029  0.5209
  542MOL0     C71419   7.021   9.256   7.634  0.0710 -0.3909  0.2892
  542MOL0     O71420   6.902   9.328   7.618 -0.5293  0.1845 -0.7960
  542MOL0     C71421   6.905   9.453   7.696 -0.1475 -0.2660  0.1204
  542MOL0     C71422   6.795   9.547   7.635 -0.5620  0.5730 -0.1622
  542MOL0     C71423   6.658   9.498   7.656  0.7922 -0.3683  0.5963
  542MOL0     C71424   6.553   9.619   7.656  0.4167  0.8488  0.4431
  542MOL0     C71425   6.499   9.667   7.522 -1.7363 -0.7222  0.6223
  542MOL0     C71426   6.427   9.570   7.424 -0.8735 -0.1387  0.1755
  542MOL0     C71427   6.402   9.631   7.288  0.5226 -0.8670  0.2387
  542MOL0     C71428   6.316   9.542   7.193 -0.4633  0.3632 -0.5123
  542MOL0     N71429   6.292   9.622   7.074  0.1097  0.9083  0.5094
  542MOL0     C71430   6.203   9.723   7.071  0.1284  0.5461  0.4235
  542MOL0     C71431   6.237   9.782   6.949  0.2414  0.4868  0.0224
  542MOL0     C71432   6.188   9.890   6.864 -0.5779 -0.0686 -0.4311
  542MOL0     C71433   6.035   9.884   6.830 -0.3384 -0.8318 -0.8206
  542MOL0     C71434   5.989   9.762   6.757 -0.2483 -0.1262  0.3366
  542MOL0     C71435   5.839   9.751   6.805  0.7638 -0.0858  0.3766
  542MOL0     O71436   5.777   9.657   6.719  0.0978  0.2059  0.1345
  542MOL0     C71437   5.643   9.618   6.750 -0.4795 -0.2613 -0.6274
  542MOL0     C71438   5.558   9.672   6.855 -1.7483 -0.2169 -0.2908
  542MOL0     C71439   5.433   9.619   6.881 -0.2682 -0.5033  0.3747
  542MOL0     C71440   5.398   9.493   6.827  0.6887  0.9204  0.8736
  542MOL0     C71441   5.260   9.421   6.857 -0.2280 -0.5748 -0.4137
  542MOL0     O71442   5.186   9.473   6.963  0.0965  1.0400  0.5517
  542MOL0     C71443   5.074   9.404   6.997 -1.0294  0.7764 -0.3266
  542MOL0     C71444   5.088   9.308   7.103  0.2470  0.0810 -0.5514
  542MOL0     C71445   4.977   9.222   7.126 -0.1746 -0.1227 -0.0819
  542MOL0     C71446   4.863   9.231   7.041 -0.3330  0.1268 -0.2084
  542MOL0     O71447   4.771   9.135   7.043 -0.0404 -0.0609 -0.4627
  542MOL0     C71448   4.636   9.173   7.041  0.8753 -0.5591 -0.3627
  542MOL0     C71449   4.544   9.062   7.101 -1.1623  0.5032  0.0005
  542MOL0     C71450   4.571   9.050   7.255  0.6051  0.9371  0.0538
  542MOL0     C71451   4.471   8.973   7.328  0.1585 -0.1330  0.7789
  542MOL0     C71452   4.522   8.936   7.468 -0.5027 -0.4870 -0.8454
  542MOL0     C71453   4.550   9.049   7.566  0.3201  0.0519 -0.0794
  542MOL0     C71454   4.591   8.984   7.700  0.4044 -0.4208  0.5453
  542MOL0     C71455   4.478   8.952   7.796 -0.3957  0.5442 -0.6474
  542MOL0    Cl71456   4.397   9.110   7.847 -0.6591 -0.1458  0.1189
  542MOL0     C71457   4.855   9.322   6.947 -0.1246  0.6267  0.7350
  542MOL0     C71458   4.961   9.408   6.924  0.5208 -0.3649 -0.2945
  542MOL0     O71459   5.225   9.333   6.778 -0.4720  0.1184 -0.0887
  542MOL0     C71460   5.478   9.433   6.722  0.0734 -0.2089  0.6681
  542MOL0     C71461   5.600   9.494   6.696  0.4760 -0.2063 -0.0120
  542MOL0     N71462   6.356   9.721   6.900 -0.2436  0.2001  0.2248
  542MOL0     N71463   6.390   9.618   6.975  0.8838 -1.0067  0.3681
  542MOL0     C71464   7.076   9.217   7.755 -0.0625  1.2320 -0.7486
  542MOL0     C71465   7.181   9.129   7.767 -1.3751 -0.0644  1.1560
  542MOL0     C71466   7.533   8.898   7.515  0.6625 -0.4069 -0.4471
  542MOL0     C71467   7.574   8.796   7.433 -0.0415 -0.5201 -0.3090
  542MOL0     C71468   7.714   8.767   7.407  0.6915  0.1516  0.4037
  542MOL0     C71469   7.808   8.840   7.472  0.5785 -0.1884  0.4933
  542MOL0     O71470   7.945   8.818   7.450  0.3517 -0.2219  0.4495
  542MOL0     C71471   8.017   8.787   7.569 -0.7263 -0.2573 -0.3460
  542MOL0     C71472   7.981   8.640   7.613  0.0500 -1.3891  0.5571
  542MOL0     C71473   8.076   8.600   7.722 -0.1287 -0.6922  0.2649
  542MOL0     C71474   8.125   8.453   7.709  0.4668  0.7212 -0.0097
  542MOL0     C71475   8.144   8.388   7.838  0.3184 -0.0194 -0.3319
  542MOL0     C71476   8.148   8.337   7.953  0.3988  0.3844  0.4671
  542MOL0     C71477   7.773   8.952   7.550  0.8173 -0.4041  0.2260
  542MOL0     C71478   7.634   8.974   7.574  0.8542  0.5979 -0.0447
  542MOL0     H71479   7.235   9.116   7.425  2.1907  0.4463  1.0787
  542MOL0     H71480   7.030   9.232   7.423  2.1023  3.0880  0.0757
  542MOL0     H71481   7.001   9.502   7.713  0.8518 -2.2677  0.5287
  542MOL0     H71482   6.870   9.435   7.798 -0.3382  2.1396  0.5256
  542MOL0     H71483   6.823   9.568   7.532  1.5650  2.4453  0.7060
  542MOL0     H71484   6.805   9.638   7.695  2.6696 -1.4733  2.7823
  542MOL0     H71485   6.651   9.445   7.752 -1.0617  0.5662  1.0340
  542MOL0     H71486   6.629   9.423   7.582 -2.0792  0.6902  0.5040
  542MOL0     H71487   6.464   9.576   7.704  0.4877 -0.5460 -0.6021
  542MOL0     H71488   6.598   9.701   7.712  2.3541  0.4428 -0.4542
  542MOL0     H71489   6.581   9.717   7.470 -0.3102 -2.4982  1.0722
  542MOL0     H71490   6.429   9.748   7.548 -1.2114 -0.1443  0.2762
  542MOL0     H71491   6.330   9.542   7.468  0.0048 -1.0387  1.6159
  542MOL0     H71492   6.492   9.483   7.407  3.1143  2.7491 -0.7888
  542MOL0     H71493   6.358   9.729   7.309  2.6675  0.0539  0.6748
  542MOL0     H71494   6.496   9.665   7.244  0.9036  0.4739  1.9651
  542MOL0     H71495   6.222   9.523   7.246  0.5581 -1.5957  0.6872
  542MOL0     H71496   6.367   9.446   7.179 -0.7082  0.0514  0.6708
  542MOL0     H71497   6.115   9.739   7.132  0.9151  1.8783  1.2810
  542MOL0     H71498   6.246   9.885   6.772  4.9329 -5.0486  2.6393
  542MOL0     H71499   6.219   9.982   6.913  1.3363 -0.7807 -0.2059
  542MOL0     H71500   6.019   9.979   6.776  3.5808  1.0283  0.9054
  542MOL0     H71501   5.975   9.894   6.921  0.5138  0.7171 -0.3891
  542MOL0     H71502   5.983   9.771   6.648  5.2147 -2.4048 -0.5073
  542MOL0     H71503   6.050   9.673   6.779 -1.5997 -0.5572  2.6754
  542MOL0     H71504   5.792   9.850   6.813  4.8131  2.0121  0.8069
  542MOL0     H71505   5.841   9.722   6.910 -0.3793  2.3207  1.1436
  542MOL0     H71506   5.569   9.772   6.895  1.5921 -1.2118  1.5948
  542MOL0     H71507   5.374   9.679   6.949  1.3051  1.7318 -0.1229
  542MOL0     H71508   5.183   9.293   7.154  0.7471  0.8165 -1.2459
  542MOL0     H71509   4.972   9.141   7.197 -1.8542 -0.5347 -0.6116
  542MOL0     H71510   4.604   9.216   6.945  1.8355 -0.6915 -0.7601
  542MOL0     H71511   4.634   9.264   7.102  0.1313  2.6927 -4.7128
  542MOL0     H71512   4.567   8.968   7.052 -1.3079  0.4187  0.0918
  542MOL0     H71513   4.439   9.081   7.074 -1.4562  1.0342  1.4092
  542MOL0     H71514   4.570   9.150   7.300 -3.0667 -1.2079  5.7669
  542MOL0     H71515   4.668   9.003   7.271 -1.3545 -3.3703  0.6512
  542MOL0     H71516   4.387   9.043   7.338 -0.5443 -0.8304 -0.1125
  542MOL0     H71517   4.448   8.885   7.267  0.4330  1.2696 -1.4560
  542MOL0     H71518   4.610   8.875   7.448  0.3601  1.2393 -2.7636
  542MOL0     H71519   4.454   8.863   7.512  0.5374 -0.3900  1.0328
  542MOL0     H71520   4.466   9.118   7.576  0.0271  0.5047 -3.9461
  542MOL0     H71521   4.633   9.105   7.523 -1.8187  4.5770  1.1238
  542MOL0     H71522   4.642   8.890   7.678  1.0997  0.0186  0.2576
  542MOL0     H71523   4.663   9.052   7.748 -0.9237  2.8297 -1.7019
  542MOL0     H71524   4.511   8.896   7.884 -0.8319 -0.5302 -1.1622
  542MOL0     H71525   4.411   8.901   7.727 -1.3887  0.0289  0.6460
  542MOL0     H71526   4.765   9.332   6.887  0.5238 -1.6797 -0.7736
  542MOL0     H71527   4.946   9.477   6.841  0.9307 -2.1042 -1.8731
  542MOL0     H71528   5.457   9.350   6.656 -1.6503 -0.5290  1.5462
  542MOL0     H71529   5.673   9.441   6.636  3.1772  0.3806  2.4990
  542MOL0     H71530   7.037   9.252   7.850 -0.1719 -0.1319 -0.2623
  542MOL0     H71531   7.215   9.102   7.867  0.9991  0.6553  0.6147
  542MOL0     H71532   7.500   8.733   7.384 -0.3189 -0.4217 -0.0200
  542MOL0     H71533   7.736   8.693   7.332 -0.8008  2.2375 -2.2603
  542MOL0     H71534   7.999   8.856   7.652 -0.0121  1.2096 -1.3731
  542MOL0     H71535   8.119   8.780   7.531 -0.9843 -0.5622 -0.9920
  542MOL0     H71536   7.884   8.646   7.662 -0.6099 -3.5544 -0.3773
  542MOL0     H71537   7.974   8.586   7.518  0.3960 -1.4506  0.5649
  542MOL0     H71538   8.024   8.614   7.817  1.1983 -1.1601  1.0833
  542MOL0     H71539   8.168   8.659   7.720  0.5503 -1.7372 -0.5444
  542MOL0     H71540   8.061   8.398   7.640 -2.4929  3.3857  0.3363
  542MOL0     H71541   8.218   8.456   7.652 -0.8252 -1.7941 -2.4771
  542MOL0     H71542   8.137   8.309   8.056 -0.1989 -2.3948 -0.2680
  542MOL0     H71543   7.848   9.015   7.595  0.5806  1.6576 -2.0734
  542MOL0     H71544   7.615   9.055   7.644 -0.0337  0.7982 -0.5068
  543MOL0     O71545   2.832   9.950   6.550 -0.5711 -0.5307 -0.4011
  543MOL0     C71546   2.712   9.949   6.551  0.2287  0.6538  0.9079
  543MOL0     O71547   2.625   9.991   6.449 -0.0013 -0.2449 -0.3762
  543MOL0     C71548   2.653  10.023   6.318 -0.1228 -0.0669 -0.0477
  543MOL0     C71549   2.552  10.006   6.223  0.8915 -0.2667  0.7585
  543MOL0     C71550   2.578  10.031   6.088 -0.5204 -0.1212 -0.1235
  543MOL0     C71551   2.700  10.082   6.051 -0.1612  0.1063 -0.3674
  543MOL0     O71552   2.718  10.085   5.916 -0.0862 -0.0988  0.2720
  543MOL0     C71553   2.847  10.099   5.862  0.1347  0.4132  0.3964
  543MOL0     C71554   2.828  10.104   5.717 -0.4028  0.7116 -0.6275
  543MOL0     C71555   2.937  10.179   5.637 -0.1497 -0.1184 -0.6068
  543MOL0     C71556   3.061  10.088   5.614  0.2913  0.3491 -0.7021
  543MOL0     C71557   3.180  10.153   5.535  0.4875 -0.0521 -0.3292
  543MOL0     C71558   3.320  10.096   5.549  0.4070  0.8306  0.5843
  543MOL0     C71559   3.325   9.950   5.507 -0.6288  0.8464  0.6851
  543MOL0     C71560   3.472   9.908   5.509 -0.0060  0.0200  0.2145
  543MOL0     N71561   3.533   9.909   5.647 -0.2046  0.3163  0.6004
  543MOL0     C71562   3.534   9.801   5.731  0.8402 -0.2923  0.2138
  543MOL0     C71563   3.591   9.843   5.846  1.5598 -0.3869 -1.0062
  543MOL0     C71564   3.613   9.772   5.974 -0.1812 -1.2510  0.1951
  543MOL0     C71565   3.583   9.618   5.974  0.2350  0.0477 -0.2155
  543MOL0     C71566   3.639   9.558   6.106  0.4011  0.2267  0.8014
  543MOL0     C71567   3.606   9.412   6.098 -0.3098 -0.7889  0.9508
  543MOL0     O71568   3.479   9.383   6.155  0.5968 -0.1163  0.1080
  543MOL0     C71569   3.373   9.369   6.066 -0.6943  1.1985 -0.7317
  543MOL0     C71570   3.391   9.300   5.942  0.4920  0.5095  0.8017
  543MOL0     C71571   3.275   9.290   5.858 -0.1015 -0.3274  0.4312
  543MOL0     C71572   3.159   9.358   5.888  0.2643  0.7965  0.0021
  543MOL0     C71573   3.043   9.349   5.792 -0.4257  0.3280  0.0239
  543MOL0     O71574   3.055   9.278   5.678  0.3788  0.8830 -0.0565
  543MOL0     C71575   2.942   9.261   5.598 -0.3958  0.1538  0.0755
  543MOL0     C71576   2.940   9.132   5.542  1.6037  0.3376  0.4166
  543MOL0     C71577   2.820   9.091   5.471  0.0760 -0.0315  0.5641
  543MOL0     C71578   2.717   9.183   5.457 -0.2684 -0.7516  0.2059
  543MOL0     O71579   2.604   9.146   5.380 -0.1273 -0.4351 -0.2740
  543MOL0     C71580   2.524   9.251   5.319 -0.2380  0.0116  1.0032
  543MOL0     C71581   2.440   9.197   5.201  0.1713  0.1802  0.4638
  543MOL0     C71582   2.503   9.099   5.107 -0.1600 -0.6467 -0.5737
  543MOL0     C71583   2.401   9.059   4.997  0.1108  0.4120  0.1771
  543MOL0     C71584   2.460   8.963   4.898 -0.8878  0.4301  0.0602
  543MOL0     C71585   2.455   8.824   4.952 -0.0653  1.5103 -0.1113
  543MOL0     C71586   2.467   8.724   4.836  0.0581  0.5555  0.3518
  543MOL0     C71587   2.466   8.571   4.880 -0.3419 -0.9465  1.0189
  543MOL0    Cl71588   2.307   8.517   4.917  0.7937 -0.3666  0.0681
  543MOL0     C71589   2.719   9.313   5.508  0.3321  0.0759 -0.5122
  543MOL0     C71590   2.832   9.353   5.580  0.0347  0.0839 -0.2682
  543MOL0     O71591   2.949   9.424   5.817 -0.3112  0.3325 -0.8400
  543MOL0     C71592   3.149   9.435   6.011  0.3844  0.4300  0.9099
  543MOL0     C71593   3.254   9.439   6.096 -0.5842 -0.2075  0.0165
  543MOL0     N71594   3.609   9.984   5.832 -0.2188  0.1523 -0.8612
  543MOL0     N71595   3.579  10.026   5.711 -0.5206  0.2150 -0.0436
  543MOL0     C71596   2.793  10.124   6.152  0.1505  0.1999  0.0155
  543MOL0     C71597   2.773  10.087   6.279  0.4780 -1.0941  0.2154
  543MOL0     C71598   2.652   9.890   6.669  0.2489  0.7108 -0.2171
  543MOL0     C71599   2.518   9.838   6.662  0.1412 -0.3255 -0.6265
  543MOL0     C71600   2.470   9.748   6.763  0.1353  0.1670  0.3825
  543MOL0     C71601   2.555   9.698   6.856 -0.7834 -0.6927  0.6608
  543MOL0     O71602   2.525   9.601   6.943  0.4214  0.5394  0.0132
  543MOL0     C71603   2.465   9.478   6.919 -0.2120  0.3496  0.4071
  543MOL0     C71604   2.314   9.495   6.927 -0.4470  0.2170 -0.3237
  543MOL0     C71605   2.256   9.366   6.972 -0.5302 -0.0728 -0.2897
  543MOL0     C71606   2.107   9.369   6.955  0.5016 -1.0500  0.2226
  543MOL0     C71607   2.040   9.242   6.985 -0.1985 -0.2809  0.7751
  543MOL0     C71608   1.985   9.137   7.005 -0.1732  0.4700  0.0711
  543MOL0     C71609   2.684   9.751   6.866 -0.4671  0.8672 -0.1391
  543MOL0     C71610   2.729   9.848   6.776 -0.1150 -0.1501 -0.8566
  543MOL0     H71611   2.459   9.966   6.262 -2.8267  3.7675 -2.8986
  543MOL0     H71612   2.506  10.001   6.012  0.1431 -1.6915 -0.1688
  543MOL0     H71613   2.903  10.010   5.890 -1.2400 -0.1952  1.3363
  543MOL0     H71614   2.901  10.189   5.892 -0.1289  1.5334 -2.2810
  543MOL0     H71615   2.732  10.148   5.692 -0.6315 -1.0052 -3.0685
  543MOL0     H71616   2.839  10.003   5.676 -0.4739  1.2522 -2.0169
  543MOL0     H71617   2.961  10.280   5.674 -0.1398  1.6622 -4.9375
  543MOL0     H71618   2.899  10.186   5.535 -1.7644 -0.0931 -0.0285
  543MOL0     H71619   3.096  10.055   5.712  0.3278 -3.7911 -1.9469
  543MOL0     H71620   3.037   9.997   5.559 -3.4521  0.9728 -0.3836
  543MOL0     H71621   3.169  10.251   5.581 -2.0936 -0.7913  0.8050
  543MOL0     H71622   3.158  10.158   5.428 -1.5812 -0.8031  0.0198
  543MOL0     H71623   3.357  10.118   5.650  0.0323 -0.5673  1.0470
  543MOL0     H71624   3.385  10.156   5.485  1.4333 -2.7203 -1.9783
  543MOL0     H71625   3.268   9.882   5.571  2.0527  0.7672  3.1689
  543MOL0     H71626   3.291   9.923   5.406  2.3981 -4.5631  0.6845
  543MOL0     H71627   3.527   9.980   5.447  1.9408  0.9819  2.8640
  543MOL0     H71628   3.479   9.807   5.467 -1.5781 -0.3332  0.7533
  543MOL0     H71629   3.499   9.701   5.708 -1.5100  0.4507  0.3887
  543MOL0     H71630   3.553   9.816   6.054 -1.0898 -0.4511 -0.8945
  543MOL0     H71631   3.718   9.778   6.005  0.7718  0.1441 -2.8723
  543MOL0     H71632   3.623   9.565   5.888 -2.7104  0.9136 -2.2941
  543MOL0     H71633   3.474   9.611   5.967 -0.3205  2.3610  3.4479
  543MOL0     H71634   3.748   9.572   6.114  0.1016  2.2763  1.6457
  543MOL0     H71635   3.593   9.608   6.191  2.1573  0.9091  1.4017
  543MOL0     H71636   3.686   9.365   6.156  2.2860 -0.2703 -1.9253
  543MOL0     H71637   3.627   9.370   5.999  0.3873 -1.9969  1.5993
  543MOL0     H71638   3.479   9.239   5.927  2.6723  3.5922  0.1031
  543MOL0     H71639   3.297   9.221   5.776  2.7430 -0.6612  1.3699
  543MOL0     H71640   3.022   9.064   5.562  1.5236 -0.5266 -1.8384
  543MOL0     H71641   2.809   8.994   5.424  1.3672 -0.5275  1.2133
  543MOL0     H71642   2.591   9.326   5.275 -3.8684  1.6327 -2.4116
  543MOL0     H71643   2.464   9.303   5.395  1.1800  1.5986  1.1106
  543MOL0     H71644   2.401   9.282   5.143 -1.1796 -0.8369 -0.1740
  543MOL0     H71645   2.352   9.149   5.245 -2.0049  2.9464 -0.5537
  543MOL0     H71646   2.530   9.017   5.174 -0.5149  1.7626  2.8054
  543MOL0     H71647   2.598   9.131   5.065 -0.5912 -1.9614 -2.6612
  543MOL0     H71648   2.301   9.029   5.033  0.0843 -1.9840 -1.6132
  543MOL0     H71649   2.376   9.149   4.941 -1.0565  0.2194  0.3433
  543MOL0     H71650   2.562   8.991   4.871  1.1246 -1.8265  4.3221
  543MOL0     H71651   2.393   8.969   4.812 -1.7256  3.9694  0.7700
  543MOL0     H71652   2.356   8.817   4.998 -0.2789 -4.0484 -0.7277
  543MOL0     H71653   2.521   8.797   5.035 -1.1711 -3.8380 -0.6210
  543MOL0     H71654   2.385   8.738   4.766  0.8676  1.6169 -0.4160
  543MOL0     H71655   2.563   8.743   4.787 -0.2774  0.2649 -0.4242
  543MOL0     H71656   2.545   8.557   4.954  2.9604  5.2642 -0.6494
  543MOL0     H71657   2.500   8.507   4.798  2.0176 -1.1095  2.0532
  543MOL0     H71658   2.634   9.379   5.493  0.2623 -0.4106 -2.4719
  543MOL0     H71659   2.847   9.450   5.626 -1.5265  1.1297 -1.8669
  543MOL0     H71660   3.051   9.476   6.037 -1.2102 -1.6898 -1.2546
  543MOL0     H71661   3.258   9.496   6.188 -0.6539 -0.1894  0.0086
  543MOL0     H71662   2.884  10.183   6.135  0.8816 -0.4483  1.5319
  543MOL0     H71663   2.845  10.113   6.356 -2.7993  1.4292  2.7547
  543MOL0     H71664   2.445   9.862   6.585 -2.3383 -2.6124  0.8283
  543MOL0     H71665   2.366   9.718   6.762  0.4135 -1.2398 -3.4072
  543MOL0     H71666   2.509   9.401   6.985 -0.8732 -2.0026 -1.7205
  543MOL0     H71667   2.484   9.439   6.819 -1.9675  2.4607 -0.8143
  543MOL0     H71668   2.293   9.571   7.003  0.7725 -0.6644  0.9660
  543MOL0     H71669   2.277   9.521   6.828  1.2132 -1.2353 -1.3815
  543MOL0     H71670   2.276   9.349   7.078  1.4411 -2.0051 -0.9012
  543MOL0     H71671   2.298   9.288   6.907 -0.1272 -0.3334  0.2718
  543MOL0     H71672   2.060   9.455   7.002  4.6645  1.4417  0.3293
  543MOL0     H71673   2.100   9.382   6.847 -1.0328 -0.3107  0.3870
  543MOL0     H71674   1.926   9.047   7.007 -0.9888  0.9973  0.6392
  543MOL0     H71675   2.744   9.698   6.939  0.2462  0.2109 -1.1817
  543MOL0     H71676   2.835   9.869   6.787 -0.4507  2.0284 -1.2213
  544MOL0     O71677   1.342   1.281   4.800 -0.6459 -0.2831  0.4076
  544MOL0     C71678   1.462   1.301   4.806 -0.3214 -0.6314  0.0368
  544MOL0     O71679   1.522   1.418   4.838  0.1671  0.5404  0.6026
  544MOL0     C71680   1.452   1.516   4.900 -0.7725  0.3075 -0.3350
  544MOL0     C71681   1.492   1.645   4.864 -0.8156  0.2341  0.0396
  544MOL0     C71682   1.427   1.767   4.910  0.3866  0.1530  0.7946
  544MOL0     C71683   1.323   1.759   5.003  0.4301  0.0716  0.3079
  544MOL0     O71684   1.267   1.883   5.043 -0.6136 -0.1701  0.5405
  544MOL0     C71685   1.127   1.882   5.075  0.1079  0.0344 -0.2385
  544MOL0     C71686   1.086   2.027   5.089 -0.0986  0.3821  0.0159
  544MOL0     C71687   0.954   2.049   5.168 -0.3011 -0.3525  0.1249
  544MOL0     C71688   0.823   2.023   5.098  0.2518  0.5229 -0.5393
  544MOL0     C71689   0.699   2.065   5.169  0.5427  0.2182 -0.2082
  544MOL0     C71690   0.680   2.213   5.198 -0.5860 -1.2639 -1.2704
  544MOL0     C71691   0.543   2.233   5.265  0.5174 -0.1873 -0.1094
  544MOL0     C71692   0.535   2.373   5.341 -0.0703  1.1579  0.0626
  544MOL0     N71693   0.416   2.381   5.422 -0.1655 -0.4084 -1.2706
  544MOL0     C71694   0.398   2.455   5.531 -0.0892 -0.5405 -0.0588
  544MOL0     C71695   0.279   2.422   5.582  0.2187 -0.0993 -0.4479
  544MOL0     C71696   0.215   2.458   5.704 -0.6692 -0.6032 -0.4727
  544MOL0     C71697   0.282   2.384   5.816 -0.7752  0.6719  0.1744
  544MOL0     C71698   0.232   2.441   5.947 -0.3078 -0.3206  1.2485
  544MOL0     C71699   0.246   2.360   6.073 -0.7166 -0.8682  1.2463
  544MOL0     O71700   0.389   2.335   6.101  0.9147  0.0880  0.4545
  544MOL0     C71701   0.422   2.243   6.191 -0.2565 -0.4064  0.6195
  544MOL0     C71702   0.339   2.200   6.287 -0.7053 -0.4979  0.2466
  544MOL0     C71703   0.390   2.116   6.390  0.4197 -0.0244  0.6929
  544MOL0     C71704   0.533   2.100   6.406 -0.1902 -0.4664 -0.2395
  544MOL0     C71705   0.607   2.030   6.517  0.8523 -0.0951 -0.6544
  544MOL0     O71706   0.532   1.933   6.589 -0.8117 -0.2963  0.2608
  544MOL0     C71707   0.560   1.917   6.720  0.2101  0.2939 -0.3471
  544MOL0     C71708   0.582   2.027   6.806  0.0134 -0.6240 -0.4159
  544MOL0     C71709   0.636   2.012   6.935  0.0304  0.6200 -0.6413
  544MOL0     C71710   0.673   1.880   6.986 -0.0944 -0.4089  0.3755
  544MOL0     O71711   0.713   1.877   7.111 -0.0492  0.2267  0.2476
  544MOL0     C71712   0.835   1.802   7.153  1.1272  0.1174  0.8856
  544MOL0     C71713   0.831   1.813   7.305  0.5482 -0.1890  0.2482
  544MOL0     C71714   0.952   1.759   7.373  0.4456 -0.9810 -0.0823
  544MOL0     C71715   1.067   1.839   7.330 -0.5061  0.5098 -0.5223
  544MOL0     C71716   1.182   1.843   7.424 -1.0032 -0.1085 -0.1089
  544MOL0     C71717   1.232   1.702   7.468  0.2556  0.3885 -0.3098
  544MOL0     C71718   1.274   1.608   7.357 -0.4160 -0.1800 -0.5473
  544MOL0     C71719   1.321   1.472   7.400 -0.0917  0.7086 -0.0706
  544MOL0    Cl71720   1.186   1.371   7.464 -0.1581  0.0745  0.0473
  544MOL0     C71721   0.650   1.779   6.903  0.1686  0.4117 -0.6128
  544MOL0     C71722   0.593   1.791   6.777 -0.4635 -0.0010 -0.8866
  544MOL0     O71723   0.714   2.071   6.543  0.1474  0.6511 -0.0950
  544MOL0     C71724   0.614   2.131   6.297 -0.2654 -0.7894  0.0009
  544MOL0     C71725   0.565   2.214   6.195 -0.9765  0.5400  0.3592
  544MOL0     N71726   0.220   2.332   5.492  0.3679  0.6775  0.0938
  544MOL0     N71727   0.302   2.308   5.395  0.7047  0.1866 -1.1000
  544MOL0     C71728   1.272   1.632   5.034  0.3624  0.9680 -0.4442
  544MOL0     C71729   1.339   1.511   4.978 -1.2539 -0.3772 -0.1677
  544MOL0     C71730   1.556   1.197   4.747 -0.1270  0.3637 -0.3754
  544MOL0     C71731   1.524   1.083   4.677  0.0936  0.2404 -0.3753
  544MOL0     C71732   1.623   0.987   4.639  0.3091 -0.1021 -0.1224
  544MOL0     C71733   1.761   1.006   4.663 -1.0228 -0.4341  0.5831
  544MOL0     O71734   1.856   0.914   4.611  0.8120  0.0621  0.0959
  544MOL0     C71735   1.997   0.937   4.643 -0.4777  0.0422 -0.8386
  544MOL0     C71736   2.089   0.844   4.564  0.0987  0.2505  0.1074
  544MOL0     C71737   2.026   0.697   4.576  0.1313 -0.8523 -0.2921
  544MOL0     C71738   2.136   0.594   4.551 -0.1173  0.4688  0.5242
  544MOL0     C71739   2.193   0.594   4.419  0.8286 -0.2581  0.6456
  544MOL0     C71740   2.243   0.609   4.309  0.7380  0.2932 -0.6819
  544MOL0     C71741   1.787   1.134   4.725 -0.3209  0.1564  0.6474
  544MOL0     C71742   1.689   1.228   4.760  0.7906 -0.8396 -0.9814
  544MOL0     H71743   1.583   1.639   4.805  0.0270 -1.3405  1.3908
  544MOL0     H71744   1.451   1.866   4.873 -3.5418  1.3172  0.8744
  544MOL0     H71745   1.109   1.824   5.167 -0.3139 -1.9777 -1.5201
  544MOL0     H71746   1.067   1.836   4.996  1.0273  2.4317 -2.4891
  544MOL0     H71747   1.069   2.059   4.986  4.0760  2.1226 -0.2937
  544MOL0     H71748   1.158   2.091   5.139 -1.1776 -0.5563  3.0023
  544MOL0     H71749   0.959   2.155   5.197 -0.0781 -0.0724 -0.8760
  544MOL0     H71750   0.959   1.989   5.259  0.0814  0.6906  0.8216
  544MOL0     H71751   0.821   2.078   5.003 -1.0385 -1.0823 -1.5135
  544MOL0     H71752   0.815   1.917   5.073  1.8167 -0.6649  3.2663
  544MOL0     H71753   0.680   2.007   5.260 -0.2094  0.8257  0.0371
  544MOL0     H71754   0.614   2.034   5.107  1.3524  0.0345 -1.2587
  544MOL0     H71755   0.687   2.269   5.104  0.3976 -1.3927 -1.2882
  544MOL0     H71756   0.745   2.245   5.280 -2.4901  2.6260 -1.0834
  544MOL0     H71757   0.460   2.227   5.194 -1.0646 -1.4215  1.7617
  544MOL0     H71758   0.529   2.159   5.343 -2.4407  0.5077  0.1272
  544MOL0     H71759   0.543   2.453   5.268  0.8984  1.1418  0.1321
  544MOL0     H71760   0.623   2.390   5.405  0.0044  0.5754  0.1255
  544MOL0     H71761   0.476   2.515   5.576 -0.6038  0.0294  0.0794
  544MOL0     H71762   0.106   2.447   5.698 -0.7671 -1.1197  1.5260
  544MOL0     H71763   0.233   2.565   5.722  2.3575 -0.6199 -2.5452
  544MOL0     H71764   0.391   2.381   5.814 -0.3823 -0.9506  6.0797
  544MOL0     H71765   0.239   2.284   5.822 -1.2169  0.8673  0.3441
  544MOL0     H71766   0.271   2.544   5.947 -1.1193  0.1071 -2.1605
  544MOL0     H71767   0.124   2.449   5.939 -0.3490  2.4598  3.0599
  544MOL0     H71768   0.192   2.265   6.069  1.7849 -2.3726  0.2086
  544MOL0     H71769   0.196   2.410   6.156  0.0096 -0.4776  1.4574
  544MOL0     H71770   0.235   2.230   6.295 -1.1383 -1.3683 -1.7148
  544MOL0     H71771   0.329   2.055   6.456  0.2585 -1.8388 -1.0487
  544MOL0     H71772   0.557   2.130   6.785 -2.0404 -0.3115  2.8458
  544MOL0     H71773   0.629   2.095   7.005 -1.4098 -0.3403  0.4251
  544MOL0     H71774   0.918   1.846   7.097 -0.1232 -0.7261 -1.8277
  544MOL0     H71775   0.824   1.698   7.119 -1.1889  0.3646  0.6849
  544MOL0     H71776   0.750   1.752   7.346  2.8361 -2.7942  1.1258
  544MOL0     H71777   0.815   1.919   7.330  0.5049 -0.2844  0.6322
  544MOL0     H71778   0.963   1.651   7.361  3.3794 -0.7396 -0.3716
  544MOL0     H71779   0.938   1.774   7.480  3.1187 -0.9257  0.3421
  544MOL0     H71780   1.094   1.792   7.235 -2.5641  0.2412 -1.0232
  544MOL0     H71781   1.046   1.945   7.309 -0.5256  0.2881 -1.6978
  544MOL0     H71782   1.159   1.891   7.520  1.6405 -1.9656  1.6093
  544MOL0     H71783   1.265   1.898   7.378 -0.9740 -0.1732 -0.1346
  544MOL0     H71784   1.152   1.668   7.534 -0.2820  0.0644 -1.1050
  544MOL0     H71785   1.320   1.709   7.532 -0.5819 -0.7043  1.0122
  544MOL0     H71786   1.194   1.585   7.285 -1.0386 -2.9834  0.9280
  544MOL0     H71787   1.349   1.649   7.289 -0.4719 -0.9668 -1.0966
  544MOL0     H71788   1.392   1.477   7.483 -0.3975  2.0692  0.1284
  544MOL0     H71789   1.377   1.424   7.320  3.1748 -0.5681  2.7164
  544MOL0     H71790   0.658   1.681   6.949  0.1147  0.7220  0.0752
  544MOL0     H71791   0.586   1.703   6.713 -2.6583 -1.1919  0.8459
  544MOL0     H71792   0.719   2.106   6.300  0.7498  2.8705  0.7418
  544MOL0     H71793   0.639   2.253   6.125 -0.7373  0.4172  0.5411
  544MOL0     H71794   1.195   1.613   5.108  1.4639 -0.6181  0.3420
  544MOL0     H71795   1.298   1.413   5.002 -0.9369 -0.1251  1.5500
  544MOL0     H71796   1.422   1.047   4.674 -0.5535  1.9116  0.2684
  544MOL0     H71797   1.601   0.903   4.573  0.6444 -0.3084  0.0263
  544MOL0     H71798   2.009   0.922   4.750  1.0451  0.2783 -0.9548
  544MOL0     H71799   2.038   1.036   4.620  0.1131  0.7405  2.6576
  544MOL0     H71800   2.079   0.854   4.456  1.5093 -2.8121 -0.4188
  544MOL0     H71801   2.192   0.857   4.598 -0.2655 -0.8767  1.7241
  544MOL0     H71802   1.942   0.690   4.506 -0.2351 -0.0063  0.0401
  544MOL0     H71803   1.981   0.675   4.674  2.0048  1.0124  1.0932
  544MOL0     H71804   2.208   0.614   4.631  1.2465  3.8481 -1.3373
  544MOL0     H71805   2.100   0.491   4.562 -0.4446  0.4446 -0.5894
  544MOL0     H71806   2.267   0.626   4.206  0.6808  0.7562 -0.6207
  544MOL0     H71807   1.892   1.149   4.749 -0.4135  0.4249  0.8946
  544MOL0     H71808   1.725   1.321   4.805 -0.6832 -1.7350  2.3659
  545MOL0     O71809   0.139  11.358   4.300  0.2246 -0.2510  0.6132
  545MOL0     C71810   0.074  11.265   4.345 -0.5055  0.3642  0.9408
  545MOL0     O71811   0.123  11.135   4.345 -0.4306 -0.3307  0.1053
  545MOL0     C71812   0.262  11.105   4.318 -1.1039 -0.5900 -0.8178
  545MOL0     C71813   0.301  10.967   4.307 -0.9262 -0.6170  0.0738
  545MOL0     C71814   0.436  10.926   4.299 -1.1548 -0.4978  1.1818
  545MOL0     C71815   0.527  11.028   4.278  0.5991  0.0431 -0.5843
  545MOL0     O71816   0.645  10.991   4.221  0.1548  0.2111  0.7394
  545MOL0     C71817   0.708  11.080   4.124  0.2356  0.8966  0.5628
  545MOL0     C71818   0.852  11.031   4.081 -0.0457  1.4253 -0.2086
  545MOL0     C71819   0.959  11.069   4.177 -0.4059 -1.1997 -0.0419
  545MOL0     C71820   0.983  11.227   4.181  0.5898 -0.4589  0.2126
  545MOL0     C71821   0.914  11.291   4.311 -0.2644 -0.4161 -0.0736
  545MOL0     C71822   1.006  11.288   4.439 -0.2947 -0.1704 -1.3131
  545MOL0     C71823   0.962  11.386   4.549 -0.2276 -0.1130  0.3869
  545MOL0     C71824   1.028  11.351   4.685  0.1045  0.3634 -0.1972
  545MOL0     N71825   1.011  11.459   4.786 -1.1539 -0.8028 -0.3750
  545MOL0     C71826   1.020  11.439   4.923  0.2477  0.1017  0.7576
  545MOL0     C71827   1.044  11.558   4.982  0.2241 -0.4190 -0.0965
  545MOL0     C71828   1.070  11.587   5.127 -0.0773 -0.7537  0.4545
  545MOL0     C71829   1.205  11.652   5.150 -0.1834 -1.2328 -0.0429
  545MOL0     C71830   1.313  11.553   5.131  0.3057 -0.2462 -0.6461
  545MOL0     C71831   1.447  11.609   5.166 -0.6868  0.0048 -0.9422
  545MOL0     O71832   1.557  11.521   5.158  0.2821  0.0160 -0.3620
  545MOL0     C71833   1.681  11.575   5.182 -0.1532 -0.2361  0.0326
  545MOL0     C71834   1.784  11.483   5.145  0.0299  0.4313 -0.8781
  545MOL0     C71835   1.918  11.519   5.171 -0.1797  0.1381  0.5079
  545MOL0     C71836   1.951  11.649   5.216  0.6686 -0.2371 -0.1111
  545MOL0     C71837   2.082  11.712   5.221 -0.4776  0.6405 -0.2170
  545MOL0     O71838   2.100  11.841   5.264 -0.4983 -0.2178  0.0963
  545MOL0     C71839   2.218  11.910   5.271 -0.2530 -0.4755  1.0307
  545MOL0     C71840   2.348  11.870   5.221 -0.5826 -0.0871 -0.7209
  545MOL0     C71841   2.463  11.943   5.242  0.2198 -0.1355 -0.0339
  545MOL0     C71842   2.465  12.069   5.288 -0.1586 -0.1832  0.3161
  545MOL0     O71843   2.578  12.149   5.311  0.5947  0.1513 -0.0158
  545MOL0     C71844   2.669  12.096   5.403  0.3825  0.4499  0.2265
  545MOL0     C71845   2.797  12.037   5.332  0.5074 -0.6987  0.0540
  545MOL0     C71846   2.900  11.988   5.433 -0.2363 -0.4911  0.1759
  545MOL0     C71847   2.977  12.106   5.490 -0.8340 -0.3180 -0.0278
  545MOL0     C71848   3.036  12.055   5.623 -0.1862 -0.3124 -0.6544
  545MOL0     C71849   3.096  12.178   5.700 -0.3843 -0.8280 -0.2248
  545MOL0     C71850   3.077  12.157   5.851 -0.6146  0.3221  0.7867
  545MOL0     C71851   3.115  12.273   5.936 -0.3305 -0.3957 -0.6221
  545MOL0    Cl71852   3.283  12.251   5.978  0.6482 -0.6087 -0.2609
  545MOL0     C71853   2.337  12.118   5.335 -0.6512 -0.4331  0.6523
  545MOL0     C71854   2.220  12.047   5.319  0.9492  0.2848  0.7218
  545MOL0     O71855   2.174  11.637   5.179 -0.5724  0.2252  0.0011
  545MOL0     C71856   1.839  11.735   5.255  0.1041 -0.0423  0.3881
  545MOL0     C71857   1.707  11.702   5.237 -0.7766 -0.9619 -0.5147
  545MOL0     N71858   1.052  11.648   4.868  0.5656 -0.2303  0.1312
  545MOL0     N71859   1.017  11.589   4.754 -0.2981  0.4513 -0.1804
  545MOL0     C71860   0.492  11.163   4.289  0.6901 -0.2028 -0.4721
  545MOL0     C71861   0.364  11.200   4.314  0.9295  0.0822 -0.5721
  545MOL0     C71862  -0.057  11.283   4.395 -0.1736 -0.0192  0.0741
  545MOL0     C71863  -0.138  11.188   4.457 -0.6018  0.3082 -1.1484
  545MOL0     C71864  -0.260  11.210   4.514  0.5888  0.2485  0.2707
  545MOL0     C71865  -0.320  11.333   4.502 -0.6904 -0.3651  0.2756
  545MOL0     O71866  -0.451  11.351   4.544  0.5960 -0.2039 -0.0971
  545MOL0     C71867  -0.550  11.322   4.448 -0.2048  0.1223 -0.7164
  545MOL0     C71868  -0.647  11.214   4.490 -1.1529 -0.1093 -0.2907
  545MOL0     C71869  -0.764  11.208   4.399  0.5568 -0.6306  0.8657
  545MOL0     C71870  -0.869  11.102   4.457 -0.3714 -0.0397  0.0469
  545MOL0     C71871  -0.960  11.074   4.350 -0.1946 -0.4549  0.1244
  545MOL0     C71872  -1.030  11.038   4.256 -0.2866  0.5462  0.3386
  545MOL0     C71873  -0.251  11.437   4.430  0.9060  1.6363  0.2457
  545MOL0     C71874  -0.120  11.415   4.384 -0.6538  0.5377 -0.3440
  545MOL0     H71875   0.224  10.892   4.322 -1.0591 -0.7671 -1.2549
  545MOL0     H71876   0.462  10.821   4.304  0.3432 -0.4995 -2.9440
  545MOL0     H71877   0.717  11.183   4.160  0.7735  0.6144  1.2297
  545MOL0     H71878   0.647  11.093   4.033 -0.8595  2.7588  1.4998
  545MOL0     H71879   0.883  11.064   3.981 -0.6225 -2.9257 -2.0576
  545MOL0     H71880   0.863  10.922   4.078  2.1207  1.5643  0.8759
  545MOL0     H71881   1.058  11.034   4.146  1.1858  1.1727  1.9611
  545MOL0     H71882   0.942  11.027   4.277  0.0972 -2.2451 -0.3874
  545MOL0     H71883   1.088  11.255   4.190  0.0587  1.3309  1.5003
  545MOL0     H71884   0.928  11.278   4.101 -1.0433 -0.9837  0.9379
  545MOL0     H71885   0.816  11.246   4.327 -0.5966 -0.0589 -1.0272
  545MOL0     H71886   0.891  11.393   4.278  0.4096 -0.0446  0.5519
  545MOL0     H71887   1.102  11.319   4.398  1.7238 -4.4245 -0.2899
  545MOL0     H71888   1.021  11.189   4.483 -1.0235  0.8964  1.5398
  545MOL0     H71889   0.980  11.491   4.524 -0.2550 -0.8771 -3.4754
  545MOL0     H71890   0.857  11.366   4.573 -0.9822  1.3506 -1.4996
  545MOL0     H71891   1.137  11.342   4.686  0.0116 -0.8139  1.0525
  545MOL0     H71892   0.987  11.257   4.722  0.0865  0.3414 -0.2749
  545MOL0     H71893   1.020  11.343   4.974  0.5401 -0.2737  0.0654
  545MOL0     H71894   1.062  11.491   5.180 -3.1070 -1.2989 -0.7829
  545MOL0     H71895   0.987  11.653   5.151  0.9754  1.0378 -0.6432
  545MOL0     H71896   1.195  11.682   5.254 -2.6484  1.0581 -0.8211
  545MOL0     H71897   1.222  11.744   5.092 -0.8895 -1.8754 -1.3190
  545MOL0     H71898   1.300  11.466   5.195 -1.1272  2.2325  2.7581
  545MOL0     H71899   1.324  11.515   5.029  3.1893 -1.0775 -0.0882
  545MOL0     H71900   1.442  11.646   5.268  0.1503 -1.2406 -0.4287
  545MOL0     H71901   1.460  11.691   5.095 -0.8956 -0.2651 -1.2973
  545MOL0     H71902   1.760  11.385   5.103  2.3005 -0.6694  0.2172
  545MOL0     H71903   2.004  11.455   5.152  1.7657  2.3103  1.4122
  545MOL0     H71904   2.354  11.773   5.172 -0.2471  1.3438 -3.6986
  545MOL0     H71905   2.561  11.903   5.216  1.3290  1.0028  2.1738
  545MOL0     H71906   2.621  12.013   5.457  2.6363 -1.6702 -0.8581
  545MOL0     H71907   2.693  12.171   5.479  1.9081  0.2574 -0.0433
  545MOL0     H71908   2.833  12.120   5.271  0.9514 -0.8260  0.1433
  545MOL0     H71909   2.757  11.954   5.273  0.9805  0.2886 -1.7000
  545MOL0     H71910   2.963  11.907   5.394 -0.1132 -1.3441  2.0342
  545MOL0     H71911   2.851  11.940   5.518 -0.0725  0.9238  1.1053
  545MOL0     H71912   3.050  12.163   5.432 -1.7525 -0.3831 -1.3151
  545MOL0     H71913   2.912  12.191   5.511  0.3069  0.6762 -0.4173
  545MOL0     H71914   3.112  11.977   5.614  1.3250  1.0096  0.1431
  545MOL0     H71915   2.966  11.998   5.685 -0.6097  1.1638  0.2788
  545MOL0     H71916   3.054  12.276   5.674  0.2780 -0.8537 -1.4605
  545MOL0     H71917   3.203  12.173   5.682 -0.4220  1.2852 -1.3814
  545MOL0     H71918   2.968  12.154   5.861 -1.1063  1.5880 -2.9403
  545MOL0     H71919   3.118  12.062   5.888 -1.0412  0.2247  1.0236
  545MOL0     H71920   3.060  12.272   6.031 -1.0940 -2.8385 -1.0055
  545MOL0     H71921   3.104  12.366   5.880 -0.7801  1.8478  2.8745
  545MOL0     H71922   2.347  12.217   5.379  2.6525 -1.4421  2.4699
  545MOL0     H71923   2.127  12.092   5.352  0.6733  0.1908  0.0880
  545MOL0     H71924   1.861  11.832   5.299  0.9699 -0.3752  0.7083
  545MOL0     H71925   1.635  11.776   5.271 -1.6705 -2.0733  0.1034
  545MOL0     H71926   0.569  11.239   4.286 -1.7070  2.5371  1.2928
  545MOL0     H71927   0.356  11.299   4.357  0.6925 -0.6862  1.2564
  545MOL0     H71928  -0.103  11.085   4.462  0.2793  0.5440 -2.0201
  545MOL0     H71929  -0.324  11.142   4.570 -1.4732  1.5784 -0.3443
  545MOL0     H71930  -0.504  11.299   4.351 -0.1298  1.2399 -0.9528
  545MOL0     H71931  -0.605  11.416   4.446 -0.1049  0.2877  1.6467
  545MOL0     H71932  -0.603  11.114   4.495  0.7133  0.4497 -3.0665
  545MOL0     H71933  -0.682  11.234   4.592  1.6634 -0.6505  0.8791
  545MOL0     H71934  -0.736  11.187   4.296 -0.1399 -2.3740  0.9899
  545MOL0     H71935  -0.802  11.310   4.405  2.9239  0.3055  1.1434
  545MOL0     H71936  -0.811  11.013   4.483 -1.4490 -0.5762  0.6521
  545MOL0     H71937  -0.921  11.148   4.541  3.3592  1.6453  1.6778
  545MOL0     H71938  -1.089  11.011   4.171 -0.4437  0.9303  0.3228
  545MOL0     H71939  -0.296  11.532   4.404  1.0289  1.8713  0.8956
  545MOL0     H71940  -0.071  11.493   4.326 -2.6917  2.8899  0.8808
  546MOL0     O71941   4.457   5.170  11.102  0.0213  0.0205 -0.2803
  546MOL0     C71942   4.564   5.160  11.049  0.3939  1.2195  0.0952
  546MOL0     O71943   4.591   5.055  10.949  0.2083 -0.1923  0.0284
  546MOL0     C71944   4.506   4.948  10.936 -0.7813  1.6777  0.8429
  546MOL0     C71945   4.437   4.890  11.036  0.1693  0.1839  0.4982
  546MOL0     C71946   4.352   4.782  11.021  0.1086 -0.3397  0.4332
  546MOL0     C71947   4.351   4.715  10.898 -0.8732 -0.3275  0.7159
  546MOL0     O71948   4.268   4.609  10.863 -0.2816  0.1948  0.1640
  546MOL0     C71949   4.173   4.557  10.957 -0.5540  0.0843  0.4896
  546MOL0     C71950   4.122   4.414  10.918  1.3260 -0.1800  0.5388
  546MOL0     C71951   4.019   4.374  11.026 -0.3256 -0.5417  0.3485
  546MOL0     C71952   3.941   4.245  11.007  0.1143  0.1061  0.5831
  546MOL0     C71953   3.828   4.260  10.906  0.0926 -0.2046  0.9694
  546MOL0     C71954   3.753   4.130  10.876  0.4294 -0.2021 -0.5440
  546MOL0     C71955   3.638   4.137  10.773 -0.0224  0.0737 -0.6943
  546MOL0     C71956   3.564   3.998  10.749 -0.4604 -0.7948  0.5931
  546MOL0     N71957   3.450   4.002  10.656  0.4434 -0.6227 -0.0180
  546MOL0     C71958   3.321   3.952  10.684  0.3052  0.5525 -0.8633
  546MOL0     C71959   3.240   3.978  10.577 -1.8493 -0.3256 -0.6244
  546MOL0     C71960   3.106   3.926  10.558  0.4464 -0.1262 -0.1584
  546MOL0     C71961   2.997   4.032  10.535 -0.7032  0.5842  0.9274
  546MOL0     C71962   2.864   3.965  10.499  0.4153 -1.5692  0.3841
  546MOL0     C71963   2.750   4.068  10.474  0.8178 -0.6442  0.5268
  546MOL0     O71964   2.626   4.014  10.432  0.2402  0.2845 -0.2504
  546MOL0     C71965   2.516   4.088  10.442  0.3534 -0.8679  1.0007
  546MOL0     C71966   2.522   4.226  10.449 -0.1253  0.2307 -0.7053
  546MOL0     C71967   2.405   4.299  10.448 -0.0450 -0.3764  0.8912
  546MOL0     C71968   2.281   4.230  10.438  0.8792 -0.0862 -0.4419
  546MOL0     C71969   2.157   4.311  10.447 -0.1181  0.0024 -0.2497
  546MOL0     O71970   2.170   4.449  10.446  0.2220 -0.7188  0.1869
  546MOL0     C71971   2.053   4.519  10.475 -1.0175 -0.2424 -0.4288
  546MOL0     C71972   1.992   4.606  10.386 -0.6156  0.6004 -0.2397
  546MOL0     C71973   1.869   4.665  10.419 -0.3103  0.5722 -0.2457
  546MOL0     C71974   1.815   4.654  10.547  0.4483 -0.2820  0.4968
  546MOL0     O71975   1.694   4.711  10.593 -0.3882 -0.6449 -0.2194
  546MOL0     C71976   1.612   4.782  10.501 -0.5388  0.4430  0.4257
  546MOL0     C71977   1.466   4.818  10.551 -0.9491  0.6314 -0.0371
  546MOL0     C71978   1.387   4.691  10.599 -0.9407 -0.1012 -1.0049
  546MOL0     C71979   1.237   4.706  10.588  0.3866  0.2818 -0.0815
  546MOL0     C71980   1.153   4.596  10.657 -0.1608 -1.0879 -0.2087
  546MOL0     C71981   1.116   4.624  10.801  0.0696  1.0075 -0.1152
  546MOL0     C71982   1.066   4.501  10.872 -0.4121  0.1246 -0.6752
  546MOL0     C71983   0.919   4.476  10.833 -0.2887  0.1268 -0.2055
  546MOL0    Cl71984   0.897   4.319  10.911 -0.2881 -0.0079 -0.3540
  546MOL0     C71985   1.886   4.574  10.643 -0.5624 -0.0172  0.3482
  546MOL0     C71986   2.002   4.515  10.605 -0.0850 -0.6148 -0.6233
  546MOL0     O71987   2.048   4.250  10.465 -0.1449  0.6692  0.5813
  546MOL0     C71988   2.275   4.094  10.443  0.3825  0.3091  0.5908
  546MOL0     C71989   2.390   4.020  10.445 -1.1560 -0.5125  0.3746
  546MOL0     N71990   3.322   4.048  10.488 -0.2345  0.6001  0.6920
  546MOL0     N71991   3.448   4.045  10.531  0.7607  0.1931  0.3843
  546MOL0     C71992   4.411   4.777  10.791  0.6426 -0.0116  0.5187
  546MOL0     C71993   4.491   4.889  10.809 -0.4383 -0.9290  0.6207
  546MOL0     C71994   4.645   5.282  11.067 -0.7088  0.3227  1.1089
  546MOL0     C71995   4.760   5.287  10.985  0.9681 -0.7405  0.2222
  546MOL0     C71996   4.855   5.388  11.006 -0.0852 -1.0705 -0.3755
  546MOL0     C71997   4.841   5.480  11.119  0.2679 -0.2066 -0.0732
  546MOL0     O71998   4.941   5.576  11.147  0.4151  0.1215  0.6573
  546MOL0     C71999   5.070   5.574  11.086  0.2140 -0.0127 -0.6210
  546MOL0     C72000   5.181   5.620  11.185  0.6130  0.0037 -0.4073
  546MOL0     C72001   5.199   5.532  11.314  0.6070 -0.1806 -0.3487
  546MOL0     C72002   5.342   5.532  11.372 -0.0850 -0.4032 -0.4435
  546MOL0     C72003   5.440   5.460  11.285  0.5421  0.0309 -0.7268
  546MOL0     C72004   5.524   5.395  11.229 -0.1137  0.1935 -0.1628
  546MOL0     C72005   4.721   5.472  11.191  0.0570  0.0583 -0.6080
  546MOL0     C72006   4.625   5.378  11.166  0.5622 -0.4886  0.3507
  546MOL0     H72007   4.432   4.935  11.134 -3.6697  1.9308 -0.2957
  546MOL0     H72008   4.280   4.765  11.101 -0.1983  2.4259  0.8282
  546MOL0     H72009   4.091   4.629  10.966 -1.4898 -0.0236 -4.5658
  546MOL0     H72010   4.228   4.532  11.049 -0.2985 -3.0946 -0.3889
  546MOL0     H72011   4.214   4.355  10.917  0.0411 -2.3215  1.1647
  546MOL0     H72012   4.080   4.413  10.817 -0.7163  0.4928  1.3372
  546MOL0     H72013   3.947   4.453  11.049 -1.5615 -1.3436 -0.6725
  546MOL0     H72014   4.079   4.359  11.117  1.2971  0.9270 -0.4046
  546MOL0     H72015   4.019   4.175  10.976  1.2154  1.4658  0.1489
  546MOL0     H72016   3.899   4.211  11.101 -2.1522 -1.1566 -0.8094
  546MOL0     H72017   3.846   4.301  10.806 -1.2576 -3.0320 -0.5347
  546MOL0     H72018   3.750   4.327  10.944 -1.4400 -1.7870  0.7217
  546MOL0     H72019   3.714   4.093  10.971  2.4089 -1.6436 -0.2149
  546MOL0     H72020   3.829   4.060  10.839 -0.1572 -1.1161 -0.0638
  546MOL0     H72021   3.565   4.205  10.817  0.1348 -0.5979  0.6756
  546MOL0     H72022   3.679   4.179  10.681 -0.7245 -0.1848 -1.1351
  546MOL0     H72023   3.539   3.962  10.849 -2.4713  0.4691  0.6071
  546MOL0     H72024   3.632   3.932  10.694  1.7009  0.8161  1.1593
  546MOL0     H72025   3.291   3.889  10.767 -0.6846  0.3389 -1.3685
  546MOL0     H72026   3.075   3.864  10.642 -1.3032 -0.3055 -0.8774
  546MOL0     H72027   3.102   3.861  10.471 -0.4694  1.3802 -1.3023
  546MOL0     H72028   3.024   4.104  10.458  1.5036 -1.7491 -0.6620
  546MOL0     H72029   2.995   4.091  10.627  1.9609  1.3762  0.5514
  546MOL0     H72030   2.868   3.897  10.413 -0.5347 -0.3635 -0.6616
  546MOL0     H72031   2.837   3.898  10.581 -0.8840 -3.9421 -1.8427
  546MOL0     H72032   2.780   4.140  10.397 -0.3789 -0.0814  0.5644
  546MOL0     H72033   2.728   4.112  10.571 -2.6070 -0.9438  0.0108
  546MOL0     H72034   2.618   4.277  10.446  0.9635 -1.4641  1.6118
  546MOL0     H72035   2.407   4.408  10.449  2.3787 -0.3602  0.1274
  546MOL0     H72036   2.022   4.600  10.282  0.4864 -3.0150  0.1391
  546MOL0     H72037   1.815   4.721  10.344  2.6115  1.6424 -1.6693
  546MOL0     H72038   1.592   4.726  10.409  0.9653 -1.4379  1.1751
  546MOL0     H72039   1.666   4.876  10.487  1.4430 -0.2588  2.7679
  546MOL0     H72040   1.406   4.867  10.474 -1.6856 -2.9596 -1.9670
  546MOL0     H72041   1.484   4.894  10.628  3.9166  2.0576 -2.1528
  546MOL0     H72042   1.418   4.668  10.701  0.7356  0.3660 -1.3776
  546MOL0     H72043   1.421   4.608  10.536 -0.5840  0.5960 -1.7467
  546MOL0     H72044   1.203   4.801  10.629 -3.7274 -1.2546  0.5590
  546MOL0     H72045   1.220   4.715  10.480 -2.7779  2.2186  0.4313
  546MOL0     H72046   1.201   4.497  10.651  1.4033 -0.5355  1.8662
  546MOL0     H72047   1.059   4.589  10.602 -0.2988 -1.2400  0.0435
  546MOL0     H72048   1.040   4.702  10.791  0.5139  1.2276 -2.2571
  546MOL0     H72049   1.205   4.660  10.853  0.1902  0.7782 -0.1613
  546MOL0     H72050   1.129   4.419  10.837 -4.0384 -2.4082 -1.9315
  546MOL0     H72051   1.085   4.507  10.980 -1.3240 -3.6437 -0.1517
  546MOL0     H72052   0.919   4.478  10.724 -1.0525  0.0699 -0.2115
  546MOL0     H72053   0.854   4.556  10.870 -0.7761  0.2483 -1.2860
  546MOL0     H72054   1.850   4.579  10.745  1.1553 -1.2953  1.0593
  546MOL0     H72055   2.053   4.450  10.675  0.2033  1.9283  1.6938
  546MOL0     H72056   2.181   4.040  10.449 -1.3578  3.2731  2.1028
  546MOL0     H72057   2.399   3.912  10.451  2.9231 -0.2852  0.9743
  546MOL0     H72058   4.403   4.727  10.695  1.0504  1.3129 -0.2361
  546MOL0     H72059   4.544   4.933  10.724 -1.5198 -1.9696 -0.6337
  546MOL0     H72060   4.776   5.213  10.908  1.9011 -1.4793  1.0943
  546MOL0     H72061   4.943   5.395  10.943 -0.5703  1.5539 -0.8778
  546MOL0     H72062   5.076   5.654  11.011  0.5725  0.5746  0.0214
  546MOL0     H72063   5.103   5.475  11.054  0.5447  0.8157 -3.1411
  546MOL0     H72064   5.273   5.604  11.127  0.9624 -1.0550  0.4120
  546MOL0     H72065   5.172   5.727  11.205 -1.0522 -0.5219  2.0210
  546MOL0     H72066   5.186   5.431  11.273  3.4347 -0.6074 -0.4149
  546MOL0     H72067   5.130   5.533  11.399  0.8258 -2.1439 -0.1013
  546MOL0     H72068   5.379   5.635  11.382  0.4670 -0.5203 -1.1583
  546MOL0     H72069   5.354   5.486  11.470  4.8878 -0.8476 -1.0251
  546MOL0     H72070   5.602   5.331  11.193  1.3648  0.5006  2.2748
  546MOL0     H72071   4.703   5.549  11.265  0.9664  1.2097 -1.5512
  546MOL0     H72072   4.540   5.381  11.233 -0.4309  3.6110 -0.8085
  547MOL0     O72073   9.480  11.417   8.502 -0.3048  0.5137  0.1051
  547MOL0     C72074   9.472  11.300   8.548 -0.2967  0.4353 -0.1867
  547MOL0     O72075   9.363  11.217   8.571 -0.1165 -0.9542 -0.5568
  547MOL0     C72076   9.236  11.266   8.561  0.9357 -0.5367  0.8292
  547MOL0     C72077   9.160  11.296   8.675 -0.4624  0.1839  0.6929
  547MOL0     C72078   9.034  11.344   8.669 -0.0723  0.0873 -0.0627
  547MOL0     C72079   8.979  11.373   8.540  0.5092 -0.2772  0.3870
  547MOL0     O72080   8.860  11.438   8.532  0.4738 -0.2490  0.1163
  547MOL0     C72081   8.825  11.497   8.407  0.4078  0.5919 -1.0740
  547MOL0     C72082   8.725  11.404   8.330  0.0061  0.4432 -0.4816
  547MOL0     C72083   8.684  11.483   8.210 -0.6174  0.1995  0.5530
  547MOL0     C72084   8.574  11.402   8.140 -0.6027 -0.4568 -0.0017
  547MOL0     C72085   8.524  11.475   8.017  0.5027 -0.9699  0.7083
  547MOL0     C72086   8.416  11.578   8.041  0.2285 -0.1965 -0.3059
  547MOL0     C72087   8.428  11.693   7.938 -0.4164 -0.2561  0.6721
  547MOL0     C72088   8.429  11.657   7.787 -0.2051  1.0393  0.3996
  547MOL0     N72089   8.290  11.612   7.760 -0.5893  0.2573  0.0322
  547MOL0     C72090   8.247  11.479   7.769 -0.2784  1.0697  0.5785
  547MOL0     C72091   8.128  11.469   7.701 -0.0099 -1.1245 -0.3425
  547MOL0     C72092   8.052  11.349   7.668  0.4004 -0.1400  0.5397
  547MOL0     C72093   8.113  11.249   7.566 -0.3069 -0.0137 -0.5711
  547MOL0     C72094   8.149  11.322   7.432 -0.2247 -0.1734 -0.0047
  547MOL0     C72095   8.204  11.242   7.319  0.0396  0.4871  0.0876
  547MOL0     O72096   8.337  11.173   7.362  0.3714 -0.3946  0.0143
  547MOL0     C72097   8.327  11.045   7.414 -0.1364 -0.7647 -0.6245
  547MOL0     C72098   8.207  10.967   7.443  0.1350  0.4831  0.6307
  547MOL0     C72099   8.217  10.848   7.509 -0.2746  0.4176 -0.1292
  547MOL0     C72100   8.340  10.782   7.541  0.0444 -0.4153  0.9705
  547MOL0     C72101   8.355  10.641   7.576 -1.0432 -0.5179  0.2928
  547MOL0     O72102   8.479  10.583   7.572  0.1215  1.1018 -0.1708
  547MOL0     C72103   8.486  10.444   7.613 -0.4181 -0.4015 -0.5458
  547MOL0     C72104   8.538  10.352   7.519 -0.7783  0.3862 -0.3844
  547MOL0     C72105   8.548  10.223   7.561 -0.0302  0.5065  0.9787
  547MOL0     C72106   8.503  10.173   7.693 -0.4278  0.6016  0.5263
  547MOL0     O72107   8.515  10.041   7.723  0.3469  0.3386 -0.1117
  547MOL0     C72108   8.535  10.001   7.859  0.1986  1.7016 -0.9885
  547MOL0     C72109   8.634   9.880   7.875 -1.3043  0.2874 -0.4906
  547MOL0     C72110   8.779   9.916   7.870 -0.2886  0.2732  0.0629
  547MOL0     C72111   8.875   9.804   7.868 -0.2860 -0.4848  0.0675
  547MOL0     C72112   8.872   9.710   7.985 -0.0711 -0.0892  0.3965
  547MOL0     C72113   8.912   9.771   8.119  0.6954 -0.4266 -0.6648
  547MOL0     C72114   8.931   9.673   8.231 -0.1426  0.9103  1.0098
  547MOL0     C72115   8.973   9.727   8.365 -0.6619 -0.0587  0.1806
  547MOL0    Cl72116   9.139   9.763   8.347  0.1454 -0.2419 -0.1204
  547MOL0     C72117   8.455  10.268   7.783  0.1063 -0.9624  0.3281
  547MOL0     C72118   8.450  10.402   7.741 -0.1048  0.2686 -0.8207
  547MOL0     O72119   8.257  10.597   7.627 -0.0061 -0.5364  0.8914
  547MOL0     C72120   8.457  10.847   7.496 -0.8892 -0.1622  0.6597
  547MOL0     C72121   8.452  10.979   7.446  0.6194 -0.8846  0.0553
  547MOL0     N72122   8.108  11.605   7.657 -0.4875 -0.9293 -0.3805
  547MOL0     N72123   8.196  11.682   7.693 -0.3645 -0.0940  0.2971
  547MOL0     C72124   9.047  11.324   8.425 -0.6237 -0.6372 -0.1141
  547MOL0     C72125   9.171  11.261   8.434 -0.2653  0.9787 -0.8341
  547MOL0     C72126   9.599  11.214   8.550 -0.0161 -0.4280 -1.0250
  547MOL0     C72127   9.590  11.083   8.590  0.6306 -0.2553  0.6026
  547MOL0     C72128   9.705  11.004   8.595  1.0302 -0.5377  0.3864
  547MOL0     C72129   9.836  11.056   8.569  0.2081  0.2591  0.0106
  547MOL0     O72130   9.937  10.988   8.616 -0.2395 -0.9726  0.5718
  547MOL0     C72131  10.056  11.002   8.535 -0.2860 -0.5948 -0.1437
  547MOL0     C72132  10.029  10.954   8.389  0.0993  0.0851  0.2944
  547MOL0     C72133  10.005  10.802   8.374  0.8239  0.4536 -0.0926
  547MOL0     C72134   9.947  10.759   8.232 -0.1668 -0.9376 -0.0038
  547MOL0     C72135   9.934  10.613   8.215 -0.2373  0.2354  0.0453
  547MOL0     C72136   9.932  10.490   8.198  0.3271  0.2380  0.4694
  547MOL0     C72137   9.838  11.192   8.537 -0.6550 -0.1319  0.1727
  547MOL0     C72138   9.726  11.270   8.520  0.3843  0.6018 -0.6717
  547MOL0     H72139   9.209  11.280   8.770  2.1019  1.8842 -0.2566
  547MOL0     H72140   8.986  11.385   8.757  0.7222 -1.4976  1.1719
  547MOL0     H72141   8.919  11.519   8.354  1.9794 -2.9153  0.0038
  547MOL0     H72142   8.769  11.587   8.435 -0.1400  0.2167 -0.9559
  547MOL0     H72143   8.637  11.392   8.394  0.5554 -0.0762  0.1870
  547MOL0     H72144   8.753  11.302   8.300 -1.4336  0.3821 -1.7773
  547MOL0     H72145   8.771  11.492   8.144 -3.3741  0.4912 -3.3801
  547MOL0     H72146   8.642  11.575   8.252 -1.8392 -0.4511  0.7877
  547MOL0     H72147   8.622  11.314   8.096  0.3598  0.8599 -1.7298
  547MOL0     H72148   8.495  11.379   8.212  1.7167  3.1203  4.1088
  547MOL0     H72149   8.477  11.395   7.959  0.6659 -0.4873 -0.1061
  547MOL0     H72150   8.599  11.508   7.945  0.3754  0.5897  1.2488
  547MOL0     H72151   8.418  11.622   8.142 -2.4156  0.6891 -0.5472
  547MOL0     H72152   8.316  11.535   8.030 -0.5563  2.0192 -2.8314
  547MOL0     H72153   8.345  11.762   7.955 -1.5946 -0.6644 -2.5962
  547MOL0     H72154   8.523  11.743   7.957  0.3569 -0.3445 -2.4475
  547MOL0     H72155   8.505  11.581   7.768 -1.8203 -0.1491 -1.7999
  547MOL0     H72156   8.457  11.736   7.716  0.0273 -0.7276 -1.6086
  547MOL0     H72157   8.284  11.388   7.817 -1.2018  1.0250  1.2449
  547MOL0     H72158   7.955  11.375   7.625  2.0471  2.0554 -2.0817
  547MOL0     H72159   8.026  11.291   7.758  2.7681 -0.9409  0.7671
  547MOL0     H72160   8.051  11.163   7.541  2.5798 -3.0792  1.8402
  547MOL0     H72161   8.205  11.214   7.615 -2.8854 -0.2259  4.8322
  547MOL0     H72162   8.059  11.378   7.404  0.4768  0.9747 -0.0424
  547MOL0     H72163   8.223  11.396   7.465  0.4057 -0.4264 -0.8264
  547MOL0     H72164   8.221  11.310   7.236 -1.5079  0.6208 -0.1458
  547MOL0     H72165   8.136  11.163   7.284 -1.4529  0.6212  2.4262
  547MOL0     H72166   8.104  10.996   7.422 -0.3984 -1.7544 -0.0981
  547MOL0     H72167   8.124  10.797   7.531 -1.0035  0.1527 -3.3611
  547MOL0     H72168   8.564  10.384   7.418 -2.0145  2.9813  0.0326
  547MOL0     H72169   8.585  10.159   7.481  1.9787  3.4237 -0.5948
  547MOL0     H72170   8.439   9.965   7.897  0.5796 -0.3810 -1.8405
  547MOL0     H72171   8.572  10.082   7.923 -1.0061  0.9551  0.7389
  547MOL0     H72172   8.607   9.814   7.792  1.1934  1.9717 -2.8535
  547MOL0     H72173   8.624   9.828   7.970  0.5970 -1.8815 -1.3921
  547MOL0     H72174   8.792   9.991   7.949 -1.9940  1.8653 -1.0785
  547MOL0     H72175   8.803   9.967   7.776 -1.1497 -1.1297 -0.9604
  547MOL0     H72176   8.861   9.747   7.775  1.2136 -0.6381 -0.1067
  547MOL0     H72177   8.973   9.849   7.851 -0.6567 -0.1596 -1.3209
  547MOL0     H72178   8.942   9.629   7.963 -0.5370 -0.7735  1.3716
  547MOL0     H72179   8.776   9.660   8.000 -1.3873  1.7997 -1.2729
  547MOL0     H72180   8.838   9.848   8.147  0.6706 -1.4260  2.3625
  547MOL0     H72181   9.011   9.815   8.108  0.8309 -0.9614 -1.6876
  547MOL0     H72182   8.840   9.613   8.242 -1.9689  3.3809  0.3075
  547MOL0     H72183   9.003   9.598   8.197  0.0698  1.2918  0.6124
  547MOL0     H72184   8.962   9.649   8.441 -0.1156  0.8310  1.1962
  547MOL0     H72185   8.916   9.816   8.394 -0.7302  0.1087 -0.4643
  547MOL0     H72186   8.420  10.246   7.883  2.1645  1.5782  1.7157
  547MOL0     H72187   8.420  10.482   7.808  0.7074  0.5215 -0.7514
  547MOL0     H72188   8.557  10.806   7.507 -2.0890 -3.7848 -0.5379
  547MOL0     H72189   8.545  11.032   7.432 -0.1790  0.0232 -2.2340
  547MOL0     H72190   9.014  11.324   8.322 -0.0019 -2.1954 -0.3335
  547MOL0     H72191   9.227  11.212   8.356  4.9293 -0.7053  3.3383
  547MOL0     H72192   9.499  11.031   8.615 -0.5815  0.2492 -2.3431
  547MOL0     H72193   9.689  10.900   8.619  2.5093 -0.0144  4.5943
  547MOL0     H72194  10.147  10.957   8.577  1.5998  1.7201 -1.5036
  547MOL0     H72195  10.098  11.103   8.530  1.9320 -1.5102 -1.1999
  547MOL0     H72196   9.940  11.004   8.350 -0.2925  0.1813  1.2901
  547MOL0     H72197  10.112  10.974   8.320 -0.2514  1.0390  0.1310
  547MOL0     H72198   9.938  10.764   8.452  1.6778 -1.3312 -0.1818
  547MOL0     H72199  10.093  10.740   8.393  1.8520 -0.1229 -5.2287
  547MOL0     H72200   9.850  10.808   8.218 -1.1081 -2.7768 -0.2577
  547MOL0     H72201  10.019  10.794   8.157 -1.4144 -1.2659 -1.4180
  547MOL0     H72202   9.946  10.388   8.168 -0.4339  0.0627  0.6889
  547MOL0     H72203   9.937  11.237   8.531 -1.0106  0.8675  1.4394
  547MOL0     H72204   9.731  11.372   8.483 -1.1480  0.0109 -2.7595
  548MOL0     O72205   5.550   4.888   0.543  0.2131 -0.1296 -0.3171
  548MOL0     C72206   5.626   4.982   0.580  0.2101 -1.0512  0.1261
  548MOL0     O72207   5.749   5.000   0.535  0.6481  0.1345 -0.4197
  548MOL0     C72208   5.816   4.897   0.475 -0.2837  0.0680  0.4730
  548MOL0     C72209   5.819   4.765   0.529  0.4224 -0.2156 -0.1066
  548MOL0     C72210   5.897   4.660   0.477  0.1759  0.0370 -0.3451
  548MOL0     C72211   5.979   4.693   0.370 -0.1404 -0.8682  0.2467
  548MOL0     O72212   6.073   4.594   0.343  0.2288 -0.2103  0.0060
  548MOL0     C72213   6.216   4.627   0.326  0.2590 -0.0130  0.8307
  548MOL0     C72214   6.308   4.622   0.445 -0.1209 -0.4714 -0.0516
  548MOL0     C72215   6.307   4.484   0.505  0.5321  0.0207  0.4413
  548MOL0     C72216   6.420   4.468   0.605 -0.1033  0.3785 -0.2895
  548MOL0     C72217   6.432   4.316   0.634  1.0405 -0.0260 -1.0683
  548MOL0     C72218   6.568   4.290   0.696  0.0248 -0.1593  0.1926
  548MOL0     C72219   6.589   4.143   0.748  0.3050  0.2426 -0.1182
  548MOL0     C72220   6.665   4.138   0.878 -0.5762 -0.3722  0.4028
  548MOL0     N72221   6.767   4.027   0.877  0.3249  0.3963  0.3279
  548MOL0     C72222   6.801   3.951   0.981 -0.0941  0.3900  0.1917
  548MOL0     C72223   6.913   3.883   0.952  0.0988  0.7904 -0.0335
  548MOL0     C72224   7.002   3.794   1.039 -0.7422 -0.6031 -0.0167
  548MOL0     C72225   7.118   3.855   1.111 -1.0198 -0.6226 -0.0938
  548MOL0     C72226   7.209   3.932   1.015  0.3168  1.2540 -0.1462
  548MOL0     C72227   7.326   3.986   1.085 -0.5815  0.6989 -0.3443
  548MOL0     O72228   7.391   4.074   0.989 -0.4612  0.3101 -0.1504
  548MOL0     C72229   7.503   4.147   1.037  0.2031 -0.3393  0.1062
  548MOL0     C72230   7.539   4.263   0.966 -0.0271 -0.0423  0.0852
  548MOL0     C72231   7.641   4.347   1.017 -0.2588  0.0998  0.5228
  548MOL0     C72232   7.709   4.320   1.141 -0.3940 -0.2452  0.3967
  548MOL0     C72233   7.822   4.399   1.191 -1.4145  0.6803  0.7572
  548MOL0     O72234   7.884   4.340   1.299 -0.8260 -0.7050  0.7251
  548MOL0     C72235   8.008   4.378   1.348 -0.1157  0.0386  0.5879
  548MOL0     C72236   8.093   4.472   1.292  0.3161  0.0832 -0.2783
  548MOL0     C72237   8.222   4.476   1.343  0.0531 -0.4840 -0.2190
  548MOL0     C72238   8.275   4.393   1.441  0.4906 -0.9877 -0.3697
  548MOL0     O72239   8.411   4.399   1.487  0.3312 -0.8096 -0.2460
  548MOL0     C72240   8.495   4.479   1.409 -0.0592 -0.5168  0.6570
  548MOL0     C72241   8.642   4.456   1.431 -0.3164 -0.3655  0.0911
  548MOL0     C72242   8.692   4.319   1.388  0.5840  0.1049 -0.1393
  548MOL0     C72243   8.836   4.288   1.416  0.3590  0.2909  0.2787
  548MOL0     C72244   8.884   4.164   1.347 -0.2887  1.0513  0.1367
  548MOL0     C72245   9.007   4.108   1.421  0.5048 -0.2593 -0.9167
  548MOL0     C72246   9.050   3.976   1.362  0.0975  0.0204 -0.9160
  548MOL0     C72247   9.079   3.976   1.211 -0.2972 -0.5924 -0.1463
  548MOL0    Cl72248   9.173   4.116   1.174 -0.4138  0.3155  0.5759
  548MOL0     C72249   8.180   4.310   1.501  0.2966  0.1965 -0.1129
  548MOL0     C72250   8.053   4.301   1.456 -0.5606 -0.5474 -0.3658
  548MOL0     O72251   7.844   4.518   1.154  0.2314  0.3623  0.6259
  548MOL0     C72252   7.663   4.206   1.206  0.5089 -0.5085 -0.2034
  548MOL0     C72253   7.568   4.124   1.157 -0.3965 -0.5948 -0.4365
  548MOL0     N72254   6.940   3.912   0.820 -0.6185  0.6183  0.0249
  548MOL0     N72255   6.863   3.997   0.773 -0.0300 -0.9597  0.1173
  548MOL0     C72256   5.975   4.819   0.308  0.6899  0.0563 -0.2092
  548MOL0     C72257   5.907   4.931   0.372 -0.4524  0.2366  0.0875
  548MOL0     C72258   5.550   5.097   0.639 -0.4224 -0.3500  0.4619
  548MOL0     C72259   5.409   5.098   0.648 -0.8130  0.4200 -0.2051
  548MOL0     C72260   5.339   5.211   0.699 -0.6989  0.2198  0.0096
  548MOL0     C72261   5.406   5.324   0.746  0.2496 -0.9268 -0.6078
  548MOL0     O72262   5.338   5.422   0.811  0.5891  0.0175  0.3840
  548MOL0     C72263   5.203   5.441   0.773  0.4683  0.1257  0.4671
  548MOL0     C72264   5.176   5.581   0.808  0.3411  0.6460 -0.1105
  548MOL0     C72265   5.036   5.612   0.816 -0.2045  0.4731 -0.6376
  548MOL0     C72266   5.016   5.754   0.868  1.7001 -1.1639 -0.0918
  548MOL0     C72267   4.866   5.782   0.885 -0.0448  0.3155 -0.1343
  548MOL0     C72268   4.750   5.796   0.898  0.5211  0.0383  0.5655
  548MOL0     C72269   5.546   5.318   0.737 -0.7295  0.2926 -0.0119
  548MOL0     C72270   5.624   5.209   0.678  0.9376 -0.1301  0.2270
  548MOL0     H72271   5.764   4.750   0.621 -1.7956  0.0255 -1.3274
  548MOL0     H72272   5.890   4.562   0.523  0.1399 -2.2427 -4.6194
  548MOL0     H72273   6.222   4.720   0.269 -3.0091 -0.9211 -1.3079
  548MOL0     H72274   6.254   4.556   0.252  0.3685  1.2333 -0.3557
  548MOL0     H72275   6.288   4.699   0.520  2.4967  1.7464 -1.4469
  548MOL0     H72276   6.412   4.647   0.420 -0.4338  1.8229  0.7417
  548MOL0     H72277   6.333   4.420   0.420 -0.1467 -0.0808  0.3065
  548MOL0     H72278   6.209   4.459   0.546  1.3529 -1.9494  1.3268
  548MOL0     H72279   6.515   4.491   0.556  0.0742 -0.2972 -0.2799
  548MOL0     H72280   6.407   4.530   0.694 -3.5446  1.5720 -1.4650
  548MOL0     H72281   6.418   4.255   0.544 -1.8057 -0.2584 -0.5439
  548MOL0     H72282   6.359   4.288   0.710 -0.7365  1.8318 -2.0142
  548MOL0     H72283   6.596   4.369   0.766  0.8446 -0.4531  0.2091
  548MOL0     H72284   6.637   4.296   0.611 -2.2960 -2.7647 -2.0890
  548MOL0     H72285   6.503   4.080   0.771  1.3422 -0.7603  1.2196
  548MOL0     H72286   6.631   4.083   0.667 -3.5060 -3.7957  0.5411
  548MOL0     H72287   6.607   4.128   0.970 -2.2422 -0.6294 -0.6272
  548MOL0     H72288   6.727   4.228   0.883 -1.2874  0.0947  0.9833
  548MOL0     H72289   6.764   3.948   1.084  4.4146 -1.9203  2.0359
  548MOL0     H72290   7.041   3.711   0.980  2.2264 -0.0479  0.9949
  548MOL0     H72291   6.927   3.761   1.112 -0.8401  0.9919  0.6556
  548MOL0     H72292   7.177   3.773   1.152  1.9654  0.5614 -1.7348
  548MOL0     H72293   7.071   3.908   1.194 -2.6823 -0.9717 -0.7593
  548MOL0     H72294   7.232   3.865   0.932  1.0130 -1.1616  1.8645
  548MOL0     H72295   7.153   4.024   0.995  1.4064  2.6606  2.6874
  548MOL0     H72296   7.386   3.905   1.127 -1.2778  0.4136  0.1202
  548MOL0     H72297   7.289   4.043   1.171 -0.2984  0.7231 -0.2361
  548MOL0     H72298   7.486   4.266   0.872  2.3149  1.1270 -1.2817
  548MOL0     H72299   7.667   4.442   0.971 -0.1207  0.2062  0.8163
  548MOL0     H72300   8.068   4.546   1.216  3.0045 -0.4020 -1.7545
  548MOL0     H72301   8.289   4.546   1.294 -1.5564  0.4559 -1.1301
  548MOL0     H72302   8.480   4.581   1.444  2.5575 -0.2534  1.2373
  548MOL0     H72303   8.478   4.453   1.304  0.4406 -4.3586  1.3727
  548MOL0     H72304   8.660   4.476   1.537  1.7057  0.4044 -0.3644
  548MOL0     H72305   8.694   4.534   1.376 -2.9383  2.9174  1.8801
  548MOL0     H72306   8.659   4.298   1.285  0.0005 -3.2646  0.5862
  548MOL0     H72307   8.641   4.237   1.440  2.9355 -1.1774  0.2891
  548MOL0     H72308   8.902   4.371   1.387  1.1262 -0.3235  0.2487
  548MOL0     H72309   8.849   4.278   1.524 -0.3542  1.9249  0.5534
  548MOL0     H72310   8.913   4.190   1.245 -0.2471  2.6825  0.5256
  548MOL0     H72311   8.809   4.085   1.352 -0.2229  1.0487  1.7024
  548MOL0     H72312   8.979   4.088   1.525  1.4057 -1.3036 -0.8518
  548MOL0     H72313   9.090   4.179   1.427  0.6292 -0.4570 -0.0931
  548MOL0     H72314   9.144   3.944   1.408 -0.1794  0.4257 -0.0354
  548MOL0     H72315   8.970   3.908   1.391 -1.7446  2.8692  1.2294
  548MOL0     H72316   8.979   3.977   1.167  0.3022  1.0884 -1.6028
  548MOL0     H72317   9.124   3.878   1.195  0.3503 -0.2058 -0.7417
  548MOL0     H72318   8.214   4.243   1.580 -0.4046  0.6466  0.5832
  548MOL0     H72319   7.987   4.221   1.489 -1.3378 -0.6515 -2.0744
  548MOL0     H72320   7.705   4.179   1.302  3.1967  1.1715 -0.7807
  548MOL0     H72321   7.541   4.037   1.216  3.4375 -0.7918  1.3294
  548MOL0     H72322   6.036   4.839   0.220 -0.3503  2.7925 -0.4126
  548MOL0     H72323   5.904   5.032   0.331  2.0536  0.2672 -0.1659
  548MOL0     H72324   5.358   5.007   0.616  1.1850 -1.6396  2.0027
  548MOL0     H72325   5.235   5.185   0.716  0.2571 -3.2482  1.3966
  548MOL0     H72326   5.136   5.366   0.816 -0.5632  1.6681  1.6714
  548MOL0     H72327   5.189   5.436   0.665  0.6186 -1.6994  0.5030
  548MOL0     H72328   5.216   5.593   0.909 -1.7540  0.4374  0.7797
  548MOL0     H72329   5.229   5.649   0.740  2.2706  2.6631  3.1202
  548MOL0     H72330   4.975   5.550   0.883  0.0320  2.1406  1.2318
  548MOL0     H72331   4.982   5.604   0.721  0.0751 -0.4497 -0.7241
  548MOL0     H72332   5.068   5.762   0.964  2.2819 -2.6880 -0.2602
  548MOL0     H72333   5.078   5.811   0.799  0.3804 -1.0203 -1.1868
  548MOL0     H72334   4.644   5.802   0.906  0.4580  2.6918 -0.9522
  548MOL0     H72335   5.591   5.406   0.782 -2.4956  0.2646  1.9921
  548MOL0     H72336   5.732   5.207   0.681  0.9437  0.7454  0.9261
  549MOL0     O72337   3.756   4.613   3.218 -0.7013  0.1263  0.5323
  549MOL0     C72338   3.750   4.601   3.338  0.8351  0.4729 -0.3818
  549MOL0     O72339   3.826   4.659   3.431  0.4752 -0.2828 -0.5012
  549MOL0     C72340   3.927   4.740   3.384 -0.1257  0.3068 -0.7940
  549MOL0     C72341   4.053   4.680   3.340  0.8913  0.0425 -0.1347
  549MOL0     C72342   4.151   4.766   3.289 -0.1785 -0.4289  0.5009
  549MOL0     C72343   4.128   4.904   3.268 -1.0205 -0.6827 -0.2672
  549MOL0     O72344   4.219   4.988   3.209 -0.7221  0.3197  0.2554
  549MOL0     C72345   4.239   5.120   3.265 -0.7420 -0.0098 -0.1270
  549MOL0     C72346   4.254   5.212   3.141 -0.1560  0.0036  0.3932
  549MOL0     C72347   4.335   5.142   3.031 -0.1204  0.6050  1.3886
  549MOL0     C72348   4.357   5.233   2.908  0.0944  0.4294  0.0551
  549MOL0     C72349   4.401   5.148   2.782  0.0812  0.2415 -0.5799
  549MOL0     C72350   4.537   5.084   2.793  0.7421 -0.5134  0.3802
  549MOL0     C72351   4.589   5.039   2.653 -0.7225 -0.4915 -0.0547
  549MOL0     C72352   4.628   5.146   2.554  0.8454 -1.0505  0.4994
  549MOL0     N72353   4.684   5.099   2.423  0.2456  0.5468 -0.7537
  549MOL0     C72354   4.758   5.169   2.343  0.2431 -0.4259  0.8919
  549MOL0     C72355   4.791   5.083   2.245  0.3816  0.0704  0.3055
  549MOL0     C72356   4.862   5.121   2.108  0.1140  0.2531  0.9378
  549MOL0     C72357   4.995   5.057   2.096  0.4997 -0.3014  0.4091
  549MOL0     C72358   4.987   4.909   2.117 -0.7643 -0.4321  0.2909
  549MOL0     C72359   5.121   4.843   2.065 -0.1311 -1.1893 -0.1980
  549MOL0     O72360   5.103   4.703   2.052  0.0123 -0.5580 -0.5689
  549MOL0     C72361   5.209   4.641   2.004 -0.8946  0.0382 -0.3588
  549MOL0     C72362   5.190   4.556   1.900 -0.2166  1.0041  0.1161
  549MOL0     C72363   5.300   4.490   1.838 -0.3655  0.1984  0.3096
  549MOL0     C72364   5.431   4.500   1.889 -0.4089 -0.7473 -0.1665
  549MOL0     C72365   5.550   4.452   1.813  0.7797 -0.4241 -0.1371
  549MOL0     O72366   5.667   4.507   1.859  1.0668 -0.4111 -0.9087
  549MOL0     C72367   5.786   4.454   1.822 -1.2637 -0.2829  0.1670
  549MOL0     C72368   5.847   4.489   1.701 -0.3024  0.6223 -0.4485
  549MOL0     C72369   5.983   4.460   1.669 -0.9380  0.0185 -0.7373
  549MOL0     C72370   6.067   4.405   1.769 -0.8559 -0.1594 -0.7581
  549MOL0     O72371   6.202   4.389   1.747 -0.5260  0.0277 -0.5587
  549MOL0     C72372   6.254   4.268   1.782  0.2343 -0.2770 -0.1263
  549MOL0     C72373   6.325   4.210   1.669  0.4255 -0.2146  0.4482
  549MOL0     C72374   6.445   4.279   1.617 -0.6883 -0.7880  0.6277
  549MOL0     C72375   6.552   4.306   1.720  0.3045 -0.2506  0.5734
  549MOL0     C72376   6.668   4.353   1.651 -0.1816 -0.0985 -0.3967
  549MOL0     C72377   6.775   4.367   1.765  0.0317  0.0878 -0.0583
  549MOL0     C72378   6.911   4.412   1.711  0.1975  0.3050 -0.4127
  549MOL0     C72379   6.929   4.561   1.732  0.3209  0.6940 -0.6480
  549MOL0    Cl72380   7.063   4.626   1.625 -0.0912 -0.7112 -0.0813
  549MOL0     C72381   6.006   4.364   1.887 -0.5222 -0.2031  0.2230
  549MOL0     C72382   5.876   4.396   1.917  0.8242  0.0023  0.6248
  549MOL0     O72383   5.535   4.391   1.705 -0.7286  0.0657 -0.0316
  549MOL0     C72384   5.441   4.581   2.006 -0.3530 -0.1545  0.9892
  549MOL0     C72385   5.334   4.647   2.063  0.6658  0.3189  0.5854
  549MOL0     N72386   4.727   4.958   2.276 -0.4325 -0.2620  0.6858
  549MOL0     N72387   4.662   4.968   2.386  0.6677  0.1658 -0.6824
  549MOL0     C72388   4.001   4.950   3.298  1.0927  0.8020  0.5435
  549MOL0     C72389   3.903   4.871   3.365 -0.5216  0.2695 -0.5142
  549MOL0     C72390   3.638   4.515   3.389  0.4984  0.0397  1.1311
  549MOL0     C72391   3.532   4.484   3.286 -0.1761 -1.5271 -0.7706
  549MOL0     C72392   3.423   4.397   3.327  0.0312  0.0231 -0.4889
  549MOL0     C72393   3.412   4.354   3.461 -0.4498  0.1925 -0.6299
  549MOL0     O72394   3.310   4.282   3.506 -0.3148  0.1834 -0.4360
  549MOL0     C72395   3.180   4.331   3.492  0.7749 -0.7603  0.0878
  549MOL0     C72396   3.076   4.217   3.502  0.3781  0.9621 -0.4072
  549MOL0     C72397   2.942   4.282   3.511  0.1904 -0.2885  0.6036
  549MOL0     C72398   2.830   4.173   3.526  0.3103 -0.4003  0.1026
  549MOL0     C72399   2.702   4.200   3.457 -0.4813 -0.1734 -0.0465
  549MOL0     C72400   2.608   4.227   3.388  0.6501  0.4529 -0.0004
  549MOL0     C72401   3.519   4.396   3.556  0.2772 -0.0951  0.2564
  549MOL0     C72402   3.633   4.460   3.522  0.5355 -0.5596 -0.9145
  549MOL0     H72403   4.064   4.573   3.326  0.4180 -0.0272  0.0348
  549MOL0     H72404   4.251   4.732   3.264 -0.5448 -1.1743  0.0294
  549MOL0     H72405   4.326   5.132   3.329  0.0174  0.4547 -1.2094
  549MOL0     H72406   4.148   5.146   3.320 -0.9126 -1.2898  0.2303
  549MOL0     H72407   4.307   5.306   3.161  1.2969 -0.9242  1.0617
  549MOL0     H72408   4.156   5.234   3.096  0.2246 -1.5474 -1.3140
  549MOL0     H72409   4.267   5.065   2.992 -1.0719  2.5379 -1.0823
  549MOL0     H72410   4.428   5.093   3.058  0.6988  0.5164 -1.2959
  549MOL0     H72411   4.261   5.280   2.887 -0.6441 -1.8837 -2.2727
  549MOL0     H72412   4.428   5.312   2.937  0.6624 -0.2408  0.5456
  549MOL0     H72413   4.387   5.217   2.697 -1.3720  2.1018  1.0614
  549MOL0     H72414   4.325   5.071   2.772 -0.2386  0.3462  0.8385
  549MOL0     H72415   4.531   4.999   2.861  2.2624 -1.3542 -0.4816
  549MOL0     H72416   4.609   5.156   2.832  1.2041  0.8829 -2.7213
  549MOL0     H72417   4.675   4.979   2.684  0.0714 -1.8926 -4.3774
  549MOL0     H72418   4.515   4.975   2.604 -4.0291 -0.0199  3.7868
  549MOL0     H72419   4.676   5.231   2.604 -3.1616  1.4388  0.6139
  549MOL0     H72420   4.529   5.188   2.532 -0.8235 -4.6713  0.3172
  549MOL0     H72421   4.783   5.274   2.347 -1.9359  0.1103  2.5895
  549MOL0     H72422   4.865   5.230   2.096 -1.4374  0.2031 -0.1790
  549MOL0     H72423   4.793   5.092   2.029  0.3066  2.2629 -0.0146
  549MOL0     H72424   5.060   5.104   2.170 -1.8888  2.1245  1.1406
  549MOL0     H72425   5.019   5.089   1.994  0.2754  2.4842  1.1604
  549MOL0     H72426   4.970   4.883   2.222  3.7790  1.2270  1.6914
  549MOL0     H72427   4.909   4.860   2.059 -2.6103  0.5831  1.7786
  549MOL0     H72428   5.208   4.878   2.122 -0.4887  2.5173 -1.6096
  549MOL0     H72429   5.142   4.885   1.967 -0.9670  0.2821  0.2151
  549MOL0     H72430   5.092   4.546   1.855  0.1726 -0.4380 -0.4735
  549MOL0     H72431   5.293   4.440   1.742  1.3249  2.9993 -1.3937
  549MOL0     H72432   5.797   4.546   1.623 -2.2406  0.3370  0.5157
  549MOL0     H72433   6.029   4.515   1.588  0.5035  2.5118  1.5765
  549MOL0     H72434   6.178   4.192   1.800 -2.0110  1.6382 -1.0891
  549MOL0     H72435   6.320   4.290   1.867  0.3059  2.8121 -0.8554
  549MOL0     H72436   6.254   4.217   1.587 -1.5037 -0.5313  2.0194
  549MOL0     H72437   6.340   4.104   1.691 -2.8753 -0.4373  2.1441
  549MOL0     H72438   6.412   4.364   1.557 -0.6480 -0.3053  1.2763
  549MOL0     H72439   6.500   4.211   1.551  1.9464  0.0372  1.8346
  549MOL0     H72440   6.516   4.368   1.802 -5.1767 -0.4500 -1.2415
  549MOL0     H72441   6.580   4.204   1.749  0.6636 -1.6059 -3.8171
  549MOL0     H72442   6.648   4.447   1.599 -0.8513 -0.4490 -0.7901
  549MOL0     H72443   6.694   4.281   1.573 -3.4989 -1.1819 -0.6587
  549MOL0     H72444   6.802   4.270   1.808 -0.8820 -0.0601  0.2168
  549MOL0     H72445   6.732   4.428   1.845  0.4171 -3.9465  3.6150
  549MOL0     H72446   6.992   4.348   1.747 -1.1946 -2.0895 -1.3653
  549MOL0     H72447   6.916   4.406   1.601  3.0486  3.2174 -0.6049
  549MOL0     H72448   6.964   4.572   1.835 -2.7117 -0.9599  0.7121
  549MOL0     H72449   6.844   4.621   1.701  1.1757  0.5831 -3.5179
  549MOL0     H72450   6.064   4.314   1.963 -0.4038  1.1954  1.0859
  549MOL0     H72451   5.833   4.357   2.009  2.5832 -5.0690 -0.4006
  549MOL0     H72452   5.538   4.590   2.053  0.7900  0.7084 -1.3548
  549MOL0     H72453   5.351   4.708   2.152  0.0719  1.3516  0.0205
  549MOL0     H72454   3.965   5.050   3.281 -2.3814 -0.2426  1.0470
  549MOL0     H72455   3.807   4.898   3.406  0.8005  0.4566  2.7551
  549MOL0     H72456   3.512   4.518   3.185 -1.0499  0.2303 -0.0368
  549MOL0     H72457   3.341   4.372   3.261  2.5588 -3.0216 -2.7366
  549MOL0     H72458   3.171   4.375   3.393  0.7049  0.7810  0.7615
  549MOL0     H72459   3.161   4.408   3.567 -0.6663  0.7306 -1.7432
  549MOL0     H72460   3.092   4.153   3.415 -0.0678  0.5794 -0.2203
  549MOL0     H72461   3.086   4.149   3.588 -1.9088  1.0631  0.0045
  549MOL0     H72462   2.921   4.344   3.424  1.3669  1.5329  1.5640
  549MOL0     H72463   2.936   4.350   3.597  0.6678  0.6945 -0.1263
  549MOL0     H72464   2.869   4.082   3.479  0.7972  0.9861 -2.3403
  549MOL0     H72465   2.811   4.155   3.632 -1.2191 -1.5439 -0.3353
  549MOL0     H72466   2.528   4.264   3.327  0.4421  0.9790  0.5808
  549MOL0     H72467   3.501   4.372   3.660 -1.4669  1.0980  0.2761
  549MOL0     H72468   3.707   4.480   3.599  2.0071  0.6248 -2.5438
  550MOL0     O72469   8.136   1.518   0.179  0.5798 -0.1447  0.0185
  550MOL0     C72470   8.161   1.620   0.233 -0.3209 -0.1670 -0.1189
  550MOL0     O72471   8.219   1.636   0.356 -0.2233 -0.2472  0.3230
  550MOL0     C72472   8.288   1.534   0.409  0.2140 -0.4719 -0.4247
  550MOL0     C72473   8.248   1.399   0.406 -0.1001 -1.1830  0.4779
  550MOL0     C72474   8.322   1.308   0.478  0.6217 -0.2193 -0.2665
  550MOL0     C72475   8.440   1.338   0.547  0.3303  0.2070 -0.1681
  550MOL0     O72476   8.512   1.230   0.594  0.1458 -0.3111 -0.5657
  550MOL0     C72477   8.570   1.251   0.724 -0.1959  0.5876  0.6380
  550MOL0     C72478   8.661   1.142   0.769  0.7104 -0.4019 -0.1757
  550MOL0     C72479   8.765   1.110   0.664  0.6756  0.3302 -0.1792
  550MOL0     C72480   8.853   1.237   0.629  0.7909 -0.2803  0.1774
  550MOL0     C72481   8.985   1.203   0.558  0.0508 -0.2665  0.1065
  550MOL0     C72482   9.036   1.326   0.472  0.3729  0.4485 -0.1510
  550MOL0     C72483   9.120   1.429   0.552  0.4626  0.2554 -0.6057
  550MOL0     C72484   9.168   1.548   0.465  0.3733  0.3904 -0.1070
  550MOL0     N72485   9.282   1.517   0.375  0.6828 -0.0701 -0.1021
  550MOL0     C72486   9.267   1.491   0.240  0.7271  0.3460 -1.0264
  550MOL0     C72487   9.391   1.484   0.193  0.2388  0.1117  0.6869
  550MOL0     C72488   9.418   1.477   0.042  0.5904 -1.1626  1.2926
  550MOL0     C72489   9.570   1.486   0.001 -0.5700  0.5916 -0.5702
  550MOL0     C72490   9.621   1.612  -0.070  1.5787  0.2415 -0.4854
  550MOL0     C72491   9.746   1.577  -0.149 -0.1696 -0.4157 -0.0250
  550MOL0     O72492   9.848   1.531  -0.053 -0.2262  0.6826  0.1024
  550MOL0     C72493   9.987   1.528  -0.084  0.1621 -0.8011  1.0741
  550MOL0     C72494  10.040   1.534  -0.217  0.8345  0.2039  0.7909
  550MOL0     C72495  10.179   1.536  -0.241  0.2786  1.3812 -0.3879
  550MOL0     C72496  10.264   1.511  -0.131 -0.0332  0.5795  0.8566
  550MOL0     C72497  10.416   1.502  -0.163 -1.1247 -0.6500 -0.3632
  550MOL0     O72498  10.457   1.503  -0.290 -0.3715 -0.0007  0.3200
  550MOL0     C72499  10.588   1.463  -0.320  1.0414  0.2230  0.5314
  550MOL0     C72500  10.641   1.511  -0.444  0.0220 -0.3281 -0.4018
  550MOL0     C72501  10.769   1.473  -0.482  0.8419 -0.1444 -0.3066
  550MOL0     C72502  10.834   1.378  -0.405 -0.6403  0.1922  0.1068
  550MOL0     O72503  10.955   1.327  -0.436 -0.0013  0.6373 -0.2246
  550MOL0     C72504  11.020   1.365  -0.554  0.5888 -0.8757 -0.0829
  550MOL0     C72505  11.135   1.267  -0.568  0.6552  0.5285  0.1502
  550MOL0     C72506  11.209   1.273  -0.702 -0.2314  0.0176 -0.4824
  550MOL0     C72507  11.195   1.403  -0.776  0.1826 -0.3591  0.9735
  550MOL0     C72508  11.289   1.519  -0.733 -0.2753  0.3948  0.0573
  550MOL0     C72509  11.438   1.477  -0.762 -1.1609 -0.1353 -0.2962
  550MOL0     C72510  11.534   1.544  -0.660  0.1759  0.2767  0.7322
  550MOL0     C72511  11.687   1.529  -0.691  0.6873  0.0767  0.6861
  550MOL0    Cl72512  11.743   1.344  -0.680 -0.1260 -0.3857 -0.1675
  550MOL0     C72513  10.779   1.316  -0.290 -0.0362 -0.7860  0.9663
  550MOL0     C72514  10.659   1.365  -0.249  0.2756 -0.9764  0.6910
  550MOL0     O72515  10.490   1.507  -0.062 -0.4331 -0.6273 -0.1050
  550MOL0     C72516  10.211   1.512  -0.000 -0.3862 -0.0607 -0.0440
  550MOL0     C72517  10.075   1.524   0.020 -0.0303 -1.4564  0.3268
  550MOL0     N72518   9.479   1.500   0.302  0.3416  0.3086 -0.2812
  550MOL0     N72519   9.413   1.517   0.409 -0.8501  0.2989  1.5210
  550MOL0     C72520   8.484   1.468   0.547 -0.0616  0.9638 -0.5742
  550MOL0     C72521   8.402   1.565   0.488  0.1195 -0.5095  0.2975
  550MOL0     C72522   8.109   1.745   0.185 -0.2929 -0.6034 -0.2182
  550MOL0     C72523   7.993   1.738   0.110  1.0298  0.1630 -0.2681
  550MOL0     C72524   7.938   1.861   0.051 -0.6580  0.5386  0.7752
  550MOL0     C72525   7.999   1.983   0.062 -0.3765 -0.4451 -0.9060
  550MOL0     O72526   7.945   2.094  -0.005  0.1807 -0.0840  0.0565
  550MOL0     C72527   8.006   2.227   0.007 -1.1074  0.1901 -0.1179
  550MOL0     C72528   7.951   2.311  -0.104 -0.5501 -0.9684  0.8133
  550MOL0     C72529   7.796   2.324  -0.121 -0.1038  0.1948  0.9618
  550MOL0     C72530   7.725   2.415  -0.018  0.0985  0.1209 -0.3608
  550MOL0     C72531   7.739   2.558  -0.037 -0.8288  0.0578 -0.3583
  550MOL0     C72532   7.765   2.670  -0.058 -0.2713  0.4011 -0.4532
  550MOL0     C72533   8.114   1.992   0.137 -0.4354 -0.0993  0.6670
  550MOL0     C72534   8.167   1.873   0.199  0.0272 -0.1076 -0.0930
  550MOL0     H72535   8.160   1.364   0.354  0.7448 -0.4730 -1.5265
  550MOL0     H72536   8.289   1.204   0.478 -1.5119  0.4159  0.3247
  550MOL0     H72537   8.498   1.271   0.804 -1.5427 -1.3131 -0.0238
  550MOL0     H72538   8.641   1.333   0.715  2.1159 -1.3676  0.1431
  550MOL0     H72539   8.595   1.060   0.801  1.6294 -0.8248  0.7229
  550MOL0     H72540   8.722   1.177   0.853  1.4068  1.1995 -1.3104
  550MOL0     H72541   8.725   1.068   0.571  0.4980 -1.0984  0.5122
  550MOL0     H72542   8.829   1.031   0.705  0.0027 -0.0664  0.1249
  550MOL0     H72543   8.789   1.306   0.572  0.4068 -2.8365 -2.7733
  550MOL0     H72544   8.875   1.285   0.725 -0.2561 -3.9671  2.5004
  550MOL0     H72545   8.978   1.114   0.496 -0.9324 -1.0063  1.2243
  550MOL0     H72546   9.061   1.197   0.636  2.4387 -1.6011 -2.1748
  550MOL0     H72547   8.951   1.381   0.431 -0.1993  1.9918  2.8600
  550MOL0     H72548   9.104   1.269   0.408  0.7304 -0.2777  0.8426
  550MOL0     H72549   9.047   1.474   0.621 -1.3740 -4.2987  0.8883
  550MOL0     H72550   9.201   1.379   0.606  0.3895 -0.0692 -0.7922
  550MOL0     H72551   9.188   1.626   0.540 -2.8312  0.3225  0.9985
  550MOL0     H72552   9.084   1.581   0.404 -0.3300 -1.4136 -0.1528
  550MOL0     H72553   9.168   1.494   0.194  1.0815  3.7932 -1.8973
  550MOL0     H72554   9.364   1.559  -0.005  1.2159 -1.3612  0.1834
  550MOL0     H72555   9.379   1.376   0.022  2.3546 -1.9736  1.7445
  550MOL0     H72556   9.583   1.408  -0.075 -2.4809  2.1091 -2.5750
  550MOL0     H72557   9.638   1.464   0.084 -2.3034 -0.1754  0.7092
  550MOL0     H72558   9.543   1.645  -0.138  0.6026 -1.3871 -0.2032
  550MOL0     H72559   9.640   1.689   0.006 -0.3617  1.1483 -0.8800
  550MOL0     H72560   9.786   1.671  -0.189  1.1801 -0.9424  0.0417
  550MOL0     H72561   9.730   1.505  -0.229  0.3188 -2.1079  1.3352
  550MOL0     H72562   9.967   1.553  -0.296 -0.2297  1.3890  2.0062
  550MOL0     H72563  10.211   1.550  -0.344 -4.7048  0.1924 -2.3908
  550MOL0     H72564  10.590   1.587  -0.502  0.5389  0.7477  0.5054
  550MOL0     H72565  10.802   1.505  -0.580  2.8703  2.7414  1.1394
  550MOL0     H72566  11.060   1.466  -0.560  1.0524 -1.0561 -0.0727
  550MOL0     H72567  10.955   1.361  -0.642  1.0276  2.2538 -0.6667
  550MOL0     H72568  11.094   1.166  -0.568  2.1921 -0.1284  0.6604
  550MOL0     H72569  11.206   1.288  -0.488  2.7478  1.3793 -1.8276
  550MOL0     H72570  11.151   1.203  -0.762  0.8021 -1.4982  0.2218
  550MOL0     H72571  11.313   1.240  -0.696 -0.3444 -0.0846  1.6933
  550MOL0     H72572  11.206   1.382  -0.882  0.9934 -4.7820  1.7524
  550MOL0     H72573  11.094   1.445  -0.778 -0.5207 -2.0051  0.3161
  550MOL0     H72574  11.276   1.527  -0.624  2.1064 -1.0958  0.5042
  550MOL0     H72575  11.262   1.609  -0.789  1.0108 -0.6282 -2.2972
  550MOL0     H72576  11.461   1.512  -0.864  0.4699  0.5285  0.2526
  550MOL0     H72577  11.451   1.369  -0.762  1.0966  0.0894 -0.3441
  550MOL0     H72578  11.510   1.651  -0.654  0.6261  0.3289  2.0850
  550MOL0     H72579  11.513   1.512  -0.557 -1.7985 -2.5389 -0.4234
  550MOL0     H72580  11.746   1.607  -0.641 -2.5786  1.9401  1.9317
  550MOL0     H72581  11.702   1.574  -0.790  0.9933  2.0564  1.5797
  550MOL0     H72582  10.843   1.249  -0.235  0.8217 -0.8803 -0.1076
  550MOL0     H72583  10.619   1.329  -0.155  0.2093  2.5150  2.1186
  550MOL0     H72584  10.273   1.500   0.088  0.3264  2.2545 -0.1753
  550MOL0     H72585  10.040   1.529   0.123 -0.1880 -3.1697  0.3810
  550MOL0     H72586   8.581   1.493   0.591  0.1200  1.3834 -1.2122
  550MOL0     H72587   8.436   1.668   0.492 -2.0832  0.2769  0.3508
  550MOL0     H72588   7.941   1.646   0.088 -0.8319  0.8848  0.8289
  550MOL0     H72589   7.849   1.856  -0.010 -1.1815 -0.8032  1.6104
  550MOL0     H72590   8.114   2.215  -0.009 -1.0373 -2.8730  1.7616
  550MOL0     H72591   7.993   2.270   0.107 -1.7874 -0.1879 -0.0343
  550MOL0     H72592   8.002   2.407  -0.098  0.7717 -1.5374 -0.5712
  550MOL0     H72593   7.971   2.259  -0.199 -1.0624  3.6227 -2.1308
  550MOL0     H72594   7.756   2.223  -0.110  1.0810 -0.4024 -0.0236
  550MOL0     H72595   7.776   2.362  -0.222  4.5896  1.9449  0.4400
  550MOL0     H72596   7.619   2.394   0.001  0.4694  0.8472  3.1100
  550MOL0     H72597   7.761   2.391   0.082  1.1754 -1.4910 -1.0942
  550MOL0     H72598   7.792   2.773  -0.070 -0.1656  0.4405  0.0931
  550MOL0     H72599   8.184   2.074   0.148  2.6732 -2.3295 -0.7845
  550MOL0     H72600   8.261   1.877   0.254  0.7021 -1.0816 -1.1279
  551MOL0     O72601   7.780   3.856   0.854  0.7548  0.6982  1.1113
  551MOL0     C72602   7.724   3.938   0.778 -0.9596 -0.0354 -0.5731
  551MOL0     O72603   7.624   3.910   0.696 -0.3010  0.8112 -1.2135
  551MOL0     C72604   7.571   3.782   0.703 -0.7839  0.3391 -0.5628
  551MOL0     C72605   7.549   3.709   0.579  0.3672  0.4077  0.0121
  551MOL0     C72606   7.461   3.598   0.583  0.3231  0.5539 -0.6738
  551MOL0     C72607   7.430   3.537   0.711  0.0907 -0.0500  0.4960
  551MOL0     O72608   7.342   3.428   0.726  0.2233  0.4174  0.0421
  551MOL0     C72609   7.286   3.388   0.595  0.0860  0.4752 -0.7219
  551MOL0     C72610   7.226   3.251   0.647 -0.2451  0.3165 -0.2650
  551MOL0     C72611   7.127   3.202   0.551 -0.1494  0.9145  0.3158
  551MOL0     C72612   7.188   3.148   0.419  0.0206  0.8736 -0.0395
  551MOL0     C72613   7.123   3.021   0.368  0.9584  0.0283 -0.4475
  551MOL0     C72614   7.191   2.943   0.253 -0.6410 -0.1766  0.4429
  551MOL0     C72615   7.316   2.871   0.310  0.6357 -0.3586 -0.0990
  551MOL0     C72616   7.405   2.815   0.201 -0.6402  0.6820 -0.3843
  551MOL0     N72617   7.517   2.746   0.271 -0.4627 -0.0002 -0.0593
  551MOL0     C72618   7.525   2.616   0.321  0.4919 -0.0619  0.0025
  551MOL0     C72619   7.652   2.614   0.382  0.6654 -0.1292  0.6139
  551MOL0     C72620   7.726   2.501   0.440  0.6262  0.8972  0.6422
  551MOL0     C72621   7.719   2.469   0.593 -0.2225  1.5413  0.7699
  551MOL0     C72622   7.712   2.582   0.693 -1.3465 -1.1550 -0.0139
  551MOL0     C72623   7.839   2.665   0.710  0.4911 -0.1563 -0.6633
  551MOL0     O72624   7.954   2.567   0.722 -0.4928 -0.0893 -0.2548
  551MOL0     C72625   8.067   2.579   0.654 -0.1524 -0.4878 -0.1799
  551MOL0     C72626   8.101   2.688   0.567 -0.4808 -0.5055 -0.7524
  551MOL0     C72627   8.228   2.689   0.515  1.0011  0.3961  0.2775
  551MOL0     C72628   8.315   2.578   0.537 -0.8605 -0.7695 -0.2798
  551MOL0     C72629   8.449   2.594   0.490 -0.6907  0.4548  0.5571
  551MOL0     O72630   8.517   2.475   0.479  0.4444  0.0084 -0.6505
  551MOL0     C72631   8.652   2.494   0.457  0.5196  0.5979 -0.3362
  551MOL0     C72632   8.744   2.465   0.559 -0.0608 -0.2913 -0.1067
  551MOL0     C72633   8.886   2.485   0.543  0.6636 -0.2551  0.3301
  551MOL0     C72634   8.936   2.509   0.413  0.2414 -0.5590  0.1921
  551MOL0     O72635   9.075   2.524   0.410  0.1945 -1.0038 -0.6022
  551MOL0     C72636   9.129   2.590   0.296  0.6546  0.2301 -0.3369
  551MOL0     C72637   9.270   2.641   0.348 -0.9258  0.2226 -0.2581
  551MOL0     C72638   9.326   2.756   0.261 -0.2007  0.2176 -0.1260
  551MOL0     C72639   9.474   2.786   0.318  1.3353  0.6167 -0.3777
  551MOL0     C72640   9.572   2.731   0.212 -0.3328  0.3439  0.7979
  551MOL0     C72641   9.580   2.580   0.219 -0.7130 -0.7184 -0.1417
  551MOL0     C72642   9.698   2.533   0.138  0.5507  0.0024  0.2656
  551MOL0     C72643   9.721   2.381   0.141 -0.3091 -0.1978  0.3428
  551MOL0    Cl72644   9.590   2.312   0.045  0.3210 -0.2458 -0.3432
  551MOL0     C72645   8.844   2.528   0.310 -0.4880 -0.4613 -0.2429
  551MOL0     C72646   8.707   2.519   0.329  0.0602 -1.0041  0.1043
  551MOL0     O72647   8.504   2.700   0.464  0.5058  0.8856 -0.4798
  551MOL0     C72648   8.277   2.470   0.611 -0.1488 -1.0928 -0.4161
  551MOL0     C72649   8.149   2.470   0.670  0.2786  0.9683  0.1556
  551MOL0     N72650   7.716   2.736   0.367  0.1341 -0.1880 -0.1681
  551MOL0     N72651   7.627   2.821   0.314 -0.2122  0.1907  0.3856
  551MOL0     C72652   7.453   3.607   0.832 -1.0532 -0.6774 -0.1497
  551MOL0     C72653   7.528   3.729   0.824  0.2300  0.1652 -0.4408
  551MOL0     C72654   7.773   4.072   0.779 -0.9566  0.1769  0.3158
  551MOL0     C72655   7.728   4.175   0.703 -0.0641 -0.0374  0.6592
  551MOL0     C72656   7.782   4.305   0.709 -0.7280  0.4288  1.3357
  551MOL0     C72657   7.882   4.329   0.798  0.4929  0.0879 -0.6495
  551MOL0     O72658   7.921   4.461   0.806  0.3575 -0.4186  0.7584
  551MOL0     C72659   8.058   4.495   0.831  0.6463  0.8380 -0.1165
  551MOL0     C72660   8.073   4.646   0.803 -0.3631 -1.1915 -1.1789
  551MOL0     C72661   8.004   4.726   0.915 -0.2640  0.1987 -0.0826
  551MOL0     C72662   8.006   4.872   0.880 -0.4058 -0.8115  0.4644
  551MOL0     C72663   8.142   4.929   0.890 -0.4104  0.5456 -0.5610
  551MOL0     C72664   8.255   4.966   0.891  0.0167  0.0608  0.2972
  551MOL0     C72665   7.947   4.227   0.867 -0.3546  0.1555 -0.9551
  551MOL0     C72666   7.886   4.098   0.863  0.9679 -0.0812 -0.5462
  551MOL0     H72667   7.572   3.740   0.478 -0.5729  1.0476 -0.0208
  551MOL0     H72668   7.429   3.551   0.491  1.5367 -0.6014 -0.5460
  551MOL0     H72669   7.362   3.367   0.519  1.6086  0.0381  0.8491
  551MOL0     H72670   7.208   3.459   0.567  0.3665  1.8364  1.7063
  551MOL0     H72671   7.166   3.253   0.738 -1.4919 -0.2390 -1.0475
  551MOL0     H72672   7.298   3.171   0.666 -4.0965 -2.6294  4.3035
  551MOL0     H72673   7.049   3.277   0.537 -1.1449 -0.1711 -0.0926
  551MOL0     H72674   7.077   3.122   0.606 -0.0239  2.0270  2.1018
  551MOL0     H72675   7.179   3.222   0.338 -0.0778  0.3810 -0.4820
  551MOL0     H72676   7.290   3.136   0.455 -0.8676 -1.4994  1.9110
  551MOL0     H72677   7.021   3.043   0.335  0.8371 -2.0580 -1.6211
  551MOL0     H72678   7.107   2.955   0.454  0.4498  1.8466  0.9258
  551MOL0     H72679   7.209   3.012   0.171 -0.3875  0.4916  1.0476
  551MOL0     H72680   7.117   2.872   0.215 -0.4382 -1.0362  1.5993
  551MOL0     H72681   7.380   2.937   0.369  1.9617 -1.3606 -0.3675
  551MOL0     H72682   7.272   2.799   0.380  1.0677 -1.7432 -1.1961
  551MOL0     H72683   7.436   2.893   0.131  1.6932  0.2113  0.0370
  551MOL0     H72684   7.339   2.740   0.157 -1.1363  1.4215 -0.9241
  551MOL0     H72685   7.455   2.533   0.311  0.1852 -0.3639  3.3323
  551MOL0     H72686   7.833   2.512   0.420  1.3679 -0.9397  3.0711
  551MOL0     H72687   7.692   2.408   0.394 -1.5292  2.0229 -0.1851
  551MOL0     H72688   7.794   2.395   0.622 -0.8050  0.1574 -1.0670
  551MOL0     H72689   7.621   2.421   0.599  0.0582  0.5843 -1.3494
  551MOL0     H72690   7.624   2.645   0.676  0.6172  1.7404 -0.1954
  551MOL0     H72691   7.716   2.541   0.794  2.1837 -0.6421  0.1562
  551MOL0     H72692   7.844   2.725   0.802  0.9171 -1.1631 -0.0184
  551MOL0     H72693   7.837   2.736   0.626 -0.6010  3.4924  2.1823
  551MOL0     H72694   8.048   2.777   0.534  0.6141 -0.1002 -1.4772
  551MOL0     H72695   8.280   2.767   0.460  4.0185 -2.0440 -0.6363
  551MOL0     H72696   8.702   2.443   0.657 -0.7693  1.4098  0.0141
  551MOL0     H72697   8.957   2.481   0.625  1.2036  1.1604 -0.0482
  551MOL0     H72698   9.060   2.671   0.270 -1.8669 -0.3047  3.7510
  551MOL0     H72699   9.132   2.515   0.217  2.3494 -1.9282  1.6395
  551MOL0     H72700   9.350   2.567   0.338  1.2210  2.4990 -1.0000
  551MOL0     H72701   9.252   2.666   0.453 -0.0588 -0.0954 -0.0289
  551MOL0     H72702   9.251   2.835   0.266  0.3070  0.6434  1.7399
  551MOL0     H72703   9.335   2.729   0.156  2.7739 -1.3535  0.4316
  551MOL0     H72704   9.483   2.895   0.320 -0.4523  0.8500 -2.0204
  551MOL0     H72705   9.494   2.778   0.426 -0.1975  2.6354  0.1281
  551MOL0     H72706   9.665   2.786   0.228 -0.0605  0.4304 -0.9510
  551MOL0     H72707   9.537   2.756   0.112  3.1825  1.2694 -0.3283
  551MOL0     H72708   9.485   2.543   0.179 -1.4678  0.4457  0.5187
  551MOL0     H72709   9.587   2.542   0.321  1.7317 -3.1726 -1.0930
  551MOL0     H72710   9.673   2.553   0.033 -1.3543  0.7310  0.8204
  551MOL0     H72711   9.785   2.596   0.159  0.0358  0.5117  0.9098
  551MOL0     H72712   9.730   2.331   0.238 -0.6486  1.7327  1.4239
  551MOL0     H72713   9.808   2.362   0.077 -2.0857 -2.7245 -1.5465
  551MOL0     H72714   8.886   2.542   0.210 -0.9355  1.0684 -0.2339
  551MOL0     H72715   8.645   2.536   0.241 -0.1523  1.4518  0.6435
  551MOL0     H72716   8.347   2.390   0.630 -1.0408 -1.5205  1.2621
  551MOL0     H72717   8.107   2.389   0.729  0.4811  2.3271  2.2739
  551MOL0     H72718   7.425   3.566   0.928  2.0716  0.6724  1.4918
  551MOL0     H72719   7.540   3.773   0.922  0.9537 -0.3974 -0.2734
  551MOL0     H72720   7.649   4.159   0.630 -0.2078 -3.0737  1.3433
  551MOL0     H72721   7.729   4.368   0.638 -0.5628  0.2332  1.0329
  551MOL0     H72722   8.134   4.444   0.771 -1.3890 -0.5405 -1.6874
  551MOL0     H72723   8.077   4.471   0.936 -1.2195  0.1504  0.1066
  551MOL0     H72724   8.179   4.673   0.798 -0.7093  0.0820 -2.1829
  551MOL0     H72725   8.018   4.677   0.714 -0.6226 -1.3135 -1.0648
  551MOL0     H72726   8.063   4.727   1.007 -1.6324  2.7867  0.8732
  551MOL0     H72727   7.905   4.687   0.938  0.1153 -0.4472  0.4523
  551MOL0     H72728   7.956   4.896   0.786  0.5585  1.4641  0.4729
  551MOL0     H72729   7.948   4.925   0.956  1.9983 -0.7640  2.4096
  551MOL0     H72730   8.354   5.007   0.897  0.3803 -0.8745  0.8709
  551MOL0     H72731   8.028   4.240   0.938 -2.2433 -0.2923  1.4571
  551MOL0     H72732   7.926   4.028   0.936 -3.2960  1.3346  3.6366
  552MOL0     O72733  10.472   6.698   1.847  0.4260  0.1249 -0.5089
  552MOL0     C72734  10.534   6.601   1.820 -0.3725  0.7543 -1.2745
  552MOL0     O72735  10.476   6.488   1.786 -0.3655 -0.2158  0.3566
  552MOL0     C72736  10.338   6.468   1.798 -0.1837 -0.0483  0.5252
  552MOL0     C72737  10.305   6.343   1.849  0.1854  0.2134  0.6825
  552MOL0     C72738  10.174   6.295   1.847  0.0635 -0.3532 -0.6511
  552MOL0     C72739  10.078   6.380   1.789 -0.8728  0.1420  0.4804
  552MOL0     O72740   9.946   6.344   1.798  0.1760  0.1355 -0.1159
  552MOL0     C72741   9.902   6.216   1.761 -0.5201 -0.4584 -0.5176
  552MOL0     C72742   9.754   6.220   1.725 -1.4811 -0.1019 -0.4889
  552MOL0     C72743   9.677   6.283   1.835 -0.5320  0.1553 -0.0473
  552MOL0     C72744   9.537   6.224   1.871  0.3355 -0.7208 -0.4778
  552MOL0     C72745   9.467   6.288   1.995  0.8084 -0.0145 -0.3729
  552MOL0     C72746   9.427   6.435   1.987 -1.2735  0.3649  0.6444
  552MOL0     C72747   9.384   6.477   2.130  0.1368  0.4132  0.4331
  552MOL0     C72748   9.314   6.618   2.152  0.6370  0.2955 -1.1734
  552MOL0     N72749   9.185   6.650   2.086 -0.2272  0.3032 -0.2765
  552MOL0     C72750   9.067   6.573   2.090 -0.6868 -0.3051 -0.3838
  552MOL0     C72751   8.980   6.647   2.024 -0.1400 -0.3631  0.1768
  552MOL0     C72752   8.834   6.612   1.998  0.6597 -0.3938  0.2843
  552MOL0     C72753   8.732   6.727   1.992 -1.0030  0.5049 -1.1124
  552MOL0     C72754   8.616   6.688   1.914  0.3157 -0.0272 -0.5010
  552MOL0     C72755   8.512   6.799   1.919  0.1443 -0.0499 -0.2963
  552MOL0     O72756   8.398   6.774   1.836 -0.3147  0.2771 -0.3098
  552MOL0     C72757   8.414   6.763   1.702  0.1341  0.1885 -0.0419
  552MOL0     C72758   8.482   6.863   1.640  0.1704  0.1716  1.4203
  552MOL0     C72759   8.505   6.852   1.505  0.2454  0.1588 -0.8060
  552MOL0     C72760   8.460   6.742   1.423 -0.3721 -0.2356 -1.2485
  552MOL0     C72761   8.489   6.728   1.287  0.3701 -0.0357  0.0615
  552MOL0     O72762   8.468   6.599   1.228 -0.2647 -0.5959  0.9152
  552MOL0     C72763   8.439   6.594   1.092 -0.3807 -0.6545  0.4314
  552MOL0     C72764   8.507   6.494   1.018 -0.0891 -0.1490  0.1277
  552MOL0     C72765   8.480   6.479   0.877 -1.0059 -0.3343  0.2966
  552MOL0     C72766   8.395   6.563   0.810  0.5258  0.8030 -0.7243
  552MOL0     O72767   8.364   6.537   0.679 -0.1883  0.1394  0.6253
  552MOL0     C72768   8.278   6.615   0.592 -0.2317  0.2506 -0.4107
  552MOL0     C72769   8.120   6.586   0.607  0.7017 -0.2779 -0.3472
  552MOL0     C72770   8.086   6.437   0.557 -0.3292 -0.4087 -0.0158
  552MOL0     C72771   7.950   6.429   0.522 -0.5094  0.0709 -0.7847
  552MOL0     C72772   7.891   6.286   0.506 -0.2371 -0.5151 -0.2765
  552MOL0     C72773   7.762   6.286   0.421 -0.2355  0.4180  0.5961
  552MOL0     C72774   7.693   6.150   0.408  0.8565  0.6259  0.9770
  552MOL0     C72775   7.694   6.063   0.532  0.4063  1.3334 -0.2509
  552MOL0    Cl72776   7.658   6.133   0.692 -0.0274  0.3294 -0.8092
  552MOL0     C72777   8.335   6.673   0.876  0.8483  0.2306  0.2257
  552MOL0     C72778   8.357   6.683   1.023 -0.1702 -1.0152  0.2401
  552MOL0     O72779   8.539   6.824   1.227  0.2795  0.2121 -0.6550
  552MOL0     C72780   8.404   6.632   1.496 -0.1232 -0.8476 -0.6916
  552MOL0     C72781   8.381   6.640   1.635  0.5104  0.0160 -0.5035
  552MOL0     N72782   9.034   6.778   2.011  0.4587  0.4065 -0.0583
  552MOL0     N72783   9.154   6.772   2.042 -0.1631  1.0047  0.4218
  552MOL0     C72784  10.111   6.503   1.733 -0.3846  0.3052 -0.2568
  552MOL0     C72785  10.241   6.552   1.742 -0.5937 -0.0019  0.8924
  552MOL0     C72786  10.682   6.622   1.806 -0.0001  1.1018  0.0787
  552MOL0     C72787  10.742   6.735   1.854  0.9031 -0.1019 -0.8946
  552MOL0     C72788  10.879   6.765   1.838 -0.1229 -0.6942  0.0058
  552MOL0     C72789  10.966   6.667   1.779 -0.3727  0.6172 -0.2043
  552MOL0     O72790  11.098   6.697   1.777  0.2354 -0.3297  0.6247
  552MOL0     C72791  11.213   6.606   1.806 -0.6970  0.3610  0.0363
  552MOL0     C72792  11.246   6.589   1.950  0.1743  0.2135 -0.1361
  552MOL0     C72793  11.144   6.533   2.042  0.0753 -0.9237  0.2671
  552MOL0     C72794  11.124   6.382   2.037 -0.4111  0.3763  0.7671
  552MOL0     C72795  11.041   6.330   1.928  0.9169  0.3168  0.7963
  552MOL0     C72796  10.965   6.258   1.860  0.7273 -0.3321  0.2476
  552MOL0     C72797  10.904   6.543   1.728 -0.3637 -0.2452 -0.6015
  552MOL0     C72798  10.768   6.517   1.746  1.2754  0.1882  0.5517
  552MOL0     H72799  10.381   6.272   1.880  0.9651  0.6847 -0.1013
  552MOL0     H72800  10.158   6.199   1.894  4.3360 -0.4119  1.0802
  552MOL0     H72801   9.918   6.161   1.854 -1.1676 -1.3246 -0.9039
  552MOL0     H72802   9.963   6.174   1.680  3.9331  0.5094  2.0056
  552MOL0     H72803   9.721   6.117   1.706 -1.0807 -0.3090 -0.0778
  552MOL0     H72804   9.734   6.279   1.635 -3.6492 -0.1589 -0.0945
  552MOL0     H72805   9.664   6.387   1.804  1.7902  0.5402  0.0935
  552MOL0     H72806   9.734   6.286   1.929  3.0024  2.6144 -1.9985
  552MOL0     H72807   9.469   6.228   1.786  0.4286 -1.6879 -0.6061
  552MOL0     H72808   9.550   6.118   1.896  1.6689 -0.4473  0.1038
  552MOL0     H72809   9.529   6.277   2.085 -1.5218  0.5218  1.4020
  552MOL0     H72810   9.377   6.232   2.020  0.1206  1.7704  1.3880
  552MOL0     H72811   9.356   6.451   1.906  1.7741 -1.2167 -2.5959
  552MOL0     H72812   9.516   6.493   1.963 -0.6855 -0.8926 -0.3387
  552MOL0     H72813   9.325   6.404   2.186  2.9740 -2.2498  0.2577
  552MOL0     H72814   9.470   6.478   2.198 -0.0256  2.3153  0.6837
  552MOL0     H72815   9.389   6.690   2.119 -2.6872  4.0702 -1.2105
  552MOL0     H72816   9.299   6.637   2.259 -0.4372 -2.7958 -0.6587
  552MOL0     H72817   9.065   6.478   2.141  3.6995 -0.7870 -0.7237
  552MOL0     H72818   8.799   6.540   2.073  3.5078 -0.5141  1.6096
  552MOL0     H72819   8.835   6.572   1.897 -0.6075  2.0374 -0.7837
  552MOL0     H72820   8.782   6.813   1.949  2.1431 -0.1569  0.8542
  552MOL0     H72821   8.707   6.734   2.099 -1.2750  0.1803 -1.1543
  552MOL0     H72822   8.646   6.667   1.811 -3.2684  0.6695 -1.8352
  552MOL0     H72823   8.570   6.601   1.962 -0.6615 -0.3107 -1.8875
  552MOL0     H72824   8.556   6.895   1.890 -1.1860  0.6167 -0.2176
  552MOL0     H72825   8.485   6.815   2.024  1.1221  2.2336 -0.3293
  552MOL0     H72826   8.503   6.954   1.695  3.1405  1.5355 -1.6147
  552MOL0     H72827   8.564   6.926   1.452  0.8512  0.4770  0.2724
  552MOL0     H72828   8.546   6.406   1.068 -0.9462 -1.7051 -1.8240
  552MOL0     H72829   8.520   6.390   0.829  2.7367  1.1743  0.2629
  552MOL0     H72830   8.309   6.588   0.491 -1.2634 -0.4173 -0.5622
  552MOL0     H72831   8.314   6.719   0.590  0.6454 -0.0597 -1.1013
  552MOL0     H72832   8.069   6.658   0.543  1.9726  0.8134 -0.1876
  552MOL0     H72833   8.073   6.605   0.704 -2.6215  1.2386 -2.0662
  552MOL0     H72834   8.126   6.365   0.628  3.2760  0.1428 -1.3164
  552MOL0     H72835   8.139   6.415   0.464  0.5808 -1.5966  0.7632
  552MOL0     H72836   7.897   6.481   0.603  0.3693 -2.0968  1.2900
  552MOL0     H72837   7.952   6.478   0.424  3.0250 -0.6379 -1.1988
  552MOL0     H72838   7.871   6.244   0.605  1.2352  1.9540  1.1797
  552MOL0     H72839   7.972   6.224   0.466  0.7372  0.1486  0.5921
  552MOL0     H72840   7.787   6.329   0.323 -1.5495 -0.5914 -0.2037
  552MOL0     H72841   7.691   6.359   0.461 -0.0969  1.1933 -0.5426
  552MOL0     H72842   7.586   6.171   0.399  0.4888 -1.8992 -2.1700
  552MOL0     H72843   7.727   6.100   0.317 -0.3403  2.2343 -0.4213
  552MOL0     H72844   7.794   6.019   0.537 -0.3241 -0.3123  0.3202
  552MOL0     H72845   7.623   5.982   0.517  1.1698  1.0436 -2.8829
  552MOL0     H72846   8.262   6.741   0.835 -1.3831 -1.3815  1.2724
  552MOL0     H72847   8.314   6.765   1.079 -1.0136  0.1886 -2.0364
  552MOL0     H72848   8.379   6.543   1.441  1.0819 -0.5578 -1.7487
  552MOL0     H72849   8.350   6.550   1.688  2.6206  0.3777  1.4594
  552MOL0     H72850  10.029   6.545   1.675 -0.6744  3.0773  1.9146
  552MOL0     H72851  10.284   6.633   1.684  0.9572 -0.4337  1.3833
  552MOL0     H72852  10.678   6.813   1.894 -0.5764 -2.0779  0.8129
  552MOL0     H72853  10.923   6.855   1.879  0.4933 -0.5864 -0.8575
  552MOL0     H72854  11.308   6.635   1.762 -0.4315 -1.6348 -0.8302
  552MOL0     H72855  11.199   6.507   1.761  0.9545 -0.2717  0.8301
  552MOL0     H72856  11.332   6.522   1.959  1.4645  2.0860  3.1101
  552MOL0     H72857  11.284   6.684   1.989  2.9826 -0.1768 -1.6203
  552MOL0     H72858  11.047   6.576   2.015  0.0001 -2.0604 -1.4248
  552MOL0     H72859  11.171   6.557   2.145  0.8050 -0.6290  0.0119
  552MOL0     H72860  11.214   6.322   2.050 -1.0393 -0.7325  0.0856
  552MOL0     H72861  11.078   6.353   2.131  2.6038 -3.6432  1.2496
  552MOL0     H72862  10.888   6.206   1.806 -0.8967  0.2468  1.8921
  552MOL0     H72863  10.970   6.470   1.681  1.1499  0.6086  0.1274
  552MOL0     H72864  10.732   6.422   1.707  2.3286  1.6159 -4.6198
  553MOL0     O72865   3.871   1.656   3.414 -0.6383 -0.2540 -0.0479
  553MOL0     C72866   3.853   1.601   3.518 -0.3209 -0.0820 -0.2434
  553MOL0     O72867   3.890   1.469   3.541  1.3278  0.0726  0.3220
  553MOL0     C72868   3.946   1.399   3.440 -0.0915 -0.4073  1.1608
  553MOL0     C72869   4.081   1.403   3.420  0.6475 -0.0241 -0.3990
  553MOL0     C72870   4.154   1.324   3.331  0.7855  0.0390  0.2322
  553MOL0     C72871   4.082   1.224   3.256  0.9170 -1.1149  0.2158
  553MOL0     O72872   4.125   1.135   3.161 -0.4262 -0.4326 -0.3020
  553MOL0     C72873   4.252   1.070   3.181 -1.3632  0.1248 -0.4652
  553MOL0     C72874   4.270   0.946   3.092  1.0980  0.4235 -0.0896
  553MOL0     C72875   4.295   0.979   2.958  0.2432  0.1258  0.0512
  553MOL0     C72876   4.322   0.868   2.852  0.3695  0.5826 -0.2738
  553MOL0     C72877   4.201   0.795   2.812  0.2132  0.0690 -0.5811
  553MOL0     C72878   4.239   0.652   2.758 -0.0323  0.3445  0.7096
  553MOL0     C72879   4.114   0.571   2.707  0.5308 -0.6867 -0.7338
  553MOL0     C72880   4.043   0.633   2.584  0.4858  1.3594 -0.2689
  553MOL0     N72881   3.948   0.539   2.523  0.2557 -0.2875  0.3320
  553MOL0     C72882   3.963   0.493   2.394  0.0244 -0.1891 -0.0272
  553MOL0     C72883   3.907   0.370   2.400  0.6714  0.2436  0.6945
  553MOL0     C72884   3.927   0.262   2.297 -0.5665 -0.9007  0.1545
  553MOL0     C72885   4.053   0.177   2.309 -0.4108 -0.0405  0.0068
  553MOL0     C72886   4.073   0.120   2.454  0.7068 -0.4014  0.8214
  553MOL0     C72887   4.155   0.218   2.545  0.9967  0.2354 -0.9889
  553MOL0     O72888   4.272   0.142   2.575 -0.7515 -0.3017  0.5915
  553MOL0     C72889   4.353   0.182   2.670 -0.6028 -1.5998 -0.7096
  553MOL0     C72890   4.425   0.302   2.654  0.3010  0.5476  0.6913
  553MOL0     C72891   4.495   0.349   2.767 -0.3660  0.4114  0.7296
  553MOL0     C72892   4.518   0.259   2.874 -0.1889  0.9885  0.5279
  553MOL0     C72893   4.604   0.309   2.987  0.6073  0.4768  0.4587
  553MOL0     O72894   4.636   0.443   2.982  0.6938  0.4746  0.1039
  553MOL0     C72895   4.695   0.508   3.086  0.3267  0.0468 -0.1294
  553MOL0     C72896   4.746   0.455   3.211  0.1278  0.3311  0.4954
  553MOL0     C72897   4.812   0.535   3.306 -1.0371 -0.1685 -0.6865
  553MOL0     C72898   4.809   0.670   3.289  0.3747  0.8926  0.5912
  553MOL0     O72899   4.860   0.764   3.381  0.9849  0.1559  0.9449
  553MOL0     C72900   4.933   0.877   3.326  0.0259  0.8472  0.5172
  553MOL0     C72901   5.038   0.925   3.425 -0.4122 -0.3426 -0.7393
  553MOL0     C72902   5.055   1.081   3.420  0.4853  0.0460 -0.5375
  553MOL0     C72903   5.166   1.130   3.524 -0.4561 -1.1862  0.2084
  553MOL0     C72904   5.174   1.284   3.542  0.7784 -0.2522  1.0019
  553MOL0     C72905   5.244   1.319   3.676  0.6746  0.8217  0.7629
  553MOL0     C72906   5.265   1.473   3.684 -0.2952  0.3365 -0.7352
  553MOL0     C72907   5.145   1.546   3.763 -0.5221  0.2135  1.0139
  553MOL0    Cl72908   5.152   1.724   3.746 -0.4026 -0.3232 -0.1587
  553MOL0     C72909   4.741   0.726   3.176  0.1050 -0.2401 -0.5138
  553MOL0     C72910   4.688   0.643   3.074 -0.1198  0.0656  0.3826
  553MOL0     O72911   4.621   0.231   3.085 -0.0671  0.2424  0.1526
  553MOL0     C72912   4.458   0.124   2.880  0.2918  0.8093 -0.3254
  553MOL0     C72913   4.363   0.094   2.783  1.5436 -0.7903  0.5297
  553MOL0     N72914   3.840   0.350   2.522 -0.4915  0.5877  0.0074
  553MOL0     N72915   3.864   0.464   2.589  0.2287  0.2732  0.6973
  553MOL0     C72916   3.941   1.222   3.281 -0.0603 -0.2524 -0.1059
  553MOL0     C72917   3.875   1.301   3.371 -0.9427  0.3110 -1.0624
  553MOL0     C72918   3.784   1.679   3.627 -0.0763 -0.1627 -0.2376
  553MOL0     C72919   3.761   1.627   3.756  0.3246 -0.0110  0.0003
  553MOL0     C72920   3.718   1.705   3.870  0.3468 -0.2082  0.3246
  553MOL0     C72921   3.705   1.850   3.857 -0.2607  0.1900 -0.0455
  553MOL0     O72922   3.652   1.916   3.960 -0.0602 -0.1232 -0.9010
  553MOL0     C72923   3.575   1.837   4.057  0.6153  0.4526 -1.3206
  553MOL0     C72924   3.533   1.931   4.168  0.0907 -0.0405 -0.2233
  553MOL0     C72925   3.454   2.054   4.112 -0.3706 -0.1112  0.0714
  553MOL0     C72926   3.419   2.154   4.226 -0.3558  0.8135  1.0363
  553MOL0     C72927   3.368   2.088   4.352 -0.5947  0.5308 -0.6414
  553MOL0     C72928   3.316   2.036   4.446  0.6259  0.0533 -0.2202
  553MOL0     C72929   3.725   1.898   3.730 -0.2822 -0.5476  0.1817
  553MOL0     C72930   3.772   1.821   3.619 -0.2639 -0.3407  0.5042
  553MOL0     H72931   4.138   1.470   3.483  1.0284  0.5765 -1.3613
  553MOL0     H72932   4.262   1.331   3.330  0.7009  2.5135  0.0188
  553MOL0     H72933   4.260   1.051   3.289  0.4658 -0.0348 -0.5979
  553MOL0     H72934   4.329   1.144   3.162 -1.9178  0.5126 -1.2585
  553MOL0     H72935   4.183   0.880   3.099 -1.0709  2.7046 -3.0880
  553MOL0     H72936   4.357   0.882   3.112  0.8566  0.0522 -0.2179
  553MOL0     H72937   4.385   1.041   2.957  0.8937 -0.7573  1.1780
  553MOL0     H72938   4.220   1.047   2.917  0.5836 -0.4828 -1.6743
  553MOL0     H72939   4.366   0.923   2.767  0.0354  4.2461  1.7217
  553MOL0     H72940   4.399   0.797   2.885 -0.2589  0.1885  0.3589
  553MOL0     H72941   4.149   0.853   2.735  0.4990  0.2909 -0.6061
  553MOL0     H72942   4.136   0.778   2.898 -1.0865 -1.2630 -1.7624
  553MOL0     H72943   4.288   0.593   2.837  1.5820 -3.6446 -2.8708
  553MOL0     H72944   4.308   0.667   2.674 -1.4735  2.2457 -0.2061
  553MOL0     H72945   4.142   0.467   2.691  3.9306 -0.5541  2.9399
  553MOL0     H72946   4.046   0.567   2.793 -1.3921  2.3300 -1.9234
  553MOL0     H72947   4.119   0.649   2.507  1.2039 -0.0243  0.1231
  553MOL0     H72948   3.996   0.725   2.619 -2.3377 -0.1336  0.1667
  553MOL0     H72949   4.038   0.525   2.324  0.1229  0.8015  0.5150
  553MOL0     H72950   3.921   0.304   2.196  0.6869 -2.4527 -0.6180
  553MOL0     H72951   3.839   0.197   2.305 -1.2813  0.1421  1.1305
  553MOL0     H72952   4.144   0.225   2.270 -0.6383 -0.7134 -1.4274
  553MOL0     H72953   4.042   0.088   2.246 -0.7992  0.3258 -0.4451
  553MOL0     H72954   3.976   0.091   2.496  1.1974 -3.1576  0.2388
  553MOL0     H72955   4.132   0.028   2.445  4.8445  2.1930 -1.6880
  553MOL0     H72956   4.098   0.240   2.635  0.6447  2.0920 -1.6323
  553MOL0     H72957   4.193   0.312   2.504 -1.2505  1.1794 -1.0233
  553MOL0     H72958   4.419   0.363   2.564 -1.9945 -2.7003 -1.6113
  553MOL0     H72959   4.530   0.452   2.767 -1.2977  0.7612  2.0131
  553MOL0     H72960   4.765   0.354   3.245 -0.6176  1.0860  3.4333
  553MOL0     H72961   4.853   0.484   3.393  0.0312 -1.5900 -1.9615
  553MOL0     H72962   4.856   0.952   3.303  0.1603  1.9353  3.2973
  553MOL0     H72963   4.992   0.864   3.234  1.4393  4.0015  0.8334
  553MOL0     H72964   5.130   0.876   3.393  1.8583  1.1640  2.9082
  553MOL0     H72965   5.009   0.896   3.526  0.7253  2.0465  0.3417
  553MOL0     H72966   4.955   1.113   3.452  0.9485 -0.4471  1.5422
  553MOL0     H72967   5.087   1.112   3.320 -0.0280  3.4531  0.2151
  553MOL0     H72968   5.130   1.096   3.621 -3.8890  1.1515 -0.0338
  553MOL0     H72969   5.270   1.103   3.503  0.6578  3.3682 -1.2547
  553MOL0     H72970   5.076   1.333   3.539 -0.4008 -2.5291  0.7186
  553MOL0     H72971   5.230   1.326   3.458 -1.7778  0.3724 -0.4817
  553MOL0     H72972   5.338   1.262   3.675  0.2749  0.1041 -1.5178
  553MOL0     H72973   5.182   1.285   3.759  0.5036  2.5203  1.3669
  553MOL0     H72974   5.353   1.496   3.744 -1.3107 -1.5584  1.6439
  553MOL0     H72975   5.287   1.501   3.581  0.9525  1.2935 -0.2412
  553MOL0     H72976   5.148   1.520   3.869 -2.9611  0.2370  1.1430
  553MOL0     H72977   5.047   1.517   3.723 -0.2190  1.6390 -0.9304
  553MOL0     H72978   4.744   0.833   3.162 -0.7700 -0.2763 -1.0974
  553MOL0     H72979   4.650   0.687   2.982  2.0779  1.6284  0.1377
  553MOL0     H72980   4.484   0.043   2.948 -2.1161 -0.3183 -0.6378
  553MOL0     H72981   4.306   0.002   2.773 -0.3325  0.5398 -2.1408
  553MOL0     H72982   3.877   1.150   3.231  2.2594 -1.4422 -1.5166
  553MOL0     H72983   3.767   1.297   3.384 -0.7923 -1.4702 -0.0249
  553MOL0     H72984   3.769   1.519   3.763  2.2003  0.1496  0.7672
  553MOL0     H72985   3.703   1.661   3.968  0.5593 -0.3288  0.3027
  553MOL0     H72986   3.637   1.766   4.112 -2.3803 -2.8243 -1.8264
  553MOL0     H72987   3.497   1.778   4.008  2.6810 -4.0277  0.2495
  553MOL0     H72988   3.472   1.888   4.248 -1.1971  1.4347 -0.3570
  553MOL0     H72989   3.624   1.969   4.215 -0.3663 -0.0830  0.7232
  553MOL0     H72990   3.365   2.007   4.069 -0.0453 -5.3454  4.1336
  553MOL0     H72991   3.508   2.103   4.030 -2.9194 -0.3034 -1.8716
  553MOL0     H72992   3.512   2.205   4.253  0.0810  0.2035  0.6912
  553MOL0     H72993   3.355   2.231   4.182 -1.6498 -1.4826 -1.3931
  553MOL0     H72994   3.263   2.006   4.534  0.0906  2.5755  0.4054
  553MOL0     H72995   3.711   2.005   3.716  2.9384 -0.0539  0.0115
  553MOL0     H72996   3.795   1.858   3.519 -2.8836 -2.2027 -0.9085
  554MOL0     O72997  10.218   9.634   4.167 -0.6668 -0.4153 -0.0547
  554MOL0     C72998  10.108   9.579   4.165  0.3254  0.3056 -0.4785
  554MOL0     O72999  10.074   9.460   4.238  0.4229  0.1834 -0.5042
  554MOL0     C73000  10.171   9.378   4.291  0.6321  0.3014  0.2879
  554MOL0     C73001  10.123   9.273   4.367  0.0065 -0.5646 -0.1372
  554MOL0     C73002  10.209   9.191   4.444  0.0969 -0.1312  0.8142
  554MOL0     C73003  10.348   9.190   4.423  0.1072 -1.5180  0.0137
  554MOL0     O73004  10.424   9.100   4.492  0.4992 -0.1688 -0.7596
  554MOL0     C73005  10.570   9.104   4.488 -0.9844  0.2181 -0.5431
  554MOL0     C73006  10.616   8.972   4.554 -0.1215 -0.2843 -0.5917
  554MOL0     C73007  10.580   8.851   4.471 -0.1470  0.7555  0.2868
  554MOL0     C73008  10.646   8.730   4.524 -0.4388 -0.0638 -0.5703
  554MOL0     C73009  10.637   8.618   4.415 -0.1101  0.6818  0.0177
  554MOL0     C73010  10.495   8.593   4.364 -0.1862 -0.3172 -0.6628
  554MOL0     C73011  10.398   8.561   4.479  0.2819 -0.0915 -0.2977
  554MOL0     C73012  10.271   8.500   4.416  0.4677  0.2816 -0.3509
  554MOL0     N73013  10.189   8.433   4.521  0.2779  1.2847 -0.5271
  554MOL0     C73014  10.150   8.489   4.641  0.1080 -0.3350 -0.1659
  554MOL0     C73015  10.109   8.383   4.715  0.5829 -0.2173  0.4414
  554MOL0     C73016  10.060   8.395   4.859 -0.1077  0.2035  0.9386
  554MOL0     C73017   9.904   8.394   4.874  0.2843 -0.3806  0.3494
  554MOL0     C73018   9.829   8.499   4.783  0.8717 -0.0051  0.6114
  554MOL0     C73019   9.677   8.524   4.808 -0.3270  0.5925  0.0090
  554MOL0     O73020   9.629   8.617   4.719  0.0550 -0.7344  0.2237
  554MOL0     C73021   9.495   8.638   4.702  1.3905  0.8588  0.5842
  554MOL0     C73022   9.420   8.533   4.650 -0.4865 -0.5511  0.3884
  554MOL0     C73023   9.279   8.537   4.641 -0.5043  0.0303 -1.0397
  554MOL0     C73024   9.214   8.651   4.694  0.7278  0.2952  0.0235
  554MOL0     C73025   9.066   8.658   4.693  0.4123  0.0593  1.4244
  554MOL0     O73026   8.996   8.539   4.684  0.2339  0.0315  0.2980
  554MOL0     C73027   8.857   8.559   4.698 -0.1901 -0.0687 -0.1364
  554MOL0     C73028   8.795   8.571   4.823  0.0808 -0.2724  0.0594
  554MOL0     C73029   8.664   8.599   4.829 -0.4733 -1.2016 -0.2536
  554MOL0     C73030   8.585   8.622   4.711 -0.4177  0.3750 -1.0871
  554MOL0     O73031   8.453   8.661   4.712 -0.5438  0.2406 -0.1444
  554MOL0     C73032   8.359   8.635   4.819  0.3236  0.2454 -0.7696
  554MOL0     C73033   8.326   8.492   4.822 -0.3701  0.4674  0.8914
  554MOL0     C73034   8.272   8.423   4.687  0.1732  0.5381  0.0282
  554MOL0     C73035   8.281   8.270   4.708  0.2825  0.8028 -0.8414
  554MOL0     C73036   8.199   8.191   4.602 -0.7913 -0.0039 -0.9355
  554MOL0     C73037   8.239   8.218   4.452 -0.2094 -0.1793 -0.7020
  554MOL0     C73038   8.384   8.171   4.410 -0.2046  0.0289  0.2993
  554MOL0     C73039   8.416   8.180   4.256  0.3574 -0.9428 -0.9207
  554MOL0    Cl73040   8.553   8.089   4.206  0.2887 -0.1144  0.3299
  554MOL0     C73041   8.635   8.593   4.590  0.2469 -0.5027 -0.0597
  554MOL0     C73042   8.766   8.553   4.583 -0.7401  0.4793 -0.1054
  554MOL0     O73043   9.016   8.768   4.711  0.6721  0.5152 -0.1947
  554MOL0     C73044   9.290   8.759   4.743  0.4330  0.6403 -0.0988
  554MOL0     C73045   9.426   8.750   4.752 -0.3798  0.6829 -0.2010
  554MOL0     N73046  10.121   8.269   4.645  0.7599  0.2534 -0.6222
  554MOL0     N73047  10.171   8.298   4.537  0.2067 -0.3625 -0.1483
  554MOL0     C73048  10.396   9.287   4.333  0.6632  0.3462 -0.1523
  554MOL0     C73049  10.314   9.381   4.275 -0.0369 -0.7038  0.6530
  554MOL0     C73050   9.988   9.649   4.109  0.4406 -1.3257 -0.5183
  554MOL0     C73051   9.878   9.571   4.075 -0.5127  0.0649  0.0431
  554MOL0     C73052   9.782   9.636   3.998  0.5645 -0.0934 -0.4653
  554MOL0     C73053   9.782   9.771   3.965 -1.0115  0.4385  0.7108
  554MOL0     O73054   9.680   9.821   3.888  0.2341 -0.4205  0.2012
  554MOL0     C73055   9.645   9.951   3.913  0.1137  0.1541 -0.1678
  554MOL0     C73056   9.705  10.044   3.813 -0.0499  0.1628 -0.2894
  554MOL0     C73057   9.701  10.191   3.866 -0.2199  0.7480 -0.0530
  554MOL0     C73058   9.756  10.288   3.752 -0.0023  0.6475 -1.0010
  554MOL0     C73059   9.897  10.269   3.730 -1.1507  0.3117  0.0980
  554MOL0     C73060  10.021  10.257   3.715 -0.2536  0.7390 -0.3449
  554MOL0     C73061   9.894   9.849   3.996  0.5890  0.2000 -0.4961
  554MOL0     C73062   9.993   9.792   4.072  0.4671  0.0246 -0.6534
  554MOL0     H73063  10.017   9.268   4.388  0.3538 -0.4880  1.8848
  554MOL0     H73064  10.169   9.122   4.518  0.8954 -2.4530 -0.8308
  554MOL0     H73065  10.600   9.186   4.553 -0.0651  1.2890 -2.2518
  554MOL0     H73066  10.613   9.115   4.389  0.3213  1.1670  0.1090
  554MOL0     H73067  10.575   8.965   4.655  2.8681  0.9787  0.8361
  554MOL0     H73068  10.724   8.973   4.567  0.0722  0.1664 -2.0380
  554MOL0     H73069  10.630   8.864   4.375 -1.5046  5.2999 -0.0445
  554MOL0     H73070  10.471   8.843   4.468 -0.2147  1.8501 -1.3895
  554MOL0     H73071  10.749   8.752   4.554 -0.5931 -0.6349  0.3988
  554MOL0     H73072  10.594   8.706   4.617 -1.6927 -0.8411 -1.4471
  554MOL0     H73073  10.682   8.525   4.453 -0.0006  1.8915  3.1671
  554MOL0     H73074  10.702   8.644   4.331 -0.8967  2.5870 -0.0460
  554MOL0     H73075  10.504   8.523   4.280  0.2603  2.4391 -3.0509
  554MOL0     H73076  10.461   8.688   4.321 -0.9530 -0.4903 -0.4571
  554MOL0     H73077  10.433   8.499   4.562  2.0267  0.6347 -0.4632
  554MOL0     H73078  10.368   8.653   4.528 -3.5221 -0.1289 -2.1534
  554MOL0     H73079  10.285   8.428   4.335  0.3606 -1.4080  1.0675
  554MOL0     H73080  10.220   8.585   4.370  0.0230 -0.5762 -1.4835
  554MOL0     H73081  10.149   8.593   4.670  0.8145  0.7732 -3.6675
  554MOL0     H73082  10.111   8.485   4.895  3.3841 -0.4172 -1.8475
  554MOL0     H73083  10.089   8.302   4.909  1.8697 -1.3606 -2.6874
  554MOL0     H73084   9.888   8.405   4.982  0.7955  0.6035  0.3338
  554MOL0     H73085   9.866   8.293   4.856 -0.3916 -0.8121  3.4706
  554MOL0     H73086   9.871   8.600   4.784 -3.4291  2.0383  2.8317
  554MOL0     H73087   9.827   8.460   4.681 -3.8029 -0.4157  0.6613
  554MOL0     H73088   9.655   8.563   4.907  1.8550  0.6835  0.5085
  554MOL0     H73089   9.636   8.424   4.789 -1.0781  1.2833 -2.3435
  554MOL0     H73090   9.478   8.447   4.618  1.8908  0.8595  0.6657
  554MOL0     H73091   9.223   8.453   4.600  0.6829 -2.3528  1.8255
  554MOL0     H73092   8.849   8.561   4.917  0.9462 -1.4145 -0.5303
  554MOL0     H73093   8.645   8.615   4.934  1.8001 -0.0683  0.0578
  554MOL0     H73094   8.261   8.682   4.815 -0.8119 -1.7729  0.9299
  554MOL0     H73095   8.404   8.656   4.917 -0.8663  1.5397 -0.4742
  554MOL0     H73096   8.241   8.487   4.891 -0.9592  0.8879  0.2086
  554MOL0     H73097   8.414   8.445   4.867 -1.1472  0.0370  2.0275
  554MOL0     H73098   8.336   8.451   4.603  2.2598 -0.5236  1.1806
  554MOL0     H73099   8.169   8.454   4.668 -0.8948 -3.0684 -0.9229
  554MOL0     H73100   8.385   8.244   4.725  0.2320  0.1087 -1.5441
  554MOL0     H73101   8.227   8.243   4.799  0.6268  1.2409 -0.5045
  554MOL0     H73102   8.095   8.224   4.604 -0.9673 -0.4919 -1.8477
  554MOL0     H73103   8.209   8.085   4.628  0.9815  0.3493 -0.0157
  554MOL0     H73104   8.226   8.326   4.441  2.2261  0.5934  2.4389
  554MOL0     H73105   8.179   8.159   4.383  0.2337 -0.2200 -1.0580
  554MOL0     H73106   8.455   8.234   4.463  0.0371  1.3130 -1.4523
  554MOL0     H73107   8.386   8.063   4.429  2.4404 -0.4430 -2.0008
  554MOL0     H73108   8.446   8.282   4.228  1.8036 -0.7663  1.0870
  554MOL0     H73109   8.333   8.150   4.192 -0.9513  0.3295  0.1147
  554MOL0     H73110   8.570   8.612   4.505  1.3070 -1.7800 -1.2173
  554MOL0     H73111   8.814   8.535   4.487 -1.1825  2.6730 -0.7724
  554MOL0     H73112   9.236   8.846   4.777  0.3898 -0.8821  4.3765
  554MOL0     H73113   9.478   8.825   4.811  0.6934 -0.2960  0.1238
  554MOL0     H73114  10.500   9.288   4.300  1.1784 -1.9591  1.1176
  554MOL0     H73115  10.355   9.450   4.202 -2.2806  1.2607  1.1097
  554MOL0     H73116   9.871   9.465   4.092 -0.3807 -0.1036 -0.8761
  554MOL0     H73117   9.707   9.581   3.942  1.1113 -0.1047 -1.2158
  554MOL0     H73118   9.669   9.990   4.012 -0.3066  2.3319 -0.8542
  554MOL0     H73119   9.536   9.949   3.902  0.3097 -3.2340 -3.5040
  554MOL0     H73120   9.805  10.012   3.782  0.3124  0.8000  0.1919
  554MOL0     H73121   9.642  10.043   3.724  0.0255  2.6650 -0.4295
  554MOL0     H73122   9.774  10.193   3.947  0.2378  0.8745 -0.4650
  554MOL0     H73123   9.603  10.232   3.895 -0.3037  0.6582 -0.2083
  554MOL0     H73124   9.700  10.288   3.658  1.9042  4.0898 -2.3097
  554MOL0     H73125   9.738  10.390   3.789 -0.1483  0.4068 -0.3933
  554MOL0     H73126  10.127  10.246   3.720 -0.2969  0.5596  4.0644
  554MOL0     H73127   9.914   9.944   3.948  0.3822 -0.3650 -1.7480
  554MOL0     H73128  10.082   9.850   4.092  1.3148 -1.2750 -0.5106
  555MOL0     O73129   0.830   5.924   2.114  0.0803  0.1529 -0.7189
  555MOL0     C73130   0.938   5.974   2.108 -1.0013 -0.0510  0.1033
  555MOL0     O73131   0.985   6.072   2.180  0.3750 -1.0069 -0.3237
  555MOL0     C73132   0.929   6.113   2.293  0.0718 -0.2775 -0.9201
  555MOL0     C73133   0.796   6.110   2.325  0.0199 -0.5118  0.6252
  555MOL0     C73134   0.748   6.148   2.451  0.7836 -0.7259 -0.4278
  555MOL0     C73135   0.826   6.210   2.542 -0.1609 -0.8341  0.0600
  555MOL0     O73136   0.791   6.282   2.652  0.0284 -0.2017 -0.0072
  555MOL0     C73137   0.654   6.285   2.700  1.4279  0.2752  0.4542
  555MOL0     C73138   0.665   6.315   2.842  0.2421 -0.1671  0.3833
  555MOL0     C73139   0.529   6.297   2.902 -0.2537 -0.2951 -0.8138
  555MOL0     C73140   0.532   6.319   3.054 -0.2983  0.4459  0.0085
  555MOL0     C73141   0.397   6.284   3.114 -0.2279  0.2710  0.2818
  555MOL0     C73142   0.381   6.336   3.250 -0.0470  0.3139  0.8338
  555MOL0     C73143   0.236   6.291   3.294 -0.5169  0.3310 -0.1642
  555MOL0     C73144   0.236   6.229   3.437 -0.3572  0.5782  0.3558
  555MOL0     N73145   0.095   6.197   3.473 -0.4196  0.0994 -0.6167
  555MOL0     C73146   0.016   6.275   3.550 -0.2324  0.1930  0.3383
  555MOL0     C73147  -0.092   6.212   3.591  0.1261  0.0284 -0.0310
  555MOL0     C73148  -0.194   6.256   3.691  1.7619 -0.4396  0.4044
  555MOL0     C73149  -0.142   6.243   3.833  0.0799 -0.3910 -0.2490
  555MOL0     C73150  -0.237   6.279   3.953  1.6350 -0.1668  0.4471
  555MOL0     C73151  -0.163   6.341   4.067  0.7636  0.5179  0.7095
  555MOL0     O73152  -0.118   6.473   4.027 -0.0456 -0.3125 -0.8332
  555MOL0     C73153   0.014   6.503   4.040 -0.2211  0.1073 -0.0599
  555MOL0     C73154   0.060   6.618   3.976  0.3135  0.1533  0.1832
  555MOL0     C73155   0.185   6.681   4.004  0.3992  0.8776  0.9565
  555MOL0     C73156   0.262   6.637   4.109  0.0874 -0.3926  0.4230
  555MOL0     C73157   0.370   6.721   4.168  0.8106  0.0568 -0.3667
  555MOL0     O73158   0.379   6.848   4.118 -0.9343 -0.0559 -0.1234
  555MOL0     C73159   0.492   6.934   4.152  0.1932  0.7171 -0.6185
  555MOL0     C73160   0.615   6.885   4.193 -0.2256  0.3052 -0.3490
  555MOL0     C73161   0.719   6.977   4.216  0.7339  0.1983  0.0500
  555MOL0     C73162   0.704   7.112   4.205 -0.5470 -0.2997  0.2516
  555MOL0     O73163   0.801   7.204   4.240 -0.2946 -1.1973  0.2227
  555MOL0     C73164   0.928   7.167   4.288  0.0784  0.0974  0.3963
  555MOL0     C73165   0.920   7.189   4.443 -0.5624 -0.7210  0.6948
  555MOL0     C73166   1.047   7.187   4.518 -0.3364  0.6916 -0.5342
  555MOL0     C73167   1.044   7.208   4.673 -0.4206  0.5253  0.4585
  555MOL0     C73168   0.991   7.099   4.757 -0.0908 -0.1036  0.2430
  555MOL0     C73169   1.010   6.953   4.709  0.0486  0.0459 -0.0947
  555MOL0     C73170   0.942   6.843   4.796  0.5393  0.3654 -0.0825
  555MOL0     C73171   1.030   6.812   4.923  0.2871  0.9599  0.1294
  555MOL0    Cl73172   0.941   6.704   5.038 -0.3675  0.2250  0.1959
  555MOL0     C73173   0.583   7.158   4.157  0.4799  0.2324 -0.6719
  555MOL0     C73174   0.478   7.072   4.122 -0.0093 -0.2991 -0.9890
  555MOL0     O73175   0.443   6.675   4.263  0.9701 -0.1835  0.0648
  555MOL0     C73176   0.222   6.514   4.165 -0.5230 -0.4639  0.7121
  555MOL0     C73177   0.101   6.450   4.124 -1.1637  0.3328 -0.4507
  555MOL0     N73178  -0.073   6.084   3.539  0.4585  0.4968 -0.2044
  555MOL0     N73179   0.038   6.075   3.480 -0.2031 -0.1151  0.0282
  555MOL0     C73180   0.961   6.216   2.513  0.2606  1.2820 -0.0168
  555MOL0     C73181   1.013   6.165   2.393  0.5003  0.0268  0.1683
  555MOL0     C73182   1.036   5.925   2.009 -0.3446  0.3855  0.5721
  555MOL0     C73183   1.161   5.982   1.994  0.3592 -0.0514 -0.2198
  555MOL0     C73184   1.253   5.937   1.899  0.0634 -0.4306 -0.4941
  555MOL0     C73185   1.221   5.827   1.822  0.1768 -0.4284  0.0258
  555MOL0     O73186   1.306   5.779   1.723 -0.1349  0.1940 -0.2749
  555MOL0     C73187   1.303   5.638   1.705  0.3591  0.2502 -0.2570
  555MOL0     C73188   1.389   5.571   1.811 -0.1150 -0.6131 -0.5625
  555MOL0     C73189   1.536   5.568   1.773 -0.2009 -0.0596  0.4937
  555MOL0     C73190   1.634   5.556   1.885  0.1006  0.5759 -0.4230
  555MOL0     C73191   1.762   5.575   1.832 -1.3788  0.8971 -0.3470
  555MOL0     C73192   1.865   5.609   1.781 -0.4792  0.4050  0.1629
  555MOL0     C73193   1.092   5.775   1.816 -0.5522 -0.7677  0.9548
  555MOL0     C73194   0.999   5.822   1.914 -0.7691  0.4579 -0.1344
  555MOL0     H73195   0.718   6.074   2.259 -0.3568  1.2214  0.0450
  555MOL0     H73196   0.645   6.140   2.484  1.0520  3.8905  2.4916
  555MOL0     H73197   0.607   6.186   2.701 -2.0101  1.6581 -2.4918
  555MOL0     H73198   0.590   6.361   2.656 -1.2969 -0.3355  3.0296
  555MOL0     H73199   0.696   6.420   2.844  0.0966 -0.0152 -1.9742
  555MOL0     H73200   0.733   6.244   2.890 -0.0253  0.6378  2.0167
  555MOL0     H73201   0.474   6.206   2.878  4.1571 -2.7339 -2.8787
  555MOL0     H73202   0.468   6.374   2.852 -2.0305 -1.8962 -1.2361
  555MOL0     H73203   0.614   6.258   3.094 -0.8250 -0.6056 -0.4634
  555MOL0     H73204   0.563   6.420   3.080  0.6666  0.1914 -0.1050
  555MOL0     H73205   0.391   6.175   3.107  4.2931 -0.2003  0.3457
  555MOL0     H73206   0.331   6.336   3.045  1.2499  1.9718  0.0613
  555MOL0     H73207   0.385   6.445   3.240  0.8780  0.3282  1.2338
  555MOL0     H73208   0.456   6.290   3.316 -1.8805 -1.1326  2.0008
  555MOL0     H73209   0.174   6.381   3.288 -4.6862 -2.2971 -0.0509
  555MOL0     H73210   0.191   6.219   3.225  0.5414 -1.5343  1.0136
  555MOL0     H73211   0.276   6.297   3.513 -0.3259  0.0184  0.8428
  555MOL0     H73212   0.300   6.142   3.450 -1.5860  0.0201  3.6737
  555MOL0     H73213   0.038   6.379   3.574 -0.0253 -0.0318  1.1489
  555MOL0     H73214  -0.284   6.197   3.674  1.4962  0.1865 -0.4091
  555MOL0     H73215  -0.216   6.360   3.665  0.9327 -0.3172  1.5012
  555MOL0     H73216  -0.049   6.299   3.847 -2.5573  4.0933  1.2868
  555MOL0     H73217  -0.124   6.137   3.853 -3.8636 -1.2909 -0.8367
  555MOL0     H73218  -0.313   6.349   3.916 -1.2557 -1.1664  3.8625
  555MOL0     H73219  -0.285   6.183   3.976  2.5812 -0.9005 -0.5139
  555MOL0     H73220  -0.073   6.284   4.090  0.1894  0.0683  1.9932
  555MOL0     H73221  -0.235   6.346   4.149 -2.5848  2.8250 -2.0810
  555MOL0     H73222   0.015   6.664   3.888  1.9651  0.8023 -0.3521
  555MOL0     H73223   0.215   6.764   3.941 -0.1231  2.7889  3.1052
  555MOL0     H73224   0.651   6.785   4.212  1.5712  1.3492  2.2322
  555MOL0     H73225   0.805   6.937   4.269 -0.3290  0.9561  2.5031
  555MOL0     H73226   1.000   7.235   4.242 -1.4686  1.1289 -0.5879
  555MOL0     H73227   0.963   7.073   4.244 -0.6020 -0.0715  0.2124
  555MOL0     H73228   0.853   7.111   4.481 -1.1597 -0.4105  0.2909
  555MOL0     H73229   0.869   7.285   4.455 -0.4123 -0.3269 -1.3292
  555MOL0     H73230   1.107   7.270   4.481 -0.2714  0.2568 -1.4373
  555MOL0     H73231   1.096   7.097   4.478  0.5184  0.8671  0.0996
  555MOL0     H73232   1.149   7.223   4.700 -0.3466  0.5998  0.1282
  555MOL0     H73233   0.990   7.301   4.693 -0.9321  0.5849 -1.0941
  555MOL0     H73234   0.886   7.111   4.784  0.0428 -1.6789  1.6114
  555MOL0     H73235   1.030   7.123   4.856 -0.7245 -1.4404  0.8487
  555MOL0     H73236   1.118   6.940   4.700  0.1183  1.6969 -2.8791
  555MOL0     H73237   0.983   6.927   4.606  3.3255 -1.1720 -0.7588
  555MOL0     H73238   0.842   6.881   4.821 -0.3092 -0.9372 -1.2927
  555MOL0     H73239   0.916   6.756   4.735 -0.1534  0.4956  0.0098
  555MOL0     H73240   1.063   6.902   4.975  2.6016  0.0566  0.3455
  555MOL0     H73241   1.118   6.755   4.891  0.4029  0.6081  1.0404
  555MOL0     H73242   0.562   7.264   4.165  2.0419  0.4259  1.4809
  555MOL0     H73243   0.384   7.114   4.087  0.7408  0.1647 -2.5434
  555MOL0     H73244   0.267   6.458   4.247  1.9352 -1.2188 -1.0593
  555MOL0     H73245   0.077   6.357   4.174  2.8371  0.1065  1.5048
  555MOL0     H73246   1.017   6.259   2.595  0.2061  2.0966 -0.4045
  555MOL0     H73247   1.121   6.168   2.387  0.4827  0.8464  0.2090
  555MOL0     H73248   1.189   6.077   2.040 -0.9355 -0.3085  1.1792
  555MOL0     H73249   1.351   5.983   1.894  0.3512 -1.0436 -0.6946
  555MOL0     H73250   1.344   5.600   1.611 -0.6456 -1.0360 -0.2028
  555MOL0     H73251   1.209   5.582   1.706 -0.5503  1.7191 -0.2140
  555MOL0     H73252   1.370   5.625   1.904  2.4820 -1.1282  0.3550
  555MOL0     H73253   1.359   5.469   1.836  1.9641 -1.4217 -1.1664
  555MOL0     H73254   1.558   5.656   1.713  2.7788 -0.2410  1.1978
  555MOL0     H73255   1.539   5.479   1.711 -0.8551 -0.4883  1.0519
  555MOL0     H73256   1.603   5.620   1.968 -1.0968 -1.1103  0.5190
  555MOL0     H73257   1.637   5.455   1.928  2.1138 -0.7642 -3.3477
  555MOL0     H73258   1.956   5.642   1.734  0.9628  0.2788  2.6673
  555MOL0     H73259   1.057   5.714   1.733 -3.1767 -0.2072  1.5472
  555MOL0     H73260   0.893   5.800   1.907 -0.7499  0.0118  0.8154
  556MOL0     O73261   5.970   3.312   9.139 -0.3148 -0.1400  0.0001
  556MOL0     C73262   5.950   3.369   9.034  1.4967  0.5561  0.0240
  556MOL0     O73263   5.932   3.309   8.908 -0.8646  0.5256  0.4608
  556MOL0     C73264   5.962   3.175   8.901 -1.5335  0.1183  0.1956
  556MOL0     C73265   5.859   3.082   8.863 -0.5489  0.2013  0.3351
  556MOL0     C73266   5.896   2.948   8.858 -0.2464  0.2105  0.2215
  556MOL0     C73267   6.016   2.898   8.900 -0.0366  0.2986 -0.4454
  556MOL0     O73268   6.026   2.763   8.904  0.0904  0.2964 -0.6575
  556MOL0     C73269   6.142   2.689   8.955 -0.7539 -0.1306 -1.4270
  556MOL0     C73270   6.108   2.602   9.077 -0.1250 -0.7759 -0.0081
  556MOL0     C73271   6.228   2.504   9.103 -0.0756 -0.0455  0.3377
  556MOL0     C73272   6.203   2.398   9.207  0.0942 -0.4153  0.4161
  556MOL0     C73273   6.326   2.311   9.237  0.7015  0.2094 -0.5090
  556MOL0     C73274   6.291   2.234   9.363 -0.0612  0.4459  0.7405
  556MOL0     C73275   6.402   2.132   9.381 -0.2189  0.0874 -0.5883
  556MOL0     C73276   6.380   2.046   9.503 -0.6817 -0.3221 -0.0145
  556MOL0     N73277   6.486   1.941   9.518  0.0825 -0.5799  0.9151
  556MOL0     C73278   6.538   1.863   9.415  0.6153  0.6229  0.0698
  556MOL0     C73279   6.647   1.787   9.472  0.3297 -0.6033 -0.2215
  556MOL0     C73280   6.716   1.672   9.411  0.1551  0.9034  0.0524
  556MOL0     C73281   6.853   1.703   9.346 -0.1953  0.5776 -0.6390
  556MOL0     C73282   6.959   1.779   9.443  0.7137 -0.1289  0.0223
  556MOL0     C73283   6.996   1.717   9.583 -0.1354  1.3383 -0.5839
  556MOL0     O73284   7.135   1.672   9.584  0.8544  0.0339 -0.0645
  556MOL0     C73285   7.234   1.767   9.600 -0.8924  0.2504 -0.4184
  556MOL0     C73286   7.214   1.907   9.587 -0.9106 -0.3480 -0.3719
  556MOL0     C73287   7.318   1.993   9.572 -0.2841  0.0811 -0.2868
  556MOL0     C73288   7.456   1.953   9.563  0.3049  1.1560 -1.2912
  556MOL0     C73289   7.568   2.047   9.552  0.0268 -0.5064  0.5712
  556MOL0     O73290   7.536   2.176   9.564 -0.2612  0.1061  0.1686
  556MOL0     C73291   7.636   2.272   9.557 -0.0646 -0.1333 -0.6064
  556MOL0     C73292   7.627   2.379   9.638 -0.4391 -0.6387 -0.9617
  556MOL0     C73293   7.729   2.484   9.643 -0.0127 -0.2321  0.4336
  556MOL0     C73294   7.814   2.491   9.529 -0.2655  0.1839 -0.4639
  556MOL0     O73295   7.925   2.570   9.520  0.2045  0.1100  0.3487
  556MOL0     C73296   7.931   2.684   9.613 -0.5588 -0.1441 -0.1697
  556MOL0     C73297   8.080   2.716   9.623 -0.0411 -0.0101 -0.6367
  556MOL0     C73298   8.102   2.824   9.735  0.5566  0.7032  0.4616
  556MOL0     C73299   8.069   2.981   9.714 -0.2728 -0.2826  0.0871
  556MOL0     C73300   8.175   3.089   9.710  0.2577 -0.4751 -0.0771
  556MOL0     C73301   8.263   3.095   9.836 -0.4267 -0.2201 -0.4970
  556MOL0     C73302   8.178   3.156   9.954  0.4209  0.0693 -0.4702
  556MOL0     C73303   8.135   3.306   9.930 -0.3945 -0.1198  0.2719
  556MOL0    Cl73304   8.282   3.400   9.887  0.0457  0.4237 -0.0488
  556MOL0     C73305   7.814   2.383   9.446 -0.2320  0.0453  0.1225
  556MOL0     C73306   7.732   2.275   9.464  0.2300  0.1837  0.1742
  556MOL0     O73307   7.678   1.997   9.541 -1.2768  0.7030  0.4642
  556MOL0     C73308   7.477   1.814   9.587  0.1935 -0.2227  0.5834
  556MOL0     C73309   7.367   1.731   9.597 -0.7126 -0.0080 -0.2630
  556MOL0     N73310   6.642   1.816   9.611 -0.0995  0.2352  0.2474
  556MOL0     N73311   6.562   1.919   9.629  0.1651  0.4880 -0.3999
  556MOL0     C73312   6.119   2.993   8.926  0.3674 -0.7346  0.2846
  556MOL0     C73313   6.087   3.128   8.928  1.0242 -0.2004  0.0118
  556MOL0     C73314   5.926   3.515   9.046 -0.7124  0.1275  0.3984
  556MOL0     C73315   5.848   3.573   8.949  0.3020  0.4706 -0.6107
  556MOL0     C73316   5.829   3.711   8.948  0.1217  0.0026  0.2929
  556MOL0     C73317   5.909   3.793   9.035  0.1512  0.7006  1.1999
  556MOL0     O73318   5.912   3.932   9.024 -0.5118  0.0281  0.7631
  556MOL0     C73319   5.954   4.007   9.143 -0.8550 -0.8508  0.5479
  556MOL0     C73320   5.917   4.145   9.142 -0.4490  1.2493 -0.6724
  556MOL0     C73321   5.976   4.219   9.015 -0.2518 -0.4741  0.9525
  556MOL0     C73322   5.983   4.361   9.027 -0.6193 -0.1893 -0.0898
  556MOL0     C73323   6.094   4.414   9.114  0.2036  1.0026  1.1009
  556MOL0     C73324   6.187   4.447   9.176 -0.2083  0.1758 -0.2955
  556MOL0     C73325   5.990   3.729   9.131 -0.2559 -0.3973  0.6178
  556MOL0     C73326   5.997   3.589   9.141 -0.3057 -0.4845  0.6344
  556MOL0     H73327   5.761   3.123   8.843  0.3331  2.7071  0.7374
  556MOL0     H73328   5.825   2.880   8.812 -2.8124  2.7492  0.1158
  556MOL0     H73329   6.219   2.758   8.989 -1.4149  0.0567 -0.2820
  556MOL0     H73330   6.179   2.613   8.885  3.1284  0.8160 -0.6253
  556MOL0     H73331   6.020   2.544   9.049 -0.3996 -1.5282  2.1601
  556MOL0     H73332   6.081   2.669   9.159  1.3335  0.1105 -0.2188
  556MOL0     H73333   6.326   2.548   9.124 -0.2772 -0.0470  1.3074
  556MOL0     H73334   6.240   2.453   9.007  0.6321  0.0396  0.3692
  556MOL0     H73335   6.165   2.457   9.291 -2.9788 -1.7714  0.1135
  556MOL0     H73336   6.122   2.331   9.176  0.2359 -0.9629  1.2058
  556MOL0     H73337   6.412   2.374   9.262  2.9466 -1.8194 -2.5309
  556MOL0     H73338   6.332   2.244   9.151 -4.1261 -0.0794 -0.8879
  556MOL0     H73339   6.194   2.184   9.353 -1.3270  3.1009 -2.3872
  556MOL0     H73340   6.283   2.295   9.453  2.2056 -0.5015  1.6687
  556MOL0     H73341   6.406   2.070   9.290  2.0038  1.0994 -1.2342
  556MOL0     H73342   6.502   2.175   9.391 -0.7791  1.3858 -0.3825
  556MOL0     H73343   6.283   1.996   9.506 -1.0298  0.2385 -1.3947
  556MOL0     H73344   6.377   2.119   9.585  0.4691 -0.0554 -0.1966
  556MOL0     H73345   6.496   1.853   9.315  0.1129  1.0740  0.2323
  556MOL0     H73346   6.653   1.610   9.346 -0.5282 -0.3665  1.8162
  556MOL0     H73347   6.733   1.613   9.502  1.3934  2.7946  1.1071
  556MOL0     H73348   6.840   1.774   9.263  0.4304 -0.2760 -1.4913
  556MOL0     H73349   6.889   1.607   9.308 -1.0229 -0.7095  1.6194
  556MOL0     H73350   7.052   1.807   9.392 -0.8081  1.8762 -1.8573
  556MOL0     H73351   6.908   1.868   9.480 -2.2713 -2.2101  1.3161
  556MOL0     H73352   6.942   1.624   9.601  2.3207 -0.1655 -0.5883
  556MOL0     H73353   6.979   1.789   9.664  1.2267  0.3743  0.5924
  556MOL0     H73354   7.117   1.952   9.571 -0.8665  0.0861  0.5569
  556MOL0     H73355   7.295   2.099   9.561 -2.2952  0.1775  3.3579
  556MOL0     H73356   7.552   2.389   9.716 -0.8558  1.0151 -1.5534
  556MOL0     H73357   7.716   2.556   9.723  0.8041  1.1210 -0.6188
  556MOL0     H73358   7.886   2.658   9.709 -2.9706 -3.0130 -1.9083
  556MOL0     H73359   7.876   2.774   9.582  0.8956  2.1029  3.1587
  556MOL0     H73360   8.120   2.746   9.526  2.5239  0.2434  0.4287
  556MOL0     H73361   8.140   2.631   9.656  1.6222  1.0555 -0.8165
  556MOL0     H73362   8.209   2.818   9.758  0.4926 -0.8120  0.5296
  556MOL0     H73363   8.042   2.801   9.824 -1.2223  2.4489 -0.2102
  556MOL0     H73364   8.031   2.984   9.612  2.4035  1.2191 -0.9698
  556MOL0     H73365   7.993   3.005   9.789 -1.5626 -0.3857 -1.1558
  556MOL0     H73366   8.121   3.182   9.691  0.8100  0.0568  0.8686
  556MOL0     H73367   8.244   3.074   9.627 -0.0949  1.0408 -0.6920
  556MOL0     H73368   8.351   3.158   9.818 -0.2274 -0.3075  0.1421
  556MOL0     H73369   8.289   2.990   9.852 -2.0894 -1.0041 -2.5006
  556MOL0     H73370   8.098   3.091   9.989  2.9092 -1.6428  2.5084
  556MOL0     H73371   8.251   3.163  10.035 -2.4965  1.0584  2.2760
  556MOL0     H73372   8.078   3.339  10.018  2.2477 -1.6923  2.7279
  556MOL0     H73373   8.069   3.316   9.843 -1.3473 -1.4542  0.8156
  556MOL0     H73374   7.883   2.396   9.362  0.0008 -2.7340 -0.2232
  556MOL0     H73375   7.744   2.188   9.401 -0.7509  0.1922 -0.0354
  556MOL0     H73376   7.575   1.772   9.603 -0.2706 -0.8634  1.8873
  556MOL0     H73377   7.391   1.625   9.601  4.7634  0.8600 -1.7299
  556MOL0     H73378   6.218   2.956   8.949  0.5637  0.9059  2.3442
  556MOL0     H73379   6.166   3.194   8.961 -0.2521  2.2979 -1.5720
  556MOL0     H73380   5.803   3.524   8.864  0.3936  0.6188 -0.7431
  556MOL0     H73381   5.759   3.757   8.879 -3.7939 -1.8587  2.7206
  556MOL0     H73382   6.061   4.001   9.161  0.2662  4.0843 -2.4863
  556MOL0     H73383   5.903   3.957   9.225 -0.1246 -1.3625  0.6954
  556MOL0     H73384   5.807   4.145   9.142 -0.5624 -0.1968  2.4442
  556MOL0     H73385   5.932   4.199   9.236 -3.4120 -0.1729  0.7787
  556MOL0     H73386   5.917   4.197   8.926 -3.8917  0.7028  2.8986
  556MOL0     H73387   6.072   4.171   8.993 -0.1961 -1.1672  2.6089
  556MOL0     H73388   5.997   4.397   8.925  0.0550  0.9344  0.3748
  556MOL0     H73389   5.886   4.399   9.062 -0.0400  1.5839 -0.3281
  556MOL0     H73390   6.262   4.489   9.240  0.6430  0.2143 -1.3091
  556MOL0     H73391   6.048   3.781   9.207  1.4282 -0.2157 -0.7134
  556MOL0     H73392   6.061   3.541   9.213  4.1145 -0.7152 -2.9686
  557MOL0     O73393   4.690   7.105   4.077  0.1922 -0.4532  0.3190
  557MOL0     C73394   4.689   7.217   4.123 -0.2636 -0.0105  0.0123
  557MOL0     O73395   4.580   7.304   4.117 -0.1173  0.4063 -0.5153
  557MOL0     C73396   4.459   7.269   4.065 -0.0119  0.6991 -0.4133
  557MOL0     C73397   4.388   7.174   4.133 -0.2783 -0.5827  0.0498
  557MOL0     C73398   4.266   7.126   4.082  0.0548  0.3381 -1.0020
  557MOL0     C73399   4.198   7.206   3.991  0.1208  0.1250  0.4914
  557MOL0     O73400   4.071   7.181   3.939 -0.6945  0.1262  0.2200
  557MOL0     C73401   3.985   7.087   3.995  0.5553  1.0677 -0.4274
  557MOL0     C73402   3.897   7.134   4.120 -0.8120  0.5855  0.8691
  557MOL0     C73403   3.793   7.233   4.080 -1.0451 -0.9030 -0.7469
  557MOL0     C73404   3.860   7.375   4.049  0.1054  0.3693 -0.1476
  557MOL0     C73405   3.749   7.482   4.062  0.0891  1.0297 -0.5418
  557MOL0     C73406   3.822   7.613   4.060  0.2976 -0.1591 -0.9900
  557MOL0     C73407   3.726   7.729   4.096  0.2966 -0.2025  0.1675
  557MOL0     C73408   3.684   7.734   4.245  0.1898 -0.1131  0.1131
  557MOL0     N73409   3.599   7.850   4.275  0.5733  0.3852  1.0249
  557MOL0     C73410   3.467   7.856   4.224 -0.3428  0.3327  0.6608
  557MOL0     C73411   3.415   7.954   4.297 -0.2559  0.0210  0.0476
  557MOL0     C73412   3.274   7.995   4.268 -0.3692 -0.0185 -1.6485
  557MOL0     C73413   3.229   8.124   4.343 -0.1019  0.1905 -0.9799
  557MOL0     C73414   3.100   8.185   4.282  0.1685  0.0539  0.7644
  557MOL0     C73415   2.995   8.073   4.262 -1.5790 -0.1936  0.8231
  557MOL0     O73416   2.875   8.139   4.218  0.3582  0.7587  0.1001
  557MOL0     C73417   2.754   8.071   4.233  0.7729 -0.0938 -0.2485
  557MOL0     C73418   2.632   8.137   4.230 -0.5440 -0.4202 -0.0425
  557MOL0     C73419   2.508   8.072   4.227 -0.3481  0.2877  0.0877
  557MOL0     C73420   2.507   7.934   4.224  0.7111  0.0505  0.6789
  557MOL0     C73421   2.377   7.867   4.207  1.1272 -0.2676 -0.3605
  557MOL0     O73422   2.267   7.931   4.154 -0.5764 -0.6053 -0.0654
  557MOL0     C73423   2.147   7.866   4.150 -0.6374  0.5760  0.5044
  557MOL0     C73424   2.090   7.825   4.027 -0.3703  0.4958  0.1769
  557MOL0     C73425   1.978   7.740   4.023 -0.4415 -0.0486  0.6779
  557MOL0     C73426   1.914   7.698   4.142  0.3881  0.1678  0.8693
  557MOL0     O73427   1.799   7.622   4.130  0.7422  0.5891  0.3686
  557MOL0     C73428   1.723   7.599   4.248  0.2975  0.3612  0.0446
  557MOL0     C73429   1.606   7.508   4.217 -0.6862 -1.2908 -0.2914
  557MOL0     C73430   1.485   7.543   4.311 -1.4834  0.4292  0.1042
  557MOL0     C73431   1.495   7.496   4.457  1.0180  0.1140  0.0064
  557MOL0     C73432   1.446   7.348   4.484  0.3645 -0.1229  0.8690
  557MOL0     C73433   1.424   7.319   4.628  0.9224 -0.0725 -0.0538
  557MOL0     C73434   1.426   7.174   4.669 -0.0232  0.9476  0.0850
  557MOL0     C73435   1.407   7.141   4.820  0.4598  0.0984 -0.3261
  557MOL0    Cl73436   1.471   6.968   4.860 -0.3909 -0.1008  0.2406
  557MOL0     C73437   1.974   7.738   4.264 -0.4270  0.1170 -0.5629
  557MOL0     C73438   2.093   7.815   4.260  0.0967 -0.5523  0.0952
  557MOL0     O73439   2.373   7.751   4.243 -0.6539 -0.5572  0.1798
  557MOL0     C73440   2.627   7.858   4.226 -0.0377  0.8507  0.2150
  557MOL0     C73441   2.747   7.924   4.233 -0.4941 -0.4249  0.4521
  557MOL0     N73442   3.511   7.999   4.391  0.0658  0.2378  0.2936
  557MOL0     N73443   3.624   7.941   4.362  0.5919 -0.5663 -0.0379
  557MOL0     C73444   4.263   7.314   3.938  0.0738 -0.2330  0.2166
  557MOL0     C73445   4.393   7.340   3.959 -0.9889 -0.5983  0.1305
  557MOL0     C73446   4.806   7.255   4.200 -0.8915 -0.2847  0.5305
  557MOL0     C73447   4.874   7.380   4.169  1.1380  0.8313  0.8186
  557MOL0     C73448   4.976   7.423   4.248 -0.8509  0.2233 -0.2549
  557MOL0     C73449   5.021   7.333   4.354  0.3963 -1.2984  0.7011
  557MOL0     O73450   5.126   7.373   4.431  0.1411  0.1734 -0.5588
  557MOL0     C73451   5.235   7.281   4.409  1.0211  0.4971 -0.2190
  557MOL0     C73452   5.353   7.309   4.504  0.0301 -0.5555  0.0578
  557MOL0     C73453   5.458   7.381   4.422 -0.1070 -0.7061  0.8329
  557MOL0     C73454   5.435   7.534   4.405  0.1241 -0.1769  0.6936
  557MOL0     C73455   5.549   7.596   4.336  0.5655 -0.1955 -0.1661
  557MOL0     C73456   5.639   7.658   4.285  0.3913  0.5971  0.0722
  557MOL0     C73457   4.960   7.213   4.378 -0.4774 -0.2254 -0.6331
  557MOL0     C73458   4.851   7.168   4.304  0.2737  0.0195 -0.6816
  557MOL0     H73459   4.452   7.134   4.211  2.0371  0.7727 -1.0652
  557MOL0     H73460   4.211   7.050   4.136  1.9917  0.1336  0.8153
  557MOL0     H73461   4.046   7.002   4.025 -2.3092 -2.1541 -2.8279
  557MOL0     H73462   3.909   7.056   3.923 -0.8945 -0.8392  1.7846
  557MOL0     H73463   3.960   7.164   4.204  0.8989 -0.9381  0.1941
  557MOL0     H73464   3.853   7.037   4.146  2.2202 -1.1670 -0.0437
  557MOL0     H73465   3.713   7.229   4.155  0.2898  2.2519  1.0382
  557MOL0     H73466   3.766   7.195   3.982  0.6384 -1.4256 -1.0471
  557MOL0     H73467   3.948   7.395   4.110 -0.0713 -2.6868  1.3180
  557MOL0     H73468   3.907   7.387   3.951  0.8405  0.6874  0.2372
  557MOL0     H73469   3.696   7.467   4.156  1.7674 -1.8689  0.0512
  557MOL0     H73470   3.671   7.482   3.984 -0.8793  2.3561  0.3909
  557MOL0     H73471   3.866   7.624   3.961  1.1699  2.7125 -0.3676
  557MOL0     H73472   3.914   7.603   4.118  0.1016  3.2247  0.0914
  557MOL0     H73473   3.771   7.825   4.069  1.6433 -1.5290 -2.7978
  557MOL0     H73474   3.636   7.716   4.035 -0.6104  4.1542  0.2475
  557MOL0     H73475   3.777   7.745   4.301  0.6516  1.2983 -0.8971
  557MOL0     H73476   3.615   7.652   4.270 -1.1104  0.3218 -1.8141
  557MOL0     H73477   3.421   7.794   4.147  0.7352 -0.8322  0.9227
  557MOL0     H73478   3.213   7.914   4.309  1.4009  0.4254  2.3123
  557MOL0     H73479   3.259   8.011   4.161  3.4924  3.6573 -1.8784
  557MOL0     H73480   3.318   8.187   4.346 -0.3656  0.5774 -1.2268
  557MOL0     H73481   3.212   8.087   4.445  1.7818 -0.4086 -0.8477
  557MOL0     H73482   3.067   8.276   4.332 -0.3139  0.1225  0.3243
  557MOL0     H73483   3.127   8.222   4.182 -1.3269 -2.0796 -0.5153
  557MOL0     H73484   2.966   8.031   4.359 -1.0653 -2.4690  0.0721
  557MOL0     H73485   3.037   7.998   4.195  1.2466  1.9515  0.0286
  557MOL0     H73486   2.642   8.242   4.253  0.8591 -1.1415  3.1714
  557MOL0     H73487   2.429   8.146   4.233 -0.8101 -0.2558  0.8102
  557MOL0     H73488   2.148   7.865   3.944  1.8937  1.4290  2.0880
  557MOL0     H73489   1.938   7.700   3.930  0.7422 -0.4029  0.2980
  557MOL0     H73490   1.683   7.700   4.259  1.8580  1.0498 -0.4798
  557MOL0     H73491   1.787   7.560   4.328 -0.1952  1.5552  1.0502
  557MOL0     H73492   1.629   7.402   4.230  0.3755 -1.6342 -3.7538
  557MOL0     H73493   1.579   7.513   4.111  0.7858  0.1311 -0.6448
  557MOL0     H73494   1.402   7.488   4.265  0.0442 -0.7980 -1.2959
  557MOL0     H73495   1.452   7.647   4.299 -0.2062  0.6672 -1.7187
  557MOL0     H73496   1.592   7.514   4.503  0.0560  2.5070  1.3123
  557MOL0     H73497   1.420   7.551   4.515 -1.5450 -1.3976 -1.6606
  557MOL0     H73498   1.523   7.286   4.435  1.1966  0.8274  0.9324
  557MOL0     H73499   1.354   7.325   4.429  0.9766  0.9393 -0.6801
  557MOL0     H73500   1.336   7.367   4.672  1.7933 -1.5092  3.6513
  557MOL0     H73501   1.514   7.351   4.683  2.2138 -2.6834 -0.5216
  557MOL0     H73502   1.360   7.108   4.612  1.9532 -2.1095  1.0945
  557MOL0     H73503   1.524   7.139   4.635  1.0186  3.6702  0.0171
  557MOL0     H73504   1.305   7.153   4.858 -0.0305 -2.4435 -0.7019
  557MOL0     H73505   1.463   7.219   4.873 -1.4171 -1.2133  4.0562
  557MOL0     H73506   1.952   7.692   4.360  2.8983  1.6523  1.1146
  557MOL0     H73507   2.136   7.849   4.354 -2.7999  2.1326  0.6363
  557MOL0     H73508   2.616   7.750   4.227  1.9729  0.5954 -0.6432
  557MOL0     H73509   2.827   7.853   4.219  1.0047  1.3906 -0.7505
  557MOL0     H73510   4.208   7.382   3.874  0.1011 -0.0835  0.3535
  557MOL0     H73511   4.454   7.423   3.927  2.9079 -3.0174  0.6800
  557MOL0     H73512   4.845   7.428   4.076 -1.2602 -2.3953 -0.2591
  557MOL0     H73513   5.016   7.524   4.243  0.4450 -0.2107  0.6662
  557MOL0     H73514   5.259   7.306   4.305 -1.5342 -1.6764 -1.4591
  557MOL0     H73515   5.195   7.179   4.412 -1.6114  1.4892  2.4217
  557MOL0     H73516   5.330   7.379   4.585  1.7914  2.0620 -1.5552
  557MOL0     H73517   5.388   7.214   4.545 -0.3432 -2.3716 -3.4621
  557MOL0     H73518   5.463   7.340   4.321 -0.3373  1.2608 -0.0210
  557MOL0     H73519   5.557   7.368   4.466  0.6315  1.6123  0.0143
  557MOL0     H73520   5.338   7.548   4.355  0.0301  2.5589  1.4646
  557MOL0     H73521   5.414   7.585   4.499 -3.0021 -0.8258  0.4572
  557MOL0     H73522   5.709   7.726   4.242 -0.8995  0.3999 -2.4879
  557MOL0     H73523   4.988   7.153   4.464 -1.6527  2.6105  1.9260
  557MOL0     H73524   4.805   7.071   4.320 -1.7390  0.6327 -2.2572
  558MOL0     O73525   7.648   7.743   3.348  0.1191  0.1902 -0.4278
  558MOL0     C73526   7.643   7.724   3.225 -0.2826  1.1075 -0.1652
  558MOL0     O73527   7.759   7.692   3.157 -0.3190 -0.2920  0.0655
  558MOL0     C73528   7.876   7.699   3.218  0.2524 -0.1140  0.5802
  558MOL0     C73529   7.959   7.587   3.199 -0.1436  0.0620 -0.0626
  558MOL0     C73530   8.088   7.582   3.264 -0.6730 -0.1292  0.1579
  558MOL0     C73531   8.132   7.686   3.350 -0.1711  0.0405 -0.4915
  558MOL0     O73532   8.246   7.656   3.411  1.1028 -0.0213 -0.1070
  558MOL0     C73533   8.330   7.755   3.474  0.6830 -0.4237 -0.5713
  558MOL0     C73534   8.412   7.841   3.374 -0.2484  0.0456  0.1161
  558MOL0     C73535   8.547   7.776   3.345 -0.8580 -0.0017  0.2981
  558MOL0     C73536   8.644   7.874   3.281  0.3383  0.3938 -0.6413
  558MOL0     C73537   8.792   7.823   3.272  0.7482 -0.2369 -0.5755
  558MOL0     C73538   8.899   7.936   3.264 -0.4184  0.8774 -0.0854
  558MOL0     C73539   9.029   7.872   3.266  0.3743  0.5728  0.3269
  558MOL0     C73540   9.143   7.955   3.225 -0.5548 -0.0869 -0.1224
  558MOL0     N73541   9.173   8.068   3.315 -0.7143 -0.9880  0.2838
  558MOL0     C73542   9.087   8.184   3.346 -0.8813  0.1748 -0.8407
  558MOL0     C73543   9.148   8.245   3.450 -0.6262  0.8387 -0.2140
  558MOL0     C73544   9.099   8.379   3.517  0.2839 -0.2767 -0.4912
  558MOL0     C73545   9.187   8.501   3.527  0.8459  0.8339  0.1121
  558MOL0     C73546   9.256   8.533   3.396  0.0788  0.2950 -0.7733
  558MOL0     C73547   9.162   8.599   3.286  0.3716  0.4122  0.3768
  558MOL0     O73548   9.221   8.720   3.231  0.3580  0.4956 -0.1859
  558MOL0     C73549   9.147   8.834   3.249  0.7061 -0.0360 -0.0450
  558MOL0     C73550   9.219   8.949   3.305  0.9027  0.8155  0.3617
  558MOL0     C73551   9.157   9.068   3.325 -0.1046 -0.2530 -0.2176
  558MOL0     C73552   9.020   9.080   3.302  0.1494  0.0555 -0.3096
  558MOL0     C73553   8.948   9.210   3.333  0.2899 -0.6646  0.0778
  558MOL0     O73554   9.025   9.294   3.404  0.8855 -0.1116 -0.1113
  558MOL0     C73555   8.986   9.412   3.463  0.5419  0.1402 -0.4049
  558MOL0     C73556   8.855   9.457   3.479  0.4651  0.2971  0.1164
  558MOL0     C73557   8.833   9.581   3.536 -0.4809 -0.2364  0.0312
  558MOL0     C73558   8.932   9.671   3.570  1.1362  1.0642  0.6188
  558MOL0     O73559   8.893   9.786   3.634  0.2781  0.2822  0.4011
  558MOL0     C73560   8.975   9.900   3.636  0.4128 -0.3902  0.5194
  558MOL0     C73561   8.950   9.981   3.504  0.0504  0.2694  0.7901
  558MOL0     C73562   8.803  10.015   3.478 -0.3063 -0.9797  0.3996
  558MOL0     C73563   8.781  10.114   3.351  0.4996 -0.4527  0.2614
  558MOL0     C73564   8.630  10.145   3.327  0.3414  0.0147  0.2037
  558MOL0     C73565   8.569  10.029   3.237  0.3861  0.6856  1.0369
  558MOL0     C73566   8.444  10.082   3.160  0.4483  0.4585 -0.3309
  558MOL0     C73567   8.333  10.078   3.266 -0.1151  0.0457  0.5898
  558MOL0    Cl73568   8.187  10.160   3.204 -0.1248 -0.2917  0.3159
  558MOL0     C73569   9.058   9.626   3.552 -0.1650 -0.3562  0.5513
  558MOL0     C73570   9.087   9.501   3.493 -0.1080 -1.0252  0.4015
  558MOL0     O73571   8.830   9.214   3.305  0.0238  0.3561 -0.0490
  558MOL0     C73572   8.950   8.973   3.244 -0.8537 -0.3516  0.3080
  558MOL0     C73573   9.015   8.849   3.225  0.7906  0.7822 -0.3720
  558MOL0     N73574   9.257   8.166   3.494 -0.7114  0.1384  0.1662
  558MOL0     N73575   9.267   8.060   3.417  0.5805  0.4355 -0.3319
  558MOL0     C73576   8.049   7.798   3.376 -0.4197  0.5030 -0.2183
  558MOL0     C73577   7.921   7.802   3.310 -0.2254  0.4354 -0.3137
  558MOL0     C73578   7.511   7.719   3.150 -0.3322  0.4978 -0.6607
  558MOL0     C73579   7.515   7.707   3.017  0.4478  0.2474  0.1155
  558MOL0     C73580   7.402   7.707   2.936 -0.3750  1.4020 -0.2219
  558MOL0     C73581   7.281   7.697   2.994  0.6014  0.5134 -0.1218
  558MOL0     O73582   7.178   7.684   2.911 -0.3280 -0.0138  0.3577
  558MOL0     C73583   7.047   7.705   2.970 -0.5104  0.7887  0.2437
  558MOL0     C73584   6.940   7.707   2.858  0.7700  0.0536  0.1023
  558MOL0     C73585   6.929   7.586   2.761 -0.9551  0.9015  0.9142
  558MOL0     C73586   6.880   7.461   2.835  0.5283  0.0388 -0.0616
  558MOL0     C73587   6.854   7.345   2.738 -0.2988 -1.2338 -0.6782
  558MOL0     C73588   6.836   7.255   2.661  0.7613  0.3628 -0.3562
  558MOL0     C73589   7.273   7.710   3.133 -0.1520  0.1232 -1.0859
  558MOL0     C73590   7.392   7.732   3.207  0.0034 -0.4316 -0.1631
  558MOL0     H73591   7.929   7.509   3.129 -1.6287 -1.0523  1.7367
  558MOL0     H73592   8.145   7.491   3.248  0.0834  0.1093  1.3400
  558MOL0     H73593   8.407   7.708   3.536 -0.4854 -0.8430  0.5921
  558MOL0     H73594   8.268   7.827   3.527 -1.2656  0.0994 -3.3419
  558MOL0     H73595   8.430   7.941   3.417 -2.2262  1.6744 -2.5195
  558MOL0     H73596   8.361   7.870   3.282  1.0914  1.7422 -0.1556
  558MOL0     H73597   8.529   7.695   3.273  2.5402 -1.5744  0.9928
  558MOL0     H73598   8.586   7.742   3.441 -1.6742  1.2117  1.0878
  558MOL0     H73599   8.607   7.904   3.182 -3.2321 -1.7827 -0.1727
  558MOL0     H73600   8.657   7.963   3.343 -2.9607  1.3254 -1.0951
  558MOL0     H73601   8.801   7.774   3.175 -0.6612  1.9394 -1.8886
  558MOL0     H73602   8.814   7.766   3.363 -0.6795  0.0061 -0.0425
  558MOL0     H73603   8.899   7.997   3.354 -2.2918 -0.2788  0.7503
  558MOL0     H73604   8.879   8.001   3.178 -0.9721  1.4947  0.4979
  558MOL0     H73605   9.056   7.823   3.360  3.6330 -1.4988 -1.5099
  558MOL0     H73606   9.025   7.792   3.192 -1.3181  2.3564 -1.6256
  558MOL0     H73607   9.117   7.990   3.124 -1.0113  3.2975  1.0276
  558MOL0     H73608   9.235   7.898   3.211 -0.7052 -0.8401  1.7614
  558MOL0     H73609   8.996   8.224   3.301 -0.4892  1.5112 -0.4906
  558MOL0     H73610   9.048   8.355   3.611 -0.6663  2.9628 -0.0726
  558MOL0     H73611   9.012   8.418   3.463  1.7531  1.1160 -1.9455
  558MOL0     H73612   9.256   8.488   3.612 -0.1975  4.1724  1.6224
  558MOL0     H73613   9.133   8.590   3.559 -0.1190 -0.1004  1.1778
  558MOL0     H73614   9.341   8.596   3.424  1.6844 -1.1448 -2.1442
  558MOL0     H73615   9.306   8.442   3.360  1.1167  0.6161 -0.1834
  558MOL0     H73616   9.057   8.604   3.314  0.0050 -2.9204 -0.0278
  558MOL0     H73617   9.145   8.527   3.205  0.0109  0.1924  0.6455
  558MOL0     H73618   9.322   8.928   3.330  1.0380 -1.6355 -1.7394
  558MOL0     H73619   9.206   9.142   3.387  0.0021 -0.3018 -0.2436
  558MOL0     H73620   8.772   9.391   3.456 -0.1418  1.7643 -2.2286
  558MOL0     H73621   8.729   9.608   3.545 -0.1150  0.8253  1.4588
  558MOL0     H73622   9.077   9.869   3.662 -0.2273 -2.1862  0.9983
  558MOL0     H73623   8.936   9.972   3.709 -1.9017 -2.1736  1.1456
  558MOL0     H73624   8.980   9.921   3.417  2.2245  0.6147  1.2378
  558MOL0     H73625   9.012  10.071   3.496  0.8212 -0.3984 -2.4601
  558MOL0     H73626   8.766  10.074   3.563 -1.7226  1.1746 -1.5895
  558MOL0     H73627   8.732   9.932   3.474  0.1495 -1.4429  1.4872
  558MOL0     H73628   8.831  10.209   3.374 -2.6785  2.1320 -2.4116
  558MOL0     H73629   8.828  10.077   3.260 -2.8243 -1.1338 -1.3407
  558MOL0     H73630   8.632  10.243   3.278 -2.7258 -0.7178 -1.6581
  558MOL0     H73631   8.577  10.165   3.421 -3.5448 -1.0352 -1.5676
  558MOL0     H73632   8.541   9.954   3.312 -3.5944  2.9621  2.1425
  558MOL0     H73633   8.638   9.989   3.163 -0.3574  1.2111  0.0368
  558MOL0     H73634   8.466  10.184   3.124  3.1171  0.2076  0.3926
  558MOL0     H73635   8.416  10.015   3.078 -1.6620  2.5210 -1.4243
  558MOL0     H73636   8.374  10.119   3.359  3.9071  1.0305 -1.4181
  558MOL0     H73637   8.312   9.974   3.293 -2.4464  0.3623  0.1825
  558MOL0     H73638   9.149   9.683   3.570 -0.1046  0.9509 -3.0195
  558MOL0     H73639   9.194   9.479   3.494  0.8562  2.8812 -1.0476
  558MOL0     H73640   8.841   8.975   3.239 -0.8006  1.3907 -1.1388
  558MOL0     H73641   8.958   8.765   3.188 -0.7882  0.9359  1.5591
  558MOL0     H73642   8.081   7.880   3.440 -0.5583 -0.6350  1.3659
  558MOL0     H73643   7.862   7.888   3.339 -0.0204  0.6037 -0.3963
  558MOL0     H73644   7.606   7.705   2.958  0.5114 -2.6622  0.1711
  558MOL0     H73645   7.401   7.710   2.827  0.5023  1.9011 -0.2173
  558MOL0     H73646   7.049   7.800   3.024  0.2514  1.5660 -1.0877
  558MOL0     H73647   7.016   7.621   3.033 -2.4066  1.3349  0.0892
  558MOL0     H73648   6.843   7.706   2.908  1.4911 -1.7596  1.5927
  558MOL0     H73649   6.945   7.797   2.797  0.5769 -0.6487 -0.9946
  558MOL0     H73650   7.029   7.574   2.720 -1.3733  1.3166 -0.2800
  558MOL0     H73651   6.875   7.613   2.670  0.1143  2.8520  0.8033
  558MOL0     H73652   6.954   7.435   2.911  0.9838  0.9610 -0.1774
  558MOL0     H73653   6.786   7.493   2.882 -0.3273  1.7318 -2.6864
  558MOL0     H73654   6.831   7.171   2.595  0.2129 -0.8484  1.1524
  558MOL0     H73655   7.184   7.702   3.194  2.7057 -0.3769  3.4549
  558MOL0     H73656   7.375   7.741   3.314 -2.0274 -2.6546 -0.1986
  559MOL0     O73657   1.136   6.271   9.297 -0.3510  0.5294  0.6088
  559MOL0     C73658   1.185   6.382   9.275 -0.1164 -0.7467  0.3120
  559MOL0     O73659   1.263   6.413   9.163  0.2309 -0.5354  0.7057
  559MOL0     C73660   1.293   6.311   9.086 -0.4882 -0.2388  0.1683
  559MOL0     C73661   1.432   6.282   9.059  0.1690 -0.2438  1.6564
  559MOL0     C73662   1.477   6.201   8.957  0.1858  0.8742 -0.3270
  559MOL0     C73663   1.368   6.146   8.882 -0.8667  0.8152  0.0943
  559MOL0     O73664   1.402   6.066   8.776 -0.2000 -0.0442 -0.2247
  559MOL0     C73665   1.465   5.942   8.817  0.4638  0.9719 -0.2457
  559MOL0     C73666   1.523   5.855   8.706  0.0531 -0.5412 -0.3420
  559MOL0     C73667   1.587   5.715   8.757 -0.0605 -0.0411 -0.0377
  559MOL0     C73668   1.737   5.684   8.731 -0.6404  0.3050  0.6145
  559MOL0     C73669   1.806   5.783   8.818 -0.6929  0.0975 -0.3084
  559MOL0     C73670   1.959   5.749   8.808  0.0724 -0.5096 -0.3593
  559MOL0     C73671   2.040   5.859   8.874 -1.6862 -0.4090 -0.0078
  559MOL0     C73672   2.192   5.836   8.845  1.1128  0.3446 -0.5487
  559MOL0     N73673   2.278   5.924   8.919 -0.2719  0.3980 -0.2275
  559MOL0     C73674   2.299   5.908   9.056  0.0919  0.1172 -0.0411
  559MOL0     C73675   2.386   6.003   9.087  0.0079  0.5281  0.2609
  559MOL0     C73676   2.459   6.033   9.224  0.2593 -0.6874 -0.2742
  559MOL0     C73677   2.414   5.951   9.343  0.0528 -0.4912  1.1027
  559MOL0     C73678   2.294   6.003   9.422 -0.0720 -0.2986 -0.1240
  559MOL0     C73679   2.174   6.029   9.339  0.1657 -0.1929  0.5335
  559MOL0     O73680   2.116   5.908   9.286  0.3800  0.4495 -0.2379
  559MOL0     C73681   2.006   5.846   9.352  0.1524 -0.7149 -1.0102
  559MOL0     C73682   1.965   5.876   9.485  0.3066  0.4878  0.9997
  559MOL0     C73683   1.856   5.803   9.536 -0.5233  0.3344 -0.7575
  559MOL0     C73684   1.778   5.716   9.466  0.0085  0.3858 -0.2936
  559MOL0     C73685   1.656   5.650   9.526  0.9351 -0.4152  0.9930
  559MOL0     O73686   1.643   5.647   9.655  0.5042 -0.3164 -0.2856
  559MOL0     C73687   1.527   5.614   9.720  1.0864  0.3616 -0.5885
  559MOL0     C73688   1.435   5.517   9.687 -0.0189 -1.1308  0.0485
  559MOL0     C73689   1.326   5.480   9.769 -0.4688  0.3627 -0.9395
  559MOL0     C73690   1.305   5.545   9.894 -0.1041  0.3246  0.1217
  559MOL0     O73691   1.197   5.512   9.983 -0.1807  0.8098  0.8590
  559MOL0     C73692   1.094   5.413   9.948 -0.3596  1.1967  0.4293
  559MOL0     C73693   0.986   5.429  10.061 -0.0734 -0.0575 -0.1264
  559MOL0     C73694   0.892   5.307  10.072 -0.8408  0.0201 -0.5342
  559MOL0     C73695   0.766   5.308   9.984 -0.1198 -0.4827 -0.2890
  559MOL0     C73696   0.663   5.419  10.006 -0.1150 -0.5099  0.3289
  559MOL0     C73697   0.618   5.456  10.136 -0.3627  0.3365 -0.3791
  559MOL0     C73698   0.509   5.566  10.154  0.0705 -0.3575  0.2121
  559MOL0     C73699   0.374   5.523  10.098 -0.4521 -0.9768  0.3909
  559MOL0    Cl73700   0.312   5.392  10.189  0.2754 -0.2158  0.0493
  559MOL0     C73701   1.392   5.642   9.925  0.4762 -0.9762  0.0966
  559MOL0     C73702   1.498   5.679   9.836 -0.4969 -0.7609  0.3859
  559MOL0     O73703   1.576   5.599   9.442 -0.0033 -0.2801 -0.5819
  559MOL0     C73704   1.818   5.689   9.335  0.2490 -0.0326 -0.4197
  559MOL0     C73705   1.936   5.752   9.279 -0.3426 -0.6691  0.5433
  559MOL0     N73706   2.422   6.075   8.974  0.1002  0.0599 -1.4483
  559MOL0     N73707   2.357   6.028   8.874  0.2154 -1.0105  0.4385
  559MOL0     C73708   1.233   6.155   8.915  0.8046  0.3560  0.2098
  559MOL0     C73709   1.189   6.236   9.024 -0.1905  0.5838  0.3564
  559MOL0     C73710   1.143   6.491   9.361 -0.3862  0.6101 -0.5128
  559MOL0     C73711   1.011   6.493   9.418  0.1211  0.1382 -0.8793
  559MOL0     C73712   0.979   6.600   9.502 -0.0119  0.8077 -0.2071
  559MOL0     C73713   1.070   6.698   9.522  0.3967 -0.1633  0.9999
  559MOL0     O73714   1.046   6.816   9.594  0.6966  0.5367 -0.3252
  559MOL0     C73715   0.950   6.795   9.710 -0.7648 -0.5458 -0.3686
  559MOL0     C73716   0.850   6.901   9.721  0.7995 -0.0809  0.6194
  559MOL0     C73717   0.928   7.035   9.713  0.6619 -0.0825 -0.3734
  559MOL0     C73718   0.834   7.150   9.752 -0.4556 -0.7593  0.8946
  559MOL0     C73719   0.902   7.282   9.760  0.4048  0.4304 -0.2539
  559MOL0     C73720   0.946   7.395   9.764 -0.6740  0.1574 -0.1480
  559MOL0     C73721   1.193   6.696   9.450  0.5406 -0.1477 -0.4618
  559MOL0     C73722   1.231   6.599   9.382 -0.5044  0.8144 -0.0632
  559MOL0     H73723   1.499   6.356   9.101 -0.6147  1.3636  0.2092
  559MOL0     H73724   1.579   6.187   8.923  0.3502  0.4727  0.3215
  559MOL0     H73725   1.386   5.885   8.867  0.0428  1.0857 -0.7745
  559MOL0     H73726   1.550   5.943   8.886 -0.1051 -2.5346  0.7026
  559MOL0     H73727   1.596   5.923   8.663 -0.3585  0.1894  0.1044
  559MOL0     H73728   1.455   5.837   8.623  0.5526 -0.0746 -0.8608
  559MOL0     H73729   1.523   5.639   8.712  0.0755 -0.1018 -0.1301
  559MOL0     H73730   1.564   5.714   8.864 -0.3373 -4.0409  0.0190
  559MOL0     H73731   1.755   5.580   8.762 -2.4132 -0.1202  0.3460
  559MOL0     H73732   1.759   5.697   8.625 -2.0019  2.0031  0.5063
  559MOL0     H73733   1.760   5.787   8.918 -0.9065  1.8546 -0.4540
  559MOL0     H73734   1.808   5.881   8.771  1.2697 -1.5609 -4.0565
  559MOL0     H73735   1.997   5.743   8.705  2.9897 -3.3390  0.6964
  559MOL0     H73736   1.967   5.650   8.853 -2.8119  0.3082  2.2284
  559MOL0     H73737   2.024   5.956   8.827  3.7056  0.7034 -0.2111
  559MOL0     H73738   2.018   5.868   8.980 -0.0228 -0.4402  0.3670
  559MOL0     H73739   2.211   5.862   8.740 -2.2041 -0.3727 -1.4579
  559MOL0     H73740   2.218   5.731   8.863 -1.4795  0.2084  3.7383
  559MOL0     H73741   2.257   5.832   9.121 -0.8087  3.3547  3.5193
  559MOL0     H73742   2.431   6.137   9.245 -0.7976 -0.4430 -2.5683
  559MOL0     H73743   2.564   6.007   9.204  0.3225 -0.6832  0.0566
  559MOL0     H73744   2.497   5.945   9.414  0.4246  1.6965  0.9197
  559MOL0     H73745   2.402   5.848   9.309  1.9815 -0.3262 -0.2517
  559MOL0     H73746   2.281   5.939   9.509 -1.9854  0.5538  0.2780
  559MOL0     H73747   2.322   6.099   9.468  0.5795 -1.0806  1.1581
  559MOL0     H73748   2.190   6.107   9.263  1.1932 -0.3499  0.5632
  559MOL0     H73749   2.101   6.076   9.406 -2.6760 -1.6432 -1.3680
  559MOL0     H73750   2.012   5.952   9.546 -2.0289  2.7189  0.2008
  559MOL0     H73751   1.833   5.820   9.641  0.4919  0.7083 -0.5802
  559MOL0     H73752   1.444   5.479   9.586 -5.5139 -1.8823 -0.4484
  559MOL0     H73753   1.254   5.410   9.727  0.2441 -0.8708 -0.1611
  559MOL0     H73754   1.132   5.310   9.951 -0.6762  1.0737  0.2004
  559MOL0     H73755   1.044   5.441   9.856 -4.1971  0.8724  2.2196
  559MOL0     H73756   0.929   5.522  10.049 -0.0525 -0.2339 -1.7671
  559MOL0     H73757   1.045   5.453  10.150 -3.7686  2.7960  1.8405
  559MOL0     H73758   0.854   5.285  10.172 -2.5113  1.2963 -0.8394
  559MOL0     H73759   0.950   5.220  10.042  2.7028  0.7821  3.1623
  559MOL0     H73760   0.794   5.315   9.879  0.3369  0.4075 -0.1214
  559MOL0     H73761   0.722   5.209   9.993 -1.5452 -0.0217 -1.7648
  559MOL0     H73762   0.581   5.401   9.936 -0.8113  0.8341  0.7665
  559MOL0     H73763   0.719   5.508   9.977 -0.0499 -0.8908 -0.7869
  559MOL0     H73764   0.702   5.487  10.198 -2.3127  0.3319  2.4798
  559MOL0     H73765   0.576   5.365  10.182  1.9235 -1.0329 -0.8265
  559MOL0     H73766   0.491   5.604  10.255  0.6679  0.7728 -0.0947
  559MOL0     H73767   0.537   5.646  10.086 -0.0743 -0.3120  0.2064
  559MOL0     H73768   0.385   5.500   9.991 -0.0674 -0.6696  0.3642
  559MOL0     H73769   0.302   5.605  10.102 -1.4806 -1.8262  0.0046
  559MOL0     H73770   1.363   5.692  10.017  1.4355 -0.4818  0.1489
  559MOL0     H73771   1.565   5.763   9.850 -0.1227 -0.6476 -1.7484
  559MOL0     H73772   1.771   5.608   9.281 -0.7946  0.4340 -0.2305
  559MOL0     H73773   1.966   5.723   9.179 -0.1915 -1.0957  0.7052
  559MOL0     H73774   1.162   6.096   8.857 -0.5721  2.0357  0.1016
  559MOL0     H73775   1.089   6.246   9.066  0.8612 -0.8191  3.5199
  559MOL0     H73776   0.945   6.407   9.406  1.0087 -0.8848  1.1162
  559MOL0     H73777   0.877   6.600   9.539  0.0034 -1.2455 -0.0853
  559MOL0     H73778   1.015   6.793   9.798  0.2293 -2.0609 -1.0834
  559MOL0     H73779   0.900   6.697   9.714  0.0213 -1.0638 -2.2674
  559MOL0     H73780   0.784   6.887   9.635  0.7556 -0.8688  0.7664
  559MOL0     H73781   0.788   6.888   9.810 -1.3231  0.4467 -0.7111
  559MOL0     H73782   0.964   7.054   9.612  0.0690  1.5073 -0.3149
  559MOL0     H73783   1.011   7.029   9.785 -0.1326 -2.3558  0.4493
  559MOL0     H73784   0.751   7.161   9.682  0.9060 -2.3640 -1.0863
  559MOL0     H73785   0.794   7.116   9.848 -4.8788  2.7176  0.5734
  559MOL0     H73786   0.987   7.491   9.785  0.3603 -0.3712  0.3779
  559MOL0     H73787   1.257   6.782   9.468 -0.6666  0.9363 -1.1549
  559MOL0     H73788   1.328   6.606   9.335  0.2395 -2.0447  0.8772
  560MOL0     O73789   9.205  10.635   9.931 -0.6729 -0.5830  0.3468
  560MOL0     C73790   9.305  10.684   9.868 -0.2223 -0.1908 -0.8018
  560MOL0     O73791   9.410  10.608   9.821 -0.4384 -1.2701 -0.4214
  560MOL0     C73792   9.423  10.479   9.872 -0.3925  0.3419  0.4347
  560MOL0     C73793   9.407  10.436  10.002 -0.4563  0.0050  0.1376
  560MOL0     C73794   9.440  10.308  10.045  0.4242  0.5498 -0.0588
  560MOL0     C73795   9.508  10.217   9.964 -0.4912 -0.2858  0.9125
  560MOL0     O73796   9.560  10.105  10.035  0.1832 -0.9533 -1.2490
  560MOL0     C73797   9.604   9.990   9.960  0.8807 -0.3763 -0.3274
  560MOL0     C73798   9.630   9.860  10.041 -0.0725 -0.4371 -0.6147
  560MOL0     C73799   9.721   9.878  10.164 -0.7144  0.2044  0.2931
  560MOL0     C73800   9.833   9.972  10.157  0.0756  0.9151  0.6463
  560MOL0     C73801   9.912   9.968  10.285 -0.6604  0.2226 -0.9019
  560MOL0     C73802   9.865  10.083  10.371 -0.1643  0.7175  0.6386
  560MOL0     C73803   9.913  10.072  10.517 -0.0531 -0.5627  0.2014
  560MOL0     C73804   9.794  10.036  10.603  0.7748  0.5079 -0.7401
  560MOL0     N73805   9.763   9.894  10.612 -0.3878  0.3170  0.4387
  560MOL0     C73806   9.676   9.836  10.523  0.5313 -0.3923 -0.2969
  560MOL0     C73807   9.691   9.704  10.550 -0.2553  0.2875  0.5163
  560MOL0     C73808   9.603   9.599  10.478  0.1795 -0.2524 -0.3739
  560MOL0     C73809   9.674   9.465  10.480 -0.2738  0.3792  0.1532
  560MOL0     C73810   9.613   9.361  10.375 -0.2595  0.1277 -0.6447
  560MOL0     C73811   9.678   9.219  10.395 -0.3162 -0.3168  0.6834
  560MOL0     O73812   9.649   9.124  10.291 -0.1984 -0.4261  0.0429
  560MOL0     C73813   9.516   9.077  10.293 -0.6238  0.6553  0.3564
  560MOL0     C73814   9.479   8.995  10.182 -0.7571 -0.0707 -0.2568
  560MOL0     C73815   9.353   8.930  10.166 -0.5076 -0.3856 -0.2598
  560MOL0     C73816   9.257   8.942  10.268  0.0876 -0.7869  0.5028
  560MOL0     C73817   9.122   8.873  10.251 -0.8240 -0.6873 -0.8527
  560MOL0     O73818   9.109   8.795  10.137  0.1241  0.7211  0.1071
  560MOL0     C73819   8.984   8.744  10.099 -0.4524 -0.4297 -0.3233
  560MOL0     C73820   8.860   8.806  10.117 -0.3191 -0.7030 -0.6202
  560MOL0     C73821   8.739   8.745  10.088  0.2327 -0.7137  0.3924
  560MOL0     C73822   8.747   8.621  10.024  0.8005 -0.1719 -0.7373
  560MOL0     O73823   8.623   8.554  10.008  0.2898 -0.2207 -0.2892
  560MOL0     C73824   8.607   8.445   9.916  0.7990  0.6250  0.3874
  560MOL0     C73825   8.589   8.515   9.786  0.2122  0.0270  0.2347
  560MOL0     C73826   8.572   8.414   9.668 -0.4694 -0.2251  0.1154
  560MOL0     C73827   8.554   8.490   9.536 -0.1671 -0.5170 -1.1224
  560MOL0     C73828   8.573   8.409   9.414  0.2700 -0.5611  0.5585
  560MOL0     C73829   8.550   8.491   9.279 -0.3856 -0.2233 -0.5502
  560MOL0     C73830   8.642   8.435   9.161 -0.3223  0.0775 -0.8816
  560MOL0     C73831   8.603   8.506   9.031  0.5597 -0.1624 -0.4552
  560MOL0    Cl73832   8.698   8.452   8.888 -0.6556 -0.1686 -0.5993
  560MOL0     C73833   8.870   8.562   9.989 -0.1399  0.3748 -0.5774
  560MOL0     C73834   8.986   8.617  10.033 -0.2180 -0.2734 -0.7350
  560MOL0     O73835   9.034   8.893  10.339  0.5201 -0.7934  0.2245
  560MOL0     C73836   9.287   9.027  10.384 -0.0631  0.5746  0.1659
  560MOL0     C73837   9.414   9.087  10.392  0.5123  0.5353  0.2275
  560MOL0     N73838   9.794   9.681  10.638 -0.0475  0.3079 -0.8453
  560MOL0     N73839   9.840   9.793  10.664 -0.1511 -0.1053  0.6929
  560MOL0     C73840   9.511  10.257   9.828  0.2733 -0.7482  0.3806
  560MOL0     C73841   9.467  10.383   9.787 -0.0258  0.3810  0.8927
  560MOL0     C73842   9.309  10.832   9.854 -0.6405  0.5591 -0.1242
  560MOL0     C73843   9.210  10.919   9.917 -0.4992 -0.3120 -0.1127
  560MOL0     C73844   9.211  11.053   9.896 -0.4049  0.0668  0.5006
  560MOL0     C73845   9.312  11.118   9.825  0.0544  0.3474 -0.5945
  560MOL0     O73846   9.330  11.255   9.803  0.4179 -0.1440  0.0274
  560MOL0     C73847   9.291  11.313   9.672  0.0545 -0.3095 -0.4503
  560MOL0     C73848   9.344  11.460   9.662 -0.8444  0.3454 -0.3276
  560MOL0     C73849   9.331  11.529   9.532  0.6622  0.3027  0.6308
  560MOL0     C73850   9.308  11.676   9.550 -1.4046 -0.0820  0.3633
  560MOL0     C73851   9.327  11.737   9.421 -0.5527 -0.6073  0.6532
  560MOL0     C73852   9.342  11.770   9.306 -1.6155 -1.2044 -0.9775
  560MOL0     C73853   9.412  11.043   9.774 -0.7384 -0.3573 -0.0934
  560MOL0     C73854   9.413  10.901   9.784 -0.2573  0.7443  0.0187
  560MOL0     H73855   9.381  10.503  10.083 -0.3455 -0.0739  0.2399
  560MOL0     H73856   9.432  10.276  10.149 -2.3004 -0.7244 -0.5802
  560MOL0     H73857   9.706  10.010   9.925  1.2356  1.6574  1.6232
  560MOL0     H73858   9.532   9.982   9.879 -0.3293 -0.9851  0.7762
  560MOL0     H73859   9.679   9.789   9.973 -0.1387  0.6346 -1.8232
  560MOL0     H73860   9.533   9.814  10.063  0.2635 -0.0297  1.9351
  560MOL0     H73861   9.765   9.782  10.192 -3.3305 -1.2014 -0.0487
  560MOL0     H73862   9.651   9.912  10.240  1.5275  1.5302  1.8672
  560MOL0     H73863   9.895   9.930  10.077 -0.0243 -1.2657  1.6443
  560MOL0     H73864   9.791  10.070  10.133 -2.5201 -0.6193 -1.4909
  560MOL0     H73865  10.018   9.985  10.265 -0.9712  3.2297 -0.5284
  560MOL0     H73866   9.897   9.867  10.324 -4.2924  0.8728 -0.2718
  560MOL0     H73867   9.755  10.081  10.373 -0.1621  1.0907  1.0893
  560MOL0     H73868   9.904  10.178  10.332 -0.0267  0.3176 -0.2257
  560MOL0     H73869   9.988   9.994  10.534 -2.7025 -3.8421 -1.7310
  560MOL0     H73870   9.953  10.165  10.558  1.6453 -1.7063  1.2950
  560MOL0     H73871   9.704  10.090  10.574  0.2684  0.6822  1.0437
  560MOL0     H73872   9.826  10.074  10.701  2.2829 -1.7204 -0.2835
  560MOL0     H73873   9.607   9.882  10.452  1.5812 -1.0642 -1.8158
  560MOL0     H73874   9.585   9.627  10.374  3.3363  2.0625 -0.4595
  560MOL0     H73875   9.510   9.592  10.535  0.1928 -1.9202 -0.4933
  560MOL0     H73876   9.654   9.425  10.580  1.3609  1.4803  0.9617
  560MOL0     H73877   9.782   9.475  10.463 -0.4972 -0.4494 -2.0638
  560MOL0     H73878   9.504   9.363  10.379 -0.2150  0.3066  0.6129
  560MOL0     H73879   9.631   9.400  10.274 -2.9336  0.3144 -1.1094
  560MOL0     H73880   9.638   9.173  10.486  0.5062 -3.1736 -0.3181
  560MOL0     H73881   9.784   9.239  10.414 -0.7280  1.6303  1.1965
  560MOL0     H73882   9.554   8.999  10.103 -1.6059 -0.3101 -1.0893
  560MOL0     H73883   9.324   8.873  10.078 -2.9561 -0.5424  0.5754
  560MOL0     H73884   8.877   8.902  10.165  0.9944 -1.8973  1.4764
  560MOL0     H73885   8.651   8.801  10.118  2.7203  2.4390  2.4402
  560MOL0     H73886   8.514   8.393   9.941 -1.1004  3.1139 -1.0039
  560MOL0     H73887   8.690   8.374   9.916 -1.4554 -2.2365 -1.8767
  560MOL0     H73888   8.679   8.572   9.761  0.3903 -0.2710  0.1920
  560MOL0     H73889   8.510   8.590   9.778  2.7049  2.6657 -1.4178
  560MOL0     H73890   8.487   8.347   9.682 -1.2525  0.5662 -0.6960
  560MOL0     H73891   8.662   8.353   9.652  1.3649  2.1589  0.7207
  560MOL0     H73892   8.449   8.520   9.540 -0.6536 -2.2759  1.1726
  560MOL0     H73893   8.617   8.580   9.530 -1.9674  0.7594 -1.5013
  560MOL0     H73894   8.509   8.321   9.406 -0.1513 -0.1147 -2.0770
  560MOL0     H73895   8.676   8.373   9.406 -0.2882 -2.8957  2.6790
  560MOL0     H73896   8.560   8.599   9.290 -3.2979 -0.0479  1.2508
  560MOL0     H73897   8.447   8.479   9.244 -0.9309  1.5819  0.3587
  560MOL0     H73898   8.741   8.475   9.186 -0.2984  1.8436 -3.4071
  560MOL0     H73899   8.644   8.326   9.158 -2.4239 -0.0505  0.5634
  560MOL0     H73900   8.620   8.613   9.042  5.3307 -0.8791  1.5587
  560MOL0     H73901   8.500   8.479   9.007  0.0462  1.7467 -0.5208
  560MOL0     H73902   8.889   8.467   9.940  1.7648  0.9804 -1.1113
  560MOL0     H73903   9.089   8.581  10.028 -0.1450 -0.4956  1.4930
  560MOL0     H73904   9.214   9.046  10.463  3.3091  0.3136  3.6746
  560MOL0     H73905   9.437   9.147  10.480  1.5008  1.0911 -0.3985
  560MOL0     H73906   9.550  10.180   9.761 -2.7835 -2.3884  0.2690
  560MOL0     H73907   9.475  10.409   9.682  0.4693  1.4966  1.1966
  560MOL0     H73908   9.126  10.873   9.969  0.4888 -0.0063  1.8459
  560MOL0     H73909   9.138  11.119   9.941 -1.3713 -0.2116 -0.6151
  560MOL0     H73910   9.185  11.306   9.648  0.1386 -1.5236 -0.5012
  560MOL0     H73911   9.336  11.262   9.586 -1.4485 -1.4652 -0.5720
  560MOL0     H73912   9.293  11.518   9.739  4.5346  2.6971  1.9435
  560MOL0     H73913   9.451  11.469   9.682 -0.6749  0.1048 -1.1039
  560MOL0     H73914   9.249  11.483   9.477  1.0164  1.9044 -1.3855
  560MOL0     H73915   9.421  11.512   9.472  1.6964  3.1797  1.2151
  560MOL0     H73916   9.203  11.696   9.573 -1.8444 -1.2759 -0.5229
  560MOL0     H73917   9.377  11.728   9.617 -1.2024  0.6284 -0.3841
  560MOL0     H73918   9.377  11.810   9.212 -1.0017  2.1460  0.5101
  560MOL0     H73919   9.491  11.095   9.720 -0.8209  0.0266  0.1540
  560MOL0     H73920   9.488  10.833   9.743  1.7263  1.1099  2.7581
  561MOL0     O73921   9.647   6.196   7.653  0.1227 -0.9224 -0.1428
  561MOL0     C73922   9.699   6.269   7.739 -0.0131  0.3347 -0.3966
  561MOL0     O73923   9.830   6.326   7.741  0.1610 -0.7066  0.9686
  561MOL0     C73924   9.932   6.294   7.659 -0.6072  0.1514  0.4205
  561MOL0     C73925   9.945   6.172   7.586 -0.3636  0.4908  1.0219
  561MOL0     C73926  10.051   6.158   7.493 -0.1142 -0.3180 -0.0209
  561MOL0     C73927  10.148   6.261   7.478 -0.3768 -0.1889 -0.0072
  561MOL0     O73928  10.240   6.248   7.375  1.0255  0.2790 -0.4086
  561MOL0     C73929  10.330   6.363   7.340  0.5957 -0.8808 -0.5643
  561MOL0     C73930  10.452   6.323   7.263 -0.1668 -0.4495 -0.0849
  561MOL0     C73931  10.430   6.285   7.114  0.0424 -0.4097  0.2205
  561MOL0     C73932  10.390   6.412   7.030  0.6338  0.3213  0.1278
  561MOL0     C73933  10.375   6.364   6.877 -0.1881  0.2076 -0.4034
  561MOL0     C73934  10.329   6.478   6.787 -0.3754  0.0797 -0.1814
  561MOL0     C73935  10.307   6.421   6.650 -0.0555 -0.5168  0.3679
  561MOL0     C73936  10.301   6.536   6.529 -0.6941  1.0255 -0.4651
  561MOL0     N73937  10.192   6.511   6.431 -1.0613  0.4088 -0.0110
  561MOL0     C73938  10.184   6.586   6.314  0.2966 -0.5739  0.4052
  561MOL0     C73939  10.120   6.513   6.220  1.0229 -0.8223  0.1138
  561MOL0     C73940  10.071   6.560   6.080  0.6395 -0.2437 -0.1232
  561MOL0     C73941   9.926   6.590   6.097 -1.2317  0.5633  0.4223
  561MOL0     C73942   9.870   6.649   5.969  0.5080  0.4057  0.2273
  561MOL0     C73943   9.733   6.731   5.991  0.6826 -0.2313 -0.2475
  561MOL0     O73944   9.727   6.860   5.938  0.8041 -0.3062  0.6101
  561MOL0     C73945   9.712   6.874   5.802  0.7740 -0.4034 -0.1505
  561MOL0     C73946   9.704   6.767   5.707 -0.4927 -0.2230 -0.0086
  561MOL0     C73947   9.719   6.798   5.571 -0.4698 -0.0179 -0.6212
  561MOL0     C73948   9.721   6.935   5.527 -0.2705  0.1478  0.8155
  561MOL0     C73949   9.729   6.963   5.383  0.4082 -0.2509  0.6638
  561MOL0     O73950   9.690   6.870   5.291  0.0786  1.2041  0.5318
  561MOL0     C73951   9.721   6.879   5.155  0.3525  0.2239  0.8791
  561MOL0     C73952   9.610   6.906   5.061 -0.6233 -0.9685 -0.7231
  561MOL0     C73953   9.647   6.944   4.926  0.5354  0.7977  0.1314
  561MOL0     C73954   9.780   6.956   4.879  0.3610 -0.3161  0.9067
  561MOL0     O73955   9.815   6.979   4.745 -0.1988 -0.3422  0.0720
  561MOL0     C73956   9.826   7.120   4.720  0.3120  0.4849 -0.4772
  561MOL0     C73957   9.839   7.148   4.568  0.5387 -0.4850  0.4458
  561MOL0     C73958   9.798   7.294   4.530 -0.3268  0.6992 -0.5601
  561MOL0     C73959   9.788   7.306   4.376 -0.5921 -0.2526  0.8244
  561MOL0     C73960   9.705   7.438   4.332  0.0399  1.6816 -0.5802
  561MOL0     C73961   9.632   7.411   4.201 -1.1486 -0.3830 -0.3672
  561MOL0     C73962   9.616   7.539   4.114  0.2773  0.2025  0.1441
  561MOL0     C73963   9.477   7.594   4.078 -0.6192  0.5340 -0.8174
  561MOL0    Cl73964   9.379   7.510   3.954  0.1286  0.0413  0.2315
  561MOL0     C73965   9.878   6.921   4.971 -1.2898  0.9580  0.7329
  561MOL0     C73966   9.852   6.878   5.099  0.4472 -0.1638 -0.1074
  561MOL0     O73967   9.771   7.075   5.351 -0.3450  0.2311  0.2506
  561MOL0     C73968   9.705   7.035   5.616 -0.3614  0.5725 -0.7467
  561MOL0     C73969   9.699   7.002   5.751  1.1647  0.6804  0.2275
  561MOL0     N73970  10.097   6.391   6.281 -0.1189 -0.1537 -0.3055
  561MOL0     N73971  10.150   6.382   6.398 -0.5053 -1.0745  0.1558
  561MOL0     C73972  10.144   6.370   7.569 -0.5034  0.9249  0.0046
  561MOL0     C73973  10.036   6.386   7.650 -0.7619  0.0195 -0.4183
  561MOL0     C73974   9.591   6.316   7.835 -0.1286 -0.8372  0.5181
  561MOL0     C73975   9.458   6.278   7.837 -0.4388 -0.2201 -0.5347
  561MOL0     C73976   9.363   6.332   7.927  0.0569 -0.1308 -1.2097
  561MOL0     C73977   9.404   6.419   8.027 -0.0422  0.5029 -1.4623
  561MOL0     O73978   9.318   6.468   8.126  0.6048 -0.0182  0.1334
  561MOL0     C73979   9.214   6.372   8.169  0.2330 -0.9714 -0.0906
  561MOL0     C73980   9.118   6.419   8.280  0.6772 -0.2873  0.6077
  561MOL0     C73981   9.010   6.511   8.223  0.9590 -0.3868  0.3938
  561MOL0     C73982   8.938   6.583   8.352  0.4476  1.1208 -0.6605
  561MOL0     C73983   8.905   6.488   8.459  0.3331 -0.5502 -0.3519
  561MOL0     C73984   8.883   6.408   8.549 -0.7709 -0.6606 -0.3517
  561MOL0     C73985   9.533   6.454   8.031 -0.4142  0.1590  0.4112
  561MOL0     C73986   9.631   6.409   7.944  0.0370  0.7597 -0.0894
  561MOL0     H73987   9.860   6.105   7.589 -0.0573  0.1156  1.5610
  561MOL0     H73988  10.051   6.073   7.425 -0.8774  0.7553 -1.4178
  561MOL0     H73989  10.365   6.424   7.423  0.2956 -0.7054 -0.5649
  561MOL0     H73990  10.272   6.428   7.274 -2.2298 -2.3550  0.2767
  561MOL0     H73991  10.492   6.235   7.315 -0.0090  0.3979  1.2584
  561MOL0     H73992  10.525   6.404   7.260 -0.5126 -0.1740 -1.6821
  561MOL0     H73993  10.344   6.218   7.111  1.1871 -1.8915 -0.3108
  561MOL0     H73994  10.523   6.255   7.065  0.9021 -1.2884  2.2512
  561MOL0     H73995  10.294   6.450   7.067  1.0324  0.9994  0.4643
  561MOL0     H73996  10.460   6.496   7.032  1.7742 -0.5127 -1.6158
  561MOL0     H73997  10.310   6.276   6.883  0.6258 -0.3977 -0.1991
  561MOL0     H73998  10.473   6.332   6.840 -0.1142 -0.7972  0.5982
  561MOL0     H73999  10.405   6.556   6.778  1.2792 -1.3925  0.3847
  561MOL0     H74000  10.240   6.535   6.816  1.2138  1.1999  2.8511
  561MOL0     H74001  10.381   6.348   6.616 -0.1327 -1.5544  2.3291
  561MOL0     H74002  10.217   6.360   6.655  1.1798 -2.7711 -2.3909
  561MOL0     H74003  10.401   6.551   6.486  0.8445 -3.5587  0.9353
  561MOL0     H74004  10.270   6.630   6.576 -0.6909  1.1498 -0.7091
  561MOL0     H74005  10.213   6.690   6.311 -5.0257  1.2676  1.7328
  561MOL0     H74006  10.084   6.483   6.004 -0.1972  1.2360 -1.8610
  561MOL0     H74007  10.141   6.636   6.044  3.2038 -1.6165  1.7173
  561MOL0     H74008   9.915   6.667   6.173 -1.7920  0.0411  0.8815
  561MOL0     H74009   9.867   6.503   6.128 -3.4444  2.4494  1.8982
  561MOL0     H74010   9.943   6.725   5.940 -1.5821  2.2694 -0.3669
  561MOL0     H74011   9.853   6.569   5.896  1.9649 -1.9737  2.3175
  561MOL0     H74012   9.719   6.747   6.098 -3.8261  1.4452 -0.8838
  561MOL0     H74013   9.640   6.683   5.959 -2.2851  5.2455 -1.1826
  561MOL0     H74014   9.706   6.663   5.738  2.5555 -0.9120 -2.0544
  561MOL0     H74015   9.728   6.716   5.502 -0.5052 -0.3420 -0.2422
  561MOL0     H74016   9.511   6.905   5.106 -1.9070 -1.3371 -3.3642
  561MOL0     H74017   9.557   6.963   4.869  1.2278  1.7997 -0.6584
  561MOL0     H74018   9.921   7.143   4.768 -0.4928  3.4400 -0.1234
  561MOL0     H74019   9.739   7.175   4.757 -0.5851  1.9418 -4.3042
  561MOL0     H74020   9.784   7.077   4.505  0.5813 -0.4901  0.4133
  561MOL0     H74021   9.944   7.153   4.537  0.4294 -1.4409 -0.1410
  561MOL0     H74022   9.856   7.378   4.570 -2.2901  1.2367  1.3380
  561MOL0     H74023   9.699   7.312   4.572 -0.5069 -0.6564 -0.3730
  561MOL0     H74024   9.893   7.317   4.348 -0.6262 -0.7031  0.5057
  561MOL0     H74025   9.745   7.220   4.324  0.1557  0.4736 -1.0973
  561MOL0     H74026   9.775   7.521   4.318 -0.0096  2.0258  0.9717
  561MOL0     H74027   9.637   7.478   4.408  1.9532  2.2929  0.8985
  561MOL0     H74028   9.534   7.367   4.223 -1.0895 -1.0421 -1.3654
  561MOL0     H74029   9.700   7.343   4.150  1.6311  1.1370  1.1046
  561MOL0     H74030   9.681   7.623   4.142  1.3304  0.8001 -3.6031
  561MOL0     H74031   9.661   7.521   4.016 -2.7205  2.7646 -1.8963
  561MOL0     H74032   9.492   7.698   4.049 -2.6483  1.6551  1.7497
  561MOL0     H74033   9.427   7.608   4.174  0.1272 -1.1128 -0.1516
  561MOL0     H74034   9.983   6.936   4.946 -0.7860  1.6557  3.0550
  561MOL0     H74035   9.935   6.856   5.166 -1.9739 -0.4760  2.9976
  561MOL0     H74036   9.717   7.142   5.598  2.6354  0.8797  2.0698
  561MOL0     H74037   9.697   7.075   5.832 -0.3830  1.0888 -0.1420
  561MOL0     H74038  10.215   6.451   7.580  3.7224 -1.8049 -3.7098
  561MOL0     H74039  10.043   6.484   7.697  0.0911  0.0269 -0.5483
  561MOL0     H74040   9.420   6.226   7.749  2.6518  0.4347 -2.4304
  561MOL0     H74041   9.265   6.293   7.904  0.8829 -3.5532  0.4061
  561MOL0     H74042   9.254   6.281   8.217 -0.1032 -1.6208 -1.0098
  561MOL0     H74043   9.155   6.342   8.082 -0.9298  2.0498 -0.4488
  561MOL0     H74044   9.062   6.332   8.316 -0.2628 -0.6673 -1.6143
  561MOL0     H74045   9.161   6.475   8.363 -2.6522  1.7673  1.1198
  561MOL0     H74046   8.939   6.452   8.166  0.5421  0.8296 -0.4011
  561MOL0     H74047   9.057   6.592   8.164  2.0827  0.0073  1.7746
  561MOL0     H74048   9.010   6.657   8.386  2.4703 -0.3689 -1.4980
  561MOL0     H74049   8.855   6.641   8.310 -1.5938  0.6442  2.3874
  561MOL0     H74050   8.844   6.366   8.640 -0.1774  1.5192  0.9829
  561MOL0     H74051   9.549   6.525   8.111 -0.8244  1.8110 -0.9283
  561MOL0     H74052   9.733   6.447   7.947  0.7475 -1.0183 -0.4810
  562MOL0     O74053   6.644   9.106   9.153  0.1031 -1.2559 -0.4111
  562MOL0     C74054   6.559   9.088   9.243  1.2714 -0.4461 -1.1368
  562MOL0     O74055   6.567   9.133   9.374 -0.0062 -0.1071 -0.8584
  562MOL0     C74056   6.670   9.222   9.408 -0.3629  0.5786 -0.2262
  562MOL0     C74057   6.796   9.194   9.468  0.3183  0.4368 -0.5637
  562MOL0     C74058   6.884   9.299   9.514  0.5189 -0.8311  0.4658
  562MOL0     C74059   6.850   9.436   9.496  0.5435  0.0837  0.2643
  562MOL0     O74060   6.924   9.528   9.555  0.0232 -0.0558 -0.8822
  562MOL0     C74061   7.016   9.588   9.469 -0.3026 -0.6423  0.0384
  562MOL0     C74062   7.154   9.608   9.535 -0.6352  0.1293 -0.4606
  562MOL0     C74063   7.239   9.721   9.471  0.8414 -0.4479  0.4534
  562MOL0     C74064   7.379   9.769   9.520  0.9143 -0.4354  0.2767
  562MOL0     C74065   7.394   9.766   9.667 -0.0924 -0.2388  1.1658
  562MOL0     C74066   7.529   9.808   9.723  0.7361 -0.0159  0.8849
  562MOL0     C74067   7.545   9.967   9.723 -0.1496 -0.3669  0.6887
  562MOL0     C74068   7.673  10.003   9.786 -0.5313 -0.4235 -0.6841
  562MOL0     N74069   7.801   9.953   9.735 -0.3824 -0.4526 -1.4749
  562MOL0     C74070   7.882   9.854   9.798 -0.8864 -0.1516 -0.1832
  562MOL0     C74071   7.987   9.836   9.713 -0.1968 -0.1457 -0.8070
  562MOL0     C74072   8.098   9.733   9.737  0.1227  0.4433  0.1699
  562MOL0     C74073   8.200   9.721   9.616  0.4480  0.1824 -0.5391
  562MOL0     C74074   8.273   9.848   9.560  0.6109 -0.2576  0.3788
  562MOL0     C74075   8.338   9.826   9.435  0.1928 -0.4580  0.1421
  562MOL0     O74076   8.412   9.936   9.381 -0.2139  0.7777 -0.3125
  562MOL0     C74077   8.366   9.990   9.272  0.5638  0.0145  0.3537
  562MOL0     C74078   8.256  10.086   9.283  0.6665  0.8659  0.4297
  562MOL0     C74079   8.206  10.148   9.170  0.4580 -0.1963 -0.1432
  562MOL0     C74080   8.236  10.102   9.041  0.1798 -0.1236  0.5482
  562MOL0     C74081   8.164  10.156   8.919  0.0007  0.4280 -1.1308
  562MOL0     O74082   8.202  10.106   8.797  0.7715 -0.1582  0.7496
  562MOL0     C74083   8.130  10.169   8.697 -0.5755  0.9518  0.3004
  562MOL0     C74084   8.138  10.304   8.669 -0.3508 -0.7412 -0.0282
  562MOL0     C74085   8.068  10.362   8.573  0.4029 -0.0294  0.3939
  562MOL0     C74086   7.975  10.287   8.493 -1.4101 -0.6805 -0.0958
  562MOL0     O74087   7.897  10.347   8.396 -0.2256  1.0757  0.3122
  562MOL0     C74088   7.840  10.477   8.424  0.1518  0.2369  0.1452
  562MOL0     C74089   7.686  10.478   8.377 -0.2053  0.0207  0.2118
  562MOL0     C74090   7.585  10.403   8.466  0.8265  0.3360  0.0215
  562MOL0     C74091   7.549  10.495   8.586 -0.0700 -0.6366 -0.7903
  562MOL0     C74092   7.460  10.418   8.688  1.1662 -0.5370  0.6752
  562MOL0     C74093   7.317  10.397   8.625 -0.8069  0.7281 -0.8419
  562MOL0     C74094   7.230  10.519   8.600 -1.6264 -0.4660  0.2519
  562MOL0     C74095   7.197  10.602   8.725  0.0161  0.5918  0.1780
  562MOL0    Cl74096   7.112  10.505   8.853 -0.1863 -0.1122 -0.0024
  562MOL0     C74097   7.969  10.150   8.506  0.2872 -0.0187 -0.5235
  562MOL0     C74098   8.040  10.097   8.621  0.8065  0.6122 -0.0784
  562MOL0     O74099   8.065  10.229   8.946 -0.1961  0.0913 -0.3108
  562MOL0     C74100   8.350  10.013   9.033 -0.0561  0.1036  0.3274
  562MOL0     C74101   8.412   9.952   9.147 -0.5606  0.5249 -0.4568
  562MOL0     N74102   7.969   9.926   9.614  0.2481 -0.3553  0.3350
  562MOL0     N74103   7.860   9.999   9.625  0.5353  0.3860  0.1184
  562MOL0     C74104   6.730   9.469   9.432 -0.0652 -0.3192 -0.9637
  562MOL0     C74105   6.644   9.367   9.382 -0.3855 -0.5358 -0.1462
  562MOL0     C74106   6.454   8.985   9.219 -0.0902  0.0388 -1.0658
  562MOL0     C74107   6.454   8.917   9.101  0.3939 -0.0425  0.6540
  562MOL0     C74108   6.357   8.819   9.086  0.6819 -0.0994  0.0003
  562MOL0     C74109   6.257   8.787   9.180  0.6092  0.8897 -0.1921
  562MOL0     O74110   6.164   8.690   9.147 -0.2104  0.0650 -0.0994
  562MOL0     C74111   6.167   8.572   9.238 -0.3947 -0.5040 -0.6895
  562MOL0     C74112   6.281   8.480   9.217  0.2651 -1.0490 -1.0696
  562MOL0     C74113   6.295   8.369   9.319 -0.7032  0.9692 -0.4471
  562MOL0     C74114   6.344   8.238   9.256  0.1263  0.3265  0.0328
  562MOL0     C74115   6.345   8.123   9.352 -0.0149  0.4995 -0.5402
  562MOL0     C74116   6.353   8.034   9.440 -0.3116  0.4305 -0.1638
  562MOL0     C74117   6.268   8.853   9.302  0.5831 -0.3763  0.4594
  562MOL0     C74118   6.368   8.947   9.321  0.5559 -0.1930  0.6629
  562MOL0     H74119   6.824   9.091   9.484 -1.2688 -0.0418 -0.7290
  562MOL0     H74120   6.979   9.267   9.557  1.0864 -0.8599 -0.7667
  562MOL0     H74121   6.973   9.683   9.437 -5.0986 -2.3934  0.4566
  562MOL0     H74122   7.026   9.513   9.390 -3.4860 -1.7403  0.5291
  562MOL0     H74123   7.198   9.509   9.519 -1.7124 -1.1937  3.5957
  562MOL0     H74124   7.137   9.628   9.641 -2.3729 -1.4917 -0.3718
  562MOL0     H74125   7.178   9.811   9.460  1.4858 -0.2578 -2.2044
  562MOL0     H74126   7.256   9.686   9.369 -0.0659 -1.1835  0.5334
  562MOL0     H74127   7.456   9.701   9.483 -0.8615 -2.2273 -0.2542
  562MOL0     H74128   7.406   9.862   9.469  1.2818 -0.5332  0.2891
  562MOL0     H74129   7.390   9.662   9.701  0.2834 -0.1417  1.5005
  562MOL0     H74130   7.300   9.809   9.704 -3.0439 -3.8464 -1.3844
  562MOL0     H74131   7.610   9.764   9.664 -0.9546  0.0128 -1.5958
  562MOL0     H74132   7.542   9.774   9.826  2.8903  0.7686  0.9229
  562MOL0     H74133   7.536  10.014   9.624 -0.2747 -0.1259  0.8119
  562MOL0     H74134   7.462  10.008   9.781 -0.2251 -1.0996  1.1083
  562MOL0     H74135   7.668   9.964   9.889 -2.6806  2.6386  0.5452
  562MOL0     H74136   7.660  10.110   9.801 -2.6900 -0.7714  0.4567
  562MOL0     H74137   7.867   9.790   9.884 -2.2251 -2.5863 -2.0952
  562MOL0     H74138   8.060   9.632   9.754 -0.9768  0.2519 -2.7905
  562MOL0     H74139   8.155   9.761   9.825  4.2247 -1.9758 -1.4732
  562MOL0     H74140   8.156   9.663   9.535  1.4130  0.5020 -1.3154
  562MOL0     H74141   8.277   9.664   9.670  1.0234  0.2958 -1.2229
  562MOL0     H74142   8.191   9.918   9.547  0.9421  0.2324  0.8539
  562MOL0     H74143   8.343   9.896   9.630 -1.0980  0.8555  1.3817
  562MOL0     H74144   8.246   9.806   9.380 -0.7074  2.1233  0.6081
  562MOL0     H74145   8.389   9.729   9.430 -1.2378 -1.2232 -0.1849
  562MOL0     H74146   8.208  10.091   9.380  4.0333 -1.2108  2.3894
  562MOL0     H74147   8.132  10.225   9.185  1.7620  0.7471  1.9396
  562MOL0     H74148   8.195  10.372   8.731 -1.5944  1.7805 -1.5159
  562MOL0     H74149   8.098  10.464   8.552  1.5469  0.5622  4.1089
  562MOL0     H74150   7.897  10.552   8.369 -2.0917  1.1863 -1.0083
  562MOL0     H74151   7.842  10.503   8.531 -3.8551 -3.2563  1.3099
  562MOL0     H74152   7.690  10.446   8.272  1.5933  3.7719 -1.0473
  562MOL0     H74153   7.648  10.581   8.376 -0.7195 -0.1069  2.2348
  562MOL0     H74154   7.617  10.303   8.495  0.8145  1.6199  5.6406
  562MOL0     H74155   7.494  10.405   8.405  1.7842  1.7728 -1.4540
  562MOL0     H74156   7.642  10.529   8.633 -1.2926  1.8847 -0.0097
  562MOL0     H74157   7.506  10.592   8.558  1.4463  1.2700  2.7222
  562MOL0     H74158   7.449  10.483   8.776 -0.9206  2.2891 -1.4560
  562MOL0     H74159   7.498  10.322   8.722 -2.2024 -1.3282  2.7363
  562MOL0     H74160   7.260  10.327   8.687 -2.0905  1.9414 -0.5847
  562MOL0     H74161   7.335  10.348   8.529  0.1155 -0.5110 -0.0679
  562MOL0     H74162   7.275  10.590   8.530  1.4242 -1.7922  0.6730
  562MOL0     H74163   7.136  10.481   8.562 -1.1820 -1.9409  0.5742
  562MOL0     H74164   7.121  10.674   8.693 -1.2193  0.1859  2.0421
  562MOL0     H74165   7.295  10.635   8.761  1.2953 -2.4733 -0.2030
  562MOL0     H74166   7.898  10.096   8.444  2.3425 -3.9443  0.1963
  562MOL0     H74167   8.026   9.994   8.649  0.7557 -0.5328 -3.8010
  562MOL0     H74168   8.377   9.983   8.932 -0.1208  1.9133 -0.2727
  562MOL0     H74169   8.495   9.886   9.121  1.5856  3.0661 -0.4672
  562MOL0     H74170   6.720   9.572   9.398  3.3385  0.4889  0.0698
  562MOL0     H74171   6.551   9.389   9.329 -1.8903 -3.7981  0.8708
  562MOL0     H74172   6.531   8.933   9.026 -0.7488 -0.5567 -0.6588
  562MOL0     H74173   6.349   8.760   8.996  5.2219  0.7004 -1.1805
  562MOL0     H74174   6.074   8.519   9.217  0.9423 -4.6899  2.4738
  562MOL0     H74175   6.148   8.596   9.342  0.1742  0.0473 -0.7074
  562MOL0     H74176   6.274   8.444   9.114 -0.2464 -2.1242 -0.6772
  562MOL0     H74177   6.370   8.543   9.219 -0.7832  0.5609  1.8670
  562MOL0     H74178   6.200   8.346   9.369 -0.3920  1.2980  0.3086
  562MOL0     H74179   6.363   8.401   9.399 -0.8919 -2.1540  1.1160
  562MOL0     H74180   6.276   8.221   9.171  3.1397 -0.2887 -2.4435
  562MOL0     H74181   6.448   8.248   9.224 -0.0300  1.7237 -0.0674
  562MOL0     H74182   6.374   7.957   9.512  0.8069 -0.4320 -1.3356
  562MOL0     H74183   6.191   8.841   9.378 -1.4512 -0.3415 -1.4737
  562MOL0     H74184   6.377   9.001   9.414  0.1667  0.5143  0.2927
  563MOL0     O74185   4.376   7.139  10.601  0.7571  0.3659  0.4607
  563MOL0     C74186   4.430   7.028  10.587 -0.2494 -0.2340  0.3366
  563MOL0     O74187   4.373   6.906  10.600  0.6667  0.3667  0.0242
  563MOL0     C74188   4.235   6.884  10.581 -0.3393  0.4648 -0.1911
  563MOL0     C74189   4.162   6.782  10.644 -0.0432  0.0350  0.5590
  563MOL0     C74190   4.032   6.762  10.604  0.9370  0.8791  1.3573
  563MOL0     C74191   3.954   6.841  10.513 -0.2402  0.1343 -0.3748
  563MOL0     O74192   3.833   6.813  10.458  0.3762 -0.2673 -0.0089
  563MOL0     C74193   3.742   6.750  10.547 -0.0272 -0.8589 -0.3274
  563MOL0     C74194   3.603   6.765  10.483 -0.5695  0.4263 -0.3878
  563MOL0     C74195   3.559   6.909  10.472 -0.8723  0.8315  0.4186
  563MOL0     C74196   3.404   6.898  10.453 -0.6166 -0.4082  1.1595
  563MOL0     C74197   3.350   7.036  10.409 -0.0814 -0.2370  0.3542
  563MOL0     C74198   3.198   7.046  10.387 -1.2841 -0.6493  0.5340
  563MOL0     C74199   3.160   7.164  10.291  0.5309  0.5981 -0.2849
  563MOL0     C74200   3.007   7.156  10.259 -0.0647 -0.1726 -0.1169
  563MOL0     N74201   2.951   7.288  10.221 -1.6694  0.2820  0.1768
  563MOL0     C74202   3.006   7.414  10.180 -0.1107 -0.6693  0.5326
  563MOL0     C74203   2.897   7.490  10.166 -1.3303  0.1540  0.5340
  563MOL0     C74204   2.890   7.638  10.142  0.5921  0.4289  1.3873
  563MOL0     C74205   2.780   7.701  10.238  0.2328  0.5354 -0.8294
  563MOL0     C74206   2.829   7.837  10.298  0.2599 -0.0510 -0.3954
  563MOL0     C74207   2.921   7.824  10.430  0.1382  1.0137  0.9898
  563MOL0     O74208   3.028   7.748  10.389 -0.1035  0.5061 -0.0319
  563MOL0     C74209   3.111   7.692  10.480  0.5742 -0.7814 -0.3144
  563MOL0     C74210   3.103   7.713  10.617  0.5011 -0.9300 -0.3136
  563MOL0     C74211   3.196   7.647  10.698 -0.8935 -0.4246  0.3152
  563MOL0     C74212   3.281   7.544  10.649  0.1100 -0.1005  0.6861
  563MOL0     C74213   3.377   7.483  10.735  0.2539 -0.6193 -0.1446
  563MOL0     O74214   3.463   7.402  10.673 -0.4315 -0.6644 -0.3115
  563MOL0     C74215   3.570   7.345  10.744 -0.0095 -0.4290  0.6937
  563MOL0     C74216   3.650   7.409  10.837  0.3980 -1.2641 -0.3307
  563MOL0     C74217   3.753   7.347  10.900  0.0964  0.6720  0.7450
  563MOL0     C74218   3.801   7.227  10.853 -0.2356 -0.5414 -0.0105
  563MOL0     O74219   3.913   7.182  10.920  0.3226 -0.7584 -0.0596
  563MOL0     C74220   3.971   7.054  10.896 -0.0829 -0.3293 -1.0702
  563MOL0     C74221   4.079   7.013  10.998  2.1187 -0.3348 -0.0044
  563MOL0     C74222   4.199   7.097  10.980 -0.2449 -1.0206  0.9347
  563MOL0     C74223   4.301   7.045  11.080  0.6461  0.5797 -0.1920
  563MOL0     C74224   4.433   7.100  11.037 -0.5650 -0.9940  0.5337
  563MOL0     C74225   4.551   7.035  11.100 -0.9679  0.2423 -0.9567
  563MOL0     C74226   4.579   6.891  11.051  0.6347  0.0085 -0.3019
  563MOL0     C74227   4.690   6.833  11.129  0.8296 -0.6450  0.4801
  563MOL0    Cl74228   4.850   6.894  11.054 -0.0590 -0.4584 -0.1145
  563MOL0     C74229   3.732   7.161  10.751 -0.3419 -0.2174  0.6081
  563MOL0     C74230   3.609   7.218  10.701 -0.8758  0.3430 -0.1947
  563MOL0     O74231   3.370   7.508  10.855 -0.3933 -0.8031 -0.1617
  563MOL0     C74232   3.280   7.522  10.512 -0.3062  0.5781  1.0778
  563MOL0     C74233   3.213   7.615  10.430 -0.1552  0.6620 -0.0813
  563MOL0     N74234   2.786   7.411  10.178  0.1787 -0.1205  0.7319
  563MOL0     N74235   2.817   7.294  10.204 -0.7362 -0.3662  1.2459
  563MOL0     C74236   4.042   6.937  10.451  0.6885  0.2000  0.1698
  563MOL0     C74237   4.172   6.967  10.480  0.1604  0.6150  0.2199
  563MOL0     C74238   4.573   7.027  10.546  0.3703 -0.0741 -0.9938
  563MOL0     C74239   4.659   6.924  10.593  0.8262 -0.4718  0.5943
  563MOL0     C74240   4.789   6.916  10.560 -0.6284 -0.7106 -0.0806
  563MOL0     C74241   4.845   7.011  10.468  0.4350  0.3378 -0.3756
  563MOL0     O74242   4.971   7.000  10.422  0.0784 -0.3546  0.5758
  563MOL0     C74243   5.058   6.896  10.457 -0.2637 -0.6502 -0.4016
  563MOL0     C74244   5.202   6.911  10.384  0.9092  0.2401  0.2983
  563MOL0     C74245   5.311   6.968  10.467 -0.7772  0.0344  0.3981
  563MOL0     C74246   5.457   6.947  10.412  0.2162  1.0852 -0.2713
  563MOL0     C74247   5.543   7.037  10.493  0.1332 -0.4012 -0.5248
  563MOL0     C74248   5.603   7.098  10.572 -0.4377 -0.2950 -0.0058
  563MOL0     C74249   4.760   7.114  10.425  0.8855  0.7976 -1.2551
  563MOL0     C74250   4.625   7.120  10.460 -0.5421 -0.1103 -0.7844
  563MOL0     H74251   4.219   6.719  10.711  5.9359  1.0339 -2.8746
  563MOL0     H74252   3.983   6.683  10.661 -1.6400  1.6237  0.3070
  563MOL0     H74253   3.742   6.805  10.641  1.5544 -1.8332  0.2908
  563MOL0     H74254   3.748   6.641  10.558 -1.6521 -1.7267 -5.3544
  563MOL0     H74255   3.539   6.706  10.550  2.0443 -0.6029  1.3644
  563MOL0     H74256   3.602   6.715  10.385  1.5570  0.1796 -0.3349
  563MOL0     H74257   3.609   6.960  10.389 -2.0112  1.4230  0.0873
  563MOL0     H74258   3.583   6.957  10.567 -0.8059  1.6863 -0.0252
  563MOL0     H74259   3.378   6.830  10.371  0.3137  1.7716 -1.0533
  563MOL0     H74260   3.357   6.858  10.544  0.7130 -0.3150  1.9030
  563MOL0     H74261   3.398   7.053  10.313  2.3883  0.0586  1.5760
  563MOL0     H74262   3.390   7.114  10.474  0.3698  1.7327 -2.1393
  563MOL0     H74263   3.134   7.060  10.474  0.5396  0.0436  1.8310
  563MOL0     H74264   3.167   6.948  10.348  1.1767 -1.3420  0.1169
  563MOL0     H74265   3.177   7.258  10.344 -0.3498  2.6234 -3.3574
  563MOL0     H74266   3.209   7.153  10.194  0.0233  1.5784 -0.6706
  563MOL0     H74267   2.956   7.111  10.344 -0.3552 -0.1300 -0.2700
  563MOL0     H74268   3.002   7.082  10.179  1.6920 -0.4558 -0.0211
  563MOL0     H74269   3.108   7.452  10.170 -0.2914 -0.4979 -0.9334
  563MOL0     H74270   2.853   7.660  10.041 -0.7002  1.4872  2.0528
  563MOL0     H74271   2.987   7.688  10.150 -0.0580  1.7728  1.2875
  563MOL0     H74272   2.736   7.631  10.310  0.3735  1.3063  0.0278
  563MOL0     H74273   2.693   7.720  10.174  1.2385 -1.2460 -2.8603
  563MOL0     H74274   2.883   7.889  10.218  2.1132 -1.6616 -0.2751
  563MOL0     H74275   2.741   7.898  10.318  2.5107  2.5561  2.6575
  563MOL0     H74276   2.860   7.771  10.504 -0.0467  0.4548  0.4458
  563MOL0     H74277   2.954   7.924  10.460  1.8288  0.9351 -0.5144
  563MOL0     H74278   3.030   7.776  10.667  3.6847  3.2855 -0.3628
  563MOL0     H74279   3.190   7.669  10.804 -0.4473  2.0549 -0.1084
  563MOL0     H74280   3.634   7.516  10.845 -0.7963 -1.0167 -4.0751
  563MOL0     H74281   3.798   7.406  10.979  1.6989 -0.1697  0.5062
  563MOL0     H74282   4.005   7.068  10.793 -3.0521 -0.3114 -2.1545
  563MOL0     H74283   3.890   6.981  10.897 -1.8608  1.5057  1.4352
  563MOL0     H74284   4.109   6.908  10.987  3.6339 -0.0565  1.2021
  563MOL0     H74285   4.031   7.031  11.094  1.3167  1.2162 -0.6557
  563MOL0     H74286   4.172   7.202  10.997 -0.4568 -1.0305  0.6710
  563MOL0     H74287   4.240   7.077  10.881 -2.9298 -0.4545 -0.3851
  563MOL0     H74288   4.262   7.063  11.180 -3.0140  5.7318 -2.0834
  563MOL0     H74289   4.313   6.937  11.075 -0.4952  0.4464 -0.1794
  563MOL0     H74290   4.424   7.206  11.063  0.1599 -0.5357 -0.9420
  563MOL0     H74291   4.455   7.097  10.929  1.0341  0.5024  0.7817
  563MOL0     H74292   4.534   7.036  11.208 -1.4716  1.9526 -1.0383
  563MOL0     H74293   4.641   7.097  11.088  0.7257 -1.3612  2.0367
  563MOL0     H74294   4.486   6.833  11.053 -2.4577  4.3033 -2.3221
  563MOL0     H74295   4.599   6.891  10.944 -1.6879  0.1842 -0.7996
  563MOL0     H74296   4.683   6.724  11.122 -0.8248 -0.4905 -1.1364
  563MOL0     H74297   4.684   6.871  11.231 -2.6177 -0.1050  0.2027
  563MOL0     H74298   3.770   7.066  10.717 -0.3917 -0.3991  1.0495
  563MOL0     H74299   3.550   7.175  10.621 -1.1598  1.8271 -0.8107
  563MOL0     H74300   3.333   7.434  10.477 -0.8988 -0.7633  3.3519
  563MOL0     H74301   3.220   7.596  10.323 -1.8817  0.7109 -0.2373
  563MOL0     H74302   3.984   7.005  10.390 -2.7942 -2.4779  0.1351
  563MOL0     H74303   4.219   7.041  10.416  4.3760 -0.9289  1.2147
  563MOL0     H74304   4.610   6.849  10.654  0.6260 -0.5247  0.3695
  563MOL0     H74305   4.839   6.825  10.589  2.3411  0.9149  0.2250
  563MOL0     H74306   5.009   6.800  10.439 -0.6675 -1.0984  2.6376
  563MOL0     H74307   5.070   6.902  10.565 -0.5693  0.2316 -0.4098
  563MOL0     H74308   5.237   6.816  10.341 -1.9344  0.7926 -3.8339
  563MOL0     H74309   5.189   6.965  10.290  0.4644  1.3389  0.9849
  563MOL0     H74310   5.310   6.932  10.570 -0.4308 -0.0001  0.3903
  563MOL0     H74311   5.299   7.076  10.462  3.8593  0.7165  0.0417
  563MOL0     H74312   5.490   6.846  10.439  0.3017  1.8631  2.8484
  563MOL0     H74313   5.456   6.969  10.305 -2.8881  0.2088 -0.5197
  563MOL0     H74314   5.663   7.136  10.652 -0.8440 -1.3088  0.8043
  563MOL0     H74315   4.787   7.182  10.345  0.4149 -0.3758 -2.4382
  563MOL0     H74316   4.568   7.194  10.405  2.2948  2.3584 -0.6521
  564MOL0     O74317  10.226   3.394   0.177 -0.1778 -0.0677  0.3621
  564MOL0     C74318  10.224   3.513   0.150 -0.7031  0.5714  1.1123
  564MOL0     O74319  10.322   3.583   0.091  0.0728 -0.1298  0.4100
  564MOL0     C74320  10.440   3.524   0.052 -0.6913 -0.6733  0.4009
  564MOL0     C74321  10.512   3.609  -0.036 -0.5370 -0.4760  0.0615
  564MOL0     C74322  10.645   3.590  -0.072 -0.8826  0.0741 -0.1324
  564MOL0     C74323  10.706   3.473  -0.017 -0.2735  0.4974  0.0389
  564MOL0     O74324  10.831   3.442  -0.069  0.1286  0.0404 -0.0959
  564MOL0     C74325  10.918   3.352  -0.001  0.1969 -0.1908  1.0751
  564MOL0     C74326  11.005   3.417   0.107 -0.4644  0.5487  0.9210
  564MOL0     C74327  11.102   3.511   0.037  0.7710  0.5331 -0.5630
  564MOL0     C74328  11.220   3.437  -0.022 -0.0035 -0.0784  0.2882
  564MOL0     C74329  11.338   3.532  -0.049 -0.3318  0.1285  0.9986
  564MOL0     C74330  11.470   3.446  -0.095  0.3132 -0.5322 -0.2314
  564MOL0     C74331  11.578   3.533  -0.166  0.1490 -0.2591 -0.5538
  564MOL0     C74332  11.726   3.475  -0.169  0.0794  0.1397 -0.3021
  564MOL0     N74333  11.796   3.540  -0.278 -0.1565 -0.0054  0.6120
  564MOL0     C74334  11.881   3.642  -0.278 -0.5659 -0.2449  0.4103
  564MOL0     C74335  11.921   3.664  -0.408  0.1509  0.1054 -0.1593
  564MOL0     C74336  12.009   3.778  -0.442 -0.4333 -0.4384 -1.0725
  564MOL0     C74337  11.942   3.919  -0.413 -0.2620 -0.4620  0.4167
  564MOL0     C74338  12.013   4.045  -0.464 -0.1556  0.8436 -0.1741
  564MOL0     C74339  11.916   4.164  -0.442 -0.6726  0.1218 -0.2988
  564MOL0     O74340  11.793   4.144  -0.508  0.5809  0.0612  0.8740
  564MOL0     C74341  11.700   4.242  -0.513  1.5275  0.1678  0.6042
  564MOL0     C74342  11.693   4.338  -0.416  0.6565 -0.1651 -0.1894
  564MOL0     C74343  11.591   4.430  -0.401  0.3680 -0.4708 -0.2903
  564MOL0     C74344  11.492   4.428  -0.493  0.5703 -0.0479  0.3055
  564MOL0     C74345  11.366   4.515  -0.487  0.2928  0.3832  0.0643
  564MOL0     O74346  11.374   4.627  -0.414  0.3372 -0.8116 -0.9692
  564MOL0     C74347  11.260   4.698  -0.387  1.6743  0.2087  0.5137
  564MOL0     C74348  11.251   4.837  -0.420 -0.8678 -0.1622 -0.2715
  564MOL0     C74349  11.138   4.911  -0.377  1.5341  0.1201  0.0957
  564MOL0     C74350  11.033   4.846  -0.305 -1.0104  0.5780  0.6694
  564MOL0     O74351  10.932   4.926  -0.276 -1.2378 -0.1699  0.3129
  564MOL0     C74352  10.796   4.875  -0.283  0.3069 -0.3579 -0.0291
  564MOL0     C74353  10.746   4.847  -0.425 -0.0260 -1.1617  0.3044
  564MOL0     C74354  10.594   4.802  -0.421 -1.4040 -0.6436  0.1412
  564MOL0     C74355  10.514   4.923  -0.477  0.0978 -0.4221  0.0652
  564MOL0     C74356  10.364   4.878  -0.473 -0.9747 -1.0852  0.8705
  564MOL0     C74357  10.268   4.992  -0.505  1.5232 -0.8202 -0.5807
  564MOL0     C74358  10.257   5.039  -0.651  0.2015  0.0599  0.3174
  564MOL0     C74359  10.256   4.936  -0.760  0.2833 -0.4317 -0.3543
  564MOL0    Cl74360  10.125   4.812  -0.741  0.1225  0.1552  0.0353
  564MOL0     C74361  11.045   4.703  -0.271  0.7876 -0.8570  0.6876
  564MOL0     C74362  11.152   4.637  -0.322  0.4167  0.9014  0.0948
  564MOL0     O74363  11.260   4.471  -0.542 -0.0228  0.5528  0.2440
  564MOL0     C74364  11.492   4.331  -0.597  0.4542  0.2076 -0.0741
  564MOL0     C74365  11.593   4.240  -0.602 -0.3693  0.5622  0.0365
  564MOL0     N74366  11.867   3.553  -0.487 -0.0303  0.2241 -0.5935
  564MOL0     N74367  11.800   3.475  -0.395 -0.0604  0.2557  1.1100
  564MOL0     C74368  10.634   3.376   0.060 -0.3298  0.4994  0.0587
  564MOL0     C74369  10.502   3.403   0.099 -0.2922 -1.0334 -0.6471
  564MOL0     C74370  10.096   3.576   0.175  0.3078  0.8588  0.1949
  564MOL0     C74371  10.064   3.693   0.117 -0.0485 -1.3748  0.1992
  564MOL0     C74372   9.940   3.751   0.125 -0.3439  0.7073 -0.0845
  564MOL0     C74373   9.841   3.694   0.203 -0.1045  1.3294  0.4201
  564MOL0     O74374   9.718   3.745   0.232 -0.1133 -0.6140 -0.1315
  564MOL0     C74375   9.670   3.866   0.166 -0.0418  0.9082  0.9115
  564MOL0     C74376   9.518   3.884   0.176  0.5718  0.1135 -0.2216
  564MOL0     C74377   9.467   3.933   0.316 -0.6290 -0.4308 -0.4880
  564MOL0     C74378   9.319   3.937   0.333 -0.6466 -1.0150  0.0999
  564MOL0     C74379   9.250   4.046   0.256 -0.4571 -0.6423 -0.0407
  564MOL0     C74380   9.186   4.138   0.206  0.3058 -0.4409 -0.0004
  564MOL0     C74381   9.873   3.573   0.270 -1.0493 -0.9133 -0.6011
  564MOL0     C74382   9.998   3.512   0.256  0.9140 -0.2447  0.9493
  564MOL0     H74383  10.457   3.691  -0.081 -1.6036  0.2245  2.4531
  564MOL0     H74384  10.696   3.649  -0.147 -3.7846  0.3401 -2.0282
  564MOL0     H74385  10.974   3.309  -0.084 -2.2104  3.6863 -3.0117
  564MOL0     H74386  10.876   3.270   0.058  0.9885 -0.5142  1.2008
  564MOL0     H74387  11.071   3.350   0.162 -0.9554 -1.2105 -0.5634
  564MOL0     H74388  10.950   3.467   0.188 -0.3500  1.7161  0.3007
  564MOL0     H74389  11.132   3.576   0.120 -0.5014 -0.7910  0.9911
  564MOL0     H74390  11.046   3.573  -0.034 -0.0975 -0.3006 -0.6200
  564MOL0     H74391  11.264   3.367   0.050  1.6758  0.0500 -0.5619
  564MOL0     H74392  11.188   3.388  -0.115 -2.8165 -1.3603  1.8099
  564MOL0     H74393  11.366   3.581   0.044 -0.5381  0.2695  0.9863
  564MOL0     H74394  11.310   3.614  -0.115 -1.0260 -0.8148  0.0983
  564MOL0     H74395  11.445   3.357  -0.153  0.5019 -1.5812  1.2183
  564MOL0     H74396  11.528   3.403  -0.012  2.9867 -0.0762 -1.7545
  564MOL0     H74397  11.550   3.538  -0.272 -0.0615 -2.5541 -0.6608
  564MOL0     H74398  11.579   3.628  -0.113 -4.4696 -1.6708  2.7140
  564MOL0     H74399  11.721   3.370  -0.197  1.8238  0.8550 -3.8782
  564MOL0     H74400  11.771   3.473  -0.069 -1.4829 -0.9056  0.4218
  564MOL0     H74401  11.903   3.715  -0.200 -2.5482  0.6652  0.1583
  564MOL0     H74402  12.039   3.761  -0.546 -0.4686 -2.5642 -0.7714
  564MOL0     H74403  12.104   3.783  -0.388 -0.0385  1.0065 -1.8299
  564MOL0     H74404  11.924   3.912  -0.305  0.1767 -1.5710  0.4201
  564MOL0     H74405  11.845   3.914  -0.464 -0.4928 -0.2637  0.8296
  564MOL0     H74406  12.102   4.057  -0.401  1.1312 -1.4290 -1.4265
  564MOL0     H74407  12.044   4.027  -0.567  1.8045 -1.8804  0.7667
  564MOL0     H74408  11.955   4.263  -0.468  3.2331 -0.1413  3.5622
  564MOL0     H74409  11.902   4.167  -0.334  1.6592 -0.3476  0.0619
  564MOL0     H74410  11.773   4.355  -0.345  0.4637 -0.6567  0.1483
  564MOL0     H74411  11.604   4.499  -0.319  0.8843 -2.3339  1.2511
  564MOL0     H74412  11.338   4.880  -0.467 -0.6272  2.2223  2.0937
  564MOL0     H74413  11.130   5.017  -0.399 -1.3248 -0.4190 -2.0301
  564MOL0     H74414  10.733   4.954  -0.240 -1.9512  1.5039 -5.8041
  564MOL0     H74415  10.788   4.786  -0.220  0.8910  1.7648  3.2925
  564MOL0     H74416  10.806   4.769  -0.471 -0.6004 -3.2152  2.7593
  564MOL0     H74417  10.754   4.935  -0.489 -2.4164 -0.1612  1.2341
  564MOL0     H74418  10.557   4.775  -0.322  0.2995 -2.8091  0.2680
  564MOL0     H74419  10.593   4.718  -0.490 -0.3037  1.8979 -3.2798
  564MOL0     H74420  10.525   5.014  -0.417 -1.6606  0.5693 -1.0401
  564MOL0     H74421  10.552   4.939  -0.578 -1.2573 -0.8970 -0.5448
  564MOL0     H74422  10.352   4.842  -0.371  0.9666 -3.9784  0.2001
  564MOL0     H74423  10.342   4.795  -0.541  0.2796  0.1149 -1.1159
  564MOL0     H74424  10.279   5.071  -0.430  2.8647  0.0236 -1.5942
  564MOL0     H74425  10.169   4.951  -0.489  1.8369 -1.9277 -1.3637
  564MOL0     H74426  10.159   5.088  -0.654  1.4107  2.6113 -2.1823
  564MOL0     H74427  10.333   5.116  -0.669 -1.6474  2.4359  2.0787
  564MOL0     H74428  10.353   4.888  -0.747 -0.2641 -2.5120 -3.0294
  564MOL0     H74429  10.263   4.981  -0.860  1.2446 -1.5436 -0.8094
  564MOL0     H74430  10.962   4.671  -0.209 -1.2612  0.9359 -0.9575
  564MOL0     H74431  11.154   4.531  -0.303  3.4871  0.5881 -1.3816
  564MOL0     H74432  11.420   4.319  -0.678 -2.0823 -3.9912  2.4223
  564MOL0     H74433  11.573   4.160  -0.673 -4.1475  2.3771 -1.2598
  564MOL0     H74434  10.680   3.281   0.085 -0.3822 -0.0029 -1.6447
  564MOL0     H74435  10.453   3.333   0.165  2.6172 -2.4008  0.2400
  564MOL0     H74436  10.144   3.748   0.069  1.3189 -0.2382  3.5046
  564MOL0     H74437   9.923   3.841   0.066 -0.5663  0.6923 -0.0418
  564MOL0     H74438   9.705   3.873   0.062 -1.3954  2.8895  0.5237
  564MOL0     H74439   9.713   3.952   0.216  1.8434 -0.2716  1.3904
  564MOL0     H74440   9.469   3.952   0.105 -2.1966 -0.6128  0.8650
  564MOL0     H74441   9.473   3.790   0.141 -1.4982  1.2829 -0.8627
  564MOL0     H74442   9.516   4.029   0.335 -3.2292  1.1345 -1.2213
  564MOL0     H74443   9.505   3.859   0.387 -0.8897 -0.2317 -0.1417
  564MOL0     H74444   9.282   3.835   0.318  0.4247 -1.3020 -0.7266
  564MOL0     H74445   9.296   3.971   0.434 -2.7521  5.5339 -2.0834
  564MOL0     H74446   9.115   4.211   0.174  0.7789 -0.2649 -0.6611
  564MOL0     H74447   9.806   3.528   0.343  2.4541 -2.2837  2.0425
  564MOL0     H74448  10.015   3.424   0.317  1.1545 -0.7217  0.2053
  565MOL0     O74449  11.378   2.684   7.995 -0.3346 -0.2411  0.0461
  565MOL0     C74450  11.438   2.578   8.029 -0.3283 -0.1642  0.1458
  565MOL0     O74451  11.568   2.554   8.016 -0.2619 -0.1055 -0.2291
  565MOL0     C74452  11.645   2.663   7.978 -0.1331  0.2871 -0.9610
  565MOL0     C74453  11.707   2.729   8.087 -0.8432 -0.5192 -0.4094
  565MOL0     C74454  11.773   2.855   8.073 -0.5220  0.7643 -0.1564
  565MOL0     C74455  11.798   2.901   7.950  0.1151 -0.0020 -0.4124
  565MOL0     O74456  11.901   2.992   7.947  0.2140 -0.2209 -0.2648
  565MOL0     C74457  11.851   3.111   7.896  0.2953 -0.1875  0.6046
  565MOL0     C74458  11.938   3.228   7.937 -0.8809  0.2231  0.2044
  565MOL0     C74459  12.047   3.240   7.832  0.5019 -0.3016  0.1596
  565MOL0     C74460  12.150   3.340   7.870  1.2680 -0.5474  0.3004
  565MOL0     C74461  12.246   3.371   7.759  0.7531  0.4313 -0.0753
  565MOL0     C74462  12.374   3.448   7.813  0.0453 -0.0015 -0.2301
  565MOL0     C74463  12.495   3.427   7.718  0.3215  1.3534  1.0108
  565MOL0     C74464  12.609   3.523   7.736 -0.1820  0.4832 -0.6691
  565MOL0     N74465  12.710   3.489   7.644 -0.7136  0.6280  0.3686
  565MOL0     C74466  12.792   3.379   7.664 -0.1140 -0.4474  1.0558
  565MOL0     C74467  12.876   3.374   7.548  0.3277  0.4366 -0.1934
  565MOL0     C74468  12.997   3.292   7.519 -0.4088 -0.2744  0.0781
  565MOL0     C74469  13.012   3.178   7.628  0.6431 -0.7301  0.0708
  565MOL0     C74470  13.134   3.089   7.610 -0.1758 -1.1020 -0.3657
  565MOL0     C74471  13.245   3.124   7.702  0.7207 -0.4675  0.0526
  565MOL0     O74472  13.285   3.267   7.671  0.5162  0.3202 -0.4134
  565MOL0     C74473  13.403   3.304   7.711  0.1749 -0.4040  0.0367
  565MOL0     C74474  13.505   3.227   7.761  0.4240  0.2893 -0.4307
  565MOL0     C74475  13.630   3.275   7.805  0.8097  0.7077 -0.9841
  565MOL0     C74476  13.643   3.412   7.811  0.3124 -0.5185 -0.7245
  565MOL0     C74477  13.760   3.471   7.867  0.5291 -1.2629 -0.0266
  565MOL0     O74478  13.758   3.614   7.873 -0.3181 -0.2744  0.5678
  565MOL0     C74479  13.864   3.694   7.904 -0.0563 -0.8721 -0.4977
  565MOL0     C74480  14.002   3.649   7.894  0.2929  1.0658 -0.3731
  565MOL0     C74481  14.105   3.737   7.916  0.5658 -0.6251  0.5043
  565MOL0     C74482  14.077   3.875   7.929  0.3950 -0.0291  0.4426
  565MOL0     O74483  14.183   3.956   7.949 -0.7756 -0.4507  0.1207
  565MOL0     C74484  14.162   4.044   8.064 -0.1186 -0.1095  0.3835
  565MOL0     C74485  14.291   4.113   8.076  1.1823 -0.4281 -0.6569
  565MOL0     C74486  14.318   4.126   8.232  0.8232 -0.5412 -0.1060
  565MOL0     C74487  14.439   4.209   8.271 -0.4093 -1.1336  0.2509
  565MOL0     C74488  14.462   4.205   8.420 -0.6425 -1.0755 -0.4767
  565MOL0     C74489  14.603   4.275   8.446 -0.0488 -0.0849 -0.1847
  565MOL0     C74490  14.627   4.293   8.604  0.1560  0.1008 -0.1478
  565MOL0     C74491  14.773   4.311   8.644 -1.3623 -0.1039 -0.0461
  565MOL0    Cl74492  14.784   4.353   8.822  0.2800 -0.3032 -0.5944
  565MOL0     C74493  13.942   3.918   7.935 -0.9194 -0.2018  0.7610
  565MOL0     C74494  13.834   3.833   7.931 -0.2610  0.7245  1.0176
  565MOL0     O74495  13.850   3.402   7.911 -0.0058 -0.1213  0.7154
  565MOL0     C74496  13.542   3.495   7.766  1.2784 -0.1100  0.6595
  565MOL0     C74497  13.422   3.441   7.720 -0.2466  0.7104 -2.0027
  565MOL0     N74498  12.821   3.471   7.464 -0.1022 -0.5549 -0.3056
  565MOL0     N74499  12.731   3.540   7.524  0.1677 -0.7942  0.6335
  565MOL0     C74500  11.755   2.821   7.842  0.5877 -0.7583  0.1527
  565MOL0     C74501  11.684   2.704   7.850  0.4819 -0.0665  0.3182
  565MOL0     C74502  11.349   2.468   8.093 -0.0738  0.3717  1.4135
  565MOL0     C74503  11.393   2.341   8.108 -0.4578 -0.1497 -0.5693
  565MOL0     C74504  11.314   2.243   8.171 -0.3246  0.6018 -0.5462
  565MOL0     C74505  11.195   2.273   8.223  0.2793 -0.5211  0.2860
  565MOL0     O74506  11.116   2.175   8.275 -0.5439  0.0354 -0.0171
  565MOL0     C74507  11.065   2.189   8.411  0.0542 -0.4495 -0.6414
  565MOL0     C74508  11.088   2.069   8.514  0.5973 -1.3463 -1.1187
  565MOL0     C74509  11.231   2.003   8.507  0.2170  0.1281 -0.6671
  565MOL0     C74510  11.240   1.911   8.375  0.3052  0.7367  0.6774
  565MOL0     C74511  11.377   1.884   8.334 -0.4294  0.1264  0.0354
  565MOL0     C74512  11.490   1.830   8.306 -0.3554  0.0806 -1.2595
  565MOL0     C74513  11.137   2.396   8.204 -1.2274 -0.7970 -0.3419
  565MOL0     C74514  11.222   2.500   8.147 -0.2217  0.0644 -0.3307
  565MOL0     H74515  11.701   2.688   8.188 -4.1899  1.2248  0.2625
  565MOL0     H74516  11.811   2.909   8.159 -0.0559  1.2385 -0.6556
  565MOL0     H74517  11.749   3.141   7.923 -0.0157  0.0212 -0.6992
  565MOL0     H74518  11.855   3.098   7.787  3.3586  0.3353  0.5732
  565MOL0     H74519  11.972   3.215   8.040  0.8429  0.7201 -0.2713
  565MOL0     H74520  11.876   3.318   7.933  2.5300  3.0589  3.5918
  565MOL0     H74521  11.999   3.275   7.740 -0.1330 -0.0494  0.5790
  565MOL0     H74522  12.105   3.150   7.811 -0.6001 -1.2308  0.9508
  565MOL0     H74523  12.108   3.435   7.905  2.4996 -0.5544  1.9344
  565MOL0     H74524  12.193   3.297   7.961 -0.0861 -2.4184  0.1081
  565MOL0     H74525  12.202   3.433   7.681  2.5269 -1.7875 -3.0238
  565MOL0     H74526  12.279   3.276   7.717  1.4835 -0.6888  2.7659
  565MOL0     H74527  12.403   3.418   7.914  3.8392  1.8367 -0.6196
  565MOL0     H74528  12.360   3.556   7.821  3.6918  0.4419  2.4289
  565MOL0     H74529  12.525   3.322   7.718 -0.1942  1.1563 -1.5052
  565MOL0     H74530  12.456   3.452   7.619  0.6254  0.4929  0.6638
  565MOL0     H74531  12.648   3.500   7.836  1.0123  4.9318  0.1044
  565MOL0     H74532  12.564   3.622   7.728 -1.3701  0.1395  1.1903
  565MOL0     H74533  12.825   3.325   7.752 -0.4584 -2.8391 -0.2001
  565MOL0     H74534  13.088   3.352   7.516  1.1511 -2.5902 -1.9461
  565MOL0     H74535  12.974   3.249   7.421 -0.5120  0.4564 -0.2242
  565MOL0     H74536  12.923   3.114   7.630 -0.2667  0.2297 -3.1916
  565MOL0     H74537  13.011   3.216   7.731 -4.2618 -0.8389  0.3022
  565MOL0     H74538  13.114   2.984   7.635  1.8819 -1.3753  0.3045
  565MOL0     H74539  13.167   3.099   7.506 -2.0940  0.9182 -0.8413
  565MOL0     H74540  13.322   3.051   7.678  0.8761 -0.7092  1.2158
  565MOL0     H74541  13.215   3.103   7.805  2.2106 -6.0371 -0.3611
  565MOL0     H74542  13.474   3.125   7.782 -1.6808  0.6915 -1.3115
  565MOL0     H74543  13.708   3.206   7.836  0.8401  0.2454 -2.0587
  565MOL0     H74544  14.028   3.550   7.858  1.2594  1.7335 -1.5659
  565MOL0     H74545  14.204   3.692   7.908  0.7217 -0.2704  0.4437
  565MOL0     H74546  14.136   3.990   8.156  1.1317 -1.8257 -0.2101
  565MOL0     H74547  14.082   4.116   8.046 -1.2888 -1.3087  0.5603
  565MOL0     H74548  14.282   4.210   8.027  2.8979 -0.1070 -0.3831
  565MOL0     H74549  14.369   4.058   8.023  1.2692  1.2702 -2.3849
  565MOL0     H74550  14.340   4.025   8.270  1.2255  0.6519  3.1639
  565MOL0     H74551  14.231   4.160   8.290  0.1755 -0.8484 -0.8769
  565MOL0     H74552  14.529   4.172   8.222 -0.4068 -1.3243  0.3993
  565MOL0     H74553  14.416   4.311   8.238  5.2706  0.6264  0.6954
  565MOL0     H74554  14.491   4.107   8.461 -1.3076  0.3295  3.8703
  565MOL0     H74555  14.381   4.246   8.481  2.3560 -0.9166  3.9356
  565MOL0     H74556  14.603   4.373   8.397 -2.6560  0.2084  0.2857
  565MOL0     H74557  14.681   4.213   8.401 -0.5617  0.3707 -1.7798
  565MOL0     H74558  14.573   4.381   8.640 -0.6899  0.6727 -2.5871
  565MOL0     H74559  14.582   4.206   8.653  1.3844  0.1314  1.1128
  565MOL0     H74560  14.823   4.394   8.594  0.9450 -0.4612  1.4901
  565MOL0     H74561  14.838   4.224   8.634 -1.4210 -0.5870  2.8339
  565MOL0     H74562  13.921   4.024   7.926  0.7271  0.2071  1.2825
  565MOL0     H74563  13.727   3.854   7.932  0.1490  3.0213  1.8970
  565MOL0     H74564  13.549   3.601   7.786  1.8718 -0.2603  1.2861
  565MOL0     H74565  13.347   3.518   7.703 -0.1814  1.3837  0.2949
  565MOL0     H74566  11.802   2.846   7.747  3.9533 -0.5395  1.7058
  565MOL0     H74567  11.673   2.656   7.754  1.9191  0.1354  0.0254
  565MOL0     H74568  11.496   2.314   8.090  0.9582  0.8313  4.4261
  565MOL0     H74569  11.356   2.143   8.163  3.0698  1.7230  1.3145
  565MOL0     H74570  10.957   2.202   8.403  0.0232 -1.7327 -3.1221
  565MOL0     H74571  11.120   2.274   8.455  2.1613 -1.6835 -0.7922
  565MOL0     H74572  11.068   2.114   8.612 -0.9748 -0.0472 -1.9734
  565MOL0     H74573  11.020   1.984   8.501 -0.1318 -1.2287  1.3683
  565MOL0     H74574  11.257   1.937   8.590 -1.3165 -0.4413 -0.6281
  565MOL0     H74575  11.299   2.088   8.495 -2.9311  2.8218 -0.5526
  565MOL0     H74576  11.187   1.817   8.395 -0.9999  1.0426 -1.0721
  565MOL0     H74577  11.197   1.957   8.286  0.8482  4.8792  2.3571
  565MOL0     H74578  11.587   1.800   8.272  0.3286  0.4790  0.2800
  565MOL0     H74579  11.037   2.402   8.246 -0.7165  1.6307  0.6697
  565MOL0     H74580  11.192   2.604   8.161 -0.2184 -0.2225  2.5131
  566MOL0     O74581   4.830   7.855   7.193  0.0700  0.6049  0.0888
  566MOL0     C74582   4.799   7.902   7.300  0.2929  0.1795 -0.1546
  566MOL0     O74583   4.885   7.918   7.405  0.5091  0.3860 -0.2660
  566MOL0     C74584   5.013   7.872   7.414 -0.0790  0.7427  0.1997
  566MOL0     C74585   5.119   7.939   7.475  0.9342 -0.7657  0.7862
  566MOL0     C74586   5.245   7.885   7.475  0.0456  0.0306 -0.0163
  566MOL0     C74587   5.274   7.755   7.425 -0.3195 -0.8565 -0.3164
  566MOL0     O74588   5.404   7.710   7.423 -0.0129 -0.4895 -0.0457
  566MOL0     C74589   5.426   7.580   7.472  0.6436  0.9052 -0.2522
  566MOL0     C74590   5.561   7.562   7.534 -0.0436 -0.1737  0.8776
  566MOL0     C74591   5.562   7.449   7.639  0.7879  0.8520  0.4143
  566MOL0     C74592   5.517   7.316   7.558  0.1914  0.1337 -0.5915
  566MOL0     C74593   5.560   7.184   7.639 -0.2856  0.0007  0.5007
  566MOL0     C74594   5.446   7.098   7.668 -0.4643  0.5664  0.0675
  566MOL0     C74595   5.488   6.960   7.734 -0.1348 -0.7404 -0.0111
  566MOL0     C74596   5.367   6.869   7.737 -0.1885  0.1187 -0.7198
  566MOL0     N74597   5.258   6.914   7.814  0.0900 -0.4420 -0.1061
  566MOL0     C74598   5.246   6.961   7.943  0.5714 -0.1534 -0.5559
  566MOL0     C74599   5.117   7.017   7.966 -0.9176 -0.6682  0.2982
  566MOL0     C74600   5.061   7.097   8.076  1.0172 -0.2376 -0.5339
  566MOL0     C74601   5.025   7.004   8.197 -0.5413  0.1676 -0.1484
  566MOL0     C74602   4.947   7.086   8.305  0.2646 -0.0443  0.7523
  566MOL0     C74603   4.798   7.119   8.264 -0.3504  0.3311 -0.3112
  566MOL0     O74604   4.715   7.140   8.377  0.6369  0.0954 -0.7566
  566MOL0     C74605   4.592   7.086   8.355 -0.7801  0.5376  0.1733
  566MOL0     C74606   4.492   7.185   8.335  0.2520 -0.1988  1.1318
  566MOL0     C74607   4.361   7.154   8.314  0.5949  0.5541 -0.1132
  566MOL0     C74608   4.324   7.020   8.302  0.7619  0.1570  0.2105
  566MOL0     C74609   4.181   6.991   8.293 -0.1474 -0.6319 -0.5478
  566MOL0     O74610   4.090   7.090   8.299 -0.3719 -0.1176  0.1434
  566MOL0     C74611   3.959   7.067   8.308  0.4483  0.1140  0.7630
  566MOL0     C74612   3.880   7.100   8.420  0.5576 -0.2871  1.0868
  566MOL0     C74613   3.740   7.085   8.411  0.0693  0.5128 -0.2518
  566MOL0     C74614   3.673   7.029   8.298 -0.3980 -0.3897  0.0093
  566MOL0     O74615   3.539   7.005   8.312 -0.4678  0.1920 -0.5829
  566MOL0     C74616   3.461   6.955   8.201  0.1515 -0.8794  0.3117
  566MOL0     C74617   3.313   6.980   8.233 -0.5111 -0.9378  0.9291
  566MOL0     C74618   3.270   7.128   8.229  0.0001  0.4691  0.7253
  566MOL0     C74619   3.121   7.155   8.255 -0.6721 -0.6558 -0.2485
  566MOL0     C74620   3.098   7.312   8.292  0.9530  0.4947  0.8121
  566MOL0     C74621   2.948   7.345   8.299  0.4478 -0.9235 -0.7841
  566MOL0     C74622   2.929   7.479   8.379  0.4638  0.2193 -0.4197
  566MOL0     C74623   2.776   7.519   8.393 -0.0029  0.4820  0.1964
  566MOL0    Cl74624   2.716   7.604   8.256  0.2926 -0.6733  0.3153
  566MOL0     C74625   3.753   7.006   8.183 -0.1322 -0.0335  0.2701
  566MOL0     C74626   3.892   7.038   8.184 -0.5311  0.2134  0.4350
  566MOL0     O74627   4.149   6.871   8.306  0.1143  0.4760  0.1077
  566MOL0     C74628   4.426   6.924   8.305  0.1095 -0.0621 -0.7685
  566MOL0     C74629   4.557   6.959   8.321 -0.3850  0.0427 -0.5213
  566MOL0     N74630   5.059   7.009   7.846  0.3131 -0.4820  0.6114
  566MOL0     N74631   5.144   6.950   7.755  0.6170 -0.8108 -0.5864
  566MOL0     C74632   5.171   7.684   7.361 -0.1758 -0.2839  0.0776
  566MOL0     C74633   5.048   7.746   7.363 -0.4352 -0.3201 -0.1367
  566MOL0     C74634   4.657   7.944   7.316  0.4102 -0.2357  0.2850
  566MOL0     C74635   4.555   7.885   7.238  0.4178 -0.2850 -0.0370
  566MOL0     C74636   4.421   7.943   7.246 -0.1079  0.8500 -1.0410
  566MOL0     C74637   4.390   8.043   7.330 -0.3854  0.7493 -0.1800
  566MOL0     O74638   4.262   8.090   7.323 -0.1504 -0.4447  0.2615
  566MOL0     C74639   4.213   8.170   7.435 -0.6945  0.5427 -0.9043
  566MOL0     C74640   4.070   8.133   7.474  0.3515  0.6938 -0.6600
  566MOL0     C74641   4.009   8.245   7.560  0.3799  0.6602 -0.2381
  566MOL0     C74642   3.949   8.356   7.483  0.1627 -0.0350 -1.2698
  566MOL0     C74643   3.904   8.462   7.577  0.6913  0.2286  0.8361
  566MOL0     C74644   3.856   8.544   7.655 -0.4597 -0.1360  0.4730
  566MOL0     C74645   4.489   8.087   7.422 -0.2945 -0.3105 -0.2787
  566MOL0     C74646   4.617   8.036   7.412 -0.0416  0.0877  0.6162
  566MOL0     H74647   5.098   8.033   7.526  1.2746  0.3434 -1.0314
  566MOL0     H74648   5.330   7.938   7.516  0.7028 -0.2112 -1.0263
  566MOL0     H74649   5.426   7.517   7.382  0.0068 -0.2646  0.5260
  566MOL0     H74650   5.351   7.550   7.547  0.8110 -0.1079 -0.4704
  566MOL0     H74651   5.596   7.655   7.580 -0.1296 -0.6614  1.9717
  566MOL0     H74652   5.625   7.524   7.454 -3.0521 -1.2347 -1.2174
  566MOL0     H74653   5.489   7.474   7.717  0.8828  0.1930  0.7286
  566MOL0     H74654   5.666   7.434   7.669  2.0171  1.8568 -2.9036
  566MOL0     H74655   5.408   7.308   7.558  0.3201 -2.3876 -0.8975
  566MOL0     H74656   5.561   7.311   7.458  1.3314 -0.9761 -0.0695
  566MOL0     H74657   5.616   7.210   7.729 -2.1263 -3.5002  2.8612
  566MOL0     H74658   5.618   7.126   7.566 -0.9893 -0.8627  0.6186
  566MOL0     H74659   5.394   7.080   7.574  0.4033  2.7812 -0.8955
  566MOL0     H74660   5.364   7.146   7.723 -3.3565 -0.3018 -3.1279
  566MOL0     H74661   5.572   6.920   7.676  0.9554 -0.0953  1.0705
  566MOL0     H74662   5.522   6.989   7.834  2.3304 -1.0794 -0.6854
  566MOL0     H74663   5.410   6.774   7.770  1.5968  2.4421  4.7790
  566MOL0     H74664   5.338   6.851   7.633  0.9328 -2.0605 -0.7249
  566MOL0     H74665   5.324   6.961   8.019  2.0973 -0.7900 -2.0471
  566MOL0     H74666   4.965   7.137   8.042  1.0462  0.5133  0.2327
  566MOL0     H74667   5.128   7.180   8.101  0.3069  0.1159  0.2343
  566MOL0     H74668   5.115   6.969   8.247 -0.2003 -0.5529 -1.2122
  566MOL0     H74669   4.970   6.915   8.166 -1.3428  1.3842 -2.5181
  566MOL0     H74670   4.946   7.024   8.395  1.4178  0.2967  1.0176
  566MOL0     H74671   5.007   7.173   8.333  1.3574 -0.1840 -1.0324
  566MOL0     H74672   4.762   7.050   8.188 -2.4824  1.6828 -0.6198
  566MOL0     H74673   4.811   7.209   8.202 -0.2948  0.0128 -0.7612
  566MOL0     H74674   4.522   7.287   8.359  0.5227  0.9557 -3.3095
  566MOL0     H74675   4.281   7.228   8.316 -0.6760 -0.7279  2.8891
  566MOL0     H74676   3.936   7.137   8.505  0.6767  3.7625 -0.5192
  566MOL0     H74677   3.676   7.106   8.496  1.7956 -0.4005  1.3727
  566MOL0     H74678   3.490   6.853   8.176 -0.8184 -0.0104 -5.9326
  566MOL0     H74679   3.477   7.007   8.106 -0.0720  1.1063  1.2997
  566MOL0     H74680   3.291   6.932   8.328  1.8822 -1.4904  1.2564
  566MOL0     H74681   3.259   6.926   8.155  2.4377 -0.8575 -1.3464
  566MOL0     H74682   3.293   7.158   8.126 -1.8734  3.1949  1.0032
  566MOL0     H74683   3.327   7.175   8.309  2.4095  1.5773 -1.4982
  566MOL0     H74684   3.066   7.127   8.165  1.2011  1.6081 -2.2213
  566MOL0     H74685   3.085   7.095   8.340 -3.2979  0.8770 -0.1517
  566MOL0     H74686   3.145   7.358   8.205  3.2861 -0.1204  1.6743
  566MOL0     H74687   3.151   7.330   8.386 -1.4532  1.2973  2.0765
  566MOL0     H74688   2.898   7.269   8.359  1.7429 -1.4860 -0.3769
  566MOL0     H74689   2.904   7.343   8.199  0.9719 -1.8116 -1.0116
  566MOL0     H74690   2.967   7.479   8.481  1.3415 -1.8329 -0.6888
  566MOL0     H74691   2.983   7.557   8.323 -1.8982  0.4939 -2.5180
  566MOL0     H74692   2.759   7.579   8.483  0.8987  0.2470  0.5334
  566MOL0     H74693   2.721   7.425   8.407 -0.7434  1.1107  1.7431
  566MOL0     H74694   3.707   6.967   8.092 -1.5811 -1.6109  1.6272
  566MOL0     H74695   3.961   7.028   8.101  0.2127  0.1011  1.0545
  566MOL0     H74696   4.400   6.819   8.308  1.0477 -0.2767  1.3238
  566MOL0     H74697   4.636   6.885   8.319  0.3517  0.8268 -1.2016
  566MOL0     H74698   5.188   7.590   7.311 -0.7138 -0.2720 -0.1406
  566MOL0     H74699   4.968   7.692   7.314 -0.1137 -2.1665  1.2684
  566MOL0     H74700   4.570   7.799   7.173  1.9223  0.3553 -0.5701
  566MOL0     H74701   4.348   7.898   7.179  1.1816 -2.6176 -0.3443
  566MOL0     H74702   4.236   8.272   7.405  3.3313 -0.2890 -1.2462
  566MOL0     H74703   4.271   8.156   7.527  0.4339  4.4385 -0.8391
  566MOL0     H74704   4.008   8.102   7.390 -1.7256 -0.1825  1.1050
  566MOL0     H74705   4.083   8.047   7.540 -1.8720 -0.6510 -1.8504
  566MOL0     H74706   4.083   8.288   7.628  0.6519  0.7121 -0.5614
  566MOL0     H74707   3.928   8.198   7.617 -0.7673  1.1704 -1.3953
  566MOL0     H74708   4.035   8.381   7.421  0.5449 -1.0008 -1.1461
  566MOL0     H74709   3.865   8.322   7.421 -1.5244 -0.0604  0.9070
  566MOL0     H74710   3.821   8.629   7.710  3.0461  0.8754  1.3420
  566MOL0     H74711   4.459   8.166   7.491 -2.8094  0.2207 -1.8412
  566MOL0     H74712   4.695   8.086   7.470  1.5940  1.2431 -2.3213
  567MOL0     O74713  10.449   0.368   5.056 -0.1101 -0.0572 -0.4099
  567MOL0     C74714  10.527   0.347   5.147  0.4734  1.2898  0.0835
  567MOL0     O74715  10.513   0.262   5.256 -0.1195  0.0810  0.1016
  567MOL0     C74716  10.404   0.177   5.251  0.4587  0.8945  0.0099
  567MOL0     C74717  10.337   0.140   5.381 -1.3491  0.2403  0.2000
  567MOL0     C74718  10.230   0.054   5.399  0.4256 -0.5518  0.2765
  567MOL0     C74719  10.173   0.002   5.283 -0.1598  0.0068 -0.0363
  567MOL0     O74720  10.064  -0.076   5.269 -0.1886 -0.2876  0.4617
  567MOL0     C74721   9.984  -0.112   5.385 -0.8026  0.1565  0.5393
  567MOL0     C74722  10.041  -0.237   5.446  0.7053  0.2643 -0.5448
  567MOL0     C74723  10.011  -0.378   5.375  0.0970 -0.8267 -0.0795
  567MOL0     C74724  10.091  -0.487   5.439 -0.2044 -0.1216  0.0864
  567MOL0     C74725  10.035  -0.524   5.580 -0.5106  0.5305  0.3114
  567MOL0     C74726   9.890  -0.590   5.588 -0.1571 -0.6719 -0.0229
  567MOL0     C74727   9.861  -0.633   5.726  0.5013  0.1943  0.2525
  567MOL0     C74728   9.792  -0.770   5.726 -0.0250 -0.0190 -0.9816
  567MOL0     N74729   9.728  -0.815   5.859  0.4346  0.1749  0.0497
  567MOL0     C74730   9.798  -0.863   5.975 -0.2788  0.1238  0.4398
  567MOL0     C74731   9.700  -0.920   6.050  0.4612 -0.4758  0.3817
  567MOL0     C74732   9.710  -0.992   6.184  0.7302 -0.0328 -0.7415
  567MOL0     C74733   9.623  -1.119   6.191  0.3096 -0.2807 -0.9537
  567MOL0     C74734   9.676  -1.249   6.128 -0.1933 -0.4439  0.3725
  567MOL0     C74735   9.814  -1.296   6.169 -0.9548 -0.2319 -0.8511
  567MOL0     O74736   9.863  -1.413   6.103  0.8856 -0.0322 -0.1968
  567MOL0     C74737   9.977  -1.478   6.148 -0.3662 -0.5479 -0.4963
  567MOL0     C74738  10.029  -1.585   6.067  0.0089 -0.5718  0.7377
  567MOL0     C74739  10.147  -1.653   6.090  0.6414 -0.2814  0.1141
  567MOL0     C74740  10.228  -1.615   6.199 -0.2664 -0.3340 -0.2724
  567MOL0     C74741  10.347  -1.685   6.224  0.3137 -0.5091  0.0923
  567MOL0     O74742  10.422  -1.634   6.325 -0.6026 -0.4461  0.0575
  567MOL0     C74743  10.540  -1.696   6.365 -0.4633 -0.2247  0.9307
  567MOL0     C74744  10.649  -1.681   6.277  0.5022  0.4755  0.5988
  567MOL0     C74745  10.769  -1.737   6.316  0.5456 -0.4249  0.5820
  567MOL0     C74746  10.782  -1.810   6.441 -0.0840  0.1532  1.1504
  567MOL0     O74747  10.907  -1.849   6.477 -0.2481 -0.3818 -0.7992
  567MOL0     C74748  10.946  -1.865   6.615 -0.4106  0.2627  0.5786
  567MOL0     C74749  11.070  -1.948   6.621 -0.3447 -0.2397  0.4188
  567MOL0     C74750  11.187  -1.852   6.571  0.4343 -0.4403 -0.3199
  567MOL0     C74751  11.314  -1.933   6.579  0.9426 -0.2677 -0.6110
  567MOL0     C74752  11.438  -1.839   6.558 -1.0445  0.1148  0.3800
  567MOL0     C74753  11.515  -1.851   6.437  0.1750 -0.1234  0.1121
  567MOL0     C74754  11.618  -1.735   6.428 -0.6299 -0.4683 -0.7581
  567MOL0     C74755  11.694  -1.751   6.297 -0.8048  0.2545 -0.1845
  567MOL0    Cl74756  11.828  -1.646   6.303  0.2263 -0.4784 -0.0181
  567MOL0     C74757  10.665  -1.826   6.524 -0.6953 -0.1013  0.4567
  567MOL0     C74758  10.553  -1.764   6.480  0.5895  0.9185  0.3612
  567MOL0     O74759  10.361  -1.790   6.162 -0.1165  0.1790 -0.0148
  567MOL0     C74760  10.187  -1.503   6.280 -0.1281  0.2026 -0.5786
  567MOL0     C74761  10.068  -1.431   6.249  0.0791  0.0539 -0.7506
  567MOL0     N74762   9.577  -0.899   5.983  0.3158 -0.4229 -0.6553
  567MOL0     N74763   9.599  -0.846   5.871  0.2597 -0.0361  0.3984
  567MOL0     C74764  10.229   0.042   5.163 -0.1293  0.6771  0.7209
  567MOL0     C74765  10.338   0.125   5.147  0.0178 -0.2575  1.1365
  567MOL0     C74766  10.649   0.428   5.143 -0.5387  0.6485 -1.8895
  567MOL0     C74767  10.778   0.381   5.191  0.3875  0.4146 -0.1388
  567MOL0     C74768  10.892   0.462   5.212  0.1433 -0.0733 -0.0959
  567MOL0     C74769  10.879   0.594   5.179 -1.3002  0.2925 -0.2616
  567MOL0     O74770  10.979   0.692   5.187  0.6079 -0.1615  0.6905
  567MOL0     C74771  11.117   0.649   5.159  0.8311 -0.1325 -0.9820
  567MOL0     C74772  11.214   0.772   5.150  0.0674 -0.0560  1.3419
  567MOL0     C74773  11.175   0.881   5.246  0.5584  0.5535  0.3171
  567MOL0     C74774  11.205   0.838   5.390 -0.5765  0.0354 -0.0789
  567MOL0     C74775  11.346   0.804   5.422 -0.1891 -0.3712 -0.1402
  567MOL0     C74776  11.454   0.775   5.464 -1.0253  0.2837 -0.3159
  567MOL0     C74777  10.758   0.646   5.135 -0.5167 -0.2371 -0.3024
  567MOL0     C74778  10.643   0.560   5.106 -0.5909 -1.0365 -0.1021
  567MOL0     H74779  10.374   0.170   5.479 -1.9113 -1.0978  0.8497
  567MOL0     H74780  10.193   0.040   5.500  2.6297 -1.5274  0.9932
  567MOL0     H74781   9.877  -0.116   5.362 -0.8478  0.3940  0.7023
  567MOL0     H74782   9.991  -0.037   5.464  0.7634 -2.1056  2.6976
  567MOL0     H74783  10.006  -0.240   5.550  2.2679 -0.3927 -0.0179
  567MOL0     H74784  10.148  -0.221   5.457  0.9800  0.0272 -2.4931
  567MOL0     H74785  10.028  -0.365   5.268 -0.7339 -3.1772 -0.5587
  567MOL0     H74786   9.902  -0.381   5.384 -0.2029 -0.3535 -2.6810
  567MOL0     H74787  10.089  -0.576   5.376 -1.7093 -0.9640  1.2812
  567MOL0     H74788  10.198  -0.464   5.446  0.0634 -1.5915  1.3505
  567MOL0     H74789  10.057  -0.436   5.642 -1.2676  1.7554 -1.0705
  567MOL0     H74790  10.111  -0.597   5.608 -0.6254  0.8229  1.4403
  567MOL0     H74791   9.878  -0.668   5.513  0.2074 -1.4721  0.7324
  567MOL0     H74792   9.823  -0.505   5.572 -0.3681 -0.8568 -0.1117
  567MOL0     H74793   9.957  -0.657   5.774  1.8183 -2.5377 -3.2514
  567MOL0     H74794   9.812  -0.555   5.784  2.9464  1.0526  1.3088
  567MOL0     H74795   9.864  -0.848   5.701  1.6043  0.1412  2.6206
  567MOL0     H74796   9.728  -0.782   5.638  0.0707  0.0581 -1.0626
  567MOL0     H74797   9.906  -0.863   5.979 -0.2743 -1.0104  0.5791
  567MOL0     H74798   9.683  -0.934   6.273 -1.3135 -1.0779 -0.5997
  567MOL0     H74799   9.813  -1.023   6.201 -0.1657 -2.0112  1.8480
  567MOL0     H74800   9.519  -1.097   6.166  1.3069  4.7071 -1.9542
  567MOL0     H74801   9.624  -1.142   6.298  0.0012  0.0987 -0.8685
  567MOL0     H74802   9.595  -1.322   6.140  1.8726 -2.6257  1.8862
  567MOL0     H74803   9.685  -1.234   6.020 -3.4487 -1.9865 -0.2573
  567MOL0     H74804   9.807  -1.319   6.275  0.2469 -1.4009 -0.9998
  567MOL0     H74805   9.879  -1.209   6.163 -0.3124 -0.7480 -1.8492
  567MOL0     H74806   9.980  -1.629   5.981 -2.5492 -0.3116  1.9399
  567MOL0     H74807  10.173  -1.729   6.018 -0.2305  1.1427 -1.7650
  567MOL0     H74808  10.655  -1.632   6.181  0.2121 -1.4421 -0.4526
  567MOL0     H74809  10.846  -1.747   6.240 -2.8472 -2.8878 -2.9266
  567MOL0     H74810  10.870  -1.925   6.666  0.3626  0.1692  1.6452
  567MOL0     H74811  10.955  -1.769   6.666 -0.2511  1.8214 -2.1679
  567MOL0     H74812  11.047  -2.029   6.551  0.6397  0.0858 -0.2816
  567MOL0     H74813  11.085  -1.987   6.722 -0.7638 -0.8101  0.2659
  567MOL0     H74814  11.192  -1.766   6.639  2.2746 -0.5358 -0.2681
  567MOL0     H74815  11.160  -1.820   6.470  1.4705  4.2055  0.6345
  567MOL0     H74816  11.321  -1.971   6.681 -3.6911 -1.8516 -0.6413
  567MOL0     H74817  11.321  -2.017   6.510  0.5200  1.6470 -3.1431
  567MOL0     H74818  11.512  -1.860   6.635  0.1884  0.6156 -0.6337
  567MOL0     H74819  11.402  -1.738   6.581  0.3516  0.3872  1.5028
  567MOL0     H74820  11.437  -1.823   6.366  0.7218  0.1160 -0.3902
  567MOL0     H74821  11.561  -1.949   6.419 -1.4141 -0.9306  0.2289
  567MOL0     H74822  11.575  -1.635   6.435  0.3163 -0.1874  3.4576
  567MOL0     H74823  11.689  -1.741   6.511 -1.2537 -0.5252 -0.2202
  567MOL0     H74824  11.608  -1.727   6.233 -2.5366 -0.9450  1.5731
  567MOL0     H74825  11.726  -1.852   6.270 -0.2826  1.6195 -6.0258
  567MOL0     H74826  10.670  -1.887   6.613  2.7106  0.2718  0.6493
  567MOL0     H74827  10.464  -1.785   6.539  0.7343 -1.9060 -0.2637
  567MOL0     H74828  10.253  -1.471   6.360 -2.1883  0.4208  1.1404
  567MOL0     H74829  10.045  -1.350   6.317  2.7466 -1.2948  2.0060
  567MOL0     H74830  10.195  -0.000   5.069 -1.7525  3.4831 -0.0869
  567MOL0     H74831  10.379   0.135   5.047 -1.2916  0.2280  0.6384
  567MOL0     H74832  10.784   0.274   5.209  1.0078  0.0008 -2.5259
  567MOL0     H74833  10.980   0.422   5.261 -1.1041 -1.3217  1.2226
  567MOL0     H74834  11.117   0.590   5.067 -0.7367  0.2986 -1.2843
  567MOL0     H74835  11.150   0.599   5.251  4.0014  1.4852 -1.0816
  567MOL0     H74836  11.318   0.743   5.166  0.1717 -3.8960 -3.8562
  567MOL0     H74837  11.201   0.821   5.053 -0.4905 -3.6612 -0.5757
  567MOL0     H74838  11.072   0.916   5.234  0.4802  0.1699 -0.1607
  567MOL0     H74839  11.241   0.967   5.227  0.8443 -0.2067 -2.6714
  567MOL0     H74840  11.185   0.924   5.455  0.2165 -0.1063  0.3642
  567MOL0     H74841  11.138   0.754   5.409 -0.4850 -0.5261 -1.9823
  567MOL0     H74842  11.555   0.745   5.485  0.0046  1.7069 -2.7539
  567MOL0     H74843  10.754   0.751   5.107  1.4835 -0.2624 -0.7641
  567MOL0     H74844  10.555   0.613   5.071 -0.7377  1.0973  3.0607
  568MOL0     O74845  10.979   0.580   4.310  0.6217 -0.4740  0.2195
  568MOL0     C74846  10.996   0.522   4.204  1.0460 -0.0167 -0.4210
  568MOL0     O74847  10.905   0.504   4.100  0.6064  0.0560  0.3535
  568MOL0     C74848  10.773   0.548   4.111  0.6881  0.6533 -0.2388
  568MOL0     C74849  10.708   0.578   3.993  0.4198  0.0077 -0.1483
  568MOL0     C74850  10.574   0.614   3.986  1.4125  0.3686  0.5063
  568MOL0     C74851  10.492   0.592   4.100  0.8427  0.1737  0.2693
  568MOL0     O74852  10.354   0.614   4.116 -0.2628  0.2556 -0.1750
  568MOL0     C74853  10.293   0.696   4.014 -0.2098  1.1662 -0.0321
  568MOL0     C74854  10.144   0.715   4.037 -0.0625 -0.0849  0.0482
  568MOL0     C74855  10.066   0.588   4.043  1.4331  0.1328 -0.8918
  568MOL0     C74856   9.912   0.618   4.060 -0.3157 -0.3039  0.6961
  568MOL0     C74857   9.843   0.483   4.050  0.9650  0.1487  0.5620
  568MOL0     C74858   9.692   0.489   4.079 -0.8482 -0.0928 -1.2310
  568MOL0     C74859   9.627   0.350   4.050  0.2854  0.7582 -0.0700
  568MOL0     C74860   9.623   0.323   3.892  0.2841  0.6773 -0.3171
  568MOL0     N74861   9.523   0.215   3.856 -0.1073  0.6110  0.3832
  568MOL0     C74862   9.390   0.229   3.827 -0.2992  1.0016  0.8305
  568MOL0     C74863   9.348   0.106   3.787  0.2780 -0.3893  0.4537
  568MOL0     C74864   9.207   0.072   3.767 -0.1245  0.2705  0.0989
  568MOL0     C74865   9.140  -0.010   3.881 -0.0780  0.4775 -0.1228
  568MOL0     C74866   8.981   0.005   3.882  0.4355 -0.3274  0.6987
  568MOL0     C74867   8.939  -0.057   4.021  0.4934  0.2561  1.3285
  568MOL0     O74868   8.988   0.021   4.136  0.2537 -0.1847  0.3206
  568MOL0     C74869   8.976  -0.025   4.261 -0.2879 -0.9028 -1.1103
  568MOL0     C74870   9.066   0.004   4.363 -0.0797 -0.6279  0.1544
  568MOL0     C74871   9.056  -0.039   4.489  0.0164  1.2919  0.0432
  568MOL0     C74872   8.946  -0.116   4.524  0.5173  0.0434  0.2867
  568MOL0     C74873   8.926  -0.179   4.667 -0.3609  0.4911 -0.1243
  568MOL0     O74874   9.031  -0.178   4.750 -0.6821 -0.0273 -0.2211
  568MOL0     C74875   9.027  -0.261   4.863  0.4176  1.4234  0.1576
  568MOL0     C74876   8.998  -0.397   4.853  0.0237  0.1356 -0.2969
  568MOL0     C74877   8.984  -0.484   4.969 -0.0211  0.0928 -0.6701
  568MOL0     C74878   9.023  -0.428   5.094 -0.9167 -0.5284  0.5156
  568MOL0     O74879   9.029  -0.508   5.194  0.7182  0.0575  0.0259
  568MOL0     C74880   9.161  -0.547   5.225 -0.5438 -0.9555  0.3731
  568MOL0     C74881   9.192  -0.691   5.181  0.5989 -0.4544 -0.8379
  568MOL0     C74882   9.310  -0.748   5.256  1.0162 -0.7779 -0.1813
  568MOL0     C74883   9.285  -0.761   5.406 -0.6706  0.4011 -0.2336
  568MOL0     C74884   9.382  -0.850   5.487  0.3250 -0.0873  0.3323
  568MOL0     C74885   9.345  -0.998   5.463 -0.8156  0.0218  0.6699
  568MOL0     C74886   9.435  -1.095   5.535 -0.0806  0.5846  0.1967
  568MOL0     C74887   9.433  -1.091   5.685 -0.2559 -0.1482 -1.1623
  568MOL0    Cl74888   9.480  -1.248   5.757 -0.0900  0.0563 -0.0071
  568MOL0     C74889   9.054  -0.289   5.099  0.2524  0.6778  0.0413
  568MOL0     C74890   9.044  -0.207   4.987 -0.5791  1.1377  0.8620
  568MOL0     O74891   8.827  -0.251   4.679 -0.3978 -0.2566 -0.6831
  568MOL0     C74892   8.853  -0.148   4.425 -0.4417 -0.2754  0.9354
  568MOL0     C74893   8.863  -0.107   4.288  0.2038 -0.7738 -0.6243
  568MOL0     N74894   9.451   0.012   3.794  0.5019  0.3365 -0.2118
  568MOL0     N74895   9.559   0.074   3.835  0.3646  0.4613  0.0975
  568MOL0     C74896  10.552   0.541   4.215  0.3366 -0.4082  0.6407
  568MOL0     C74897  10.689   0.533   4.223  0.0652  0.3896  1.0006
  568MOL0     C74898  11.143   0.501   4.171 -0.1400 -0.0810 -0.6394
  568MOL0     C74899  11.161   0.436   4.049  0.1336  0.3052 -1.1020
  568MOL0     C74900  11.294   0.403   4.004 -0.8705 -0.2734  0.2269
  568MOL0     C74901  11.404   0.428   4.095  1.2437  0.6410  0.6208
  568MOL0     O74902  11.530   0.391   4.060  0.0797  0.4389 -0.6884
  568MOL0     C74903  11.549   0.294   3.948  0.9062 -0.4960  0.2536
  568MOL0     C74904  11.685   0.240   3.945  0.0227 -1.1085  0.1801
  568MOL0     C74905  11.708   0.154   4.078 -0.7243  1.2142  0.1827
  568MOL0     C74906  11.841   0.071   4.060 -1.2079  0.6369 -0.8631
  568MOL0     C74907  11.957   0.146   4.093 -0.5610 -0.0537 -1.1317
  568MOL0     C74908  12.065   0.206   4.103  0.5041  0.8986  0.4158
  568MOL0     C74909  11.376   0.494   4.210  1.1564 -0.1560  0.1491
  568MOL0     C74910  11.246   0.534   4.252 -0.1743  0.2385 -0.6012
  568MOL0     H74911  10.775   0.588   3.909  1.6189 -1.7134  0.5503
  568MOL0     H74912  10.528   0.639   3.890 -4.3148 -0.8162  2.5289
  568MOL0     H74913  10.295   0.649   3.916 -1.9347 -4.1412  2.1158
  568MOL0     H74914  10.336   0.797   4.022 -0.8783  1.5457 -1.1365
  568MOL0     H74915  10.102   0.779   3.959  3.2253  1.5345 -0.5757
  568MOL0     H74916  10.134   0.752   4.139 -1.8895  0.4924 -0.3130
  568MOL0     H74917  10.114   0.538   4.128  1.9076  0.6502 -0.8497
  568MOL0     H74918  10.085   0.536   3.949  0.2118  0.3373 -1.2679
  568MOL0     H74919   9.896   0.658   4.161  2.4370  0.6777  0.8307
  568MOL0     H74920   9.875   0.689   3.986  1.8776 -0.1210 -0.3048
  568MOL0     H74921   9.891   0.408   4.114  3.8750  2.7054  1.6203
  568MOL0     H74922   9.864   0.447   3.949  0.6771  0.1953  0.4835
  568MOL0     H74923   9.642   0.570   4.026  1.0301  3.8110  2.4539
  568MOL0     H74924   9.692   0.522   4.183  0.6917  2.6898 -2.0120
  568MOL0     H74925   9.680   0.272   4.105 -1.1060 -1.0349 -1.1232
  568MOL0     H74926   9.525   0.367   4.088  0.9065  2.7745  0.8230
  568MOL0     H74927   9.726   0.295   3.868 -0.4722 -0.6499 -2.2837
  568MOL0     H74928   9.598   0.416   3.841 -0.1080  0.8119  0.1088
  568MOL0     H74929   9.319   0.309   3.846  0.0123  1.6310 -0.5794
  568MOL0     H74930   9.217   0.014   3.675  0.7084  0.3923  0.1081
  568MOL0     H74931   9.147   0.162   3.751  0.6437  0.8722  0.5394
  568MOL0     H74932   9.173   0.039   3.973  1.7341 -0.4196 -0.2637
  568MOL0     H74933   9.179  -0.111   3.866  0.0155  0.0419  2.5615
  568MOL0     H74934   8.931   0.102   3.872 -1.0469 -1.2873 -2.9928
  568MOL0     H74935   8.936  -0.047   3.797 -0.4794  0.5229  0.6423
  568MOL0     H74936   8.994  -0.152   4.024  3.7037  1.8908 -0.3679
  568MOL0     H74937   8.830  -0.062   4.025  0.5211 -1.4414  0.9287
  568MOL0     H74938   9.152   0.065   4.338 -0.5306 -0.6742 -1.6763
  568MOL0     H74939   9.139  -0.022   4.556  0.6898 -0.7442 -0.2107
  568MOL0     H74940   8.972  -0.447   4.761 -2.3644 -1.7247  1.2764
  568MOL0     H74941   8.940  -0.584   4.970 -1.6672  0.7809 -0.4951
  568MOL0     H74942   9.173  -0.528   5.332 -3.2966 -0.7173  0.7077
  568MOL0     H74943   9.236  -0.485   5.176 -1.1225 -0.3179  0.2761
  568MOL0     H74944   9.210  -0.690   5.074 -2.0013  1.3406 -1.3564
  568MOL0     H74945   9.102  -0.752   5.193  0.5431 -0.1916  0.1966
  568MOL0     H74946   9.401  -0.688   5.251 -1.1549  2.7836 -0.2030
  568MOL0     H74947   9.329  -0.843   5.204 -0.2565 -0.5578 -1.0862
  568MOL0     H74948   9.295  -0.657   5.440  0.6049  1.3095 -3.0786
  568MOL0     H74949   9.182  -0.777   5.438 -0.4334  0.9068  0.8437
  568MOL0     H74950   9.370  -0.828   5.593  1.6619 -1.1542  0.7262
  568MOL0     H74951   9.486  -0.825   5.464  0.1107 -0.4273 -1.1154
  568MOL0     H74952   9.360  -1.029   5.359  1.2673 -4.9581  2.1452
  568MOL0     H74953   9.242  -1.009   5.497 -0.0229 -2.2014  2.6343
  568MOL0     H74954   9.417  -1.197   5.498 -1.0757  0.4983  0.8673
  568MOL0     H74955   9.539  -1.068   5.515  0.3255  0.1688  1.6277
  568MOL0     H74956   9.342  -1.064   5.740  2.4726 -0.6931  4.3137
  568MOL0     H74957   9.507  -1.016   5.712  0.7408 -1.0126 -1.4203
  568MOL0     H74958   9.064  -0.240   5.196  0.5816  2.7847 -0.9923
  568MOL0     H74959   9.070  -0.103   5.001  0.3572  0.6985  2.7090
  568MOL0     H74960   8.754  -0.187   4.446 -0.7782 -1.7826 -2.6967
  568MOL0     H74961   8.795  -0.129   4.206  0.1429 -1.9601 -0.2836
  568MOL0     H74962  10.483   0.515   4.295 -0.8267  4.0518  1.3661
  568MOL0     H74963  10.725   0.473   4.306  2.2937  0.8721  0.4515
  568MOL0     H74964  11.090   0.405   3.973 -1.0320  2.7650 -1.1074
  568MOL0     H74965  11.312   0.360   3.906  3.4595  0.4312  0.5398
  568MOL0     H74966  11.512   0.323   3.850 -0.2235  0.8290  1.0222
  568MOL0     H74967  11.473   0.216   3.962 -0.7636  0.8507 -0.7895
  568MOL0     H74968  11.700   0.186   3.852 -0.6860 -2.9107  1.0667
  568MOL0     H74969  11.760   0.319   3.950 -1.4487  0.2953  1.8993
  568MOL0     H74970  11.620   0.089   4.092 -0.3698  0.8788  0.9323
  568MOL0     H74971  11.721   0.217   4.166  0.9987 -0.1274  0.9494
  568MOL0     H74972  11.838  -0.010   4.134 -2.3057 -0.0103 -1.5906
  568MOL0     H74973  11.865   0.027   3.963  2.1300 -1.8904  0.8916
  568MOL0     H74974  12.160   0.242   4.138  1.7743 -3.5853  2.2454
  568MOL0     H74975  11.467   0.510   4.267  2.8738 -2.2553 -1.8420
  568MOL0     H74976  11.227   0.589   4.343  1.9735  0.8278 -0.4612
  569MOL0     O74977   7.771  11.111   8.788 -0.2970 -0.6379 -0.7515
  569MOL0     C74978   7.693  11.188   8.843  0.0841  0.5945 -0.3481
  569MOL0     O74979   7.633  11.296   8.788  0.4135 -0.3219 -0.2617
  569MOL0     C74980   7.683  11.319   8.657 -0.4601  0.4418  0.4378
  569MOL0     C74981   7.615  11.271   8.548  0.1731  0.1090 -0.6946
  569MOL0     C74982   7.668  11.299   8.416  0.4265  0.6725  0.6191
  569MOL0     C74983   7.774  11.385   8.403  0.3649 -0.3094  0.2045
  569MOL0     O74984   7.806  11.435   8.276  1.7851 -0.1719  0.0168
  569MOL0     C74985   7.939  11.440   8.235 -0.2457  0.5777 -0.5413
  569MOL0     C74986   7.963  11.555   8.133 -0.3090 -0.0039 -0.2344
  569MOL0     C74987   8.011  11.690   8.191  0.1735  0.4442 -0.5338
  569MOL0     C74988   8.059  11.772   8.073  0.3798  0.1822  0.7090
  569MOL0     C74989   7.937  11.867   8.020 -0.4548 -0.2896 -0.7962
  569MOL0     C74990   7.974  11.948   7.891  0.2311 -0.1513  0.5025
  569MOL0     C74991   8.122  12.006   7.881  0.0492  0.7223  0.4506
  569MOL0     C74992   8.139  12.109   7.767  0.5763  0.1044  1.0265
  569MOL0     N74993   8.283  12.141   7.755  0.2206 -0.7189 -0.3660
  569MOL0     C74994   8.325  12.275   7.742  0.3077 -0.0280 -0.3398
  569MOL0     C74995   8.452  12.259   7.694  0.3198 -1.7923 -0.4407
  569MOL0     C74996   8.542  12.372   7.648 -0.2336 -0.1425 -0.6271
  569MOL0     C74997   8.627  12.407   7.783  0.0719 -0.7131  0.2201
  569MOL0     C74998   8.691  12.543   7.797  0.1561 -0.2159  0.6125
  569MOL0     C74999   8.597  12.659   7.842  0.1388  0.8949 -0.1047
  569MOL0     O75000   8.587  12.651   7.988 -0.1940 -0.1312 -0.1187
  569MOL0     C75001   8.471  12.605   8.040  0.2937  0.2835 -0.2791
  569MOL0     C75002   8.342  12.662   7.998 -0.9189 -0.1427 -0.0540
  569MOL0     C75003   8.228  12.589   8.042  0.1522 -0.7591  1.1486
  569MOL0     C75004   8.228  12.464   8.110 -0.6516 -0.9405  0.0136
  569MOL0     C75005   8.100  12.400   8.149 -0.5595  0.7459  0.3926
  569MOL0     O75006   7.989  12.462   8.135  0.9395 -0.0565  0.0967
  569MOL0     C75007   7.864  12.413   8.161  0.7764 -0.0967  0.0487
  569MOL0     C75008   7.776  12.487   8.246  0.1628  0.2556 -0.2620
  569MOL0     C75009   7.652  12.440   8.275  0.4622 -0.1976  0.3546
  569MOL0     C75010   7.598  12.322   8.212  0.5073 -0.0844  0.8591
  569MOL0     O75011   7.463  12.300   8.228 -0.3751  0.9629  0.4521
  569MOL0     C75012   7.404  12.192   8.156 -0.6599  0.0331  1.0073
  569MOL0     C75013   7.252  12.201   8.189 -0.3420 -0.1962  0.0948
  569MOL0     C75014   7.164  12.119   8.088  0.1096 -0.6681 -0.2267
  569MOL0     C75015   7.019  12.150   8.069 -0.5502  0.4121 -0.2521
  569MOL0     C75016   6.988  12.123   7.917  0.1470 -1.2471  0.0638
  569MOL0     C75017   6.843  12.165   7.897  0.4996  0.5489 -0.9049
  569MOL0     C75018   6.735  12.056   7.936  0.3661 -0.8746 -0.1246
  569MOL0     C75019   6.584  12.093   7.933  0.0719  0.3773  0.3896
  569MOL0    Cl75020   6.556  12.246   8.020  0.2123  0.4779 -0.2992
  569MOL0     C75021   7.685  12.241   8.134 -0.0600 -1.0865  0.0302
  569MOL0     C75022   7.817  12.290   8.113 -0.0548  0.2800 -0.1262
  569MOL0     O75023   8.114  12.284   8.193  0.0069 -0.1179  0.6288
  569MOL0     C75024   8.350  12.400   8.118  0.3652 -0.0076 -0.2429
  569MOL0     C75025   8.468  12.473   8.090 -0.5997 -0.0065  0.1734
  569MOL0     N75026   8.474  12.129   7.679  0.7716 -0.1116  0.2276
  569MOL0     N75027   8.373  12.061   7.707  0.1684  0.4966  0.5192
  569MOL0     C75028   7.838  11.436   8.515  0.8175  0.0368  0.4228
  569MOL0     C75029   7.801  11.397   8.647 -0.0514  1.1862  0.1536
  569MOL0     C75030   7.643  11.142   8.977 -0.4256  0.1382  0.2912
  569MOL0     C75031   7.524  11.198   9.024 -0.8182  0.4699 -0.3152
  569MOL0     C75032   7.470  11.134   9.139  0.1396  0.6575 -0.5695
  569MOL0     C75033   7.522  11.023   9.202  0.2620 -0.4733 -0.7052
  569MOL0     O75034   7.479  10.974   9.324 -0.2721 -0.4116 -0.4255
  569MOL0     C75035   7.339  10.942   9.334 -0.4410  0.1895  0.6729
  569MOL0     C75036   7.298  10.888   9.471  0.2346  0.8899  0.1254
  569MOL0     C75037   7.380  10.760   9.500  0.5124 -0.4331  0.0550
  569MOL0     C75038   7.348  10.675   9.622  0.2459  1.2296  1.0732
  569MOL0     C75039   7.311  10.755   9.735 -0.1380 -0.4726  0.6399
  569MOL0     C75040   7.294  10.826   9.833  0.4960  0.2917 -0.4020
  569MOL0     C75041   7.641  10.975   9.148  0.1905 -0.7206 -0.4890
  569MOL0     C75042   7.707  11.030   9.043  0.6234 -0.2018  0.6665
  569MOL0     H75043   7.525  11.212   8.561 -0.1964  0.9007  0.5331
  569MOL0     H75044   7.619  11.265   8.325  0.8236  1.2442  0.1900
  569MOL0     H75045   7.964  11.337   8.205 -3.1555 -0.5099  0.4590
  569MOL0     H75046   8.010  11.446   8.318 -0.2145 -1.0704 -0.4173
  569MOL0     H75047   7.869  11.566   8.077  0.4901  0.3682 -1.5659
  569MOL0     H75048   8.037  11.520   8.060  1.0281  1.5274  0.3327
  569MOL0     H75049   8.095  11.665   8.256 -0.6560  0.4223  0.5515
  569MOL0     H75050   7.932  11.735   8.251  1.7323  0.2080  1.8395
  569MOL0     H75051   8.127  11.847   8.115 -0.3165  0.8934  0.5906
  569MOL0     H75052   8.102  11.715   7.990  0.0383  0.5350  0.2826
  569MOL0     H75053   7.919  11.932   8.105 -1.4042 -0.6232 -0.7211
  569MOL0     H75054   7.856  11.796   7.997  0.6668 -1.8485 -0.1642
  569MOL0     H75055   7.900  12.029   7.888 -0.8322 -1.1008  0.4992
  569MOL0     H75056   7.977  11.882   7.803  0.1903  1.9403 -1.1487
  569MOL0     H75057   8.153  12.059   7.972  0.5620  0.8141  0.2250
  569MOL0     H75058   8.202  11.932   7.869 -3.1726 -2.7848 -1.4604
  569MOL0     H75059   8.083  12.203   7.774 -1.1409 -0.6619 -1.2959
  569MOL0     H75060   8.098  12.059   7.679  0.9630 -0.6351  1.2512
  569MOL0     H75061   8.278  12.371   7.760  1.6478  0.4873  0.5374
  569MOL0     H75062   8.485  12.456   7.607 -0.9868 -0.6677 -0.6861
  569MOL0     H75063   8.612  12.325   7.579  1.9504 -2.4828  2.8765
  569MOL0     H75064   8.697  12.324   7.802 -1.6598 -2.4767 -0.7476
  569MOL0     H75065   8.549  12.407   7.859 -0.9254 -1.2756 -0.7662
  569MOL0     H75066   8.769  12.540   7.874  0.8082  2.1349  0.0984
  569MOL0     H75067   8.754  12.559   7.709  3.3933 -2.0615  2.4102
  569MOL0     H75068   8.504  12.638   7.788  2.4849 -0.1734 -4.1007
  569MOL0     H75069   8.606  12.764   7.812  0.7762  0.6364 -0.8481
  569MOL0     H75070   8.328  12.757   7.947 -2.3607 -1.0408 -1.4121
  569MOL0     H75071   8.137  12.644   8.020  0.4727  0.0717  1.8216
  569MOL0     H75072   7.804  12.578   8.297 -1.9328 -0.7860  2.9888
  569MOL0     H75073   7.580  12.491   8.338 -0.3988 -0.1015 -0.6768
  569MOL0     H75074   7.447  12.097   8.188 -1.3042 -0.1030  1.5025
  569MOL0     H75075   7.411  12.205   8.048 -3.6232 -1.0147  0.5831
  569MOL0     H75076   7.219  12.304   8.178  1.8422  0.5227 -0.0959
  569MOL0     H75077   7.232  12.175   8.294  1.0369  1.4253  0.7986
  569MOL0     H75078   7.170  12.018   8.130 -0.5319  0.5850  3.2246
  569MOL0     H75079   7.221  12.116   7.995  2.4312 -0.1744  1.0910
  569MOL0     H75080   6.957  12.084   8.130  0.9768 -2.1221 -1.2845
  569MOL0     H75081   7.001  12.254   8.097  0.9239  0.5759  0.2161
  569MOL0     H75082   6.984  12.016   7.893 -2.4060 -1.7205  2.1019
  569MOL0     H75083   7.051  12.188   7.856 -1.2545  0.3275  0.2455
  569MOL0     H75084   6.823  12.164   7.790 -2.0112 -2.1353 -0.5258
  569MOL0     H75085   6.827  12.267   7.934 -2.0250  0.0767 -0.5282
  569MOL0     H75086   6.756  11.975   7.865  1.3616  0.3389 -1.2760
  569MOL0     H75087   6.758  12.040   8.041  2.7037 -1.9620 -0.7268
  569MOL0     H75088   6.528  12.018   7.989  1.5742 -1.0408  0.0490
  569MOL0     H75089   6.539  12.096   7.833  2.0099 -0.6056 -0.5560
  569MOL0     H75090   7.648  12.148   8.091  0.2981 -1.0152 -0.4400
  569MOL0     H75091   7.874  12.221   8.051 -2.8887 -1.8788 -0.5072
  569MOL0     H75092   8.352  12.294   8.142 -2.1574  0.4809  2.7132
  569MOL0     H75093   8.564  12.423   8.096  0.4492  2.0457  1.4513
  569MOL0     H75094   7.911  11.515   8.502 -0.8011  1.3774 -0.9445
  569MOL0     H75095   7.859  11.425   8.734  0.1949  0.2713  0.2879
  569MOL0     H75096   7.466  11.274   8.971  2.0153  1.5034 -2.1533
  569MOL0     H75097   7.382  11.178   9.186 -0.4642  1.9117 -2.7494
  569MOL0     H75098   7.321  10.864   9.260  1.3172  1.3892 -1.1433
  569MOL0     H75099   7.268  11.021   9.309  0.6955  0.5682 -1.6167
  569MOL0     H75100   7.320  10.952   9.557  1.2373  1.7073 -0.7071
  569MOL0     H75101   7.189  10.876   9.471  0.0065  2.2006 -2.4400
  569MOL0     H75102   7.483  10.796   9.504  0.3928 -0.0605 -0.0785
  569MOL0     H75103   7.374  10.695   9.412  0.4119  1.0911 -1.1319
  569MOL0     H75104   7.268  10.601   9.608 -1.1033  2.9782 -1.1238
  569MOL0     H75105   7.444  10.623   9.635  1.3435  2.2192 -2.0429
  569MOL0     H75106   7.294  10.865   9.933  3.5825 -2.3480  0.8236
  569MOL0     H75107   7.693  10.900   9.207  0.9730 -0.5634 -0.9657
  569MOL0     H75108   7.791  10.983   8.992 -0.7365 -1.4233 -0.5646
  570MOL0     O75109   2.882  10.472   9.594  0.5195  0.3541  0.2546
  570MOL0     C75110   2.761  10.461   9.591 -0.0675  0.2374 -0.4318
  570MOL0     O75111   2.693  10.427   9.483  0.6707 -0.4380 -0.4033
  570MOL0     C75112   2.760  10.384   9.376 -0.2218  0.9766 -0.0332
  570MOL0     C75113   2.835  10.265   9.386  0.1646 -0.0480 -0.4288
  570MOL0     C75114   2.918  10.222   9.284  0.2808  0.1519  0.0408
  570MOL0     C75115   2.916  10.290   9.159  0.0626  0.4153 -0.7669
  570MOL0     O75116   2.985  10.252   9.047  0.8945  0.0445 -0.5250
  570MOL0     C75117   2.990  10.106   9.033  0.3710 -0.1156 -0.6589
  570MOL0     C75118   3.058  10.087   8.899  0.2397 -0.1769  0.3047
  570MOL0     C75119   3.047   9.954   8.838 -0.5667  1.0480 -0.5451
  570MOL0     C75120   3.124   9.953   8.705 -0.1064 -0.0710 -0.1230
  570MOL0     C75121   3.082   9.831   8.616 -0.0875 -0.5343 -0.4163
  570MOL0     C75122   3.087   9.694   8.694 -0.7264 -0.4881 -0.8843
  570MOL0     C75123   3.049   9.567   8.609  0.2874 -0.1395 -0.1214
  570MOL0     C75124   2.903   9.570   8.577  0.2476  0.3663 -0.4034
  570MOL0     N75125   2.857   9.453   8.506 -0.0827 -0.0876 -0.2100
  570MOL0     C75126   2.909   9.404   8.394 -0.0942  1.1275  0.6167
  570MOL0     C75127   2.843   9.286   8.372 -0.1922 -0.1785 -0.5338
  570MOL0     C75128   2.878   9.190   8.258 -0.2281 -0.0106 -0.4426
  570MOL0     C75129   2.813   9.051   8.280  0.7460  0.1935  0.1998
  570MOL0     C75130   2.834   8.967   8.154 -0.0537 -0.1336  0.4074
  570MOL0     C75131   2.843   8.816   8.187 -0.2300  0.3440 -0.3880
  570MOL0     O75132   2.852   8.743   8.071  0.2104 -0.4546 -0.1284
  570MOL0     C75133   2.976   8.723   8.020  0.3027 -0.4909  0.1416
  570MOL0     C75134   2.969   8.713   7.885 -0.3156  0.1780 -1.0049
  570MOL0     C75135   3.083   8.701   7.812  0.1507  0.0930 -0.7711
  570MOL0     C75136   3.205   8.688   7.875 -0.4769  0.0985 -0.4619
  570MOL0     C75137   3.329   8.694   7.790  0.0605  0.1317 -0.7848
  570MOL0     O75138   3.313   8.690   7.654  1.0535 -0.7498  0.9189
  570MOL0     C75139   3.416   8.691   7.561  0.4080  0.2407 -0.3848
  570MOL0     C75140   3.499   8.574   7.548 -0.4290 -0.0943 -0.4002
  570MOL0     C75141   3.590   8.568   7.445 -0.2063  0.5769  0.6074
  570MOL0     C75142   3.610   8.671   7.355 -0.2510  0.3081  0.5762
  570MOL0     O75143   3.693   8.641   7.251 -0.3960 -1.5202 -0.0004
  570MOL0     C75144   3.732   8.741   7.156  0.6291  0.0880  0.7772
  570MOL0     C75145   3.865   8.787   7.179 -0.3686  0.3523 -0.5556
  570MOL0     C75146   3.886   8.885   7.297 -0.3923 -0.6599 -0.2422
  570MOL0     C75147   4.029   8.893   7.331 -0.1575  0.0125 -1.2539
  570MOL0     C75148   4.061   8.972   7.466  0.1808  0.2424  0.2874
  570MOL0     C75149   4.015   9.115   7.483 -0.1044  0.1056 -0.6605
  570MOL0     C75150   4.068   9.206   7.369  1.1214  0.2048 -0.9623
  570MOL0     C75151   4.020   9.352   7.384  0.2933  0.0026 -0.2518
  570MOL0    Cl75152   4.078   9.433   7.534  0.1864  0.0264  0.2409
  570MOL0     C75153   3.538   8.790   7.374  0.5032  0.5474 -0.6056
  570MOL0     C75154   3.436   8.794   7.474  0.0252 -0.2973 -1.1294
  570MOL0     O75155   3.442   8.693   7.851 -0.1812  0.2854 -0.8839
  570MOL0     C75156   3.213   8.692   8.012  0.1888 -0.7820  0.4491
  570MOL0     C75157   3.095   8.719   8.088 -0.4431  0.2204  0.0342
  570MOL0     N75158   2.754   9.264   8.474 -0.3276  0.0670 -0.6205
  570MOL0     N75159   2.755   9.371   8.549 -0.3332  0.6933 -0.0537
  570MOL0     C75160   2.840  10.406   9.150 -0.4480  0.0134  0.1858
  570MOL0     C75161   2.763  10.456   9.253 -0.1044 -0.0170  0.0331
  570MOL0     C75162   2.686  10.499   9.714  0.1899  0.1497  0.3007
  570MOL0     C75163   2.735  10.564   9.826  0.3634  0.1483 -0.5389
  570MOL0     C75164   2.653  10.606   9.935  0.1422 -0.3723  0.0580
  570MOL0     C75165   2.520  10.578   9.933  0.6050  0.7594  0.0191
  570MOL0     O75166   2.454  10.614  10.054 -0.1518  0.2735 -0.4688
  570MOL0     C75167   2.313  10.607  10.084  0.7061  0.5116  0.7398
  570MOL0     C75168   2.233  10.699   9.991 -0.3304 -0.6665 -1.3925
  570MOL0     C75169   2.080  10.700  10.032 -0.3454  1.0375  0.0234
  570MOL0     C75170   2.005  10.568  10.028 -0.7544  0.7915 -0.4586
  570MOL0     C75171   2.012  10.504   9.898  0.7160 -0.5692 -1.3765
  570MOL0     C75172   2.001  10.448   9.792 -0.5111 -0.7081  0.7052
  570MOL0     C75173   2.468  10.505   9.829  0.2731 -0.6591 -0.1154
  570MOL0     C75174   2.551  10.470   9.720  0.6427 -0.4104  0.1721
  570MOL0     H75175   2.844  10.202   9.473 -1.2770 -0.4689 -0.5502
  570MOL0     H75176   2.974  10.132   9.307 -1.6811 -0.5379  2.7408
  570MOL0     H75177   2.888  10.070   9.048  0.1842  0.1266 -1.2996
  570MOL0     H75178   3.051  10.061   9.111  1.8164  0.4577 -1.4182
  570MOL0     H75179   3.163  10.112   8.918  0.8544 -0.9586 -1.7906
  570MOL0     H75180   3.023  10.156   8.821 -0.1669 -1.3447 -0.5760
  570MOL0     H75181   2.942   9.932   8.814 -0.9703  0.4940  1.4743
  570MOL0     H75182   3.080   9.877   8.908 -1.8629  1.0209  0.0717
  570MOL0     H75183   3.086  10.048   8.665  1.2022  1.1400  1.4061
  570MOL0     H75184   3.233   9.957   8.708 -0.0222 -2.1017  1.4347
  570MOL0     H75185   3.146   9.825   8.527 -0.9887  2.5824 -1.4012
  570MOL0     H75186   2.980   9.840   8.577  0.6334 -2.8104 -3.2374
  570MOL0     H75187   3.017   9.705   8.778  1.3357  0.7977  0.7552
  570MOL0     H75188   3.182   9.684   8.747 -0.5557  0.5529 -0.9662
  570MOL0     H75189   3.098   9.571   8.512 -0.3779 -4.4992 -0.8325
  570MOL0     H75190   3.064   9.478   8.671 -0.2947 -0.0195  0.1988
  570MOL0     H75191   2.881   9.663   8.524 -0.1560  0.9833  0.8008
  570MOL0     H75192   2.848   9.569   8.672 -1.5678 -1.2632 -1.4009
  570MOL0     H75193   2.991   9.441   8.333  0.4030 -1.7711 -0.6323
  570MOL0     H75194   2.987   9.183   8.265 -0.2214  0.2857 -0.2334
  570MOL0     H75195   2.851   9.225   8.158 -4.8174 -0.6628  0.3222
  570MOL0     H75196   2.704   9.045   8.283  0.6739 -0.4176 -2.0681
  570MOL0     H75197   2.846   9.000   8.372 -1.9403 -0.5055  0.8681
  570MOL0     H75198   2.748   8.977   8.087 -0.0374 -1.2197  0.2031
  570MOL0     H75199   2.919   8.997   8.093 -1.1603 -0.9410 -1.5975
  570MOL0     H75200   2.750   8.791   8.238 -1.5913  0.8193 -2.5357
  570MOL0     H75201   2.928   8.799   8.254 -0.1600  2.5289  0.1501
  570MOL0     H75202   2.881   8.724   7.823  1.8862 -0.3734 -4.4854
  570MOL0     H75203   3.062   8.702   7.705 -0.6041 -0.4896 -0.6350
  570MOL0     H75204   3.487   8.490   7.616  4.9075 -0.7191  0.1590
  570MOL0     H75205   3.641   8.474   7.427  0.1091  0.8151  0.2305
  570MOL0     H75206   3.670   8.831   7.159 -0.6431 -0.4151 -3.5823
  570MOL0     H75207   3.731   8.704   7.053 -1.2893  1.6990  0.1494
  570MOL0     H75208   3.900   8.829   7.084  0.1021 -0.8749 -0.9507
  570MOL0     H75209   3.923   8.696   7.195  0.9991  0.9587 -1.7941
  570MOL0     H75210   3.844   8.835   7.385  3.6980 -2.6030  0.8722
  570MOL0     H75211   3.836   8.981   7.282 -5.4494 -3.0494 -0.8540
  570MOL0     H75212   4.051   8.786   7.337 -2.5186 -0.4868 -0.2058
  570MOL0     H75213   4.086   8.938   7.249 -3.1203  1.7200 -2.5247
  570MOL0     H75214   4.170   8.973   7.477  0.1031 -0.5685  1.4091
  570MOL0     H75215   4.020   8.910   7.547  0.7343  2.2073  2.1793
  570MOL0     H75216   4.056   9.160   7.574 -2.9944  0.7244  0.4257
  570MOL0     H75217   3.906   9.120   7.489  0.0422  2.0377  3.0682
  570MOL0     H75218   4.176   9.189   7.363  1.1297 -1.1932  1.6973
  570MOL0     H75219   4.014   9.157   7.287  0.9531 -1.4410  0.0844
  570MOL0     H75220   3.911   9.352   7.391  0.2933 -1.2415 -0.0292
  570MOL0     H75221   4.050   9.422   7.306 -1.7681  2.4484  1.0166
  570MOL0     H75222   3.553   8.881   7.317  1.6359  0.6179 -0.2323
  570MOL0     H75223   3.368   8.875   7.502  1.0529 -0.0267  0.7996
  570MOL0     H75224   3.304   8.676   8.067  1.2195 -0.5048 -1.1105
  570MOL0     H75225   3.108   8.727   8.195 -1.6157  1.7005  0.0970
  570MOL0     H75226   2.856  10.468   9.063 -0.5709 -1.4463 -0.9117
  570MOL0     H75227   2.705  10.547   9.243  0.3430  0.0744 -2.0627
  570MOL0     H75228   2.838  10.597   9.817  0.1081  0.6189 -1.8392
  570MOL0     H75229   2.695  10.665  10.015 -1.1748  1.7090 -0.7036
  570MOL0     H75230   2.293  10.627  10.190 -0.9166  0.2170  0.5095
  570MOL0     H75231   2.283  10.503  10.070  0.2759  0.6332  0.7514
  570MOL0     H75232   2.271  10.797  10.022 -3.8914  0.4193  0.1141
  570MOL0     H75233   2.242  10.685   9.883  0.3322 -1.1751 -1.2766
  570MOL0     H75234   2.034  10.775   9.967  0.0192 -0.2425 -1.7747
  570MOL0     H75235   2.078  10.725  10.139  1.2633  0.3931  0.2210
  570MOL0     H75236   2.067  10.506  10.093  0.6459  1.6405 -0.9542
  570MOL0     H75237   1.900  10.571  10.059 -1.5139 -3.1988 -2.0591
  570MOL0     H75238   1.967  10.408   9.699  0.1741 -0.4687  0.3382
  570MOL0     H75239   2.361  10.487   9.820 -0.1877  1.2587  1.0716
  570MOL0     H75240   2.507  10.424   9.632 -0.8673 -0.7930  1.0880
  571MOL0     O75241   3.856   0.693   7.999 -0.4461 -0.1202 -0.4543
  571MOL0     C75242   3.843   0.763   8.097  0.1952 -0.0901  0.0003
  571MOL0     O75243   3.942   0.827   8.174 -0.1144  0.6388  0.2817
  571MOL0     C75244   4.064   0.803   8.124  0.5072  0.6269 -0.3419
  571MOL0     C75245   4.132   0.677   8.128  0.6673  0.2007  0.4273
  571MOL0     C75246   4.268   0.661   8.076 -0.0658 -0.7957 -0.4055
  571MOL0     C75247   4.338   0.780   8.038  0.5519 -0.3523  0.3078
  571MOL0     O75248   4.468   0.776   7.993  0.4543 -0.5133 -1.1058
  571MOL0     C75249   4.535   0.649   7.978 -1.0106  0.0288 -0.7503
  571MOL0     C75250   4.677   0.667   7.923  0.0524 -0.2952  0.3495
  571MOL0     C75251   4.772   0.736   8.011  0.6091  0.5918 -1.4270
  571MOL0     C75252   4.913   0.731   7.955  0.2657  0.1002 -0.0739
  571MOL0     C75253   5.018   0.723   8.071 -0.5881 -0.1650 -0.6937
  571MOL0     C75254   5.028   0.589   8.147  0.4862 -0.5590 -0.2840
  571MOL0     C75255   5.133   0.595   8.255 -0.1032  0.2673  0.8239
  571MOL0     C75256   5.076   0.591   8.403  0.7516  0.6453  0.4589
  571MOL0     N75257   5.020   0.466   8.446 -0.0034 -0.6561  0.1907
  571MOL0     C75258   4.900   0.424   8.414  0.0298  0.5945  0.6287
  571MOL0     C75259   4.899   0.290   8.448 -0.6597 -0.2912 -0.1373
  571MOL0     C75260   4.791   0.199   8.407 -0.0867  0.4134  0.2903
  571MOL0     C75261   4.697   0.145   8.517 -0.2982  0.2505  0.2198
  571MOL0     C75262   4.575   0.244   8.551  0.3840 -0.4201 -0.7178
  571MOL0     C75263   4.459   0.172   8.631 -0.2472 -0.4388  0.1290
  571MOL0     O75264   4.341   0.253   8.610  0.4414  0.1694 -0.7199
  571MOL0     C75265   4.251   0.279   8.712 -0.7984  0.2354 -0.1921
  571MOL0     C75266   4.264   0.245   8.851  0.5616 -0.8852 -0.1658
  571MOL0     C75267   4.171   0.283   8.945  0.3390 -0.5899 -0.0548
  571MOL0     C75268   4.054   0.344   8.898  0.1612  0.4549 -0.9154
  571MOL0     C75269   3.944   0.380   9.003 -0.5465  0.5856  0.2282
  571MOL0     O75270   3.852   0.471   8.959 -0.1195  0.7683  0.4602
  571MOL0     C75271   3.766   0.532   9.045  0.6000  0.6029 -0.2454
  571MOL0     C75272   3.753   0.673   9.044  0.2298  0.1827 -0.7437
  571MOL0     C75273   3.667   0.737   9.137 -0.2752 -0.5048 -0.5977
  571MOL0     C75274   3.593   0.657   9.227 -0.6417 -0.2386  0.0042
  571MOL0     O75275   3.521   0.722   9.320 -0.0656  0.5914  0.1362
  571MOL0     C75276   3.381   0.693   9.304  0.5444 -0.1459 -0.4519
  571MOL0     C75277   3.318   0.808   9.393  0.1187 -1.4268 -0.0960
  571MOL0     C75278   3.362   0.941   9.333  0.6122 -0.0660  0.4251
  571MOL0     C75279   3.311   1.067   9.410 -0.4005 -0.2180 -0.7017
  571MOL0     C75280   3.408   1.192   9.398 -0.4477  0.0073  0.1540
  571MOL0     C75281   3.321   1.329   9.398 -0.4877  0.4893  0.1077
  571MOL0     C75282   3.390   1.453   9.349 -0.2250  0.5838  0.0785
  571MOL0     C75283   3.274   1.542   9.305 -0.2335 -0.5013 -0.2177
  571MOL0    Cl75284   3.161   1.571   9.437 -0.2598 -0.1397  0.5728
  571MOL0     C75285   3.593   0.518   9.220  0.5796 -0.1517 -1.2166
  571MOL0     C75286   3.678   0.455   9.124 -1.2908 -0.1162  0.3000
  571MOL0     O75287   3.952   0.348   9.124 -1.0356 -0.7036 -0.1408
  571MOL0     C75288   4.043   0.384   8.769  0.0961 -0.5350 -0.0005
  571MOL0     C75289   4.137   0.342   8.674  0.5392  0.4056  0.2171
  571MOL0     N75290   5.021   0.259   8.502 -0.7803  0.0707 -0.4426
  571MOL0     N75291   5.097   0.361   8.493  0.3366 -0.6151 -0.1621
  571MOL0     C75292   4.267   0.901   8.044  0.0350  2.3196  0.2988
  571MOL0     C75293   4.138   0.912   8.083  0.1810 -0.7267  0.5226
  571MOL0     C75294   3.698   0.800   8.133  0.2907  0.1850 -0.2367
  571MOL0     C75295   3.665   0.884   8.241  0.1514  0.4534 -0.7674
  571MOL0     C75296   3.537   0.911   8.280  0.0754 -0.2632  0.5245
  571MOL0     C75297   3.432   0.844   8.214 -1.2323 -0.2551 -0.5268
  571MOL0     O75298   3.302   0.857   8.248  0.0942  0.0720  0.0146
  571MOL0     C75299   3.279   0.850   8.388  0.4905  1.3402 -0.2287
  571MOL0     C75300   3.154   0.758   8.412  0.4009 -0.4700  0.1771
  571MOL0     C75301   3.187   0.611   8.381 -0.4751 -0.1224 -0.0787
  571MOL0     C75302   3.056   0.533   8.426 -0.2632 -0.4572 -0.1641
  571MOL0     C75303   3.092   0.412   8.503  0.8370  0.7823 -0.6058
  571MOL0     C75304   3.120   0.317   8.566 -0.0822  0.6729 -0.7500
  571MOL0     C75305   3.459   0.775   8.100 -0.8989  1.0055 -0.7641
  571MOL0     C75306   3.586   0.749   8.059 -0.1116  0.0522  0.1795
  571MOL0     H75307   4.074   0.591   8.160 -0.5812  1.0451  0.4770
  571MOL0     H75308   4.313   0.563   8.087 -0.9200 -1.3054 -1.3525
  571MOL0     H75309   4.481   0.578   7.914  0.8181 -0.3312 -2.0033
  571MOL0     H75310   4.553   0.601   8.074 -0.5914  0.4029 -0.6350
  571MOL0     H75311   4.677   0.722   7.829 -0.4089 -1.0574 -0.1039
  571MOL0     H75312   4.712   0.565   7.903  0.4948 -0.4086  1.6178
  571MOL0     H75313   4.761   0.694   8.112 -3.6321  1.1528 -1.4612
  571MOL0     H75314   4.744   0.841   8.028  1.3353  0.4652  0.8502
  571MOL0     H75315   4.929   0.640   7.897  2.4546 -2.8420  4.4876
  571MOL0     H75316   4.927   0.812   7.883 -0.8396  0.4243  0.0490
  571MOL0     H75317   5.003   0.797   8.150  2.3220 -2.5574  2.3924
  571MOL0     H75318   5.114   0.745   8.022 -0.8849  1.5185 -0.5904
  571MOL0     H75319   5.037   0.501   8.082  0.0786 -0.3026 -0.6912
  571MOL0     H75320   4.941   0.566   8.209  1.3730  1.5794  1.9187
  571MOL0     H75321   5.202   0.514   8.230 -0.8617  0.2509 -1.4590
  571MOL0     H75322   5.185   0.691   8.242 -0.5831  0.1264 -3.1622
  571MOL0     H75323   4.999   0.668   8.414  0.0125  0.0804 -0.5680
  571MOL0     H75324   5.159   0.618   8.470  0.0536  1.4489  1.0203
  571MOL0     H75325   4.821   0.477   8.363 -0.0052 -0.2787 -0.2495
  571MOL0     H75326   4.835   0.108   8.364 -1.3718 -0.7103  1.2454
  571MOL0     H75327   4.729   0.257   8.338 -1.8175 -3.4819 -1.7679
  571MOL0     H75328   4.745   0.138   8.615  0.7741  0.6844 -0.2656
  571MOL0     H75329   4.666   0.049   8.474  1.5372 -0.1252 -0.3283
  571MOL0     H75330   4.616   0.323   8.614 -1.3322  0.2927 -0.4584
  571MOL0     H75331   4.533   0.293   8.463 -2.1725  1.4009  1.3779
  571MOL0     H75332   4.486   0.147   8.734  5.0541 -1.5735 -1.2432
  571MOL0     H75333   4.441   0.075   8.583  0.7272 -0.6530  0.1759
  571MOL0     H75334   4.355   0.202   8.890  1.1920  0.6431  0.1267
  571MOL0     H75335   4.197   0.260   9.047 -0.4703  1.1998  0.5937
  571MOL0     H75336   3.804   0.734   8.971 -1.5641  0.5082 -1.7830
  571MOL0     H75337   3.658   0.844   9.154 -0.5970 -0.7404  0.9005
  571MOL0     H75338   3.343   0.597   9.340 -0.3363 -0.2467 -1.5817
  571MOL0     H75339   3.337   0.703   9.204 -2.5199  0.6587  0.8343
  571MOL0     H75340   3.341   0.791   9.498  1.3301 -2.9879 -0.5734
  571MOL0     H75341   3.209   0.816   9.395  0.2199  0.7060  2.4960
  571MOL0     H75342   3.342   0.954   9.226 -1.5920  1.6736  0.9602
  571MOL0     H75343   3.471   0.951   9.335  0.7746  1.8193 -4.4292
  571MOL0     H75344   3.205   1.082   9.387 -0.9546 -2.6437  0.0343
  571MOL0     H75345   3.307   1.042   9.516  1.5979 -1.0344 -0.7782
  571MOL0     H75346   3.468   1.187   9.307  0.8309 -2.7417  1.0356
  571MOL0     H75347   3.478   1.192   9.482 -0.2680 -0.1713  0.0049
  571MOL0     H75348   3.281   1.346   9.498  3.4873 -3.4404  2.7718
  571MOL0     H75349   3.241   1.296   9.331 -0.5320  0.0437  0.3765
  571MOL0     H75350   3.439   1.495   9.437  0.9728  1.6577 -1.0647
  571MOL0     H75351   3.462   1.424   9.272 -1.1132  1.2957 -1.0481
  571MOL0     H75352   3.218   1.498   9.222  0.0570  1.3859 -1.4729
  571MOL0     H75353   3.313   1.637   9.266 -3.0534  0.5129 -0.8553
  571MOL0     H75354   3.526   0.459   9.281  0.1036 -0.0140 -1.5902
  571MOL0     H75355   3.679   0.347   9.120  0.0609 -0.0882 -1.9423
  571MOL0     H75356   3.956   0.438   8.734 -0.1312  0.2072  1.6585
  571MOL0     H75357   4.113   0.349   8.568  2.3761 -0.7125 -0.3079
  571MOL0     H75358   4.306   0.993   8.002  0.1918  0.4519 -4.1957
  571MOL0     H75359   4.092   1.010   8.083 -0.0093 -0.7991 -0.6200
  571MOL0     H75360   3.739   0.933   8.303 -1.9269  2.4910  0.3026
  571MOL0     H75361   3.525   0.978   8.364  1.3567 -1.0388  1.3526
  571MOL0     H75362   3.251   0.952   8.416 -0.0960  0.4737  2.7486
  571MOL0     H75363   3.363   0.811   8.445 -0.6812 -4.3356 -1.7368
  571MOL0     H75364   3.133   0.750   8.520  0.1119 -2.8663  0.0051
  571MOL0     H75365   3.068   0.798   8.358  1.8574  1.1002 -1.0802
  571MOL0     H75366   3.283   0.589   8.428  2.1877  0.6886 -4.5335
  571MOL0     H75367   3.204   0.606   8.273 -2.8470  1.7408 -0.6312
  571MOL0     H75368   2.998   0.594   8.496 -0.4183  1.2409 -1.6963
  571MOL0     H75369   3.003   0.508   8.334  1.2617  2.0528 -1.8405
  571MOL0     H75370   3.141   0.230   8.625  1.7377  3.0656  2.4591
  571MOL0     H75371   3.366   0.746   8.053 -1.9932  3.1803 -0.0625
  571MOL0     H75372   3.598   0.681   7.975 -1.6946  0.9047 -0.7744
  572MOL0     O75373   7.368   0.791   4.032 -0.2994  0.0102 -0.0405
  572MOL0     C75374   7.350   0.803   4.152  0.8581  1.6304 -0.5270
  572MOL0     O75375   7.433   0.875   4.240 -0.3865  0.6913 -0.5018
  572MOL0     C75376   7.520   0.967   4.190 -0.9543 -0.3682  0.0744
  572MOL0     C75377   7.612   1.017   4.291  0.2482  0.9513  1.0726
  572MOL0     C75378   7.703   1.115   4.258  0.7835  0.5489 -0.5204
  572MOL0     C75379   7.704   1.176   4.132 -0.8533 -0.0673 -0.3406
  572MOL0     O75380   7.803   1.263   4.091  0.5951 -0.4353 -1.2873
  572MOL0     C75381   7.843   1.362   4.198 -0.3075  0.2624 -0.3887
  572MOL0     C75382   7.728   1.443   4.266  0.2562  0.1114 -0.8104
  572MOL0     C75383   7.761   1.515   4.401 -0.1127  0.0715  0.0739
  572MOL0     C75384   7.884   1.612   4.396  0.2782  0.2846  0.6328
  572MOL0     C75385   7.876   1.710   4.506 -0.7944 -0.6283  0.2455
  572MOL0     C75386   7.923   1.672   4.653 -0.7013  0.3876  0.4711
  572MOL0     C75387   7.951   1.791   4.743  0.1786 -0.9854 -0.4614
  572MOL0     C75388   8.094   1.857   4.714 -0.2852 -0.4574 -0.7736
  572MOL0     N75389   8.108   1.985   4.787  0.3114  0.6025  0.3459
  572MOL0     C75390   8.054   2.104   4.756 -0.8880 -0.4478  0.0063
  572MOL0     C75391   8.060   2.176   4.866  0.6673 -0.0154  0.9645
  572MOL0     C75392   7.995   2.309   4.892  0.0676 -0.4937 -0.9382
  572MOL0     C75393   7.848   2.279   4.887 -0.2833 -0.2411  0.7377
  572MOL0     C75394   7.762   2.404   4.913 -0.3511 -0.4748 -0.1307
  572MOL0     C75395   7.610   2.381   4.913  0.2904  0.5286  0.8087
  572MOL0     O75396   7.588   2.303   5.031  0.1433  0.2340  0.4722
  572MOL0     C75397   7.470   2.331   5.104 -0.0646 -0.9736 -1.0970
  572MOL0     C75398   7.361   2.417   5.074  0.5032 -0.6170  0.3199
  572MOL0     C75399   7.271   2.456   5.175 -0.4531 -0.0299  0.0146
  572MOL0     C75400   7.274   2.411   5.303 -0.4595  0.1957  0.1932
  572MOL0     C75401   7.188   2.454   5.401  0.2054  0.0279  0.4293
  572MOL0     O75402   7.073   2.526   5.362 -0.4820 -0.7646 -0.4319
  572MOL0     C75403   6.981   2.544   5.457  0.0301  0.2887  0.0708
  572MOL0     C75404   6.883   2.446   5.477  0.3622 -0.3836  0.8106
  572MOL0     C75405   6.790   2.458   5.585 -0.1578  1.1674 -0.0302
  572MOL0     C75406   6.794   2.571   5.669  1.4778  1.2660  1.1287
  572MOL0     O75407   6.714   2.576   5.779 -0.6352 -0.1901 -0.3195
  572MOL0     C75408   6.590   2.637   5.762  0.5921 -0.9604 -0.2132
  572MOL0     C75409   6.493   2.524   5.732  0.0761 -0.0411 -0.1557
  572MOL0     C75410   6.355   2.560   5.774 -0.1757  0.1760  1.2345
  572MOL0     C75411   6.302   2.669   5.674  0.4067 -0.4414 -0.0163
  572MOL0     C75412   6.153   2.709   5.683  0.0299 -0.3461  0.4727
  572MOL0     C75413   6.111   2.802   5.799 -0.0586  0.7494  1.1503
  572MOL0     C75414   5.960   2.826   5.791  0.6459 -0.3635  0.9653
  572MOL0     C75415   5.919   2.898   5.659 -0.7765  0.4911  0.5374
  572MOL0    Cl75416   6.024   3.030   5.627  0.5403  0.3301 -0.2788
  572MOL0     C75417   6.894   2.670   5.648 -0.3566 -0.2456 -0.9505
  572MOL0     C75418   6.989   2.652   5.548  0.0143  0.0597  0.0351
  572MOL0     O75419   7.203   2.402   5.516 -0.5593 -0.3771 -0.3603
  572MOL0     C75420   7.382   2.315   5.334  0.1415  0.0165 -0.0700
  572MOL0     C75421   7.481   2.284   5.232 -0.1303  0.5194  0.0055
  572MOL0     N75422   8.108   2.106   4.963 -0.4970  0.2908  0.0218
  572MOL0     N75423   8.135   1.993   4.921  0.1806 -0.0454 -0.0406
  572MOL0     C75424   7.622   1.124   4.034  0.9527 -0.4738 -1.0013
  572MOL0     C75425   7.524   1.030   4.057 -0.2329  0.6400 -0.8653
  572MOL0     C75426   7.228   0.723   4.209 -0.7150 -0.2161  0.0278
  572MOL0     C75427   7.155   0.782   4.313 -0.9778 -0.0936  0.1995
  572MOL0     C75428   7.036   0.733   4.364  0.6584  0.0428  0.1674
  572MOL0     C75429   6.988   0.614   4.307 -0.1980  0.6022 -0.9308
  572MOL0     O75430   6.876   0.549   4.357 -0.1481  0.1617  0.3849
  572MOL0     C75431   6.775   0.623   4.430  0.3497  0.9015 -0.2622
  572MOL0     C75432   6.663   0.530   4.484  0.3144 -0.8563 -0.4198
  572MOL0     C75433   6.705   0.392   4.524 -1.1299 -0.0557 -0.3038
  572MOL0     C75434   6.598   0.297   4.577 -0.4630  0.7784 -0.3853
  572MOL0     C75435   6.674   0.166   4.595  0.5528  0.1434 -1.3374
  572MOL0     C75436   6.727   0.062   4.639 -0.4313  0.7109 -0.3319
  572MOL0     C75437   7.062   0.550   4.206 -0.8277 -0.1951 -0.5813
  572MOL0     C75438   7.185   0.605   4.160 -0.4056  0.7989 -0.7773
  572MOL0     H75439   7.605   0.965   4.386 -0.1002 -2.7030 -0.7444
  572MOL0     H75440   7.766   1.143   4.342 -1.5698  1.7184  0.9669
  572MOL0     H75441   7.914   1.437   4.162 -2.9759  3.0698 -0.1314
  572MOL0     H75442   7.902   1.314   4.277  2.0357 -0.8343 -2.6505
  572MOL0     H75443   7.647   1.375   4.292 -1.9973  1.8078 -2.8605
  572MOL0     H75444   7.698   1.514   4.187  0.2165 -0.8967 -1.7246
  572MOL0     H75445   7.772   1.434   4.474 -0.6026 -2.3464 -2.3579
  572MOL0     H75446   7.680   1.582   4.429  0.6002  0.5713  1.0081
  572MOL0     H75447   7.980   1.559   4.397  1.6230  2.4737 -1.8933
  572MOL0     H75448   7.875   1.672   4.305 -1.0913 -0.2270  0.4084
  572MOL0     H75449   7.776   1.755   4.502 -0.9890 -1.0379  0.4033
  572MOL0     H75450   7.952   1.784   4.480  0.1321 -1.8708 -0.6956
  572MOL0     H75451   8.015   1.615   4.635  0.2354  2.0794 -0.2948
  572MOL0     H75452   7.859   1.598   4.703  1.1142 -2.0952 -0.6452
  572MOL0     H75453   7.869   1.860   4.723  2.3241  1.1763 -2.5025
  572MOL0     H75454   7.945   1.771   4.850  0.1893  0.6550 -0.1221
  572MOL0     H75455   8.099   1.865   4.605  1.5340  2.1017 -0.5951
  572MOL0     H75456   8.186   1.808   4.748  1.7619  3.2362 -0.4433
  572MOL0     H75457   7.999   2.137   4.668 -1.1993 -1.8124 -0.3235
  572MOL0     H75458   8.026   2.379   4.814  0.6820 -0.7075 -0.8891
  572MOL0     H75459   8.038   2.364   4.976  2.6950 -0.8883 -1.9345
  572MOL0     H75460   7.810   2.215   4.966 -7.0931  0.9164 -0.9605
  572MOL0     H75461   7.825   2.228   4.793  0.8361 -1.0267  0.8752
  572MOL0     H75462   7.782   2.439   5.015 -0.8983 -1.2773  0.2583
  572MOL0     H75463   7.787   2.481   4.839  0.1201 -0.4605  0.0381
  572MOL0     H75464   7.575   2.349   4.814  0.0680  3.4900 -0.1733
  572MOL0     H75465   7.559   2.477   4.924 -0.7967  0.1827 -0.8565
  572MOL0     H75466   7.367   2.460   4.974  0.8947 -2.5086 -0.5111
  572MOL0     H75467   7.196   2.534   5.163 -2.1574 -1.2678  1.9192
  572MOL0     H75468   6.899   2.359   5.414 -0.5047 -1.6676  2.2994
  572MOL0     H75469   6.719   2.382   5.616  0.7231  0.4756  0.3705
  572MOL0     H75470   6.576   2.706   5.678 -1.4519  0.5008  1.2372
  572MOL0     H75471   6.556   2.693   5.850  3.4979 -0.0408  0.4309
  572MOL0     H75472   6.526   2.438   5.790 -1.2694 -2.6494 -2.9485
  572MOL0     H75473   6.488   2.507   5.624  3.5752 -3.3863 -0.0121
  572MOL0     H75474   6.332   2.591   5.876  0.0623 -0.3557  1.4519
  572MOL0     H75475   6.289   2.474   5.756 -0.7523  0.3223  2.5665
  572MOL0     H75476   6.356   2.765   5.676  1.9003 -1.1151 -2.7932
  572MOL0     H75477   6.326   2.629   5.575 -0.4873  2.6912 -1.6358
  572MOL0     H75478   6.090   2.621   5.693 -0.7809  0.1538 -0.1412
  572MOL0     H75479   6.130   2.759   5.589 -0.5244  2.5563  2.0227
  572MOL0     H75480   6.165   2.896   5.785 -2.2164  2.0465  1.0562
  572MOL0     H75481   6.136   2.757   5.895 -0.9346 -2.1319  0.1311
  572MOL0     H75482   5.886   2.751   5.821 -0.3119  0.8029  1.6051
  572MOL0     H75483   5.943   2.901   5.869  0.9364 -1.8328  2.4892
  572MOL0     H75484   5.815   2.933   5.657 -2.1223 -3.1078 -1.6557
  572MOL0     H75485   5.920   2.829   5.574 -1.1858  1.6959 -0.4850
  572MOL0     H75486   6.909   2.750   5.720 -1.0479 -1.2299  0.3292
  572MOL0     H75487   7.067   2.723   5.524  1.0901 -0.9941  0.2556
  572MOL0     H75488   7.407   2.284   5.435  3.1283 -2.2331 -1.3615
  572MOL0     H75489   7.569   2.229   5.262  1.4534  2.0729 -1.5836
  572MOL0     H75490   7.622   1.181   3.941  0.8550  1.0627 -0.0948
  572MOL0     H75491   7.446   1.000   3.988  1.3452 -1.5557 -1.7898
  572MOL0     H75492   7.188   0.881   4.344  1.4502 -0.6720 -0.3594
  572MOL0     H75493   6.989   0.802   4.433  0.7619  2.1514 -1.7604
  572MOL0     H75494   6.731   0.705   4.372  1.1664  0.7591 -1.0995
  572MOL0     H75495   6.823   0.682   4.508  1.1834 -0.6829  0.4763
  572MOL0     H75496   6.614   0.577   4.570 -2.0858 -3.5543 -0.1430
  572MOL0     H75497   6.582   0.529   4.410  3.0180  1.4974 -3.7045
  572MOL0     H75498   6.773   0.409   4.608  0.8231  3.0002 -2.3013
  572MOL0     H75499   6.748   0.341   4.438 -3.5119 -0.0128 -1.6090
  572MOL0     H75500   6.557   0.341   4.668 -0.3254  3.4932 -1.5366
  572MOL0     H75501   6.520   0.280   4.502 -2.0911 -0.4868  1.5004
  572MOL0     H75502   6.768  -0.029   4.678 -0.2257  0.2358 -1.6120
  572MOL0     H75503   7.030   0.455   4.165  2.4338 -0.6994 -2.3494
  572MOL0     H75504   7.241   0.556   4.081  1.2441 -0.0261  0.8256
  573MOL0     O75505   5.395   0.566   1.046 -0.1194  0.6216 -0.2931
  573MOL0     C75506   5.335   0.496   0.969  0.1458 -0.8124  0.0705
  573MOL0     O75507   5.203   0.520   0.921 -0.1807 -0.3514  0.3984
  573MOL0     C75508   5.117   0.615   0.981  0.1606 -0.8568 -0.9366
  573MOL0     C75509   5.026   0.682   0.903  0.0237 -0.3155 -0.1957
  573MOL0     C75510   4.932   0.763   0.972 -0.2616  0.3262  0.1471
  573MOL0     C75511   4.949   0.799   1.110 -0.0599  0.8150 -0.0588
  573MOL0     O75512   4.876   0.881   1.179 -0.0299 -0.4412  0.1290
  573MOL0     C75513   4.765   0.946   1.120  0.3782 -0.0795  0.5496
  573MOL0     C75514   4.650   0.847   1.095  0.0260  0.1516 -0.3889
  573MOL0     C75515   4.563   0.887   0.974 -0.3962 -0.3951 -0.9078
  573MOL0     C75516   4.462   0.774   0.951 -0.2768 -0.8095  0.6084
  573MOL0     C75517   4.351   0.812   0.849 -0.7966 -0.6609  0.6289
  573MOL0     C75518   4.233   0.718   0.870  0.5301  0.2254  0.3924
  573MOL0     C75519   4.116   0.731   0.766 -0.8065  0.6233  0.5910
  573MOL0     C75520   4.158   0.690   0.629 -0.2086 -0.4695  0.1671
  573MOL0     N75521   4.055   0.691   0.522  0.5870  0.1984  0.1674
  573MOL0     C75522   3.919   0.726   0.545  0.2237 -0.1500  0.5718
  573MOL0     C75523   3.850   0.707   0.421  0.5927 -0.2627  0.4027
  573MOL0     C75524   3.712   0.721   0.368 -0.5850 -0.4331  0.4500
  573MOL0     C75525   3.705   0.866   0.323  0.6151 -0.3861 -0.6984
  573MOL0     C75526   3.548   0.901   0.312 -0.6082 -0.3910 -0.9633
  573MOL0     C75527   3.480   0.818   0.203 -0.6231 -0.1671 -0.7003
  573MOL0     O75528   3.359   0.872   0.153 -0.7891 -0.4826 -0.0449
  573MOL0     C75529   3.318   0.823   0.032 -0.1947  0.5374  0.2443
  573MOL0     C75530   3.219   0.899  -0.042  0.1428  0.0916 -0.5454
  573MOL0     C75531   3.169   0.845  -0.159 -0.3920  0.5950 -0.1549
  573MOL0     C75532   3.219   0.724  -0.210 -0.7870  0.8789  0.5077
  573MOL0     C75533   3.159   0.669  -0.337  0.2870 -0.8069 -0.7188
  573MOL0     O75534   3.048   0.738  -0.375 -0.2479  0.2347 -0.3822
  573MOL0     C75535   3.015   0.738  -0.509 -0.1786  0.2143 -0.4680
  573MOL0     C75536   3.087   0.699  -0.617 -0.0749  0.5867  0.1677
  573MOL0     C75537   3.045   0.703  -0.753  1.2240 -0.5597 -0.4859
  573MOL0     C75538   2.914   0.753  -0.782  0.0000  0.6426  0.4675
  573MOL0     O75539   2.894   0.753  -0.920 -0.2795  0.5728  0.0125
  573MOL0     C75540   2.771   0.817  -0.965 -0.4423 -0.2442  0.4456
  573MOL0     C75541   2.786   0.829  -1.115 -0.4395  1.0303  0.7380
  573MOL0     C75542   2.918   0.907  -1.141  0.5727  0.1550 -0.0140
  573MOL0     C75543   2.947   0.921  -1.287  0.6443 -0.4531  0.6903
  573MOL0     C75544   3.088   0.963  -1.335  1.3588 -0.4600 -0.1248
  573MOL0     C75545   3.095   0.937  -1.484  1.5216 -0.8345 -0.3084
  573MOL0     C75546   3.221   0.985  -1.548 -0.6251 -0.0259  0.0956
  573MOL0     C75547   3.247   0.900  -1.673  0.1273 -0.6074 -0.3673
  573MOL0    Cl75548   3.238   0.724  -1.657  0.2400  0.0689  0.0949
  573MOL0     C75549   2.831   0.798  -0.673  0.1847 -0.4778  0.3185
  573MOL0     C75550   2.881   0.777  -0.540  0.2209  0.6405  0.5257
  573MOL0     O75551   3.212   0.573  -0.384 -0.1492  0.4008  0.3166
  573MOL0     C75552   3.318   0.650  -0.140 -0.2534 -1.0676  0.3309
  573MOL0     C75553   3.365   0.701  -0.012  0.2078  1.1135  0.4568
  573MOL0     N75554   3.948   0.658   0.331 -0.1353 -0.1729  0.7356
  573MOL0     N75555   4.060   0.655   0.392  0.2767 -0.6581  0.2277
  573MOL0     C75556   5.045   0.733   1.185  0.4092 -0.5269  0.0853
  573MOL0     C75557   5.120   0.630   1.127 -0.0167 -0.4503  0.3989
  573MOL0     C75558   5.413   0.390   0.905  0.1890  0.1640 -0.6328
  573MOL0     C75559   5.556   0.382   0.927  0.1806 -0.3021  0.4415
  573MOL0     C75560   5.638   0.292   0.855  0.0769  1.0534 -0.8729
  573MOL0     C75561   5.574   0.193   0.782  0.3081  0.3554  0.0991
  573MOL0     O75562   5.644   0.087   0.729 -0.6970  0.3146  0.3783
  573MOL0     C75563   5.721   0.014   0.823 -0.4615 -0.4676 -0.0261
  573MOL0     C75564   5.847  -0.051   0.759  0.5856  0.0788 -0.9226
  573MOL0     C75565   5.965   0.041   0.738  0.7939 -0.4462 -0.9434
  573MOL0     C75566   6.084  -0.042   0.699 -0.4844  0.2777  0.8126
  573MOL0     C75567   6.156  -0.097   0.819  0.1792  0.3298 -0.4563
  573MOL0     C75568   6.207  -0.132   0.925 -0.4308 -0.4207  0.8540
  573MOL0     C75569   5.441   0.199   0.770  0.9473  0.7194  0.2226
  573MOL0     C75570   5.352   0.295   0.824 -0.4546  0.4091 -0.0432
  573MOL0     H75571   5.030   0.683   0.795 -0.5187 -0.2311 -0.2188
  573MOL0     H75572   4.861   0.811   0.905 -0.3903 -0.5031 -0.3211
  573MOL0     H75573   4.800   0.983   1.023 -1.8019 -1.4599 -0.8565
  573MOL0     H75574   4.724   1.027   1.180 -0.0935 -0.3183  0.5549
  573MOL0     H75575   4.586   0.842   1.184  0.2939  2.9623  0.0831
  573MOL0     H75576   4.689   0.746   1.081  2.2759  1.0724 -1.2286
  573MOL0     H75577   4.630   0.893   0.887 -0.7655 -1.6721 -1.3014
  573MOL0     H75578   4.518   0.982   1.005 -1.4041 -0.3435 -2.4093
  573MOL0     H75579   4.508   0.681   0.917 -1.0169 -0.6958 -0.7581
  573MOL0     H75580   4.414   0.745   1.045  3.2702 -1.7602  2.2922
  573MOL0     H75581   4.396   0.812   0.749 -1.7855 -1.9110  0.1536
  573MOL0     H75582   4.322   0.916   0.870 -0.7256 -0.9886  2.5772
  573MOL0     H75583   4.196   0.718   0.973 -2.2319  1.8247 -0.5032
  573MOL0     H75584   4.260   0.616   0.843  0.1193  0.8905 -2.9679
  573MOL0     H75585   4.028   0.672   0.793 -0.5205 -0.4235 -0.6798
  573MOL0     H75586   4.090   0.837   0.776 -1.1396  0.6789 -0.6918
  573MOL0     H75587   4.206   0.591   0.629  1.8007  0.4505  0.0330
  573MOL0     H75588   4.239   0.756   0.597  2.4862 -3.4585  0.2279
  573MOL0     H75589   3.877   0.748   0.643  0.9833  1.8222  0.4979
  573MOL0     H75590   3.650   0.701   0.455 -1.1367 -0.3905  0.0686
  573MOL0     H75591   3.683   0.652   0.288 -1.0553  1.4918 -1.1126
  573MOL0     H75592   3.760   0.886   0.230  3.5175  2.3661  1.4087
  573MOL0     H75593   3.751   0.936   0.392 -0.8478  0.6932 -0.7740
  573MOL0     H75594   3.499   0.886   0.409 -0.4926 -5.3977 -1.4242
  573MOL0     H75595   3.540   1.010   0.302  0.7299  0.2283  2.8599
  573MOL0     H75596   3.469   0.710   0.222  0.0136 -0.5168 -2.2058
  573MOL0     H75597   3.550   0.802   0.121 -0.7634 -0.4935 -0.7587
  573MOL0     H75598   3.179   0.991   0.000 -0.8711 -0.5241 -0.1290
  573MOL0     H75599   3.078   0.896  -0.189 -2.0667 -0.9311  2.0425
  573MOL0     H75600   3.188   0.661  -0.604 -0.8754 -1.2643  1.3948
  573MOL0     H75601   3.097   0.674  -0.843  0.5535 -0.0857 -1.0386
  573MOL0     H75602   2.763   0.908  -0.905 -1.4564 -1.8954  2.9944
  573MOL0     H75603   2.678   0.766  -0.942 -0.3351 -0.5104  0.2980
  573MOL0     H75604   2.700   0.881  -1.161 -0.9544 -1.8119 -1.8797
  573MOL0     H75605   2.796   0.727  -1.155  4.8508  2.0685 -1.4032
  573MOL0     H75606   3.011   0.862  -1.105  0.3012 -2.2549 -2.0390
  573MOL0     H75607   2.896   1.009  -1.110 -1.1188  0.5555 -2.2056
  573MOL0     H75608   2.918   0.826  -1.335 -1.3230  1.0481 -1.3140
  573MOL0     H75609   2.882   1.001  -1.321  1.8395  0.0645 -0.4927
  573MOL0     H75610   3.161   0.898  -1.285  1.6200  0.6934  1.0537
  573MOL0     H75611   3.107   1.069  -1.317  2.6933 -0.6918 -0.0101
  573MOL0     H75612   3.007   0.982  -1.532  1.6773 -1.5558 -1.3131
  573MOL0     H75613   3.074   0.830  -1.491  2.4370 -0.9930 -0.7960
  573MOL0     H75614   3.233   1.092  -1.566  0.3175  0.0033  0.7896
  573MOL0     H75615   3.309   0.962  -1.486 -1.8671  0.5414  2.1617
  573MOL0     H75616   3.349   0.930  -1.700 -0.8781  1.5494 -2.1454
  573MOL0     H75617   3.164   0.919  -1.742 -0.9309 -2.2381  0.3921
  573MOL0     H75618   2.729   0.835  -0.679  0.7126  0.9524 -0.2884
  573MOL0     H75619   2.808   0.801  -0.463  0.1104  1.2722  0.2301
  573MOL0     H75620   3.353   0.557  -0.185  1.2906 -0.5772  0.4608
  573MOL0     H75621   3.427   0.629   0.040 -1.2583 -0.8111 -0.3378
  573MOL0     H75622   5.052   0.740   1.293  1.4428 -0.2295  0.0123
  573MOL0     H75623   5.181   0.566   1.189  0.6186 -1.2607 -1.0221
  573MOL0     H75624   5.607   0.454   0.991 -1.5647  1.3903  0.0237
  573MOL0     H75625   5.746   0.299   0.862  0.1116 -0.8169  1.5584
  573MOL0     H75626   5.665  -0.075   0.852 -1.2383 -0.4321 -1.3529
  573MOL0     H75627   5.739   0.060   0.921 -0.7407 -1.0282  0.2916
  573MOL0     H75628   5.887  -0.129   0.824  1.0801  1.4625  0.4984
  573MOL0     H75629   5.828  -0.077   0.654  1.0291  3.6929 -2.0248
  573MOL0     H75630   5.989   0.101   0.826 -0.4443  1.2577 -1.7187
  573MOL0     H75631   5.936   0.105   0.654  1.6747  2.5127  0.8602
  573MOL0     H75632   6.049  -0.119   0.629  4.1884 -1.0632 -0.4080
  573MOL0     H75633   6.159   0.015   0.643 -0.8634  4.3102  3.9639
  573MOL0     H75634   6.260  -0.157   1.015  1.1009  1.9805  0.6878
  573MOL0     H75635   5.390   0.120   0.716 -0.1131  1.9122 -0.5675
  573MOL0     H75636   5.245   0.275   0.822  0.0708 -3.1140 -0.8026
  574MOL0     O75637   6.304   4.122  10.302  0.2437 -0.2987 -0.4906
  574MOL0     C75638   6.330   4.020  10.244  0.2794 -0.0186  0.5698
  574MOL0     O75639   6.247   3.910  10.233 -0.2035 -0.7404 -0.4539
  574MOL0     C75640   6.118   3.916  10.277  0.2360 -0.5687  0.1379
  574MOL0     C75641   6.069   3.792  10.313 -0.0968 -0.8627 -1.1318
  574MOL0     C75642   5.944   3.785  10.368 -0.2860 -0.6865 -1.0236
  574MOL0     C75643   5.855   3.901  10.384  0.4499  0.7320  0.3602
  574MOL0     O75644   5.728   3.899  10.436  0.3047  0.7205 -0.4402
  574MOL0     C75645   5.673   3.775  10.486  0.9307 -0.1637 -0.6830
  574MOL0     C75646   5.536   3.796  10.532 -0.0386  0.7712 -0.7628
  574MOL0     C75647   5.479   3.667  10.586  0.3392 -0.0639  0.5601
  574MOL0     C75648   5.329   3.667  10.611  0.3571  0.0012  0.0509
  574MOL0     C75649   5.289   3.573  10.725 -0.0455  0.0061 -0.6261
  574MOL0     C75650   5.346   3.614  10.865 -0.2341  0.3890  0.2472
  574MOL0     C75651   5.252   3.539  10.960 -0.4553 -0.2448 -0.0198
  574MOL0     C75652   5.269   3.555  11.114  0.1658 -0.0499  0.4382
  574MOL0     N75653   5.303   3.687  11.160 -0.2932 -0.5732  0.0203
  574MOL0     C75654   5.231   3.804  11.135  0.7154  0.7596 -0.0518
  574MOL0     C75655   5.276   3.895  11.220 -0.6722 -0.1750  0.6036
  574MOL0     C75656   5.222   4.037  11.261  0.9937  0.2445 -0.1551
  574MOL0     C75657   5.186   4.039  11.408  0.2569  0.8059 -0.9299
  574MOL0     C75658   5.159   4.188  11.450 -0.6626 -0.4838 -0.4921
  574MOL0     C75659   5.086   4.177  11.580  0.4986  0.1616 -0.3977
  574MOL0     O75660   5.183   4.142  11.681  0.1374 -0.0821  0.1525
  574MOL0     C75661   5.138   4.111  11.804  0.6493 -1.0753  0.5981
  574MOL0     C75662   5.033   4.176  11.860 -0.5404  0.5317 -0.2942
  574MOL0     C75663   4.978   4.145  11.986 -0.3017 -0.2647 -0.2442
  574MOL0     C75664   5.042   4.043  12.067 -0.1915  0.2753  0.5364
  574MOL0     C75665   4.986   4.029  12.198 -0.1612  0.2267  0.5518
  574MOL0     O75666   4.977   3.900  12.235 -0.1312 -0.0348  1.2257
  574MOL0     C75667   4.971   3.852  12.366  0.0542  0.0662  0.2734
  574MOL0     C75668   5.075   3.767  12.406 -0.1213 -1.2932 -0.2066
  574MOL0     C75669   5.069   3.712  12.538  0.8309 -0.3047  0.1849
  574MOL0     C75670   4.979   3.762  12.629  0.9078  0.0861 -0.6357
  574MOL0     O75671   4.975   3.715  12.759  0.0269  0.4713  0.1991
  574MOL0     C75672   5.036   3.583  12.799 -0.2572  0.0455 -0.4572
  574MOL0     C75673   5.001   3.533  12.940  0.2117 -0.5193  0.2780
  574MOL0     C75674   5.047   3.396  12.966  0.7666 -0.1280 -0.6821
  574MOL0     C75675   4.961   3.339  13.081  0.1842 -0.3564 -0.3111
  574MOL0     C75676   5.036   3.219  13.128 -0.4666 -0.2949 -0.5647
  574MOL0     C75677   4.949   3.124  13.215 -0.0708  0.4282 -0.3844
  574MOL0     C75678   5.027   3.003  13.269 -0.0951 -0.2960 -0.2328
  574MOL0     C75679   5.076   2.901  13.170 -0.3619 -0.3615  0.0756
  574MOL0    Cl75680   5.209   2.809  13.228  0.3152  0.1658 -0.3203
  574MOL0     C75681   4.879   3.858  12.584 -0.9408 -0.7652 -0.5165
  574MOL0     C75682   4.872   3.897  12.455 -0.1744 -0.5884  0.2110
  574MOL0     O75683   4.978   4.124  12.276  0.2968 -0.4411  0.4950
  574MOL0     C75684   5.146   3.971  12.009 -0.4117 -0.4073  0.1457
  574MOL0     C75685   5.185   4.000  11.872 -0.7776  0.1232  0.8479
  574MOL0     N75686   5.377   3.838  11.291 -0.5099 -0.4658  0.1876
  574MOL0     N75687   5.399   3.724  11.246  0.3442  0.1888  0.5000
  574MOL0     C75688   5.905   4.023  10.334 -0.2997  0.3633  0.4874
  574MOL0     C75689   6.034   4.027  10.279 -0.8509  0.3316  1.1110
  574MOL0     C75690   6.479   3.999  10.201  1.1730  0.8840  0.0761
  574MOL0     C75691   6.518   3.879  10.140 -0.5914 -0.2092  0.4052
  574MOL0     C75692   6.647   3.867  10.101  0.1767  0.7499  0.4130
  574MOL0     C75693   6.732   3.974  10.095  0.7203  0.5478 -0.0397
  574MOL0     O75694   6.849   3.960  10.030  0.0681  0.1398  0.5072
  574MOL0     C75695   6.924   3.845  10.058 -0.2980  0.0424 -0.3790
  574MOL0     C75696   7.069   3.843   9.992  0.1762 -0.3216  0.2249
  574MOL0     C75697   7.173   3.935  10.064  0.0527  0.4489  0.7168
  574MOL0     C75698   7.126   4.080  10.073 -0.5951  0.3843  0.8622
  574MOL0     C75699   7.130   4.133   9.939 -0.5033  0.6099 -0.3856
  574MOL0     C75700   7.134   4.192   9.833  1.1858 -1.2797 -0.4204
  574MOL0     C75701   6.712   4.089  10.170  1.2158 -0.7925 -0.3875
  574MOL0     C75702   6.578   4.101  10.221 -0.3435  0.0415  0.7138
  574MOL0     H75703   6.124   3.699  10.322 -4.7552 -3.7978  0.7198
  574MOL0     H75704   5.909   3.686  10.397 -3.3980  0.5852 -0.0078
  574MOL0     H75705   5.725   3.725  10.569  0.6883  3.2340  1.7370
  574MOL0     H75706   5.668   3.706  10.401 -2.5570 -0.7066 -0.1588
  574MOL0     H75707   5.481   3.835  10.446  1.9342 -0.0514 -2.4762
  574MOL0     H75708   5.533   3.868  10.615 -1.7367  2.3732 -2.1223
  574MOL0     H75709   5.534   3.633  10.674  0.5147 -0.0625  0.4508
  574MOL0     H75710   5.504   3.584  10.520 -0.0223  0.5208 -0.3218
  574MOL0     H75711   5.297   3.769  10.636 -1.4934 -0.9952  2.0676
  574MOL0     H75712   5.283   3.648  10.514  0.3096  0.0394  0.0653
  574MOL0     H75713   5.314   3.469  10.701 -1.6181 -0.3929 -0.6283
  574MOL0     H75714   5.180   3.579  10.728 -0.0457  1.9004 -2.1438
  574MOL0     H75715   5.337   3.721  10.882 -2.6830  0.6371 -1.8944
  574MOL0     H75716   5.448   3.579  10.885  0.8936  3.6067  0.6318
  574MOL0     H75717   5.152   3.580  10.942 -1.5663 -2.0786  1.5753
  574MOL0     H75718   5.224   3.442  10.918 -1.0603  0.1364 -0.5309
  574MOL0     H75719   5.352   3.496  11.154 -0.8507 -0.1596  2.5582
  574MOL0     H75720   5.170   3.529  11.154 -0.9007 -1.1528 -2.6465
  574MOL0     H75721   5.139   3.810  11.077  1.2845  0.6571 -1.0010
  574MOL0     H75722   5.143   4.069  11.193  1.4401  1.7390 -0.0031
  574MOL0     H75723   5.301   4.108  11.238 -1.2605  2.3112 -2.0516
  574MOL0     H75724   5.259   3.984  11.468 -0.6445  1.3343  0.7424
  574MOL0     H75725   5.095   3.980  11.398  0.2280  0.4724  0.8923
  574MOL0     H75726   5.258   4.230  11.467 -1.2126  0.0512  1.7405
  574MOL0     H75727   5.106   4.236  11.368  0.1011 -1.1620 -1.3975
  574MOL0     H75728   5.010   4.097  11.582  0.3495  0.2794 -1.1162
  574MOL0     H75729   5.033   4.270  11.601 -0.4877 -1.0276  3.0010
  574MOL0     H75730   4.977   4.258  11.815 -3.8490 -0.5581  1.4313
  574MOL0     H75731   4.893   4.197  12.031  0.2939 -0.3009  0.9703
  574MOL0     H75732   5.167   3.746  12.353  1.4715  0.2155  1.7761
  574MOL0     H75733   5.143   3.637  12.562  0.8597  0.4328  2.6202
  574MOL0     H75734   5.142   3.595  12.778 -0.5626 -1.3493 -3.1117
  574MOL0     H75735   5.005   3.503  12.732 -2.5541 -1.0433  1.7363
  574MOL0     H75736   4.893   3.547  12.944  0.4857  2.7446 -0.7813
  574MOL0     H75737   5.040   3.602  13.015 -0.1549  0.7874 -0.6971
  574MOL0     H75738   5.146   3.419  13.007 -0.4066  3.0465  0.6469
  574MOL0     H75739   5.050   3.320  12.886  3.6252  0.9998 -1.7931
  574MOL0     H75740   4.959   3.402  13.170  0.8871 -0.9239  0.1145
  574MOL0     H75741   4.857   3.320  13.053 -0.6817  3.3279 -0.1440
  574MOL0     H75742   5.125   3.245  13.186 -0.7602 -2.0622  0.7357
  574MOL0     H75743   5.073   3.168  13.038  1.9652  1.0467 -0.4301
  574MOL0     H75744   4.859   3.089  13.163  1.3334 -3.1036 -0.7511
  574MOL0     H75745   4.925   3.187  13.300  2.7415  0.4978  0.4619
  574MOL0     H75746   5.115   3.055  13.307 -0.9126  1.8881 -1.1607
  574MOL0     H75747   4.982   2.963  13.360  2.2755  0.4732  1.3748
  574MOL0     H75748   5.103   2.932  13.069  0.4296  0.9561  0.6650
  574MOL0     H75749   4.990   2.833  13.163 -2.5315  1.8997  2.5169
  574MOL0     H75750   4.809   3.894  12.659  1.2626 -0.4231  1.4856
  574MOL0     H75751   4.798   3.969  12.422  0.3825  0.1544  0.5674
  574MOL0     H75752   5.187   3.889  12.067 -0.0026  1.2884  2.4005
  574MOL0     H75753   5.270   3.953  11.824 -1.3024 -1.4339  1.3647
  574MOL0     H75754   5.847   4.112  10.358  2.0503  1.6186  1.8253
  574MOL0     H75755   6.067   4.116  10.226 -0.3623  0.5341  1.7381
  574MOL0     H75756   6.433   3.811  10.142 -1.3367  0.4930  5.0451
  574MOL0     H75757   6.685   3.772  10.065  2.2923  1.9672 -0.7500
  574MOL0     H75758   6.876   3.757  10.014  1.9449 -1.8300  0.6355
  574MOL0     H75759   6.922   3.825  10.166  0.1643  2.4696  0.1220
  574MOL0     H75760   7.106   3.741  10.004  3.0197  0.5859 -0.0370
  574MOL0     H75761   7.059   3.881   9.890  0.2575  1.0276  0.6971
  574MOL0     H75762   7.270   3.925  10.014 -0.2582 -0.5976  0.3124
  574MOL0     H75763   7.189   3.892  10.163  3.7805 -1.6478 -0.5859
  574MOL0     H75764   7.032   4.092  10.128 -3.1061 -1.0743 -2.7080
  574MOL0     H75765   7.192   4.145  10.131 -1.7797  0.3704  2.2753
  574MOL0     H75766   7.122   4.246   9.741  1.7725  3.1055  1.8151
  574MOL0     H75767   6.787   4.167  10.182 -1.7235  1.9460  1.6668
  574MOL0     H75768   6.551   4.201  10.253  0.9761  0.9039 -0.6643
  575MOL0     O75769  10.673   2.644   7.218 -0.3729  1.0050 -0.5904
  575MOL0     C75770  10.660   2.722   7.312 -0.2325 -0.0424  0.3584
  575MOL0     O75771  10.582   2.832   7.317 -0.3723  0.8605 -0.7155
  575MOL0     C75772  10.506   2.884   7.217 -1.1527  0.2632 -0.8822
  575MOL0     C75773  10.443   3.015   7.234 -0.1712  0.0105  0.4665
  575MOL0     C75774  10.393   3.087   7.126 -0.1988 -0.1454 -0.7476
  575MOL0     C75775  10.378   3.023   7.006 -0.2660  1.3532  0.3160
  575MOL0     O75776  10.309   3.064   6.895 -0.5122  0.4027 -0.9862
  575MOL0     C75777  10.257   3.197   6.901 -0.4495 -0.7997  1.1724
  575MOL0     C75778  10.176   3.209   6.768  0.3160 -0.7233  0.6971
  575MOL0     C75779  10.033   3.147   6.771  1.6697 -0.1240  1.3194
  575MOL0     C75780   9.950   3.186   6.650 -0.3999  0.5722  0.2001
  575MOL0     C75781   9.811   3.132   6.656  1.0156  0.1233 -1.0933
  575MOL0     C75782   9.735   3.188   6.532  0.3364  0.8663  0.0839
  575MOL0     C75783   9.588   3.159   6.536 -1.4909 -0.3480  0.4122
  575MOL0     C75784   9.530   3.196   6.394  0.3325 -0.1383 -0.0115
  575MOL0     N75785   9.385   3.224   6.385  0.7302 -0.2121  0.3062
  575MOL0     C75786   9.323   3.317   6.458 -0.7575  0.2304 -0.0631
  575MOL0     C75787   9.191   3.317   6.424  0.6301  0.1253  0.0858
  575MOL0     C75788   9.082   3.389   6.505  0.4016  0.2019 -0.5860
  575MOL0     C75789   8.990   3.280   6.567 -0.2188 -0.7713  1.2568
  575MOL0     C75790   8.880   3.349   6.627  0.0965 -0.3379 -0.3345
  575MOL0     C75791   8.789   3.263   6.720 -0.5014 -0.0230  0.9419
  575MOL0     O75792   8.698   3.348   6.784 -0.0205  0.0927 -0.2018
  575MOL0     C75793   8.603   3.280   6.854 -0.6909 -0.5307  1.3255
  575MOL0     C75794   8.571   3.148   6.835 -0.1505 -0.8694 -0.0119
  575MOL0     C75795   8.469   3.098   6.916 -0.8003  0.0198 -0.6331
  575MOL0     C75796   8.421   3.176   7.027  0.6401  0.6526  0.2262
  575MOL0     C75797   8.310   3.121   7.110 -0.3511 -0.2653  0.2837
  575MOL0     O75798   8.258   3.200   7.208  0.7031 -0.7273  0.2082
  575MOL0     C75799   8.180   3.148   7.308 -0.4420 -0.1775  0.3820
  575MOL0     C75800   8.216   3.040   7.381 -0.1453  1.1273  0.5609
  575MOL0     C75801   8.129   3.000   7.483  0.1982  1.2105 -0.3720
  575MOL0     C75802   8.013   3.068   7.514 -0.9371  0.0334  0.4142
  575MOL0     O75803   7.932   3.030   7.614  0.0908 -0.4264  0.2710
  575MOL0     C75804   7.919   2.889   7.648  0.2328  0.0408  0.2863
  575MOL0     C75805   7.822   2.877   7.764  0.1333 -0.4108 -1.8113
  575MOL0     C75806   7.687   2.856   7.711  0.0044  0.0524 -0.9084
  575MOL0     C75807   7.582   2.809   7.821 -0.3481  0.0875 -0.5757
  575MOL0     C75808   7.435   2.822   7.783  1.1103 -0.5989 -0.4971
  575MOL0     C75809   7.328   2.783   7.891 -0.7900 -1.1351  0.4847
  575MOL0     C75810   7.191   2.845   7.858 -0.0549 -0.3450  0.3085
  575MOL0     C75811   7.185   3.005   7.862  0.0930  0.9026 -0.8268
  575MOL0    Cl75812   7.236   3.077   8.018  0.4770 -0.6701 -0.1967
  575MOL0     C75813   7.984   3.182   7.440  0.0565 -0.1961  0.3771
  575MOL0     C75814   8.071   3.226   7.344 -1.4017  0.5765  0.1114
  575MOL0     O75815   8.270   3.008   7.077  0.0383  0.4201 -0.1387
  575MOL0     C75816   8.478   3.307   7.056  0.6656  0.6200  0.0425
  575MOL0     C75817   8.559   3.358   6.958 -0.1257 -1.1910 -0.3172
  575MOL0     N75818   9.174   3.217   6.336 -0.0405  0.0231  0.4240
  575MOL0     N75819   9.290   3.159   6.307  0.4848 -0.5425  0.0123
  575MOL0     C75820  10.429   2.896   6.986  0.3357 -0.0476  0.0383
  575MOL0     C75821  10.487   2.825   7.091 -0.0458 -0.3820  0.5133
  575MOL0     C75822  10.728   2.695   7.435  0.4652  0.9864 -0.4392
  575MOL0     C75823  10.844   2.614   7.434  0.5428  0.0203 -0.3894
  575MOL0     C75824  10.901   2.579   7.554 -0.9287  0.2670  1.1880
  575MOL0     C75825  10.838   2.606   7.672  0.4525 -0.2683 -0.6044
  575MOL0     O75826  10.907   2.558   7.785  0.1409 -0.9125 -0.1129
  575MOL0     C75827  10.837   2.488   7.878  0.2389  0.0251 -0.4929
  575MOL0     C75828  10.856   2.336   7.871 -0.1221  0.6051  0.8118
  575MOL0     C75829  11.012   2.320   7.882  0.1175  0.6920 -0.0519
  575MOL0     C75830  11.099   2.314   7.755  0.2787 -0.1657 -0.2932
  575MOL0     C75831  11.089   2.180   7.699  0.1397 -0.3800  0.1265
  575MOL0     C75832  11.079   2.066   7.643 -0.4343  0.2682  0.0166
  575MOL0     C75833  10.731   2.696   7.679 -0.7557  0.5212  0.0338
  575MOL0     C75834  10.675   2.741   7.557 -0.7419  0.3282  0.5503
  575MOL0     H75835  10.452   3.058   7.334 -2.9066 -0.4361  0.9920
  575MOL0     H75836  10.350   3.183   7.151 -0.4150 -0.3970 -0.1210
  575MOL0     H75837  10.341   3.267   6.897  1.5319 -3.1037 -1.9031
  575MOL0     H75838  10.201   3.226   6.991  0.2438  3.8291  0.3671
  575MOL0     H75839  10.220   3.160   6.681 -0.8332 -1.5400  0.5476
  575MOL0     H75840  10.179   3.315   6.741 -2.6952 -0.6699  0.2373
  575MOL0     H75841   9.997   3.189   6.866  3.8767 -0.2714  2.2770
  575MOL0     H75842  10.021   3.038   6.776 -1.5220 -0.0834 -1.6624
  575MOL0     H75843   9.959   3.294   6.633  1.2951  0.6015  1.0482
  575MOL0     H75844   9.993   3.134   6.564 -0.0130 -0.1431  0.8208
  575MOL0     H75845   9.761   3.183   6.739 -2.2261  0.6696 -3.2082
  575MOL0     H75846   9.808   3.024   6.669 -0.8907  0.2852  0.1683
  575MOL0     H75847   9.785   3.147   6.444 -3.0909 -3.0446 -0.3235
  575MOL0     H75848   9.748   3.297   6.543  4.0311  0.4153  1.7981
  575MOL0     H75849   9.586   3.052   6.559  0.2188 -0.4162  0.3583
  575MOL0     H75850   9.536   3.214   6.615  1.3982  3.2076  0.1377
  575MOL0     H75851   9.561   3.120   6.321  0.1402  2.0637 -2.5230
  575MOL0     H75852   9.571   3.287   6.351  0.4502 -0.6512 -1.0133
  575MOL0     H75853   9.355   3.372   6.546 -0.2787  0.3704 -0.3254
  575MOL0     H75854   9.023   3.458   6.444 -0.1516  1.4567  1.2610
  575MOL0     H75855   9.122   3.454   6.584  1.8518  0.8087 -1.7645
  575MOL0     H75856   9.048   3.214   6.631  0.7573  0.2787  1.4999
  575MOL0     H75857   8.948   3.215   6.489 -1.5547  0.5151  0.8511
  575MOL0     H75858   8.924   3.432   6.683  1.6621 -1.5481  0.3254
  575MOL0     H75859   8.821   3.382   6.542 -1.6423  1.5279  1.4703
  575MOL0     H75860   8.864   3.216   6.785  2.7079  0.4516 -2.1509
  575MOL0     H75861   8.734   3.200   6.651 -1.2178  3.4626 -1.9579
  575MOL0     H75862   8.589   3.078   6.754  2.2226 -4.1243  3.0452
  575MOL0     H75863   8.422   3.004   6.892 -0.3632 -0.2940 -0.2850
  575MOL0     H75864   8.302   2.980   7.354 -0.2416 -0.2214  2.9294
  575MOL0     H75865   8.154   2.910   7.540 -0.5595  1.8735  1.0749
  575MOL0     H75866   8.015   2.855   7.690 -0.2103  2.7512  3.9434
  575MOL0     H75867   7.897   2.832   7.557  2.8172  0.6775 -0.8326
  575MOL0     H75868   7.836   2.972   7.816  3.3677 -0.8691 -1.6227
  575MOL0     H75869   7.846   2.791   7.827 -2.8441  0.6209  0.9838
  575MOL0     H75870   7.694   2.764   7.653 -0.8101 -2.3548  2.4845
  575MOL0     H75871   7.652   2.948   7.663 -0.7181  1.2239  1.6483
  575MOL0     H75872   7.599   2.701   7.834 -3.5790 -0.5404 -0.9005
  575MOL0     H75873   7.615   2.865   7.909  2.0517 -2.9356  0.6559
  575MOL0     H75874   7.422   2.760   7.695 -3.2780 -1.1052  0.2961
  575MOL0     H75875   7.436   2.929   7.761  2.0191 -0.0931  1.6446
  575MOL0     H75876   7.371   2.818   7.985 -0.7328  1.7099 -0.5263
  575MOL0     H75877   7.327   2.673   7.899  2.5191 -1.1911  1.5464
  575MOL0     H75878   7.152   2.805   7.764  3.9793  0.7078 -2.0410
  575MOL0     H75879   7.129   2.797   7.935  0.6273 -2.6785 -0.5153
  575MOL0     H75880   7.080   3.012   7.831  0.4550  0.3683 -2.3081
  575MOL0     H75881   7.244   3.050   7.781  0.0860  4.6961  1.1062
  575MOL0     H75882   7.901   3.244   7.474  1.1477  0.5281  1.8587
  575MOL0     H75883   8.051   3.315   7.284  1.4607 -1.1752 -3.9114
  575MOL0     H75884   8.445   3.373   7.135  0.4407  0.1500  0.3485
  575MOL0     H75885   8.600   3.458   6.970  1.2044 -1.5786 -1.3557
  575MOL0     H75886  10.430   2.857   6.885  0.5882  2.8097 -1.1843
  575MOL0     H75887  10.542   2.736   7.061  0.0916  1.0200 -4.2411
  575MOL0     H75888  10.896   2.582   7.344  2.1520  1.0007  0.1453
  575MOL0     H75889  10.993   2.522   7.555 -0.9008  0.2440 -0.2013
  575MOL0     H75890  10.729   2.505   7.873  0.5053  1.8592 -0.8030
  575MOL0     H75891  10.869   2.527   7.976  0.2764 -0.2764 -0.3840
  575MOL0     H75892  10.814   2.281   7.956 -0.1994  1.3960  1.2964
  575MOL0     H75893  10.821   2.311   7.771  0.7552  1.6674  0.2116
  575MOL0     H75894  11.041   2.229   7.935 -2.8963  0.5376  1.5706
  575MOL0     H75895  11.050   2.396   7.951 -0.4903  0.4115  0.6023
  575MOL0     H75896  11.053   2.385   7.685 -0.8635 -0.1605  0.4400
  575MOL0     H75897  11.205   2.331   7.776  1.0217 -3.8095 -0.5006
  575MOL0     H75898  11.093   1.967   7.603 -0.4397 -0.0960  0.9044
  575MOL0     H75899  10.711   2.730   7.780 -0.2288  2.9784 -0.6148
  575MOL0     H75900  10.592   2.810   7.560 -0.6201  0.4410  1.4034
  576MOL0     O75901   9.590   7.269  10.269 -0.4444  0.1438 -0.0996
  576MOL0     C75902   9.640   7.377  10.261  0.5214  0.5788  0.1061
  576MOL0     O75903   9.571   7.487  10.242  0.7216 -0.2067 -0.8780
  576MOL0     C75904   9.434   7.480  10.253  0.2114  0.5873  0.8990
  576MOL0     C75905   9.380   7.443  10.377 -1.5122  0.7555  0.5989
  576MOL0     C75906   9.246   7.464  10.411  0.6217  0.6264 -0.5026
  576MOL0     C75907   9.160   7.530  10.323  0.4212 -0.1063 -0.5899
  576MOL0     O75908   9.027   7.543  10.371  0.0086 -0.0267 -0.0415
  576MOL0     C75909   8.928   7.621  10.290  0.1934  0.6823 -0.0080
  576MOL0     C75910   8.949   7.780  10.312  1.0040  0.2907  0.5553
  576MOL0     C75911   8.857   7.862  10.219  0.8399 -0.1015 -0.0992
  576MOL0     C75912   8.712   7.826  10.250 -0.4086 -0.3900 -0.4624
  576MOL0     C75913   8.625   7.946  10.201  0.6843  0.2870  0.3114
  576MOL0     C75914   8.472   7.904  10.219 -0.7822  0.1983  0.2051
  576MOL0     C75915   8.435   7.777  10.130  0.1628  0.1796  0.0894
  576MOL0     C75916   8.280   7.764  10.148 -0.2419  0.7707 -0.0374
  576MOL0     N75917   8.220   7.655  10.070 -1.0464 -0.7898 -0.6268
  576MOL0     C75918   8.095   7.642  10.016  0.0989  0.4093 -0.0283
  576MOL0     C75919   8.087   7.514   9.967 -0.7581  0.5655 -0.8247
  576MOL0     C75920   7.961   7.435   9.923 -0.2323 -0.0294 -0.5491
  576MOL0     C75921   7.844   7.433  10.032 -1.0926  0.5863 -0.6905
  576MOL0     C75922   7.874   7.358  10.167  0.0607 -0.2032  1.1227
  576MOL0     C75923   7.949   7.223  10.136 -0.7792  0.2509  0.3278
  576MOL0     O75924   7.868   7.134  10.053  0.1584 -0.4591 -0.2376
  576MOL0     C75925   7.777   7.055  10.125  0.4005  0.1536  0.5142
  576MOL0     C75926   7.747   7.050  10.264  0.0342 -0.3047  0.8913
  576MOL0     C75927   7.625   6.978  10.302 -1.0597 -0.4916 -0.2916
  576MOL0     C75928   7.546   6.909  10.212  0.0559  0.6993  0.4384
  576MOL0     C75929   7.453   6.808  10.265  0.3153 -0.3066 -0.2712
  576MOL0     O75930   7.447   6.807  10.398 -0.9728  0.0434 -0.5398
  576MOL0     C75931   7.376   6.697  10.451 -0.6276 -0.5421 -0.3347
  576MOL0     C75932   7.446   6.603  10.525  0.3731 -0.1267  0.0631
  576MOL0     C75933   7.375   6.506  10.591 -0.2202  0.7026  0.2599
  576MOL0     C75934   7.234   6.494  10.576 -0.5074  0.5964  0.0567
  576MOL0     O75935   7.145   6.406  10.633  0.2528  0.8087  0.0287
  576MOL0     C75936   7.189   6.330  10.752 -1.1620 -0.0418 -0.3189
  576MOL0     C75937   7.203   6.423  10.871 -0.6432 -0.1274  0.1478
  576MOL0     C75938   7.069   6.502  10.914  0.2359  0.0410  0.7694
  576MOL0     C75939   6.946   6.423  10.943 -0.9266  0.8183 -1.2677
  576MOL0     C75940   6.860   6.497  11.043  0.1385 -0.0098  0.0653
  576MOL0     C75941   6.723   6.427  11.083 -0.5132  0.0227 -0.6668
  576MOL0     C75942   6.653   6.492  11.204 -0.4373  0.8800 -0.3399
  576MOL0     C75943   6.532   6.405  11.251 -0.7127  0.2860  1.1847
  576MOL0    Cl75944   6.391   6.392  11.140  0.4485  0.3288  0.4149
  576MOL0     C75945   7.168   6.583  10.499 -0.2182 -0.6279 -0.4006
  576MOL0     C75946   7.236   6.689  10.431  0.4240  0.3944 -0.6707
  576MOL0     O75947   7.398   6.724  10.191 -0.9349 -0.1363 -0.4325
  576MOL0     C75948   7.583   6.915  10.078  0.1403 -0.3493  1.4704
  576MOL0     C75949   7.695   6.988  10.031 -0.3822  0.1882 -0.2780
  576MOL0     N75950   8.212   7.452   9.981 -0.7572  0.2375 -0.5594
  576MOL0     N75951   8.290   7.540  10.036  0.2945 -0.0160 -0.2548
  576MOL0     C75952   9.206   7.567  10.199 -0.2115 -0.0137  0.6305
  576MOL0     C75953   9.345   7.544  10.161  0.2384  0.3905  0.4979
  576MOL0     C75954   9.785   7.393  10.275 -0.0912  0.4947  0.4662
  576MOL0     C75955   9.879   7.289  10.272  0.8630 -0.3019  0.3595
  576MOL0     C75956  10.013   7.313  10.259 -1.2578  0.0715  0.5444
  576MOL0     C75957  10.069   7.444  10.268 -0.5008  0.1190  0.6105
  576MOL0     O75958  10.212   7.444  10.280 -0.3242 -0.5293  0.3579
  576MOL0     C75959  10.280   7.547  10.351 -0.5331 -0.3916  0.5603
  576MOL0     C75960  10.247   7.533  10.505 -0.2276 -0.3750  1.0081
  576MOL0     C75961  10.283   7.654  10.595 -0.0761  0.2759  0.0545
  576MOL0     C75962  10.426   7.707  10.575  0.3546  0.0918 -0.6671
  576MOL0     C75963  10.488   7.738  10.704  0.1671 -0.5028 -0.1351
  576MOL0     C75964  10.538   7.766  10.810  0.1270 -0.2363  0.5855
  576MOL0     C75965   9.981   7.550  10.288 -0.2767  0.5821  0.6543
  576MOL0     C75966   9.844   7.521  10.290  0.3248 -0.4009 -0.8012
  576MOL0     H75967   9.456   7.415  10.449 -0.0616 -0.0728 -1.1581
  576MOL0     H75968   9.208   7.437  10.510 -2.3522  0.9969 -1.4534
  576MOL0     H75969   8.831   7.601  10.336  0.7227  1.2628  1.4166
  576MOL0     H75970   8.928   7.571  10.193 -1.4194 -1.4317  0.9954
  576MOL0     H75971   9.052   7.811  10.292  0.6901  3.0266  2.5420
  576MOL0     H75972   8.934   7.818  10.414 -1.6307  0.2363  0.2561
  576MOL0     H75973   8.882   7.825  10.118 -0.3682 -1.1839 -0.0288
  576MOL0     H75974   8.870   7.970  10.224 -2.9912  0.4865 -0.3272
  576MOL0     H75975   8.686   7.733  10.198 -1.2314 -1.3405  1.5403
  576MOL0     H75976   8.702   7.806  10.357 -0.6688  0.2691 -0.3599
  576MOL0     H75977   8.657   7.966  10.099 -2.4606  1.1850 -0.6116
  576MOL0     H75978   8.649   8.039  10.253  3.7268 -0.1356 -0.1706
  576MOL0     H75979   8.416   7.991  10.183 -0.4897  0.5668  0.6244
  576MOL0     H75980   8.451   7.889  10.325  3.1223 -0.5803  1.0123
  576MOL0     H75981   8.463   7.798  10.026  0.2257 -3.0840 -0.6892
  576MOL0     H75982   8.498   7.694  10.166  2.3697  1.1128 -1.3709
  576MOL0     H75983   8.238   7.861  10.120 -2.0942  0.9500  2.9336
  576MOL0     H75984   8.250   7.744  10.251 -1.7555  2.5352 -0.0719
  576MOL0     H75985   8.021   7.721  10.016  1.4478  1.7188 -0.9439
  576MOL0     H75986   7.978   7.334   9.884  0.8799 -0.1681  0.2473
  576MOL0     H75987   7.938   7.504   9.841  2.2111  1.3803 -0.1277
  576MOL0     H75988   7.760   7.379   9.986 -0.0710 -4.6314  2.7207
  576MOL0     H75989   7.806   7.533  10.056  0.0517  0.6645  0.8919
  576MOL0     H75990   7.934   7.433  10.221  0.7255  2.8167 -3.3079
  576MOL0     H75991   7.784   7.336  10.226  1.8509 -0.7852  3.8531
  576MOL0     H75992   7.982   7.174  10.227 -1.5706 -2.9137 -0.9470
  576MOL0     H75993   8.044   7.241  10.086 -1.9233 -1.2960 -2.6491
  576MOL0     H75994   7.806   7.105  10.337  0.0461  2.2327 -0.9149
  576MOL0     H75995   7.587   6.995  10.402 -1.3325  1.4620 -0.6810
  576MOL0     H75996   7.554   6.617  10.532 -0.0499  2.8087  3.8712
  576MOL0     H75997   7.417   6.431  10.657 -1.2370 -0.4768 -0.3760
  576MOL0     H75998   7.282   6.275  10.736 -1.8238 -1.2675 -0.0744
  576MOL0     H75999   7.112   6.255  10.772 -1.9314  0.8836  0.2856
  576MOL0     H76000   7.287   6.493  10.865 -0.7259 -0.0470 -0.1086
  576MOL0     H76001   7.227   6.353  10.951  1.1915  0.9747  0.6337
  576MOL0     H76002   7.041   6.568  10.831  1.0630 -0.1264  0.3478
  576MOL0     H76003   7.091   6.570  10.996  0.7894  2.0808 -0.9671
  576MOL0     H76004   6.891   6.387  10.856  1.6802 -2.3316 -1.7804
  576MOL0     H76005   6.980   6.336  11.001  0.6382  0.9715 -1.9000
  576MOL0     H76006   6.841   6.598  11.005 -3.1859  0.4840  2.5915
  576MOL0     H76007   6.918   6.517  11.133  3.1253 -1.9187 -1.2991
  576MOL0     H76008   6.733   6.319  11.092  1.0921  0.2414  0.5470
  576MOL0     H76009   6.651   6.435  11.001 -1.7992  0.7688  0.4822
  576MOL0     H76010   6.723   6.500  11.288  0.6122 -1.6277 -0.8998
  576MOL0     H76011   6.619   6.592  11.176  2.9334  1.6263 -2.3610
  576MOL0     H76012   6.502   6.457  11.342  3.0114  3.1663  1.0519
  576MOL0     H76013   6.560   6.305  11.286  2.9480  0.8564  0.3657
  576MOL0     H76014   7.060   6.594  10.500  0.0067  2.9521 -1.6037
  576MOL0     H76015   7.173   6.756  10.373 -2.0709 -2.1683 -1.1440
  576MOL0     H76016   7.536   6.860   9.998  0.4199  0.6353  0.6113
  576MOL0     H76017   7.730   6.983   9.929 -0.6414 -1.9791 -0.2960
  576MOL0     H76018   9.153   7.623  10.122 -1.4735  1.3553  2.4014
  576MOL0     H76019   9.387   7.574  10.065  3.0449 -4.7819 -0.2541
  576MOL0     H76020   9.838   7.191  10.294 -2.2274  0.6381 -0.6394
  576MOL0     H76021  10.071   7.224  10.237 -0.7525  0.6612 -0.5986
  576MOL0     H76022  10.244   7.642  10.309  1.7606  0.3413  0.1359
  576MOL0     H76023  10.383   7.532  10.320 -0.4932  1.1165 -0.1446
  576MOL0     H76024  10.139   7.529  10.521 -0.3691 -3.0278 -0.0660
  576MOL0     H76025  10.297   7.449  10.555  3.3014  1.9412  1.7582
  576MOL0     H76026  10.283   7.627  10.701  0.4282  0.9803  0.2355
  576MOL0     H76027  10.207   7.731  10.580  0.9683  0.9334 -2.3908
  576MOL0     H76028  10.482   7.634  10.515  1.5362  0.3246  0.1225
  576MOL0     H76029  10.423   7.797  10.513 -0.3553 -0.9154 -2.1488
  576MOL0     H76030  10.560   7.779  10.915  1.1716  0.1898  0.3284
  576MOL0     H76031  10.018   7.651  10.303  1.1077 -0.1593  2.5516
  576MOL0     H76032   9.785   7.612  10.300  0.5555 -0.3918  0.7945
  577MOL0     O76033   9.203   3.161   5.417  0.5587  0.0633 -0.4339
  577MOL0     C76034   9.218   3.275   5.369  0.7486  0.4653  0.2480
  577MOL0     O76035   9.131   3.373   5.380 -0.3812 -0.3062 -0.4008
  577MOL0     C76036   8.997   3.325   5.398 -0.4706  1.0247  0.0088
  577MOL0     C76037   8.942   3.331   5.523 -0.0683  0.3218  0.4804
  577MOL0     C76038   8.825   3.262   5.551 -0.6727 -0.5576 -0.0451
  577MOL0     C76039   8.748   3.200   5.459 -1.0728  0.1196 -0.0666
  577MOL0     O76040   8.642   3.125   5.490 -0.2240  0.1407 -0.0044
  577MOL0     C76041   8.586   3.129   5.623  0.5431 -0.3322 -0.0859
  577MOL0     C76042   8.450   3.074   5.637  0.0995 -0.5589  0.4754
  577MOL0     C76043   8.380   3.113   5.767 -0.3617 -0.1629 -0.1856
  577MOL0     C76044   8.239   3.061   5.759 -0.4758  0.7806  0.1461
  577MOL0     C76045   8.155   3.090   5.881  0.1583 -0.1553  0.5486
  577MOL0     C76046   8.227   3.064   6.011  0.2234  0.6698 -0.3962
  577MOL0     C76047   8.143   3.067   6.135 -0.0403 -0.2843 -0.0392
  577MOL0     C76048   8.217   3.024   6.270  0.3949  0.3194  0.2920
  577MOL0     N76049   8.132   3.064   6.376  0.4992  0.1689 -0.1371
  577MOL0     C76050   8.128   3.192   6.427  0.7093  0.3973 -0.3175
  577MOL0     C76051   8.014   3.197   6.504 -0.2390 -0.0126  0.2932
  577MOL0     C76052   7.951   3.320   6.569  1.1150  0.4356 -0.2851
  577MOL0     C76053   8.062   3.405   6.644  0.5331  1.1195 -0.2736
  577MOL0     C76054   8.085   3.346   6.792  0.1950  0.2962  0.6158
  577MOL0     C76055   7.961   3.350   6.888 -1.0678 -0.5015  0.4711
  577MOL0     O76056   7.907   3.220   6.927 -0.5335  0.3626 -0.0392
  577MOL0     C76057   7.847   3.220   7.052  0.6928  0.2490  0.4299
  577MOL0     C76058   7.842   3.103   7.129  0.1831 -0.2904  0.4034
  577MOL0     C76059   7.761   3.093   7.238 -0.2272 -0.3255  0.9849
  577MOL0     C76060   7.685   3.199   7.282  1.0680  0.1389  0.0336
  577MOL0     C76061   7.585   3.189   7.396  1.1683 -0.4075 -0.0973
  577MOL0     O76062   7.506   3.301   7.412  0.0043 -0.3461 -0.9819
  577MOL0     C76063   7.424   3.314   7.522  0.6598 -1.4937  0.3159
  577MOL0     C76064   7.459   3.285   7.650  0.1438 -0.0829  0.4105
  577MOL0     C76065   7.367   3.295   7.756  0.3274 -0.4435 -0.8052
  577MOL0     C76066   7.229   3.335   7.730  0.0920 -0.6003 -0.3277
  577MOL0     O76067   7.152   3.353   7.847 -0.3840 -0.0393 -0.1840
  577MOL0     C76068   7.016   3.347   7.813  0.0404  0.0061  0.2459
  577MOL0     C76069   6.936   3.300   7.938 -0.0838 -0.3274  0.4363
  577MOL0     C76070   6.781   3.281   7.905 -0.0663 -0.1677 -0.5615
  577MOL0     C76071   6.725   3.403   7.845  0.6859  0.4304  0.0511
  577MOL0     C76072   6.573   3.388   7.837  0.2872 -0.0949 -0.2248
  577MOL0     C76073   6.516   3.529   7.828 -0.8490  0.1996 -0.5451
  577MOL0     C76074   6.361   3.537   7.812  0.1234 -0.9570 -1.2473
  577MOL0     C76075   6.306   3.685   7.786  0.0376 -0.9108  0.1723
  577MOL0    Cl76076   6.251   3.759   7.939  0.1647  0.2358  0.4252
  577MOL0     C76077   7.190   3.369   7.597  0.0203  0.7336  0.8375
  577MOL0     C76078   7.291   3.356   7.494  0.4474 -0.9251 -0.6480
  577MOL0     O76079   7.582   3.083   7.462  0.1764 -0.5194  0.3777
  577MOL0     C76080   7.704   3.324   7.217  0.6832  0.4882 -0.8181
  577MOL0     C76081   7.784   3.341   7.110 -0.2109 -1.1184 -0.4858
  577MOL0     N76082   7.948   3.078   6.490  0.4376 -0.5671  0.2366
  577MOL0     N76083   8.021   2.995   6.414  0.5102 -0.3630 -1.1282
  577MOL0     C76084   8.807   3.193   5.330 -0.1686 -0.5055 -0.1065
  577MOL0     C76085   8.931   3.251   5.298  0.0552  1.0580 -0.8089
  577MOL0     C76086   9.333   3.287   5.277  0.0136 -0.1660  0.3234
  577MOL0     C76087   9.414   3.183   5.239 -0.1903  0.1739 -0.1075
  577MOL0     C76088   9.534   3.202   5.170  0.8488  1.3273 -0.1409
  577MOL0     C76089   9.565   3.321   5.113  0.0254  0.4087 -0.6990
  577MOL0     O76090   9.691   3.325   5.060 -0.9504 -0.5915 -1.0521
  577MOL0     C76091   9.736   3.444   4.988  0.2171  0.3195  0.4011
  577MOL0     C76092   9.806   3.539   5.087  1.1333  0.1412  0.4413
  577MOL0     C76093   9.919   3.457   5.160  0.3772 -0.2838 -0.4434
  577MOL0     C76094  10.010   3.550   5.249 -0.0470  0.2299  0.2191
  577MOL0     C76095  10.080   3.634   5.160  0.0513 -0.6432  0.8288
  577MOL0     C76096  10.143   3.704   5.081 -0.3302  0.8919 -0.7547
  577MOL0     C76097   9.483   3.428   5.141  0.1972 -0.6343  0.9783
  577MOL0     C76098   9.368   3.412   5.216  0.3401  0.5032 -0.6574
  577MOL0     H76099   8.992   3.403   5.588  3.0278  0.4001 -1.7839
  577MOL0     H76100   8.793   3.259   5.655  2.5443 -0.4971  1.0610
  577MOL0     H76101   8.583   3.234   5.655  0.3549 -0.7131  1.2010
  577MOL0     H76102   8.649   3.070   5.690 -2.0751  0.3368  3.2224
  577MOL0     H76103   8.440   2.968   5.613  0.5395 -1.0849  2.4307
  577MOL0     H76104   8.399   3.123   5.554  2.1602  1.1759  0.1448
  577MOL0     H76105   8.381   3.222   5.775  3.8439  0.0624 -1.2385
  577MOL0     H76106   8.429   3.080   5.859  1.1578  2.8509  0.2067
  577MOL0     H76107   8.181   3.097   5.674 -0.4642  1.1101  0.2765
  577MOL0     H76108   8.240   2.952   5.747  3.6745  0.8755 -1.8373
  577MOL0     H76109   8.068   3.024   5.878  0.7837 -1.4403  4.3750
  577MOL0     H76110   8.116   3.192   5.878  2.1325  0.6341 -0.8123
  577MOL0     H76111   8.322   3.117   6.026  0.1771  0.9107 -0.9427
  577MOL0     H76112   8.247   2.958   5.991  1.0124  1.2967 -3.3117
  577MOL0     H76113   8.102   3.169   6.134 -1.9768 -0.9957  1.5685
  577MOL0     H76114   8.062   2.995   6.119 -0.2624  0.2998 -1.7604
  577MOL0     H76115   8.318   3.064   6.282  1.5857 -2.1958 -0.5639
  577MOL0     H76116   8.226   2.917   6.249 -1.2230  0.3284 -0.5586
  577MOL0     H76117   8.198   3.273   6.409  2.4749 -0.9656  0.1572
  577MOL0     H76118   7.877   3.274   6.635  0.7028  1.8573  0.2785
  577MOL0     H76119   7.889   3.375   6.498 -0.4579  3.9414  3.4093
  577MOL0     H76120   8.044   3.513   6.647 -0.2973  0.9649  0.9947
  577MOL0     H76121   8.161   3.402   6.596 -0.9727 -0.7696 -3.6185
  577MOL0     H76122   8.105   3.240   6.779 -2.1474 -0.0199 -1.0605
  577MOL0     H76123   8.172   3.396   6.836 -0.3026  1.9236 -0.1611
  577MOL0     H76124   7.886   3.408   6.833 -0.6330  0.1885  0.5928
  577MOL0     H76125   7.988   3.417   6.971  1.7522 -0.2946 -0.5280
  577MOL0     H76126   7.882   3.017   7.075 -2.4749 -1.0680 -0.4935
  577MOL0     H76127   7.763   2.992   7.277  1.3283 -1.3137 -1.4563
  577MOL0     H76128   7.561   3.257   7.675  0.4388  0.9717  0.4566
  577MOL0     H76129   7.405   3.283   7.857 -0.1127 -0.4686 -0.6405
  577MOL0     H76130   6.995   3.261   7.748 -0.9639 -1.3462  2.2484
  577MOL0     H76131   6.977   3.443   7.779 -0.6442 -0.1634  0.5222
  577MOL0     H76132   6.941   3.371   8.021  0.8032  0.5302 -0.3084
  577MOL0     H76133   6.985   3.210   7.977  0.3177  0.2969  1.4120
  577MOL0     H76134   6.735   3.256   8.001  1.2803 -1.0606 -0.1202
  577MOL0     H76135   6.765   3.195   7.839 -0.1843 -1.1889  0.7577
  577MOL0     H76136   6.765   3.489   7.900  1.1448 -1.0022  2.0535
  577MOL0     H76137   6.761   3.414   7.742 -0.2286  1.8136 -0.1519
  577MOL0     H76138   6.531   3.348   7.930  0.5168  1.5684  0.6319
  577MOL0     H76139   6.540   3.325   7.754 -1.3921  1.1669 -0.5700
  577MOL0     H76140   6.568   3.582   7.748 -2.6244  0.3392 -1.6627
  577MOL0     H76141   6.544   3.588   7.916  2.1622 -0.5339 -0.9156
  577MOL0     H76142   6.326   3.476   7.728 -2.4311 -0.0838 -0.9359
  577MOL0     H76143   6.317   3.492   7.901  0.9954  0.2810 -0.1531
  577MOL0     H76144   6.219   3.680   7.719 -0.1968 -1.7873  0.5238
  577MOL0     H76145   6.385   3.737   7.733  1.0169 -1.8704  0.6463
  577MOL0     H76146   7.092   3.400   7.561  0.5150 -1.0537 -2.3871
  577MOL0     H76147   7.280   3.383   7.390  1.2363  2.3062 -0.0083
  577MOL0     H76148   7.657   3.416   7.249  3.6629  1.9659 -0.3179
  577MOL0     H76149   7.785   3.439   7.063 -2.9267 -2.3246 -3.4280
  577MOL0     H76150   8.751   3.134   5.258  0.2494  0.9902 -1.7378
  577MOL0     H76151   8.981   3.226   5.205  0.1245 -0.4331 -0.3889
  577MOL0     H76152   9.397   3.084   5.280  1.4354 -0.3152 -0.5428
  577MOL0     H76153   9.600   3.117   5.162  0.5056  1.2034 -2.0230
  577MOL0     H76154   9.656   3.498   4.937  1.7452  0.3154 -2.1361
  577MOL0     H76155   9.809   3.425   4.910  0.9497  2.8257  0.3786
  577MOL0     H76156   9.835   3.626   5.027 -0.0265  2.6443  3.2639
  577MOL0     H76157   9.737   3.581   5.161  1.4087 -0.1199  0.8549
  577MOL0     H76158   9.981   3.409   5.084  1.8511 -1.9738  1.7059
  577MOL0     H76159   9.868   3.381   5.220  0.1472  0.3278  0.1522
  577MOL0     H76160   9.947   3.603   5.321 -1.1689  1.1996 -1.4088
  577MOL0     H76161  10.066   3.476   5.307 -1.4169  0.2473  1.6179
  577MOL0     H76162  10.203   3.757   5.010  2.7152  0.7132  1.4596
  577MOL0     H76163   9.499   3.519   5.085  0.1309 -2.1203 -1.6334
  577MOL0     H76164   9.306   3.497   5.243  0.0474  0.0688  0.1005
  578MOL0     O76165  10.034   6.800   0.985  0.1219  0.4557 -0.7295
  578MOL0     C76166  10.081   6.913   0.982  0.1622  0.2132  0.1909
  578MOL0     O76167  10.024   7.027   1.015  0.0360  0.3399 -0.6191
  578MOL0     C76168   9.923   7.014   1.106  0.9215  0.2761 -0.2657
  578MOL0     C76169   9.807   6.946   1.061  0.1728  1.0484 -0.0799
  578MOL0     C76170   9.702   6.929   1.148  0.6099  0.2799 -0.6043
  578MOL0     C76171   9.710   6.972   1.283 -0.2929  0.3942  0.0264
  578MOL0     O76172   9.604   6.946   1.364  0.1758  0.2426  0.5875
  578MOL0     C76173   9.565   7.057   1.453  0.4441  1.1275 -0.2970
  578MOL0     C76174   9.434   7.016   1.525  0.9356 -0.2516 -0.1445
  578MOL0     C76175   9.303   7.071   1.456 -0.0691  0.6623 -0.7127
  578MOL0     C76176   9.290   7.226   1.475  0.8183 -0.6079 -0.0341
  578MOL0     C76177   9.198   7.279   1.362 -0.2770  0.5948 -0.0670
  578MOL0     C76178   9.066   7.198   1.323  0.1121  0.2297 -0.0157
  578MOL0     C76179   8.970   7.287   1.237 -0.0527  0.4951  0.0195
  578MOL0     C76180   8.825   7.232   1.211 -0.9794  0.2307 -0.0447
  578MOL0     N76181   8.753   7.297   1.094  0.1946 -0.2059 -0.8854
  578MOL0     C76182   8.672   7.409   1.104 -0.4715  0.0457 -0.4357
  578MOL0     C76183   8.641   7.438   0.980  0.4004 -0.5255  0.3635
  578MOL0     C76184   8.552   7.540   0.921  0.6341 -0.1150 -0.3994
  578MOL0     C76185   8.411   7.491   0.887  0.2342  0.7091 -0.2949
  578MOL0     C76186   8.319   7.609   0.844 -0.3420  0.1868 -1.0018
  578MOL0     C76187   8.203   7.555   0.761 -0.0305 -0.5780 -1.0072
  578MOL0     O76188   8.147   7.468   0.860  0.8661 -0.4926  0.1248
  578MOL0     C76189   8.016   7.430   0.840 -1.0561 -0.1566  1.3978
  578MOL0     C76190   7.940   7.385   0.947 -0.2220  0.5922 -0.0558
  578MOL0     C76191   7.808   7.335   0.928  0.4141  0.0942 -0.6177
  578MOL0     C76192   7.746   7.329   0.805 -0.4882  0.0443 -0.0574
  578MOL0     C76193   7.614   7.266   0.800 -0.7534 -0.0299 -0.4103
  578MOL0     O76194   7.563   7.211   0.916 -0.8185 -0.0758 -0.1550
  578MOL0     C76195   7.473   7.112   0.911  0.6298  0.1956 -0.7953
  578MOL0     C76196   7.431   7.073   1.042 -0.2610 -0.5426  1.2891
  578MOL0     C76197   7.338   6.973   1.069  0.6571 -0.5897 -1.0569
  578MOL0     C76198   7.283   6.908   0.958 -0.1915  0.5969  0.8520
  578MOL0     O76199   7.195   6.802   0.978  0.5244 -0.1807  0.3131
  578MOL0     C76200   7.058   6.845   1.023 -0.6349 -0.8187 -0.0465
  578MOL0     C76201   6.977   6.724   1.072  0.9439 -0.2655 -0.2971
  578MOL0     C76202   6.830   6.753   1.068  0.2006 -0.6329 -0.0531
  578MOL0     C76203   6.768   6.618   1.097 -0.3395 -0.4729  0.7430
  578MOL0     C76204   6.620   6.634   1.053 -0.2465  0.2350 -0.1932
  578MOL0     C76205   6.537   6.748   1.115  0.3912 -0.4918 -0.3088
  578MOL0     C76206   6.402   6.763   1.036  0.2952 -0.0680  0.0699
  578MOL0     C76207   6.306   6.864   1.110  0.1339  0.3015  0.5981
  578MOL0    Cl76208   6.160   6.923   1.023 -0.1231 -0.0028  0.1719
  578MOL0     C76209   7.327   6.930   0.827  0.1601  0.0677  0.2214
  578MOL0     C76210   7.430   7.023   0.803  0.4182  0.0623 -0.3906
  578MOL0     O76211   7.581   7.242   0.685  0.3080 -0.1181 -0.2585
  578MOL0     C76212   7.822   7.383   0.696  0.4869  0.9744  0.0221
  578MOL0     C76213   7.953   7.440   0.707  0.8436 -0.5034  0.2068
  578MOL0     N76214   8.689   7.335   0.899 -0.1218 -0.0408  0.3162
  578MOL0     N76215   8.775   7.261   0.967 -0.6337 -0.6120  0.4622
  578MOL0     C76216   9.830   7.031   1.330  0.3771 -0.6609  0.4213
  578MOL0     C76217   9.936   7.055   1.242  0.0721  0.6175  0.8094
  578MOL0     C76218  10.187   6.929   0.884 -1.2013 -0.1994  0.0928
  578MOL0     C76219  10.186   7.032   0.788 -0.2501 -0.1818  0.8973
  578MOL0     C76220  10.305   7.048   0.710 -0.3205  1.0400 -1.0471
  578MOL0     C76221  10.426   6.971   0.726 -0.2309 -0.1586  0.6533
  578MOL0     O76222  10.539   6.971   0.648 -0.1236 -0.0184  0.1948
  578MOL0     C76223  10.550   7.052   0.530  0.5990 -0.3966 -0.2003
  578MOL0     C76224  10.560   7.203   0.555  0.7335  0.2875  0.0364
  578MOL0     C76225  10.599   7.277   0.425  0.2640  0.0619 -0.3321
  578MOL0     C76226  10.608   7.417   0.451  0.2523 -0.2024 -0.5109
  578MOL0     C76227  10.734   7.439   0.519 -0.8558 -0.7623  0.1520
  578MOL0     C76228  10.851   7.466   0.538 -0.0034  0.4091 -0.5558
  578MOL0     C76229  10.424   6.872   0.824  0.7724 -0.2377  0.1359
  578MOL0     C76230  10.304   6.848   0.893 -0.0104 -0.2489  0.3061
  578MOL0     H76231   9.803   6.926   0.954 -1.1720  2.8837 -0.4130
  578MOL0     H76232   9.607   6.890   1.115 -1.6623  4.0097  0.9474
  578MOL0     H76233   9.560   7.153   1.399 -4.1294  0.9686 -0.6098
  578MOL0     H76234   9.642   7.061   1.530  0.6108 -0.0130 -0.3949
  578MOL0     H76235   9.428   7.062   1.624 -1.0932  0.2672 -0.4441
  578MOL0     H76236   9.423   6.910   1.547  0.6382  0.2712  2.6787
  578MOL0     H76237   9.214   7.026   1.502  0.9903  0.0496  0.8404
  578MOL0     H76238   9.315   7.051   1.349  2.6533  1.2034 -0.5743
  578MOL0     H76239   9.248   7.244   1.575 -0.2143 -3.3155  0.1082
  578MOL0     H76240   9.385   7.281   1.480 -0.7749  2.3472  5.2375
  578MOL0     H76241   9.247   7.293   1.265 -1.4389  1.5305 -0.5548
  578MOL0     H76242   9.177   7.381   1.395  2.4133  1.2361 -0.1008
  578MOL0     H76243   9.011   7.161   1.410 -0.4529  0.6677 -0.1791
  578MOL0     H76244   9.101   7.106   1.275  2.8272  0.0276  2.1171
  578MOL0     H76245   8.954   7.388   1.276  1.8503  1.0744 -0.5799
  578MOL0     H76246   9.024   7.298   1.143  0.6197 -2.0961  0.0344
  578MOL0     H76247   8.778   7.249   1.308  0.9143 -1.1816  1.1902
  578MOL0     H76248   8.835   7.124   1.192 -0.7677  0.6766 -2.9444
  578MOL0     H76249   8.644   7.462   1.194 -1.2816  0.7375 -1.0733
  578MOL0     H76250   8.612   7.576   0.837  1.4425 -2.1888 -0.7687
  578MOL0     H76251   8.534   7.609   1.004 -0.7988 -0.0701 -0.7345
  578MOL0     H76252   8.366   7.436   0.970 -3.1233  2.2922 -0.8988
  578MOL0     H76253   8.435   7.421   0.806  1.5341  0.9772 -0.1616
  578MOL0     H76254   8.285   7.656   0.936  0.1894 -0.7542 -0.3039
  578MOL0     H76255   8.369   7.686   0.785  0.3319 -0.8006 -1.7701
  578MOL0     H76256   8.224   7.512   0.662  0.2318 -0.4045 -1.0315
  578MOL0     H76257   8.127   7.630   0.736 -1.3535 -2.4268 -2.8848
  578MOL0     H76258   7.987   7.394   1.044  0.0515  2.4368 -0.3261
  578MOL0     H76259   7.761   7.300   1.020  1.8212 -1.0341 -0.2970
  578MOL0     H76260   7.461   7.129   1.130 -1.9006  0.5988  1.1930
  578MOL0     H76261   7.317   6.950   1.173 -1.4127  1.3388 -0.9722
  578MOL0     H76262   7.014   6.882   0.929 -1.8155 -1.0484  0.4059
  578MOL0     H76263   7.063   6.922   1.101 -0.2748 -1.2417  0.3515
  578MOL0     H76264   7.001   6.700   1.176 -1.6436  0.3073  0.5022
  578MOL0     H76265   7.006   6.641   1.008  0.6644 -1.3212  0.9209
  578MOL0     H76266   6.809   6.801   0.973  1.8365 -0.3223 -0.2869
  578MOL0     H76267   6.800   6.824   1.145 -3.3667  1.9823 -3.4934
  578MOL0     H76268   6.807   6.536   1.035 -2.3717 -0.5129 -0.5750
  578MOL0     H76269   6.789   6.593   1.201  0.2418  2.0001  1.2666
  578MOL0     H76270   6.572   6.543   1.088 -0.2012  0.1836 -0.2621
  578MOL0     H76271   6.630   6.618   0.945  1.8718 -0.2677  0.0146
  578MOL0     H76272   6.596   6.839   1.106  1.0082 -0.8957 -0.4046
  578MOL0     H76273   6.516   6.727   1.220  0.3460  3.5993  0.6709
  578MOL0     H76274   6.424   6.814   0.942 -0.9670  2.0167  0.8452
  578MOL0     H76275   6.353   6.667   1.021 -2.1031  1.0923  0.1053
  578MOL0     H76276   6.357   6.954   1.144  2.6795 -0.4849 -0.8761
  578MOL0     H76277   6.280   6.824   1.209 -0.9630  1.2763  0.7157
  578MOL0     H76278   7.305   6.868   0.741  0.3901  1.2097 -0.6916
  578MOL0     H76279   7.461   7.055   0.705  2.2093  0.4124  0.2586
  578MOL0     H76280   7.784   7.379   0.594  1.9519  0.1502 -0.5331
  578MOL0     H76281   8.009   7.482   0.624  1.6224  0.9649  1.4228
  578MOL0     H76282   9.845   7.059   1.434 -1.6286 -1.2322  0.9202
  578MOL0     H76283  10.032   7.075   1.288 -0.0614  1.2475  0.8235
  578MOL0     H76284  10.092   7.082   0.771  0.3337  0.0266 -2.1997
  578MOL0     H76285  10.300   7.126   0.635 -1.5229  1.3501 -0.6554
  578MOL0     H76286  10.468   7.031   0.462 -0.1952 -0.9122  0.8851
  578MOL0     H76287  10.633   7.026   0.464  1.2433 -0.8560  0.7728
  578MOL0     H76288  10.466   7.243   0.595  0.3542  0.7553 -1.2572
  578MOL0     H76289  10.623   7.233   0.638  1.2996  4.2942 -1.6023
  578MOL0     H76290  10.528   7.266   0.342  0.8981  1.5918 -1.1037
  578MOL0     H76291  10.689   7.223   0.393  1.1940 -0.3855  2.7496
  578MOL0     H76292  10.607   7.473   0.357 -3.3635  2.4367  0.8745
  578MOL0     H76293  10.533   7.459   0.518  0.3149 -0.0709 -0.5251
  578MOL0     H76294  10.950   7.491   0.570 -0.6669  2.2203  0.2181
  578MOL0     H76295  10.508   6.803   0.835 -0.2637 -1.1902  3.0212
  578MOL0     H76296  10.305   6.769   0.967  1.0612  0.3183  0.9213
  579MOL0     O76297   4.591   4.743   7.024  0.3643 -0.2638  0.3225
  579MOL0     C76298   4.641   4.693   6.921 -0.2726 -0.1879 -0.5561
  579MOL0     O76299   4.583   4.682   6.792 -0.2070  0.6115 -0.1906
  579MOL0     C76300   4.459   4.728   6.769  0.7664 -0.3198  0.2999
  579MOL0     C76301   4.353   4.640   6.721 -0.5494  1.0371 -0.5379
  579MOL0     C76302   4.235   4.701   6.688  0.8865 -0.0734  0.0266
  579MOL0     C76303   4.215   4.839   6.701 -0.1022  0.1554  0.8179
  579MOL0     O76304   4.095   4.891   6.655 -0.1177 -0.2894  0.1426
  579MOL0     C76305   3.980   4.802   6.630  0.3427  0.7217 -0.4091
  579MOL0     C76306   3.974   4.734   6.490  0.6160 -0.6786 -0.1182
  579MOL0     C76307   3.827   4.674   6.481 -0.1943  0.3884 -0.2544
  579MOL0     C76308   3.793   4.647   6.339 -0.7698  0.2059 -1.0251
  579MOL0     C76309   3.689   4.549   6.332  0.7894  0.0664 -0.0277
  579MOL0     C76310   3.632   4.521   6.198  0.0737  0.0291 -0.3117
  579MOL0     C76311   3.526   4.616   6.139  1.0633 -0.3060  1.0974
  579MOL0     C76312   3.479   4.575   6.006 -0.3976 -0.2264  1.3084
  579MOL0     N76313   3.384   4.459   6.026 -0.6727  0.6349 -0.2219
  579MOL0     C76314   3.394   4.339   5.961 -0.4331  0.3637  1.8754
  579MOL0     C76315   3.305   4.264   6.014  1.1537  0.0984 -0.8932
  579MOL0     C76316   3.263   4.127   5.970 -0.3409 -0.3212  0.5955
  579MOL0     C76317   3.161   4.144   5.857  0.5132  0.8664  0.2315
  579MOL0     C76318   3.115   4.012   5.789 -0.2441 -0.6047  0.4417
  579MOL0     C76319   3.021   4.042   5.680  1.0057  0.3637 -0.5910
  579MOL0     O76320   3.014   3.926   5.604  0.6562  0.6244  0.0723
  579MOL0     C76321   2.914   3.905   5.518 -0.1710  0.1275 -0.4432
  579MOL0     C76322   2.791   3.981   5.515  0.2619  0.8727 -0.1325
  579MOL0     C76323   2.703   3.947   5.413  0.5846 -0.0991 -0.4042
  579MOL0     C76324   2.726   3.842   5.325  0.1644 -0.8803  0.9555
  579MOL0     C76325   2.633   3.823   5.208 -0.7263 -0.1872  0.3777
  579MOL0     O76326   2.529   3.910   5.191  0.3889  0.3315 -0.8442
  579MOL0     C76327   2.422   3.859   5.118 -0.7294  0.0522  0.2884
  579MOL0     C76328   2.365   3.739   5.177  1.5043  1.0443 -0.1563
  579MOL0     C76329   2.236   3.693   5.124  0.1581 -0.2231  0.4030
  579MOL0     C76330   2.169   3.760   5.023  0.4269 -0.2284  0.1157
  579MOL0     O76331   2.044   3.702   4.995 -0.3670 -0.8316  0.4050
  579MOL0     C76332   1.937   3.776   5.039  0.2335  0.2419 -0.3464
  579MOL0     C76333   1.872   3.698   5.153  0.1192  0.2421  0.3089
  579MOL0     C76334   1.745   3.779   5.191 -0.5006 -0.1048  0.0218
  579MOL0     C76335   1.645   3.688   5.257 -0.3766  1.0170  1.0917
  579MOL0     C76336   1.501   3.745   5.274  0.3190 -0.0511  0.0682
  579MOL0     C76337   1.399   3.639   5.327 -0.2124 -0.1211 -0.2166
  579MOL0     C76338   1.242   3.677   5.304  0.0203  0.4294  0.3698
  579MOL0     C76339   1.201   3.810   5.362  0.1870 -0.6142 -0.7590
  579MOL0    Cl76340   1.259   3.808   5.530 -0.2075  0.0340 -0.2613
  579MOL0     C76341   2.230   3.870   4.962  0.0420 -0.5851  0.2064
  579MOL0     C76342   2.355   3.915   5.008  0.4549  0.2327  0.0045
  579MOL0     O76343   2.648   3.710   5.150  0.1307  0.0763 -0.4925
  579MOL0     C76344   2.845   3.772   5.338  1.1768 -0.1587  0.2610
  579MOL0     C76345   2.938   3.801   5.425  1.0582  0.4124 -0.5115
  579MOL0     N76346   3.236   4.334   6.110  0.1680 -0.2925 -0.8892
  579MOL0     N76347   3.287   4.451   6.115 -0.4327  0.1290 -0.0387
  579MOL0     C76348   4.316   4.923   6.728  0.5548 -0.0214  0.0980
  579MOL0     C76349   4.438   4.864   6.776  0.6025 -1.1504 -0.2844
  579MOL0     C76350   4.780   4.665   6.927  0.1350 -0.4749 -0.1766
  579MOL0     C76351   4.850   4.677   7.047 -0.0885 -0.6833 -0.4901
  579MOL0     C76352   4.989   4.645   7.057  0.5463 -0.9256  0.0341
  579MOL0     C76353   5.066   4.612   6.947 -0.0101 -0.2139  0.3793
  579MOL0     O76354   5.201   4.578   6.943 -0.8864 -0.1410  0.1538
  579MOL0     C76355   5.231   4.452   7.000  0.0769  0.3196  0.9561
  579MOL0     C76356   5.312   4.370   6.899 -0.2882 -0.3382  1.4824
  579MOL0     C76357   5.243   4.331   6.759 -0.2581 -0.3909  0.5615
  579MOL0     C76358   5.123   4.250   6.807  0.3348  1.3361  0.1857
  579MOL0     C76359   5.086   4.150   6.702 -1.6498  0.0513 -0.5971
  579MOL0     C76360   5.073   4.066   6.610  0.2982 -0.1333 -0.2125
  579MOL0     C76361   4.998   4.609   6.826 -0.3118  0.0065  0.3461
  579MOL0     C76362   4.857   4.627   6.818  0.0848  0.4492 -1.3412
  579MOL0     H76363   4.375   4.535   6.707 -1.8720  0.9519 -2.1165
  579MOL0     H76364   4.159   4.624   6.684 -2.5311  3.0101  0.5243
  579MOL0     H76365   3.892   4.865   6.648  1.4462  2.1294  0.3319
  579MOL0     H76366   3.964   4.724   6.705 -0.5199  0.9880 -0.3078
  579MOL0     H76367   4.057   4.664   6.480  0.1324 -0.9322 -3.8555
  579MOL0     H76368   3.988   4.813   6.416 -0.2585  2.0819  2.4482
  579MOL0     H76369   3.750   4.744   6.514  0.8824  1.5138 -0.0477
  579MOL0     H76370   3.830   4.585   6.545  2.0155  1.0795  0.7238
  579MOL0     H76371   3.770   4.742   6.289 -1.6269  1.1083  0.9623
  579MOL0     H76372   3.880   4.609   6.284 -1.1873 -1.8826 -0.3241
  579MOL0     H76373   3.615   4.595   6.399  0.9968  0.0199  0.2371
  579MOL0     H76374   3.713   4.450   6.372 -0.7313 -0.3637 -0.1204
  579MOL0     H76375   3.589   4.420   6.192  4.5701 -2.0281 -2.6346
  579MOL0     H76376   3.719   4.516   6.132  0.8945 -1.1663  0.8191
  579MOL0     H76377   3.449   4.617   6.216 -3.0895  0.3069 -2.6171
  579MOL0     H76378   3.570   4.715   6.124  0.4693  0.1252  2.1106
  579MOL0     H76379   3.570   4.548   5.951  1.2052 -2.1142  4.6277
  579MOL0     H76380   3.427   4.661   5.962  1.6887  0.6863  0.4870
  579MOL0     H76381   3.469   4.318   5.886  0.9073 -0.6734  3.4479
  579MOL0     H76382   3.234   4.062   6.053  0.3468 -1.5896 -0.1169
  579MOL0     H76383   3.346   4.069   5.928 -0.1338  0.5621 -0.2661
  579MOL0     H76384   3.197   4.210   5.777  4.6263 -0.5773  0.6277
  579MOL0     H76385   3.073   4.190   5.902 -1.1433 -2.7931  1.1383
  579MOL0     H76386   3.201   3.962   5.745 -0.8758  0.4647 -2.2363
  579MOL0     H76387   3.065   3.956   5.868  0.0430  0.9477  1.7949
  579MOL0     H76388   3.059   4.127   5.623  3.0443 -0.0653  0.0244
  579MOL0     H76389   2.933   4.076   5.734  1.9432  2.5050 -0.3192
  579MOL0     H76390   2.769   4.074   5.566 -2.8527  0.8771 -1.2696
  579MOL0     H76391   2.615   4.011   5.413 -1.0526 -2.2378  0.3605
  579MOL0     H76392   2.418   3.677   5.248  1.9601  1.2044 -0.3517
  579MOL0     H76393   2.188   3.602   5.158  3.3141 -2.8130 -1.3975
  579MOL0     H76394   1.860   3.800   4.965  0.5058 -1.4110 -1.2135
  579MOL0     H76395   1.975   3.874   5.069  1.7606  0.4531 -2.6971
  579MOL0     H76396   1.942   3.697   5.237 -0.8501  2.2210  1.2204
  579MOL0     H76397   1.856   3.599   5.111  1.5745 -0.1818  0.6981
  579MOL0     H76398   1.702   3.817   5.098  1.2179  2.5338  0.2189
  579MOL0     H76399   1.770   3.861   5.258 -2.2191  0.4186  0.0534
  579MOL0     H76400   1.654   3.595   5.200  0.3594  0.4234  2.1508
  579MOL0     H76401   1.678   3.651   5.355  1.4117  1.0852  0.5678
  579MOL0     H76402   1.468   3.760   5.171 -0.7336 -1.5404  0.1385
  579MOL0     H76403   1.492   3.838   5.331  1.9913  2.3123 -3.2143
  579MOL0     H76404   1.412   3.613   5.433  1.4079  0.8129 -0.1483
  579MOL0     H76405   1.431   3.548   5.276 -0.9869 -0.1403 -0.6814
  579MOL0     H76406   1.212   3.672   5.199  0.3223 -1.8174  0.3359
  579MOL0     H76407   1.184   3.608   5.365  1.0220  0.1462  1.0255
  579MOL0     H76408   1.092   3.814   5.371  0.1764 -0.8654 -0.7611
  579MOL0     H76409   1.241   3.892   5.301  1.6891 -0.7778 -0.0299
  579MOL0     H76410   2.192   3.911   4.869  1.3527 -2.7896 -1.4091
  579MOL0     H76411   2.404   3.999   4.959 -0.6172  0.9720  0.1779
  579MOL0     H76412   2.877   3.689   5.276 -1.0399 -0.9101  0.0105
  579MOL0     H76413   3.032   3.747   5.429  0.8402 -0.0021 -0.9301
  579MOL0     H76414   4.293   5.028   6.714  1.6711  0.1736 -0.4338
  579MOL0     H76415   4.521   4.928   6.805 -1.0020 -0.0913  2.3665
  579MOL0     H76416   4.801   4.704   7.140 -1.5033 -1.5007 -0.9748
  579MOL0     H76417   5.045   4.652   7.149  0.7146  3.4194 -0.1770
  579MOL0     H76418   5.142   4.407   7.046 -0.2127  2.2017  2.3403
  579MOL0     H76419   5.300   4.477   7.081 -0.2535  0.3607  1.2300
  579MOL0     H76420   5.396   4.433   6.868 -1.0160  1.6796  3.3173
  579MOL0     H76421   5.356   4.283   6.949  3.0795 -0.6485 -1.5996
  579MOL0     H76422   5.307   4.264   6.701  1.0851  0.2344  1.2616
  579MOL0     H76423   5.221   4.415   6.693 -1.3494 -2.1940 -1.4711
  579MOL0     H76424   5.151   4.187   6.892 -2.3301  0.1406  0.2617
  579MOL0     H76425   5.034   4.306   6.835 -0.3185 -0.5211  2.0753
  579MOL0     H76426   5.061   3.992   6.534 -2.2606  1.5827 -1.6477
  579MOL0     H76427   5.052   4.584   6.736 -0.6434 -2.9462  0.8476
  579MOL0     H76428   4.816   4.617   6.718 -1.0886 -1.1132 -0.7346
  580MOL0     O76429   1.685   6.271   0.616  0.0574  0.3080  0.2562
  580MOL0     C76430   1.637   6.363   0.669  0.0615  0.3883 -0.1994
  580MOL0     O76431   1.708   6.474   0.703 -0.1777 -0.6826  0.6355
  580MOL0     C76432   1.845   6.469   0.689  0.2378 -0.2850 -0.1819
  580MOL0     C76433   1.901   6.579   0.621 -0.4308 -0.4062  0.7538
  580MOL0     C76434   2.038   6.583   0.610 -0.2515  0.8810  0.2952
  580MOL0     C76435   2.120   6.476   0.662  0.3995 -0.2904  0.0794
  580MOL0     O76436   2.256   6.489   0.673 -0.9719 -0.4965  0.2732
  580MOL0     C76437   2.310   6.617   0.675 -0.7321  1.0904 -0.1392
  580MOL0     C76438   2.465   6.599   0.675 -0.2507 -0.0370  1.5425
  580MOL0     C76439   2.512   6.565   0.534 -0.0231  0.4571  0.0607
  580MOL0     C76440   2.656   6.512   0.508  0.3471 -0.5915  0.6413
  580MOL0     C76441   2.700   6.482   0.368  0.0876 -0.4137  0.2044
  580MOL0     C76442   2.852   6.452   0.365 -0.5121  0.3243 -0.0489
  580MOL0     C76443   2.904   6.449   0.220 -0.5170 -0.6937 -0.9606
  580MOL0     C76444   3.055   6.424   0.215 -0.6729 -0.1858 -0.4694
  580MOL0     N76445   3.081   6.280   0.203 -0.4175  0.2543 -0.8885
  580MOL0     C76446   3.049   6.206   0.093  0.1670  0.5067  0.6670
  580MOL0     C76447   3.041   6.081   0.144  0.6052 -0.8055  0.8931
  580MOL0     C76448   2.998   5.963   0.060  0.2249  1.1997  0.2803
  580MOL0     C76449   3.029   5.828   0.119 -0.8588 -0.3385 -0.5937
  580MOL0     C76450   2.979   5.724   0.023  0.9050 -0.4731  0.7115
  580MOL0     C76451   2.982   5.585   0.077 -0.3285 -0.6340  0.4601
  580MOL0     O76452   3.117   5.558   0.093 -0.5497 -0.5376 -0.0027
  580MOL0     C76453   3.155   5.426   0.128  1.0553 -0.8194 -0.2517
  580MOL0     C76454   3.066   5.333   0.176  1.1008 -0.2197  0.5840
  580MOL0     C76455   3.096   5.200   0.195 -0.0480  0.2713 -0.0418
  580MOL0     C76456   3.225   5.153   0.171  0.5974  0.2674 -0.7489
  580MOL0     C76457   3.253   5.007   0.200  0.8681 -0.4131  0.7479
  580MOL0     O76458   3.161   4.915   0.161  0.7340  0.3661  0.0212
  580MOL0     C76459   3.167   4.783   0.190  0.4211 -0.8174 -0.9339
  580MOL0     C76460   3.104   4.693   0.104 -0.2434 -0.2964  0.0866
  580MOL0     C76461   3.104   4.558   0.139 -0.2228 -0.6311 -0.6156
  580MOL0     C76462   3.179   4.507   0.249 -0.4026 -0.6349  1.1345
  580MOL0     O76463   3.177   4.372   0.257 -0.4896 -0.3535 -0.6121
  580MOL0     C76464   3.171   4.313   0.386  0.0497  1.0233  1.0184
  580MOL0     C76465   3.032   4.275   0.457  0.0125  0.7109 -1.0483
  580MOL0     C76466   2.902   4.316   0.366 -0.9879 -0.0087  0.3488
  580MOL0     C76467   2.881   4.225   0.237 -0.1242 -0.3871  0.6013
  580MOL0     C76468   2.779   4.297   0.146  0.4883  0.2202  0.7828
  580MOL0     C76469   2.686   4.199   0.067 -0.7544  0.7577  0.0863
  580MOL0     C76470   2.590   4.262  -0.036  0.3666  0.3176  0.6100
  580MOL0     C76471   2.491   4.355   0.026  0.1379 -0.6935 -0.8426
  580MOL0    Cl76472   2.363   4.269   0.107  0.9117  0.2283  0.3403
  580MOL0     C76473   3.237   4.599   0.335  0.1420  0.1994  0.3347
  580MOL0     C76474   3.218   4.739   0.311  0.6427 -0.0317 -0.0884
  580MOL0     O76475   3.366   4.983   0.233  0.2243 -0.1197  0.7518
  580MOL0     C76476   3.326   5.252   0.137  0.3561  0.4711 -0.5992
  580MOL0     C76477   3.285   5.383   0.107 -1.0945  0.2956  0.5984
  580MOL0     N76478   3.067   6.083   0.278  0.7095 -0.2737 -0.4774
  580MOL0     N76479   3.098   6.200   0.315 -0.7331 -0.8115  0.0967
  580MOL0     C76480   2.051   6.357   0.714 -0.6263 -0.1408  0.9765
  580MOL0     C76481   1.918   6.368   0.741 -0.1631  0.5245 -0.5147
  580MOL0     C76482   1.489   6.365   0.690 -0.3515 -0.0972  0.5268
  580MOL0     C76483   1.417   6.475   0.719  0.8683 -0.6780  0.9026
  580MOL0     C76484   1.277   6.463   0.761 -0.0629 -0.0613  0.4554
  580MOL0     C76485   1.218   6.337   0.760 -0.7273  0.5120 -0.4442
  580MOL0     O76486   1.089   6.341   0.798  0.5877 -0.8036 -0.3285
  580MOL0     C76487   1.002   6.223   0.788  0.5932  0.9533  0.1048
  580MOL0     C76488   0.856   6.256   0.765 -0.0694 -0.5960 -0.4418
  580MOL0     C76489   0.797   6.213   0.630 -0.2031 -0.1254  0.0416
  580MOL0     C76490   0.863   6.283   0.507 -0.4942  1.0532  0.1260
  580MOL0     C76491   0.824   6.222   0.377 -0.2404 -0.8599  0.9647
  580MOL0     C76492   0.789   6.191   0.265  0.3986 -0.1410 -0.3307
  580MOL0     C76493   1.297   6.226   0.747  0.7207  0.7443  0.3257
  580MOL0     C76494   1.426   6.245   0.714 -0.5841  0.4056  0.2741
  580MOL0     H76495   1.850   6.658   0.565  3.0604 -1.6726 -4.9422
  580MOL0     H76496   2.088   6.667   0.562 -0.5119  0.2965 -1.0613
  580MOL0     H76497   2.286   6.658   0.773 -0.5637  1.5284 -0.2765
  580MOL0     H76498   2.280   6.684   0.594 -4.7356 -0.3740 -0.0507
  580MOL0     H76499   2.490   6.516   0.743  1.6579 -1.7371 -1.0576
  580MOL0     H76500   2.515   6.689   0.711  1.4328  0.7680 -2.3231
  580MOL0     H76501   2.504   6.658   0.478 -2.1345  1.5259  1.9720
  580MOL0     H76502   2.455   6.486   0.483  3.4650 -1.5892 -1.0173
  580MOL0     H76503   2.720   6.592   0.547  4.3037 -2.7535 -0.8292
  580MOL0     H76504   2.687   6.423   0.562 -1.0599 -2.5839 -1.5963
  580MOL0     H76505   2.683   6.573   0.310 -1.2678 -1.4713 -1.1277
  580MOL0     H76506   2.642   6.414   0.304  1.2185  0.2551 -1.6201
  580MOL0     H76507   2.868   6.357   0.416  0.5087  0.8060  0.5433
  580MOL0     H76508   2.907   6.524   0.425 -0.6880  0.1597  0.3139
  580MOL0     H76509   2.838   6.380   0.166 -3.8686  0.4775  1.2745
  580MOL0     H76510   2.889   6.554   0.193  0.9701 -0.6135 -1.5614
  580MOL0     H76511   3.104   6.464   0.304 -1.8263 -3.2583  1.7303
  580MOL0     H76512   3.100   6.465   0.124 -1.8190 -1.7621 -1.7970
  580MOL0     H76513   3.024   6.237  -0.008  1.2415 -2.1476 -0.5254
  580MOL0     H76514   3.039   5.962  -0.041  0.9233 -0.2053  0.5520
  580MOL0     H76515   2.890   5.974   0.047 -0.7076  0.8277  5.4780
  580MOL0     H76516   2.975   5.829   0.214  0.2247  1.4715  0.0605
  580MOL0     H76517   3.134   5.825   0.152 -1.9471  0.6219  3.5156
  580MOL0     H76518   2.877   5.744  -0.012  0.1122 -3.0773  1.3449
  580MOL0     H76519   3.041   5.727  -0.067 -0.2772 -0.7831 -0.1316
  580MOL0     H76520   2.928   5.524   0.004 -0.8648  1.2390 -0.7744
  580MOL0     H76521   2.933   5.576   0.175  0.5550 -4.0143  0.7158
  580MOL0     H76522   2.960   5.354   0.183  0.7183 -1.4689 -0.8560
  580MOL0     H76523   3.020   5.139   0.242 -1.5392  0.7153 -1.7680
  580MOL0     H76524   3.061   4.728   0.011 -2.3016  0.6484  1.3135
  580MOL0     H76525   3.038   4.492   0.084 -0.7194 -2.7415  2.2630
  580MOL0     H76526   3.211   4.379   0.463  0.5149 -2.8676  4.4495
  580MOL0     H76527   3.227   4.219   0.383  0.2877  1.1449  1.6197
  580MOL0     H76528   3.030   4.313   0.560 -2.0632 -2.6859  0.3188
  580MOL0     H76529   3.029   4.167   0.474  2.1244  0.9573  1.3095
  580MOL0     H76530   2.921   4.421   0.341  3.1368 -0.3516  1.3671
  580MOL0     H76531   2.812   4.302   0.426 -1.3893  2.1610  0.3254
  580MOL0     H76532   2.976   4.217   0.184 -0.1848 -5.0564  0.8645
  580MOL0     H76533   2.850   4.123   0.259 -2.3222  0.5895  2.4999
  580MOL0     H76534   2.845   4.347   0.074 -2.3407  2.3796 -0.5166
  580MOL0     H76535   2.720   4.370   0.203  1.8864  3.3298 -1.4933
  580MOL0     H76536   2.638   4.140   0.145  0.3912 -0.3046  0.0131
  580MOL0     H76537   2.751   4.130   0.012  0.1481  0.2891  1.6658
  580MOL0     H76538   2.657   4.306  -0.110 -2.4387  1.7735 -1.2467
  580MOL0     H76539   2.537   4.192  -0.101 -0.1549  2.3333 -1.2599
  580MOL0     H76540   2.431   4.417  -0.042  0.3970  3.4165  2.2844
  580MOL0     H76541   2.542   4.427   0.090  0.2680 -0.1182 -1.5739
  580MOL0     H76542   3.286   4.560   0.424 -1.4976 -1.0617  0.7346
  580MOL0     H76543   3.277   4.791   0.386  0.5346 -0.6824  0.4608
  580MOL0     H76544   3.431   5.225   0.137  0.0527 -0.9077  1.6177
  580MOL0     H76545   3.357   5.451   0.064 -0.6690  0.8086  2.0747
  580MOL0     H76546   2.125   6.279   0.729  1.9562  1.7642 -0.9096
  580MOL0     H76547   1.867   6.286   0.791 -2.2245  2.8410  1.4597
  580MOL0     H76548   1.457   6.576   0.720 -1.7272  0.4348  1.7677
  580MOL0     H76549   1.211   6.546   0.783 -1.0871 -0.1334 -2.0193
  580MOL0     H76550   1.009   6.159   0.876 -0.3549  0.3182 -0.2650
  580MOL0     H76551   1.038   6.157   0.708 -1.1145 -2.3084  1.8266
  580MOL0     H76552   0.789   6.208   0.838 -0.5403  2.2826  1.1669
  580MOL0     H76553   0.845   6.362   0.786 -2.1036 -0.8027 -0.2255
  580MOL0     H76554   0.689   6.212   0.613 -0.0903  0.9129 -0.8296
  580MOL0     H76555   0.831   6.109   0.625  0.2549 -0.1502  2.4598
  580MOL0     H76556   0.839   6.390   0.514  0.4221  1.1723  1.9028
  580MOL0     H76557   0.968   6.267   0.529 -0.2780 -0.0948 -1.5669
  580MOL0     H76558   0.743   6.154   0.176 -1.5703  1.7560 -0.1930
  580MOL0     H76559   1.258   6.126   0.764  0.4124  0.9590  0.8839
  580MOL0     H76560   1.482   6.153   0.705  1.0573  1.5144 -1.7857
  581MOL0     O76561   0.371   6.581   9.950 -0.5684 -0.8816 -0.4827
  581MOL0     C76562   0.409   6.479  10.004  0.2953  0.1289  0.5735
  581MOL0     O76563   0.370   6.429  10.120  0.3720  0.3484  0.2853
  581MOL0     C76564   0.256   6.472  10.186 -0.2502 -0.7978  0.1179
  581MOL0     C76565   0.153   6.378  10.191 -0.6131  0.4259 -0.3731
  581MOL0     C76566   0.030   6.422  10.247  0.0718 -0.2354  0.2237
  581MOL0     C76567   0.019   6.555  10.305  0.6167  0.2914 -0.6943
  581MOL0     O76568  -0.099   6.614  10.359  0.2237 -0.3846 -0.2637
  581MOL0     C76569  -0.222   6.537  10.370  0.3981  0.0070 -0.4397
  581MOL0     C76570  -0.326   6.647  10.387  0.3410 -0.1726 -0.3242
  581MOL0     C76571  -0.471   6.574  10.383 -0.1390 -1.0402  1.2047
  581MOL0     C76572  -0.510   6.504  10.245 -0.0845  0.4863  0.0791
  581MOL0     C76573  -0.662   6.477  10.233 -1.4000  0.3168  0.1010
  581MOL0     C76574  -0.725   6.399  10.347 -0.5982 -0.4892 -0.9733
  581MOL0     C76575  -0.877   6.363  10.325 -0.0039  0.3816 -0.0181
  581MOL0     C76576  -0.907   6.246  10.231 -0.3332  0.1888 -0.0052
  581MOL0     N76577  -0.984   6.133  10.287  0.1290  0.3772  0.0436
  581MOL0     C76578  -1.121   6.120  10.265 -0.1378  0.7499 -0.2842
  581MOL0     C76579  -1.150   5.990  10.279 -0.5205  0.2996  0.4073
  581MOL0     C76580  -1.284   5.923  10.262  0.6079  0.5201 -0.2168
  581MOL0     C76581  -1.269   5.824  10.149  0.4440 -0.3756 -0.6012
  581MOL0     C76582  -1.407   5.787  10.097 -0.3637 -0.5354  0.5253
  581MOL0     C76583  -1.380   5.701   9.967 -0.5851 -0.2388 -0.7015
  581MOL0     O76584  -1.499   5.659   9.906 -0.0813  0.1182 -0.3584
  581MOL0     C76585  -1.549   5.529   9.929 -0.6632  0.0664 -0.3652
  581MOL0     C76586  -1.506   5.423   9.858 -0.2332  0.6982  1.1063
  581MOL0     C76587  -1.565   5.296   9.862 -0.4803  0.2506  0.4744
  581MOL0     C76588  -1.670   5.270   9.949  0.4248 -0.7457 -0.8807
  581MOL0     C76589  -1.752   5.149   9.948 -0.7574  0.4650  0.3640
  581MOL0     O76590  -1.883   5.157   9.994  0.1869 -0.1548 -0.7116
  581MOL0     C76591  -1.932   5.034  10.005  0.6329  0.6154 -1.1710
  581MOL0     C76592  -1.908   4.944  10.113 -0.2827  0.4526  0.8223
  581MOL0     C76593  -1.985   4.828  10.137 -0.3794  0.7679  1.3878
  581MOL0     C76594  -2.096   4.802  10.048  0.1232 -1.2160 -0.0496
  581MOL0     O76595  -2.191   4.709  10.055 -0.0111  0.1921  0.2492
  581MOL0     C76596  -2.202   4.621  10.167  0.6471  0.4949  1.3881
  581MOL0     C76597  -2.334   4.543  10.147  0.2267  0.9037  0.1912
  581MOL0     C76598  -2.453   4.627  10.164  0.6124 -0.0078  0.0611
  581MOL0     C76599  -2.580   4.537  10.138 -0.8156  0.5585 -0.7283
  581MOL0     C76600  -2.711   4.610  10.182 -0.6779 -0.3395 -0.5468
  581MOL0     C76601  -2.840   4.523  10.208  0.6759 -0.2046 -0.2465
  581MOL0     C76602  -2.955   4.609  10.280 -0.3692  0.0337 -0.3019
  581MOL0     C76603  -3.079   4.523  10.310  0.2987 -0.9550  0.0103
  581MOL0    Cl76604  -3.147   4.469  10.162  0.3970 -0.1891  0.1341
  581MOL0     C76605  -2.129   4.898   9.948  0.7246 -0.1007 -0.7069
  581MOL0     C76606  -2.043   5.003   9.925 -0.4496  0.0391  0.4338
  581MOL0     O76607  -1.691   5.043   9.906  0.3254 -0.0562  0.8627
  581MOL0     C76608  -1.714   5.378  10.031  0.1396  0.2006  0.0564
  581MOL0     C76609  -1.661   5.513  10.009  0.3557  0.3710  0.4622
  581MOL0     N76610  -1.033   5.918  10.303  0.2418 -0.7608 -1.2051
  581MOL0     N76611  -0.933   6.008  10.317 -0.7843  0.7512  0.5500
  581MOL0     C76612   0.135   6.639  10.307 -0.0571 -0.5275  0.9266
  581MOL0     C76613   0.252   6.595  10.247 -0.4281  0.1759  0.3947
  581MOL0     C76614   0.515   6.407   9.939 -0.5323  1.1993 -0.9156
  581MOL0     C76615   0.613   6.334  10.016  0.2590  0.1729 -0.0219
  581MOL0     C76616   0.723   6.279   9.957  0.3426 -0.0046 -0.2671
  581MOL0     C76617   0.731   6.272   9.814 -0.1236 -0.1312 -0.1488
  581MOL0     O76618   0.815   6.177   9.757  1.0507  0.2306 -0.0338
  581MOL0     C76619   0.844   6.184   9.616  0.0701  0.2013  0.8947
  581MOL0     C76620   0.766   6.094   9.529 -0.2610  0.5241  0.4319
  581MOL0     C76621   0.738   5.960   9.579  0.6752 -0.6006 -0.0185
  581MOL0     C76622   0.700   5.865   9.466  0.1974  0.6328  0.1948
  581MOL0     C76623   0.553   5.880   9.434 -0.6092  0.1276 -1.1123
  581MOL0     C76624   0.439   5.893   9.412  0.0896 -0.0991  0.5187
  581MOL0     C76625   0.634   6.343   9.738 -0.4675 -0.4213 -0.1925
  581MOL0     C76626   0.524   6.409   9.795  0.0750  0.2696  0.0045
  581MOL0     H76627   0.175   6.286  10.138 -1.8859 -0.8102  1.1610
  581MOL0     H76628  -0.046   6.344  10.253  1.3313 -1.4892  0.2903
  581MOL0     H76629  -0.229   6.483  10.465 -0.3853  1.7553  0.5234
  581MOL0     H76630  -0.240   6.481  10.278 -2.0990  0.5943 -0.3834
  581MOL0     H76631  -0.315   6.723  10.309  0.1608 -2.5804 -2.8682
  581MOL0     H76632  -0.332   6.694  10.486  0.1655 -1.0889  0.1183
  581MOL0     H76633  -0.547   6.644  10.418 -0.5039 -1.4123  1.1588
  581MOL0     H76634  -0.464   6.491  10.454 -1.7882 -0.2524  2.3263
  581MOL0     H76635  -0.485   6.579  10.169 -1.4280  0.4383 -0.4268
  581MOL0     H76636  -0.450   6.415  10.224 -0.5183  0.3523 -0.6340
  581MOL0     H76637  -0.689   6.430  10.138 -0.5047 -4.6204  1.9678
  581MOL0     H76638  -0.717   6.572  10.235 -3.9130 -1.0002  3.5265
  581MOL0     H76639  -0.702   6.445  10.444 -1.1579  1.4614 -1.7137
  581MOL0     H76640  -0.671   6.305  10.352  0.0763 -0.1079  3.7111
  581MOL0     H76641  -0.922   6.340  10.422  1.4801 -1.8596  0.2216
  581MOL0     H76642  -0.920   6.456  10.286  1.1376  0.8624 -0.1645
  581MOL0     H76643  -0.812   6.203  10.198 -0.9567 -0.3753 -1.1009
  581MOL0     H76644  -0.956   6.290  10.144 -0.0323  2.1683  0.7664
  581MOL0     H76645  -1.194   6.195  10.237 -2.0395 -1.2103 -0.7973
  581MOL0     H76646  -1.355   6.003  10.240  0.1036 -0.0423 -0.6512
  581MOL0     H76647  -1.317   5.872  10.353  1.4304  0.3438 -0.0057
  581MOL0     H76648  -1.212   5.743  10.194  1.9063  0.5375 -0.7372
  581MOL0     H76649  -1.206   5.875  10.076  0.1574  0.9214  0.0296
  581MOL0     H76650  -1.469   5.732  10.169 -2.0302  3.0759  2.0871
  581MOL0     H76651  -1.460   5.877  10.064  0.2636 -0.4855 -0.4004
  581MOL0     H76652  -1.321   5.612   9.994 -0.9799 -0.2494  0.1526
  581MOL0     H76653  -1.317   5.750   9.892  0.6488 -2.4798 -1.2226
  581MOL0     H76654  -1.424   5.455   9.794 -2.1754  2.9563 -0.4493
  581MOL0     H76655  -1.526   5.219   9.797 -0.5956 -0.8424  1.6616
  581MOL0     H76656  -1.827   4.968  10.180  1.3641  1.1941 -1.3099
  581MOL0     H76657  -1.943   4.760  10.210  2.4701  0.8847 -0.0044
  581MOL0     H76658  -2.206   4.674  10.263 -0.9149 -0.6051  1.9765
  581MOL0     H76659  -2.123   4.545  10.166  1.7118  1.4282  4.1920
  581MOL0     H76660  -2.328   4.459  10.216  1.0391  0.2310 -0.6715
  581MOL0     H76661  -2.330   4.508  10.043 -0.7698  0.2420  0.3616
  581MOL0     H76662  -2.449   4.707  10.089 -0.2544  1.2063  1.2433
  581MOL0     H76663  -2.458   4.669  10.265  2.7316 -2.4495  1.2837
  581MOL0     H76664  -2.568   4.504  10.035  2.4300  2.0387 -0.9649
  581MOL0     H76665  -2.573   4.443  10.193  0.5204 -0.5977 -2.7571
  581MOL0     H76666  -2.724   4.693  10.112 -1.4188 -1.9188 -2.3620
  581MOL0     H76667  -2.678   4.661  10.273  1.5780  0.0417 -1.4918
  581MOL0     H76668  -2.818   4.441  10.276  3.5690 -1.0543 -2.0467
  581MOL0     H76669  -2.878   4.493  10.110  4.4994  0.4785 -2.1136
  581MOL0     H76670  -2.922   4.641  10.379 -2.1872  1.2156 -0.0321
  581MOL0     H76671  -2.980   4.698  10.221 -3.7554 -0.2189  0.5531
  581MOL0     H76672  -3.164   4.576  10.354 -0.7435  0.1668 -3.0964
  581MOL0     H76673  -3.064   4.436  10.375  2.5331 -1.0593 -0.5701
  581MOL0     H76674  -2.211   4.874   9.881 -0.6291 -1.3769  1.3174
  581MOL0     H76675  -2.064   5.063   9.837  1.0213 -0.5734 -0.3663
  581MOL0     H76676  -1.788   5.364  10.109  0.1243  0.2131  0.0442
  581MOL0     H76677  -1.698   5.602  10.058  2.6338  0.3355  2.4380
  581MOL0     H76678   0.130   6.737  10.354 -3.0529 -0.6363  1.0029
  581MOL0     H76679   0.347   6.648  10.249 -0.3241  0.1078 -1.4721
  581MOL0     H76680   0.605   6.326  10.124  3.6319 -1.4445  0.2406
  581MOL0     H76681   0.798   6.231  10.019  0.0489 -0.4187 -0.2325
  581MOL0     H76682   0.948   6.152   9.602 -0.3407 -1.2150  1.0208
  581MOL0     H76683   0.836   6.288   9.582  0.0821  0.7628  2.5468
  581MOL0     H76684   0.666   6.137   9.516 -0.3402  0.2387  0.0903
  581MOL0     H76685   0.813   6.103   9.431  2.9186  2.7894  1.9674
  581MOL0     H76686   0.662   5.976   9.657 -1.1112 -0.1869 -1.7454
  581MOL0     H76687   0.822   5.919   9.635  0.0546  1.0804  2.3307
  581MOL0     H76688   0.758   5.860   9.374  1.2574 -2.0898  0.9002
  581MOL0     H76689   0.710   5.760   9.496 -0.7143 -0.3275 -2.5380
  581MOL0     H76690   0.334   5.900   9.393 -0.1466 -0.1331  1.7212
  581MOL0     H76691   0.641   6.363   9.632 -1.2806 -0.1299 -0.1978
  581MOL0     H76692   0.447   6.447   9.729  1.4123  1.9283 -0.6881
  582MOL0     O76693   9.546   7.636  10.630 -0.3481  0.9271  0.4721
  582MOL0     C76694   9.551   7.630  10.749 -0.1210  1.4465  0.1672
  582MOL0     O76695   9.446   7.635  10.830  0.0002  0.2102  0.4829
  582MOL0     C76696   9.318   7.665  10.790  1.1040  0.4133  0.3421
  582MOL0     C76697   9.219   7.654  10.886 -0.1143  0.7500 -0.0605
  582MOL0     C76698   9.080   7.663  10.852  0.5923 -0.3491  0.3380
  582MOL0     C76699   9.033   7.700  10.729  0.0307 -1.0274  0.9200
  582MOL0     O76700   8.902   7.718  10.699  0.1472 -0.2305  0.3849
  582MOL0     C76701   8.804   7.653  10.776  0.0182  0.0714 -0.7509
  582MOL0     C76702   8.674   7.690  10.708  0.3078 -0.5982  0.4951
  582MOL0     C76703   8.567   7.593  10.767  0.3072  0.1531 -0.0706
  582MOL0     C76704   8.476   7.565  10.645  0.2336 -0.1366 -0.1858
  582MOL0     C76705   8.360   7.465  10.683  0.1699  0.8935  0.6301
  582MOL0     C76706   8.263   7.444  10.569 -0.0160 -0.6267 -0.5535
  582MOL0     C76707   8.142   7.362  10.601  0.3974  0.4344 -0.0376
  582MOL0     C76708   8.024   7.368  10.503  0.2848  0.4969 -0.1181
  582MOL0     N76709   7.904   7.306  10.563  0.6193  0.1534 -0.1402
  582MOL0     C76710   7.903   7.184  10.630 -0.1161  0.0191 -0.3578
  582MOL0     C76711   7.770   7.162  10.658 -0.8283  1.1052  0.4684
  582MOL0     C76712   7.719   7.046  10.733 -0.0197  0.7611 -0.9208
  582MOL0     C76713   7.568   7.026  10.742  0.1305  0.2611 -0.0134
  582MOL0     C76714   7.525   6.901  10.819  0.2976  1.2097  0.4183
  582MOL0     C76715   7.375   6.888  10.820  0.6521  0.5744 -0.2590
  582MOL0     O76716   7.326   6.968  10.937 -0.4794 -0.0868  0.1860
  582MOL0     C76717   7.195   6.934  10.980 -0.1500 -0.4827 -0.5158
  582MOL0     C76718   7.158   6.986  11.102  0.2076 -0.2134 -0.0633
  582MOL0     C76719   7.037   6.949  11.155 -0.4981  0.0354  0.3031
  582MOL0     C76720   6.939   6.883  11.078 -0.4284  0.3698  0.5335
  582MOL0     C76721   6.805   6.865  11.134  0.0134 -0.8036 -0.0103
  582MOL0     O76722   6.787   6.884  11.269 -0.4088 -0.2626 -0.0845
  582MOL0     C76723   6.656   6.901  11.314 -0.5247 -0.5356 -0.3406
  582MOL0     C76724   6.565   6.999  11.261  0.1674  0.7412 -0.2458
  582MOL0     C76725   6.441   7.022  11.321  0.5456 -0.8068  0.1318
  582MOL0     C76726   6.404   6.942  11.427  0.2026  0.3233  0.9065
  582MOL0     O76727   6.278   6.950  11.478  0.3879 -0.2102  0.7868
  582MOL0     C76728   6.266   7.013  11.610  0.7661 -0.2843 -0.2317
  582MOL0     C76729   6.175   6.926  11.696  1.0918 -0.5139 -0.1990
  582MOL0     C76730   6.050   6.883  11.629 -0.1080 -0.2733  1.0618
  582MOL0     C76731   5.980   6.777  11.716  0.7678  0.8408  0.3348
  582MOL0     C76732   5.952   6.806  11.863  0.2697  0.1292  0.3649
  582MOL0     C76733   5.843   6.910  11.881  0.2052  1.1848  0.0142
  582MOL0     C76734   5.851   6.954  12.026 -0.1195  0.1767  0.3265
  582MOL0     C76735   5.750   7.051  12.065 -0.3810  0.6416  0.5922
  582MOL0    Cl76736   5.587   7.003  12.047 -0.2530  0.2082  0.0770
  582MOL0     C76737   6.491   6.846  11.478  0.4743 -0.2026  0.0524
  582MOL0     C76738   6.623   6.832  11.429 -0.2517  0.5865 -0.6239
  582MOL0     O76739   6.714   6.839  11.057  0.6590  0.0329 -0.3714
  582MOL0     C76740   6.975   6.835  10.945  0.2563 -0.0400 -0.0536
  582MOL0     C76741   7.103   6.866  10.897  0.0726 -0.2274 -0.5358
  582MOL0     N76742   7.697   7.250  10.591 -0.2836 -1.4926  0.1544
  582MOL0     N76743   7.772   7.343  10.537 -0.3015  0.1695 -0.1383
  582MOL0     C76744   9.138   7.724  10.633 -0.1813  0.6565 -0.0606
  582MOL0     C76745   9.269   7.699  10.665 -0.4320 -0.6338  0.7456
  582MOL0     C76746   9.689   7.638  10.806 -0.1719 -0.4990  0.3118
  582MOL0     C76747   9.733   7.570  10.924  1.2776  0.0215  0.6875
  582MOL0     C76748   9.857   7.575  10.987  0.8785 -0.3229  0.8240
  582MOL0     C76749   9.955   7.648  10.926 -1.5754 -0.6536 -0.6068
  582MOL0     O76750  10.083   7.668  10.972 -0.9076  0.4263 -0.2521
  582MOL0     C76751  10.118   7.627  11.115  0.0882  0.3285 -0.5976
  582MOL0     C76752  10.197   7.742  11.182 -0.4671  0.4497  0.5306
  582MOL0     C76753  10.276   7.842  11.094  0.3439  0.1207 -0.2572
  582MOL0     C76754  10.389   7.919  11.168  0.3679  0.2638  0.2208
  582MOL0     C76755  10.348   7.986  11.290 -0.2590 -0.1876  0.3015
  582MOL0     C76756  10.321   8.023  11.402 -0.4361  0.3486 -0.0428
  582MOL0     C76757   9.916   7.724  10.808  0.7093 -0.2014  0.3909
  582MOL0     C76758   9.782   7.725  10.753 -0.3147 -0.3984 -0.9060
  582MOL0     H76759   9.250   7.626  10.987 -0.1280 -0.2994 -0.3344
  582MOL0     H76760   9.016   7.659  10.939  0.2688  1.3399  0.2138
  582MOL0     H76761   8.803   7.699  10.875  0.9172 -1.9757  0.2562
  582MOL0     H76762   8.811   7.544  10.785 -2.5428 -0.1664 -0.8752
  582MOL0     H76763   8.687   7.679  10.600 -1.3451  1.3959  0.0211
  582MOL0     H76764   8.643   7.791  10.737 -3.9231 -1.4835 -0.1850
  582MOL0     H76765   8.514   7.634  10.853 -1.4469 -0.7626 -0.6492
  582MOL0     H76766   8.596   7.490  10.790  1.0451  0.3755 -0.0012
  582MOL0     H76767   8.430   7.654  10.602 -0.8622 -0.9156 -0.6896
  582MOL0     H76768   8.531   7.515  10.564 -0.7586 -1.1135 -0.2781
  582MOL0     H76769   8.301   7.513  10.762  0.3243  2.2290 -0.0471
  582MOL0     H76770   8.411   7.371  10.707 -0.4566  0.4454  0.2191
  582MOL0     H76771   8.318   7.405  10.484 -1.1996 -0.7593 -1.2804
  582MOL0     H76772   8.245   7.547  10.535  3.8018  1.2008  2.1590
  582MOL0     H76773   8.177   7.259  10.611 -0.9571  0.0239  0.7974
  582MOL0     H76774   8.110   7.394  10.701 -1.2964 -0.5996 -0.2194
  582MOL0     H76775   8.072   7.312  10.423  0.8125 -2.6165  2.2108
  582MOL0     H76776   7.995   7.466  10.464  2.1788  0.0065 -3.0057
  582MOL0     H76777   7.993   7.128  10.655  1.0238  0.9483 -2.1755
  582MOL0     H76778   7.773   7.044  10.829  0.4682 -0.0063 -1.2007
  582MOL0     H76779   7.763   6.952  10.700  0.8522  0.8845 -0.1692
  582MOL0     H76780   7.533   7.016  10.638  0.9667  3.2572 -0.6975
  582MOL0     H76781   7.519   7.119  10.773  0.6148  0.1487  1.1304
  582MOL0     H76782   7.575   6.815  10.773  2.1108  0.6210  3.2649
  582MOL0     H76783   7.567   6.912  10.919  0.2608  0.1093  0.5782
  582MOL0     H76784   7.349   6.783  10.835 -0.8223  1.1688  1.6822
  582MOL0     H76785   7.327   6.920  10.727 -0.2664 -1.1941 -0.4406
  582MOL0     H76786   7.219   7.046  11.169  1.5623 -0.5757 -0.9273
  582MOL0     H76787   6.993   6.997  11.242  0.3875  1.7099 -0.1128
  582MOL0     H76788   6.596   7.055  11.174  0.8692 -0.6567 -0.9127
  582MOL0     H76789   6.376   7.098  11.279  0.6668  0.0576  1.4603
  582MOL0     H76790   6.221   7.106  11.575 -1.9663 -1.3094  0.2864
  582MOL0     H76791   6.358   7.053  11.654  0.6032  2.6818 -2.3125
  582MOL0     H76792   6.138   6.982  11.782 -1.9560 -1.5579 -0.7253
  582MOL0     H76793   6.244   6.850  11.735  0.6197 -1.1597 -0.6112
  582MOL0     H76794   6.073   6.821  11.541 -0.8151  3.0070 -1.6556
  582MOL0     H76795   5.985   6.968  11.603  2.3412  1.2476 -0.5365
  582MOL0     H76796   5.881   6.753  11.676  0.5113  3.4278 -0.7653
  582MOL0     H76797   6.041   6.687  11.699  0.2731  0.9147 -2.2812
  582MOL0     H76798   6.047   6.836  11.907 -0.3014  5.1038 -1.1833
  582MOL0     H76799   5.915   6.710  11.899 -2.1933  1.2453  1.0872
  582MOL0     H76800   5.746   6.868  11.855  1.4131 -1.9140  0.0293
  582MOL0     H76801   5.857   7.006  11.830 -1.9207  2.0499  0.9874
  582MOL0     H76802   5.826   6.859  12.075 -0.3716 -0.8394 -1.6618
  582MOL0     H76803   5.949   6.993  12.056 -0.4297 -0.1841  1.9029
  582MOL0     H76804   5.763   7.141  12.004  0.2542  0.6911  0.7934
  582MOL0     H76805   5.766   7.075  12.170 -0.0520  2.1378  0.2244
  582MOL0     H76806   6.446   6.785  11.555  1.7678 -1.3016 -0.0253
  582MOL0     H76807   6.694   6.762  11.471 -1.8232 -1.8199 -1.7020
  582MOL0     H76808   6.901   6.789  10.880 -0.5301 -0.4447  1.0893
  582MOL0     H76809   7.130   6.838  10.796  0.0954  1.5349 -1.0527
  582MOL0     H76810   9.109   7.770  10.539 -1.8572 -0.8310 -0.3200
  582MOL0     H76811   9.336   7.717  10.581 -0.2449 -3.6529  0.1289
  582MOL0     H76812   9.668   7.491  10.962  3.5698 -0.7782  3.3001
  582MOL0     H76813   9.871   7.528  11.084  1.3238  2.3040  2.1350
  582MOL0     H76814  10.187   7.543  11.111 -0.8556 -0.4042 -2.0224
  582MOL0     H76815  10.037   7.586  11.177  0.5921  0.5586  0.2371
  582MOL0     H76816  10.135   7.802  11.249  0.3242  3.0205 -0.9017
  582MOL0     H76817  10.265   7.689  11.249  2.7562  0.4706 -2.4816
  582MOL0     H76818  10.209   7.911  11.042  0.4888  0.5303  0.0936
  582MOL0     H76819  10.324   7.789  11.010 -0.2848 -0.5184 -0.2218
  582MOL0     H76820  10.474   7.852  11.189  1.3107  1.3775  0.0445
  582MOL0     H76821  10.430   7.980  11.087 -1.4832  2.1536  0.6271
  582MOL0     H76822  10.308   8.070  11.497  1.8250  4.4244 -1.5151
  582MOL0     H76823   9.980   7.793  10.754  0.7099 -0.6284 -0.1589
  582MOL0     H76824   9.756   7.772  10.658 -0.7475 -2.5269 -1.8955
  583MOL0     O76825   3.753   3.837   8.521  0.1086 -0.0149  1.0200
  583MOL0     C76826   3.651   3.896   8.554  0.6300  0.3016  0.5004
  583MOL0     O76827   3.640   4.002   8.636  0.2717 -0.4333 -1.0724
  583MOL0     C76828   3.737   4.073   8.696  0.1132 -0.2084  0.3409
  583MOL0     C76829   3.877   4.049   8.698  0.1976  0.5171  0.4071
  583MOL0     C76830   3.957   4.137   8.762 -0.2218 -0.2090 -0.1840
  583MOL0     C76831   3.900   4.250   8.823  0.2062 -0.0443  0.1340
  583MOL0     O76832   3.983   4.348   8.862 -0.0127  0.2107  1.2586
  583MOL0     C76833   3.994   4.378   9.001 -0.6705  0.0931 -0.3650
  583MOL0     C76834   4.097   4.279   9.068 -0.0959  0.4637  0.4270
  583MOL0     C76835   4.176   4.341   9.182 -0.9768 -0.8798 -0.2825
  583MOL0     C76836   4.282   4.255   9.253  0.3308  0.2076 -0.0042
  583MOL0     C76837   4.372   4.312   9.355  0.4785 -0.4749 -0.2877
  583MOL0     C76838   4.303   4.363   9.482 -0.1596 -0.3971  0.0080
  583MOL0     C76839   4.405   4.447   9.564 -0.8121 -0.0098 -0.2900
  583MOL0     C76840   4.496   4.355   9.639 -0.3965 -0.5674  0.2716
  583MOL0     N76841   4.594   4.442   9.704 -0.2148  0.0032  0.0357
  583MOL0     C76842   4.586   4.503   9.835  0.1204  1.1003  0.5713
  583MOL0     C76843   4.702   4.562   9.848 -0.8584 -1.2681  1.4344
  583MOL0     C76844   4.752   4.641   9.965 -0.8834 -0.4433  0.0981
  583MOL0     C76845   4.654   4.632  10.080 -0.6847 -0.1305  0.0863
  583MOL0     C76846   4.673   4.743  10.192 -0.7360 -0.5648  0.9126
  583MOL0     C76847   4.792   4.721  10.284 -0.1093  0.2198 -0.0390
  583MOL0     O76848   4.919   4.729  10.214  0.1482  0.0868 -0.7183
  583MOL0     C76849   5.024   4.738  10.294  0.4173 -0.6915  0.0307
  583MOL0     C76850   5.136   4.790  10.233 -0.7224 -1.2101 -0.2173
  583MOL0     C76851   5.257   4.798  10.304  0.9029 -0.3482  0.2524
  583MOL0     C76852   5.264   4.766  10.441 -0.0948  0.1610 -0.0546
  583MOL0     C76853   5.384   4.798  10.509 -0.2373 -1.0433 -0.6749
  583MOL0     O76854   5.476   4.878  10.449  0.1150  0.3377  1.1752
  583MOL0     C76855   5.598   4.933  10.489 -0.9497  0.2199 -0.2600
  583MOL0     C76856   5.679   4.883  10.592 -0.7390 -0.2511 -0.7233
  583MOL0     C76857   5.807   4.939  10.624 -0.3904 -0.9323  0.0677
  583MOL0     C76858   5.858   5.047  10.545 -0.0360  0.5136  0.4068
  583MOL0     O76859   5.967   5.118  10.582  0.3562  0.2411  0.1795
  583MOL0     C76860   6.071   5.039  10.644 -0.2765 -0.1280  0.1567
  583MOL0     C76861   6.195   5.129  10.672  0.8295 -0.4404 -0.6705
  583MOL0     C76862   6.311   5.048  10.713  0.1393 -0.0982  0.7210
  583MOL0     C76863   6.436   5.126  10.766  0.5930 -0.3537 -0.3621
  583MOL0     C76864   6.410   5.158  10.911  0.0056 -0.1632 -0.8723
  583MOL0     C76865   6.510   5.265  10.971  0.2369 -0.2342  0.4501
  583MOL0     C76866   6.642   5.206  11.004  0.2403  0.3470 -0.3200
  583MOL0     C76867   6.742   5.319  10.968  0.4157  0.7842  0.4060
  583MOL0    Cl76868   6.746   5.328  10.770 -0.0087  0.1183 -0.1002
  583MOL0     C76869   5.788   5.087  10.429 -0.0812  0.1679  0.0811
  583MOL0     C76870   5.660   5.026  10.405 -0.3362  0.2653 -0.5473
  583MOL0     O76871   5.385   4.770  10.625 -0.1686 -0.2321 -0.8519
  583MOL0     C76872   5.151   4.716  10.501  0.9590  0.0750  0.0008
  583MOL0     C76873   5.030   4.692  10.431 -0.8711 -0.7836  0.8150
  583MOL0     N76874   4.772   4.535   9.729  0.2267  0.4408  0.3152
  583MOL0     N76875   4.701   4.478   9.635 -0.5707  1.0705 -0.0425
  583MOL0     C76876   3.767   4.268   8.830 -0.2247  0.3625 -0.2602
  583MOL0     C76877   3.681   4.172   8.778  0.1098 -0.3032 -0.2414
  583MOL0     C76878   3.528   3.817   8.525  0.6637  0.0640  0.2148
  583MOL0     C76879   3.512   3.699   8.450 -0.9832 -0.2283 -0.5595
  583MOL0     C76880   3.390   3.648   8.417  0.0476  0.2385 -0.5546
  583MOL0     C76881   3.272   3.708   8.465  0.3771  0.2020  0.8845
  583MOL0     O76882   3.141   3.666   8.437 -0.2319 -0.2729  0.1724
  583MOL0     C76883   3.115   3.559   8.342 -0.2271 -0.1768 -0.3922
  583MOL0     C76884   2.964   3.558   8.350  0.2509  0.0035  0.8325
  583MOL0     C76885   2.918   3.692   8.291  0.6510 -0.4922  0.7010
  583MOL0     C76886   2.766   3.715   8.310  0.5391  0.4652  0.8355
  583MOL0     C76887   2.685   3.608   8.237  0.0135  0.2493 -0.3024
  583MOL0     C76888   2.618   3.531   8.179 -0.0260 -0.1847  0.4370
  583MOL0     C76889   3.277   3.823   8.534  0.0639 -0.9761 -0.4875
  583MOL0     C76890   3.400   3.877   8.566  0.2451  0.0217 -0.4799
  583MOL0     H76891   3.924   3.963   8.653  3.6247  1.0649  2.5991
  583MOL0     H76892   4.065   4.122   8.765 -0.2723 -0.4717  0.3347
  583MOL0     H76893   3.905   4.399   9.061  0.0313  0.4903  0.5579
  583MOL0     H76894   4.038   4.478   9.006 -2.5450  0.9474  0.1209
  583MOL0     H76895   4.172   4.249   8.995  2.6772 -0.0611  3.2784
  583MOL0     H76896   4.044   4.190   9.106  0.2412 -0.7492 -1.7820
  583MOL0     H76897   4.113   4.384   9.260  1.4401 -1.3862  2.0640
  583MOL0     H76898   4.229   4.428   9.140 -4.1357 -0.1048 -3.1169
  583MOL0     H76899   4.216   4.183   9.302 -3.5713  3.3935 -0.0987
  583MOL0     H76900   4.333   4.195   9.177 -4.6794  1.0673 -4.6804
  583MOL0     H76901   4.427   4.395   9.309  0.8574  0.2242  1.3304
  583MOL0     H76902   4.440   4.232   9.386 -1.3125 -2.0755 -0.3469
  583MOL0     H76903   4.261   4.281   9.542 -1.7626  0.6458  0.3881
  583MOL0     H76904   4.216   4.427   9.464  2.1652  3.2564  0.7288
  583MOL0     H76905   4.455   4.530   9.514 -2.2594 -0.0313 -1.8594
  583MOL0     H76906   4.351   4.501   9.642 -0.5788 -1.1583  0.6924
  583MOL0     H76907   4.545   4.301   9.557 -0.7250  0.6873 -0.7776
  583MOL0     H76908   4.439   4.293   9.709 -0.0078  1.5808  2.6435
  583MOL0     H76909   4.496   4.505   9.894 -1.2296 -1.9663 -1.1691
  583MOL0     H76910   4.768   4.745   9.933  0.3293 -0.1948  1.4039
  583MOL0     H76911   4.851   4.612  10.000 -0.5865  0.1388 -0.2372
  583MOL0     H76912   4.677   4.540  10.134 -1.4324 -1.1431 -1.2654
  583MOL0     H76913   4.557   4.635  10.031 -0.1540 -1.3146 -1.0880
  583MOL0     H76914   4.688   4.846  10.159 -3.9608  1.0897  3.9588
  583MOL0     H76915   4.574   4.740  10.238 -0.0292 -2.8249  2.4048
  583MOL0     H76916   4.782   4.621  10.326 -4.4010  0.5597  0.1713
  583MOL0     H76917   4.780   4.790  10.369  1.4261 -1.1263  1.3238
  583MOL0     H76918   5.119   4.831  10.134  2.0004  3.8249  1.0250
  583MOL0     H76919   5.337   4.853  10.255  2.0673  1.5916  3.9373
  583MOL0     H76920   5.636   4.804  10.653  1.6763 -0.4832  0.8324
  583MOL0     H76921   5.860   4.900  10.710  2.8120 -1.5933 -2.0272
  583MOL0     H76922   6.102   4.952  10.586 -0.0108  0.7226 -1.0207
  583MOL0     H76923   6.044   5.004  10.745  0.3948 -0.9700  0.0549
  583MOL0     H76924   6.161   5.195  10.752  0.9863 -1.4479  0.2656
  583MOL0     H76925   6.221   5.187  10.584  0.2631  0.1423 -0.4633
  583MOL0     H76926   6.344   5.003  10.619 -2.1568 -1.3416  0.4554
  583MOL0     H76927   6.289   4.960  10.774  3.1643 -1.1861  0.4341
  583MOL0     H76928   6.527   5.064  10.764 -0.4896 -2.0531  0.7453
  583MOL0     H76929   6.454   5.205  10.692  0.5939 -1.7823 -1.9723
  583MOL0     H76930   6.429   5.062  10.960  3.8037  1.6793  1.7204
  583MOL0     H76931   6.303   5.180  10.919  0.0008 -0.6616  1.0944
  583MOL0     H76932   6.461   5.315  11.056 -0.1339  1.8440 -0.9054
  583MOL0     H76933   6.499   5.352  10.905 -1.9914  0.1026  1.1471
  583MOL0     H76934   6.629   5.180  11.109 -0.7722  2.5064  0.1649
  583MOL0     H76935   6.662   5.114  10.949  0.4145 -0.7394  1.5067
  583MOL0     H76936   6.846   5.301  10.998  0.8276  1.0947 -0.7768
  583MOL0     H76937   6.709   5.408  11.021  1.6967  1.8979 -0.6086
  583MOL0     H76938   5.829   5.169  10.371 -1.7781  1.9571  1.3078
  583MOL0     H76939   5.599   5.066  10.323 -0.1648  1.6200 -0.0437
  583MOL0     H76940   5.162   4.670  10.599 -2.4374 -3.1164 -0.8856
  583MOL0     H76941   4.944   4.656  10.485 -0.3270 -0.7879  1.6912
  583MOL0     H76942   3.726   4.360   8.870 -1.8693  1.1018 -3.3695
  583MOL0     H76943   3.577   4.203   8.778 -0.4445 -2.0208 -1.6935
  583MOL0     H76944   3.597   3.644   8.411  0.1715  0.8326  0.3788
  583MOL0     H76945   3.387   3.557   8.358  0.0018  0.0097 -0.2055
  583MOL0     H76946   3.161   3.470   8.383 -1.2087 -0.4825  0.0689
  583MOL0     H76947   3.164   3.593   8.250  1.7105 -1.3644  0.1604
  583MOL0     H76948   2.925   3.479   8.285 -0.9422  0.7485  0.6039
  583MOL0     H76949   2.937   3.533   8.454  1.9346  1.0486  1.5492
  583MOL0     H76950   2.941   3.694   8.184 -0.7116  1.6748  0.3927
  583MOL0     H76951   2.976   3.776   8.331  1.9235 -1.2348  0.4677
  583MOL0     H76952   2.742   3.730   8.415 -0.4553  0.6240  0.5952
  583MOL0     H76953   2.748   3.808   8.255  2.3393  1.0823  1.2342
  583MOL0     H76954   2.566   3.448   8.136  1.1191 -1.1978  0.9416
  583MOL0     H76955   3.175   3.852   8.559 -0.6756 -3.2272 -0.6477
  583MOL0     H76956   3.403   3.962   8.634  0.7944  1.6668 -2.4678
  584MOL0     O76957   4.835   3.811   8.519  1.0296  0.3176 -0.2406
  584MOL0     C76958   4.834   3.908   8.447  0.7932  0.1209 -0.5089
  584MOL0     O76959   4.764   3.925   8.335 -0.8288 -0.2073  1.2340
  584MOL0     C76960   4.706   3.813   8.274 -0.4856 -0.5948  0.0796
  584MOL0     C76961   4.576   3.826   8.232  0.4608  0.3955  1.3045
  584MOL0     C76962   4.519   3.740   8.134 -0.6087  0.4132  0.9088
  584MOL0     C76963   4.580   3.626   8.095 -0.3754  0.3625  0.3344
  584MOL0     O76964   4.510   3.545   8.005 -0.6506  0.2802  0.0259
  584MOL0     C76965   4.587   3.420   7.977  0.0352 -0.5287  0.5152
  584MOL0     C76966   4.545   3.355   7.846  0.2588 -0.1756 -0.0930
  584MOL0     C76967   4.399   3.325   7.845 -0.4223  0.1236 -0.6693
  584MOL0     C76968   4.363   3.218   7.744  0.4976 -0.1652 -0.1629
  584MOL0     C76969   4.217   3.175   7.770 -0.2716 -0.2323 -0.2219
  584MOL0     C76970   4.160   3.084   7.661  0.4363  0.3574 -0.1167
  584MOL0     C76971   4.020   3.025   7.708 -0.1404  0.1310 -0.9396
  584MOL0     C76972   4.033   2.892   7.792 -0.2767  0.6365 -0.3417
  584MOL0     N76973   3.898   2.841   7.826  0.7019 -0.4720  0.5673
  584MOL0     C76974   3.794   2.916   7.869  0.7156  0.2606 -0.4265
  584MOL0     C76975   3.699   2.823   7.886 -0.0194  0.3332  0.4709
  584MOL0     C76976   3.562   2.854   7.934  0.4911  0.2763  0.5696
  584MOL0     C76977   3.483   2.920   7.834  0.3919 -0.5484  1.3701
  584MOL0     C76978   3.425   2.823   7.730 -0.1154  0.6212  0.2387
  584MOL0     C76979   3.354   2.885   7.610 -0.3127  0.2506 -0.3893
  584MOL0     O76980   3.232   2.946   7.652  0.1253  1.2205  0.3727
  584MOL0     C76981   3.111   2.889   7.614 -0.4575  1.4870 -0.0036
  584MOL0     C76982   2.999   2.965   7.581 -0.6468 -0.1089  0.4435
  584MOL0     C76983   2.881   2.904   7.541  0.5461  0.7312  0.1686
  584MOL0     C76984   2.865   2.764   7.534  0.1788 -0.1016 -0.0265
  584MOL0     C76985   2.741   2.700   7.478  0.4201  0.2017  0.4007
  584MOL0     O76986   2.726   2.560   7.454 -0.3347 -0.3212 -0.2246
  584MOL0     C76987   2.599   2.515   7.469  0.3404 -0.3407 -0.2021
  584MOL0     C76988   2.563   2.454   7.593  0.2655  0.1733 -1.0569
  584MOL0     C76989   2.434   2.390   7.602 -0.7879 -0.5643  0.4681
  584MOL0     C76990   2.350   2.390   7.483  0.2469  0.9965 -0.3423
  584MOL0     O76991   2.233   2.324   7.481  0.0544  0.8001 -0.3328
  584MOL0     C76992   2.173   2.300   7.612  0.2110 -0.4368  0.9505
  584MOL0     C76993   2.039   2.227   7.604 -0.1699 -0.2997  0.2968
  584MOL0     C76994   2.036   2.112   7.506 -0.2522  0.4576  0.2682
  584MOL0     C76995   1.910   2.027   7.524  0.2529 -0.7717 -0.0369
  584MOL0     C76996   1.777   2.105   7.487 -0.3683  0.9494  0.3936
  584MOL0     C76997   1.666   2.101   7.597  0.5548  0.2271 -0.2935
  584MOL0     C76998   1.584   1.967   7.599  0.3364  0.6823  0.0498
  584MOL0     C76999   1.576   1.915   7.740  0.6356  0.0978 -0.3013
  584MOL0    Cl77000   1.536   1.740   7.729 -0.1927  0.1713 -0.3977
  584MOL0     C77001   2.390   2.444   7.364  0.4925  0.2201 -0.2976
  584MOL0     C77002   2.515   2.511   7.353 -0.3665  0.5784 -0.3839
  584MOL0     O77003   2.647   2.772   7.490  0.2571  0.0526  0.0971
  584MOL0     C77004   2.982   2.689   7.570 -0.1916  0.0102  0.8044
  584MOL0     C77005   3.103   2.746   7.600 -0.4288  0.8695  0.0167
  584MOL0     N77006   3.753   2.697   7.858  0.6846 -0.2220  0.8691
  584MOL0     N77007   3.871   2.704   7.819 -0.1928  0.1557  0.4923
  584MOL0     C77008   4.713   3.599   8.158 -0.8494  0.6706  0.2386
  584MOL0     C77009   4.767   3.689   8.247  0.6699 -0.2139  0.0840
  584MOL0     C77010   4.896   4.031   8.510 -0.3932 -0.6896  0.5008
  584MOL0     C77011   4.882   4.154   8.441  0.4174  0.1554 -0.3727
  584MOL0     C77012   4.932   4.276   8.498  0.9320  1.3539  0.1295
  584MOL0     C77013   4.987   4.267   8.626 -0.2429 -0.4424  0.1895
  584MOL0     O77014   5.055   4.371   8.682  0.8085  0.2508 -0.1806
  584MOL0     C77015   5.139   4.450   8.590  0.5709 -0.6868  0.0806
  584MOL0     C77016   5.264   4.516   8.646 -0.0652  0.4016  0.2620
  584MOL0     C77017   5.328   4.628   8.563  0.0428  0.6850  1.0258
  584MOL0     C77018   5.472   4.676   8.585  0.4836 -0.4467  0.3249
  584MOL0     C77019   5.464   4.804   8.654  0.0829 -1.2167 -0.2797
  584MOL0     C77020   5.457   4.912   8.716  0.2713 -0.0518 -0.9704
  584MOL0     C77021   4.999   4.152   8.693 -0.0047  0.7424  0.0754
  584MOL0     C77022   4.949   4.034   8.636  0.2097  0.7443  0.6612
  584MOL0     H77023   4.519   3.915   8.258  0.8671  0.4682  1.9708
  584MOL0     H77024   4.429   3.773   8.082  0.7073  1.8746 -0.5850
  584MOL0     H77025   4.569   3.352   8.060  1.7313 -1.8545 -0.1242
  584MOL0     H77026   4.695   3.439   7.966 -0.3783  1.4994 -0.5465
  584MOL0     H77027   4.597   3.259   7.851 -0.5482 -0.6407 -0.4313
  584MOL0     H77028   4.559   3.412   7.753  0.2737  2.0173  1.1816
  584MOL0     H77029   4.336   3.413   7.826 -1.6555 -0.2057  1.5973
  584MOL0     H77030   4.372   3.292   7.945 -3.1387 -0.0495 -1.3721
  584MOL0     H77031   4.384   3.257   7.644 -1.4232  4.1083  0.8990
  584MOL0     H77032   4.429   3.134   7.767 -0.4493 -1.4097 -1.7627
  584MOL0     H77033   4.158   3.266   7.786  0.2795  0.7932 -3.2717
  584MOL0     H77034   4.205   3.114   7.860  1.3450  0.5923  0.5920
  584MOL0     H77035   4.240   3.012   7.639  0.3552  0.5497 -1.0763
  584MOL0     H77036   4.152   3.134   7.565 -1.6188 -1.4409 -0.9706
  584MOL0     H77037   3.975   3.100   7.774 -0.2552  2.5609 -3.5715
  584MOL0     H77038   3.948   3.010   7.628  1.5142 -1.0530 -2.2691
  584MOL0     H77039   4.085   2.911   7.887 -0.6204  2.7286 -0.5226
  584MOL0     H77040   4.089   2.815   7.739  3.2101  3.7376 -1.6144
  584MOL0     H77041   3.780   3.019   7.899 -0.7475 -0.5415  1.9319
  584MOL0     H77042   3.560   2.918   8.023 -0.1844 -0.1512  0.8749
  584MOL0     H77043   3.514   2.769   7.983  2.0032 -0.1548  1.3392
  584MOL0     H77044   3.548   2.998   7.795 -0.2802 -1.2980 -1.4222
  584MOL0     H77045   3.404   2.978   7.883  0.4617  3.6866 -2.8237
  584MOL0     H77046   3.497   2.750   7.691 -1.7927 -0.2396 -1.4020
  584MOL0     H77047   3.343   2.772   7.781 -0.3506 -0.2942 -1.0103
  584MOL0     H77048   3.340   2.811   7.531  1.3158 -2.1201  1.4050
  584MOL0     H77049   3.419   2.966   7.575 -0.3417 -0.2935 -1.7762
  584MOL0     H77050   3.008   3.071   7.602  2.5595  1.2919 -5.8058
  584MOL0     H77051   2.796   2.966   7.513 -1.1454 -0.4786  2.2875
  584MOL0     H77052   2.632   2.464   7.677 -1.3277 -0.2134  0.3603
  584MOL0     H77053   2.427   2.340   7.698  1.0951 -0.5593  0.6353
  584MOL0     H77054   2.170   2.398   7.662  0.3403  0.3875 -0.5983
  584MOL0     H77055   2.230   2.243   7.685 -0.6080 -1.3914  0.8605
  584MOL0     H77056   1.970   2.300   7.560 -1.4041 -0.8314  1.3004
  584MOL0     H77057   1.997   2.205   7.703 -4.4509 -1.8211 -1.6165
  584MOL0     H77058   2.116   2.040   7.525 -0.0246  0.7355  0.3635
  584MOL0     H77059   2.036   2.147   7.402 -1.8138 -0.9027 -0.2338
  584MOL0     H77060   1.926   1.942   7.458 -0.4717 -0.3472 -0.7916
  584MOL0     H77061   1.906   1.998   7.629 -0.7668 -0.2288  0.0840
  584MOL0     H77062   1.742   2.075   7.388 -0.1079  1.3130  0.1887
  584MOL0     H77063   1.794   2.212   7.470 -0.6873  0.7168 -1.6597
  584MOL0     H77064   1.598   2.183   7.575  0.3638 -0.0575 -0.7946
  584MOL0     H77065   1.703   2.113   7.699 -0.7068 -2.6105  0.6020
  584MOL0     H77066   1.488   1.981   7.550  0.8232  0.0817 -1.1047
  584MOL0     H77067   1.629   1.895   7.531 -2.0729 -0.6045 -0.2844
  584MOL0     H77068   1.500   1.979   7.786  2.2313  2.4755 -0.8095
  584MOL0     H77069   1.666   1.923   7.802 -0.8834  0.0767  2.0327
  584MOL0     H77070   2.319   2.425   7.284 -1.9260  2.7393  1.0621
  584MOL0     H77071   2.557   2.545   7.259  1.6796  1.8744  0.9224
  584MOL0     H77072   2.977   2.581   7.579  1.3295 -0.1442  0.0589
  584MOL0     H77073   3.189   2.682   7.618  1.2270  2.0653 -2.9659
  584MOL0     H77074   4.775   3.512   8.140  1.5090  1.9645  1.5945
  584MOL0     H77075   4.871   3.671   8.274  0.3504 -1.7919  0.3290
  584MOL0     H77076   4.848   4.158   8.338 -2.8811 -0.8623  0.5651
  584MOL0     H77077   4.915   4.365   8.437  0.2058  0.9358 -0.2990
  584MOL0     H77078   5.085   4.536   8.547  1.7427  2.0701  3.6513
  584MOL0     H77079   5.174   4.389   8.506 -1.5824  1.7616 -2.8532
  584MOL0     H77080   5.227   4.574   8.730 -0.0364  0.4823  0.2190
  584MOL0     H77081   5.336   4.438   8.674  1.7451  0.6514 -3.0804
  584MOL0     H77082   5.255   4.709   8.552  1.6725  2.0340 -0.5159
  584MOL0     H77083   5.336   4.578   8.466  0.0457  3.7542 -0.6761
  584MOL0     H77084   5.526   4.601   8.644  1.2844 -0.7836 -0.8147
  584MOL0     H77085   5.516   4.699   8.488 -0.8321  0.2283 -0.1417
  584MOL0     H77086   5.432   5.006   8.760 -0.2258 -1.6943  2.5792
  584MOL0     H77087   5.062   4.163   8.781 -1.1314  3.8151  0.6410
  584MOL0     H77088   4.970   3.941   8.689  0.2815 -1.6757 -3.2385
  585MOL0     O77089   3.415   6.428   1.711 -0.5816  0.0253  0.3319
  585MOL0     C77090   3.494   6.490   1.783  0.1806  0.9185  0.2878
  585MOL0     O77091   3.604   6.437   1.846 -0.2909  0.8437  0.4816
  585MOL0     C77092   3.641   6.307   1.809  0.3447 -0.5883 -0.4969
  585MOL0     C77093   3.676   6.208   1.903 -0.2519  1.4492  0.4585
  585MOL0     C77094   3.710   6.076   1.857 -0.3802 -0.0549 -0.0622
  585MOL0     C77095   3.736   6.045   1.723 -0.0480  0.3318  0.5208
  585MOL0     O77096   3.788   5.927   1.672  0.1096  1.4077 -0.6137
  585MOL0     C77097   3.883   5.854   1.753 -0.1184 -0.2441  0.4323
  585MOL0     C77098   3.945   5.755   1.652 -0.1867 -0.0291 -0.4326
  585MOL0     C77099   4.077   5.800   1.598  0.1756  0.6757  0.3158
  585MOL0     C77100   4.198   5.802   1.693 -0.7239  0.8233 -0.1381
  585MOL0     C77101   4.328   5.805   1.625 -1.5564  1.1311  0.4988
  585MOL0     C77102   4.371   5.671   1.557 -0.3022  0.8340  0.4648
  585MOL0     C77103   4.519   5.669   1.520  0.7149  0.2367  0.3405
  585MOL0     C77104   4.560   5.525   1.476 -0.7118 -0.0222 -0.2260
  585MOL0     N77105   4.651   5.447   1.565 -0.1899 -0.2198 -0.3398
  585MOL0     C77106   4.786   5.441   1.555 -0.2387 -0.7062  0.6672
  585MOL0     C77107   4.833   5.348   1.646 -0.2451  0.2344 -0.5493
  585MOL0     C77108   4.965   5.301   1.678 -0.1316 -0.7219  0.1340
  585MOL0     C77109   4.992   5.153   1.624 -0.4031 -0.9489  0.3997
  585MOL0     C77110   5.132   5.113   1.670  0.3281 -0.1696  0.3730
  585MOL0     C77111   5.154   4.963   1.643 -0.0757 -0.7986 -0.4991
  585MOL0     O77112   5.260   4.913   1.725 -0.1091  0.0946 -0.3950
  585MOL0     C77113   5.390   4.938   1.691 -0.0097 -0.1975 -0.2842
  585MOL0     C77114   5.483   4.858   1.751 -0.4496 -0.3843 -0.4282
  585MOL0     C77115   5.621   4.869   1.726 -0.6926  0.1317  0.1175
  585MOL0     C77116   5.669   4.965   1.633  0.3642  0.3076  0.1404
  585MOL0     C77117   5.814   4.985   1.609 -0.2110  0.0019 -0.0118
  585MOL0     O77118   5.908   4.929   1.697 -0.4154 -0.1304  0.5955
  585MOL0     C77119   6.034   4.989   1.715  0.9421  0.1052  0.5558
  585MOL0     C77120   6.063   5.128   1.716  0.8096  0.5702 -1.0384
  585MOL0     C77121   6.186   5.171   1.758  0.3759 -0.3151  1.1906
  585MOL0     C77122   6.297   5.085   1.781 -0.0346  0.0392  0.3350
  585MOL0     O77123   6.427   5.118   1.800  0.9220 -0.1663  0.0263
  585MOL0     C77124   6.458   5.250   1.856  0.2766  0.0010  0.6724
  585MOL0     C77125   6.594   5.301   1.792  0.8386 -1.0650  0.3845
  585MOL0     C77126   6.574   5.388   1.664  0.2049 -0.5619  0.2134
  585MOL0     C77127   6.472   5.323   1.566  0.7163 -0.2377 -1.0144
  585MOL0     C77128   6.496   5.395   1.432 -0.1194  0.1828 -0.9206
  585MOL0     C77129   6.399   5.336   1.337  0.7319  0.2941  0.8287
  585MOL0     C77130   6.436   5.395   1.200 -1.1066 -0.2405 -0.7800
  585MOL0     C77131   6.336   5.362   1.089  0.8275  0.3072 -0.3222
  585MOL0    Cl77132   6.343   5.186   1.046  0.0869  0.0942  0.2336
  585MOL0     C77133   6.266   4.949   1.781  1.2262  0.3194  0.0434
  585MOL0     C77134   6.132   4.905   1.756  0.8043 -0.4889 -0.5927
  585MOL0     O77135   5.843   5.040   1.500  0.2778  0.7260 -0.4757
  585MOL0     C77136   5.571   5.036   1.561 -0.2762  0.0319  0.1340
  585MOL0     C77137   5.434   5.017   1.589  0.2049 -0.1034  0.5664
  585MOL0     N77138   4.720   5.296   1.702 -0.0099 -0.0751 -0.1738
  585MOL0     N77139   4.612   5.347   1.643  0.5363 -0.1427  0.0161
  585MOL0     C77140   3.711   6.146   1.619 -0.3296 -0.0221  0.4659
  585MOL0     C77141   3.658   6.274   1.674 -0.5252  0.5605  0.9682
  585MOL0     C77142   3.448   6.628   1.814  0.1414 -0.3200 -0.2712
  585MOL0     C77143   3.516   6.696   1.917  0.6142  0.1566 -0.1445
  585MOL0     C77144   3.474   6.817   1.964 -0.9638  0.2567  0.1457
  585MOL0     C77145   3.365   6.879   1.902  0.3871  0.0969  0.2411
  585MOL0     O77146   3.327   6.999   1.959  0.3900  0.0795  0.7089
  585MOL0     C77147   3.198   7.051   1.940 -0.1404  0.1128 -0.5359
  585MOL0     C77148   3.175   7.179   2.025 -0.6143 -0.2927 -0.1224
  585MOL0     C77149   3.028   7.208   2.047 -0.4692 -0.2839  0.0340
  585MOL0     C77150   3.008   7.350   2.098  0.8321 -0.6479 -0.4501
  585MOL0     C77151   2.867   7.387   2.101 -0.7188  0.1607 -0.5391
  585MOL0     C77152   2.754   7.409   2.121  1.0351 -0.6970 -0.3351
  585MOL0     C77153   3.288   6.815   1.801  0.1098  0.7081  0.7517
  585MOL0     C77154   3.328   6.687   1.767 -0.5004  0.6352 -0.2969
  585MOL0     H77155   3.668   6.222   2.010 -4.6584  3.5210  0.0806
  585MOL0     H77156   3.751   6.011   1.934  3.9266  0.7726 -1.3545
  585MOL0     H77157   3.823   5.804   1.830  1.3070  0.2690  1.9584
  585MOL0     H77158   3.960   5.908   1.810 -0.1737  1.3135 -0.9181
  585MOL0     H77159   3.871   5.736   1.574 -0.2677  1.7218 -0.8173
  585MOL0     H77160   3.957   5.669   1.718 -0.9764 -0.4278 -0.7998
  585MOL0     H77161   4.067   5.902   1.561 -0.7633  0.5290  0.1395
  585MOL0     H77162   4.096   5.742   1.507  2.1938  2.2051 -0.3080
  585MOL0     H77163   4.189   5.894   1.751  0.1881  1.5579 -1.1218
  585MOL0     H77164   4.204   5.715   1.759  1.4020  0.5438 -0.6560
  585MOL0     H77165   4.398   5.831   1.705  0.9576  1.0105 -1.5321
  585MOL0     H77166   4.339   5.884   1.551  1.3076 -2.2793 -3.1698
  585MOL0     H77167   4.317   5.668   1.462  2.0935  0.5836 -0.9635
  585MOL0     H77168   4.342   5.591   1.626 -1.1931  0.5853 -0.1750
  585MOL0     H77169   4.537   5.741   1.439 -2.5014 -0.6732 -1.3283
  585MOL0     H77170   4.586   5.695   1.603 -0.1181 -1.6704  1.6709
  585MOL0     H77171   4.594   5.535   1.373  1.1784 -2.6076  0.0324
  585MOL0     H77172   4.469   5.465   1.460  0.8152 -2.9425  1.1608
  585MOL0     H77173   4.858   5.490   1.490  1.0118 -2.4920  0.6268
  585MOL0     H77174   4.986   5.296   1.786  2.4009 -3.4379 -0.3550
  585MOL0     H77175   5.043   5.366   1.639  1.5626  0.0541  4.2633
  585MOL0     H77176   4.991   5.152   1.515 -1.7267  0.8058  0.3602
  585MOL0     H77177   4.917   5.077   1.647 -2.1269 -0.3158 -2.5526
  585MOL0     H77178   5.209   5.174   1.623  2.2628  0.0687  3.5682
  585MOL0     H77179   5.141   5.123   1.779 -1.1033 -1.2482  0.6181
  585MOL0     H77180   5.171   4.938   1.538 -0.7949 -0.2348 -0.7585
  585MOL0     H77181   5.059   4.911   1.662  0.7030 -2.6283 -1.3838
  585MOL0     H77182   5.448   4.778   1.815 -0.5726  1.2154  1.6295
  585MOL0     H77183   5.685   4.799   1.778  0.0045  1.2265  0.7908
  585MOL0     H77184   5.977   5.191   1.694 -0.1351 -1.3536 -3.2446
  585MOL0     H77185   6.198   5.279   1.758 -0.7455 -0.1247 -0.9163
  585MOL0     H77186   6.472   5.249   1.964 -0.4611 -1.1240  0.7734
  585MOL0     H77187   6.380   5.325   1.839 -0.2057 -0.0767  2.3935
  585MOL0     H77188   6.654   5.213   1.769  0.3621 -0.4523 -3.9757
  585MOL0     H77189   6.654   5.352   1.869  1.6101 -1.1517 -0.1513
  585MOL0     H77190   6.668   5.397   1.607  0.5565  0.9304  0.9905
  585MOL0     H77191   6.541   5.490   1.684 -2.4484 -0.5625 -3.1579
  585MOL0     H77192   6.465   5.216   1.549 -3.1258 -0.2974  0.1672
  585MOL0     H77193   6.371   5.339   1.604  1.0368 -0.9588  0.2184
  585MOL0     H77194   6.602   5.375   1.413 -0.2747 -1.0508 -0.5998
  585MOL0     H77195   6.471   5.501   1.441  0.2745  0.1092  2.8483
  585MOL0     H77196   6.293   5.330   1.363  0.9326 -0.2759  1.5464
  585MOL0     H77197   6.418   5.228   1.330  0.3629  0.2809 -0.1696
  585MOL0     H77198   6.451   5.503   1.211 -1.0358 -0.4104  1.0653
  585MOL0     H77199   6.534   5.372   1.157 -1.2344  2.3805 -2.7114
  585MOL0     H77200   6.355   5.422   1.000 -3.5366  0.5323 -1.3103
  585MOL0     H77201   6.235   5.382   1.125  0.1038 -1.4115 -1.2511
  585MOL0     H77202   6.341   4.877   1.810  0.0239 -0.7864  0.4740
  585MOL0     H77203   6.117   4.798   1.766 -2.0423 -0.3344 -2.2453
  585MOL0     H77204   5.595   5.104   1.481 -2.5653  2.2861  1.2319
  585MOL0     H77205   5.365   5.057   1.516  2.4876  1.2223 -0.9847
  585MOL0     H77206   3.735   6.136   1.514 -0.1706  0.1091  0.4883
  585MOL0     H77207   3.639   6.352   1.600  3.6264 -0.1276 -1.1637
  585MOL0     H77208   3.604   6.656   1.967  1.0419 -0.7944 -1.5909
  585MOL0     H77209   3.540   6.867   2.034 -0.8087  0.7239 -0.3255
  585MOL0     H77210   3.127   6.975   1.973  1.0179  0.1879  2.4255
  585MOL0     H77211   3.182   7.081   1.836 -2.4784 -2.2351 -0.9551
  585MOL0     H77212   3.222   7.160   2.122  0.6310  0.4826 -0.5530
  585MOL0     H77213   3.239   7.258   1.986 -0.9970 -0.1143 -0.3894
  585MOL0     H77214   2.970   7.134   2.103  1.3009 -1.5017  0.3496
  585MOL0     H77215   2.982   7.205   1.948  1.5584  0.5801 -1.0045
  585MOL0     H77216   3.041   7.352   2.203 -3.0488 -1.0217  0.9473
  585MOL0     H77217   3.063   7.418   2.032  2.4487 -1.2532  0.2246
  585MOL0     H77218   2.648   7.427   2.112  0.7776 -1.8867  0.1799
  585MOL0     H77219   3.203   6.862   1.752  0.0632  1.4748  1.5534
  585MOL0     H77220   3.278   6.630   1.689 -0.2914 -0.7522  0.5554
  586MOL0     O77221   0.109  10.398   3.099 -0.2370 -0.4961  0.1667
  586MOL0     C77222   0.107  10.465   2.993  0.5480 -0.3221  0.0481
  586MOL0     O77223   0.004  10.475   2.910  0.5033 -0.4781  0.4866
  586MOL0     C77224  -0.105  10.409   2.948  0.8969 -1.0363 -0.2008
  586MOL0     C77225  -0.188  10.479   3.046 -0.3944  0.1963 -0.0989
  586MOL0     C77226  -0.307  10.423   3.088  0.3564 -0.2752 -0.4101
  586MOL0     C77227  -0.357  10.319   3.011 -0.5978  0.9237  0.8210
  586MOL0     O77228  -0.474  10.266   3.043 -0.6858  0.7008 -0.0026
  586MOL0     C77229  -0.554  10.213   2.941  1.1902  0.2467  0.1404
  586MOL0     C77230  -0.693  10.189   3.003  0.5374  0.0268 -0.4470
  586MOL0     C77231  -0.797  10.145   2.897 -0.1419 -0.6433  0.2166
  586MOL0     C77232  -0.936  10.092   2.949  0.0213 -0.7956  0.0214
  586MOL0     C77233  -1.036  10.092   2.837  0.5027 -0.8411  0.0000
  586MOL0     C77234  -1.178  10.049   2.880  0.5688 -0.4513  0.0699
  586MOL0     C77235  -1.177   9.903   2.930 -0.6722  0.1327 -0.2388
  586MOL0     C77236  -1.167   9.807   2.812 -0.7788  0.3120 -0.6613
  586MOL0     N77237  -1.178   9.667   2.857 -0.0459  0.0786 -0.2016
  586MOL0     C77238  -1.268   9.612   2.952 -0.9108 -0.2677 -0.3538
  586MOL0     C77239  -1.252   9.482   2.938 -0.3963 -0.0604  0.3202
  586MOL0     C77240  -1.333   9.366   2.986  0.3708  0.6500 -0.6796
  586MOL0     C77241  -1.402   9.293   2.869  0.6814  0.4163  0.3609
  586MOL0     C77242  -1.315   9.185   2.807  0.3962 -0.4394 -0.4640
  586MOL0     C77243  -1.351   9.155   2.656 -0.0617 -0.2711  0.4142
  586MOL0     O77244  -1.236   9.204   2.572  0.0609  0.7547 -0.3294
  586MOL0     C77245  -1.136   9.114   2.543 -1.0287 -0.7383 -0.0687
  586MOL0     C77246  -1.037   9.156   2.460 -0.7878  0.1069  0.1355
  586MOL0     C77247  -0.927   9.077   2.425 -0.5251  0.5235  0.1461
  586MOL0     C77248  -0.908   8.951   2.485 -0.4458  0.0576  0.5150
  586MOL0     C77249  -0.806   8.859   2.445  0.6207 -0.6175  0.3767
  586MOL0     O77250  -0.822   8.736   2.477 -0.8407 -0.4079  0.4253
  586MOL0     C77251  -0.753   8.637   2.413 -0.3451 -0.8774 -0.2785
  586MOL0     C77252  -0.628   8.614   2.450  0.2206 -0.2317 -0.0447
  586MOL0     C77253  -0.548   8.510   2.395  0.3198 -0.6154  0.3152
  586MOL0     C77254  -0.591   8.439   2.287  0.6147 -1.0320 -0.5199
  586MOL0     O77255  -0.505   8.350   2.237 -0.5074  1.0757 -0.1948
  586MOL0     C77256  -0.536   8.279   2.115  0.9421 -0.4018  0.8346
  586MOL0     C77257  -0.536   8.378   1.996 -0.6701  1.2344  0.0667
  586MOL0     C77258  -0.586   8.293   1.872 -0.6917 -0.5971 -0.2037
  586MOL0     C77259  -0.559   8.378   1.744  0.1989 -0.6013  0.2591
  586MOL0     C77260  -0.596   8.287   1.620  0.0010 -0.0884 -0.1933
  586MOL0     C77261  -0.577   8.365   1.488 -0.1005  0.4118 -0.9026
  586MOL0     C77262  -0.671   8.488   1.472 -0.5013 -0.8448  0.7642
  586MOL0     C77263  -0.817   8.450   1.494  0.3770  0.3295  0.0036
  586MOL0    Cl77264  -0.911   8.593   1.450 -0.3883  0.0428  0.0378
  586MOL0     C77265  -0.722   8.468   2.241 -0.2739  0.1026  0.3720
  586MOL0     C77266  -0.806   8.565   2.301 -1.3661  0.3990  1.0147
  586MOL0     O77267  -0.710   8.901   2.383  0.0990 -0.2874  0.2767
  586MOL0     C77268  -1.012   8.902   2.576  0.0336 -0.3432 -0.2499
  586MOL0     C77269  -1.120   8.985   2.604  0.4075 -0.2488  0.3175
  586MOL0     N77270  -1.153   9.461   2.850 -0.7950 -0.2592 -0.9618
  586MOL0     N77271  -1.104   9.573   2.810 -0.2415 -0.2518  0.8663
  586MOL0     C77272  -0.276  10.248   2.914 -0.1416  1.3264 -0.7253
  586MOL0     C77273  -0.152  10.299   2.885  0.0841 -0.3195  0.9337
  586MOL0     C77274   0.218  10.536   2.964  0.2547  1.8763 -0.3980
  586MOL0     C77275   0.203  10.668   2.945 -1.4425  0.8684 -0.3476
  586MOL0     C77276   0.321  10.745   2.912 -0.1312 -0.9618  0.6681
  586MOL0     C77277   0.450  10.692   2.940 -0.3995 -0.2974  0.6279
  586MOL0     O77278   0.555  10.774   2.910  0.1545  0.5048  0.0533
  586MOL0     C77279   0.672  10.774   2.988 -0.7736 -0.0922  0.1433
  586MOL0     C77280   0.769  10.894   2.952  0.3795  0.1890  0.2753
  586MOL0     C77281   0.916  10.882   2.991  0.0794  0.1065  0.1387
  586MOL0     C77282   0.982  11.017   2.948  0.1057  0.7893 -0.1920
  586MOL0     C77283   1.128  11.011   2.972  0.7024  0.4812  0.1318
  586MOL0     C77284   1.248  10.987   2.997  0.3563 -0.3437  1.1301
  586MOL0     C77285   0.456  10.551   2.967  0.0396  0.2849  0.5527
  586MOL0     C77286   0.338  10.475   2.971 -0.3019  0.8243 -0.9360
  586MOL0     H77287  -0.135  10.558   3.098  2.1459  1.0303 -3.6325
  586MOL0     H77288  -0.366  10.463   3.170  3.5983 -1.4164  2.7828
  586MOL0     H77289  -0.509  10.119   2.907  1.6036 -0.0222  1.3785
  586MOL0     H77290  -0.565  10.268   2.847  1.6603 -0.5675 -0.3979
  586MOL0     H77291  -0.733  10.273   3.059  0.5381 -1.4291  1.8561
  586MOL0     H77292  -0.678  10.104   3.070  3.0618 -0.7928 -1.8699
  586MOL0     H77293  -0.740  10.078   2.832  3.0378  3.6886 -1.8898
  586MOL0     H77294  -0.812  10.231   2.832  0.9574  2.7024  3.9521
  586MOL0     H77295  -0.914   9.988   2.976 -1.1304 -1.2962 -0.8335
  586MOL0     H77296  -0.962  10.159   3.031 -2.3640 -0.6520 -0.7645
  586MOL0     H77297  -1.006  10.051   2.741 -2.2209  1.0291 -1.7934
  586MOL0     H77298  -1.041  10.199   2.812  0.7624 -0.3402  1.9201
  586MOL0     H77299  -1.257  10.072   2.808  0.4296 -1.5363 -0.1387
  586MOL0     H77300  -1.207  10.100   2.973 -3.2371  1.4000 -1.9280
  586MOL0     H77301  -1.091   9.878   2.992 -1.6931  2.5950  2.3602
  586MOL0     H77302  -1.272   9.899   2.984  0.2642 -0.0498  1.4483
  586MOL0     H77303  -1.072   9.812   2.758 -0.4668 -2.2632 -0.4940
  586MOL0     H77304  -1.252   9.823   2.744 -0.2166 -0.0924 -1.4798
  586MOL0     H77305  -1.342   9.662   3.014  1.0317  1.4417  0.7279
  586MOL0     H77306  -1.414   9.412   3.043  0.7902  3.3799 -2.0915
  586MOL0     H77307  -1.270   9.294   3.039 -0.3916 -0.3101 -1.0546
  586MOL0     H77308  -1.422   9.356   2.782 -1.7485 -0.3991  0.2489
  586MOL0     H77309  -1.490   9.245   2.913  2.1639 -0.4151  2.6168
  586MOL0     H77310  -1.215   9.229   2.807 -1.3358  4.3427 -3.7484
  586MOL0     H77311  -1.331   9.094   2.867  1.2346 -0.4166 -0.1895
  586MOL0     H77312  -1.431   9.223   2.626  0.6873 -0.6005 -2.7058
  586MOL0     H77313  -1.389   9.053   2.649 -2.9834  0.6831  0.9288
  586MOL0     H77314  -1.063   9.250   2.411 -2.7739 -0.5137 -0.1052
  586MOL0     H77315  -0.848   9.118   2.362  0.5095 -0.6077  0.6451
  586MOL0     H77316  -0.592   8.658   2.542  0.9841  0.6985 -0.7721
  586MOL0     H77317  -0.452   8.484   2.438  2.1188  1.4444 -2.1905
  586MOL0     H77318  -0.632   8.226   2.117  0.0631  1.0040 -1.0460
  586MOL0     H77319  -0.463   8.201   2.094 -0.2043 -1.2950  0.0625
  586MOL0     H77320  -0.431   8.407   1.979  0.0632 -1.5949 -0.7218
  586MOL0     H77321  -0.598   8.467   2.010 -1.1814  1.5140 -3.2134
  586MOL0     H77322  -0.695   8.282   1.879 -1.2233  1.0628 -3.7497
  586MOL0     H77323  -0.532   8.198   1.869 -0.5958 -0.5102 -1.6669
  586MOL0     H77324  -0.612   8.473   1.752  1.6971  0.3149 -0.3445
  586MOL0     H77325  -0.453   8.396   1.729  1.0280  0.3487  5.4017
  586MOL0     H77326  -0.703   8.266   1.635  0.6568 -2.9638  1.2398
  586MOL0     H77327  -0.537   8.194   1.621  1.8030  1.0221  0.6208
  586MOL0     H77328  -0.592   8.297   1.404  0.4454  1.4476 -1.8637
  586MOL0     H77329  -0.474   8.400   1.476  1.2818 -2.5431  1.1191
  586MOL0     H77330  -0.643   8.574   1.534  1.1899 -0.4402 -0.4782
  586MOL0     H77331  -0.661   8.523   1.369  0.6471  0.6926  1.3518
  586MOL0     H77332  -0.842   8.429   1.598 -1.9122 -3.3077 -1.1079
  586MOL0     H77333  -0.863   8.370   1.435 -3.1723  2.5558 -0.5560
  586MOL0     H77334  -0.761   8.416   2.154  0.9217  1.1292 -0.8222
  586MOL0     H77335  -0.904   8.587   2.260 -1.0907  1.4630  0.8970
  586MOL0     H77336  -1.017   8.808   2.631 -0.7534 -0.9799 -1.3627
  586MOL0     H77337  -1.196   8.955   2.676 -0.3231  0.6620 -0.0595
  586MOL0     H77338  -0.304  10.151   2.874 -1.2062 -0.3522  3.5921
  586MOL0     H77339  -0.078  10.250   2.823 -0.0186  2.0356 -1.2241
  586MOL0     H77340   0.112  10.727   2.939 -0.5343  2.2749 -1.1920
  586MOL0     H77341   0.307  10.848   2.880 -4.9874 -2.0083 -1.5766
  586MOL0     H77342   0.717  10.678   2.962  1.3215  1.0449 -0.6633
  586MOL0     H77343   0.655  10.778   3.096 -1.6417 -0.5323  0.0305
  586MOL0     H77344   0.763  10.909   2.843 -1.7089  2.2436  0.5861
  586MOL0     H77345   0.741  10.984   3.008  1.2794 -1.7198  4.0696
  586MOL0     H77346   0.950  10.797   2.930 -0.7342 -0.4801  0.4782
  586MOL0     H77347   0.932  10.856   3.096 -0.1845 -2.6429 -0.4240
  586MOL0     H77348   0.962  11.019   2.841  0.8419 -2.6444 -0.5267
  586MOL0     H77349   0.935  11.099   3.003 -0.3753  0.8739 -0.7250
  586MOL0     H77350   1.354  10.981   3.010  1.2755  0.7501 -3.7664
  586MOL0     H77351   0.544  10.491   2.988 -0.8883 -3.6390 -4.5930
  586MOL0     H77352   0.352  10.368   2.986 -0.1702  1.0583  0.8631
  587MOL0     O77353   1.020   6.706   4.473 -0.2316 -0.3821 -0.7277
  587MOL0     C77354   0.979   6.665   4.363  0.4003 -0.3068  0.0173
  587MOL0     O77355   0.995   6.726   4.247  0.3126 -0.4667 -0.5719
  587MOL0     C77356   1.083   6.826   4.221 -0.3375  0.0779  0.2114
  587MOL0     C77357   1.195   6.872   4.293  0.0809  0.6037  0.6032
  587MOL0     C77358   1.272   6.972   4.239 -1.0750 -1.1513 -0.2202
  587MOL0     C77359   1.257   7.025   4.115 -0.3407 -0.0124  0.1471
  587MOL0     O77360   1.328   7.130   4.071  0.0416 -0.6240  0.1741
  587MOL0     C77361   1.464   7.103   4.032 -0.0862 -0.3354  0.2868
  587MOL0     C77362   1.522   7.214   3.945 -0.0886  0.2282 -0.2435
  587MOL0     C77363   1.668   7.194   3.905  0.1144 -0.4491  0.1254
  587MOL0     C77364   1.776   7.234   4.004 -0.6080 -0.7084  0.4533
  587MOL0     C77365   1.916   7.206   3.945 -0.5231  0.2718  0.5148
  587MOL0     C77366   2.029   7.219   4.047 -0.9259 -0.3871 -1.0320
  587MOL0     C77367   2.024   7.348   4.132 -0.2259  0.1683  0.3988
  587MOL0     C77368   2.155   7.363   4.206  0.2971 -0.2486  0.2732
  587MOL0     N77369   2.276   7.407   4.131 -0.6077  0.1735  0.3515
  587MOL0     C77370   2.292   7.520   4.054 -1.2720  0.3786 -0.0362
  587MOL0     C77371   2.422   7.512   4.010 -0.3150 -0.5281 -0.6360
  587MOL0     C77372   2.519   7.615   3.957 -0.0012 -0.1764 -0.1927
  587MOL0     C77373   2.443   7.724   3.879  0.0741  0.9347 -0.0709
  587MOL0     C77374   2.535   7.797   3.787  0.0052 -0.4034  0.1616
  587MOL0     C77375   2.666   7.853   3.845 -0.6287  0.2756  0.2021
  587MOL0     O77376   2.746   7.886   3.734  0.3448  0.5969 -0.9267
  587MOL0     C77377   2.869   7.944   3.758 -0.2806  0.3427  0.0010
  587MOL0     C77378   2.941   7.934   3.652  0.0204 -0.3247  0.6648
  587MOL0     C77379   3.073   7.977   3.648 -0.5956  0.0036 -0.6648
  587MOL0     C77380   3.127   8.058   3.742 -0.3008 -0.2766 -0.4119
  587MOL0     C77381   3.256   8.133   3.721  0.2281 -0.6151  0.3776
  587MOL0     O77382   3.300   8.199   3.831 -1.2015 -0.2503  0.6899
  587MOL0     C77383   3.424   8.266   3.839 -0.6488 -0.1231  0.4978
  587MOL0     C77384   3.524   8.260   3.747  0.2039  0.7844 -0.2731
  587MOL0     C77385   3.632   8.338   3.764 -0.2070 -0.2811 -0.2999
  587MOL0     C77386   3.647   8.416   3.882 -2.2224  0.1240 -0.5636
  587MOL0     O77387   3.762   8.488   3.925  0.4829  1.5917  0.4959
  587MOL0     C77388   3.886   8.449   3.864  0.1217 -0.3979  0.7275
  587MOL0     C77389   4.008   8.492   3.930  0.2819  0.0760 -0.3805
  587MOL0     C77390   4.134   8.437   3.858 -0.4685  0.0552 -0.0381
  587MOL0     C77391   4.242   8.520   3.930 -0.3355 -0.6442 -1.0451
  587MOL0     C77392   4.377   8.479   3.878 -0.6016 -0.2777 -0.2647
  587MOL0     C77393   4.498   8.526   3.962  0.0823 -0.4265  0.1532
  587MOL0     C77394   4.634   8.487   3.909 -1.0483  0.3193 -0.1731
  587MOL0     C77395   4.770   8.556   3.944 -0.4311 -0.0100 -0.8617
  587MOL0    Cl77396   4.775   8.728   3.898 -0.4003 -0.0583  0.0816
  587MOL0     C77397   3.545   8.412   3.981  0.4247 -0.6303 -0.3257
  587MOL0     C77398   3.431   8.345   3.945  0.4386 -0.9722 -0.5245
  587MOL0     O77399   3.313   8.117   3.613  0.0483 -0.1852  0.4011
  587MOL0     C77400   3.042   8.077   3.854  0.2312 -0.0751 -0.1342
  587MOL0     C77401   2.915   8.016   3.868 -0.0860 -0.8700  0.2723
  587MOL0     N77402   2.477   7.389   4.044 -0.3370  0.2216  0.2507
  587MOL0     N77403   2.384   7.333   4.114  0.2704  0.0974 -0.3068
  587MOL0     C77404   1.152   6.982   4.042  0.8045  0.1735  0.2667
  587MOL0     C77405   1.054   6.879   4.092  0.5913 -1.4667  0.1271
  587MOL0     C77406   0.905   6.537   4.367 -0.5098 -0.1731 -1.1834
  587MOL0     C77407   0.873   6.474   4.248  0.2181  0.4250 -0.1852
  587MOL0     C77408   0.796   6.358   4.234 -0.8996 -0.9243 -0.7894
  587MOL0     C77409   0.765   6.294   4.355  0.2642 -0.2729  1.5022
  587MOL0     O77410   0.695   6.178   4.342  0.0958 -0.4552 -1.1050
  587MOL0     C77411   0.777   6.065   4.362 -1.8954  0.1060  0.9430
  587MOL0     C77412   0.724   5.991   4.492 -0.8023  0.3215  0.5749
  587MOL0     C77413   0.813   5.885   4.547  0.8070 -0.7384 -0.1388
  587MOL0     C77414   0.848   5.787   4.442 -0.2650  0.0569  0.1677
  587MOL0     C77415   0.752   5.701   4.364  0.2155 -0.5168 -0.2477
  587MOL0     C77416   0.651   5.642   4.322  0.5997  0.1190 -0.0892
  587MOL0     C77417   0.792   6.350   4.478  0.7275  0.0829 -1.0616
  587MOL0     C77418   0.859   6.478   4.481 -0.1767  0.5433 -0.1493
  587MOL0     H77419   1.233   6.835   4.387  1.0333  0.7356  0.2761
  587MOL0     H77420   1.343   7.024   4.304 -1.7555 -1.4481  0.7879
  587MOL0     H77421   1.470   7.014   3.970  0.4242 -2.0693  2.6713
  587MOL0     H77422   1.535   7.085   4.113 -0.4664 -0.0903  0.6782
  587MOL0     H77423   1.517   7.304   4.008 -0.6024  0.4773 -0.6344
  587MOL0     H77424   1.461   7.237   3.857 -2.1200 -0.8379  0.8043
  587MOL0     H77425   1.697   7.251   3.817  1.5397 -0.0188  0.8558
  587MOL0     H77426   1.675   7.088   3.877 -1.2289 -1.0120  1.7039
  587MOL0     H77427   1.771   7.343   4.019 -1.1389 -0.5500 -0.7204
  587MOL0     H77428   1.761   7.184   4.100 -2.4076  0.6115  0.9121
  587MOL0     H77429   1.956   7.276   3.870  0.1320 -1.0635 -0.4234
  587MOL0     H77430   1.915   7.104   3.907  4.7934 -0.7014  2.1956
  587MOL0     H77431   2.129   7.204   4.006  1.0957  2.9198  2.0738
  587MOL0     H77432   2.002   7.146   4.125 -3.2308 -0.1470 -1.5474
  587MOL0     H77433   2.007   7.434   4.067  1.5412 -1.2113 -2.0336
  587MOL0     H77434   1.947   7.341   4.210 -1.3384  3.6686 -0.2132
  587MOL0     H77435   2.173   7.269   4.258  0.6120  0.5400  1.6555
  587MOL0     H77436   2.138   7.435   4.287 -0.8701 -0.4419  0.2047
  587MOL0     H77437   2.228   7.607   4.064  1.3338  2.2828  1.1844
  587MOL0     H77438   2.597   7.565   3.898  0.7516 -0.5535  1.0991
  587MOL0     H77439   2.574   7.677   4.028  2.7031  1.8443 -3.7227
  587MOL0     H77440   2.406   7.793   3.956  0.6036  1.6534 -0.4567
  587MOL0     H77441   2.369   7.689   3.806 -0.1602  0.7686  0.2449
  587MOL0     H77442   2.571   7.731   3.707 -0.1842 -1.2071  0.7209
  587MOL0     H77443   2.482   7.887   3.757 -3.1725 -2.3612 -0.5849
  587MOL0     H77444   2.713   7.772   3.902 -3.6901 -1.6600  0.1771
  587MOL0     H77445   2.662   7.943   3.907  0.7707  3.2725 -3.6511
  587MOL0     H77446   2.908   7.894   3.556 -0.5336  1.0235  0.2764
  587MOL0     H77447   3.131   7.938   3.565  0.6919 -1.0228  0.6468
  587MOL0     H77448   3.513   8.190   3.665  0.7686  1.1374 -0.6568
  587MOL0     H77449   3.708   8.350   3.687  1.8669 -2.4662  1.2305
  587MOL0     H77450   3.896   8.496   3.766  1.0303  1.6797  1.7588
  587MOL0     H77451   3.873   8.341   3.851  1.0748 -0.6458  1.6951
  587MOL0     H77452   4.008   8.445   4.029  0.4780  0.2859 -0.2787
  587MOL0     H77453   4.008   8.602   3.929 -0.2357  0.0765 -0.8086
  587MOL0     H77454   4.136   8.451   3.750 -1.7065 -1.0486 -0.2338
  587MOL0     H77455   4.149   8.331   3.884  0.1528  0.2151  0.2739
  587MOL0     H77456   4.243   8.625   3.900 -0.0152  0.1838  1.6281
  587MOL0     H77457   4.229   8.508   4.038  1.6039 -0.2068 -0.7304
  587MOL0     H77458   4.388   8.512   3.775  1.3276 -0.2288 -0.0791
  587MOL0     H77459   4.383   8.370   3.872  0.0644 -0.3038  0.6313
  587MOL0     H77460   4.480   8.483   4.061  2.1673 -0.5210  0.5436
  587MOL0     H77461   4.507   8.635   3.965  1.0785 -0.3896 -2.2671
  587MOL0     H77462   4.642   8.379   3.926  2.2441  0.4047 -0.4377
  587MOL0     H77463   4.610   8.503   3.803  0.4453  2.3586 -0.2635
  587MOL0     H77464   4.862   8.504   3.914  0.0857 -1.4037  2.6951
  587MOL0     H77465   4.767   8.549   4.053  2.4723 -0.1904 -0.6953
  587MOL0     H77466   3.554   8.462   4.077  1.2876 -0.0987 -0.6757
  587MOL0     H77467   3.348   8.344   4.015  1.4123 -1.9656  0.6677
  587MOL0     H77468   3.080   8.137   3.936  0.4343  0.4126 -0.5783
  587MOL0     H77469   2.848   8.047   3.947  1.5389  1.1877  0.9301
  587MOL0     H77470   1.129   7.029   3.947  1.2444 -0.0745  0.0307
  587MOL0     H77471   0.979   6.826   4.035  0.6626 -1.6522  0.2018
  587MOL0     H77472   0.896   6.526   4.156  0.7957 -1.6920 -1.3143
  587MOL0     H77473   0.760   6.313   4.143 -0.8443 -2.8431  0.0887
  587MOL0     H77474   0.881   6.100   4.363 -2.5815  2.6187 -1.8489
  587MOL0     H77475   0.762   6.010   4.268 -0.2192  1.4650 -0.2054
  587MOL0     H77476   0.707   6.064   4.571 -0.2721 -0.5764  1.5507
  587MOL0     H77477   0.629   5.945   4.464 -1.9819  1.5814  2.3225
  587MOL0     H77478   0.776   5.833   4.636 -2.6389 -0.4903 -1.2652
  587MOL0     H77479   0.901   5.939   4.582 -0.3739  2.5274 -1.8478
  587MOL0     H77480   0.908   5.841   4.368 -1.0666  1.3594  0.4263
  587MOL0     H77481   0.913   5.714   4.491 -0.1867 -1.3778 -1.9411
  587MOL0     H77482   0.568   5.588   4.281  0.2726  0.6892 -0.1840
  587MOL0     H77483   0.767   6.312   4.576 -1.8505  0.1930 -1.6011
  587MOL0     H77484   0.880   6.521   4.579  0.8987  1.9798 -0.9789
  588MOL0     O77485   8.539   7.428   1.378  0.2226  0.0166  0.1083
  588MOL0     C77486   8.522   7.363   1.481  0.4942  0.7147  0.0078
  588MOL0     O77487   8.504   7.220   1.486 -0.2199 -0.1461 -0.0625
  588MOL0     C77488   8.407   7.172   1.396 -0.2055  0.3707  0.4396
  588MOL0     C77489   8.288   7.107   1.439  1.2315 -0.6471  0.5264
  588MOL0     C77490   8.206   7.045   1.341  0.2467  0.1572  0.1220
  588MOL0     C77491   8.230   7.049   1.203  0.2254  0.1228 -0.3939
  588MOL0     O77492   8.162   6.974   1.101 -0.0913  0.3014  0.0435
  588MOL0     C77493   8.047   6.894   1.144 -0.4740 -0.5681  0.2788
  588MOL0     C77494   8.003   6.861   1.004  0.1626 -0.0743  1.0672
  588MOL0     C77495   7.928   6.969   0.930  0.1819  0.3355 -0.0567
  588MOL0     C77496   7.860   6.921   0.804 -0.0972 -0.1619  0.1360
  588MOL0     C77497   7.774   6.804   0.816 -0.6829 -0.2688 -0.0951
  588MOL0     C77498   7.707   6.779   0.686 -0.3852 -0.6234  0.3664
  588MOL0     C77499   7.605   6.675   0.685  0.1592 -0.1589  0.1862
  588MOL0     C77500   7.511   6.669   0.568  1.1205  0.4004 -0.8472
  588MOL0     N77501   7.576   6.691   0.436 -0.0320 -0.7148 -0.6474
  588MOL0     C77502   7.685   6.622   0.391 -0.8473  0.2139  0.4641
  588MOL0     C77503   7.700   6.664   0.257  0.3792  0.1531  0.1368
  588MOL0     C77504   7.798   6.639   0.152 -0.2821 -0.2136  1.4434
  588MOL0     C77505   7.882   6.770   0.124 -0.0597 -0.3113  0.8311
  588MOL0     C77506   8.009   6.747   0.048 -0.5150 -0.6562 -0.2682
  588MOL0     C77507   8.142   6.784   0.124 -0.1428  0.7970 -1.2971
  588MOL0     O77508   8.183   6.670   0.200  0.1279 -0.0246  0.3395
  588MOL0     C77509   8.315   6.659   0.220  0.3017 -0.6104  0.9338
  588MOL0     C77510   8.397   6.763   0.267 -1.0820 -0.7143 -0.0302
  588MOL0     C77511   8.531   6.750   0.310  0.0686  0.1501 -0.6137
  588MOL0     C77512   8.579   6.615   0.311  0.7273 -0.4825 -0.6316
  588MOL0     C77513   8.704   6.577   0.365 -0.0221 -1.1531  0.4793
  588MOL0     O77514   8.706   6.449   0.419 -0.3074 -0.2845  0.4625
  588MOL0     C77515   8.799   6.416   0.518  0.3871 -1.3850  0.6859
  588MOL0     C77516   8.777   6.456   0.647 -0.5646  0.1467 -1.1836
  588MOL0     C77517   8.883   6.446   0.741 -0.3707  0.9229 -0.2626
  588MOL0     C77518   9.006   6.387   0.704  1.4383  0.8216  0.2454
  588MOL0     O77519   9.114   6.373   0.786  0.2736 -0.7642 -0.1039
  588MOL0     C77520   9.176   6.243   0.794 -0.4227 -0.3731  1.1855
  588MOL0     C77521   9.091   6.141   0.870 -0.2737 -1.6176  1.1701
  588MOL0     C77522   9.082   6.183   1.021 -0.1071 -0.2413  0.6377
  588MOL0     C77523   9.214   6.131   1.095 -0.0430 -0.1239 -0.2919
  588MOL0     C77524   9.187   6.121   1.240  0.3366 -0.5791 -0.0636
  588MOL0     C77525   9.317   6.124   1.319  0.1851 -0.0388 -0.5096
  588MOL0     C77526   9.414   6.019   1.275 -0.7876 -0.2661 -0.1469
  588MOL0     C77527   9.523   5.986   1.387  0.7797  0.6422 -0.4803
  588MOL0    Cl77528   9.446   5.920   1.530 -0.4665  0.1208 -0.1039
  588MOL0     C77529   9.017   6.326   0.580  0.3170 -0.6519 -0.3788
  588MOL0     C77530   8.915   6.345   0.487 -0.6393  0.5348 -0.5894
  588MOL0     O77531   8.804   6.651   0.358 -0.2853 -0.1472  0.5881
  588MOL0     C77532   8.497   6.510   0.262  0.2145  0.1283 -0.0145
  588MOL0     C77533   8.368   6.532   0.212  0.3559 -0.9588  0.5764
  588MOL0     N77534   7.604   6.758   0.236  0.4848 -0.0797 -0.3824
  588MOL0     N77535   7.533   6.774   0.344  0.2997  0.4134  0.2943
  588MOL0     C77536   8.346   7.123   1.162  0.0910 -0.2444 -0.1742
  588MOL0     C77537   8.429   7.176   1.259  0.3982  0.4401  0.8172
  588MOL0     C77538   8.533   7.443   1.609 -0.8571 -0.3172 -0.1793
  588MOL0     C77539   8.547   7.370   1.720 -1.1313 -0.2084  0.1180
  588MOL0     C77540   8.545   7.434   1.845  0.5856 -0.0625  0.4819
  588MOL0     C77541   8.539   7.572   1.856 -0.3514 -0.5633 -0.3585
  588MOL0     O77542   8.555   7.639   1.980  0.1143 -0.2376  0.8609
  588MOL0     C77543   8.688   7.613   2.043  1.0551 -0.3451  0.3227
  588MOL0     C77544   8.733   7.738   2.096  0.8292 -0.0115 -0.9324
  588MOL0     C77545   8.883   7.714   2.145  0.1368 -0.0562  0.3118
  588MOL0     C77546   8.944   7.830   2.212 -0.5915  0.6794 -0.7483
  588MOL0     C77547   8.932   7.947   2.121 -0.3774 -0.0067  0.1173
  588MOL0     C77548   8.940   8.040   2.038  0.5439 -0.7470 -0.5512
  588MOL0     C77549   8.519   7.644   1.740 -0.0971  0.2617 -0.5071
  588MOL0     C77550   8.515   7.576   1.615  0.6243  0.6384  0.3074
  588MOL0     H77551   8.275   7.088   1.545  2.2679  0.0042  0.7856
  588MOL0     H77552   8.120   6.987   1.372 -0.3712  0.4745 -0.9555
  588MOL0     H77553   7.973   6.953   1.199  0.0697  0.0826  0.3241
  588MOL0     H77554   8.091   6.806   1.191 -0.0131  0.3570  1.6319
  588MOL0     H77555   7.933   6.777   1.006 -1.2038  0.9756 -0.3380
  588MOL0     H77556   8.082   6.820   0.940 -2.1164 -1.2875 -1.1619
  588MOL0     H77557   8.001   7.048   0.910  0.1820  0.3142 -0.1387
  588MOL0     H77558   7.848   7.013   0.990 -0.5367 -0.8157 -0.1269
  588MOL0     H77559   7.810   7.009   0.761 -0.9677 -0.8190 -0.2194
  588MOL0     H77560   7.934   6.880   0.735 -1.6208  0.0388 -1.6854
  588MOL0     H77561   7.695   6.829   0.888  0.5971  0.6599  1.0335
  588MOL0     H77562   7.833   6.717   0.847 -0.2124 -0.6380 -1.9245
  588MOL0     H77563   7.789   6.751   0.618 -0.3410 -0.6113  0.4146
  588MOL0     H77564   7.657   6.871   0.654 -3.2883 -1.3754  2.4070
  588MOL0     H77565   7.657   6.580   0.705 -0.3790  0.1144  3.5130
  588MOL0     H77566   7.559   6.683   0.784  0.8585  1.8938  0.3936
  588MOL0     H77567   7.433   6.743   0.589  0.3298  0.2008 -2.8233
  588MOL0     H77568   7.466   6.569   0.568  0.0997  0.8437 -1.0049
  588MOL0     H77569   7.763   6.569   0.444  1.1434  1.6952 -0.8412
  588MOL0     H77570   7.735   6.616   0.066 -2.2488  3.1936  1.7709
  588MOL0     H77571   7.862   6.557   0.187  0.6047  0.3472  1.1657
  588MOL0     H77572   7.898   6.804   0.227 -4.2833 -0.4583  1.7105
  588MOL0     H77573   7.822   6.843   0.070  0.1796 -0.4729  0.3390
  588MOL0     H77574   8.016   6.640   0.026 -1.6563 -0.8381  0.1903
  588MOL0     H77575   8.012   6.799  -0.049 -0.4374  1.6863  0.9190
  588MOL0     H77576   8.126   6.860   0.201  0.8523 -1.3768  1.2111
  588MOL0     H77577   8.222   6.822   0.059  2.5467  1.7973  2.3009
  588MOL0     H77578   8.356   6.863   0.262 -0.6616 -0.5595 -0.4612
  588MOL0     H77579   8.590   6.835   0.343  0.3947 -0.1570 -0.4015
  588MOL0     H77580   8.681   6.502   0.667 -1.4169 -1.4382 -1.4609
  588MOL0     H77581   8.859   6.482   0.841 -1.5362  0.7387 -0.4615
  588MOL0     H77582   9.269   6.264   0.848  1.0799 -1.9333 -0.6895
  588MOL0     H77583   9.205   6.188   0.704 -4.0685 -1.5481  0.5631
  588MOL0     H77584   9.139   6.043   0.860 -1.3442 -1.9348 -2.2527
  588MOL0     H77585   8.991   6.143   0.825  0.6070 -1.7831 -0.9120
  588MOL0     H77586   8.997   6.133   1.068 -1.3907 -0.3439 -1.6573
  588MOL0     H77587   9.067   6.290   1.037  2.9910  0.3472  0.3896
  588MOL0     H77588   9.239   6.030   1.062 -1.0681 -0.3480 -0.3928
  588MOL0     H77589   9.294   6.205   1.087 -1.0743  1.4834  2.8532
  588MOL0     H77590   9.134   6.030   1.268 -1.4361  1.1358  2.7004
  588MOL0     H77591   9.118   6.195   1.283 -0.2466 -1.6882  0.9590
  588MOL0     H77592   9.289   6.119   1.425 -1.9314  3.2809 -0.7818
  588MOL0     H77593   9.351   6.228   1.320  1.0228 -0.3041 -0.4851
  588MOL0     H77594   9.362   5.928   1.244 -0.8024  1.2585 -5.4990
  588MOL0     H77595   9.462   6.048   1.181 -1.8904 -3.1043 -1.7359
  588MOL0     H77596   9.564   6.083   1.416  5.1617 -0.4046 -2.3565
  588MOL0     H77597   9.604   5.923   1.351  0.6882 -1.5559  2.7728
  588MOL0     H77598   9.109   6.276   0.552  0.0278 -0.9901 -0.7349
  588MOL0     H77599   8.940   6.320   0.384  2.9486 -1.3671  0.5931
  588MOL0     H77600   8.535   6.409   0.255  0.3473  0.1722  0.0586
  588MOL0     H77601   8.298   6.456   0.178 -1.1649  0.1923  1.0512
  588MOL0     H77602   8.373   7.119   1.057 -0.5934  0.1750 -0.3730
  588MOL0     H77603   8.531   7.205   1.235  1.1638 -2.8636 -0.5601
  588MOL0     H77604   8.559   7.262   1.721  4.0925  0.0618  2.2910
  588MOL0     H77605   8.545   7.375   1.936 -3.4445  0.0295  0.7031
  588MOL0     H77606   8.763   7.579   1.971  1.5822  3.3064 -1.0381
  588MOL0     H77607   8.693   7.539   2.124  2.0405 -0.1239  0.4826
  588MOL0     H77608   8.719   7.814   2.020  0.3990  0.5231 -0.3268
  588MOL0     H77609   8.673   7.760   2.185  5.9626  1.2460  2.6931
  588MOL0     H77610   8.934   7.670   2.060 -1.6451 -0.3720 -0.6492
  588MOL0     H77611   8.878   7.638   2.223  1.8042  0.9803  1.5118
  588MOL0     H77612   8.885   7.842   2.304  2.4307 -4.0554  2.2448
  588MOL0     H77613   9.045   7.809   2.247 -1.7809 -0.2276  2.5768
  588MOL0     H77614   8.936   8.114   1.961  2.9363  2.1538  1.8249
  588MOL0     H77615   8.511   7.752   1.731 -0.0628  0.1260 -3.0065
  588MOL0     H77616   8.489   7.628   1.524 -5.4086 -3.1357 -0.6626
  589MOL0     O77617   6.680   1.628   4.518 -0.1133 -1.0548 -0.1081
  589MOL0     C77618   6.749   1.616   4.620 -0.0131  1.0909  0.4427
  589MOL0     O77619   6.706   1.656   4.744  0.2879  0.1550 -0.8902
  589MOL0     C77620   6.581   1.724   4.761 -0.1030  1.2982 -0.3780
  589MOL0     C77621   6.511   1.668   4.867 -0.2280 -0.0394 -1.1491
  589MOL0     C77622   6.389   1.723   4.892 -0.6566  0.2817 -0.4610
  589MOL0     C77623   6.343   1.843   4.831  0.0095  0.8824  0.4939
  589MOL0     O77624   6.236   1.897   4.896 -0.6342 -0.9926  0.1471
  589MOL0     C77625   6.248   2.044   4.887  0.0528 -0.6414 -0.0578
  589MOL0     C77626   6.126   2.083   4.962 -0.3271  0.0060  0.7380
  589MOL0     C77627   6.143   2.208   5.051 -0.2148 -0.1406  1.4520
  589MOL0     C77628   6.015   2.277   5.102 -0.4161 -0.4825  0.5873
  589MOL0     C77629   5.931   2.339   4.984 -0.2670 -0.3965 -0.8389
  589MOL0     C77630   5.998   2.466   4.918  0.0618 -0.4594 -0.9962
  589MOL0     C77631   5.908   2.541   4.821  0.1280  0.2960  1.3017
  589MOL0     C77632   5.861   2.457   4.708 -0.1767  0.4554  0.3794
  589MOL0     N77633   5.967   2.399   4.624  0.0892  0.4608 -0.6635
  589MOL0     C77634   5.944   2.303   4.523  0.2013 -0.9470 -0.3152
  589MOL0     C77635   6.065   2.259   4.496  1.0048 -0.9850 -0.5984
  589MOL0     C77636   6.089   2.163   4.383 -0.0178  0.0070 -1.2533
  589MOL0     C77637   5.974   2.166   4.277 -1.1773 -0.7421 -0.1261
  589MOL0     C77638   6.011   2.072   4.161  0.7054  0.4451  0.0100
  589MOL0     C77639   5.900   2.053   4.059 -0.0524  0.0989  0.7359
  589MOL0     O77640   5.858   2.179   4.002 -0.2496  0.0220  0.7855
  589MOL0     C77641   5.724   2.198   3.975  0.0466  0.1921  0.6667
  589MOL0     C77642   5.683   2.326   3.928 -0.2079 -0.0741  0.5244
  589MOL0     C77643   5.556   2.354   3.879  0.2564  0.3877 -0.0405
  589MOL0     C77644   5.460   2.252   3.874  0.3475  0.6302 -0.0026
  589MOL0     C77645   5.319   2.281   3.839  0.9790 -0.4400 -0.1463
  589MOL0     O77646   5.292   2.408   3.798 -0.4351 -0.0693  0.2287
  589MOL0     C77647   5.172   2.442   3.756  0.6883  0.6595 -0.5150
  589MOL0     C77648   5.073   2.451   3.849 -0.4888 -0.7695 -0.6277
  589MOL0     C77649   4.942   2.472   3.807 -0.0445 -0.9039 -0.4111
  589MOL0     C77650   4.915   2.506   3.671 -0.2956  0.4869 -0.8368
  589MOL0     O77651   4.794   2.515   3.616  0.2443  0.0328 -0.3598
  589MOL0     C77652   4.712   2.611   3.681  0.2640 -0.3017  0.2533
  589MOL0     C77653   4.597   2.667   3.593 -0.7382  0.4719  0.3957
  589MOL0     C77654   4.496   2.563   3.537 -0.7149 -0.7128 -0.8224
  589MOL0     C77655   4.382   2.624   3.449  0.4732  0.3161 -0.2795
  589MOL0     C77656   4.303   2.744   3.516  0.6282  0.1815  0.1158
  589MOL0     C77657   4.234   2.696   3.641 -0.3861 -0.2566 -1.1486
  589MOL0     C77658   4.155   2.807   3.712  0.0654 -0.4846 -0.0079
  589MOL0     C77659   4.011   2.844   3.669 -1.2485 -0.1541 -0.2634
  589MOL0    Cl77660   4.017   2.944   3.533  0.2220 -0.3223  0.0416
  589MOL0     C77661   5.015   2.512   3.582  0.1099 -0.8832  0.1212
  589MOL0     C77662   5.145   2.484   3.628 -0.4561  0.8467 -0.1955
  589MOL0     O77663   5.233   2.192   3.842  0.6359  0.0206 -0.5724
  589MOL0     C77664   5.501   2.125   3.925 -0.3457 -0.3572  0.3763
  589MOL0     C77665   5.624   2.098   3.973 -0.5540 -0.1230 -1.0838
  589MOL0     N77666   6.160   2.321   4.572  0.2421  0.7257  0.7939
  589MOL0     N77667   6.105   2.425   4.625 -0.1218  0.0960 -0.6533
  589MOL0     C77668   6.421   1.893   4.718 -0.3649  0.0923  1.0716
  589MOL0     C77669   6.540   1.830   4.676  0.4945 -0.3419  0.4739
  589MOL0     C77670   6.886   1.567   4.606  0.1407  0.2922  0.3375
  589MOL0     C77671   6.929   1.518   4.479 -0.3192 -0.2742  0.0730
  589MOL0     C77672   7.065   1.502   4.458 -0.2135  0.0830 -0.3401
  589MOL0     C77673   7.151   1.511   4.561  0.8340 -0.3233  0.5539
  589MOL0     O77674   7.278   1.480   4.535  0.0461  0.0612 -0.0690
  589MOL0     C77675   7.347   1.592   4.482  0.0056 -0.7551  0.6264
  589MOL0     C77676   7.376   1.707   4.592  0.8106  1.0220  0.3811
  589MOL0     C77677   7.445   1.652   4.728  0.7800 -0.4292 -0.4120
  589MOL0     C77678   7.441   1.764   4.841 -0.0664  0.3446  0.8433
  589MOL0     C77679   7.301   1.804   4.869 -0.1774 -0.0424 -0.0736
  589MOL0     C77680   7.191   1.820   4.918  0.7384 -0.3184 -0.4897
  589MOL0     C77681   7.107   1.537   4.693 -1.2711  0.4292  0.2906
  589MOL0     C77682   6.975   1.579   4.712 -0.0766  0.0627  0.2206
  589MOL0     H77683   6.549   1.577   4.913 -3.5355 -2.1855 -2.3310
  589MOL0     H77684   6.324   1.676   4.964 -0.6703  1.3481  0.2516
  589MOL0     H77685   6.232   2.083   4.786  1.5268 -1.3794 -0.5960
  589MOL0     H77686   6.339   2.096   4.917  1.5604 -2.7370 -0.8402
  589MOL0     H77687   6.077   2.003   5.020  0.1844  0.0915  1.3057
  589MOL0     H77688   6.055   2.112   4.885  0.1482  1.2452  0.7519
  589MOL0     H77689   6.210   2.282   5.007 -2.8292  1.1640 -0.5884
  589MOL0     H77690   6.191   2.174   5.144 -0.5185 -1.2238  1.2242
  589MOL0     H77691   5.949   2.204   5.149  0.5932 -1.9090 -0.1268
  589MOL0     H77692   6.036   2.348   5.182  1.3997 -3.3693  2.8946
  589MOL0     H77693   5.837   2.377   5.026  0.7364  0.8413  0.3742
  589MOL0     H77694   5.909   2.254   4.918  0.8652 -0.5169 -1.0746
  589MOL0     H77695   6.084   2.420   4.870 -1.0350  0.5208 -4.1695
  589MOL0     H77696   6.022   2.530   5.003 -1.8817  0.8037 -1.3105
  589MOL0     H77697   5.817   2.567   4.876 -0.0661 -0.7902  1.5240
  589MOL0     H77698   5.952   2.631   4.778  1.6961 -1.0421 -0.0154
  589MOL0     H77699   5.805   2.529   4.648  1.4655  1.0956 -0.4677
  589MOL0     H77700   5.798   2.373   4.735  3.1264 -2.3431  0.1335
  589MOL0     H77701   5.850   2.274   4.477  0.8522 -2.3464 -0.7972
  589MOL0     H77702   6.101   2.063   4.427  2.3701  2.3635  4.4972
  589MOL0     H77703   6.188   2.192   4.346  0.7165  1.3257  1.4402
  589MOL0     H77704   5.961   2.266   4.233 -0.9085 -0.9141 -0.6050
  589MOL0     H77705   5.873   2.144   4.312 -2.1236  2.0778 -0.7667
  589MOL0     H77706   6.103   2.111   4.118 -0.5963 -0.3630 -3.9065
  589MOL0     H77707   6.036   1.972   4.196 -0.4112 -0.6284 -2.1145
  589MOL0     H77708   5.821   1.990   4.100  0.6018 -2.0463 -1.1270
  589MOL0     H77709   5.942   1.997   3.975 -0.0636  2.7881 -1.2030
  589MOL0     H77710   5.766   2.395   3.925  2.5559 -3.0508  2.7009
  589MOL0     H77711   5.541   2.451   3.833  0.8462 -0.0976 -1.3001
  589MOL0     H77712   5.104   2.440   3.953  3.0583  1.5311 -1.2671
  589MOL0     H77713   4.862   2.463   3.879  1.3759 -1.5848  1.1371
  589MOL0     H77714   4.763   2.697   3.724  2.9176 -1.4635 -0.4032
  589MOL0     H77715   4.659   2.562   3.763  1.5924 -2.1363  0.0759
  589MOL0     H77716   4.634   2.714   3.501 -0.8725 -0.2736 -0.0479
  589MOL0     H77717   4.541   2.744   3.647 -1.0563  0.5336 -0.0122
  589MOL0     H77718   4.455   2.510   3.624 -0.9985  1.5865  0.5091
  589MOL0     H77719   4.555   2.503   3.467  2.4265  2.4231 -1.1286
  589MOL0     H77720   4.430   2.670   3.362 -2.3600  1.3123 -1.4206
  589MOL0     H77721   4.317   2.541   3.420  0.3506 -1.2408  3.7675
  589MOL0     H77722   4.227   2.777   3.444  1.2959 -0.1110 -0.7513
  589MOL0     H77723   4.364   2.833   3.533 -1.0460  1.0332  2.1394
  589MOL0     H77724   4.306   2.650   3.709 -2.5696 -2.8666 -0.4249
  589MOL0     H77725   4.164   2.617   3.611  0.3237 -0.4128 -2.4960
  589MOL0     H77726   4.145   2.788   3.819  0.4734  2.0065  0.5459
  589MOL0     H77727   4.213   2.900   3.710 -1.1844  0.3307  0.8086
  589MOL0     H77728   3.952   2.890   3.749 -0.5034  1.5298 -0.6434
  589MOL0     H77729   3.959   2.750   3.649 -1.3844  0.3530 -2.5558
  589MOL0     H77730   5.004   2.540   3.478  1.1372 -0.7346  0.0353
  589MOL0     H77731   5.228   2.475   3.558  0.2671 -3.4345  0.9336
  589MOL0     H77732   5.430   2.044   3.927 -0.6462 -0.1252 -0.3619
  589MOL0     H77733   5.641   1.994   3.997 -1.3141 -0.7478 -3.0986
  589MOL0     H77734   6.388   1.985   4.671 -2.7071 -1.2978 -0.2128
  589MOL0     H77735   6.604   1.871   4.599  1.1419  0.7613  1.5628
  589MOL0     H77736   6.858   1.507   4.398 -1.2491 -2.5470  1.1199
  589MOL0     H77737   7.104   1.483   4.358 -1.9571 -1.8452 -0.7287
  589MOL0     H77738   7.292   1.635   4.398 -1.5257 -2.5861  0.6114
  589MOL0     H77739   7.439   1.550   4.439  0.0815  1.2166 -1.2685
  589MOL0     H77740   7.443   1.786   4.559  1.7604  0.7636  1.5915
  589MOL0     H77741   7.279   1.748   4.624 -0.4474 -1.4084 -0.0168
  589MOL0     H77742   7.547   1.624   4.703  0.3602 -0.9421 -1.6589
  589MOL0     H77743   7.394   1.572   4.782  2.7002  0.1231  2.3925
  589MOL0     H77744   7.495   1.725   4.927 -0.5165 -2.2700  0.0309
  589MOL0     H77745   7.499   1.851   4.807  3.3457 -1.0116  2.7478
  589MOL0     H77746   7.093   1.853   4.947  0.8384  1.0434 -1.5872
  589MOL0     H77747   7.177   1.555   4.773 -0.7265  1.6693 -0.4325
  589MOL0     H77748   6.945   1.609   4.812  1.0207 -1.2690  0.9799
  590MOL0     O77749   3.953  11.414   7.759 -0.1762 -0.0035  0.1843
  590MOL0     C77750   3.983  11.453   7.638  0.3108 -0.2372 -0.8599
  590MOL0     O77751   3.924  11.560   7.573 -0.3412  0.2993  0.4393
  590MOL0     C77752   3.825  11.625   7.643 -0.8141  0.0106  0.7994
  590MOL0     C77753   3.842  11.711   7.751  0.6571 -0.3630  0.5088
  590MOL0     C77754   3.740  11.778   7.814  0.2953 -0.1188  0.6496
  590MOL0     C77755   3.611  11.729   7.783 -0.6291 -1.0442 -0.6248
  590MOL0     O77756   3.519  11.784   7.869  0.3235 -0.6275 -0.2342
  590MOL0     C77757   3.382  11.785   7.812 -0.6691 -0.3673  0.7587
  590MOL0     C77758   3.280  11.866   7.891 -0.7199 -0.1773  0.2680
  590MOL0     C77759   3.209  11.976   7.814 -0.2235 -0.5198 -0.5244
  590MOL0     C77760   3.087  12.015   7.889  0.5500  0.1771 -0.4777
  590MOL0     C77761   3.014  12.133   7.832 -0.8082 -0.4194  0.7001
  590MOL0     C77762   2.918  12.219   7.913  0.6208  0.2253  0.0993
  590MOL0     C77763   2.825  12.134   8.007  0.4407 -0.0416 -0.3118
  590MOL0     C77764   2.735  12.232   8.080 -0.3097 -0.0476 -0.1998
  590MOL0     N77765   2.719  12.180   8.218  0.4635 -0.1192 -0.1263
  590MOL0     C77766   2.668  12.058   8.265 -0.0533 -0.9310  0.0679
  590MOL0     C77767   2.651  12.087   8.394 -0.2248  0.0772 -0.2899
  590MOL0     C77768   2.585  11.998   8.497  0.6116 -1.1500  0.4461
  590MOL0     C77769   2.664  11.898   8.580 -0.2354  0.3039 -0.8688
  590MOL0     C77770   2.749  11.962   8.696 -0.1871  0.2983 -0.2431
  590MOL0     C77771   2.801  11.848   8.783 -0.2256  0.0731  0.3698
  590MOL0     O77772   2.883  11.887   8.894 -0.1422  0.0694  0.0325
  590MOL0     C77773   2.830  11.947   9.005  0.3836  0.3887  0.0752
  590MOL0     C77774   2.919  12.002   9.104 -0.1205  0.1808  0.2270
  590MOL0     C77775   2.868  12.039   9.231 -0.0204 -0.1771  0.0899
  590MOL0     C77776   2.735  12.051   9.251 -0.3213 -0.4724 -1.0484
  590MOL0     C77777   2.672  12.109   9.372 -0.6114 -0.5894  0.4099
  590MOL0     O77778   2.744  12.212   9.424 -0.0400  0.7358  0.1570
  590MOL0     C77779   2.697  12.264   9.537 -0.9152  0.7249  0.0030
  590MOL0     C77780   2.589  12.346   9.537 -0.2222 -0.3236  0.0655
  590MOL0     C77781   2.545  12.412   9.656  0.5047  0.6033  0.5102
  590MOL0     C77782   2.609  12.383   9.778  0.2274  0.4933  0.2006
  590MOL0     O77783   2.549  12.437   9.894 -0.1655  0.4192 -0.4930
  590MOL0     C77784   2.435  12.363   9.955 -0.7691  0.1951  0.3995
  590MOL0     C77785   2.344  12.471  10.013  0.5152 -0.2564 -0.6846
  590MOL0     C77786   2.207  12.424  10.047  0.3111 -1.0441  0.1488
  590MOL0     C77787   2.097  12.533  10.037  0.7225 -0.0061 -0.1240
  590MOL0     C77788   2.114  12.657  10.122  0.2357  0.2804 -0.8321
  590MOL0     C77789   1.982  12.738  10.122  0.7146 -0.2642 -0.2374
  590MOL0     C77790   1.990  12.847  10.230  0.3757 -0.4060  0.1510
  590MOL0     C77791   1.875  12.942  10.215  0.1673  0.2766 -0.0495
  590MOL0    Cl77792   1.864  13.038  10.062 -0.1471 -0.4096  0.1770
  590MOL0     C77793   2.713  12.288   9.781  1.0216 -0.5896  0.0619
  590MOL0     C77794   2.758  12.228   9.663  0.5356 -0.6579  0.9772
  590MOL0     O77795   2.576  12.060   9.410  0.3422  0.0768 -0.1401
  590MOL0     C77796   2.643  12.009   9.156  0.4408  0.6052  1.0364
  590MOL0     C77797   2.689  11.952   9.038 -0.2051  0.3395 -0.1990
  590MOL0     N77798   2.691  12.214   8.424  0.6031 -0.0982 -0.1339
  590MOL0     N77799   2.749  12.262   8.321  0.3385 -0.5394  0.4440
  590MOL0     C77800   3.584  11.625   7.697  0.4667 -0.6538  0.4244
  590MOL0     C77801   3.692  11.582   7.619 -0.1989  0.5730 -0.6052
  590MOL0     C77802   4.098  11.394   7.569 -0.3197 -0.4984 -0.1093
  590MOL0     C77803   4.174  11.298   7.629 -0.1180 -0.3363  0.2525
  590MOL0     C77804   4.275  11.240   7.554 -0.5831  0.3877  0.1555
  590MOL0     C77805   4.313  11.281   7.425 -0.1235 -0.4448 -0.3927
  590MOL0     O77806   4.414  11.222   7.351  0.2971  0.0157 -0.4555
  590MOL0     C77807   4.470  11.099   7.406  0.6314  0.3763 -0.5760
  590MOL0     C77808   4.612  11.078   7.344  1.4269  0.1565 -0.8668
  590MOL0     C77809   4.670  10.939   7.373  0.9680 -0.4684 -0.0439
  590MOL0     C77810   4.574  10.821   7.398 -0.8182  0.0234  0.2653
  590MOL0     C77811   4.484  10.808   7.280  0.1147 -0.1777 -0.2891
  590MOL0     C77812   4.393  10.792   7.199 -0.4401  0.2098 -0.7754
  590MOL0     C77813   4.240  11.390   7.371 -0.0143 -0.0287  0.7250
  590MOL0     C77814   4.139  11.446   7.442 -0.0858 -0.2750 -0.3939
  590MOL0     H77815   3.940  11.749   7.778  1.2015 -0.3321 -1.3798
  590MOL0     H77816   3.749  11.856   7.888 -2.2424 -0.2937  1.2345
  590MOL0     H77817   3.340  11.685   7.806 -2.9439  0.6067 -1.0014
  590MOL0     H77818   3.399  11.827   7.712  0.9773 -3.1008 -0.2212
  590MOL0     H77819   3.342  11.924   7.960 -3.9365  1.0084  2.3934
  590MOL0     H77820   3.218  11.795   7.946 -2.2298  1.1797  0.4015
  590MOL0     H77821   3.177  11.940   7.717 -1.7280 -0.8474  0.0715
  590MOL0     H77822   3.282  12.058   7.807  0.9259 -1.3137  1.1921
  590MOL0     H77823   3.019  11.930   7.891  1.4127 -0.6019 -2.5032
  590MOL0     H77824   3.096  12.040   7.996 -3.4863  0.2916  0.0046
  590MOL0     H77825   2.970  12.099   7.738  0.3317  1.6141 -0.6580
  590MOL0     H77826   3.098  12.201   7.812  0.5053 -0.4107  5.2333
  590MOL0     H77827   2.856  12.277   7.844  0.3197 -2.0323 -1.6350
  590MOL0     H77828   2.982  12.288   7.968  1.3360  0.6012 -1.1632
  590MOL0     H77829   2.753  12.072   7.953 -0.8675  2.0878 -1.1557
  590MOL0     H77830   2.874  12.077   8.086 -4.1959 -2.0961  1.4253
  590MOL0     H77831   2.639  12.232   8.028 -0.0949  1.2010 -0.6124
  590MOL0     H77832   2.759  12.338   8.079 -4.2038  0.9886 -0.5919
  590MOL0     H77833   2.662  11.960   8.221  1.7673 -1.9794  1.9975
  590MOL0     H77834   2.504  11.946   8.445 -0.6376  1.8366 -0.8199
  590MOL0     H77835   2.532  12.072   8.557 -3.2778 -2.1430 -1.4201
  590MOL0     H77836   2.733  11.842   8.515 -0.7504 -0.4589 -0.7747
  590MOL0     H77837   2.599  11.818   8.616  4.1417 -2.5499  1.5688
  590MOL0     H77838   2.825  12.027   8.652  1.2924 -3.2207 -3.4573
  590MOL0     H77839   2.687  12.030   8.755  0.2218  0.4365  0.0360
  590MOL0     H77840   2.867  11.793   8.714  3.1468  2.6660  1.2583
  590MOL0     H77841   2.720  11.782   8.814  0.1319  0.1706  1.5510
  590MOL0     H77842   3.026  12.007   9.092 -0.0571 -0.4251  0.5466
  590MOL0     H77843   2.936  12.070   9.310  0.4786  0.3952 -0.5580
  590MOL0     H77844   2.551  12.366   9.437  2.8654  0.8040 -1.0230
  590MOL0     H77845   2.457  12.476   9.659  0.3926  0.4676  0.1551
  590MOL0     H77846   2.467  12.289  10.028  1.5848  2.5628  1.9804
  590MOL0     H77847   2.379  12.314   9.875 -0.9944  2.3114 -0.8330
  590MOL0     H77848   2.332  12.540   9.929  0.3691  1.1676  0.4621
  590MOL0     H77849   2.395  12.532  10.088  0.6476 -0.1500 -0.8607
  590MOL0     H77850   2.219  12.403  10.153  0.0220 -2.5157 -0.0813
  590MOL0     H77851   2.176  12.340   9.984 -2.1935 -1.4067  1.7187
  590MOL0     H77852   2.081  12.562   9.933  1.7779 -1.8520 -0.8421
  590MOL0     H77853   2.012  12.482  10.082  2.6325 -2.8862  0.5317
  590MOL0     H77854   2.205  12.715  10.106 -0.5625  1.7292 -0.3018
  590MOL0     H77855   2.127  12.622  10.225  1.3098 -3.0802 -1.9879
  590MOL0     H77856   1.899  12.668  10.137  0.8150 -0.9321 -2.5227
  590MOL0     H77857   1.966  12.788  10.026  1.9567  0.9245  0.1394
  590MOL0     H77858   1.983  12.798  10.327  0.5546  0.9974  0.9075
  590MOL0     H77859   2.078  12.911  10.215 -1.2462  1.7942 -0.5612
  590MOL0     H77860   1.898  13.017  10.291 -0.3325  3.7569 -3.0026
  590MOL0     H77861   1.779  12.893  10.233  0.8816 -1.1314  0.0729
  590MOL0     H77862   2.761  12.255   9.873 -1.0777 -1.8397  0.7818
  590MOL0     H77863   2.838  12.155   9.674  3.2305  2.2467  2.2848
  590MOL0     H77864   2.536  12.011   9.172  0.0920 -1.3886 -0.6066
  590MOL0     H77865   2.619  11.926   8.959 -1.9689  1.2153  1.0131
  590MOL0     H77866   3.484  11.588   7.677 -1.0629  3.5041 -0.6305
  590MOL0     H77867   3.680  11.512   7.537  0.5962  0.3336 -0.5295
  590MOL0     H77868   4.156  11.255   7.727 -4.0093  1.0815  0.3387
  590MOL0     H77869   4.323  11.153   7.599  0.3778 -0.2440 -1.9754
  590MOL0     H77870   4.404  11.017   7.378  1.5242 -0.3756 -0.5501
  590MOL0     H77871   4.494  11.096   7.513  3.5598  1.7684 -1.0815
  590MOL0     H77872   4.595  11.093   7.237 -3.7371 -0.9022 -0.4550
  590MOL0     H77873   4.684  11.150   7.382  1.1157 -0.4027  0.8668
  590MOL0     H77874   4.728  10.939   7.466 -0.2844  0.8275  0.7808
  590MOL0     H77875   4.741  10.919   7.292  1.5597 -3.9343  1.1697
  590MOL0     H77876   4.635  10.732   7.416  1.3875  0.8960 -2.3012
  590MOL0     H77877   4.498  10.842   7.474 -3.2849  3.8010 -2.8708
  590MOL0     H77878   4.320  10.785   7.120  1.2406  4.0747 -2.9783
  590MOL0     H77879   4.267  11.422   7.271  3.4084 -1.2474  1.1361
  590MOL0     H77880   4.081  11.517   7.383 -1.5018 -1.2821 -0.2538
  591MOL0     O77881   0.539   0.510   1.768 -0.4480 -0.5066 -0.0373
  591MOL0     C77882   0.608   0.408   1.746  0.2146  0.0986  0.1474
  591MOL0     O77883   0.714   0.404   1.660  0.4859 -0.3984 -0.4579
  591MOL0     C77884   0.756   0.518   1.605 -0.0115 -0.0967 -0.4657
  591MOL0     C77885   0.822   0.613   1.682  0.4909 -0.6632  0.4979
  591MOL0     C77886   0.904   0.716   1.624 -0.8858  0.0357 -0.3351
  591MOL0     C77887   0.909   0.731   1.482  0.3402 -0.3793  0.0293
  591MOL0     O77888   0.990   0.829   1.435  0.1217  0.1660  0.4583
  591MOL0     C77889   0.959   0.869   1.303 -1.3047  0.0363 -0.4537
  591MOL0     C77890   1.046   0.984   1.260  0.0056  0.5117 -0.4408
  591MOL0     C77891   1.197   0.961   1.275  1.1855 -0.5808  1.0636
  591MOL0     C77892   1.284   1.056   1.194 -0.2886 -1.1008 -0.1181
  591MOL0     C77893   1.422   1.008   1.162 -0.3868 -0.1765  0.1366
  591MOL0     C77894   1.492   1.106   1.067  0.4408 -0.0006 -0.5392
  591MOL0     C77895   1.619   1.048   1.028  0.8736 -0.3256 -0.6719
  591MOL0     C77896   1.682   1.146   0.932  1.0649 -0.8112  0.4116
  591MOL0     N77897   1.805   1.103   0.876  0.0932  0.7827 -0.2196
  591MOL0     C77898   1.838   1.084   0.737 -0.2695 -0.7586 -1.0911
  591MOL0     C77899   1.962   1.041   0.727  0.1629 -0.3573 -0.0290
  591MOL0     C77900   2.024   1.013   0.595 -0.3760 -0.0292  0.5995
  591MOL0     C77901   2.097   0.886   0.608  0.3587 -0.6858  0.4534
  591MOL0     C77902   2.121   0.823   0.471 -0.6301  0.2043  0.7227
  591MOL0     C77903   2.192   0.900   0.357 -0.8717 -0.5521 -0.6926
  591MOL0     O77904   2.320   0.959   0.398  0.0017  0.4597  0.6310
  591MOL0     C77905   2.435   0.890   0.417 -0.3114  1.7482  0.3128
  591MOL0     C77906   2.448   0.746   0.412  0.0080  0.7706 -0.4568
  591MOL0     C77907   2.568   0.682   0.445  0.2327  0.0171 -0.3024
  591MOL0     C77908   2.676   0.762   0.496 -0.3569  0.0183  0.5503
  591MOL0     C77909   2.801   0.691   0.538 -0.1023  0.5099 -1.0047
  591MOL0     O77910   2.783   0.549   0.567 -0.2628 -0.4016  0.2977
  591MOL0     C77911   2.899   0.476   0.595 -0.2089  0.5424  0.2235
  591MOL0     C77912   2.918   0.361   0.522 -0.4835  0.0226 -0.4444
  591MOL0     C77913   3.050   0.297   0.536  0.5154 -0.5401  0.6380
  591MOL0     C77914   3.138   0.333   0.637  0.4724 -0.4074  0.0489
  591MOL0     O77915   3.251   0.258   0.637  0.3126 -0.1874  0.3262
  591MOL0     C77916   3.324   0.251   0.761  0.2840 -0.2463  0.1092
  591MOL0     C77917   3.433   0.145   0.754  0.1602 -0.0865  0.3770
  591MOL0     C77918   3.502   0.124   0.885  0.1101  0.1681  0.7315
  591MOL0     C77919   3.618   0.019   0.872  0.4861 -0.3419  0.1542
  591MOL0     C77920   3.717   0.041   0.990  0.4903 -0.9182  0.4811
  591MOL0     C77921   3.856  -0.026   0.985 -0.1879  0.4846 -0.1324
  591MOL0     C77922   3.963   0.034   0.892  0.0199 -0.2252  0.9052
  591MOL0     C77923   4.103  -0.018   0.914 -0.4674 -0.3685 -0.1355
  591MOL0    Cl77924   4.162   0.028   1.086  0.1900  0.0552 -0.2104
  591MOL0     C77925   3.110   0.441   0.717  0.4443 -0.3600 -0.1442
  591MOL0     C77926   2.985   0.517   0.693 -0.7743  0.2023 -0.4937
  591MOL0     O77927   2.904   0.754   0.557  0.2043 -0.5355  1.1633
  591MOL0     C77928   2.669   0.902   0.476  0.0703  0.4032  1.4700
  591MOL0     C77929   2.552   0.963   0.435  0.6213  0.8749  0.0780
  591MOL0     N77930   2.019   1.035   0.854 -0.5030 -0.4040 -0.1171
  591MOL0     N77931   1.921   1.054   0.941 -0.2527 -0.3304  0.7539
  591MOL0     C77932   0.842   0.628   1.408  0.2689  0.0039  0.7481
  591MOL0     C77933   0.777   0.522   1.469  0.0986 -0.6257 -0.9706
  591MOL0     C77934   0.564   0.279   1.810 -0.4714  0.0591 -0.2400
  591MOL0     C77935   0.655   0.173   1.819 -0.9405  0.0974  0.2163
  591MOL0     C77936   0.606   0.053   1.874  0.2785 -0.5534  0.5952
  591MOL0     C77937   0.474   0.038   1.917  0.2472 -0.4505  0.5129
  591MOL0     O77938   0.434  -0.079   1.962 -0.3469 -0.6161 -0.9544
  591MOL0     C77939   0.309  -0.090   2.026  0.0828 -0.3021  0.0506
  591MOL0     C77940   0.302  -0.219   2.114  0.3925 -0.4854 -0.0556
  591MOL0     C77941   0.342  -0.338   2.021  0.8322 -0.4795 -0.1003
  591MOL0     C77942   0.331  -0.472   2.097  0.0918 -0.5207 -0.5925
  591MOL0     C77943   0.187  -0.515   2.101  0.6097  0.1372 -0.7309
  591MOL0     C77944   0.063  -0.529   2.087  0.4606  0.3881 -0.2107
  591MOL0     C77945   0.382   0.146   1.904 -0.6411  0.1868 -1.0506
  591MOL0     C77946   0.427   0.270   1.856 -0.0725  0.0264  0.0675
  591MOL0     H77947   0.810   0.614   1.790  0.7003  1.2064  0.5209
  591MOL0     H77948   0.950   0.786   1.693  3.7222 -0.2490 -2.7362
  591MOL0     H77949   0.851   0.888   1.299 -1.2887  0.3930  0.6169
  591MOL0     H77950   0.988   0.784   1.240 -0.1823 -0.6543  0.9576
  591MOL0     H77951   1.018   1.079   1.306 -0.3263 -0.9130  2.5252
  591MOL0     H77952   1.035   0.998   1.152  1.4628 -0.2983 -0.7279
  591MOL0     H77953   1.220   0.862   1.236 -1.5164  0.1588 -3.1041
  591MOL0     H77954   1.230   0.964   1.379  0.9606 -0.1179  1.1246
  591MOL0     H77955   1.243   1.095   1.100  3.8201  0.9788 -1.3082
  591MOL0     H77956   1.307   1.146   1.251 -0.7546 -0.1060 -1.4379
  591MOL0     H77957   1.410   0.911   1.111 -0.0519  0.5211 -1.3300
  591MOL0     H77958   1.468   1.006   1.261 -1.5434  5.4324  1.1003
  591MOL0     H77959   1.517   1.197   1.122 -1.3122  1.2056 -1.6598
  591MOL0     H77960   1.426   1.122   0.981 -0.0801 -0.9136 -0.3252
  591MOL0     H77961   1.687   1.036   1.113  0.0013  2.9225  0.6409
  591MOL0     H77962   1.601   0.949   0.985  1.9607 -0.7380 -0.2205
  591MOL0     H77963   1.683   1.243   0.982 -0.2875 -0.3517 -0.4036
  591MOL0     H77964   1.612   1.159   0.849 -1.2479  1.1624  2.5166
  591MOL0     H77965   1.775   1.113   0.653  1.1194  2.8956 -1.0474
  591MOL0     H77966   2.093   1.092   0.562 -2.8008  2.2725  0.7281
  591MOL0     H77967   1.943   1.003   0.523 -0.2541 -1.1080  0.5996
  591MOL0     H77968   2.050   0.812   0.674 -1.0839  0.3768  0.6536
  591MOL0     H77969   2.193   0.905   0.658  0.3036  1.0347 -0.0341
  591MOL0     H77970   2.164   0.725   0.494 -0.9747 -0.2827 -0.5689
  591MOL0     H77971   2.026   0.794   0.424  0.3105  1.0125 -1.8446
  591MOL0     H77972   2.130   0.983   0.324  1.6235  0.8085 -2.2636
  591MOL0     H77973   2.217   0.841   0.268  0.3709 -0.6005 -0.3391
  591MOL0     H77974   2.363   0.679   0.400  0.8171 -0.5347  0.8076
  591MOL0     H77975   2.581   0.574   0.436  2.1411  0.0750  1.0104
  591MOL0     H77976   2.853   0.336   0.439 -1.2872  1.3089 -0.2137
  591MOL0     H77977   3.073   0.205   0.483 -1.0338 -0.1729 -0.7440
  591MOL0     H77978   3.248   0.230   0.837 -1.0975 -1.2418 -1.4761
  591MOL0     H77979   3.364   0.350   0.787 -1.4811  0.4063  0.4920
  591MOL0     H77980   3.502   0.177   0.676  0.6592  0.3802  1.0018
  591MOL0     H77981   3.388   0.050   0.723 -0.0295  0.5364 -1.3411
  591MOL0     H77982   3.429   0.094   0.960 -2.4309  4.2134  0.2107
  591MOL0     H77983   3.545   0.217   0.924 -2.6359  2.4722 -1.2543
  591MOL0     H77984   3.574  -0.081   0.864 -3.2322  1.1031  0.3049
  591MOL0     H77985   3.671   0.037   0.778  3.7208  1.9810  2.2244
  591MOL0     H77986   3.665   0.027   1.086 -0.3813 -1.9300 -0.1160
  591MOL0     H77987   3.730   0.147   0.968 -2.4155 -0.8272 -1.2936
  591MOL0     H77988   3.839  -0.128   0.949 -1.2844  0.7653 -0.4325
  591MOL0     H77989   3.889  -0.024   1.089 -0.5737  2.9083  0.0149
  591MOL0     H77990   3.941   0.017   0.786  3.7036 -1.4700  0.1960
  591MOL0     H77991   3.973   0.143   0.905 -0.3593 -0.2144  1.1302
  591MOL0     H77992   4.171   0.016   0.835  0.4466 -0.2815  0.6723
  591MOL0     H77993   4.091  -0.127   0.907 -1.0357 -0.7121  3.9875
  591MOL0     H77994   3.194   0.480   0.773 -0.0678  1.1479 -0.3962
  591MOL0     H77995   2.965   0.613   0.740 -0.1349  2.1250 -3.7942
  591MOL0     H77996   2.750   0.968   0.506 -0.6917  2.3547 -0.4994
  591MOL0     H77997   2.535   1.070   0.428 -0.7950  0.5774 -1.6711
  591MOL0     H77998   0.843   0.636   1.300  1.9848  1.5821  0.8214
  591MOL0     H77999   0.749   0.440   1.403 -3.9752  0.6277 -1.0867
  591MOL0     H78000   0.758   0.179   1.786 -0.6128  3.2758  1.4846
  591MOL0     H78001   0.673  -0.032   1.885 -1.3541 -1.8801  0.6671
  591MOL0     H78002   0.225  -0.076   1.958 -2.2284  0.4316  2.8933
  591MOL0     H78003   0.300  -0.013   2.103 -1.1409  1.4862 -1.7901
  591MOL0     H78004   0.376  -0.221   2.195  0.8982  3.0949 -0.2653
  591MOL0     H78005   0.200  -0.233   2.150  0.6970 -4.1246 -0.3013
  591MOL0     H78006   0.440  -0.334   1.973 -0.7710 -2.1459 -3.9663
  591MOL0     H78007   0.277  -0.348   1.933 -2.0065 -2.4151  2.0279
  591MOL0     H78008   0.397  -0.538   2.039  1.4390 -0.0054  0.3049
  591MOL0     H78009   0.376  -0.459   2.196 -0.2622 -1.9486 -0.2053
  591MOL0     H78010  -0.042  -0.522   2.068  0.9598  3.3213 -2.6547
  591MOL0     H78011   0.277   0.145   1.934 -0.5428 -0.0769 -0.7128
  591MOL0     H78012   0.357   0.348   1.829  0.3903 -0.0374 -1.4338
  592MOL0     O78013  11.360   7.693   6.749 -0.2730  0.8222  0.3631
  592MOL0     C78014  11.331   7.696   6.865 -0.1852  0.0632 -0.2362
  592MOL0     O78015  11.216   7.741   6.921 -0.9470 -0.5941  0.3182
  592MOL0     C78016  11.110   7.791   6.848  0.0699  0.9825 -0.3057
  592MOL0     C78017  11.017   7.857   6.932  0.1186 -0.0275 -0.0693
  592MOL0     C78018  10.901   7.919   6.886 -0.7150 -0.3526  1.3475
  592MOL0     C78019  10.876   7.918   6.741 -0.8094  0.2175 -1.5260
  592MOL0     O78020  10.796   8.003   6.674 -1.0789  0.3494 -0.0729
  592MOL0     C78021  10.704   8.099   6.721  0.0436  0.1378  0.6840
  592MOL0     C78022  10.709   8.224   6.640  0.0269 -0.7931 -0.7233
  592MOL0     C78023  10.686   8.185   6.486  0.2086 -0.2411 -0.9161
  592MOL0     C78024  10.662   8.300   6.403 -0.0216 -0.3031  0.6754
  592MOL0     C78025  10.751   8.423   6.413 -0.0818  0.3150 -0.3114
  592MOL0     C78026  10.736   8.504   6.282  0.0173  0.1603  0.4468
  592MOL0     C78027  10.803   8.643   6.292 -1.0114  0.2537 -0.3592
  592MOL0     C78028  10.952   8.636   6.259 -0.1849 -0.8215  0.6715
  592MOL0     N78029  10.975   8.591   6.121 -0.6785 -0.4726  1.0600
  592MOL0     C78030  11.008   8.685   6.016 -0.5818 -0.2644  0.4956
  592MOL0     C78031  11.063   8.607   5.918  0.3626 -0.3992  1.0916
  592MOL0     C78032  11.116   8.645   5.777 -0.0737 -0.9675  0.0167
  592MOL0     C78033  11.230   8.547   5.730 -0.0110 -0.4256 -0.2802
  592MOL0     C78034  11.263   8.586   5.583  0.3496 -0.6512 -0.1238
  592MOL0     C78035  11.400   8.547   5.546 -1.0889  0.0467 -0.1170
  592MOL0     O78036  11.448   8.620   5.430 -0.1655  0.7577 -0.6488
  592MOL0     C78037  11.585   8.593   5.394 -0.4292 -0.3636 -0.2976
  592MOL0     C78038  11.685   8.613   5.493 -0.3721 -0.4912  0.4446
  592MOL0     C78039  11.813   8.602   5.455 -0.6273 -0.4009  0.5913
  592MOL0     C78040  11.850   8.587   5.319  0.5672 -0.1982 -0.0237
  592MOL0     C78041  11.988   8.560   5.264 -0.0627  0.4660 -0.1397
  592MOL0     O78042  12.065   8.493   5.346 -0.3525  0.3607 -0.5123
  592MOL0     C78043  12.200   8.495   5.322 -0.6343 -0.3270 -0.8391
  592MOL0     C78044  12.267   8.382   5.304 -0.1650 -0.1649  0.2840
  592MOL0     C78045  12.409   8.385   5.290  0.1614  0.2412  0.6117
  592MOL0     C78046  12.488   8.493   5.280  0.6182  0.0045  0.4923
  592MOL0     O78047  12.623   8.498   5.269  0.3680 -1.2413  0.7882
  592MOL0     C78048  12.696   8.387   5.232  0.2712  0.6604 -0.4421
  592MOL0     C78049  12.835   8.422   5.217 -0.8479  0.6775 -0.4718
  592MOL0     C78050  12.850   8.531   5.117 -0.0094 -0.2087  0.4839
  592MOL0     C78051  12.997   8.569   5.087 -0.1613 -0.3507  0.3914
  592MOL0     C78052  13.049   8.670   5.180  0.4906  1.0072  0.5657
  592MOL0     C78053  13.183   8.725   5.138 -0.3357 -0.1864  0.2262
  592MOL0     C78054  13.290   8.618   5.126 -0.1840 -1.2835 -0.7519
  592MOL0     C78055  13.428   8.674   5.118 -0.3669  0.3376  0.6477
  592MOL0    Cl78056  13.429   8.850   5.083 -0.0656 -0.2354  0.2863
  592MOL0     C78057  12.419   8.610   5.312 -1.2829 -0.0792 -0.5294
  592MOL0     C78058  12.279   8.614   5.332 -0.3866 -1.0353  0.1329
  592MOL0     O78059  12.015   8.591   5.149  0.2969 -0.1342 -0.5005
  592MOL0     C78060  11.754   8.574   5.224  0.6983  0.3891  0.8994
  592MOL0     C78061  11.619   8.588   5.261  1.1636  0.2110  0.1065
  592MOL0     N78062  11.068   8.473   5.965 -0.3778 -0.2124  0.6192
  592MOL0     N78063  11.014   8.468   6.080  0.7044 -0.2035  0.6157
  592MOL0     C78064  10.957   7.834   6.670  0.8177  0.2777 -0.1664
  592MOL0     C78065  11.082   7.775   6.713  0.4670  0.2966 -0.6328
  592MOL0     C78066  11.433   7.658   6.959 -0.8062  0.1771  0.3713
  592MOL0     C78067  11.569   7.645   6.913  0.1251  0.4945 -0.1164
  592MOL0     C78068  11.675   7.621   7.004 -0.9270  0.0389 -1.1110
  592MOL0     C78069  11.649   7.622   7.146  0.0953 -0.5544  0.2875
  592MOL0     O78070  11.740   7.616   7.246 -0.2198 -0.3307  0.0254
  592MOL0     C78071  11.885   7.606   7.214 -0.0093  0.5009 -0.0311
  592MOL0     C78072  11.945   7.461   7.212  0.0838 -0.7964  0.3873
  592MOL0     C78073  12.095   7.462   7.197 -0.6672 -0.6726 -0.2753
  592MOL0     C78074  12.139   7.318   7.217  0.7316  0.1620  0.2197
  592MOL0     C78075  12.112   7.266   7.357 -0.6927  0.8217  0.7238
  592MOL0     C78076  12.095   7.228   7.468 -0.1261 -0.2369 -0.7406
  592MOL0     C78077  11.510   7.632   7.189 -0.8412  0.4530 -0.5049
  592MOL0     C78078  11.406   7.641   7.097 -0.3366 -0.5746  0.2763
  592MOL0     H78079  11.048   7.849   7.036 -1.3225 -1.8055  0.2897
  592MOL0     H78080  10.847   7.981   6.957  0.3085  1.0248  0.9583
  592MOL0     H78081  10.726   8.125   6.825 -0.2944 -1.9751  1.3291
  592MOL0     H78082  10.602   8.058   6.719  1.3428 -3.5263  2.1430
  592MOL0     H78083  10.806   8.272   6.652 -0.3387  0.0515 -1.0060
  592MOL0     H78084  10.638   8.299   6.678  3.4811  1.5913  1.6056
  592MOL0     H78085  10.599   8.121   6.502  2.0509 -2.5653  0.5063
  592MOL0     H78086  10.765   8.120   6.447  2.6300  0.3758  2.4625
  592MOL0     H78087  10.695   8.265   6.305  3.9043 -2.5623  2.5493
  592MOL0     H78088  10.555   8.320   6.411 -0.0937 -0.2804 -0.2672
  592MOL0     H78089  10.848   8.374   6.411 -1.3368 -2.4037 -0.0353
  592MOL0     H78090  10.740   8.490   6.499  1.1948 -2.0413  1.8123
  592MOL0     H78091  10.631   8.512   6.251  0.6937  0.5076 -1.9892
  592MOL0     H78092  10.756   8.449   6.189 -4.8786 -0.2556 -0.6588
  592MOL0     H78093  10.749   8.719   6.235  0.8808  2.3036  0.4115
  592MOL0     H78094  10.793   8.672   6.397 -0.4203 -2.8545  0.6619
  592MOL0     H78095  11.002   8.572   6.332 -1.5095  0.3103  2.6483
  592MOL0     H78096  10.990   8.737   6.269 -1.5300 -0.4235  2.1677
  592MOL0     H78097  10.970   8.786   6.010  1.3289  0.5163  0.6473
  592MOL0     H78098  11.149   8.748   5.770  0.0126 -0.8772  1.4102
  592MOL0     H78099  11.029   8.633   5.711 -0.1092 -1.9938  0.2293
  592MOL0     H78100  11.189   8.446   5.739 -0.8884  0.0354  1.2475
  592MOL0     H78101  11.318   8.535   5.793 -0.2973 -3.5760 -0.3169
  592MOL0     H78102  11.191   8.533   5.519 -2.3286  0.1435  2.0442
  592MOL0     H78103  11.255   8.693   5.561 -1.1210 -0.9322 -1.1698
  592MOL0     H78104  11.403   8.439   5.532  1.8628  0.0549 -0.2307
  592MOL0     H78105  11.455   8.579   5.635  1.3932  1.5915 -2.0434
  592MOL0     H78106  11.661   8.628   5.598 -0.8804 -1.3796  0.4649
  592MOL0     H78107  11.891   8.606   5.530  1.8015 -1.1062 -1.7453
  592MOL0     H78108  12.213   8.288   5.291 -0.1576 -0.4435  2.0450
  592MOL0     H78109  12.451   8.286   5.276  0.1761  0.1498  1.3107
  592MOL0     H78110  12.661   8.333   5.144  4.1572 -1.8156 -0.7273
  592MOL0     H78111  12.696   8.327   5.324 -2.3811  1.6285  0.2768
  592MOL0     H78112  12.887   8.330   5.187 -2.4333  0.0178 -1.2957
  592MOL0     H78113  12.889   8.459   5.305  1.7469 -0.8906 -1.2972
  592MOL0     H78114  12.798   8.624   5.144  3.4909  2.1196 -0.0795
  592MOL0     H78115  12.801   8.496   5.026  1.9838  0.4851 -0.9271
  592MOL0     H78116  13.060   8.482   5.064 -0.2789 -0.4322  0.3744
  592MOL0     H78117  12.996   8.624   4.993 -0.2008 -2.8503 -1.1761
  592MOL0     H78118  13.071   8.620   5.275  1.1235  1.3936  0.6311
  592MOL0     H78119  12.980   8.752   5.201 -1.3995 -0.1868 -0.6739
  592MOL0     H78120  13.215   8.794   5.216  1.3365  0.0480 -0.6333
  592MOL0     H78121  13.173   8.777   5.042 -3.5474 -1.2154 -0.1418
  592MOL0     H78122  13.285   8.538   5.201 -1.5590 -0.5546 -0.0129
  592MOL0     H78123  13.270   8.569   5.031 -2.8778 -0.0000 -0.9445
  592MOL0     H78124  13.484   8.605   5.055 -3.0613  0.2211 -1.8259
  592MOL0     H78125  13.474   8.654   5.215 -2.5695 -3.7420  1.0436
  592MOL0     H78126  12.473   8.704   5.310  0.6444 -1.0736  1.4788
  592MOL0     H78127  12.226   8.707   5.349 -0.8937 -1.3659  0.3683
  592MOL0     H78128  11.786   8.562   5.121  1.7768 -0.6266  1.3406
  592MOL0     H78129  11.544   8.590   5.182  0.9989  3.1519  0.2199
  592MOL0     H78130  10.940   7.830   6.562  1.4212  0.8732 -0.2890
  592MOL0     H78131  11.159   7.733   6.650  3.6439  3.6522  0.6184
  592MOL0     H78132  11.587   7.646   6.806  0.5533  1.3374 -0.0486
  592MOL0     H78133  11.776   7.590   6.980 -0.5537 -4.0479  3.9016
  592MOL0     H78134  11.935   7.653   7.300 -0.8894  1.5362 -0.0800
  592MOL0     H78135  11.916   7.659   7.123 -3.0655 -0.0096 -1.4839
  592MOL0     H78136  11.905   7.413   7.302  1.6141  0.4248  1.8004
  592MOL0     H78137  11.917   7.420   7.115 -2.0691  1.9056 -0.2642
  592MOL0     H78138  12.146   7.524   7.271  1.7435 -1.5814 -1.0863
  592MOL0     H78139  12.136   7.495   7.101  1.7032 -0.1420  0.8489
  592MOL0     H78140  12.082   7.263   7.141 -0.0471  2.6576 -1.1509
  592MOL0     H78141  12.246   7.299   7.208  0.8759  0.1163  1.8806
  592MOL0     H78142  12.071   7.200   7.569 -1.7067  0.0607 -1.0078
  592MOL0     H78143  11.480   7.618   7.292 -1.6174  1.0797 -0.6386
  592MOL0     H78144  11.302   7.633   7.129 -0.7571 -1.7762 -1.2216
  593MOL0     O78145  10.421   5.091   3.097 -0.2410  0.2235  0.1494
  593MOL0     C78146  10.483   5.017   3.177  0.4889  0.1259  0.8431
  593MOL0     O78147  10.428   4.928   3.270  0.4527 -0.7212 -0.1123
  593MOL0     C78148  10.306   4.870   3.274  0.3750  0.8349  0.4681
  593MOL0     C78149  10.202   4.903   3.187 -0.0442  0.3048  0.5298
  593MOL0     C78150  10.070   4.855   3.201  0.2951 -0.0718  0.4651
  593MOL0     C78151  10.043   4.761   3.294  0.3210 -0.6308  0.1519
  593MOL0     O78152   9.937   4.684   3.308 -0.0036 -0.9824 -0.2955
  593MOL0     C78153   9.820   4.713   3.231 -0.4304  0.0534 -0.3376
  593MOL0     C78154   9.760   4.845   3.288 -0.1273  0.8095  0.0906
  593MOL0     C78155   9.605   4.840   3.264  0.3822 -0.3474  0.7991
  593MOL0     C78156   9.556   4.895   3.121  0.3806  0.1865 -0.5157
  593MOL0     C78157   9.397   4.905   3.108  0.1107  0.5203  0.2026
  593MOL0     C78158   9.343   4.760   3.094  1.0268 -0.5440 -0.3559
  593MOL0     C78159   9.187   4.756   3.086  0.0431 -0.8217 -0.3827
  593MOL0     C78160   9.149   4.612   3.088  0.0732 -0.6022 -0.2402
  593MOL0     N78161   9.005   4.596   3.074  0.1701 -0.4737  0.9416
  593MOL0     C78162   8.895   4.674   3.119  0.1165  0.2981 -0.1105
  593MOL0     C78163   8.783   4.626   3.062 -0.1664  0.5701  0.3436
  593MOL0     C78164   8.655   4.707   3.068 -0.1228  0.3160  0.0512
  593MOL0     C78165   8.531   4.648   3.002  0.2007 -0.2483 -1.1163
  593MOL0     C78166   8.454   4.550   3.091 -0.7309 -0.3441 -0.2044
  593MOL0     C78167   8.307   4.535   3.059 -0.2249 -0.4148 -0.0740
  593MOL0     O78168   8.251   4.666   3.062 -0.4501 -0.0068 -0.7501
  593MOL0     C78169   8.163   4.665   2.956 -0.3975 -1.0133  0.2758
  593MOL0     C78170   8.027   4.632   2.978  0.1015  0.0042 -1.3200
  593MOL0     C78171   7.938   4.631   2.868 -0.0053  0.6641  0.7473
  593MOL0     C78172   7.988   4.666   2.743  0.7431 -1.0876  0.8155
  593MOL0     C78173   7.913   4.665   2.620  0.5741  0.5546 -0.1941
  593MOL0     O78174   7.776   4.658   2.641 -0.1109  0.1061 -0.5304
  593MOL0     C78175   7.708   4.699   2.533  0.1236 -0.5107  0.5594
  593MOL0     C78176   7.692   4.830   2.511  0.0738 -0.1822  0.5829
  593MOL0     C78177   7.615   4.879   2.407 -1.1634 -0.1111 -0.8483
  593MOL0     C78178   7.546   4.795   2.327 -0.8645  0.1866 -0.6172
  593MOL0     O78179   7.467   4.861   2.235 -0.2476  0.5776  0.0389
  593MOL0     C78180   7.430   4.807   2.105  0.5099 -0.7701  0.0136
  593MOL0     C78181   7.539   4.808   2.012 -0.5951  0.4171  0.9394
  593MOL0     C78182   7.594   4.958   1.998 -0.2349  0.6065  0.2800
  593MOL0     C78183   7.715   4.974   1.903  0.4554  0.5374 -0.3782
  593MOL0     C78184   7.734   5.116   1.862  0.5016  0.5237  0.4046
  593MOL0     C78185   7.841   5.133   1.748  0.7589  0.3424 -0.3291
  593MOL0     C78186   7.854   5.282   1.718  0.1654 -0.6654  0.1677
  593MOL0     C78187   7.932   5.294   1.579  0.5852 -0.5127 -0.3523
  593MOL0    Cl78188   8.096   5.214   1.577 -0.4458  0.0177  0.4095
  593MOL0     C78189   7.551   4.658   2.356  0.4783  0.4067 -0.0466
  593MOL0     C78190   7.630   4.607   2.460  0.3172  0.6867  1.3541
  593MOL0     O78191   7.967   4.668   2.511 -0.3745  0.8610  0.9745
  593MOL0     C78192   8.121   4.712   2.726  1.0170  0.0302 -0.5928
  593MOL0     C78193   8.205   4.718   2.836  0.7031  0.2885 -0.0421
  593MOL0     N78194   8.815   4.519   2.974 -0.1145  0.1535 -0.8329
  593MOL0     N78195   8.949   4.494   2.994 -0.1219 -0.2271 -0.2164
  593MOL0     C78196  10.148   4.723   3.375  0.1673  0.4452  0.1205
  593MOL0     C78197  10.273   4.783   3.377 -0.6982  0.3335 -0.4720
  593MOL0     C78198  10.632   5.028   3.182  1.1646 -0.2908  0.7039
  593MOL0     C78199  10.727   4.936   3.224  0.2366 -0.7884 -0.7791
  593MOL0     C78200  10.872   4.949   3.230 -0.2828 -0.4224  0.9361
  593MOL0     C78201  10.927   5.076   3.184  0.4963 -0.6337  0.3292
  593MOL0     O78202  11.064   5.096   3.180 -0.0602 -0.0267 -0.8984
  593MOL0     C78203  11.108   5.224   3.145 -0.4384  0.0606 -0.4116
  593MOL0     C78204  11.255   5.230   3.156  0.3066  0.9302  0.2915
  593MOL0     C78205  11.323   5.175   3.032 -0.3767 -0.5170 -0.1984
  593MOL0     C78206  11.465   5.230   3.001 -0.5907  0.7162  0.2397
  593MOL0     C78207  11.558   5.206   3.106  0.0961 -0.3257  0.0590
  593MOL0     C78208  11.643   5.204   3.197 -0.5235  0.1646 -0.2547
  593MOL0     C78209  10.831   5.173   3.137 -0.2971  0.7306 -0.7650
  593MOL0     C78210  10.696   5.142   3.132  0.6568 -1.1808  0.0877
  593MOL0     H78211  10.217   4.973   3.106  1.1463 -0.1433  0.3372
  593MOL0     H78212   9.993   4.887   3.132  0.8240 -0.9312 -0.5527
  593MOL0     H78213   9.740   4.638   3.235 -1.1465  0.8038 -0.1498
  593MOL0     H78214   9.849   4.719   3.126 -1.0089  0.9254 -0.4540
  593MOL0     H78215   9.803   4.934   3.242  0.7177 -1.4382 -4.0152
  593MOL0     H78216   9.774   4.833   3.396  0.8775 -1.7087 -0.2441
  593MOL0     H78217   9.556   4.901   3.341  1.4976 -0.9788  2.0608
  593MOL0     H78218   9.566   4.739   3.272  1.7235 -0.8470  1.2983
  593MOL0     H78219   9.581   5.001   3.106  0.3957 -0.0047 -1.9358
  593MOL0     H78220   9.598   4.844   3.034  1.8653  2.3521 -1.1664
  593MOL0     H78221   9.355   4.971   3.032  0.0114  0.5861  0.3132
  593MOL0     H78222   9.356   4.941   3.203 -2.7292  3.0121 -1.7600
  593MOL0     H78223   9.378   4.694   3.174 -0.0245 -3.7670 -2.3618
  593MOL0     H78224   9.390   4.722   3.003  1.7115  2.7256 -1.5108
  593MOL0     H78225   9.131   4.817   3.158 -0.2303  0.0843 -1.3454
  593MOL0     H78226   9.164   4.813   2.996 -2.4658  0.2813  0.8637
  593MOL0     H78227   9.197   4.562   3.172  0.7518 -2.0791 -1.4574
  593MOL0     H78228   9.188   4.560   3.000  0.3616  1.5902 -1.4718
  593MOL0     H78229   8.901   4.769   3.172  3.1975 -0.4607  1.1234
  593MOL0     H78230   8.681   4.797   3.011  1.8690  0.4666  1.1446
  593MOL0     H78231   8.644   4.756   3.165 -1.6542 -4.8547  2.8877
  593MOL0     H78232   8.553   4.590   2.912 -2.1271 -2.2647 -0.5011
  593MOL0     H78233   8.460   4.728   2.978 -2.5787 -1.7730  1.3292
  593MOL0     H78234   8.506   4.454   3.096 -1.4128 -0.6691  1.1955
  593MOL0     H78235   8.445   4.597   3.190  2.4273  0.9071 -0.3763
  593MOL0     H78236   8.272   4.472   3.142  1.2028  0.8220  1.5340
  593MOL0     H78237   8.290   4.471   2.972  1.4058 -3.4332  1.6137
  593MOL0     H78238   8.002   4.591   3.076 -2.6132  4.7126  0.2731
  593MOL0     H78239   7.846   4.574   2.875 -0.4078  0.8212 -2.1617
  593MOL0     H78240   7.762   4.897   2.560 -0.5533  1.4745 -0.6696
  593MOL0     H78241   7.598   4.985   2.388  0.6974  0.1679 -1.1656
  593MOL0     H78242   7.359   4.878   2.061 -2.0470 -3.2268 -0.0487
  593MOL0     H78243   7.373   4.714   2.107 -1.4209  0.2389  4.5767
  593MOL0     H78244   7.504   4.773   1.914  0.3532 -2.2127  1.4304
  593MOL0     H78245   7.624   4.742   2.033  0.7892  0.7956 -2.6555
  593MOL0     H78246   7.618   4.994   2.098  0.9209 -1.3587  0.7580
  593MOL0     H78247   7.513   5.021   1.959 -0.8265 -0.3250 -0.0155
  593MOL0     H78248   7.803   4.955   1.966  0.2281  2.6706  0.6760
  593MOL0     H78249   7.713   4.906   1.817 -1.5596  0.5291 -0.3642
  593MOL0     H78250   7.760   5.177   1.949 -0.0079 -1.9246  2.4035
  593MOL0     H78251   7.636   5.148   1.827 -0.0987 -1.3212  0.2831
  593MOL0     H78252   7.814   5.078   1.658  0.6878 -2.9229  1.5122
  593MOL0     H78253   7.938   5.090   1.776  1.7888  1.7877 -1.4903
  593MOL0     H78254   7.759   5.334   1.710  1.5446  2.3134  1.6550
  593MOL0     H78255   7.910   5.335   1.795 -0.9192 -0.8747  1.1100
  593MOL0     H78256   7.953   5.400   1.560 -1.0078 -0.5295 -2.6566
  593MOL0     H78257   7.871   5.251   1.499 -0.4303  3.7610 -2.1356
  593MOL0     H78258   7.489   4.585   2.305 -0.3226  1.5398 -0.7554
  593MOL0     H78259   7.639   4.501   2.479 -0.3598  0.3350 -0.1890
  593MOL0     H78260   8.155   4.732   2.625 -0.5229 -0.8852 -1.3272
  593MOL0     H78261   8.304   4.760   2.824  1.0186  1.6114  4.9737
  593MOL0     H78262  10.144   4.650   3.456  1.4938 -1.9171 -1.7886
  593MOL0     H78263  10.352   4.748   3.442 -1.4146  2.6373  1.8157
  593MOL0     H78264  10.684   4.840   3.250  2.2731 -1.1892  1.4742
  593MOL0     H78265  10.940   4.870   3.261  2.4732  1.6359  0.5358
  593MOL0     H78266  11.062   5.288   3.220 -0.8214 -0.7140  0.0279
  593MOL0     H78267  11.073   5.243   3.043 -4.8153 -0.9029  0.6926
  593MOL0     H78268  11.288   5.334   3.162  1.5199  0.6977 -1.6913
  593MOL0     H78269  11.277   5.193   3.257  0.0838  0.2387  0.0894
  593MOL0     H78270  11.257   5.193   2.946 -1.2961  4.0834  1.2033
  593MOL0     H78271  11.332   5.066   3.035 -0.9584 -0.6301 -1.5196
  593MOL0     H78272  11.504   5.168   2.921 -1.9364  0.5980 -0.3448
  593MOL0     H78273  11.480   5.337   2.981  1.2045  0.0649 -2.5132
  593MOL0     H78274  11.721   5.188   3.268  0.3790 -1.5352 -1.5563
  593MOL0     H78275  10.864   5.270   3.103  2.4002  1.4043  3.0854
  593MOL0     H78276  10.641   5.219   3.079  2.8235  0.4342  0.0484
  594MOL0     O78277   6.306  10.636   1.620 -0.1469 -0.5983  0.2019
  594MOL0     C78278   6.401  10.693   1.662 -0.3970  0.1159  0.2173
  594MOL0     O78279   6.389  10.806   1.733 -0.6827 -0.6936 -0.5276
  594MOL0     C78280   6.276  10.872   1.738 -0.3318 -0.0169 -1.8907
  594MOL0     C78281   6.269  11.007   1.700 -0.0009 -0.4216 -0.1555
  594MOL0     C78282   6.147  11.071   1.694 -0.0241  0.6187  0.2569
  594MOL0     C78283   6.031  11.002   1.739  0.1424  0.0782  0.4204
  594MOL0     O78284   5.915  11.068   1.718 -0.4102  0.1536  0.9114
  594MOL0     C78285   5.796  11.019   1.786  0.5389 -0.5533  0.0320
  594MOL0     C78286   5.716  10.943   1.688 -0.1026 -0.3422  0.1814
  594MOL0     C78287   5.576  10.905   1.748 -0.1893  0.6048  0.2262
  594MOL0     C78288   5.505  10.847   1.620 -0.0843 -0.5545  0.0148
  594MOL0     C78289   5.413  10.734   1.676 -0.3005 -0.0156 -0.1557
  594MOL0     C78290   5.366  10.638   1.559 -0.1336  0.6623  0.5104
  594MOL0     C78291   5.295  10.695   1.444  0.0033 -0.4784  0.0405
  594MOL0     C78292   5.161  10.763   1.488  0.0189  0.7827 -0.4075
  594MOL0     N78293   5.065  10.671   1.548  1.0218 -0.3160  0.2377
  594MOL0     C78294   5.018  10.554   1.494 -0.9375  0.2337  0.0344
  594MOL0     C78295   4.939  10.487   1.592  0.2107 -0.8161 -0.6224
  594MOL0     C78296   4.881  10.351   1.570 -0.0937  0.0161  0.2704
  594MOL0     C78297   4.729  10.352   1.581  0.0896 -0.7544  0.1704
  594MOL0     C78298   4.663  10.222   1.512 -0.1023 -0.2225  0.0810
  594MOL0     C78299   4.522  10.236   1.498 -0.2656 -0.8830  0.5282
  594MOL0     O78300   4.451  10.285   1.609  0.7129  0.1537 -0.2555
  594MOL0     C78301   4.316  10.265   1.612 -0.5481  0.1075  0.3000
  594MOL0     C78302   4.251  10.329   1.714 -0.5434  0.0756 -0.2136
  594MOL0     C78303   4.111  10.367   1.713 -0.3113 -0.8534  0.0341
  594MOL0     C78304   4.034  10.322   1.604 -0.7579  0.2463 -0.2392
  594MOL0     C78305   3.897  10.374   1.596 -0.2612 -0.7464 -1.0277
  594MOL0     O78306   3.857  10.394   1.470 -0.2445  0.2534  0.4816
  594MOL0     C78307   3.733  10.442   1.437 -0.0501  0.8816  0.6079
  594MOL0     C78308   3.683  10.406   1.303 -0.0767 -0.0552  0.1074
  594MOL0     C78309   3.571  10.464   1.254  0.2543 -0.5994  0.6787
  594MOL0     C78310   3.496  10.561   1.335 -0.1390  0.4790 -0.3539
  594MOL0     O78311   3.370  10.597   1.289  0.1701  0.6358 -0.4469
  594MOL0     C78312   3.359  10.735   1.278  1.1917  0.8492  0.4467
  594MOL0     C78313   3.221  10.778   1.213  1.0731  0.2811 -0.4416
  594MOL0     C78314   3.225  10.747   1.057  0.4924  0.2414 -1.5267
  594MOL0     C78315   3.127  10.822   0.973 -0.0933 -0.2609  0.1245
  594MOL0     C78316   2.981  10.795   0.996 -0.7455  0.0606 -1.3071
  594MOL0     C78317   2.899  10.837   0.881 -0.2719 -0.2637  0.7100
  594MOL0     C78318   2.742  10.827   0.896 -0.0662  0.0901 -0.1760
  594MOL0     C78319   2.686  10.687   0.896  1.6501  0.4706  0.0761
  594MOL0    Cl78320   2.714  10.623   0.738 -0.2612 -0.0523 -0.3127
  594MOL0     C78321   3.540  10.583   1.466  0.4031  0.9052 -0.1627
  594MOL0     C78322   3.657  10.533   1.514 -0.4548 -0.1479  0.8707
  594MOL0     O78323   3.841  10.395   1.706 -0.1584 -0.0971 -0.0935
  594MOL0     C78324   4.105  10.256   1.495  0.1975 -0.0143 -0.4193
  594MOL0     C78325   4.244  10.222   1.503  0.6879 -0.9399  0.1550
  594MOL0     N78326   4.935  10.573   1.702  0.5050 -0.6371  0.7306
  594MOL0     N78327   5.007  10.680   1.673  0.3516 -0.2444 -0.3890
  594MOL0     C78328   6.038  10.871   1.792 -0.2852 -0.3786 -0.0827
  594MOL0     C78329   6.158  10.804   1.782 -0.3348 -0.5871 -0.2900
  594MOL0     C78330   6.536  10.638   1.638 -0.5135  0.2823 -0.1380
  594MOL0     C78331   6.650  10.716   1.677  0.2169  0.4467  0.6708
  594MOL0     C78332   6.776  10.656   1.658  0.3359 -0.1086 -0.2440
  594MOL0     C78333   6.791  10.531   1.591 -0.6524 -0.0873 -0.9165
  594MOL0     O78334   6.922  10.498   1.562  0.5928  0.0245  0.5832
  594MOL0     C78335   6.935  10.384   1.464 -0.5755 -0.2361  0.1211
  594MOL0     C78336   7.078  10.376   1.411 -0.2124  0.2902 -0.3342
  594MOL0     C78337   7.100  10.250   1.335 -0.4314  0.5285 -0.4422
  594MOL0     C78338   7.101  10.135   1.419  0.1074  1.0278 -0.4105
  594MOL0     C78339   7.228  10.116   1.491  0.5250  0.0449 -1.2314
  594MOL0     C78340   7.333  10.104   1.544  1.2391 -0.2649 -0.7587
  594MOL0     C78341   6.673  10.465   1.538 -0.9971 -0.2498 -1.2665
  594MOL0     C78342   6.551  10.516   1.572  0.7350  0.1687 -0.2084
  594MOL0     H78343   6.358  11.065   1.680  1.4821 -2.1974  0.9814
  594MOL0     H78344   6.137  11.175   1.665 -0.4334  0.2324 -1.0758
  594MOL0     H78345   5.742  11.108   1.819  0.5780 -0.5144 -0.0111
  594MOL0     H78346   5.807  10.965   1.880  0.3013  1.7099  1.4167
  594MOL0     H78347   5.776  10.853   1.676  3.0577  1.6414  0.0112
  594MOL0     H78348   5.710  11.004   1.598 -1.5228  0.4137  0.7529
  594MOL0     H78349   5.534  10.999   1.784  0.4481  2.2179 -2.9468
  594MOL0     H78350   5.586  10.834   1.831  2.2226 -0.1391 -0.6120
  594MOL0     H78351   5.447  10.925   1.570  1.1994  1.3350  1.3297
  594MOL0     H78352   5.565  10.809   1.537  2.2031 -0.2678  1.4520
  594MOL0     H78353   5.324  10.772   1.729 -0.4393 -2.9362  1.9721
  594MOL0     H78354   5.463  10.667   1.747 -0.3828  0.0680 -0.0174
  594MOL0     H78355   5.305  10.557   1.599  1.1472 -0.9603 -0.7004
  594MOL0     H78356   5.459  10.588   1.531 -0.0651  2.1138 -2.1420
  594MOL0     H78357   5.353  10.776   1.398 -0.8882  1.8767  2.7905
  594MOL0     H78358   5.269  10.621   1.367  2.3246  0.1095 -1.4219
  594MOL0     H78359   5.111  10.817   1.408 -0.8834 -0.2781 -0.5783
  594MOL0     H78360   5.187  10.844   1.558 -0.7700  2.0533 -1.5494
  594MOL0     H78361   5.051  10.517   1.397  0.1208 -0.1956  0.5338
  594MOL0     H78362   4.923  10.293   1.654  1.5594 -0.8885 -1.1211
  594MOL0     H78363   4.915  10.301   1.479  1.0799 -1.4672  1.4559
  594MOL0     H78364   4.679  10.435   1.531  0.5199 -0.8437 -0.4223
  594MOL0     H78365   4.695  10.359   1.685  1.4307  1.5418  0.5157
  594MOL0     H78366   4.714  10.189   1.422  0.6404 -0.0655  0.4298
  594MOL0     H78367   4.675  10.146   1.590 -2.7419 -1.7581 -0.8987
  594MOL0     H78368   4.494  10.133   1.474 -4.0249  0.3506 -1.2517
  594MOL0     H78369   4.512  10.314   1.422  0.7562 -3.3763 -2.4018
  594MOL0     H78370   4.322  10.346   1.794  1.3803  1.1086 -2.0423
  594MOL0     H78371   4.066  10.433   1.787  2.1644  0.3420  0.5910
  594MOL0     H78372   3.737  10.334   1.242  0.8848  1.5894 -1.0631
  594MOL0     H78373   3.544  10.431   1.154  0.6766 -0.2320  0.4383
  594MOL0     H78374   3.443  10.772   1.220  0.6188  1.1263 -0.2180
  594MOL0     H78375   3.364  10.783   1.376 -2.7393  0.3783  1.0499
  594MOL0     H78376   3.212  10.886   1.228 -1.0013  0.2512 -1.0317
  594MOL0     H78377   3.140  10.723   1.263  0.4114  1.1082 -0.5860
  594MOL0     H78378   3.229  10.638   1.057  0.0706  0.2169 -0.8873
  594MOL0     H78379   3.321  10.762   1.007  0.2981 -2.4704 -2.8758
  594MOL0     H78380   3.129  10.930   0.988 -3.3662  0.0531 -0.8683
  594MOL0     H78381   3.154  10.798   0.870  0.0167  0.7103 -0.0827
  594MOL0     H78382   2.944  10.845   1.086 -2.8566  0.9729 -2.5935
  594MOL0     H78383   2.969  10.689   1.020  1.9862 -0.2561 -0.9671
  594MOL0     H78384   2.924  10.793   0.784 -2.2099 -0.2293  0.1399
  594MOL0     H78385   2.931  10.940   0.866  2.0384 -0.9411  0.6470
  594MOL0     H78386   2.717  10.882   0.987 -2.2071  0.4494 -0.9472
  594MOL0     H78387   2.694  10.876   0.811  0.3329 -0.3742 -0.6792
  594MOL0     H78388   2.579  10.681   0.917  1.4874  0.2117 -0.8197
  594MOL0     H78389   2.741  10.630   0.972 -0.1685 -2.8497 -0.8837
  594MOL0     H78390   3.491  10.657   1.529 -2.9257  0.3723 -1.9234
  594MOL0     H78391   3.698  10.569   1.608  0.1569  2.4677 -0.3274
  594MOL0     H78392   4.054  10.219   1.406 -1.0200  1.4204 -0.3497
  594MOL0     H78393   4.298  10.174   1.421  2.1659  1.6066 -0.4527
  594MOL0     H78394   5.951  10.820   1.833  1.1452 -1.3439  1.9844
  594MOL0     H78395   6.155  10.701   1.815  3.0929 -0.5621  0.5194
  594MOL0     H78396   6.635  10.815   1.719  1.0819  1.3955 -1.1446
  594MOL0     H78397   6.868  10.705   1.689 -0.2632  1.3214 -0.6399
  594MOL0     H78398   6.858  10.395   1.386 -1.4298 -2.4775  0.5928
  594MOL0     H78399   6.918  10.289   1.514 -0.0114 -1.4727 -1.9414
  594MOL0     H78400   7.098  10.461   1.346  2.6327 -0.7717 -1.0041
  594MOL0     H78401   7.126  10.378   1.510 -0.0139  3.8850 -0.3633
  594MOL0     H78402   7.190  10.236   1.275 -0.5916 -1.6645 -0.2740
  594MOL0     H78403   7.011  10.232   1.274 -0.8139 -2.2819  0.7907
  594MOL0     H78404   7.014  10.128   1.486 -0.9017 -3.2738 -1.8079
  594MOL0     H78405   7.087  10.045   1.359  1.8600  2.4494 -3.1298
  594MOL0     H78406   7.424  10.104   1.601  1.6511  2.2166 -1.3144
  594MOL0     H78407   6.679  10.376   1.476  1.8721 -0.3880 -0.9365
  594MOL0     H78408   6.466  10.461   1.533  0.5822 -0.4256  0.9049
  595MOL0     O78409   5.905   3.303   0.782 -0.1392 -0.6727  0.2817
  595MOL0     C78410   5.800   3.322   0.726  0.7751  0.1726  0.3382
  595MOL0     O78411   5.762   3.427   0.644  0.3393  0.3511 -0.3671
  595MOL0     C78412   5.854   3.529   0.627 -0.5272  0.1924 -0.6778
  595MOL0     C78413   5.981   3.511   0.580  0.9103  0.1882 -0.7022
  595MOL0     C78414   6.069   3.615   0.549 -0.1929 -0.2893  0.4238
  595MOL0     C78415   6.012   3.752   0.546  0.2606 -0.0703  0.1987
  595MOL0     O78416   6.082   3.865   0.536 -0.9070  0.2995  0.7621
  595MOL0     C78417   6.204   3.860   0.452  0.6740  0.5093  0.1027
  595MOL0     C78418   6.249   3.990   0.400  0.3278  1.2671 -0.6374
  595MOL0     C78419   6.165   4.076   0.319  0.3367 -0.8636  0.8059
  595MOL0     C78420   6.244   4.169   0.220  1.0493 -0.0454 -0.2577
  595MOL0     C78421   6.150   4.245   0.135  0.2495 -0.2114 -0.2417
  595MOL0     C78422   6.116   4.172   0.001 -0.3685 -0.8858  1.1495
  595MOL0     C78423   6.071   4.284  -0.094  1.0942 -0.7066  0.1587
  595MOL0     C78424   6.015   4.227  -0.227  0.7482 -0.1344  0.1903
  595MOL0     N78425   5.989   4.345  -0.306 -0.2554 -0.7310  0.0768
  595MOL0     C78426   5.867   4.390  -0.346  0.6162  0.4440 -0.3010
  595MOL0     C78427   5.880   4.494  -0.424 -0.6798 -1.3461 -0.3464
  595MOL0     C78428   5.772   4.570  -0.497  0.1224  0.1408 -0.3788
  595MOL0     C78429   5.678   4.638  -0.387 -0.3800  0.4017  0.5466
  595MOL0     C78430   5.744   4.771  -0.350  0.0801  0.3072 -0.3643
  595MOL0     C78431   5.695   4.826  -0.219 -0.7123 -0.2606 -0.0637
  595MOL0     O78432   5.797   4.805  -0.122 -0.6707  0.0735  0.3414
  595MOL0     C78433   5.782   4.698  -0.035 -0.7770  0.3253  0.1067
  595MOL0     C78434   5.893   4.622   0.006 -0.7370 -0.1793  0.4673
  595MOL0     C78435   5.889   4.529   0.107  0.8288 -1.2459 -0.4827
  595MOL0     C78436   5.766   4.507   0.176 -0.1505 -0.5079  0.5829
  595MOL0     C78437   5.766   4.422   0.294 -0.2250  0.4113  0.5158
  595MOL0     O78438   5.644   4.410   0.353 -0.7086  0.3288 -0.8935
  595MOL0     C78439   5.616   4.330   0.464  0.0010 -0.2252  0.6426
  595MOL0     C78440   5.484   4.293   0.483  0.4629 -0.7535 -0.6006
  595MOL0     C78441   5.443   4.215   0.594 -0.6029  0.2816 -0.4890
  595MOL0     C78442   5.530   4.170   0.690 -0.9597 -0.3753  0.9404
  595MOL0     O78443   5.496   4.107   0.805 -0.5501 -0.1442  0.3749
  595MOL0     C78444   5.365   4.100   0.870  0.9328  0.1373  0.2346
  595MOL0     C78445   5.375   4.068   1.015  0.4513  0.0264  0.2237
  595MOL0     C78446   5.435   3.930   1.035  0.1387  0.0781  0.0882
  595MOL0     C78447   5.427   3.882   1.170  1.0046  0.0252  0.6032
  595MOL0     C78448   5.518   3.956   1.272 -0.4272  0.1963  0.5501
  595MOL0     C78449   5.549   3.865   1.399  0.1589 -0.3154 -0.5480
  595MOL0     C78450   5.668   3.777   1.379  0.2302  0.2381 -0.3378
  595MOL0     C78451   5.717   3.704   1.509 -0.1056  0.9430 -0.1868
  595MOL0    Cl78452   5.879   3.634   1.461  0.6646  0.0426 -0.0454
  595MOL0     C78453   5.670   4.213   0.673 -0.0886  0.1699 -0.2498
  595MOL0     C78454   5.709   4.277   0.555  0.2977  0.2429 -1.3094
  595MOL0     O78455   5.861   4.345   0.320 -0.5580  0.7288  0.8452
  595MOL0     C78456   5.653   4.586   0.147 -0.1979  0.7763  0.1616
  595MOL0     C78457   5.665   4.689   0.043  0.2843 -1.2639 -1.2346
  595MOL0     N78458   6.018   4.531  -0.408 -0.8596  0.5448  0.3095
  595MOL0     N78459   6.081   4.435  -0.349  0.1185  0.1192 -0.3890
  595MOL0     C78460   5.880   3.765   0.591 -0.5251  0.1622  1.3399
  595MOL0     C78461   5.806   3.661   0.629 -0.5619 -0.1416  0.6356
  595MOL0     C78462   5.696   3.209   0.741  0.4648 -1.1961  0.8049
  595MOL0     C78463   5.570   3.235   0.688  0.9085 -0.3872 -0.0757
  595MOL0     C78464   5.475   3.140   0.724  0.4352 -0.9788  0.1292
  595MOL0     C78465   5.494   3.033   0.808  0.0880 -1.3291 -0.2907
  595MOL0     O78466   5.390   2.962   0.857 -0.5396 -0.4134 -0.5119
  595MOL0     C78467   5.277   2.942   0.774 -0.2195  0.1182 -0.0672
  595MOL0     C78468   5.214   2.820   0.837  1.2905  1.2019  0.3264
  595MOL0     C78469   5.100   2.756   0.745  0.1580  0.6987  0.9524
  595MOL0     C78470   5.009   2.668   0.828  0.1930  0.2714 -0.7662
  595MOL0     C78471   5.081   2.563   0.888 -0.4590 -0.2262  0.3467
  595MOL0     C78472   5.145   2.469   0.933  1.0268 -0.4229  0.4075
  595MOL0     C78473   5.621   3.011   0.852 -0.2255 -0.3211  0.2792
  595MOL0     C78474   5.724   3.103   0.818 -0.4127  0.0558  0.3204
  595MOL0     H78475   6.018   3.409   0.580 -1.9403 -1.0468  2.1817
  595MOL0     H78476   6.174   3.597   0.527 -0.1203 -0.7009  1.1070
  595MOL0     H78477   6.176   3.797   0.368 -3.5554 -1.2229  2.5144
  595MOL0     H78478   6.293   3.826   0.506 -0.1390  0.3810  1.4200
  595MOL0     H78479   6.340   3.967   0.344 -0.6930  2.4638 -2.9325
  595MOL0     H78480   6.284   4.038   0.492 -0.6381 -0.8405  0.9119
  595MOL0     H78481   6.096   4.126   0.388 -0.0937 -0.6786  0.2468
  595MOL0     H78482   6.110   4.002   0.260  0.9263  0.0816 -1.0262
  595MOL0     H78483   6.308   4.232   0.282  1.1962  1.2269 -1.6395
  595MOL0     H78484   6.313   4.109   0.160  0.9950 -0.4929  0.1189
  595MOL0     H78485   6.208   4.338   0.128  0.5778 -0.1991  1.9463
  595MOL0     H78486   6.061   4.266   0.195  1.3484  3.8830  0.2778
  595MOL0     H78487   6.039   4.096   0.015 -0.4406 -1.1360 -0.4456
  595MOL0     H78488   6.203   4.119  -0.038  0.9011 -0.1251  2.8255
  595MOL0     H78489   5.998   4.357  -0.060  1.6331 -0.5764  1.0905
  595MOL0     H78490   6.154   4.353  -0.109 -1.2787  3.0569  2.7543
  595MOL0     H78491   5.925   4.169  -0.202  1.0237 -0.7894 -0.2912
  595MOL0     H78492   6.089   4.171  -0.285 -0.5114  0.4335 -2.1233
  595MOL0     H78493   5.771   4.340  -0.334  0.1969  0.3926 -3.0487
  595MOL0     H78494   5.726   4.492  -0.558  2.5574  0.5281 -2.9417
  595MOL0     H78495   5.815   4.644  -0.565  2.1944 -1.0845 -0.5104
  595MOL0     H78496   5.671   4.578  -0.296 -1.5060  0.1454  0.2986
  595MOL0     H78497   5.576   4.655  -0.420 -0.6820  0.0260  1.2609
  595MOL0     H78498   5.849   4.753  -0.327  0.1770 -1.0977 -1.7258
  595MOL0     H78499   5.725   4.846  -0.427  1.0300  3.9901  2.6678
  595MOL0     H78500   5.602   4.772  -0.198 -1.3277  0.7208 -0.2053
  595MOL0     H78501   5.672   4.933  -0.217 -1.7513 -0.4824  0.7116
  595MOL0     H78502   5.982   4.620  -0.056  0.2361  1.2090  1.7425
  595MOL0     H78503   5.978   4.476   0.139  2.9483  0.4708 -3.0410
  595MOL0     H78504   5.415   4.333   0.410 -1.3688  3.5045  2.9942
  595MOL0     H78505   5.339   4.193   0.616  0.3185 -2.0235  2.2253
  595MOL0     H78506   5.315   4.026   0.807  2.8751  1.5630 -3.2769
  595MOL0     H78507   5.312   4.196   0.876  0.7950  0.0036  5.3147
  595MOL0     H78508   5.275   4.079   1.058  1.1101  2.2464  1.3254
  595MOL0     H78509   5.441   4.134   1.072  1.1066 -1.7019  1.5854
  595MOL0     H78510   5.543   3.926   1.021  0.4673  1.2995  1.9658
  595MOL0     H78511   5.383   3.855   0.975  0.4977 -0.0044 -0.1230
  595MOL0     H78512   5.327   3.896   1.212  0.0199 -3.5823 -0.1726
  595MOL0     H78513   5.442   3.775   1.156  0.5444 -0.0658  0.8016
  595MOL0     H78514   5.469   4.041   1.321  0.3816  0.1211  1.5174
  595MOL0     H78515   5.609   3.990   1.221 -1.5066  0.7170 -1.0882
  595MOL0     H78516   5.459   3.808   1.423 -3.4339  2.4293 -5.5872
  595MOL0     H78517   5.568   3.929   1.486  1.1868 -2.4151  0.8355
  595MOL0     H78518   5.642   3.697   1.308  0.4768 -1.2549  1.1909
  595MOL0     H78519   5.752   3.835   1.340  0.7020 -0.0728  0.2107
  595MOL0     H78520   5.652   3.623   1.542 -1.3038  2.4021  1.2254
  595MOL0     H78521   5.732   3.765   1.599  0.6865 -1.0972  1.1164
  595MOL0     H78522   5.750   4.173   0.734  0.3711 -0.5025 -1.2724
  595MOL0     H78523   5.813   4.308   0.555  0.8734 -1.5114  0.3649
  595MOL0     H78524   5.565   4.579   0.209 -0.4080 -2.3303 -0.3628
  595MOL0     H78525   5.583   4.759   0.057  1.6037 -0.1760  2.2758
  595MOL0     H78526   5.844   3.867   0.599  0.8770  1.0565 -1.8713
  595MOL0     H78527   5.712   3.685   0.677  0.6400  1.7557  2.2103
  595MOL0     H78528   5.544   3.325   0.634 -1.0809 -1.1293 -0.4758
  595MOL0     H78529   5.376   3.175   0.698  1.6686  3.5274  0.5835
  595MOL0     H78530   5.306   2.921   0.670  0.3806 -0.7036  0.2559
  595MOL0     H78531   5.208   3.027   0.775  0.7783  0.9694 -1.0926
  595MOL0     H78532   5.286   2.742   0.863 -0.0277 -1.3522 -2.8996
  595MOL0     H78533   5.168   2.850   0.931 -1.2356  0.1439 -0.4934
  595MOL0     H78534   5.135   2.698   0.660 -2.7405  2.2193 -1.4602
  595MOL0     H78535   5.037   2.833   0.700  2.4301  2.2109  0.2005
  595MOL0     H78536   4.962   2.722   0.910 -0.6393 -0.9907 -0.3858
  595MOL0     H78537   4.926   2.636   0.764 -1.0437 -0.2899  1.0378
  595MOL0     H78538   5.176   2.387   0.994  0.9710 -1.0243 -0.3608
  595MOL0     H78539   5.622   2.930   0.924 -2.5907 -0.3263  0.3930
  595MOL0     H78540   5.821   3.091   0.865  0.2136  0.6242 -0.7884
  596MOL0     O78541   3.590  10.381   4.615  0.6555 -0.0344  0.0017
  596MOL0     C78542   3.701  10.438   4.603 -0.0275  0.7089 -0.1880
  596MOL0     O78543   3.750  10.527   4.692 -0.2374 -0.7017  0.4622
  596MOL0     C78544   3.711  10.524   4.821 -0.7279 -0.1577 -0.1852
  596MOL0     C78545   3.595  10.602   4.857  0.0923  0.3438  0.1209
  596MOL0     C78546   3.563  10.603   4.998 -0.0685  0.3370 -0.0320
  596MOL0     C78547   3.641  10.540   5.096 -0.7149  0.2629 -0.7553
  596MOL0     O78548   3.611  10.548   5.235 -0.1806  1.0195 -0.6645
  596MOL0     C78549   3.471  10.548   5.275 -0.6833  0.0336 -0.1097
  596MOL0     C78550   3.482  10.513   5.426 -0.1080 -0.6919 -0.3079
  596MOL0     C78551   3.345  10.529   5.507 -0.9293 -0.0861  1.0166
  596MOL0     C78552   3.379  10.484   5.652  0.3436  0.0380  0.4118
  596MOL0     C78553   3.279  10.544   5.753 -0.1782 -0.9860 -0.3629
  596MOL0     C78554   3.337  10.535   5.898 -0.6857 -0.1138  0.2288
  596MOL0     C78555   3.361  10.381   5.946  0.4597 -0.1466 -0.8665
  596MOL0     C78556   3.221  10.320   5.994 -0.2036  0.3849 -0.6314
  596MOL0     N78557   3.223  10.201   6.078 -0.3025 -0.1890 -0.0062
  596MOL0     C78558   3.226  10.072   6.047  0.4352  0.1356  0.8766
  596MOL0     C78559   3.242   9.995   6.150  0.3508 -0.1082 -0.1730
  596MOL0     C78560   3.231   9.851   6.166 -0.7016 -0.2561  0.6455
  596MOL0     C78561   3.090   9.805   6.204 -0.4413 -0.1446  0.6655
  596MOL0     C78562   3.043   9.857   6.342  0.3860  0.0242 -0.8107
  596MOL0     C78563   3.111   9.810   6.472 -0.7975 -0.3366  0.2936
  596MOL0     O78564   3.142   9.669   6.475  0.7343  0.5551  0.1927
  596MOL0     C78565   3.182   9.607   6.585 -0.1562  0.8681  0.1893
  596MOL0     C78566   3.215   9.470   6.575 -1.0898 -0.3214  0.3611
  596MOL0     C78567   3.269   9.393   6.687  0.0959  0.3121 -0.4824
  596MOL0     C78568   3.286   9.463   6.812 -0.3195  0.1816 -0.3347
  596MOL0     C78569   3.348   9.397   6.924  0.6831 -0.6082 -0.7255
  596MOL0     O78570   3.367   9.478   7.036  0.7195 -0.4403  0.0057
  596MOL0     C78571   3.436   9.423   7.138 -0.5241 -0.6077  0.1769
  596MOL0     C78572   3.574   9.388   7.134 -0.5649  0.2270  0.1067
  596MOL0     C78573   3.632   9.325   7.239 -0.1961  0.5874 -0.0443
  596MOL0     C78574   3.554   9.284   7.353  0.1533 -0.3092 -0.0195
  596MOL0     O78575   3.630   9.208   7.443  0.3318  0.3435 -0.3612
  596MOL0     C78576   3.564   9.162   7.563  0.2070 -0.1701  0.1454
  596MOL0     C78577   3.649   9.083   7.669 -0.7968 -0.5876  0.1071
  596MOL0     C78578   3.731   9.184   7.749 -0.2074 -0.1299 -0.2338
  596MOL0     C78579   3.801   9.099   7.857 -0.0571  0.4100  0.3403
  596MOL0     C78580   3.889   9.201   7.933 -0.5798  0.1276 -0.3846
  596MOL0     C78581   3.966   9.129   8.045 -0.6319  0.0699 -0.0798
  596MOL0     C78582   4.042   8.996   8.000  0.5361 -0.4638  0.0766
  596MOL0     C78583   4.130   8.960   8.126  0.3693  0.1817  0.7809
  596MOL0    Cl78584   4.024   8.884   8.244  0.4585 -0.2306 -0.3587
  596MOL0     C78585   3.416   9.294   7.348  0.3245  0.7023 -0.4140
  596MOL0     C78586   3.367   9.376   7.247  0.0904  0.1106  0.6844
  596MOL0     O78587   3.380   9.278   6.916 -0.1679 -0.4203  0.1168
  596MOL0     C78588   3.253   9.597   6.819  0.3815 -0.9044 -0.4947
  596MOL0     C78589   3.200   9.663   6.716  0.0288 -0.6181  1.0765
  596MOL0     N78590   3.275  10.087   6.254 -0.5571 -0.3588  0.0373
  596MOL0     N78591   3.260  10.208   6.209  0.4280  0.0063  0.3262
  596MOL0     C78592   3.755  10.478   5.050 -0.3898  0.0060  0.8076
  596MOL0     C78593   3.792  10.469   4.914  0.5559  1.0174  0.2535
  596MOL0     C78594   3.781  10.418   4.477  0.3489  0.4141  0.2022
  596MOL0     C78595   3.738  10.327   4.378 -0.6188 -0.1883  0.4914
  596MOL0     C78596   3.810  10.313   4.256  0.6939 -0.1465  0.0657
  596MOL0     C78597   3.927  10.389   4.236 -0.2168  0.1522 -1.0118
  596MOL0     O78598   3.988  10.372   4.117 -0.4735  0.0563  0.2638
  596MOL0     C78599   4.077  10.468   4.070  0.4506  0.7008 -0.7919
  596MOL0     C78600   4.127  10.411   3.939 -0.3216 -0.2114  1.0010
  596MOL0     C78601   4.246  10.322   3.939 -0.9998  0.5446 -0.8146
  596MOL0     C78602   4.284  10.290   3.798 -0.0742  0.7721  1.3440
  596MOL0     C78603   4.181  10.236   3.705 -0.7472 -0.8184 -0.0216
  596MOL0     C78604   4.086  10.200   3.651  0.3437  0.4875 -0.0219
  596MOL0     C78605   3.977  10.466   4.340  0.7968 -0.4549 -0.1517
  596MOL0     C78606   3.906  10.480   4.459  0.4813 -0.4688 -0.3823
  596MOL0     H78607   3.525  10.648   4.789 -0.7471 -1.0274  0.0219
  596MOL0     H78608   3.480  10.660   5.040 -1.2684 -0.4131 -1.2955
  596MOL0     H78609   3.406  10.477   5.223 -2.3709  0.5731  1.1612
  596MOL0     H78610   3.435  10.650   5.265 -2.2485 -0.4046  0.7928
  596MOL0     H78611   3.550  10.586   5.471 -0.9194 -0.4397  0.5384
  596MOL0     H78612   3.528  10.416   5.445  1.7008  0.3469  0.9194
  596MOL0     H78613   3.268  10.459   5.474  0.9412 -1.3873 -0.8747
  596MOL0     H78614   3.324  10.632   5.477  4.4113  1.2424  0.8652
  596MOL0     H78615   3.366  10.376   5.665 -3.6191  0.3078 -0.0228
  596MOL0     H78616   3.480  10.513   5.680  0.1727 -0.0200  1.0927
  596MOL0     H78617   3.183  10.492   5.747 -0.1584 -0.8330 -3.8544
  596MOL0     H78618   3.264  10.647   5.722 -1.3219 -0.4176  1.8597
  596MOL0     H78619   3.288  10.594   5.976  1.6541  1.3260  0.7187
  596MOL0     H78620   3.434  10.585   5.886 -0.6435 -0.7517 -2.9819
  596MOL0     H78621   3.407  10.314   5.873  1.4344  0.2142 -0.6031
  596MOL0     H78622   3.425  10.381   6.035 -2.2511 -1.3308  1.2165
  596MOL0     H78623   3.163  10.302   5.903 -2.8762  1.5403  0.7161
  596MOL0     H78624   3.169  10.401   6.047 -2.2137 -0.5889 -0.9988
  596MOL0     H78625   3.212  10.040   5.945 -0.6669 -0.5925  1.2304
  596MOL0     H78626   3.299   9.819   6.245 -0.9826  0.9695  1.4161
  596MOL0     H78627   3.258   9.799   6.074 -1.3478 -0.0519  0.3360
  596MOL0     H78628   3.080   9.696   6.202 -1.6475 -0.0468  0.1616
  596MOL0     H78629   3.011   9.823   6.130  0.8134 -0.8598 -0.9114
  596MOL0     H78630   3.039   9.966   6.337 -3.3871  0.0428 -0.2340
  596MOL0     H78631   2.939   9.841   6.371  0.1964  4.1872  1.6999
  596MOL0     H78632   3.047   9.833   6.558 -1.2433 -2.2207  0.5126
  596MOL0     H78633   3.205   9.862   6.491 -0.5851 -1.0078  1.1656
  596MOL0     H78634   3.214   9.418   6.479 -0.8447  2.2095 -1.1090
  596MOL0     H78635   3.288   9.286   6.679 -0.4397  0.3494 -2.9696
  596MOL0     H78636   3.626   9.409   7.041 -1.5519  1.0677 -0.2827
  596MOL0     H78637   3.738   9.303   7.234 -0.2627  0.4536 -1.2910
  596MOL0     H78638   3.490   9.088   7.530  0.1295  0.4133 -1.0141
  596MOL0     H78639   3.516   9.245   7.615  1.1300 -1.8271  4.0507
  596MOL0     H78640   3.721   9.017   7.619  0.3157  0.8481 -0.2879
  596MOL0     H78641   3.592   9.014   7.731  2.1122 -2.5917  0.7955
  596MOL0     H78642   3.654   9.251   7.788 -2.9909 -1.3215 -3.1673
  596MOL0     H78643   3.806   9.240   7.693 -1.6560  1.1416 -0.9755
  596MOL0     H78644   3.735   9.062   7.935  0.6192  0.7651  1.0977
  596MOL0     H78645   3.862   9.018   7.816  1.1663  1.2719  0.4071
  596MOL0     H78646   3.836   9.279   7.989 -0.4009 -2.5212  3.9722
  596MOL0     H78647   3.959   9.243   7.860 -0.8690 -2.5646 -2.3414
  596MOL0     H78648   3.898   9.103   8.126 -0.9293  1.5395  0.1768
  596MOL0     H78649   4.032   9.201   8.094  1.4534 -2.8817  1.7508
  596MOL0     H78650   3.979   8.910   7.974 -1.8838  0.3992  2.5177
  596MOL0     H78651   4.102   9.021   7.913  0.1985 -0.7572 -0.2467
  596MOL0     H78652   4.197   9.040   8.159 -1.6774  2.3494 -0.0634
  596MOL0     H78653   4.195   8.881   8.086  0.4480  0.7110 -0.1614
  596MOL0     H78654   3.347   9.264   7.426 -1.6061  2.6366 -1.2749
  596MOL0     H78655   3.260   9.387   7.231  0.0206 -1.2398  0.0110
  596MOL0     H78656   3.258   9.650   6.913  1.8077 -0.3173 -0.8668
  596MOL0     H78657   3.179   9.769   6.726 -0.5299 -0.7838  1.6894
  596MOL0     H78658   3.825  10.449   5.128 -0.0298  2.8861  1.6586
  596MOL0     H78659   3.881  10.413   4.887 -0.6548 -0.6163 -0.4568
  596MOL0     H78660   3.646  10.270   4.387 -1.1161  0.3384 -1.0071
  596MOL0     H78661   3.771  10.243   4.183 -4.5468  2.4940 -0.1239
  596MOL0     H78662   4.160  10.481   4.140 -0.0916 -4.4287  1.1885
  596MOL0     H78663   4.024  10.563   4.059 -0.5467  0.2054 -0.3699
  596MOL0     H78664   4.044  10.348   3.906 -1.9419  0.0984  4.0484
  596MOL0     H78665   4.143  10.492   3.867 -2.1331 -1.5211 -0.9880
  596MOL0     H78666   4.222  10.233   3.997 -0.2858  1.8982  1.7521
  596MOL0     H78667   4.332  10.371   3.986 -0.4047 -0.3407 -0.9490
  596MOL0     H78668   4.312  10.385   3.752 -1.4428  0.0945 -1.0746
  596MOL0     H78669   4.373  10.228   3.792 -0.6105  0.0303  0.8773
  596MOL0     H78670   3.991  10.173   3.609 -1.3538  1.1217  3.0505
  596MOL0     H78671   4.076  10.510   4.332 -0.0947  1.3540 -1.9073
  596MOL0     H78672   3.969  10.526   4.535  2.0247 -0.3065 -1.6969
  597MOL0     O78673  10.049   3.845  10.274 -0.1830  0.1106  0.5534
  597MOL0     C78674   9.947   3.847  10.195 -0.1522 -1.5256 -0.3295
  597MOL0     O78675   9.924   3.948  10.109  0.7283 -0.3824  0.4504
  597MOL0     C78676  10.014   4.051  10.092  0.4367 -0.7317 -0.6443
  597MOL0     C78677  10.002   4.175  10.165  0.2898 -0.5664  0.6393
  597MOL0     C78678  10.102   4.272  10.146  1.1712 -0.1865 -0.1766
  597MOL0     C78679  10.210   4.259  10.063  0.1695 -0.5040  0.6409
  597MOL0     O78680  10.305   4.347  10.027 -0.5178  0.2498  0.1623
  597MOL0     C78681  10.305   4.466  10.097 -0.3154 -0.0246 -0.2501
  597MOL0     C78682  10.402   4.565  10.025 -0.0828 -0.2762 -0.6423
  597MOL0     C78683  10.378   4.699  10.084 -0.7835 -0.0721 -0.0144
  597MOL0     C78684  10.463   4.799  10.008  0.0908 -0.2716  0.2515
  597MOL0     C78685  10.456   4.943  10.043 -0.0593 -0.1286 -0.3259
  597MOL0     C78686  10.347   5.022   9.976  0.8763  0.3670 -0.4389
  597MOL0     C78687  10.355   5.174  10.002 -0.2645  1.0477  0.6615
  597MOL0     C78688  10.249   5.274   9.949  0.5916  0.7197  0.6096
  597MOL0     N78689  10.211   5.253   9.808 -0.3160 -0.1767  0.4094
  597MOL0     C78690  10.144   5.141   9.762 -0.8150 -0.9247 -0.2927
  597MOL0     C78691  10.106   5.179   9.635 -0.3689  0.6568 -0.1662
  597MOL0     C78692  10.029   5.101   9.527  0.0386 -0.1121  0.5081
  597MOL0     C78693  10.116   5.035   9.421  0.7688 -0.7470 -0.4501
  597MOL0     C78694  10.206   5.136   9.352 -0.2233 -0.8633  0.0532
  597MOL0     C78695  10.140   5.226   9.245 -0.3714 -0.2313  0.2930
  597MOL0     O78696  10.247   5.300   9.193  0.0952 -0.3262 -0.3883
  597MOL0     C78697  10.223   5.402   9.103 -0.3349  0.5852  0.4718
  597MOL0     C78698  10.107   5.414   9.024 -0.0638 -0.1187  0.4650
  597MOL0     C78699  10.080   5.524   8.941 -0.3821  0.6005  0.4863
  597MOL0     C78700  10.182   5.616   8.910 -0.5937  0.2579 -0.5406
  597MOL0     C78701  10.161   5.721   8.809  0.0783 -1.1210  1.0233
  597MOL0     O78702  10.276   5.801   8.781  0.7044 -0.1391  0.0782
  597MOL0     C78703  10.277   5.897   8.683  0.1334  0.8433  0.3211
  597MOL0     C78704  10.372   6.002   8.702  0.7596  0.4536 -0.0356
  597MOL0     C78705  10.406   6.095   8.605  0.0521 -0.4192  0.3221
  597MOL0     C78706  10.342   6.103   8.483  0.2009  0.1991 -0.7029
  597MOL0     O78707  10.368   6.201   8.390 -0.4333  0.4854 -0.4774
  597MOL0     C78708  10.318   6.197   8.253 -0.7322 -0.4400 -0.1003
  597MOL0     C78709  10.392   6.317   8.188 -0.4472 -0.2292 -0.4477
  597MOL0     C78710  10.422   6.288   8.045 -0.5449 -0.5223  1.1298
  597MOL0     C78711  10.452   6.421   7.957  0.6543  0.4738 -0.3540
  597MOL0     C78712  10.463   6.395   7.797  0.4380  0.4151 -0.1841
  597MOL0     C78713  10.593   6.335   7.741 -0.1688  0.2512  0.0508
  597MOL0     C78714  10.576   6.295   7.594 -0.2750  0.4215 -0.1963
  597MOL0     C78715  10.703   6.237   7.527 -0.3183  0.0270  0.1070
  597MOL0    Cl78716  10.775   6.086   7.603  0.3516 -0.0263  0.2081
  597MOL0     C78717  10.243   5.996   8.461 -0.2665 -1.0340  0.1800
  597MOL0     C78718  10.211   5.897   8.559 -0.3412  0.1093  0.7706
  597MOL0     O78719  10.052   5.736   8.759 -0.0778  0.0859  0.8643
  597MOL0     C78720  10.309   5.592   8.984  0.3686 -0.2377  0.0650
  597MOL0     C78721  10.328   5.487   9.073  0.5779 -0.2431 -0.1582
  597MOL0     N78722  10.140   5.307   9.613 -0.3018  0.4659  0.5719
  597MOL0     N78723  10.212   5.351   9.714 -0.0371  0.6497  0.1612
  597MOL0     C78724  10.229   4.135  10.002 -0.6974  0.2255 -0.3195
  597MOL0     C78725  10.137   4.036  10.019 -0.8772  0.1441 -0.8908
  597MOL0     C78726   9.834   3.753  10.219  0.7974  1.2066  0.6808
  597MOL0     C78727   9.747   3.727  10.114 -0.0587  0.0546 -0.7536
  597MOL0     C78728   9.642   3.636  10.137 -0.7507 -0.0774  0.1842
  597MOL0     C78729   9.618   3.573  10.258 -0.2519  0.9699 -0.7354
  597MOL0     O78730   9.511   3.488  10.282  0.4351  0.0819 -0.0092
  597MOL0     C78731   9.408   3.485  10.178 -0.1870  0.0048  0.2157
  597MOL0     C78732   9.275   3.409  10.214 -0.2612 -0.2270  0.2300
  597MOL0     C78733   9.281   3.270  10.273  0.0719  0.2890  0.1661
  597MOL0     C78734   9.140   3.230  10.326  0.0971 -0.4382 -0.6891
  597MOL0     C78735   9.137   3.099  10.392 -0.8431  0.8224 -0.4677
  597MOL0     C78736   9.118   2.997  10.450 -0.6068 -0.4346  0.1020
  597MOL0     C78737   9.711   3.597  10.359 -0.6766  0.0702 -0.7450
  597MOL0     C78738   9.826   3.680  10.338 -0.0947  0.0984 -0.0125
  597MOL0     H78739   9.924   4.198  10.237 -0.0720 -0.6915  0.2943
  597MOL0     H78740  10.097   4.354  10.218 -1.0693 -1.8811  1.7527
  597MOL0     H78741  10.326   4.455  10.204 -1.0495  0.6715 -0.0258
  597MOL0     H78742  10.202   4.504  10.097  0.1890  1.4264  0.4531
  597MOL0     H78743  10.386   4.574   9.917 -1.2036 -1.7725 -0.6372
  597MOL0     H78744  10.508   4.539  10.032  0.5700  2.4437  0.9974
  597MOL0     H78745  10.390   4.713  10.192  1.4230 -0.2590 -0.1756
  597MOL0     H78746  10.276   4.726  10.058 -0.6564  1.6327  1.1042
  597MOL0     H78747  10.566   4.765  10.020 -0.7955 -2.6075  1.8172
  597MOL0     H78748  10.443   4.794   9.900  0.9286  0.6494  0.0384
  597MOL0     H78749  10.548   4.979   9.995 -0.8302  0.6952 -1.2340
  597MOL0     H78750  10.451   4.970  10.149  1.5550  0.1303 -0.2764
  597MOL0     H78751  10.251   4.980  10.008  0.6141  1.7004  0.6452
  597MOL0     H78752  10.355   5.000   9.869 -0.0747  1.8706 -0.8493
  597MOL0     H78753  10.362   5.189  10.110  0.3582  0.4497  0.7079
  597MOL0     H78754  10.455   5.191   9.963 -0.1750 -2.3134 -0.9652
  597MOL0     H78755  10.282   5.378   9.954 -2.7615  1.9664 -0.2854
  597MOL0     H78756  10.154   5.253   9.999  1.0692 -3.5367  0.1338
  597MOL0     H78757  10.130   5.045   9.811  0.5403 -1.4704 -0.9141
  597MOL0     H78758   9.955   5.165   9.478  2.5104  1.6245 -1.1547
  597MOL0     H78759   9.969   5.025   9.578 -0.7715  1.8227  2.6095
  597MOL0     H78760  10.049   4.987   9.349 -0.2179  1.2174 -0.9030
  597MOL0     H78761  10.171   4.953   9.469 -0.8791 -1.5255  0.2171
  597MOL0     H78762  10.252   5.199   9.429  0.0065 -0.1029 -0.6800
  597MOL0     H78763  10.288   5.088   9.299  0.6398  1.8167 -1.2281
  597MOL0     H78764  10.059   5.285   9.288  0.8099 -0.2197  2.6373
  597MOL0     H78765  10.111   5.156   9.166  2.2758 -3.2091  1.7064
  597MOL0     H78766  10.032   5.337   9.037  0.7517 -0.6257  2.5566
  597MOL0     H78767   9.983   5.529   8.893 -0.9057  0.5895  1.5178
  597MOL0     H78768  10.442   6.014   8.784  1.8917 -2.2844 -0.4949
  597MOL0     H78769  10.488   6.162   8.631  1.2797 -0.1498 -3.5269
  597MOL0     H78770  10.212   6.219   8.264 -0.9752  0.0370 -2.7642
  597MOL0     H78771  10.347   6.102   8.209  2.2362  0.2512  0.1427
  597MOL0     H78772  10.489   6.340   8.232 -1.0485  1.8638 -0.0923
  597MOL0     H78773  10.319   6.393   8.219 -0.6144 -1.0718  1.3151
  597MOL0     H78774  10.345   6.224   8.002 -0.8807  0.9926 -0.6474
  597MOL0     H78775  10.507   6.219   8.049 -1.0700 -1.4766 -1.9590
  597MOL0     H78776  10.371   6.494   7.957  3.1610  3.6379  3.2607
  597MOL0     H78777  10.542   6.463   8.003  0.3143 -1.0897  1.9002
  597MOL0     H78778  10.444   6.490   7.745  0.0688 -0.6110 -2.0149
  597MOL0     H78779  10.375   6.338   7.768  0.1898  1.0463 -0.6811
  597MOL0     H78780  10.603   6.247   7.805 -0.4271 -0.5083 -0.9236
  597MOL0     H78781  10.676   6.406   7.745 -1.1961  1.8629 -3.1386
  597MOL0     H78782  10.502   6.215   7.601  0.0345  0.0943 -0.6334
  597MOL0     H78783  10.546   6.379   7.529 -0.3683  0.5965  0.0710
  597MOL0     H78784  10.789   6.304   7.530 -0.8247  0.6791  0.2562
  597MOL0     H78785  10.681   6.222   7.421  0.1472  2.5397 -0.4019
  597MOL0     H78786  10.183   5.990   8.370  1.3921  1.9010 -1.2627
  597MOL0     H78787  10.138   5.828   8.517 -1.0988  1.5589 -0.3763
  597MOL0     H78788  10.385   5.655   8.937 -1.5874  1.0821 -1.4733
  597MOL0     H78789  10.423   5.467   9.122 -0.3715  0.9852  2.4012
  597MOL0     H78790  10.307   4.113   9.929 -2.0164 -4.0363 -0.7131
  597MOL0     H78791  10.156   3.936   9.984  0.6815  0.0794  0.0419
  597MOL0     H78792   9.756   3.786  10.023 -1.4470  2.6403  0.6685
  597MOL0     H78793   9.589   3.621  10.043 -2.7097  0.3195  1.1699
  597MOL0     H78794   9.454   3.442  10.088 -2.9470  1.9240 -2.2817
  597MOL0     H78795   9.380   3.587  10.151 -1.7843 -0.3225  0.5906
  597MOL0     H78796   9.227   3.471  10.291 -2.1542 -0.4196 -0.7363
  597MOL0     H78797   9.199   3.417  10.136 -0.1659 -3.3102 -0.2998
  597MOL0     H78798   9.358   3.274  10.351  1.1898  0.6130 -0.9140
  597MOL0     H78799   9.309   3.197  10.197 -2.7690 -0.5558 -0.1867
  597MOL0     H78800   9.101   3.303  10.398 -4.5543 -3.6511  0.5355
  597MOL0     H78801   9.065   3.237  10.247  0.4676  0.0290 -1.0025
  597MOL0     H78802   9.092   2.906  10.499 -2.0642 -0.1160 -0.0152
  597MOL0     H78803   9.691   3.555  10.457  1.2075  2.6875  0.9108
  597MOL0     H78804   9.903   3.692  10.414 -0.4322  2.0630  0.0675
  598MOL0     O78805   6.757   4.280   6.187  0.2671  0.6725 -0.8001
  598MOL0     C78806   6.704   4.175   6.204 -0.4456 -0.4500 -0.5588
  598MOL0     O78807   6.575   4.162   6.258 -0.0520 -0.1100  0.0206
  598MOL0     C78808   6.518   4.263   6.331 -0.0953 -0.0639 -0.3519
  598MOL0     C78809   6.592   4.298   6.454  0.8603  0.4294  0.3186
  598MOL0     C78810   6.541   4.389   6.542  0.2792  0.7068 -0.5160
  598MOL0     C78811   6.422   4.453   6.498  0.2321 -0.1482  0.1388
  598MOL0     O78812   6.378   4.546   6.595 -0.3941 -0.1851  0.4505
  598MOL0     C78813   6.325   4.664   6.539 -0.8777 -0.7562 -0.0122
  598MOL0     C78814   6.325   4.780   6.644 -1.3005 -0.2630 -0.3975
  598MOL0     C78815   6.209   4.786   6.750 -0.2785  1.1928 -0.5820
  598MOL0     C78816   6.205   4.649   6.831  0.2298  0.0269  0.3865
  598MOL0     C78817   6.084   4.625   6.925 -0.0734  0.4122  0.4934
  598MOL0     C78818   6.071   4.709   7.048  0.3671  0.2110  0.3168
  598MOL0     C78819   5.947   4.672   7.133  0.9405  0.9124  0.6624
  598MOL0     C78820   5.945   4.552   7.220 -0.9026  0.4671 -0.6432
  598MOL0     N78821   5.921   4.430   7.143  0.0502 -0.3032 -0.1839
  598MOL0     C78822   5.984   4.314   7.169  0.2662 -0.5004  0.0710
  598MOL0     C78823   5.913   4.212   7.121  1.1656  0.2791 -0.5262
  598MOL0     C78824   5.944   4.064   7.120  0.3309 -0.2903  0.1044
  598MOL0     C78825   6.001   4.004   7.259  0.4592 -0.1212  0.4652
  598MOL0     C78826   6.003   3.853   7.248 -0.4557 -0.0846  0.5540
  598MOL0     C78827   6.058   3.800   7.383 -0.4232  0.2792 -0.7641
  598MOL0     O78828   6.087   3.663   7.378  0.5585 -0.0131  0.0692
  598MOL0     C78829   6.208   3.614   7.398 -0.6849  0.4250 -0.2912
  598MOL0     C78830   6.332   3.685   7.382 -0.1500 -0.5592  0.6401
  598MOL0     C78831   6.450   3.616   7.392  0.3376  0.1709 -0.3044
  598MOL0     C78832   6.460   3.477   7.432  0.5089 -0.6348  0.6668
  598MOL0     C78833   6.591   3.417   7.458  0.0349 -0.5952  0.7271
  598MOL0     O78834   6.591   3.275   7.447  0.8692 -0.0219 -0.2814
  598MOL0     C78835   6.714   3.219   7.429  0.3775  0.2847 -0.3382
  598MOL0     C78836   6.789   3.228   7.312 -0.4505 -0.0241  0.6004
  598MOL0     C78837   6.905   3.151   7.300 -0.4008  0.6172  0.6020
  598MOL0     C78838   6.950   3.075   7.400 -0.2522 -0.1069  0.3678
  598MOL0     O78839   7.068   3.010   7.370 -0.2019 -0.0896  0.5963
  598MOL0     C78840   7.119   2.901   7.451  0.3111  0.0562 -0.8128
  598MOL0     C78841   7.273   2.884   7.411  0.5185  0.9164 -1.0517
  598MOL0     C78842   7.302   2.867   7.267  0.9689 -0.9684  0.2340
  598MOL0     C78843   7.450   2.833   7.240  0.1880 -0.4769 -1.1959
  598MOL0     C78844   7.499   2.770   7.109 -0.3366  0.1883 -0.5352
  598MOL0     C78845   7.651   2.741   7.101 -0.2221 -0.1516 -0.0549
  598MOL0     C78846   7.694   2.621   7.187  1.1839 -0.4100  0.5753
  598MOL0     C78847   7.841   2.604   7.176  0.3050 -0.2524 -0.7093
  598MOL0    Cl78848   7.926   2.738   7.260 -0.5314 -0.1219 -0.2327
  598MOL0     C78849   6.881   3.073   7.518  0.3050  0.2617 -0.3616
  598MOL0     C78850   6.763   3.144   7.533 -0.6632 -0.6878 -0.8198
  598MOL0     O78851   6.687   3.485   7.471  0.2300 -0.0909 -0.6152
  598MOL0     C78852   6.339   3.407   7.445  0.3212  0.1450  0.5127
  598MOL0     C78853   6.219   3.478   7.433 -0.1445  0.7144 -0.4120
  598MOL0     N78854   5.792   4.265   7.075 -0.3587 -0.2596  0.2522
  598MOL0     N78855   5.797   4.394   7.089  0.0629 -0.0883 -0.3353
  598MOL0     C78856   6.349   4.429   6.378 -0.7531  0.2352 -0.5595
  598MOL0     C78857   6.409   4.335   6.295 -0.3468 -0.0877  0.6428
  598MOL0     C78858   6.784   4.063   6.150 -0.2132 -0.7912 -0.3025
  598MOL0     C78859   6.904   4.074   6.085 -0.4242 -0.2694  0.1615
  598MOL0     C78860   6.962   3.964   6.022 -0.5801 -0.0322 -0.1544
  598MOL0     C78861   6.903   3.846   6.009  0.1450 -0.2766 -1.1535
  598MOL0     O78862   6.954   3.731   5.951  0.1400  0.5989  0.3206
  598MOL0     C78863   7.051   3.739   5.841 -0.1980  0.4180  0.9122
  598MOL0     C78864   7.077   3.590   5.801 -0.1218 -0.4981  0.0840
  598MOL0     C78865   7.193   3.582   5.708 -0.3419  0.5652 -0.6210
  598MOL0     C78866   7.224   3.442   5.655  0.2864 -0.6619 -0.6134
  598MOL0     C78867   7.347   3.444   5.579  0.4250  0.6768  0.2955
  598MOL0     C78868   7.449   3.454   5.516  0.4024 -0.0946 -0.2961
  598MOL0     C78869   6.782   3.830   6.080  0.2628  0.4309  0.1766
  598MOL0     C78870   6.718   3.936   6.149  0.2364  0.9997  0.3388
  598MOL0     H78871   6.685   4.254   6.487  1.1812 -0.3363 -1.5366
  598MOL0     H78872   6.584   4.419   6.636  0.5608  0.7925 -0.6715
  598MOL0     H78873   6.226   4.647   6.496 -0.2987  0.1410 -1.8308
  598MOL0     H78874   6.368   4.705   6.447 -2.3790 -1.3400 -1.0087
  598MOL0     H78875   6.324   4.875   6.589  0.7020  1.2567  1.9819
  598MOL0     H78876   6.421   4.780   6.696 -2.6521 -2.5817  2.3823
  598MOL0     H78877   6.118   4.781   6.691  0.2514  1.2781 -1.4246
  598MOL0     H78878   6.212   4.872   6.817  1.5954 -0.9505  2.3717
  598MOL0     H78879   6.193   4.572   6.755  0.3994  3.6547 -3.6869
  598MOL0     H78880   6.299   4.640   6.886  1.0798  1.3111 -0.8195
  598MOL0     H78881   6.098   4.527   6.973  1.3672  0.8630  1.0725
  598MOL0     H78882   5.983   4.625   6.885 -0.2718 -0.1730  0.9758
  598MOL0     H78883   6.052   4.804   6.995  0.8846 -0.9440 -2.1004
  598MOL0     H78884   6.163   4.705   7.106  1.0591 -1.1249 -0.8140
  598MOL0     H78885   5.947   4.757   7.202  0.0757  0.3760  1.3497
  598MOL0     H78886   5.859   4.681   7.070  3.3550  2.1165 -2.8629
  598MOL0     H78887   5.874   4.565   7.302 -0.8610 -2.0162 -0.1377
  598MOL0     H78888   6.046   4.539   7.261 -0.7652  0.7127 -0.8990
  598MOL0     H78889   6.063   4.286   7.239  1.5750 -0.0082 -1.1650
  598MOL0     H78890   6.026   4.046   7.051  1.4038  0.4652  1.1351
  598MOL0     H78891   5.859   4.004   7.085  1.3177 -1.8310  0.2223
  598MOL0     H78892   5.937   4.036   7.342  0.1026  3.4736 -1.0179
  598MOL0     H78893   6.106   4.035   7.266  1.5626 -2.8032 -2.0933
  598MOL0     H78894   5.901   3.820   7.227  0.3678 -1.8191 -1.1197
  598MOL0     H78895   6.069   3.825   7.165  0.2600  0.7412  0.8392
  598MOL0     H78896   5.983   3.825   7.459  0.9837  1.8129  0.2078
  598MOL0     H78897   6.144   3.855   7.421  0.2310  0.7209 -2.7549
  598MOL0     H78898   6.338   3.791   7.360  1.7776 -0.7202  0.3008
  598MOL0     H78899   6.543   3.670   7.376 -2.1713  4.4161 -2.1098
  598MOL0     H78900   6.748   3.287   7.231 -1.5508  0.7042  1.6535
  598MOL0     H78901   6.957   3.144   7.205 -1.4018 -3.1261  0.1603
  598MOL0     H78902   7.076   2.804   7.425 -0.2298 -0.1591  0.7977
  598MOL0     H78903   7.100   2.920   7.557 -0.7735  0.8443 -1.1294
  598MOL0     H78904   7.311   2.801   7.472  1.2867  1.9053 -0.1658
  598MOL0     H78905   7.324   2.975   7.443 -2.6349  2.4944 -0.0686
  598MOL0     H78906   7.277   2.966   7.229  2.1955 -1.1513 -1.1171
  598MOL0     H78907   7.235   2.799   7.215 -0.3070  0.7300 -0.4310
  598MOL0     H78908   7.507   2.925   7.257 -1.1161  0.1553  0.0658
  598MOL0     H78909   7.481   2.767   7.322  1.0253  0.9105 -0.3584
  598MOL0     H78910   7.486   2.850   7.035 -0.2456  0.2038 -0.5350
  598MOL0     H78911   7.433   2.686   7.091  0.9310 -0.2910 -3.5508
  598MOL0     H78912   7.703   2.832   7.134 -1.6716  0.4512  0.6968
  598MOL0     H78913   7.667   2.722   6.995 -0.5426 -2.5874  0.2687
  598MOL0     H78914   7.671   2.631   7.294 -3.3137  0.0956 -0.2551
  598MOL0     H78915   7.641   2.534   7.147  0.2724 -0.3760  1.6390
  598MOL0     H78916   7.864   2.592   7.070 -3.5366 -0.1428 -1.6731
  598MOL0     H78917   7.849   2.508   7.227 -1.0176 -0.9986 -1.8374
  598MOL0     H78918   6.908   2.996   7.590  1.9623  0.0169 -1.1850
  598MOL0     H78919   6.696   3.135   7.618  0.7208  1.2777  0.5890
  598MOL0     H78920   6.339   3.307   7.487  1.3582  0.9226  2.5536
  598MOL0     H78921   6.124   3.424   7.432  0.3491 -0.1631 -0.4874
  598MOL0     H78922   6.254   4.480   6.370 -1.2244 -0.7525 -1.5858
  598MOL0     H78923   6.357   4.306   6.204  1.6527 -0.0566 -0.5812
  598MOL0     H78924   6.958   4.168   6.085  3.2299 -2.1496  0.8284
  598MOL0     H78925   7.050   3.978   5.961 -1.2389 -0.4629 -1.2509
  598MOL0     H78926   7.138   3.797   5.871 -1.8325  3.5233  0.0827
  598MOL0     H78927   7.001   3.790   5.758 -0.2175 -0.2290  0.5179
  598MOL0     H78928   7.098   3.546   5.899 -0.1282  3.6771  2.1563
  598MOL0     H78929   6.980   3.549   5.772 -0.1728  0.7108 -1.6247
  598MOL0     H78930   7.279   3.628   5.757 -1.3604  1.1997  0.6357
  598MOL0     H78931   7.171   3.644   5.621  2.3226 -0.1810 -1.9394
  598MOL0     H78932   7.236   3.377   5.742 -3.8861 -0.5969  0.1972
  598MOL0     H78933   7.152   3.390   5.590 -0.1831 -2.1995  1.0616
  598MOL0     H78934   7.534   3.477   5.455  1.3302 -0.9718  0.6335
  598MOL0     H78935   6.730   3.736   6.079 -1.1502  1.1907 -0.5362
  598MOL0     H78936   6.618   3.918   6.189 -1.0191  0.9984 -2.5778
  599MOL0     O78937   7.485   0.637   1.508  0.3176 -0.8378  0.0606
  599MOL0     C78938   7.467   0.514   1.503 -0.5372 -0.3341 -0.1416
  599MOL0     O78939   7.356   0.443   1.546 -0.1524  0.8916 -0.0114
  599MOL0     C78940   7.265   0.485   1.631  0.1597 -0.4729 -0.4303
  599MOL0     C78941   7.285   0.550   1.758 -1.2274 -0.7407  0.0274
  599MOL0     C78942   7.181   0.581   1.844  0.3007 -0.3473 -0.4114
  599MOL0     C78943   7.050   0.561   1.802 -0.3843 -0.1522 -0.5756
  599MOL0     O78944   6.938   0.574   1.882 -0.0258 -0.2497 -0.9138
  599MOL0     C78945   6.966   0.572   2.026  0.1534  0.1771 -0.1235
  599MOL0     C78946   6.829   0.574   2.108  0.1096  0.4662  1.5286
  599MOL0     C78947   6.847   0.510   2.241  0.2936 -0.6612 -0.2536
  599MOL0     C78948   6.969   0.547   2.314 -0.3306 -0.5288 -0.4671
  599MOL0     C78949   6.978   0.467   2.447  0.4684 -0.8918 -0.2742
  599MOL0     C78950   6.869   0.511   2.548  0.1701  0.2303  0.4694
  599MOL0     C78951   6.897   0.474   2.695  0.0740 -0.4387  0.5112
  599MOL0     C78952   6.945   0.329   2.715 -0.4373 -0.6389  0.9735
  599MOL0     N78953   7.021   0.307   2.841  0.3328  0.0593  1.0845
  599MOL0     C78954   6.976   0.311   2.968 -0.0762  0.7556 -0.1025
  599MOL0     C78955   7.086   0.268   3.042 -0.2778 -0.0605 -0.3845
  599MOL0     C78956   7.102   0.253   3.199 -0.4067 -0.3866  1.0050
  599MOL0     C78957   7.109   0.103   3.232  1.0202 -0.4194  0.8032
  599MOL0     C78958   7.148   0.091   3.383  0.1318 -0.5538  0.0788
  599MOL0     C78959   7.159  -0.051   3.440  0.4847 -0.3217 -0.0853
  599MOL0     O78960   7.026  -0.117   3.456 -0.2611  0.0212 -0.2405
  599MOL0     C78961   7.006  -0.228   3.544  0.6594 -0.7805  0.0572
  599MOL0     C78962   6.879  -0.256   3.584  0.3826 -0.3009 -0.1792
  599MOL0     C78963   6.849  -0.344   3.695 -0.7488  0.2310  0.2346
  599MOL0     C78964   6.960  -0.381   3.774  0.2885  0.2794 -0.0371
  599MOL0     C78965   6.930  -0.467   3.892  0.2586 -0.5192  0.2369
  599MOL0     O78966   7.030  -0.473   3.982 -0.6042  0.8140 -1.1193
  599MOL0     C78967   7.015  -0.540   4.101  0.0443 -0.3447  0.1941
  599MOL0     C78968   7.011  -0.683   4.117  0.2384  0.1285  0.0811
  599MOL0     C78969   6.989  -0.744   4.238 -0.0071 -0.4693 -0.8827
  599MOL0     C78970   6.982  -0.662   4.345  0.3893 -0.2915  0.1803
  599MOL0     O78971   6.976  -0.730   4.463  0.3487  0.2036  0.7155
  599MOL0     C78972   7.031  -0.684   4.584 -0.9111  0.5306 -0.2527
  599MOL0     C78973   7.031  -0.800   4.686 -0.2620 -0.9911  0.0859
  599MOL0     C78974   7.069  -0.927   4.622 -0.3351 -0.7530 -0.7889
  599MOL0     C78975   7.102  -1.028   4.725  0.9240 -0.4199 -1.0306
  599MOL0     C78976   7.093  -1.160   4.663  0.5372 -0.2490  0.0469
  599MOL0     C78977   7.113  -1.258   4.761  1.1043 -0.2491  0.5733
  599MOL0     C78978   7.230  -1.235   4.847 -0.6380 -1.0131  0.8858
  599MOL0     C78979   7.259  -1.361   4.923  0.4892  0.9308  0.3811
  599MOL0    Cl78980   7.410  -1.314   5.021  0.0567 -0.2606  0.4649
  599MOL0     C78981   6.981  -0.526   4.341  0.0075  0.1656  0.4414
  599MOL0     C78982   7.010  -0.464   4.218  0.2968 -0.0615  0.4671
  599MOL0     O78983   6.833  -0.544   3.888  0.0873  0.1478 -0.0145
  599MOL0     C78984   7.102  -0.361   3.728 -0.7571  0.3321  0.1679
  599MOL0     C78985   7.111  -0.289   3.607 -0.1057 -0.3685 -0.2933
  599MOL0     N78986   7.198   0.247   2.960  0.5452 -1.1494  0.4604
  599MOL0     N78987   7.154   0.274   2.831  0.0257  0.4582 -0.7320
  599MOL0     C78988   7.029   0.516   1.673 -0.6004 -0.6842 -0.6832
  599MOL0     C78989   7.133   0.470   1.597 -0.4230 -0.1104 -0.2295
  599MOL0     C78990   7.581   0.433   1.462  0.4371 -0.9202 -0.6042
  599MOL0     C78991   7.704   0.486   1.417 -0.2371 -0.6719  0.0709
  599MOL0     C78992   7.810   0.394   1.392  0.3715 -1.0029 -0.9666
  599MOL0     C78993   7.800   0.259   1.419 -0.1435 -0.5048 -0.3831
  599MOL0     O78994   7.898   0.178   1.372 -0.1712  0.3386 -0.3557
  599MOL0     C78995   7.866   0.103   1.257 -0.5355  0.2857  0.2381
  599MOL0     C78996   7.989   0.041   1.184 -0.0515  0.3603  0.2109
  599MOL0     C78997   8.130   0.048   1.255 -0.9640  0.7836 -0.2905
  599MOL0     C78998   8.144   0.004   1.408 -0.0762  0.3759 -0.5791
  599MOL0     C78999   8.128  -0.139   1.432  1.1731  0.6493 -0.0886
  599MOL0     C79000   8.110  -0.250   1.471  0.2334 -0.5558  0.1001
  599MOL0     C79001   7.679   0.211   1.467  0.6293  0.6671  0.2466
  599MOL0     C79002   7.575   0.294   1.491  0.2950 -0.1083 -0.4061
  599MOL0     H79003   7.385   0.571   1.795  0.3058 -2.0075 -2.9672
  599MOL0     H79004   7.220   0.590   1.945  2.1899  1.1255 -1.2094
  599MOL0     H79005   7.027   0.659   2.054 -0.3079 -0.0822  1.8614
  599MOL0     H79006   7.018   0.480   2.053 -0.3436 -0.1206 -0.1802
  599MOL0     H79007   6.752   0.521   2.051  0.1546  0.8496  1.1081
  599MOL0     H79008   6.800   0.679   2.114 -1.4390  0.0805  1.2718
  599MOL0     H79009   6.850   0.405   2.211 -1.0427 -0.7703 -0.0494
  599MOL0     H79010   6.767   0.548   2.305  2.1137  0.7731  1.3407
  599MOL0     H79011   7.052   0.515   2.251 -1.3173 -2.6039 -0.8072
  599MOL0     H79012   6.970   0.652   2.345 -0.4337 -0.6892  0.0901
  599MOL0     H79013   7.077   0.504   2.476  0.5852 -1.7680  0.5050
  599MOL0     H79014   6.991   0.359   2.438  0.3935 -0.9422  0.1925
  599MOL0     H79015   6.774   0.462   2.521  0.2823  0.9219 -1.3417
  599MOL0     H79016   6.852   0.617   2.527 -1.1038  0.1201  0.8659
  599MOL0     H79017   6.974   0.544   2.731 -1.7016  1.0306  1.6584
  599MOL0     H79018   6.805   0.509   2.742 -0.9552  3.3496 -3.6688
  599MOL0     H79019   7.007   0.291   2.633 -1.8121 -0.5612 -0.1404
  599MOL0     H79020   6.849   0.278   2.728 -0.3611 -0.7387  1.1458
  599MOL0     H79021   6.877   0.327   3.008 -0.1455 -0.6665  0.3668
  599MOL0     H79022   7.006   0.287   3.241 -0.4312  0.0792  0.5755
  599MOL0     H79023   7.185   0.307   3.245 -0.7322  0.6215  0.4340
  599MOL0     H79024   7.191   0.054   3.179 -0.0107 -0.3988 -0.8765
  599MOL0     H79025   7.014   0.051   3.214  0.5357  0.6537  0.1696
  599MOL0     H79026   7.239   0.146   3.408 -0.5744  1.2703 -1.1668
  599MOL0     H79027   7.068   0.139   3.439  0.2749  0.9862 -0.9644
  599MOL0     H79028   7.210  -0.049   3.537  2.6925 -1.8829 -1.1382
  599MOL0     H79029   7.212  -0.112   3.367  2.4332  2.8763 -1.5800
  599MOL0     H79030   6.792  -0.207   3.542 -2.0640 -2.6718  1.7425
  599MOL0     H79031   6.747  -0.362   3.728 -2.0355  1.5771 -2.6436
  599MOL0     H79032   7.019  -0.752   4.034  2.1106  2.2168 -1.5894
  599MOL0     H79033   6.969  -0.850   4.251  2.0105 -0.8552 -0.6116
  599MOL0     H79034   6.982  -0.594   4.624 -0.9413  0.5050 -0.2316
  599MOL0     H79035   7.134  -0.653   4.565 -0.8142 -0.0850 -0.7409
  599MOL0     H79036   6.933  -0.799   4.736 -0.7918 -0.2624 -0.9376
  599MOL0     H79037   7.097  -0.778   4.771  0.8247 -0.5359 -0.8440
  599MOL0     H79038   7.142  -0.925   4.541 -1.4304 -3.2595 -1.9694
  599MOL0     H79039   6.980  -0.967   4.572 -0.5578 -0.7934 -0.3617
  599MOL0     H79040   7.200  -1.005   4.768 -0.1267 -1.9797  2.5942
  599MOL0     H79041   7.025  -1.016   4.802  2.3347  4.9798 -0.0192
  599MOL0     H79042   7.171  -1.183   4.589  0.9432 -1.9139  0.9213
  599MOL0     H79043   7.003  -1.175   4.603  1.6366  2.3905 -2.5068
  599MOL0     H79044   7.112  -1.358   4.716 -2.8072 -0.2224  0.2341
  599MOL0     H79045   7.021  -1.265   4.820 -1.0499 -0.7841 -2.5932
  599MOL0     H79046   7.313  -1.207   4.782 -0.5339  1.8699  2.0894
  599MOL0     H79047   7.213  -1.154   4.919 -2.4920 -0.1813 -0.4077
  599MOL0     H79048   7.280  -1.440   4.850 -2.5680  0.2868  0.0332
  599MOL0     H79049   7.174  -1.388   4.986  0.0694  0.5424 -0.3277
  599MOL0     H79050   6.984  -0.467   4.432 -2.7263 -0.8736  1.3171
  599MOL0     H79051   7.034  -0.359   4.203  1.9154 -0.7940 -3.1075
  599MOL0     H79052   7.184  -0.394   3.790  0.4825  1.7173 -0.6647
  599MOL0     H79053   7.212  -0.258   3.583 -0.0698 -1.7388 -2.0660
  599MOL0     H79054   6.929   0.497   1.636 -1.7508 -0.4396  2.0432
  599MOL0     H79055   7.130   0.423   1.500  1.1833 -0.6431 -0.0572
  599MOL0     H79056   7.708   0.594   1.412 -1.2572 -0.5402  1.4223
  599MOL0     H79057   7.907   0.426   1.356  0.8163  0.0439  1.0005
  599MOL0     H79058   7.818   0.172   1.187  2.6182 -0.8157 -3.3626
  599MOL0     H79059   7.793   0.025   1.281 -1.1953  0.6983 -0.3995
  599MOL0     H79060   7.955  -0.052   1.139 -1.5425  1.0342 -0.1140
  599MOL0     H79061   8.004   0.112   1.102 -0.2779  2.3503  1.8098
  599MOL0     H79062   8.178   0.145   1.239  1.6336 -0.3854 -0.1008
  599MOL0     H79063   8.193  -0.026   1.205 -0.3808  0.2444  1.1860
  599MOL0     H79064   8.248   0.021   1.436  0.8587 -0.9507 -2.9138
  599MOL0     H79065   8.074   0.060   1.471  0.3840 -0.1106  0.3805
  599MOL0     H79066   8.081  -0.333   1.532  0.6743 -1.2498 -0.6141
  599MOL0     H79067   7.679   0.105   1.488  3.0435  0.6739  0.5847
  599MOL0     H79068   7.481   0.254   1.530 -0.7026  2.4466  0.0010
  600MOL0     O79069   8.020   9.569  10.051  0.2813  0.5470 -0.4049
  600MOL0     C79070   8.052   9.525  10.163  0.2999  0.3742 -1.2489
  600MOL0     O79071   8.160   9.567  10.238  0.0371  0.2478 -0.4464
  600MOL0     C79072   8.236   9.660  10.167  0.1178 -0.8770 -0.3751
  600MOL0     C79073   8.211   9.806  10.175 -1.1927  0.5603 -0.3961
  600MOL0     C79074   8.304   9.886  10.104  0.3253 -0.1748 -0.6184
  600MOL0     C79075   8.404   9.827  10.015  0.3888  0.7411  0.3572
  600MOL0     O79076   8.498   9.914   9.951 -1.0248 -0.3803 -0.1879
  600MOL0     C79077   8.549  10.030  10.022 -1.1746  0.4115  0.3615
  600MOL0     C79078   8.653  10.098   9.938 -0.0256 -0.8814  0.1207
  600MOL0     C79079   8.596  10.171   9.819  1.6255  0.7053  0.1922
  600MOL0     C79080   8.690  10.206   9.716 -0.4777 -0.8316  0.0449
  600MOL0     C79081   8.664  10.348   9.660  0.3255  0.1762  0.2941
  600MOL0     C79082   8.724  10.465   9.745 -0.6725 -0.0362 -0.4595
  600MOL0     C79083   8.863  10.514   9.716  0.0815 -0.1050  0.2349
  600MOL0     C79084   8.900  10.630   9.800  0.3165  0.5711 -1.1447
  600MOL0     N79085   8.807  10.748   9.833  0.3667 -0.3645 -0.5522
  600MOL0     C79086   8.774  10.851   9.745 -1.7270  1.1440 -0.0620
  600MOL0     C79087   8.694  10.933   9.816 -0.8811  0.0620  0.4822
  600MOL0     C79088   8.610  11.061   9.765 -1.2909 -1.7839 -0.1693
  600MOL0     C79089   8.491  11.058   9.661  0.1466 -1.4280  0.8796
  600MOL0     C79090   8.436  11.185   9.598 -1.6285 -0.1861 -0.5968
  600MOL0     C79091   8.370  11.263   9.714  0.3388 -0.3314  0.7579
  600MOL0     O79092   8.291  11.367   9.654 -0.0994 -0.2934  0.1095
  600MOL0     C79093   8.331  11.456   9.560 -0.1328 -0.3124  0.0216
  600MOL0     C79094   8.235  11.503   9.475  0.4898  0.0902 -0.2524
  600MOL0     C79095   8.270  11.620   9.394 -0.3051  0.3071 -0.5875
  600MOL0     C79096   8.405  11.662   9.381  0.4117 -0.5352 -0.0614
  600MOL0     C79097   8.437  11.770   9.286 -0.2986  0.4208  1.0719
  600MOL0     O79098   8.566  11.763   9.251  0.2148 -0.1405  0.0639
  600MOL0     C79099   8.620  11.871   9.184 -0.3429  0.0780  0.2416
  600MOL0     C79100   8.654  11.995   9.242  0.5282 -0.1227 -0.1453
  600MOL0     C79101   8.678  12.107   9.163 -0.0809 -0.1188  0.1824
  600MOL0     C79102   8.671  12.102   9.021  0.1743  0.1331 -0.2254
  600MOL0     O79103   8.652  12.222   8.942  0.8841 -0.9211 -0.4736
  600MOL0     C79104   8.681  12.346   9.005  0.5069 -0.3430 -0.2609
  600MOL0     C79105   8.827  12.359   9.027  0.3125  0.1830 -0.3756
  600MOL0     C79106   8.874  12.500   9.021 -0.3528 -0.1626 -0.4444
  600MOL0     C79107   8.813  12.607   9.116  0.5039 -0.1273  0.2862
  600MOL0     C79108   8.856  12.751   9.080  0.0433  0.0162 -0.4502
  600MOL0     C79109   9.006  12.767   9.105  0.1838  0.1057  0.8373
  600MOL0     C79110   9.051  12.902   9.055  0.3082 -0.1966 -0.3658
  600MOL0     C79111   9.131  12.885   8.936 -0.2178  1.3461  0.0553
  600MOL0    Cl79112   9.295  12.841   8.989 -0.2414 -0.2429 -0.3117
  600MOL0     C79113   8.642  11.983   8.968  0.9129 -0.2813 -0.5818
  600MOL0     C79114   8.619  11.868   9.044  0.7778 -0.0909  0.3516
  600MOL0     O79115   8.362  11.860   9.251  0.2758  0.1177  0.1176
  600MOL0     C79116   8.502  11.606   9.461  1.3648  0.3387 -1.0186
  600MOL0     C79117   8.461  11.504   9.558 -0.2449 -0.6125 -0.2674
  600MOL0     N79118   8.695  10.893   9.950  1.0079 -0.2817 -0.2842
  600MOL0     N79119   8.762  10.782   9.961 -0.8077 -0.0296 -0.5319
  600MOL0     C79120   8.418   9.691   9.994 -0.5394  0.4348 -0.8960
  600MOL0     C79121   8.334   9.615  10.078 -0.2823  0.1788 -0.1996
  600MOL0     C79122   7.972   9.426  10.232  0.4614  0.9376 -0.0153
  600MOL0     C79123   7.985   9.388  10.365  0.4152 -0.6755 -0.0897
  600MOL0     C79124   7.904   9.287  10.417  0.3236 -0.4324 -0.0645
  600MOL0     C79125   7.800   9.232  10.344 -0.5446  0.1845  0.3578
  600MOL0     O79126   7.723   9.134  10.403 -0.8767 -0.3255  0.0534
  600MOL0     C79127   7.607   9.167  10.484 -0.4273  0.0710  0.0641
  600MOL0     C79128   7.509   9.254  10.399  0.2296 -0.4634 -0.9058
  600MOL0     C79129   7.446   9.158  10.300 -0.2830  0.4751 -0.8833
  600MOL0     C79130   7.316   9.106  10.358 -0.1509  0.6961  0.1802
  600MOL0     C79131   7.203   9.204  10.350 -0.2255  0.5561  0.8945
  600MOL0     C79132   7.114   9.283  10.336  0.7053  0.6930  0.4618
  600MOL0     C79133   7.788   9.264  10.208  0.4103 -0.2919  0.4292
  600MOL0     C79134   7.871   9.360  10.154  0.1527 -0.4687  0.7030
  600MOL0     H79135   8.135   9.842  10.244  0.3928  1.3069  1.0403
  600MOL0     H79136   8.292   9.993  10.096  1.8454  0.1184  0.4838
  600MOL0     H79137   8.599  10.000  10.114 -0.5432  2.1844  0.6369
  600MOL0     H79138   8.466  10.090  10.060 -3.5063 -3.2244  1.5286
  600MOL0     H79139   8.726  10.030   9.893 -1.6428 -0.7157 -2.9993
  600MOL0     H79140   8.702  10.175   9.999 -0.8756 -1.5474  1.7131
  600MOL0     H79141   8.546  10.261   9.856  3.0861  0.9956  1.5798
  600MOL0     H79142   8.521  10.114   9.763 -0.5345  2.1181  1.4620
  600MOL0     H79143   8.795  10.209   9.747 -0.0018  1.1300 -1.5140
  600MOL0     H79144   8.684  10.139   9.630 -0.7484  1.1608 -1.5705
  600MOL0     H79145   8.561  10.360   9.623  1.0028 -1.2448 -2.2821
  600MOL0     H79146   8.720  10.349   9.567  0.5364 -0.5732  0.4138
  600MOL0     H79147   8.720  10.419   9.844  0.8533 -2.0928 -1.2731
  600MOL0     H79148   8.653  10.548   9.744 -0.5860  0.0655  0.4927
  600MOL0     H79149   8.931  10.431   9.737 -1.8431 -2.2778 -1.6115
  600MOL0     H79150   8.875  10.541   9.611  1.3859  4.0745  1.2272
  600MOL0     H79151   8.997  10.672   9.771  0.2977  1.1267 -0.4430
  600MOL0     H79152   8.921  10.584   9.897 -3.7651 -1.6817 -1.1331
  600MOL0     H79153   8.790  10.860   9.638  0.0637 -0.9542 -0.0345
  600MOL0     H79154   8.690  11.117   9.715  0.0647 -3.4907  0.0067
  600MOL0     H79155   8.581  11.113   9.857 -1.6763 -3.6373  0.8004
  600MOL0     H79156   8.416  10.990   9.703 -0.6785 -1.5937 -0.8086
  600MOL0     H79157   8.533  10.997   9.581  1.2183 -2.7008  2.3380
  600MOL0     H79158   8.507  11.255   9.554 -0.9316 -0.4612  0.0659
  600MOL0     H79159   8.352  11.163   9.531 -3.1662  2.5246  0.2696
  600MOL0     H79160   8.457  11.292   9.774  0.2314 -0.5445  1.0190
  600MOL0     H79161   8.308  11.198   9.776  0.3455  1.2912  2.5566
  600MOL0     H79162   8.134  11.464   9.465 -0.4515  2.6511 -1.7254
  600MOL0     H79163   8.203  11.671   9.326 -2.4408  0.8688  1.7666
  600MOL0     H79164   8.645  12.016   9.348 -2.8337 -0.1053 -0.3231
  600MOL0     H79165   8.697  12.199   9.218  1.3653 -0.1562 -0.2106
  600MOL0     H79166   8.631  12.367   9.100  1.4597  0.1261  0.1536
  600MOL0     H79167   8.640  12.424   8.941  1.8102 -0.8665 -1.7995
  600MOL0     H79168   8.886  12.302   8.954  2.5341  1.6272  0.1862
  600MOL0     H79169   8.852  12.321   9.127 -1.0301 -1.4797 -0.6279
  600MOL0     H79170   8.859  12.532   8.917  2.9732  0.2687 -0.9077
  600MOL0     H79171   8.981  12.497   9.040  0.2374  1.9519 -2.8305
  600MOL0     H79172   8.705  12.592   9.116  0.5840 -0.7526 -0.4170
  600MOL0     H79173   8.843  12.585   9.219 -2.6876 -2.6128  0.8273
  600MOL0     H79174   8.804  12.829   9.135  2.0776  0.4381  1.0181
  600MOL0     H79175   8.844  12.764   8.972  3.4426 -4.0579 -1.6185
  600MOL0     H79176   9.068  12.687   9.064  1.6669  1.3253  0.6083
  600MOL0     H79177   9.026  12.774   9.212  2.9971  2.6328  0.2580
  600MOL0     H79178   8.960  12.959   9.034 -2.1465 -3.7291 -0.1297
  600MOL0     H79179   9.105  12.961   9.130 -0.5997 -0.7902  0.7962
  600MOL0     H79180   9.132  12.983   8.888 -1.4285  1.4694  0.2395
  600MOL0     H79181   9.090  12.817   8.861  0.6263  0.3864  0.4485
  600MOL0     H79182   8.620  11.986   8.861 -3.0746 -2.8871 -0.0760
  600MOL0     H79183   8.589  11.777   8.994 -0.2112  0.9151 -0.9731
  600MOL0     H79184   8.601  11.648   9.475  2.4927 -2.0442 -1.2399
  600MOL0     H79185   8.541  11.472   9.624  0.1631  3.6016  1.5471
  600MOL0     H79186   8.499   9.660   9.929  1.1850  0.9186  0.9202
  600MOL0     H79187   8.353   9.508  10.078 -3.6844 -0.5280  0.4536
  600MOL0     H79188   8.059   9.450  10.416  2.2690  1.2684 -4.5767
  600MOL0     H79189   7.913   9.254  10.519  0.2850 -1.0942 -0.2694
  600MOL0     H79190   7.640   9.227  10.569  1.2758 -0.0226 -0.5083
  600MOL0     H79191   7.563   9.074  10.521  2.2670 -1.2038  0.3126
  600MOL0     H79192   7.431   9.292  10.466 -1.6246 -4.6605 -0.3530
  600MOL0     H79193   7.561   9.336  10.350  1.8878 -1.2530 -0.5471
  600MOL0     H79194   7.505   9.067  10.286 -1.7585 -1.0299  1.8245
  600MOL0     H79195   7.423   9.195  10.200 -2.6410  1.6159  0.0087
  600MOL0     H79196   7.299   9.012  10.304  0.4177  0.6216  0.1282
  600MOL0     H79197   7.328   9.069  10.460 -0.5242 -0.9286 -0.3452
  600MOL0     H79198   7.033   9.348  10.313 -0.3823 -1.5453 -2.7645
  600MOL0     H79199   7.713   9.218  10.145  0.6245  0.2904 -0.2572
  600MOL0     H79200   7.880   9.386  10.049  2.5041 -0.3853  0.8667
  601MOL0     O79201   7.246   8.453   9.071  0.6151 -0.1997 -0.0812
  601MOL0     C79202   7.153   8.388   9.110  0.3369 -0.3808 -0.3358
  601MOL0     O79203   7.135   8.365   9.246  0.8150 -0.2339  0.4015
  601MOL0     C79204   7.212   8.415   9.354 -0.8077 -0.9143 -0.4978
  601MOL0     C79205   7.137   8.447   9.467 -0.9249 -0.4174 -0.7251
  601MOL0     C79206   7.204   8.497   9.586 -0.2098 -0.6176  0.4318
  601MOL0     C79207   7.333   8.550   9.580 -0.7755 -0.8124 -0.2254
  601MOL0     O79208   7.367   8.625   9.690  0.3422 -0.2232  0.0918
  601MOL0     C79209   7.472   8.718   9.675  0.2876  0.6939  0.0257
  601MOL0     C79210   7.486   8.799   9.807  0.0478 -0.3281 -0.0932
  601MOL0     C79211   7.626   8.856   9.844 -0.0973 -0.3181 -1.1004
  601MOL0     C79212   7.745   8.765   9.837  0.1900 -0.0226  0.5289
  601MOL0     C79213   7.878   8.832   9.891 -0.0414  0.1561  0.5240
  601MOL0     C79214   7.973   8.721   9.939 -0.3764 -0.1711 -1.5990
  601MOL0     C79215   8.102   8.791  10.006 -1.0140  0.3522 -0.3529
  601MOL0     C79216   8.088   8.824  10.155  0.4112  0.6247  0.0287
  601MOL0     N79217   8.219   8.828  10.209 -0.2898  0.3317 -0.5345
  601MOL0     C79218   8.307   8.718  10.221  0.1550 -0.3782 -0.3171
  601MOL0     C79219   8.404   8.765  10.309  0.7933 -0.8957  0.1277
  601MOL0     C79220   8.517   8.685  10.355  0.0605 -0.8529 -0.2801
  601MOL0     C79221   8.488   8.615  10.489  0.1100 -0.2583 -0.1769
  601MOL0     C79222   8.612   8.567  10.567  0.4485 -0.8181 -1.3673
  601MOL0     C79223   8.706   8.666  10.626  0.6886 -0.1990 -0.7601
  601MOL0     O79224   8.805   8.614  10.713  0.0484  0.2514 -0.2907
  601MOL0     C79225   8.912   8.692  10.735 -1.1946 -0.6277  0.1859
  601MOL0     C79226   8.936   8.824  10.679 -0.2061  1.0439  0.6220
  601MOL0     C79227   9.061   8.885  10.704 -0.1641  0.0520  0.2875
  601MOL0     C79228   9.160   8.813  10.780  0.4349  0.9848  0.3834
  601MOL0     C79229   9.295   8.876  10.800 -0.7555 -0.6326 -0.9313
  601MOL0     O79230   9.309   8.996  10.742 -0.3164 -0.6809 -0.5032
  601MOL0     C79231   9.430   9.058  10.778  0.8088  0.0487 -0.4176
  601MOL0     C79232   9.556   8.995  10.757  0.4347  0.0081  0.2276
  601MOL0     C79233   9.663   9.068  10.790  0.3628 -0.6470  0.0103
  601MOL0     C79234   9.658   9.200  10.841  0.5602 -0.2701  0.0370
  601MOL0     O79235   9.768   9.277  10.881  0.1267  0.4800 -0.5664
  601MOL0     C79236   9.893   9.211  10.891  0.0608  0.0797 -0.8004
  601MOL0     C79237   9.988   9.300  10.966 -0.0269 -0.6413  0.0628
  601MOL0     C79238   9.993   9.441  10.903  0.2678 -0.0264 -0.2509
  601MOL0     C79239  10.030   9.446  10.757  0.6102  0.3550 -0.0064
  601MOL0     C79240  10.177   9.401  10.736 -0.2212  0.2873  0.6190
  601MOL0     C79241  10.289   9.459  10.833  1.2049  0.3007 -0.2632
  601MOL0     C79242  10.288   9.608  10.822  0.1568  0.1501 -0.6163
  601MOL0     C79243  10.406   9.668  10.883  0.1831 -1.2617  0.3345
  601MOL0    Cl79244  10.357   9.846  10.930  0.0818  0.6429  0.3799
  601MOL0     C79245   9.534   9.261  10.868  0.3289  0.2368 -0.6202
  601MOL0     C79246   9.418   9.187  10.836 -0.6624 -0.9719  0.2571
  601MOL0     O79247   9.372   8.825  10.884  0.1436 -0.1455  0.0701
  601MOL0     C79248   9.133   8.684  10.829 -0.0337  0.9807 -0.1334
  601MOL0     C79249   9.011   8.626  10.809 -0.4238 -0.0052  0.2678
  601MOL0     N79250   8.383   8.907  10.327  0.4809  0.1426 -0.0362
  601MOL0     N79251   8.269   8.938  10.267  0.0490 -0.7283 -0.4909
  601MOL0     C79252   7.410   8.520   9.468 -0.3987  0.2709 -0.2229
  601MOL0     C79253   7.349   8.452   9.358  0.1431  0.0503  0.2080
  601MOL0     C79254   7.094   8.297   9.014 -0.3601  0.3083  0.1906
  601MOL0     C79255   7.138   8.282   8.881  0.1229  0.4724 -0.1312
  601MOL0     C79256   7.093   8.174   8.801 -1.1426  0.4207 -0.2023
  601MOL0     C79257   7.000   8.078   8.851 -1.0802  0.0740 -0.7799
  601MOL0     O79258   6.959   7.972   8.773 -0.8430  0.2682 -0.6232
  601MOL0     C79259   6.859   7.876   8.832 -0.8551 -0.6961 -0.5538
  601MOL0     C79260   6.844   7.759   8.735  0.4098 -0.7126 -0.2151
  601MOL0     C79261   6.751   7.780   8.616  0.0611  0.0247  0.4289
  601MOL0     C79262   6.747   7.652   8.525 -0.4136  0.3895  0.8649
  601MOL0     C79263   6.726   7.531   8.605 -0.1222 -0.2068 -0.0058
  601MOL0     C79264   6.717   7.439   8.690 -0.7583 -0.1054 -0.3019
  601MOL0     C79265   6.958   8.095   8.980  0.9186 -0.2724  0.3198
  601MOL0     C79266   7.000   8.199   9.058  0.2232 -0.8605 -0.1910
  601MOL0     H79267   7.029   8.438   9.469 -1.0648  1.1204  0.9151
  601MOL0     H79268   7.158   8.515   9.682 -2.6632 -3.0087 -0.1774
  601MOL0     H79269   7.452   8.776   9.585  0.8318 -1.8496 -1.8409
  601MOL0     H79270   7.565   8.659   9.669 -1.7248 -2.9731  1.6031
  601MOL0     H79271   7.460   8.723   9.881 -0.9518 -1.6520 -1.7187
  601MOL0     H79272   7.409   8.876   9.801  0.5131  0.0937 -0.7778
  601MOL0     H79273   7.617   8.878   9.951 -2.1382 -0.0496 -1.2845
  601MOL0     H79274   7.644   8.947   9.786  0.6284 -0.2848 -0.8327
  601MOL0     H79275   7.722   8.685   9.908 -1.8405  1.3503  1.4993
  601MOL0     H79276   7.763   8.731   9.735  0.8807 -1.0815  0.9848
  601MOL0     H79277   7.843   8.887   9.979 -4.5186 -1.3388 -0.0166
  601MOL0     H79278   7.931   8.899   9.824 -2.6784  1.3574 -0.4921
  601MOL0     H79279   8.007   8.646   9.867 -0.1926 -0.5217 -1.1469
  601MOL0     H79280   7.932   8.662  10.021 -0.2759  2.9372  0.8413
  601MOL0     H79281   8.187   8.723   9.992 -4.1342 -4.4934  1.6247
  601MOL0     H79282   8.127   8.881   9.948 -2.7693  0.1363 -1.5440
  601MOL0     H79283   8.036   8.740  10.200 -0.1852  0.1709 -1.4428
  601MOL0     H79284   8.031   8.916  10.174 -0.3996  0.1318  0.0126
  601MOL0     H79285   8.301   8.616  10.182 -0.7198  0.5883 -2.9357
  601MOL0     H79286   8.602   8.753  10.369 -0.1320 -1.0406  2.1551
  601MOL0     H79287   8.537   8.623  10.267  0.1539  2.6319 -2.9210
  601MOL0     H79288   8.430   8.523  10.479  0.5640 -0.4487 -1.1358
  601MOL0     H79289   8.437   8.689  10.553 -1.0688 -2.6652  1.8430
  601MOL0     H79290   8.580   8.501  10.649  1.7846  0.4683  0.2832
  601MOL0     H79291   8.673   8.506  10.499  0.4563  0.0525 -2.1567
  601MOL0     H79292   8.649   8.745  10.675  1.9750  0.7536 -0.7418
  601MOL0     H79293   8.758   8.698  10.535 -0.4463 -0.0616 -1.3916
  601MOL0     H79294   8.852   8.872  10.631 -0.4391 -0.0853 -0.1422
  601MOL0     H79295   9.078   8.981  10.656  0.8935 -0.8815 -1.2817
  601MOL0     H79296   9.569   8.900  10.705  2.2400 -0.6162  1.7425
  601MOL0     H79297   9.762   9.034  10.762  0.7748 -2.0265  2.8096
  601MOL0     H79298   9.950   9.188  10.800  1.5939 -0.9418  0.3784
  601MOL0     H79299   9.874   9.119  10.946  1.7219  0.5780  0.6999
  601MOL0     H79300  10.084   9.247  10.963 -1.3460 -3.1587 -1.5749
  601MOL0     H79301   9.946   9.312  11.067 -0.4966 -0.9742 -0.0872
  601MOL0     H79302  10.047   9.507  10.971  1.0971  0.0566 -0.9654
  601MOL0     H79303   9.892   9.482  10.911  0.1471 -0.6033  1.4624
  601MOL0     H79304   9.956   9.396  10.694  0.4804  2.4094 -1.5880
  601MOL0     H79305  10.030   9.547  10.716  1.1543 -0.4884 -2.1834
  601MOL0     H79306  10.204   9.416  10.632  0.9555  1.0159  1.0103
  601MOL0     H79307  10.182   9.293  10.754  0.8017  0.0802 -0.7589
  601MOL0     H79308  10.386   9.422  10.799  1.0467  1.2529 -1.8263
  601MOL0     H79309  10.253   9.434  10.933 -4.9729 -0.1816 -2.2076
  601MOL0     H79310  10.259   9.638  10.721  1.2592  0.7607 -0.7608
  601MOL0     H79311  10.203   9.646  10.880 -0.6777  0.5403 -2.0472
  601MOL0     H79312  10.498   9.663  10.824  0.8041 -3.9209  1.3987
  601MOL0     H79313  10.429   9.619  10.978 -0.2011  0.8664  1.5909
  601MOL0     H79314   9.532   9.365  10.897 -1.5538  0.2920 -0.8450
  601MOL0     H79315   9.322   9.236  10.849 -0.0567  1.2360 -2.5793
  601MOL0     H79316   9.208   8.630  10.885  1.1600  2.1035 -0.6043
  601MOL0     H79317   8.996   8.523  10.839 -0.2910 -0.8157 -2.2243
  601MOL0     H79318   7.512   8.556   9.460  0.5922 -2.0565  0.9784
  601MOL0     H79319   7.405   8.438   9.266 -0.8664 -0.1831 -0.3808
  601MOL0     H79320   7.222   8.344   8.850  3.5247 -2.5742  2.1489
  601MOL0     H79321   7.144   8.161   8.706 -0.2465  1.3326  0.1355
  601MOL0     H79322   6.760   7.914   8.860  0.7426  2.4038  1.4787
  601MOL0     H79323   6.898   7.842   8.928 -3.5276 -1.7979  0.2384
  601MOL0     H79324   6.945   7.738   8.698  0.6791 -2.8508  1.4509
  601MOL0     H79325   6.805   7.671   8.788  1.3309  0.5189  2.7115
  601MOL0     H79326   6.788   7.866   8.560 -0.2976 -1.2475 -1.9159
  601MOL0     H79327   6.650   7.805   8.651 -0.3353 -1.7679  0.6730
  601MOL0     H79328   6.664   7.665   8.456 -0.4188 -0.3702  0.7205
  601MOL0     H79329   6.837   7.638   8.465 -0.9330  1.7303 -0.2705
  601MOL0     H79330   6.708   7.362   8.764  2.0044 -1.0637 -0.8228
  601MOL0     H79331   6.888   8.023   9.021 -1.3651  0.8419 -1.3683
  601MOL0     H79332   6.965   8.208   9.160  1.1218  0.8187 -0.0073
  602MOL0     O79333   9.123   0.110  10.949  0.1564  0.2525  0.2218
  602MOL0     C79334   9.117   0.117  10.823  0.5874 -0.5209 -1.1919
  602MOL0     O79335   9.028   0.053  10.740 -0.3831 -0.5710  1.0251
  602MOL0     C79336   8.919  -0.018  10.782  0.7328 -0.0262 -0.3014
  602MOL0     C79337   8.855  -0.008  10.908 -0.8075 -0.0231  0.0334
  602MOL0     C79338   8.739  -0.063  10.939 -0.9600  0.8385  0.3129
  602MOL0     C79339   8.676  -0.149  10.846 -0.4163  0.4011  1.3383
  602MOL0     O79340   8.574  -0.228  10.907  0.2429 -0.1369  0.5469
  602MOL0     C79341   8.472  -0.268  10.815  0.1179  0.3990  0.4947
  602MOL0     C79342   8.363  -0.353  10.891  0.0106 -0.2052  0.6712
  602MOL0     C79343   8.426  -0.465  10.976  0.7757  0.0947  0.4694
  602MOL0     C79344   8.303  -0.550  11.035 -0.4644  0.0628 -0.0769
  602MOL0     C79345   8.361  -0.661  11.125  0.2705 -0.1877 -0.2869
  602MOL0     C79346   8.439  -0.765  11.048  0.6532 -0.2794  0.1103
  602MOL0     C79347   8.516  -0.876  11.130  0.3607  0.2739  0.2491
  602MOL0     C79348   8.627  -0.830  11.217 -0.1999 -0.3790  0.4457
  602MOL0     N79349   8.711  -0.933  11.263  0.2258  0.2658 -0.9255
  602MOL0     C79350   8.655  -1.045  11.306  0.8176  0.7777 -0.7828
  602MOL0     C79351   8.759  -1.128  11.316 -0.4866 -0.8196  0.1885
  602MOL0     C79352   8.743  -1.274  11.362  0.1666  0.8426  0.6086
  602MOL0     C79353   8.749  -1.380  11.254  1.2585 -1.5867 -0.2253
  602MOL0     C79354   8.758  -1.532  11.299  0.6812 -0.6248 -0.3438
  602MOL0     C79355   8.624  -1.576  11.359  1.2463 -0.1655  0.6155
  602MOL0     O79356   8.532  -1.603  11.251 -0.3203  0.3971 -0.3469
  602MOL0     C79357   8.404  -1.648  11.267  0.4099 -0.5441 -1.0108
  602MOL0     C79358   8.325  -1.634  11.378  0.1033 -0.0487  0.6628
  602MOL0     C79359   8.207  -1.709  11.392  0.0132  0.1526  0.5509
  602MOL0     C79360   8.162  -1.788  11.285 -0.8972 -0.2049  0.6424
  602MOL0     C79361   8.039  -1.872  11.298 -0.9769  0.9378 -1.5623
  602MOL0     O79362   7.975  -1.874  11.422 -0.2628  0.6943 -0.7038
  602MOL0     C79363   7.867  -1.953  11.430  0.3930  0.2151  1.2651
  602MOL0     C79364   7.880  -2.086  11.464 -0.3037 -0.2809 -0.0300
  602MOL0     C79365   7.778  -2.176  11.487  0.0852  1.4696 -0.0468
  602MOL0     C79366   7.647  -2.132  11.456 -0.3823  0.5091 -0.0224
  602MOL0     O79367   7.549  -2.225  11.482  0.2756  0.0119  0.5010
  602MOL0     C79368   7.441  -2.225  11.389 -0.0799 -0.0787 -0.7346
  602MOL0     C79369   7.340  -2.331  11.382 -0.8088  0.7617 -0.1183
  602MOL0     C79370   7.236  -2.304  11.276 -0.4103  0.3590 -1.5744
  602MOL0     C79371   7.153  -2.427  11.253  0.0392  0.9570  0.3001
  602MOL0     C79372   7.016  -2.444  11.328 -0.5136 -0.0395  0.7454
  602MOL0     C79373   6.946  -2.579  11.297 -1.3978 -0.4231  0.1001
  602MOL0     C79374   6.820  -2.548  11.217 -0.4182  0.7121 -0.0156
  602MOL0     C79375   6.741  -2.679  11.165 -0.2170 -0.3403  0.8046
  602MOL0    Cl79376   6.624  -2.636  11.052 -0.1654 -0.0502 -0.0760
  602MOL0     C79377   7.621  -2.007  11.409 -0.1063  0.3228 -0.4081
  602MOL0     C79378   7.733  -1.921  11.391  0.1318 -0.1795  0.3246
  602MOL0     O79379   7.990  -1.917  11.200  0.1276  0.2759 -0.2029
  602MOL0     C79380   8.241  -1.796  11.171 -0.3810  0.0477  0.1716
  602MOL0     C79381   8.354  -1.719  11.159  1.3451  1.2539 -0.5647
  602MOL0     N79382   8.868  -1.068  11.277 -0.0765 -0.8222  0.2001
  602MOL0     N79383   8.845  -0.952  11.242  0.5995 -0.2338  0.3304
  602MOL0     C79384   8.737  -0.160  10.716 -0.2855 -0.3110 -0.8549
  602MOL0     C79385   8.851  -0.096  10.685  0.0506  0.2665  1.1819
  602MOL0     C79386   9.215   0.211  10.755  0.4560  0.2358  0.0859
  602MOL0     C79387   9.203   0.254  10.620 -0.1551  0.6051  0.6728
  602MOL0     C79388   9.295   0.348  10.571 -0.4410  0.1085  0.9148
  602MOL0     C79389   9.415   0.373  10.636 -0.8716 -0.7116 -0.2008
  602MOL0     O79390   9.522   0.451  10.591  0.5339  0.8052  0.5423
  602MOL0     C79391   9.490   0.546  10.488 -0.7147 -0.1267 -0.9418
  602MOL0     C79392   9.491   0.483  10.346  0.0420  0.0533  0.1059
  602MOL0     C79393   9.618   0.534  10.271 -0.8601  0.7993  0.3993
  602MOL0     C79394   9.744   0.484  10.333 -0.2384 -1.4250 -0.1222
  602MOL0     C79395   9.860   0.571  10.293 -0.6644 -0.3837  1.1104
  602MOL0     C79396   9.955   0.640  10.262  0.2526 -1.0500  0.6802
  602MOL0     C79397   9.436   0.310  10.762  0.1496  0.6989 -0.4062
  602MOL0     C79398   9.332   0.239  10.820  0.2200  0.1203 -1.0656
  602MOL0     H79399   8.899   0.061  10.980 -0.7052 -1.2305  1.1675
  602MOL0     H79400   8.696  -0.061  11.039  0.1370 -1.3150  0.8884
  602MOL0     H79401   8.529  -0.330  10.746 -2.7842  0.6914 -2.4164
  602MOL0     H79402   8.433  -0.174  10.774  2.9209  2.8548  2.9490
  602MOL0     H79403   8.289  -0.391  10.820 -0.3872 -2.0750  2.0177
  602MOL0     H79404   8.310  -0.280  10.953  2.4885  0.1578  2.4925
  602MOL0     H79405   8.479  -0.416  11.058 -1.8597 -0.4197  2.6359
  602MOL0     H79406   8.498  -0.521  10.915  2.1444  4.0009 -1.8523
  602MOL0     H79407   8.224  -0.488  11.079 -0.5331 -1.9942  2.9330
  602MOL0     H79408   8.257  -0.605  10.952  0.4941  1.0593 -1.3188
  602MOL0     H79409   8.281  -0.717  11.174  1.7340 -1.0710  1.1896
  602MOL0     H79410   8.419  -0.626  11.212 -0.2806 -2.5468  1.1054
  602MOL0     H79411   8.519  -0.714  10.993  0.3544 -0.0574 -0.1235
  602MOL0     H79412   8.367  -0.806  10.976 -0.5080  2.1524 -0.2337
  602MOL0     H79413   8.449  -0.918  11.205  1.8731  0.1836  1.6147
  602MOL0     H79414   8.558  -0.951  11.062 -0.3005 -0.4984  0.6818
  602MOL0     H79415   8.575  -0.785  11.302 -2.5860  1.8605 -1.9904
  602MOL0     H79416   8.695  -0.752  11.180  2.4885 -2.0579  1.5584
  602MOL0     H79417   8.547  -1.050  11.321  0.6940  3.1331 -0.4971
  602MOL0     H79418   8.652  -1.288  11.422 -0.4449  1.2667 -0.1887
  602MOL0     H79419   8.822  -1.294  11.434  0.0410  1.4744  0.9265
  602MOL0     H79420   8.831  -1.359  11.186  0.5393  1.1020 -0.3995
  602MOL0     H79421   8.656  -1.378  11.196  0.3711  5.8815  0.4296
  602MOL0     H79422   8.783  -1.588  11.208  0.5013 -0.4358 -0.5094
  602MOL0     H79423   8.834  -1.536  11.377 -0.1291  0.1276  0.5173
  602MOL0     H79424   8.580  -1.491  11.412  1.0457  0.2803 -0.2519
  602MOL0     H79425   8.642  -1.648  11.439  0.2539 -0.4953  0.5592
  602MOL0     H79426   8.358  -1.562  11.452 -1.0369  4.9489 -3.2016
  602MOL0     H79427   8.152  -1.708  11.485 -1.0225 -3.6036  0.1253
  602MOL0     H79428   7.982  -2.122  11.463 -0.4084 -0.6989 -2.2990
  602MOL0     H79429   7.806  -2.273  11.527 -0.9945  0.9046 -0.6262
  602MOL0     H79430   7.487  -2.209  11.291  1.0721  1.4623  0.0138
  602MOL0     H79431   7.382  -2.135  11.407 -1.7464 -1.5552  1.8676
  602MOL0     H79432   7.287  -2.332  11.477  0.4929 -1.3075  0.6729
  602MOL0     H79433   7.398  -2.418  11.348 -0.5041  1.2245 -0.8056
  602MOL0     H79434   7.294  -2.284  11.186  0.1260 -2.2585 -1.8741
  602MOL0     H79435   7.178  -2.212  11.295  1.6916  1.3238  0.7206
  602MOL0     H79436   7.146  -2.448  11.146  2.1706  1.4509  0.0082
  602MOL0     H79437   7.206  -2.517  11.286  0.5661  1.5283  1.0404
  602MOL0     H79438   6.958  -2.356  11.300  0.7983  0.2861 -1.0854
  602MOL0     H79439   7.040  -2.438  11.435  1.0308  0.9667  0.3720
  602MOL0     H79440   6.917  -2.632  11.389 -2.7017  0.3307  0.1526
  602MOL0     H79441   7.024  -2.635  11.245 -0.7029 -0.2696  0.9568
  602MOL0     H79442   6.754  -2.483  11.275 -2.1611  1.4711 -2.6731
  602MOL0     H79443   6.842  -2.489  11.128 -1.3261  0.7655 -0.2056
  602MOL0     H79444   6.694  -2.725  11.253 -2.4087  0.9835  0.3970
  602MOL0     H79445   6.810  -2.745  11.113 -1.4976 -0.0968 -1.3036
  602MOL0     H79446   7.520  -1.969  11.393 -1.7667 -3.1666  0.8923
  602MOL0     H79447   7.715  -1.817  11.365 -0.3403 -0.5605 -0.9003
  602MOL0     H79448   8.209  -1.848  11.082  3.5109 -0.4516 -1.1305
  602MOL0     H79449   8.410  -1.725  11.066  0.9663 -1.7256 -0.6730
  602MOL0     H79450   8.697  -0.228  10.641 -1.4919 -3.3185  2.2319
  602MOL0     H79451   8.883  -0.108  10.582 -1.2303  0.9455  0.6691
  602MOL0     H79452   9.128   0.206  10.558  0.4232  1.1535 -0.4678
  602MOL0     H79453   9.263   0.386  10.474  3.6337  3.4836  0.5957
  602MOL0     H79454   9.576   0.614  10.488 -1.2213  0.5397 -1.7509
  602MOL0     H79455   9.405   0.610  10.512 -0.0198  2.4202 -4.3069
  602MOL0     H79456   9.484   0.374  10.352 -3.6691  0.1618  0.2216
  602MOL0     H79457   9.406   0.522  10.290  1.1514  1.2295 -0.8018
  602MOL0     H79458   9.612   0.642  10.258  0.1325  0.6140 -2.1748
  602MOL0     H79459   9.617   0.500  10.167 -0.1613  1.2552  0.2419
  602MOL0     H79460   9.747   0.477  10.442 -0.2962  4.5258  0.6082
  602MOL0     H79461   9.762   0.386  10.287  4.0481 -1.5231  1.3607
  602MOL0     H79462  10.025   0.707  10.216  0.7922 -1.2979  1.1214
  602MOL0     H79463   9.530   0.302  10.815  1.0580  0.4962 -1.9869
  602MOL0     H79464   9.354   0.191  10.915  2.6840 -2.1267 -2.6312
  603MOL0     O79465   2.873   6.153  11.260  0.0822 -0.4536 -1.3115
  603MOL0     C79466   2.851   6.194  11.145  1.4384  0.1789  0.3634
  603MOL0     O79467   2.797   6.117  11.039 -0.3410  1.3424  0.0501
  603MOL0     C79468   2.783   5.984  11.073  0.3761 -0.5428  0.3856
  603MOL0     C79469   2.657   5.942  11.132 -0.1023 -1.3066 -0.0357
  603MOL0     C79470   2.625   5.821  11.188 -0.7457 -0.4247 -1.0656
  603MOL0     C79471   2.737   5.734  11.181 -0.7153  0.3072 -0.2145
  603MOL0     O79472   2.733   5.605  11.228  0.3721  0.2274  0.1623
  603MOL0     C79473   2.614   5.532  11.197  0.2599  0.6315 -0.7565
  603MOL0     C79474   2.535   5.502  11.327 -0.7127  0.7386  0.1500
  603MOL0     C79475   2.627   5.492  11.454 -0.3689 -0.0449  0.0707
  603MOL0     C79476   2.551   5.423  11.572  0.2904  0.1426 -0.6857
  603MOL0     C79477   2.650   5.354  11.672  1.4708  0.7665 -0.9366
  603MOL0     C79478   2.570   5.277  11.772  0.3561 -0.3535  0.1888
  603MOL0     C79479   2.658   5.199  11.882  1.0606  0.4348  0.8181
  603MOL0     C79480   2.750   5.283  11.962  0.5252 -0.1991 -0.2130
  603MOL0     N79481   2.689   5.387  12.039  0.0855  0.1878 -0.1115
  603MOL0     C79482   2.742   5.500  12.100 -0.1076 -0.4619  0.2148
  603MOL0     C79483   2.640   5.558  12.170  0.0766  0.5157  0.5907
  603MOL0     C79484   2.660   5.695  12.221  0.3981  0.1327  0.3067
  603MOL0     C79485   2.625   5.697  12.373  0.4283  0.1112  1.7946
  603MOL0     C79486   2.668   5.822  12.449  0.3364 -0.4763 -0.3980
  603MOL0     C79487   2.816   5.845  12.466  0.4363  0.1470 -0.4717
  603MOL0     O79488   2.867   5.728  12.528 -0.0317 -0.3765 -0.2204
  603MOL0     C79489   3.006   5.739  12.543  0.6030 -0.6041 -0.2513
  603MOL0     C79490   3.087   5.662  12.471 -0.8795 -0.2507  0.7562
  603MOL0     C79491   3.229   5.667  12.488  0.0425  0.8645 -0.0743
  603MOL0     C79492   3.290   5.751  12.582  1.0274 -0.5248  0.9557
  603MOL0     C79493   3.427   5.764  12.600 -0.5525  0.8066 -0.0101
  603MOL0     O79494   3.475   5.882  12.629  0.3829  0.4716  0.3007
  603MOL0     C79495   3.611   5.906  12.620  0.4227  0.0429 -0.2932
  603MOL0     C79496   3.700   5.896  12.727  0.5962  0.4831 -0.4327
  603MOL0     C79497   3.836   5.931  12.717 -0.0225 -0.4423  0.2076
  603MOL0     C79498   3.887   5.963  12.597 -0.9851 -0.4788 -0.1281
  603MOL0     O79499   4.019   5.995  12.591 -0.8051 -0.6993 -0.7790
  603MOL0     C79500   4.114   5.892  12.613  0.1137 -0.3834 -0.0331
  603MOL0     C79501   4.103   5.786  12.495  0.0686  0.1216 -1.3735
  603MOL0     C79502   4.151   5.843  12.360 -0.2748  0.1368  0.4933
  603MOL0     C79503   4.129   5.748  12.244 -0.2425 -0.4259 -0.4169
  603MOL0     C79504   4.152   5.816  12.110 -0.0164 -0.0829 -0.0272
  603MOL0     C79505   4.294   5.858  12.085 -0.1166 -0.3192  0.3553
  603MOL0     C79506   4.373   5.745  12.027  1.1222 -0.1675  0.0881
  603MOL0     C79507   4.406   5.745  11.873  0.6686 -0.1055  0.2970
  603MOL0    Cl79508   4.269   5.700  11.771  0.2117 -0.4676 -0.2913
  603MOL0     C79509   3.805   5.975  12.489 -0.0324 -0.0118  0.3297
  603MOL0     C79510   3.670   5.940  12.495  0.9765  1.1449 -0.6238
  603MOL0     O79511   3.489   5.657  12.591  0.4644  0.1414  0.2086
  603MOL0     C79512   3.206   5.833  12.659 -0.2455  0.1292 -0.0017
  603MOL0     C79513   3.071   5.836  12.624  0.3288  0.0345 -0.5500
  603MOL0     N79514   2.529   5.480  12.163 -0.1273 -0.4619 -0.0402
  603MOL0     N79515   2.563   5.385  12.092 -0.2548 -1.1769  0.6193
  603MOL0     C79516   2.858   5.769  11.123 -0.8269  0.1840  0.2364
  603MOL0     C79517   2.884   5.892  11.062 -0.2133  0.5350 -0.0019
  603MOL0     C79518   2.878   6.338  11.120 -0.6251 -0.9371 -0.7426
  603MOL0     C79519   2.900   6.387  10.989  0.0760 -0.0014 -0.5038
  603MOL0     C79520   2.932   6.520  10.965  0.4018 -0.1461  0.4301
  603MOL0     C79521   2.943   6.608  11.071  0.0151  0.3647 -0.2416
  603MOL0     O79522   2.973   6.739  11.039 -0.7850  0.0645  0.1335
  603MOL0     C79523   2.978   6.842  11.136 -1.0485  0.8520 -0.1507
  603MOL0     C79524   2.835   6.891  11.144  0.3858 -0.3045  0.7874
  603MOL0     C79525   2.831   7.001  11.255 -0.3377  0.1172 -0.4429
  603MOL0     C79526   2.790   6.941  11.389 -0.5887 -0.1456  0.3847
  603MOL0     C79527   2.643   6.928  11.404  0.6766  0.8413  0.1809
  603MOL0     C79528   2.526   6.901  11.423  0.3269 -0.3158 -0.0264
  603MOL0     C79529   2.929   6.553  11.204  0.1972  0.5615  0.8081
  603MOL0     C79530   2.878   6.425  11.223 -0.3496  0.0854 -0.1314
  603MOL0     H79531   2.587   6.025  11.143  0.0280 -1.0367 -1.1136
  603MOL0     H79532   2.529   5.798  11.234 -1.4492 -1.8134 -3.0722
  603MOL0     H79533   2.643   5.440  11.146  0.7577  0.1940  0.2763
  603MOL0     H79534   2.548   5.580  11.124  2.7443  0.0635 -3.5267
  603MOL0     H79535   2.468   5.416  11.323 -1.1813  1.1195 -0.1900
  603MOL0     H79536   2.467   5.588  11.332 -0.9866  0.6698 -1.6751
  603MOL0     H79537   2.663   5.591  11.482  1.1507 -0.5549 -0.0294
  603MOL0     H79538   2.719   5.439  11.428 -0.3979 -1.5693  2.7687
  603MOL0     H79539   2.492   5.504  11.616 -1.0349 -1.1919  0.0929
  603MOL0     H79540   2.489   5.345  11.527  0.3536  0.4826 -1.3690
  603MOL0     H79541   2.714   5.424  11.726 -0.7471  4.2495 -2.4739
  603MOL0     H79542   2.701   5.278  11.612  1.0128 -1.0948  0.9017
  603MOL0     H79543   2.504   5.200  11.729  0.2069  0.8401 -1.8105
  603MOL0     H79544   2.516   5.351  11.831 -0.1949 -0.4020 -0.2438
  603MOL0     H79545   2.593   5.150  11.955 -0.0929  0.9117  0.1264
  603MOL0     H79546   2.717   5.120  11.834  0.8147  0.6132  0.2127
  603MOL0     H79547   2.827   5.330  11.900 -0.6584 -0.1866 -1.7126
  603MOL0     H79548   2.809   5.215  12.025  1.6402 -0.1551 -1.1801
  603MOL0     H79549   2.840   5.543  12.084  0.9470 -1.4687  3.3157
  603MOL0     H79550   2.596   5.773  12.177 -1.8943 -0.9690  1.5129
  603MOL0     H79551   2.762   5.731  12.208  1.2912 -2.8350 -1.9795
  603MOL0     H79552   2.672   5.608  12.414 -1.8531 -2.4756 -0.7444
  603MOL0     H79553   2.516   5.694  12.383  0.1165  3.6147  0.9543
  603MOL0     H79554   2.621   5.905  12.395  1.6045  0.4841 -0.0511
  603MOL0     H79555   2.632   5.805  12.551  1.3324 -0.5067 -0.0426
  603MOL0     H79556   2.837   5.937  12.521  3.3936 -0.3784 -0.5542
  603MOL0     H79557   2.847   5.855  12.361  2.1084  0.1677  0.0015
  603MOL0     H79558   3.039   5.589  12.406 -1.1773 -1.9081  2.7328
  603MOL0     H79559   3.285   5.594  12.429  0.9859  1.9450 -0.5600
  603MOL0     H79560   3.654   5.859  12.818  0.1827  0.4458 -0.6513
  603MOL0     H79561   3.900   5.917  12.804  0.3642  1.5791  0.3023
  603MOL0     H79562   4.093   5.839  12.706 -0.2787  3.6906  2.4090
  603MOL0     H79563   4.213   5.939  12.619  0.9594 -1.8093 -1.5775
  603MOL0     H79564   3.999   5.752  12.494  0.0689 -0.0480  0.5746
  603MOL0     H79565   4.168   5.702  12.519 -0.0391  0.3283 -0.3082
  603MOL0     H79566   4.258   5.867  12.357  0.3912 -2.5975 -0.7990
  603MOL0     H79567   4.100   5.935  12.330  1.5710  1.1546  0.2970
  603MOL0     H79568   4.194   5.660  12.253  0.5061  0.2442  1.0658
  603MOL0     H79569   4.023   5.719  12.242 -1.0295  2.1478 -3.1518
  603MOL0     H79570   4.082   5.898  12.125 -0.5562 -0.3208 -1.1060
  603MOL0     H79571   4.109   5.761  12.025 -0.0598  0.0130 -0.0679
  603MOL0     H79572   4.349   5.901  12.169 -0.7804  0.2606  0.4961
  603MOL0     H79573   4.283   5.932  12.005  1.3887 -1.9823 -1.5288
  603MOL0     H79574   4.472   5.743  12.074  0.6005 -7.2224  2.0541
  603MOL0     H79575   4.333   5.648  12.057  2.9206 -1.6982 -2.1669
  603MOL0     H79576   4.486   5.671  11.868 -0.0768 -0.8466 -1.0499
  603MOL0     H79577   4.441   5.835  11.821  1.4119 -1.3522 -1.4555
  603MOL0     H79578   3.839   6.003  12.390 -4.2583 -0.6920 -1.5411
  603MOL0     H79579   3.598   5.929  12.415 -1.7524  0.9422  1.7072
  603MOL0     H79580   3.250   5.895  12.736  2.1751  0.8436 -1.8373
  603MOL0     H79581   3.001   5.897  12.680 -0.0327 -0.6439 -0.2513
  603MOL0     H79582   2.929   5.687  11.121 -1.1306 -0.0856  0.4189
  603MOL0     H79583   2.977   5.906  11.007  1.5939  4.3863  3.4848
  603MOL0     H79584   2.892   6.316  10.907  0.3960 -0.9013  0.2338
  603MOL0     H79585   2.936   6.555  10.862  1.3681 -1.1221  0.1285
  603MOL0     H79586   3.046   6.925  11.112  0.8921 -0.1047  1.6712
  603MOL0     H79587   3.016   6.794  11.227 -0.4997 -0.3599 -0.9977
  603MOL0     H79588   2.806   6.930  11.046 -0.0411 -2.0181  0.1841
  603MOL0     H79589   2.763   6.811  11.165  0.2614 -0.9378 -1.6980
  603MOL0     H79590   2.769   7.087  11.228 -1.2486 -0.3666  0.0717
  603MOL0     H79591   2.928   7.050  11.266 -0.5059  0.4489 -0.4418
  603MOL0     H79592   2.849   6.852  11.411  1.0599  1.0159  0.8703
  603MOL0     H79593   2.836   7.011  11.460  1.4664 -3.1621  2.2709
  603MOL0     H79594   2.420   6.887  11.434 -0.0728 -2.1363 -4.3778
  603MOL0     H79595   2.942   6.620  11.288  0.1493 -0.5490  1.7371
  603MOL0     H79596   2.859   6.397  11.326  0.1223  3.6311  1.0676
  604MOL0     O79597   9.640   2.868   8.295  0.5163  0.1704 -0.3800
  604MOL0     C79598   9.577   2.970   8.287 -0.1947 -0.5092  0.9332
  604MOL0     O79599   9.443   2.986   8.251  0.4916 -0.0531 -0.2513
  604MOL0     C79600   9.359   2.883   8.237  0.2433  0.2834  0.4410
  604MOL0     C79601   9.273   2.875   8.119 -0.7830  0.3440 -0.2662
  604MOL0     C79602   9.176   2.770   8.114 -1.2874 -0.3890 -0.1294
  604MOL0     C79603   9.154   2.688   8.223  0.7176 -0.2671 -0.3062
  604MOL0     O79604   9.048   2.599   8.190 -0.0294 -0.1220  0.1772
  604MOL0     C79605   8.991   2.506   8.284 -0.9804 -0.2589  0.3095
  604MOL0     C79606   8.966   2.364   8.223  0.2671  0.1722 -0.3023
  604MOL0     C79607   8.824   2.347   8.172 -1.1310  0.9405 -1.0196
  604MOL0     C79608   8.821   2.206   8.101  0.1432 -0.0573  0.8100
  604MOL0     C79609   8.677   2.161   8.100  0.5536 -0.2740 -0.6955
  604MOL0     C79610   8.639   2.064   8.211  0.5926 -0.5141 -0.1396
  604MOL0     C79611   8.499   2.013   8.187  0.7027  0.1846 -0.6646
  604MOL0     C79612   8.457   1.920   8.310 -0.5375  0.1554 -0.7786
  604MOL0     N79613   8.306   1.896   8.319  0.9940  0.7208  0.9958
  604MOL0     C79614   8.221   1.983   8.380 -0.2475  0.4033 -0.8990
  604MOL0     C79615   8.111   1.910   8.407  0.5396  0.0219  0.2811
  604MOL0     C79616   7.981   1.967   8.456  0.3266 -0.3355  0.0440
  604MOL0     C79617   7.982   2.119   8.461 -1.1810  0.0772  0.8902
  604MOL0     C79618   7.853   2.174   8.530  0.3663 -0.0487 -0.6052
  604MOL0     C79619   7.715   2.152   8.460 -0.5476 -0.1610  0.0407
  604MOL0     O79620   7.592   2.187   8.529 -0.0149 -0.0430  1.3260
  604MOL0     C79621   7.539   2.111   8.625 -0.4577  0.5528 -0.3377
  604MOL0     C79622   7.598   1.995   8.670 -0.0054 -0.2087 -0.8057
  604MOL0     C79623   7.533   1.925   8.773  0.2603 -0.4981 -0.4297
  604MOL0     C79624   7.402   1.957   8.812 -0.5716  0.9293 -0.1220
  604MOL0     C79625   7.326   1.859   8.892  0.5170  0.1594 -0.4688
  604MOL0     O79626   7.389   1.776   8.977 -0.2882 -0.7750  0.1836
  604MOL0     C79627   7.324   1.665   9.023  0.0027 -0.1394  0.9021
  604MOL0     C79628   7.199   1.666   9.083  0.2589 -0.3017 -0.9232
  604MOL0     C79629   7.152   1.546   9.146 -0.6458 -0.1694 -0.8735
  604MOL0     C79630   7.221   1.431   9.124 -0.4189  0.4889 -0.1920
  604MOL0     O79631   7.172   1.311   9.167  1.0408  0.5202  0.4976
  604MOL0     C79632   7.259   1.229   9.241 -0.7559  0.7718 -0.8144
  604MOL0     C79633   7.175   1.122   9.322  0.5393  0.5248  0.2438
  604MOL0     C79634   7.257   1.029   9.409 -0.3205 -0.4076  0.2382
  604MOL0     C79635   7.289   1.088   9.549 -0.7918  0.0641  0.0478
  604MOL0     C79636   7.444   1.112   9.559 -0.1369 -0.2597 -0.4029
  604MOL0     C79637   7.526   0.990   9.577 -0.2897  0.6061 -0.0440
  604MOL0     C79638   7.671   1.033   9.620 -0.2476  0.4683 -0.2931
  604MOL0     C79639   7.693   1.013   9.770  0.4603 -0.6232 -0.4676
  604MOL0    Cl79640   7.849   1.066   9.825 -0.0067  0.1502  1.0203
  604MOL0     C79641   7.346   1.434   9.067 -0.4601 -0.1334  0.2646
  604MOL0     C79642   7.396   1.554   9.012  0.1791 -0.2634  0.4715
  604MOL0     O79643   7.208   1.848   8.863 -0.0825  0.2377  0.2163
  604MOL0     C79644   7.345   2.072   8.763 -0.0115  0.3620 -0.2029
  604MOL0     C79645   7.415   2.150   8.674 -0.6187  0.2549 -0.1394
  604MOL0     N79646   8.116   1.787   8.345 -0.2609 -0.3725 -0.2285
  604MOL0     N79647   8.238   1.783   8.292  0.1463  0.0598  1.1037
  604MOL0     C79648   9.243   2.703   8.339  0.5452  0.0530  0.7365
  604MOL0     C79649   9.349   2.796   8.344  1.3771 -0.4833 -0.0989
  604MOL0     C79650   9.656   3.085   8.345 -0.1195  0.5631  0.7197
  604MOL0     C79651   9.592   3.198   8.395  0.3887 -0.7834  0.2946
  604MOL0     C79652   9.668   3.307   8.453  0.7644  0.2212 -0.7973
  604MOL0     C79653   9.806   3.313   8.456  0.5268 -0.1015  0.4800
  604MOL0     O79654   9.882   3.421   8.495 -0.2172 -0.0314  0.0141
  604MOL0     C79655   9.815   3.542   8.522  0.7281 -0.8062  0.6273
  604MOL0     C79656   9.752   3.616   8.396 -0.5729  0.7368  0.6481
  604MOL0     C79657   9.816   3.754   8.378  0.1337  1.0977  0.0094
  604MOL0     C79658   9.803   3.846   8.510 -0.1059 -0.8043  0.3120
  604MOL0     C79659   9.669   3.845   8.575 -0.2839  0.7891  0.2432
  604MOL0     C79660   9.559   3.835   8.628  0.8269 -0.0261  0.9931
  604MOL0     C79661   9.872   3.199   8.405  0.3383  1.4533  0.7034
  604MOL0     C79662   9.796   3.092   8.357 -0.5479 -0.2995  0.2947
  604MOL0     H79663   9.279   2.959   8.051  2.5719  3.7338  3.7262
  604MOL0     H79664   9.119   2.768   8.022 -3.8603  1.9092  1.2753
  604MOL0     H79665   8.905   2.560   8.323 -2.2003 -0.4323 -2.0057
  604MOL0     H79666   9.067   2.496   8.362 -0.1181  1.5451 -0.2241
  604MOL0     H79667   8.986   2.286   8.296  0.5424 -1.0385 -1.6267
  604MOL0     H79668   9.035   2.337   8.143  0.8121  1.1296 -0.1694
  604MOL0     H79669   8.791   2.422   8.100 -2.2312  1.4403 -0.0117
  604MOL0     H79670   8.747   2.333   8.248 -0.3006 -2.2125 -0.6180
  604MOL0     H79671   8.858   2.223   7.999  0.5016 -2.2233  0.5199
  604MOL0     H79672   8.879   2.122   8.140 -2.3174 -1.8040  0.9336
  604MOL0     H79673   8.653   2.113   8.005 -0.1895  1.6673 -1.5335
  604MOL0     H79674   8.605   2.242   8.088  2.6769  1.6317 -1.2221
  604MOL0     H79675   8.640   2.123   8.303  1.7144 -0.1288 -0.3788
  604MOL0     H79676   8.711   1.982   8.218 -0.2652 -1.1956  1.1234
  604MOL0     H79677   8.428   2.096   8.189  1.0474  0.4826  0.3664
  604MOL0     H79678   8.505   1.971   8.086  2.8633 -1.6914  0.1328
  604MOL0     H79679   8.479   1.969   8.405 -1.7648  0.2474 -0.5367
  604MOL0     H79680   8.506   1.822   8.309 -0.6856  0.0737 -0.0599
  604MOL0     H79681   8.251   2.081   8.417  6.8423 -1.3995 -0.2531
  604MOL0     H79682   7.958   1.923   8.553 -1.9606 -1.4637 -0.9495
  604MOL0     H79683   7.900   1.938   8.389  1.8503 -0.0437 -2.0382
  604MOL0     H79684   7.998   2.164   8.362  0.5977 -0.2261  0.9952
  604MOL0     H79685   8.070   2.159   8.514 -2.4565 -0.0111  3.1979
  604MOL0     H79686   7.846   2.110   8.618 -0.7089 -0.4590 -0.9665
  604MOL0     H79687   7.859   2.280   8.555 -1.2307  0.4994 -2.2686
  604MOL0     H79688   7.724   2.050   8.423  0.9028 -0.1265  0.2139
  604MOL0     H79689   7.725   2.223   8.377 -0.0572 -0.1106  0.1367
  604MOL0     H79690   7.698   1.961   8.642  1.3758  1.2678  1.9672
  604MOL0     H79691   7.571   1.836   8.822 -0.3647 -0.2971  0.4349
  604MOL0     H79692   7.154   1.759   9.116 -0.8137 -2.1255  3.3771
  604MOL0     H79693   7.070   1.530   9.215 -0.2642 -0.7002 -0.5347
  604MOL0     H79694   7.331   1.280   9.307  0.8978 -1.1704 -1.0192
  604MOL0     H79695   7.326   1.166   9.182  1.0722 -0.2994  2.1493
  604MOL0     H79696   7.127   1.063   9.243  1.8765  0.3828 -0.5035
  604MOL0     H79697   7.104   1.175   9.386 -1.7412 -1.2179 -0.6929
  604MOL0     H79698   7.349   0.996   9.359 -1.1807 -1.8257 -0.4629
  604MOL0     H79699   7.200   0.937   9.420 -1.9368  0.5606  0.3422
  604MOL0     H79700   7.234   1.180   9.569  1.4650  1.6381 -0.6987
  604MOL0     H79701   7.268   1.013   9.627 -2.1930  3.4899  3.2815
  604MOL0     H79702   7.468   1.191   9.630 -1.9350  0.0731 -0.1205
  604MOL0     H79703   7.484   1.163   9.471  0.4347  1.8752  1.0250
  604MOL0     H79704   7.532   0.937   9.481  2.8705  1.6834 -0.5570
  604MOL0     H79705   7.478   0.924   9.650  1.4291 -0.7695 -0.0918
  604MOL0     H79706   7.741   0.976   9.557 -1.3437  0.6228 -1.6977
  604MOL0     H79707   7.689   1.138   9.594 -1.1319  0.1209 -2.6094
  604MOL0     H79708   7.675   0.906   9.786  1.3882 -0.6255  0.8330
  604MOL0     H79709   7.608   1.065   9.814  1.9924  1.6807 -0.0303
  604MOL0     H79710   7.401   1.340   9.061  0.2526  0.3286 -0.6155
  604MOL0     H79711   7.498   1.554   8.976 -0.1822  0.6368 -0.6004
  604MOL0     H79712   7.240   2.096   8.778 -0.4154  0.7731 -3.0238
  604MOL0     H79713   7.367   2.237   8.632 -3.5523 -0.8897  0.5958
  604MOL0     H79714   9.215   2.641   8.423  1.9612 -0.6674  0.7139
  604MOL0     H79715   9.413   2.813   8.429  0.5380  1.1630  0.2425
  604MOL0     H79716   9.484   3.195   8.402  0.2002  0.4113 -1.3392
  604MOL0     H79717   9.604   3.390   8.481 -0.6863 -0.8826 -0.7614
  604MOL0     H79718   9.881   3.615   8.568 -0.2201  0.0513  0.6777
  604MOL0     H79719   9.732   3.528   8.592  0.4640 -0.4076  0.3985
  604MOL0     H79720   9.757   3.558   8.304 -1.6236  1.5774  0.0416
  604MOL0     H79721   9.646   3.623   8.423 -1.2364 -3.1224 -0.3616
  604MOL0     H79722   9.746   3.804   8.311 -2.2074  1.4055  2.4779
  604MOL0     H79723   9.916   3.755   8.336  0.8972 -2.3640  1.3891
  604MOL0     H79724   9.882   3.824   8.582  0.5862 -1.2823 -0.5805
  604MOL0     H79725   9.814   3.947   8.469  0.3170 -0.5239  1.0910
  604MOL0     H79726   9.462   3.818   8.670  0.0973 -1.8172 -1.1620
  604MOL0     H79727   9.980   3.191   8.408  0.2150 -0.9923  0.0630
  604MOL0     H79728   9.856   3.011   8.316  1.7688  1.6791 -0.4198
  605MOL0     O79729   1.360   0.294   4.257  0.3279  0.4566  0.0014
  605MOL0     C79730   1.319   0.320   4.367 -0.7474 -1.0167  0.0262
  605MOL0     O79731   1.224   0.414   4.387  0.7206  1.0189  0.1365
  605MOL0     C79732   1.143   0.443   4.280  1.1175 -0.6339 -0.1680
  605MOL0     C79733   1.094   0.577   4.263 -0.4753  0.4230  0.4362
  605MOL0     C79734   0.996   0.612   4.172  0.3221 -0.9235  0.1261
  605MOL0     C79735   0.949   0.516   4.078  0.7744 -0.9233 -0.2278
  605MOL0     O79736   0.861   0.555   3.991  0.5059 -0.2712  0.0512
  605MOL0     C79737   0.734   0.583   4.050  0.1572 -0.0630  0.0939
  605MOL0     C79738   0.634   0.613   3.940 -0.2103 -0.7480 -0.4154
  605MOL0     C79739   0.495   0.599   4.002 -0.2549  0.0751  0.3875
  605MOL0     C79740   0.378   0.625   3.901 -0.2534  0.3238  0.4618
  605MOL0     C79741   0.410   0.581   3.757 -0.9292 -0.2008  0.5051
  605MOL0     C79742   0.299   0.590   3.651  0.3766  0.3429 -0.4469
  605MOL0     C79743   0.310   0.511   3.514 -0.3174 -0.0374  0.1182
  605MOL0     C79744   0.200   0.539   3.413 -0.8699  0.5722 -0.8588
  605MOL0     N79745   0.074   0.487   3.462 -0.1972  0.7258 -0.9550
  605MOL0     C79746  -0.028   0.549   3.528  0.6455 -0.3268 -0.1281
  605MOL0     C79747  -0.119   0.451   3.562  1.0256  0.2145 -0.3403
  605MOL0     C79748  -0.245   0.455   3.656 -0.4332 -0.8943 -0.4223
  605MOL0     C79749  -0.365   0.509   3.578 -0.4131  0.1493 -0.4657
  605MOL0     C79750  -0.482   0.466   3.662  0.4401 -0.0887 -0.5022
  605MOL0     C79751  -0.567   0.363   3.582  0.9545  0.0606 -0.8709
  605MOL0     O79752  -0.700   0.331   3.643  0.3351 -0.0431  0.3156
  605MOL0     C79753  -0.825   0.373   3.587  0.0011 -0.2394  1.2251
  605MOL0     C79754  -0.921   0.430   3.669 -0.7300 -0.6236 -0.0295
  605MOL0     C79755  -1.027   0.498   3.618 -0.8243  0.2337  0.2075
  605MOL0     C79756  -1.045   0.487   3.479  0.3113  1.4348  0.4647
  605MOL0     C79757  -1.171   0.546   3.419 -0.4192 -0.3593  0.5362
  605MOL0     O79758  -1.168   0.601   3.292 -0.1299  0.4376  0.1913
  605MOL0     C79759  -1.284   0.651   3.240  0.1115 -0.2323 -0.6183
  605MOL0     C79760  -1.310   0.780   3.208  0.5401  0.4092 -0.9356
  605MOL0     C79761  -1.438   0.824   3.168 -0.1626 -0.3873 -0.1189
  605MOL0     C79762  -1.544   0.737   3.158 -0.0695 -0.1930 -0.1340
  605MOL0     O79763  -1.672   0.787   3.140  1.4117 -0.3368 -0.9107
  605MOL0     C79764  -1.741   0.783   3.264 -0.4577  1.0324 -0.6587
  605MOL0     C79765  -1.859   0.875   3.242 -0.2031  0.6576  0.2058
  605MOL0     C79766  -1.965   0.859   3.355  0.2750  0.1903 -1.2703
  605MOL0     C79767  -2.075   0.963   3.344 -0.4832 -0.2204 -0.5483
  605MOL0     C79768  -2.190   0.935   3.439  0.0053 -0.1958  1.0721
  605MOL0     C79769  -2.158   0.954   3.583 -0.0650 -0.8060  0.2097
  605MOL0     C79770  -2.300   0.952   3.654 -0.2463 -0.9163  0.0485
  605MOL0     C79771  -2.284   0.990   3.805  0.1893 -0.3785 -0.1692
  605MOL0    Cl79772  -2.229   1.156   3.813 -0.3581  0.1679  0.4486
  605MOL0     C79773  -1.513   0.603   3.162  1.4271  0.5298 -0.4058
  605MOL0     C79774  -1.393   0.557   3.222 -0.0884 -0.5451  0.2973
  605MOL0     O79775  -1.268   0.552   3.499  0.1204 -0.1881  0.2412
  605MOL0     C79776  -0.948   0.429   3.390 -0.1833 -0.8925 -0.7184
  605MOL0     C79777  -0.842   0.378   3.451  0.8221 -0.0471  0.0290
  605MOL0     N79778  -0.070   0.335   3.501 -0.7143 -0.1503 -0.0545
  605MOL0     N79779   0.047   0.353   3.457 -0.3507 -0.1059  0.1291
  605MOL0     C79780   0.994   0.381   4.091 -0.2200 -0.2813  0.0112
  605MOL0     C79781   1.086   0.348   4.192 -0.5399 -0.2448  0.4343
  605MOL0     C79782   1.382   0.251   4.483  0.9529  0.6103 -0.3819
  605MOL0     C79783   1.500   0.164   4.462 -0.1352 -0.2941  0.4437
  605MOL0     C79784   1.565   0.108   4.572  0.0149  0.4505 -1.2722
  605MOL0     C79785   1.514   0.114   4.704  0.8228 -0.4997  0.4573
  605MOL0     O79786   1.558   0.063   4.823 -1.0841 -0.1366 -0.5132
  605MOL0     C79787   1.660  -0.036   4.827  0.5674 -0.1078  0.3198
  605MOL0     C79788   1.603  -0.177   4.805 -0.6453  1.5092 -1.2150
  605MOL0     C79789   1.466  -0.208   4.884  0.7886  0.4741  1.1136
  605MOL0     C79790   1.367  -0.288   4.809  0.5285  0.4593  0.3101
  605MOL0     C79791   1.247  -0.318   4.891  0.5082  0.5161 -0.5339
  605MOL0     C79792   1.137  -0.316   4.955  0.7688 -0.8376 -0.0968
  605MOL0     C79793   1.397   0.184   4.715  0.1771  0.6182  1.2009
  605MOL0     C79794   1.339   0.252   4.610 -0.2936 -0.9307  0.4983
  605MOL0     H79795   1.133   0.652   4.332  1.7860  2.6980 -3.0217
  605MOL0     H79796   0.974   0.718   4.176  2.0983 -0.4967 -0.6762
  605MOL0     H79797   0.733   0.668   4.119  0.5705  0.4938 -0.5693
  605MOL0     H79798   0.696   0.510   4.122 -0.7971  0.0902 -0.2382
  605MOL0     H79799   0.645   0.533   3.865 -2.0927 -1.3502 -0.1005
  605MOL0     H79800   0.645   0.713   3.897 -0.1262  0.6359  2.6183
  605MOL0     H79801   0.482   0.657   4.093 -1.0169 -2.2537  1.8394
  605MOL0     H79802   0.481   0.496   4.036  3.2369 -1.5400 -2.4319
  605MOL0     H79803   0.286   0.578   3.937  1.3096 -1.7935  1.8924
  605MOL0     H79804   0.355   0.732   3.899  0.9112  0.5736 -0.7206
  605MOL0     H79805   0.447   0.478   3.763 -2.0376 -0.5411  2.0911
  605MOL0     H79806   0.492   0.647   3.725 -2.0655  0.9090 -0.2138
  605MOL0     H79807   0.287   0.692   3.613  1.4653 -0.6295 -3.6695
  605MOL0     H79808   0.208   0.555   3.702  1.3366  2.8049  3.3637
  605MOL0     H79809   0.409   0.533   3.472  0.2813  0.9725  1.9607
  605MOL0     H79810   0.308   0.403   3.530 -3.4847 -0.3016 -1.3022
  605MOL0     H79811   0.233   0.489   3.321 -0.0027  1.4089 -1.0211
  605MOL0     H79812   0.195   0.648   3.408  0.7892  0.9560  2.6963
  605MOL0     H79813  -0.040   0.656   3.543 -0.2405  0.0817 -3.1765
  605MOL0     H79814  -0.230   0.511   3.749 -0.6229 -2.7064  0.7504
  605MOL0     H79815  -0.251   0.351   3.688  0.1675 -1.4030 -1.8636
  605MOL0     H79816  -0.365   0.467   3.477  1.1826 -1.2151  0.0629
  605MOL0     H79817  -0.361   0.618   3.570 -1.2249  0.3364  1.3217
  605MOL0     H79818  -0.447   0.431   3.760  2.3077  0.0179 -1.0777
  605MOL0     H79819  -0.535   0.561   3.671 -0.2205 -0.5845  1.1148
  605MOL0     H79820  -0.511   0.269   3.587  0.3327 -0.2430  1.1503
  605MOL0     H79821  -0.579   0.395   3.479  4.5278 -0.4796 -1.5992
  605MOL0     H79822  -0.903   0.430   3.776 -0.1473 -0.1164 -0.1225
  605MOL0     H79823  -1.102   0.546   3.680 -0.5777 -1.3390  1.7703
  605MOL0     H79824  -1.228   0.851   3.219 -1.0956  2.1048  1.4384
  605MOL0     H79825  -1.462   0.928   3.149  1.5252 -0.1666 -1.2882
  605MOL0     H79826  -1.674   0.817   3.344 -1.0577 -0.2417  0.4122
  605MOL0     H79827  -1.785   0.684   3.279  0.3319  0.4552 -1.9859
  605MOL0     H79828  -1.904   0.855   3.144 -2.8498 -1.2697  1.6826
  605MOL0     H79829  -1.826   0.979   3.245 -2.6431  1.5176 -0.4716
  605MOL0     H79830  -1.914   0.858   3.451 -3.3574 -1.3478  0.8638
  605MOL0     H79831  -2.003   0.756   3.362  2.1282 -0.3843  2.7126
  605MOL0     H79832  -2.029   1.062   3.347 -1.1707  0.1206 -1.0016
  605MOL0     H79833  -2.109   0.960   3.239  0.3939 -1.2271 -0.8174
  605MOL0     H79834  -2.232   0.836   3.422  0.5948 -0.5701  1.7638
  605MOL0     H79835  -2.270   0.999   3.399  1.4981  0.5508 -0.8773
  605MOL0     H79836  -2.096   1.039   3.611 -1.2094 -0.0431  0.4900
  605MOL0     H79837  -2.093   0.870   3.611  1.8811  0.3364 -0.6924
  605MOL0     H79838  -2.365   1.023   3.600  1.3163  0.8450  0.3663
  605MOL0     H79839  -2.350   0.855   3.651  0.0215 -1.1869  2.4789
  605MOL0     H79840  -2.196   0.936   3.840  0.3023  0.3494  0.7216
  605MOL0     H79841  -2.380   0.970   3.854 -0.1893 -0.6664 -1.0009
  605MOL0     H79842  -1.599   0.538   3.145  2.1863 -0.6667  0.2268
  605MOL0     H79843  -1.363   0.456   3.247  1.2746 -0.5326 -1.0965
  605MOL0     H79844  -0.961   0.429   3.283 -1.6036  3.6069 -0.7599
  605MOL0     H79845  -0.765   0.321   3.400 -0.0214  0.1128 -1.4940
  605MOL0     H79846   0.955   0.301   4.030  2.0809 -0.1792 -1.7353
  605MOL0     H79847   1.105   0.243   4.209 -0.1665 -0.0029  1.5521
  605MOL0     H79848   1.539   0.156   4.361 -2.0735 -1.9222 -0.2442
  605MOL0     H79849   1.660   0.059   4.554  0.5466  2.0497 -3.1133
  605MOL0     H79850   1.719  -0.028   4.919 -2.1863  1.0349  2.1131
  605MOL0     H79851   1.725  -0.035   4.739 -1.6394 -2.0544 -1.4861
  605MOL0     H79852   1.598  -0.199   4.698 -0.3224  3.1313 -1.5828
  605MOL0     H79853   1.680  -0.245   4.843 -1.1063  2.3892  1.5113
  605MOL0     H79854   1.424  -0.110   4.908 -0.6425  1.7273 -5.0207
  605MOL0     H79855   1.494  -0.262   4.976 -1.8509  0.0333  1.7318
  605MOL0     H79856   1.332  -0.239   4.717 -1.7387 -1.9303 -0.2150
  605MOL0     H79857   1.407  -0.387   4.785 -0.6441 -0.5374  2.2386
  605MOL0     H79858   1.038  -0.318   4.997 -0.4115 -1.4904 -2.7304
  605MOL0     H79859   1.361   0.189   4.818 -1.3852 -0.5682  0.7586
  605MOL0     H79860   1.248   0.304   4.639  0.0697  0.1643 -0.2585
  606MOL0     O79861   5.765   4.258   9.424 -0.1303  0.4836  0.8126
  606MOL0     C79862   5.767   4.249   9.545 -0.5088 -1.4997 -0.3330
  606MOL0     O79863   5.874   4.208   9.625 -0.1482 -0.1878 -0.2885
  606MOL0     C79864   5.990   4.170   9.562 -0.1229 -0.2236 -0.6786
  606MOL0     C79865   6.077   4.260   9.510  0.6293 -0.3421 -0.7796
  606MOL0     C79866   6.195   4.216   9.450 -1.1561 -0.7351  0.3297
  606MOL0     C79867   6.223   4.078   9.439 -0.7147  0.3939  1.0362
  606MOL0     O79868   6.347   4.030   9.411 -0.0452  0.5782  0.1941
  606MOL0     C79869   6.434   4.106   9.317  0.5612  0.4528  0.1090
  606MOL0     C79870   6.373   4.081   9.174  0.1515 -0.2180  0.3360
  606MOL0     C79871   6.317   3.940   9.141  0.4425 -0.0268  0.0805
  606MOL0     C79872   6.428   3.825   9.127 -0.2773 -0.0378 -0.2921
  606MOL0     C79873   6.492   3.767   9.261  0.3354 -0.2938  0.7796
  606MOL0     C79874   6.432   3.628   9.298  0.2231  0.4062 -1.3008
  606MOL0     C79875   6.463   3.607   9.454 -1.3584  0.0822  0.9787
  606MOL0     C79876   6.615   3.567   9.466  0.2862 -0.1980 -1.2828
  606MOL0     N79877   6.642   3.556   9.619 -0.1870  0.8115  0.0656
  606MOL0     C79878   6.583   3.473   9.708 -0.3564  0.5886  0.7450
  606MOL0     C79879   6.643   3.513   9.823 -0.2486 -0.1589 -0.4596
  606MOL0     C79880   6.618   3.439   9.954 -1.6888  0.2422  0.2482
  606MOL0     C79881   6.466   3.410   9.980 -0.2568 -0.3370 -0.0664
  606MOL0     C79882   6.395   3.545  10.000  0.0567 -0.2887 -0.4979
  606MOL0     C79883   6.242   3.546  10.030 -0.2260 -0.6924  0.5064
  606MOL0     O79884   6.213   3.462  10.137 -0.1678  0.1842  0.2147
  606MOL0     C79885   6.088   3.460  10.180  0.5858 -0.2552  0.8904
  606MOL0     C79886   6.051   3.357  10.268  0.5915 -0.2338  0.6028
  606MOL0     C79887   5.913   3.352  10.306  0.6780  0.3260 -0.5370
  606MOL0     C79888   5.807   3.434  10.257  0.7293  0.6375  0.3699
  606MOL0     C79889   5.670   3.408  10.299  0.1179 -0.0524 -0.6195
  606MOL0     O79890   5.649   3.287  10.369  0.6023 -0.6381  0.0832
  606MOL0     C79891   5.534   3.255  10.438 -0.2329 -0.2480 -0.2359
  606MOL0     C79892   5.400   3.284  10.411 -0.7272  0.1986 -0.9427
  606MOL0     C79893   5.297   3.220  10.487  1.2172  0.2531 -0.2327
  606MOL0     C79894   5.318   3.125  10.588  0.4970 -0.8134  0.1363
  606MOL0     O79895   5.212   3.088  10.659 -0.3273 -0.1913  0.3184
  606MOL0     C79896   5.227   2.989  10.763  0.7438 -0.1059 -0.9826
  606MOL0     C79897   5.092   2.981  10.834 -0.6363 -0.7586  0.1058
  606MOL0     C79898   5.052   3.113  10.913 -0.2880  0.7036 -0.1321
  606MOL0     C79899   4.927   3.094  10.994 -0.5893  0.6672 -0.3245
  606MOL0     C79900   4.871   3.223  11.057  0.2868 -0.3348 -0.2197
  606MOL0     C79901   4.834   3.314  10.935  0.0456  0.6406  0.6020
  606MOL0     C79902   4.759   3.437  10.993 -0.0891 -0.1685  0.8236
  606MOL0     C79903   4.858   3.544  11.048 -0.1587  0.0462 -0.7905
  606MOL0    Cl79904   4.768   3.677  11.103 -0.1315 -0.2752  0.0331
  606MOL0     C79905   5.453   3.096  10.616  0.8857  0.4405  0.3406
  606MOL0     C79906   5.554   3.162  10.548  0.2043  0.1127 -0.4668
  606MOL0     O79907   5.577   3.490  10.275  0.1524  0.0668  0.4416
  606MOL0     C79908   5.846   3.524  10.166  0.3934  0.3312  0.3238
  606MOL0     C79909   5.983   3.544  10.131 -0.1362  0.4325 -0.2746
  606MOL0     N79910   6.734   3.621   9.803 -0.1642 -0.0750  0.6837
  606MOL0     N79911   6.736   3.643   9.677 -0.0698  0.8725  0.6986
  606MOL0     C79912   6.126   3.987   9.484  0.4008  0.4684 -0.7378
  606MOL0     C79913   6.015   4.027   9.552 -0.0065 -0.1065 -0.3363
  606MOL0     C79914   5.643   4.262   9.612 -0.1139 -0.2764 -0.2165
  606MOL0     C79915   5.521   4.262   9.532  0.4299  0.3468  0.2913
  606MOL0     C79916   5.396   4.267   9.592 -0.7852 -0.6397 -0.1147
  606MOL0     C79917   5.387   4.275   9.729 -1.2566 -0.3778 -0.0413
  606MOL0     O79918   5.265   4.270   9.796 -0.2301  0.4200 -0.3379
  606MOL0     C79919   5.139   4.303   9.733  1.0268 -0.2048  0.2973
  606MOL0     C79920   5.116   4.449   9.679  0.6922  0.8945  0.7565
  606MOL0     C79921   5.151   4.567   9.766 -0.1531 -0.1225  0.5390
  606MOL0     C79922   5.195   4.689   9.686  0.1004 -0.6039  0.2253
  606MOL0     C79923   5.231   4.795   9.780  0.2331 -0.6587 -0.2155
  606MOL0     C79924   5.274   4.880   9.851  0.0046 -0.0509  0.9154
  606MOL0     C79925   5.506   4.283   9.808 -1.4916 -0.3978 -0.0070
  606MOL0     C79926   5.635   4.273   9.754  0.1822  0.1392  0.2102
  606MOL0     H79927   6.056   4.365   9.526  0.8740 -0.2490 -1.0500
  606MOL0     H79928   6.270   4.292   9.427 -1.5100  0.1434  1.9715
  606MOL0     H79929   6.533   4.059   9.314 -0.3524 -1.5991 -2.7773
  606MOL0     H79930   6.455   4.210   9.345 -0.2946  0.5379  0.4481
  606MOL0     H79931   6.447   4.112   9.100 -2.2530  0.0796 -2.0660
  606MOL0     H79932   6.291   4.153   9.167 -0.2475 -0.6174  0.7900
  606MOL0     H79933   6.249   3.935   9.055  0.3965  1.4016  0.0104
  606MOL0     H79934   6.250   3.923   9.226 -0.6087  0.9591 -0.5170
  606MOL0     H79935   6.383   3.739   9.077  0.0098  0.1929 -0.9535
  606MOL0     H79936   6.511   3.867   9.069  1.9706 -0.3233  2.4838
  606MOL0     H79937   6.468   3.831   9.346  1.6858  0.8662  0.3220
  606MOL0     H79938   6.601   3.759   9.254  0.2135 -5.4033  1.0068
  606MOL0     H79939   6.471   3.548   9.234 -0.3663  0.2550 -1.4867
  606MOL0     H79940   6.324   3.632   9.281  0.1680  0.1083 -1.0298
  606MOL0     H79941   6.443   3.701   9.506 -4.4230  0.3132 -0.4140
  606MOL0     H79942   6.407   3.527   9.502 -1.1463  0.4612  1.8737
  606MOL0     H79943   6.672   3.648   9.421  0.2558  0.4144 -0.2626
  606MOL0     H79944   6.638   3.470   9.421 -3.4590 -1.9216  0.1009
  606MOL0     H79945   6.510   3.393   9.698 -1.7829  1.7135  1.7716
  606MOL0     H79946   6.655   3.484  10.047  0.5520 -1.3123  0.1775
  606MOL0     H79947   6.658   3.338   9.947 -0.9043  0.6139 -1.0578
  606MOL0     H79948   6.455   3.337  10.060 -1.3865 -0.6779 -0.5083
  606MOL0     H79949   6.415   3.365   9.894  2.4980 -2.6975 -0.6569
  606MOL0     H79950   6.447   3.586  10.087  3.1304  1.7282 -3.0395
  606MOL0     H79951   6.429   3.601   9.912  1.4817 -1.4255 -0.7064
  606MOL0     H79952   6.184   3.513   9.944 -0.8935 -2.4265  1.5765
  606MOL0     H79953   6.232   3.650  10.063  2.8933 -0.3587  0.6460
  606MOL0     H79954   6.128   3.291  10.307  2.4916  2.3402  1.5393
  606MOL0     H79955   5.891   3.284  10.388 -2.9526  2.8489  0.8318
  606MOL0     H79956   5.380   3.347  10.325 -0.5170  3.6781  1.3194
  606MOL0     H79957   5.202   3.256  10.450  1.0615  0.2720  0.1782
  606MOL0     H79958   5.307   3.022  10.829  0.8329  1.9248 -2.0207
  606MOL0     H79959   5.267   2.896  10.723  3.9992 -0.6070  2.8883
  606MOL0     H79960   5.097   2.896  10.902  1.1552 -1.1016 -0.4116
  606MOL0     H79961   5.016   2.961  10.758 -0.2211  0.0586 -0.5370
  606MOL0     H79962   5.027   3.182  10.832  1.3255 -0.4323 -1.6677
  606MOL0     H79963   5.129   3.145  10.983  0.3849 -0.8964 -0.0915
  606MOL0     H79964   4.848   3.048  10.933  1.0917 -6.0444  1.7015
  606MOL0     H79965   4.929   3.021  11.075 -3.4284  1.5775  0.6672
  606MOL0     H79966   4.946   3.272  11.119  2.1364 -0.3248 -2.3072
  606MOL0     H79967   4.775   3.203  11.105 -0.1827  1.0625 -0.5291
  606MOL0     H79968   4.766   3.272  10.860  1.2942 -0.6358  0.1370
  606MOL0     H79969   4.921   3.358  10.885  1.2355 -2.3857 -0.2493
  606MOL0     H79970   4.699   3.490  10.919  0.0109 -2.7325 -1.2462
  606MOL0     H79971   4.693   3.399  11.072 -0.4192  0.0755  0.6659
  606MOL0     H79972   4.930   3.576  10.971 -1.1055  1.9047 -0.9590
  606MOL0     H79973   4.906   3.498  11.135 -1.7315 -0.7653 -0.3177
  606MOL0     H79974   5.468   3.012  10.683 -0.7848  0.7452  1.1326
  606MOL0     H79975   5.657   3.147  10.580 -0.5184  1.4483  2.9293
  606MOL0     H79976   5.765   3.584  10.126 -0.1622 -1.3001 -1.1390
  606MOL0     H79977   6.003   3.633  10.073  3.1467  0.1172  0.1772
  606MOL0     H79978   6.140   3.880   9.468  0.9874 -0.1904  3.0028
  606MOL0     H79979   5.940   3.956   9.584  1.1795 -0.2242  2.4435
  606MOL0     H79980   5.504   4.259   9.425 -2.0264 -1.4116  0.6490
  606MOL0     H79981   5.316   4.266   9.518  2.0469 -3.1724 -3.4933
  606MOL0     H79982   5.056   4.268   9.796 -0.2502 -0.7685 -1.6189
  606MOL0     H79983   5.140   4.231   9.651  0.2688 -1.8538  1.6641
  606MOL0     H79984   5.162   4.460   9.581 -0.8440 -2.2305 -0.4861
  606MOL0     H79985   5.007   4.454   9.666  0.1561  0.8004  4.2107
  606MOL0     H79986   5.231   4.532   9.832  0.4983  1.1613  0.4627
  606MOL0     H79987   5.059   4.597   9.817 -1.6260 -0.3851 -1.8081
  606MOL0     H79988   5.277   4.681   9.615 -1.1591  1.0813 -1.5218
  606MOL0     H79989   5.103   4.710   9.630 -0.2522 -2.9576 -0.2037
  606MOL0     H79990   5.296   4.962   9.916  2.1557  0.2215 -0.0890
  606MOL0     H79991   5.487   4.298   9.914 -1.6379 -2.0255  0.2240
  606MOL0     H79992   5.717   4.280   9.824  0.6401  0.7290 -0.3769
  607MOL0     O79993   0.665   9.333   2.902 -0.1640  0.0926 -0.3765
  607MOL0     C79994   0.754   9.251   2.933 -0.1193  0.3044 -0.9214
  607MOL0     O79995   0.747   9.122   2.921 -0.1941  0.1747  1.2693
  607MOL0     C79996   0.635   9.058   2.869  0.0327  0.4581  1.4784
  607MOL0     C79997   0.588   9.105   2.747 -0.7978  0.4689 -0.6499
  607MOL0     C79998   0.495   9.026   2.673 -0.6555  0.7127  0.6407
  607MOL0     C79999   0.428   8.910   2.738 -0.0473 -0.3308  0.9019
  607MOL0     O80000   0.331   8.832   2.677  0.2238 -0.1394 -0.3955
  607MOL0     C80001   0.246   8.891   2.578 -0.0739  0.8143  0.5698
  607MOL0     C80002   0.123   8.809   2.570 -0.2581 -0.3711  1.0602
  607MOL0     C80003   0.037   8.853   2.446 -1.2151  0.0157  0.1004
  607MOL0     C80004  -0.070   8.744   2.426 -0.7219 -0.8467 -0.1876
  607MOL0     C80005  -0.126   8.733   2.290  0.9891 -0.1313  0.3468
  607MOL0     C80006  -0.223   8.858   2.274 -0.1189  0.3852 -0.2143
  607MOL0     C80007  -0.312   8.847   2.153  0.1265  1.3579  0.5102
  607MOL0     C80008  -0.428   8.744   2.165 -0.3449  0.6590  0.4499
  607MOL0     N80009  -0.510   8.761   2.044 -0.6394 -0.6290 -0.3229
  607MOL0     C80010  -0.644   8.760   2.040  0.5367 -0.5189  1.0129
  607MOL0     C80011  -0.683   8.770   1.912  0.0946 -0.0147  1.1773
  607MOL0     C80012  -0.817   8.766   1.853  0.1568 -0.0708  0.3591
  607MOL0     C80013  -0.901   8.658   1.910 -0.4733 -0.3853  0.3457
  607MOL0     C80014  -1.048   8.665   1.871 -0.6582  0.4258  0.3334
  607MOL0     C80015  -1.137   8.583   1.943  0.5659  0.1429  0.4455
  607MOL0     O80016  -1.093   8.565   2.075 -0.2663 -0.5041 -0.8652
  607MOL0     C80017  -1.177   8.621   2.170  1.2414  0.2789  0.5085
  607MOL0     C80018  -1.174   8.765   2.179  0.5152  0.7443 -0.4456
  607MOL0     C80019  -1.259   8.831   2.274  1.1789 -0.0901  0.4427
  607MOL0     C80020  -1.332   8.753   2.361 -0.0928  0.2571  0.4461
  607MOL0     C80021  -1.429   8.820   2.454 -0.4751 -0.2547  0.3037
  607MOL0     O80022  -1.500   8.736   2.537 -0.6545  0.4828 -0.4154
  607MOL0     C80023  -1.603   8.798   2.613 -0.1827  0.5994  0.4229
  607MOL0     C80024  -1.690   8.907   2.574 -0.2981 -1.0409  0.1471
  607MOL0     C80025  -1.777   8.977   2.664 -0.1708  0.0925 -0.0673
  607MOL0     C80026  -1.789   8.931   2.791 -0.1832 -0.2125 -0.0818
  607MOL0     O80027  -1.867   8.981   2.893 -0.3140  1.0488 -0.4386
  607MOL0     C80028  -1.933   9.107   2.888  0.1513 -0.9464  0.4748
  607MOL0     C80029  -1.979   9.164   3.019 -0.6486  0.4184  0.3234
  607MOL0     C80030  -1.870   9.225   3.101 -0.4058  0.1265 -0.0641
  607MOL0     C80031  -1.777   9.123   3.174 -0.1417  0.6254  0.5943
  607MOL0     C80032  -1.667   9.185   3.258 -0.7581  0.5932  0.4187
  607MOL0     C80033  -1.564   9.086   3.311 -0.2286 -0.3740  0.5611
  607MOL0     C80034  -1.424   9.057   3.246  0.0038  0.0943  0.7144
  607MOL0     C80035  -1.349   8.952   3.315  0.6790  0.1688  0.4801
  607MOL0    Cl80036  -1.185   8.934   3.251  0.2552 -0.7039  0.0160
  607MOL0     C80037  -1.714   8.817   2.819  0.1521 -0.8171  0.7861
  607MOL0     C80038  -1.623   8.747   2.743  0.2558  0.1407 -0.5002
  607MOL0     O80039  -1.448   8.939   2.450 -0.5550 -0.3167  0.7257
  607MOL0     C80040  -1.326   8.612   2.357  0.4279  0.4212 -0.8017
  607MOL0     C80041  -1.249   8.549   2.261  0.3196  0.2197 -0.0968
  607MOL0     N80042  -0.571   8.774   1.838  0.9268 -0.5466  0.3250
  607MOL0     N80043  -0.467   8.761   1.915  0.3526 -0.0902  0.4211
  607MOL0     C80044   0.477   8.873   2.861  0.5307 -0.0450 -0.6859
  607MOL0     C80045   0.581   8.938   2.926  0.9626  0.0624 -0.0050
  607MOL0     C80046   0.881   9.312   2.989  0.3400 -0.8146  0.1800
  607MOL0     C80047   0.984   9.226   3.043  0.6712  0.4604 -0.3807
  607MOL0     C80048   1.103   9.270   3.079 -0.7324 -0.8994 -0.5372
  607MOL0     C80049   1.132   9.405   3.060 -0.5167  0.3685  0.4255
  607MOL0     O80050   1.254   9.447   3.103 -0.8472 -0.8363 -0.1151
  607MOL0     C80051   1.301   9.578   3.070  0.2588 -0.9993  0.1424
  607MOL0     C80052   1.453   9.592   3.104 -0.5095  0.2491 -0.4540
  607MOL0     C80053   1.540   9.518   2.993  1.5548  0.3925  0.3030
  607MOL0     C80054   1.685   9.539   3.031 -0.0410  0.3796  0.1605
  607MOL0     C80055   1.735   9.674   3.030  0.0171 -0.1312  0.3165
  607MOL0     C80056   1.743   9.789   3.048  0.0191  0.0466 -0.1848
  607MOL0     C80057   1.033   9.494   3.011 -0.0385 -0.4593  1.6568
  607MOL0     C80058   0.906   9.448   2.964  0.1755  0.1589 -0.4269
  607MOL0     H80059   0.633   9.191   2.700  0.9664 -0.2115 -0.3020
  607MOL0     H80060   0.464   9.071   2.580 -1.7709  1.1445  1.2020
  607MOL0     H80061   0.296   8.897   2.481  0.2957  2.6630  0.8263
  607MOL0     H80062   0.237   8.998   2.598  1.5480  1.7126 -2.7150
  607MOL0     H80063   0.061   8.815   2.660 -0.9763 -2.2005  0.7264
  607MOL0     H80064   0.154   8.705   2.557  1.6505  0.1888  0.7453
  607MOL0     H80065   0.091   8.855   2.351  1.4127  1.3666  1.5187
  607MOL0     H80066   0.001   8.956   2.454 -0.5127  0.5317 -2.4682
  607MOL0     H80067  -0.019   8.648   2.436  1.1405 -0.1630 -2.2648
  607MOL0     H80068  -0.146   8.752   2.504 -0.6474 -4.5586  0.4420
  607MOL0     H80069  -0.184   8.639   2.293  0.5193  0.0278 -1.7865
  607MOL0     H80070  -0.053   8.735   2.209  0.9483  0.5812  0.3220
  607MOL0     H80071  -0.173   8.953   2.253 -3.5620  2.3409 -0.2970
  607MOL0     H80072  -0.283   8.877   2.364 -2.3134  2.8957 -2.0470
  607MOL0     H80073  -0.354   8.943   2.122 -1.4956 -0.0704 -2.2060
  607MOL0     H80074  -0.250   8.825   2.065  0.5575  1.3396  0.8157
  607MOL0     H80075  -0.487   8.766   2.254  0.9900 -0.2350  1.5941
  607MOL0     H80076  -0.395   8.640   2.175 -0.0679  0.4065 -2.2784
  607MOL0     H80077  -0.721   8.773   2.115 -1.0150  1.3734 -0.8057
  607MOL0     H80078  -0.805   8.754   1.745 -0.6474 -1.8905  0.4406
  607MOL0     H80079  -0.868   8.859   1.879  1.3133  0.0446  2.4016
  607MOL0     H80080  -0.883   8.648   2.018 -1.6756 -0.3165  0.5621
  607MOL0     H80081  -0.852   8.568   1.871 -1.0102 -0.5103 -0.0417
  607MOL0     H80082  -1.078   8.771   1.874  1.3935  1.1403 -1.6586
  607MOL0     H80083  -1.055   8.635   1.766  1.4864 -1.5374  0.6760
  607MOL0     H80084  -1.134   8.487   1.889  1.0761  1.1867 -1.4728
  607MOL0     H80085  -1.239   8.620   1.933  0.5279  0.0914  0.6448
  607MOL0     H80086  -1.107   8.828   2.121 -0.1161  2.1192  0.3049
  607MOL0     H80087  -1.271   8.939   2.278 -1.6959 -0.1887 -1.7354
  607MOL0     H80088  -1.686   8.927   2.468 -0.2716 -2.6173 -0.1722
  607MOL0     H80089  -1.828   9.068   2.636 -0.3841 -1.0943 -4.3206
  607MOL0     H80090  -2.028   9.109   2.834  0.8043  0.6551 -0.7065
  607MOL0     H80091  -1.858   9.175   2.845  4.0571 -2.5475  3.9926
  607MOL0     H80092  -2.021   9.085   3.082  0.9694 -1.9494 -1.3990
  607MOL0     H80093  -2.052   9.243   2.998 -0.0525  0.7440 -0.6133
  607MOL0     H80094  -1.917   9.285   3.179  1.0802 -0.2257  1.1539
  607MOL0     H80095  -1.816   9.300   3.042 -2.5202  0.4230 -1.7608
  607MOL0     H80096  -1.839   9.061   3.238  1.7652  0.5579  2.4847
  607MOL0     H80097  -1.746   9.060   3.090 -1.5964 -1.5889  1.6186
  607MOL0     H80098  -1.711   9.248   3.336 -1.0029  0.5216  0.3377
  607MOL0     H80099  -1.611   9.251   3.190  0.8825 -2.8861 -1.8997
  607MOL0     H80100  -1.606   8.986   3.299 -1.4495  0.1268  0.4320
  607MOL0     H80101  -1.555   9.104   3.419 -1.1614  2.1998  0.2822
  607MOL0     H80102  -1.438   9.036   3.140  1.8911  3.2523 -0.2894
  607MOL0     H80103  -1.365   9.149   3.244 -1.2633  0.9228 -1.9843
  607MOL0     H80104  -1.401   8.855   3.308  0.5376  0.2401  0.5438
  607MOL0     H80105  -1.328   8.967   3.421 -1.0941 -1.9090  1.2188
  607MOL0     H80106  -1.729   8.796   2.925  0.3600  0.1711  1.0190
  607MOL0     H80107  -1.584   8.652   2.779 -0.7694 -0.1572 -0.1426
  607MOL0     H80108  -1.387   8.543   2.414 -0.2211  1.5845 -0.0339
  607MOL0     H80109  -1.234   8.442   2.260 -1.2037 -0.0437 -2.1419
  607MOL0     H80110   0.422   8.797   2.916  0.7447 -0.6153 -1.2485
  607MOL0     H80111   0.603   8.910   3.028 -3.4151  0.9343  1.4143
  607MOL0     H80112   0.943   9.129   3.071  1.1235  0.2799 -0.3401
  607MOL0     H80113   1.175   9.210   3.134  0.8851  1.3603 -0.0661
  607MOL0     H80114   1.236   9.650   3.122 -1.5552 -0.8655 -2.1776
  607MOL0     H80115   1.295   9.598   2.963  3.4755  2.3805  0.3983
  607MOL0     H80116   1.478   9.698   3.095  1.6647 -0.1323  0.6087
  607MOL0     H80117   1.465   9.561   3.208 -0.4439  0.7847 -0.2985
  607MOL0     H80118   1.502   9.555   2.898 -1.6241  0.9044  1.6448
  607MOL0     H80119   1.507   9.414   2.999 -1.2923  1.2499  0.7659
  607MOL0     H80120   1.707   9.503   3.132 -1.3554  0.5377  0.5076
  607MOL0     H80121   1.748   9.477   2.966 -0.3997  1.5464 -1.3594
  607MOL0     H80122   1.756   9.895   3.044  1.7036 -0.1188  0.2022
  607MOL0     H80123   1.036   9.603   3.002 -3.8933 -0.3713 -1.5825
  607MOL0     H80124   0.838   9.518   2.916 -1.0756 -0.6013  0.1630
  608MOL0     O80125   1.762   0.942   2.647  0.2490 -0.1519 -0.0561
  608MOL0     C80126   1.755   1.064   2.660 -0.6080  0.2780 -0.2218
  608MOL0     O80127   1.650   1.135   2.712 -0.1705  0.5565  0.1493
  608MOL0     C80128   1.548   1.063   2.773 -0.1312  0.8473  0.8649
  608MOL0     C80129   1.424   1.051   2.699  0.4409 -1.4675  0.4573
  608MOL0     C80130   1.322   0.983   2.756 -0.3117  0.4447  1.1135
  608MOL0     C80131   1.327   0.924   2.882  0.2185  0.7024 -0.0863
  608MOL0     O80132   1.215   0.873   2.941 -0.2776  0.4347 -0.4435
  608MOL0     C80133   1.099   0.834   2.865  0.5152  0.2059  0.7158
  608MOL0     C80134   1.003   0.761   2.966 -1.3712  0.3845 -0.0109
  608MOL0     C80135   0.957   0.874   3.061 -0.7375 -0.1615 -0.2872
  608MOL0     C80136   0.846   0.971   3.012 -0.0486  0.0943 -0.4177
  608MOL0     C80137   0.779   1.059   3.124  0.1349  0.6249 -0.6038
  608MOL0     C80138   0.645   0.994   3.170 -0.2742 -0.5986  0.3735
  608MOL0     C80139   0.569   1.100   3.254  0.7792 -0.7425  0.7217
  608MOL0     C80140   0.465   1.036   3.343 -0.5460  0.5817  0.8879
  608MOL0     N80141   0.357   0.966   3.273  0.0330 -0.4709  0.8164
  608MOL0     C80142   0.227   1.010   3.242 -0.3068  0.5580 -0.8360
  608MOL0     C80143   0.160   0.895   3.204  0.1053  0.0122  0.3577
  608MOL0     C80144   0.013   0.877   3.191 -0.4290 -0.5131 -0.0832
  608MOL0     C80145  -0.073   1.001   3.223  0.9686 -0.0109 -0.1202
  608MOL0     C80146  -0.225   1.003   3.181 -0.5774  0.1798 -0.5776
  608MOL0     C80147  -0.265   1.140   3.194 -0.2295  0.3780 -1.4370
  608MOL0     O80148  -0.411   1.149   3.181 -1.0953  0.0052  0.1731
  608MOL0     C80149  -0.471   1.167   3.059  1.0697  0.1138  0.4300
  608MOL0     C80150  -0.398   1.178   2.939  1.1038  0.0257 -0.3579
  608MOL0     C80151  -0.455   1.219   2.819 -0.4100 -0.5426  0.3880
  608MOL0     C80152  -0.587   1.214   2.807  0.7708 -0.0865  0.3154
  608MOL0     C80153  -0.641   1.232   2.671  0.3985  0.7840  0.1296
  608MOL0     O80154  -0.574   1.179   2.567  0.1874 -0.1614  0.6569
  608MOL0     C80155  -0.616   1.204   2.442 -0.3468 -0.2311  0.6097
  608MOL0     C80156  -0.512   1.227   2.350  0.2223 -0.4665 -0.1160
  608MOL0     C80157  -0.551   1.253   2.211 -0.7106  0.3228 -0.3675
  608MOL0     C80158  -0.687   1.249   2.174  0.1888  0.1261 -0.2269
  608MOL0     O80159  -0.729   1.287   2.047 -0.7550  0.0066 -0.0782
  608MOL0     C80160  -0.857   1.355   2.015 -0.1306 -0.1949  0.2091
  608MOL0     C80161  -0.829   1.477   1.929 -0.2902  0.5260 -0.4588
  608MOL0     C80162  -0.723   1.576   1.995  0.8648  1.1847 -0.3673
  608MOL0     C80163  -0.718   1.719   1.941  1.4996 -0.1537 -1.2285
  608MOL0     C80164  -0.603   1.803   1.979  0.2084 -0.0132 -0.6605
  608MOL0     C80165  -0.468   1.748   1.920  0.2088 -0.1809 -0.1933
  608MOL0     C80166  -0.381   1.857   1.850 -0.3155 -0.0907 -0.5492
  608MOL0     C80167  -0.236   1.821   1.828  0.1724 -0.3389 -0.5721
  608MOL0    Cl80168  -0.232   1.691   1.702 -0.0554  0.1595 -0.2264
  608MOL0     C80169  -0.785   1.212   2.266  0.1077  0.2468 -0.5682
  608MOL0     C80170  -0.743   1.193   2.400  0.4066 -0.0041 -1.2894
  608MOL0     O80171  -0.754   1.289   2.670  0.3159  0.7260  0.5259
  608MOL0     C80172  -0.668   1.193   2.917 -0.4932 -0.9914  0.0116
  608MOL0     C80173  -0.613   1.171   3.046 -0.6046 -0.6123 -1.0743
  608MOL0     N80174   0.256   0.795   3.191  0.4226 -0.5685  0.0596
  608MOL0     N80175   0.366   0.830   3.239 -0.3822 -0.1492 -0.3691
  608MOL0     C80176   1.452   0.936   2.954  0.2363 -0.3701  0.2882
  608MOL0     C80177   1.562   1.001   2.902  0.0089  0.5805 -0.9280
  608MOL0     C80178   1.862   1.142   2.595  0.2201 -0.6266  0.4921
  608MOL0     C80179   1.956   1.092   2.515 -0.5381  0.8796 -0.9037
  608MOL0     C80180   2.050   1.171   2.456 -0.5182 -0.8564  0.6964
  608MOL0     C80181   2.066   1.299   2.484  1.3320 -0.9063 -0.0040
  608MOL0     O80182   2.177   1.363   2.435  0.5486 -0.1849 -0.1052
  608MOL0     C80183   2.184   1.509   2.438  0.4571  0.0737  0.7085
  608MOL0     C80184   2.256   1.548   2.565 -0.7142  0.3772 -0.3406
  608MOL0     C80185   2.411   1.534   2.558  0.7426 -0.0388 -0.5633
  608MOL0     C80186   2.476   1.566   2.688 -0.1764 -0.2259  0.5537
  608MOL0     C80187   2.457   1.703   2.739  1.0348  0.1972  0.8392
  608MOL0     C80188   2.421   1.807   2.787  0.6542 -0.2985  0.0169
  608MOL0     C80189   1.978   1.360   2.572  0.2160  0.0771 -0.6110
  608MOL0     C80190   1.871   1.282   2.614 -0.0784  0.7021 -0.0073
  608MOL0     H80191   1.423   1.095   2.600 -2.4466 -1.4337  0.4191
  608MOL0     H80192   1.231   0.977   2.698  0.6902  1.5260 -0.6738
  608MOL0     H80193   1.131   0.756   2.795 -0.6088 -1.6518  2.1948
  608MOL0     H80194   1.047   0.918   2.818  0.6163  0.4333  1.0051
  608MOL0     H80195   1.047   0.670   3.008 -0.5980  0.5062 -0.5377
  608MOL0     H80196   0.915   0.723   2.914 -0.4727 -1.1024 -0.5093
  608MOL0     H80197   1.046   0.928   3.094 -1.2773 -1.1577  3.3561
  608MOL0     H80198   0.917   0.817   3.146 -2.3507 -3.0526 -2.7747
  608MOL0     H80199   0.888   1.039   2.937  0.7266 -0.9940 -0.9999
  608MOL0     H80200   0.768   0.918   2.958  0.4290  0.0264 -1.0645
  608MOL0     H80201   0.763   1.158   3.080 -1.5263  0.0582 -1.3465
  608MOL0     H80202   0.843   1.070   3.212 -1.6748  0.3306  0.8074
  608MOL0     H80203   0.673   0.910   3.235 -0.0677 -3.3062 -2.9187
  608MOL0     H80204   0.591   0.951   3.085 -0.3116 -0.1599  0.1757
  608MOL0     H80205   0.643   1.139   3.324  0.0231 -1.8154  2.1773
  608MOL0     H80206   0.523   1.175   3.189  1.4529 -2.0956 -1.4214
  608MOL0     H80207   0.430   1.115   3.409  0.4152  4.4494 -2.8112
  608MOL0     H80208   0.524   0.961   3.396 -0.8023 -1.0246 -0.9682
  608MOL0     H80209   0.180   1.102   3.273  0.6989  0.9032 -0.2989
  608MOL0     H80210  -0.015   0.799   3.262  0.3787 -2.9435 -2.2635
  608MOL0     H80211  -0.015   0.841   3.092  0.4993 -0.1936 -0.4792
  608MOL0     H80212  -0.021   1.093   3.194  0.6355 -0.6128 -2.8707
  608MOL0     H80213  -0.078   0.998   3.332  0.3455 -1.9702 -0.1693
  608MOL0     H80214  -0.215   0.974   3.076  3.1803  0.9487 -0.5837
  608MOL0     H80215  -0.276   0.930   3.245 -4.0080  0.3448 -2.8970
  608MOL0     H80216  -0.207   1.201   3.125  0.0498  0.2996 -1.2738
  608MOL0     H80217  -0.239   1.175   3.295 -2.5492 -0.5638 -0.4414
  608MOL0     H80218  -0.290   1.166   2.938  1.2250 -0.6048  3.7659
  608MOL0     H80219  -0.385   1.238   2.739 -2.5475 -0.9201 -1.6539
  608MOL0     H80220  -0.406   1.223   2.371  0.1731  1.8554  0.8736
  608MOL0     H80221  -0.480   1.301   2.143 -2.1592  3.4672  0.1523
  608MOL0     H80222  -0.899   1.401   2.105 -2.0807  2.9829 -2.0993
  608MOL0     H80223  -0.928   1.288   1.968 -1.9719  1.0608  1.0656
  608MOL0     H80224  -0.919   1.536   1.909 -1.9645 -1.7914 -0.0942
  608MOL0     H80225  -0.794   1.445   1.830 -0.6428 -1.9702  0.1707
  608MOL0     H80226  -0.629   1.521   1.979  0.8995  1.0424  0.2933
  608MOL0     H80227  -0.734   1.575   2.104 -1.2538  3.1113 -0.5050
  608MOL0     H80228  -0.712   1.707   1.832  0.3800  0.7536 -1.4025
  608MOL0     H80229  -0.809   1.769   1.974  0.7481 -3.3352  2.1831
  608MOL0     H80230  -0.606   1.812   2.088 -2.0112 -0.0821 -0.6664
  608MOL0     H80231  -0.621   1.900   1.931  2.0550  1.7192  1.8888
  608MOL0     H80232  -0.478   1.668   1.846 -0.8721  0.5470 -0.8650
  608MOL0     H80233  -0.419   1.699   2.005 -3.2904 -0.9063  1.5972
  608MOL0     H80234  -0.428   1.898   1.759  1.5744  1.7625 -0.7494
  608MOL0     H80235  -0.389   1.939   1.922 -3.6385 -0.8966  0.2116
  608MOL0     H80236  -0.182   1.798   1.921  2.3222 -1.1261 -1.9634
  608MOL0     H80237  -0.184   1.903   1.778  0.3102 -0.4419 -0.5981
  608MOL0     H80238  -0.888   1.191   2.239 -0.2400  3.2465 -1.9567
  608MOL0     H80239  -0.818   1.164   2.473  0.9757 -0.0007 -0.6984
  608MOL0     H80240  -0.776   1.189   2.919 -0.5381  0.2745  0.4334
  608MOL0     H80241  -0.675   1.163   3.136  0.3600  1.9138 -0.1014
  608MOL0     H80242   1.453   0.894   3.054 -2.0317 -2.0973 -0.3254
  608MOL0     H80243   1.659   1.006   2.949 -0.9627 -3.4349  2.0234
  608MOL0     H80244   1.959   0.985   2.496  1.7876  0.5309  0.8852
  608MOL0     H80245   2.123   1.120   2.394 -1.4235 -0.9833 -0.2787
  608MOL0     H80246   2.092   1.565   2.419  0.9391  0.2281 -1.3625
  608MOL0     H80247   2.255   1.543   2.361  0.3468 -1.3043 -0.0252
  608MOL0     H80248   2.225   1.651   2.588 -1.2471  0.2994 -0.6894
  608MOL0     H80249   2.206   1.491   2.643 -1.5225  2.7948  1.0344
  608MOL0     H80250   2.456   1.598   2.482  1.0836 -0.8585 -1.0634
  608MOL0     H80251   2.425   1.429   2.530 -0.9177  0.1139 -2.0589
  608MOL0     H80252   2.428   1.497   2.758  0.4940 -1.4153 -0.1294
  608MOL0     H80253   2.582   1.544   2.676 -1.0341 -4.4088 -0.9035
  608MOL0     H80254   2.387   1.898   2.832  0.1457 -0.8360  0.7420
  608MOL0     H80255   1.989   1.465   2.597 -2.1958  0.1217  0.5553
  608MOL0     H80256   1.809   1.326   2.691  0.5122 -1.9749  2.1533
  609MOL0     O80257   2.853  10.688   7.628 -0.5016 -0.6144 -0.0550
  609MOL0     C80258   2.807  10.571   7.630 -0.0283 -1.1025  1.3789
  609MOL0     O80259   2.842  10.469   7.719 -1.3900  0.2295 -0.4211
  609MOL0     C80260   2.950  10.496   7.803 -0.4388 -0.8262  1.4891
  609MOL0     C80261   2.946  10.487   7.939 -0.1228 -0.2382 -0.2737
  609MOL0     C80262   3.055  10.514   8.021  0.6310 -0.5523 -0.1779
  609MOL0     C80263   3.177  10.549   7.969 -0.4548 -0.2963  0.0991
  609MOL0     O80264   3.292  10.560   8.035 -0.4831 -0.9751  0.4025
  609MOL0     C80265   3.302  10.474   8.147 -0.5098 -0.1720  0.1827
  609MOL0     C80266   3.452  10.493   8.203 -0.4034 -0.1607 -0.0613
  609MOL0     C80267   3.564  10.438   8.110 -0.1258  0.2919  0.4264
  609MOL0     C80268   3.693  10.448   8.204  0.1138 -0.3992 -0.2772
  609MOL0     C80269   3.824  10.443   8.125 -0.7538 -0.2645 -0.0063
  609MOL0     C80270   3.957  10.498   8.203  0.0041  1.2717  0.2322
  609MOL0     C80271   4.003  10.436   8.339  0.5153 -0.7053  0.1103
  609MOL0     C80272   4.013  10.282   8.323  0.5894 -0.4121 -0.4446
  609MOL0     N80273   4.136  10.235   8.245  0.2188 -0.4992  0.2339
  609MOL0     C80274   4.266  10.283   8.252  0.2117 -1.0332  0.1497
  609MOL0     C80275   4.337  10.206   8.175 -0.8502 -0.2448  1.0537
  609MOL0     C80276   4.479  10.212   8.134  0.0179 -0.7951  0.0408
  609MOL0     C80277   4.566  10.125   8.232 -1.1995 -0.0062 -0.1704
  609MOL0     C80278   4.544   9.980   8.205  0.7255  0.4600 -0.1033
  609MOL0     C80279   4.556   9.929   8.061 -0.2306 -0.1039 -0.8577
  609MOL0     O80280   4.666   9.993   7.993 -0.1135  0.2408 -0.0505
  609MOL0     C80281   4.797   9.970   8.039 -0.2852  0.4430 -0.6069
  609MOL0     C80282   4.898  10.052   7.984 -0.0906  0.2416  0.0065
  609MOL0     C80283   5.031  10.017   8.001 -0.1163  0.0644 -0.0457
  609MOL0     C80284   5.076   9.917   8.091  0.7689 -0.3852  0.0472
  609MOL0     C80285   5.225   9.898   8.100 -0.1776 -0.4389  1.3586
  609MOL0     O80286   5.307   9.965   8.017  0.0650  0.4611  0.4217
  609MOL0     C80287   5.440   9.942   8.019  0.3722  0.0181  0.5328
  609MOL0     C80288   5.508   9.881   7.918  0.1786 -0.6835 -0.0514
  609MOL0     C80289   5.646   9.864   7.926 -0.1895 -0.1328 -0.9076
  609MOL0     C80290   5.719   9.909   8.038 -0.1422  0.0921  0.4216
  609MOL0     O80291   5.851   9.885   8.058 -0.1964  0.0602  0.3563
  609MOL0     C80292   5.909   9.756   8.032  0.9280  0.5141  0.5379
  609MOL0     C80293   6.042   9.746   8.098  0.1875  1.1200  0.1729
  609MOL0     C80294   6.164   9.802   8.034  0.2030 -0.3385  0.1028
  609MOL0     C80295   6.294   9.804   8.115 -1.4270  0.0032  0.1425
  609MOL0     C80296   6.412   9.837   8.018  0.9179  0.1699  0.1716
  609MOL0     C80297   6.543   9.793   8.085  1.2578 -1.1268  0.2617
  609MOL0     C80298   6.654   9.883   8.021 -0.6855 -0.5337  0.2318
  609MOL0     C80299   6.797   9.837   8.064 -1.2301  0.8462 -1.1058
  609MOL0    Cl80300   6.815   9.674   8.001 -0.1356 -0.2257  0.0170
  609MOL0     C80301   5.652   9.967   8.140 -0.8259 -0.7423 -0.2149
  609MOL0     C80302   5.507   9.989   8.136 -0.6178  0.5044 -0.7189
  609MOL0     O80303   5.272   9.815   8.173  0.2465  0.1323  0.2349
  609MOL0     C80304   4.968   9.839   8.151  0.3666 -0.4188  0.6157
  609MOL0     C80305   4.834   9.865   8.128  0.1808  0.4671  0.1544
  609MOL0     N80306   4.251  10.132   8.099 -0.6182  0.6631 -0.1862
  609MOL0     N80307   4.127  10.150   8.137 -0.0300  0.0844 -0.3843
  609MOL0     C80308   3.186  10.568   7.835 -0.2525  0.3538 -0.3794
  609MOL0     C80309   3.074  10.536   7.751  0.3354 -0.3573  1.1938
  609MOL0     C80310   2.691  10.537   7.534 -0.5468 -0.4532  0.2527
  609MOL0     C80311   2.665  10.613   7.410 -0.3682 -0.4979 -0.3971
  609MOL0     C80312   2.558  10.571   7.329 -0.0762  0.5898 -0.6864
  609MOL0     C80313   2.462  10.472   7.374  0.5032  0.0078  0.1237
  609MOL0     O80314   2.346  10.448   7.302 -0.4581 -0.6957  0.4061
  609MOL0     C80315   2.360  10.463   7.159  0.1656 -0.4227 -0.0823
  609MOL0     C80316   2.250  10.382   7.084  0.0192  0.2990  0.8307
  609MOL0     C80317   2.114  10.458   7.079 -0.5058  0.0409 -0.1274
  609MOL0     C80318   2.005  10.367   7.020  0.5863 -0.4968 -0.4215
  609MOL0     C80319   1.884  10.455   7.010  0.4708 -0.1612 -0.1015
  609MOL0     C80320   1.775  10.515   7.002  0.3990 -0.1818  0.4165
  609MOL0     C80321   2.486  10.409   7.502  0.8593  0.4611  0.5550
  609MOL0     C80322   2.601  10.432   7.565  0.5333 -0.0741 -0.3514
  609MOL0     H80323   2.852  10.459   7.985 -1.3409  2.2093 -1.0872
  609MOL0     H80324   3.033  10.497   8.126 -0.7485 -0.5690 -0.4550
  609MOL0     H80325   3.279  10.371   8.119  0.5281 -0.0779 -1.1063
  609MOL0     H80326   3.231  10.501   8.226  0.2244  1.1134  0.4202
  609MOL0     H80327   3.467  10.435   8.294  0.4919  0.1501 -0.0076
  609MOL0     H80328   3.472  10.599   8.220 -3.4131  0.6096 -0.6595
  609MOL0     H80329   3.580  10.496   8.018 -0.1752  1.1073  0.9204
  609MOL0     H80330   3.539  10.333   8.091 -0.1799 -0.6924  4.8945
  609MOL0     H80331   3.692  10.545   8.254 -0.5862 -0.4876 -0.0995
  609MOL0     H80332   3.679  10.369   8.279 -1.0259  0.4081  0.3847
  609MOL0     H80333   3.801  10.502   8.036  0.1240  2.3842  1.3884
  609MOL0     H80334   3.849  10.345   8.083  2.6147  0.7693 -0.7520
  609MOL0     H80335   3.948  10.607   8.209  2.6064  1.4551  2.4925
  609MOL0     H80336   4.032  10.474   8.127 -2.0615  0.5480 -1.7027
  609MOL0     H80337   4.093  10.482   8.381  1.1246 -1.8940  0.1394
  609MOL0     H80338   3.931  10.466   8.416 -0.4025  2.1577 -1.6928
  609MOL0     H80339   3.913  10.252   8.291 -1.4401  3.2042  1.7750
  609MOL0     H80340   4.024  10.246   8.426  0.1049  2.7211  0.8108
  609MOL0     H80341   4.304  10.373   8.301 -0.8942  0.2469 -1.2619
  609MOL0     H80342   4.508  10.316   8.145 -0.4899 -0.5846 -0.5322
  609MOL0     H80343   4.488  10.199   8.025  0.3592  0.1802 -0.0579
  609MOL0     H80344   4.544  10.143   8.337 -0.5465 -0.0555 -0.0188
  609MOL0     H80345   4.673  10.135   8.211 -1.4732  1.1229 -1.0906
  609MOL0     H80346   4.606   9.924   8.275  0.7556 -0.8129 -1.1227
  609MOL0     H80347   4.442   9.958   8.238  1.6221 -0.2849  2.3993
  609MOL0     H80348   4.461   9.921   8.008  0.7001 -1.5023 -2.4455
  609MOL0     H80349   4.579   9.822   8.070  0.5473  0.1100 -0.1330
  609MOL0     H80350   4.861  10.135   7.925 -1.2863 -0.5875 -0.4493
  609MOL0     H80351   5.094  10.091   7.953 -3.2630  1.2580 -2.8067
  609MOL0     H80352   5.456   9.855   7.827 -0.2402  4.5128 -1.5998
  609MOL0     H80353   5.689   9.816   7.839  0.8016 -4.6296  1.7743
  609MOL0     H80354   5.935   9.749   7.926 -0.3805  2.8512 -0.0011
  609MOL0     H80355   5.846   9.671   8.060 -1.3990  1.8342 -0.4588
  609MOL0     H80356   6.071   9.640   8.096 -1.7137  0.3313  4.0704
  609MOL0     H80357   6.037   9.781   8.202 -0.1741  0.3772  0.4156
  609MOL0     H80358   6.141   9.904   8.001 -7.2983 -0.9488  1.6986
  609MOL0     H80359   6.172   9.745   7.941 -2.0385 -0.0523 -0.3227
  609MOL0     H80360   6.285   9.889   8.183  3.5714  0.5070  0.5362
  609MOL0     H80361   6.311   9.713   8.174 -0.2747  0.2685  0.2445
  609MOL0     H80362   6.417   9.942   7.990 -2.0661  0.3990  0.1686
  609MOL0     H80363   6.401   9.774   7.929  3.2090  0.8166 -0.6438
  609MOL0     H80364   6.566   9.691   8.052 -1.3419 -2.2234  1.5036
  609MOL0     H80365   6.536   9.799   8.194  0.4189 -1.8475  0.2558
  609MOL0     H80366   6.652   9.892   7.912 -0.3504 -4.0681 -0.1746
  609MOL0     H80367   6.642   9.982   8.066  0.1319 -1.5443  2.8283
  609MOL0     H80368   6.812   9.822   8.171  0.2720 -6.6644 -1.7611
  609MOL0     H80369   6.880   9.899   8.028  0.6483  0.3454  1.9754
  609MOL0     H80370   5.703   9.996   8.231  2.6237  0.7525 -2.4277
  609MOL0     H80371   5.462  10.041   8.220  0.5391 -1.9912  1.5725
  609MOL0     H80372   4.981   9.762   8.227 -1.6602 -2.2893 -0.7789
  609MOL0     H80373   4.764   9.789   8.162  2.4688 -1.8708 -0.0795
  609MOL0     H80374   3.282  10.589   7.788 -0.5959  1.3338 -0.6615
  609MOL0     H80375   3.086  10.538   7.643 -0.7527  0.4150  1.0754
  609MOL0     H80376   2.729  10.694   7.376  2.8446 -2.3852  0.7062
  609MOL0     H80377   2.546  10.624   7.235 -0.4129 -2.6825 -2.6668
  609MOL0     H80378   2.455  10.421   7.125 -2.1518 -3.4959 -3.5702
  609MOL0     H80379   2.360  10.572   7.142 -1.2449  0.0998  2.7315
  609MOL0     H80380   2.279  10.364   6.980 -1.9314 -0.4314  0.3698
  609MOL0     H80381   2.237  10.281   7.123  2.0220 -1.8728 -3.4260
  609MOL0     H80382   2.123  10.554   7.027  1.0029  0.4750  0.8594
  609MOL0     H80383   2.081  10.498   7.176  2.1474  0.7458  0.5717
  609MOL0     H80384   2.030  10.346   6.915  1.9278  0.7807 -0.3786
  609MOL0     H80385   1.993  10.275   7.078 -0.2664  0.0564  0.3062
  609MOL0     H80386   1.688  10.577   6.995 -0.5819 -1.5693  0.0631
  609MOL0     H80387   2.420  10.328   7.535  0.2396 -0.2007 -2.0957
  609MOL0     H80388   2.618  10.390   7.664 -0.7534 -2.4541 -1.0667
  610MOL0     O80389   6.957   0.581   8.709 -0.6212 -0.0100  0.2720
  610MOL0     C80390   6.868   0.529   8.632  0.2662 -0.9065 -0.3617
  610MOL0     O80391   6.729   0.548   8.639 -0.7026  0.1252 -0.3328
  610MOL0     C80392   6.661   0.605   8.742 -0.0473 -0.4445 -0.5370
  610MOL0     C80393   6.534   0.649   8.704  0.2365 -0.0803 -0.7126
  610MOL0     C80394   6.452   0.713   8.790 -0.9201 -0.0747 -0.6506
  610MOL0     C80395   6.490   0.748   8.921  0.2641 -0.3441  0.7396
  610MOL0     O80396   6.391   0.790   8.995  0.3103 -0.2347 -0.1499
  610MOL0     C80397   6.421   0.877   9.102 -0.2349 -0.5710  0.0587
  610MOL0     C80398   6.297   0.918   9.187  0.5977  0.0230  0.2330
  610MOL0     C80399   6.217   1.032   9.122  0.0627  0.3756  0.1395
  610MOL0     C80400   6.268   1.178   9.145 -0.9735  0.8242  0.2812
  610MOL0     C80401   6.172   1.282   9.077  0.1299 -0.0158 -0.5007
  610MOL0     C80402   6.192   1.274   8.919  0.4532  0.6776  0.4674
  610MOL0     C80403   6.124   1.389   8.840  1.1249 -0.2149  0.5536
  610MOL0     C80404   5.976   1.367   8.829 -0.4456 -0.5733 -0.4463
  610MOL0     N80405   5.915   1.480   8.774  0.3623  0.3861  0.0922
  610MOL0     C80406   5.950   1.534   8.653 -0.8735  0.8759  0.2529
  610MOL0     C80407   5.869   1.648   8.627 -0.6069 -0.0680 -1.1765
  610MOL0     C80408   5.855   1.740   8.511 -0.2660 -0.1945  0.5338
  610MOL0     C80409   5.706   1.765   8.470  0.3508 -0.3797  0.1040
  610MOL0     C80410   5.658   1.666   8.352 -1.0247 -0.6471 -0.6339
  610MOL0     C80411   5.517   1.692   8.323  0.4071  0.1955  0.1134
  610MOL0     O80412   5.472   1.605   8.216  0.6101 -0.8064  0.5897
  610MOL0     C80413   5.423   1.674   8.105  0.4304 -0.1002 -0.3355
  610MOL0     C80414   5.281   1.679   8.087 -0.0864 -0.1258 -1.1578
  610MOL0     C80415   5.240   1.749   7.983 -0.2154 -0.7154  0.1114
  610MOL0     C80416   5.322   1.833   7.907  0.6181 -0.3834 -0.5185
  610MOL0     C80417   5.261   1.931   7.809 -1.2176  0.7929 -1.0682
  610MOL0     O80418   5.129   1.919   7.790  0.3215  0.0246 -0.0964
  610MOL0     C80419   5.081   1.989   7.683  0.2728  0.5569 -0.1938
  610MOL0     C80420   4.951   2.043   7.700  0.3768  0.2099  0.1010
  610MOL0     C80421   4.898   2.134   7.611 -1.2332 -0.6538 -0.5834
  610MOL0     C80422   4.973   2.172   7.493 -0.5107 -0.3229 -0.4001
  610MOL0     O80423   4.934   2.273   7.401  0.3501 -0.0876 -0.8330
  610MOL0     C80424   4.800   2.328   7.412  0.0708  0.8315  0.0619
  610MOL0     C80425   4.683   2.223   7.369 -0.5678 -0.5202  0.5123
  610MOL0     C80426   4.720   2.163   7.235 -0.4747 -0.4251 -0.3633
  610MOL0     C80427   4.761   2.274   7.129 -0.0546 -0.1932  0.2722
  610MOL0     C80428   4.749   2.210   6.979  0.0686  0.2003 -0.2056
  610MOL0     C80429   4.602   2.225   6.933 -0.9100  0.3778 -0.4586
  610MOL0     C80430   4.587   2.153   6.806  0.2482 -0.5407  0.5114
  610MOL0     C80431   4.502   2.209   6.698  0.2084  0.4433 -0.8031
  610MOL0    Cl80432   4.366   2.294   6.758  0.2426 -0.1007  0.1547
  610MOL0     C80433   5.092   2.112   7.468  0.1771 -0.2753 -0.8434
  610MOL0     C80434   5.151   2.022   7.560 -0.8847  0.6614  0.1755
  610MOL0     O80435   5.335   2.020   7.771 -0.3812 -0.6509  0.7690
  610MOL0     C80436   5.455   1.820   7.920 -0.4565  0.3473 -0.5951
  610MOL0     C80437   5.504   1.742   8.026  0.0573 -0.1597 -0.8973
  610MOL0     N80438   5.795   1.659   8.751  0.5467 -0.8264  1.1358
  610MOL0     N80439   5.815   1.560   8.830 -0.0357  0.5734 -0.9249
  610MOL0     C80440   6.613   0.702   8.964 -0.0712 -0.1946  0.2071
  610MOL0     C80441   6.693   0.630   8.875 -0.6293  0.6448  0.6116
  610MOL0     C80442   6.908   0.457   8.507  0.0393  0.6791 -0.3329
  610MOL0     C80443   6.812   0.422   8.405  0.2460  1.0528 -0.3085
  610MOL0     C80444   6.847   0.391   8.278  0.1242 -0.3087  0.6363
  610MOL0     C80445   6.980   0.375   8.242  0.0912  0.0469 -0.6123
  610MOL0     O80446   7.011   0.334   8.115  0.9004  0.2505 -0.6781
  610MOL0     C80447   6.974   0.203   8.062  0.4314  0.4611 -1.0643
  610MOL0     C80448   7.029   0.173   7.920 -0.8238 -0.2572  0.0389
  610MOL0     C80449   7.016   0.285   7.818  0.1951 -0.3050 -0.1193
  610MOL0     C80450   7.083   0.259   7.684  0.6107 -1.0002  0.0408
  610MOL0     C80451   7.025   0.155   7.602  0.4226 -0.0596  0.4314
  610MOL0     C80452   6.985   0.048   7.550 -0.4530 -0.2545  0.7586
  610MOL0     C80453   7.081   0.418   8.333 -0.4303  0.0120 -0.9347
  610MOL0     C80454   7.044   0.458   8.462  0.3724 -1.1532  0.1894
  610MOL0     H80455   6.490   0.619   8.609 -4.0217  1.2859  0.6323
  610MOL0     H80456   6.355   0.753   8.760 -1.3595  0.0206  0.7946
  610MOL0     H80457   6.456   0.962   9.043 -1.1790 -0.6609 -0.6540
  610MOL0     H80458   6.505   0.843   9.162 -2.0497 -1.0223  2.4938
  610MOL0     H80459   6.317   0.948   9.290  1.7244 -2.5285  0.8187
  610MOL0     H80460   6.223   0.838   9.197 -0.1983  0.8660  1.2608
  610MOL0     H80461   6.115   1.021   9.159  0.3251 -0.3680  0.6494
  610MOL0     H80462   6.208   1.013   9.014 -5.1453 -1.4495  0.6246
  610MOL0     H80463   6.273   1.200   9.252 -1.3911 -2.5884  1.1199
  610MOL0     H80464   6.370   1.177   9.105 -1.0847 -0.2405 -0.0259
  610MOL0     H80465   6.192   1.384   9.112 -0.0468 -0.2967  0.4516
  610MOL0     H80466   6.066   1.266   9.101 -0.1520  0.5265 -1.3420
  610MOL0     H80467   6.153   1.178   8.885  1.3890 -0.5012  2.5963
  610MOL0     H80468   6.300   1.265   8.905  0.3872  1.2009 -0.5005
  610MOL0     H80469   6.139   1.491   8.878  0.6167  0.1474 -0.2008
  610MOL0     H80470   6.158   1.377   8.737 -1.9649 -0.3058 -0.5450
  610MOL0     H80471   5.926   1.352   8.924 -1.4257  0.5491 -0.7693
  610MOL0     H80472   5.955   1.280   8.766 -1.3332  0.3254 -1.4395
  610MOL0     H80473   6.031   1.499   8.589 -3.7343 -2.6924 -1.8404
  610MOL0     H80474   5.914   1.722   8.420 -1.3307 -2.0147  0.1656
  610MOL0     H80475   5.891   1.839   8.539  0.7437  0.4472 -2.6093
  610MOL0     H80476   5.698   1.871   8.446  1.9237 -0.3475 -0.3981
  610MOL0     H80477   5.646   1.741   8.559  0.3540  1.0788  0.5160
  610MOL0     H80478   5.731   1.682   8.272  1.4524  0.5531  1.7415
  610MOL0     H80479   5.667   1.567   8.398  2.2438  0.4611  1.4225
  610MOL0     H80480   5.491   1.797   8.309 -1.2702 -0.4994 -3.1530
  610MOL0     H80481   5.471   1.664   8.418 -1.7214 -4.4837 -1.9681
  610MOL0     H80482   5.211   1.630   8.153 -0.1026 -1.1155 -1.8800
  610MOL0     H80483   5.132   1.751   7.972 -0.2711 -1.5028  0.4431
  610MOL0     H80484   4.909   2.010   7.794 -1.4192  0.5437 -0.5361
  610MOL0     H80485   4.806   2.181   7.644  0.6560  0.9197  2.9397
  610MOL0     H80486   4.782   2.427   7.370 -2.3542  0.1293 -0.7346
  610MOL0     H80487   4.787   2.352   7.518 -0.8544 -0.3156  0.2302
  610MOL0     H80488   4.590   2.279   7.354  1.1457  2.1592 -0.9217
  610MOL0     H80489   4.670   2.143   7.442 -0.9437  0.3152  1.3889
  610MOL0     H80490   4.632   2.104   7.208  1.0809 -3.0619 -0.0785
  610MOL0     H80491   4.809   2.099   7.232  0.5180  0.9790 -2.3201
  610MOL0     H80492   4.685   2.352   7.132 -2.1682 -2.1262  4.2599
  610MOL0     H80493   4.865   2.305   7.147  1.2510 -3.7818 -0.1437
  610MOL0     H80494   4.763   2.102   6.978 -0.0458  0.1875 -1.3070
  610MOL0     H80495   4.822   2.251   6.909  0.5956  0.1535  0.3017
  610MOL0     H80496   4.600   2.332   6.911  4.1943  0.3870 -2.2056
  610MOL0     H80497   4.528   2.198   7.009 -0.2009 -0.2720  0.0173
  610MOL0     H80498   4.688   2.138   6.765  1.3410  2.2526  1.8862
  610MOL0     H80499   4.546   2.054   6.825  1.0857 -0.8299  0.8509
  610MOL0     H80500   4.465   2.134   6.629  2.3776 -0.6902 -0.8216
  610MOL0     H80501   4.561   2.285   6.646 -0.2614  1.0999 -0.4000
  610MOL0     H80502   5.153   2.145   7.384  0.8504  2.0552  0.4730
  610MOL0     H80503   5.248   1.978   7.537 -1.9613 -0.7576 -1.9222
  610MOL0     H80504   5.523   1.883   7.863  1.2356  2.0719  3.0306
  610MOL0     H80505   5.610   1.734   8.047  0.4604  0.9341 -2.3614
  610MOL0     H80506   6.645   0.724   9.066  1.0696  1.7795 -0.5169
  610MOL0     H80507   6.781   0.585   8.922 -1.5123 -0.4580  1.2663
  610MOL0     H80508   6.705   0.429   8.421 -0.1243 -1.1143 -1.5227
  610MOL0     H80509   6.759   0.374   8.217  0.8281 -0.7352 -0.2702
  610MOL0     H80510   6.865   0.205   8.056  0.3953 -0.0813 -0.5917
  610MOL0     H80511   6.994   0.122   8.133 -5.0468 -0.9501 -0.7194
  610MOL0     H80512   7.138   0.160   7.926 -0.7456 -0.2665 -1.0782
  610MOL0     H80513   6.982   0.089   7.868  0.6693  0.0771 -1.9680
  610MOL0     H80514   7.070   0.369   7.862  3.4377 -1.2286 -2.0530
  610MOL0     H80515   6.912   0.320   7.808  0.7487  0.8864 -2.3384
  610MOL0     H80516   7.072   0.352   7.628  1.7449 -2.2690 -2.4470
  610MOL0     H80517   7.189   0.235   7.673  0.1629 -2.7719 -0.8110
  610MOL0     H80518   6.958  -0.049   7.514  3.6988 -1.5423  0.5870
  610MOL0     H80519   7.183   0.407   8.297 -1.2567 -2.6321 -2.8143
  610MOL0     H80520   7.123   0.487   8.530 -0.2563  0.0827  0.4266
  611MOL0     O80521   6.942   3.196   9.199 -0.3256 -0.4022 -0.0135
  611MOL0     C80522   6.877   3.250   9.292 -1.2977  0.1644 -0.3122
  611MOL0     O80523   6.842   3.381   9.294  0.1787 -0.2578 -0.9124
  611MOL0     C80524   6.896   3.471   9.206 -0.2410 -0.1097 -0.0319
  611MOL0     C80525   7.014   3.536   9.242 -0.3077  0.9953 -0.3392
  611MOL0     C80526   7.068   3.628   9.152 -0.1198 -0.1489 -0.8590
  611MOL0     C80527   7.012   3.641   9.025 -2.3663 -0.2921 -0.4532
  611MOL0     O80528   7.060   3.731   8.927  0.5254  0.3963  0.1188
  611MOL0     C80529   7.100   3.867   8.969 -0.1873 -0.1908  0.2303
  611MOL0     C80530   7.086   3.951   8.844 -0.4224  0.9107 -0.7870
  611MOL0     C80531   7.111   4.102   8.880 -0.4307 -0.0301 -0.6492
  611MOL0     C80532   7.256   4.128   8.925 -0.4983 -0.3722  0.0331
  611MOL0     C80533   7.298   4.276   8.919 -0.3836 -0.3704 -0.1335
  611MOL0     C80534   7.427   4.302   9.012 -0.2152 -0.9108 -0.0118
  611MOL0     C80535   7.507   4.427   8.973 -0.8610 -0.1224  0.2147
  611MOL0     C80536   7.601   4.388   8.864 -0.7092 -0.8197 -0.6134
  611MOL0     N80537   7.683   4.503   8.816 -0.2700  0.2121 -0.5946
  611MOL0     C80538   7.637   4.590   8.724 -0.4138  0.4477  0.8933
  611MOL0     C80539   7.723   4.691   8.743  0.7417  0.0949 -0.3897
  611MOL0     C80540   7.701   4.815   8.664 -0.3051 -0.2349  0.0662
  611MOL0     C80541   7.819   4.906   8.663 -0.2372  0.5505  0.2839
  611MOL0     C80542   7.785   5.050   8.647 -0.2001  0.2613  0.7195
  611MOL0     C80543   7.692   5.081   8.525 -0.8962 -0.1008 -0.2374
  611MOL0     O80544   7.656   5.214   8.498 -0.3926  0.4568  0.1809
  611MOL0     C80545   7.575   5.271   8.587  0.2675 -0.3611 -1.1905
  611MOL0     C80546   7.628   5.372   8.667  0.4148  1.1820  0.0157
  611MOL0     C80547   7.544   5.455   8.745 -0.2983  0.4678  0.8371
  611MOL0     C80548   7.406   5.440   8.745 -0.6442 -0.4991 -0.9626
  611MOL0     C80549   7.325   5.537   8.823  0.3597  0.5352  0.1892
  611MOL0     O80550   7.383   5.649   8.862  0.0143 -0.0866 -0.2574
  611MOL0     C80551   7.344   5.700   8.985 -0.3131 -0.1862  0.0838
  611MOL0     C80552   7.304   5.619   9.100  0.3116 -0.0343  0.6317
  611MOL0     C80553   7.275   5.690   9.221 -0.8080 -0.2954 -0.4007
  611MOL0     C80554   7.284   5.836   9.223 -0.3402 -0.4982 -0.3807
  611MOL0     O80555   7.257   5.900   9.342 -1.1524  0.5452 -0.0817
  611MOL0     C80556   7.330   6.021   9.375  0.2477  0.2535  0.2098
  611MOL0     C80557   7.333   6.053   9.528 -0.8525 -0.0949 -0.1129
  611MOL0     C80558   7.209   6.129   9.549  1.0086  0.0019  0.2786
  611MOL0     C80559   7.159   6.126   9.694 -0.8202  0.0748  0.6106
  611MOL0     C80560   7.020   6.189   9.708 -0.2953  0.9367 -0.9633
  611MOL0     C80561   7.025   6.295   9.831  0.1797  0.1414  1.5974
  611MOL0     C80562   7.099   6.426   9.794  0.2371  0.3742 -0.1596
  611MOL0     C80563   7.132   6.514   9.912 -0.1525  0.1276 -0.3468
  611MOL0    Cl80564   6.987   6.586   9.994 -0.0151  0.1259 -0.3365
  611MOL0     C80565   7.311   5.913   9.108 -0.2740  0.5956  0.2396
  611MOL0     C80566   7.342   5.840   8.989  1.1919 -0.6530 -1.5211
  611MOL0     O80567   7.210   5.510   8.843  0.1170 -0.3536  0.1842
  611MOL0     C80568   7.351   5.336   8.667  0.0290 -0.3333  0.8095
  611MOL0     C80569   7.435   5.252   8.592 -0.9023  0.1652  0.3134
  611MOL0     N80570   7.827   4.661   8.834  0.4105 -0.6570 -0.5152
  611MOL0     N80571   7.800   4.542   8.888  0.0047 -0.0980  0.5614
  611MOL0     C80572   6.906   3.566   8.978  0.3734  0.3065  0.9744
  611MOL0     C80573   6.846   3.478   9.070  0.1757 -0.0684  1.0028
  611MOL0     C80574   6.849   3.169   9.412  0.2594 -0.3591 -0.2592
  611MOL0     C80575   6.859   3.028   9.401  0.5298  1.0791  0.3668
  611MOL0     C80576   6.817   2.955   9.509  0.2256 -0.3952  0.3200
  611MOL0     C80577   6.772   3.013   9.630  0.3485  0.1517  1.5287
  611MOL0     O80578   6.732   2.951   9.748 -0.5375 -0.4160 -0.2436
  611MOL0     C80579   6.693   2.813   9.736 -0.2369  0.3335  0.9858
  611MOL0     C80580   6.821   2.731   9.741 -0.9232  0.5782  0.2875
  611MOL0     C80581   6.881   2.728   9.883  0.4939 -0.0061  0.1770
  611MOL0     C80582   6.816   2.653   9.993  0.3106  0.2638  0.0665
  611MOL0     C80583   6.893   2.663  10.122 -0.8287  0.5912  0.4800
  611MOL0     C80584   6.959   2.659  10.221 -0.5056  0.2200  0.9338
  611MOL0     C80585   6.792   3.153   9.643  0.2149  0.7482  0.1131
  611MOL0     C80586   6.820   3.229   9.534 -0.2300  0.3461 -0.6605
  611MOL0     H80587   7.058   3.520   9.340  2.4565 -0.2314 -1.6560
  611MOL0     H80588   7.146   3.697   9.184  2.8645 -2.9274 -1.5791
  611MOL0     H80589   7.204   3.861   9.000 -0.2486 -0.8406  0.3125
  611MOL0     H80590   7.038   3.901   9.053 -2.3345 -1.3462 -0.8005
  611MOL0     H80591   6.981   3.936   8.817 -0.6251 -1.3251  0.9333
  611MOL0     H80592   7.153   3.918   8.765  1.9750 -1.4282  1.9691
  611MOL0     H80593   7.040   4.123   8.961 -0.6518 -0.8459 -0.6278
  611MOL0     H80594   7.087   4.170   8.798  0.5114  0.9826 -0.1123
  611MOL0     H80595   7.258   4.104   9.032  2.8285 -2.2771 -0.3174
  611MOL0     H80596   7.328   4.062   8.875  0.5971  1.1252 -0.4586
  611MOL0     H80597   7.221   4.346   8.952 -1.1691 -1.3281  0.0941
  611MOL0     H80598   7.327   4.297   8.815 -1.4825  1.4488 -0.1058
  611MOL0     H80599   7.504   4.224   9.018  2.8367  1.8938 -0.0380
  611MOL0     H80600   7.385   4.317   9.112 -0.2011  1.6488 -0.3252
  611MOL0     H80601   7.434   4.505   8.952 -0.9079 -0.1360  0.3263
  611MOL0     H80602   7.565   4.455   9.062  1.9801 -1.6281 -1.0321
  611MOL0     H80603   7.558   4.350   8.771 -2.1907 -0.5328 -0.0687
  611MOL0     H80604   7.662   4.310   8.910 -0.7928 -0.4668  0.1194
  611MOL0     H80605   7.542   4.571   8.675 -2.1139 -2.5967  4.7650
  611MOL0     H80606   7.617   4.874   8.700  0.5513 -0.0387  1.8603
  611MOL0     H80607   7.699   4.784   8.560  2.4913  1.9949 -0.7888
  611MOL0     H80608   7.892   4.872   8.589  0.7741 -0.5825  1.7436
  611MOL0     H80609   7.871   4.895   8.758  4.8579 -3.0464 -2.4338
  611MOL0     H80610   7.747   5.088   8.742  0.6165  3.0923  0.0476
  611MOL0     H80611   7.867   5.120   8.625 -2.4567  1.7653 -4.2899
  611MOL0     H80612   7.599   5.023   8.528 -2.4121  1.9935 -2.6632
  611MOL0     H80613   7.735   5.032   8.436 -2.8534  1.4673 -2.1719
  611MOL0     H80614   7.735   5.382   8.653  1.0076 -2.8108  0.5788
  611MOL0     H80615   7.588   5.548   8.779  1.8828  0.0009 -0.5223
  611MOL0     H80616   7.291   5.512   9.105 -1.0528  0.0278 -0.7201
  611MOL0     H80617   7.249   5.642   9.315  2.0810  0.6053  0.9929
  611MOL0     H80618   7.287   6.102   9.316 -0.2735 -1.7095 -2.2978
  611MOL0     H80619   7.430   5.995   9.339 -0.2512  2.1553 -2.8508
  611MOL0     H80620   7.415   6.115   9.565 -1.1242  0.3958 -0.3226
  611MOL0     H80621   7.329   5.955   9.577  0.3428 -0.4556 -0.7005
  611MOL0     H80622   7.128   6.079   9.495 -1.3040  1.9899  1.6893
  611MOL0     H80623   7.222   6.232   9.513  0.8485 -0.3098 -0.6932
  611MOL0     H80624   7.157   6.019   9.716 -0.4867 -0.5354 -2.0979
  611MOL0     H80625   7.230   6.168   9.766 -1.5188 -1.4120  2.2479
  611MOL0     H80626   6.943   6.114   9.725 -0.3075  0.5565 -2.5234
  611MOL0     H80627   7.004   6.251   9.620 -2.1119  4.0991  1.3841
  611MOL0     H80628   7.088   6.250   9.909  2.6728  0.0468 -0.3654
  611MOL0     H80629   6.925   6.304   9.875  0.8572 -0.9403  3.5061
  611MOL0     H80630   7.188   6.405   9.733 -0.9871 -0.5486 -1.6994
  611MOL0     H80631   7.032   6.488   9.734 -0.7976  0.0416  0.6260
  611MOL0     H80632   7.191   6.599   9.879  0.5738 -0.4087 -0.4606
  611MOL0     H80633   7.183   6.455   9.989 -0.6754 -0.2672 -0.3002
  611MOL0     H80634   7.302   6.021   9.109 -3.2844  0.4475  1.2791
  611MOL0     H80635   7.372   5.903   8.905  0.3017 -0.5430 -1.7589
  611MOL0     H80636   7.243   5.328   8.657  0.2191 -1.3971 -0.9046
  611MOL0     H80637   7.396   5.179   8.522  1.9483 -1.1298 -0.0467
  611MOL0     H80638   6.864   3.579   8.879  1.4405  1.1562  0.6216
  611MOL0     H80639   6.759   3.424   9.035  0.2447  0.2363  0.3537
  611MOL0     H80640   6.895   2.970   9.317 -0.8121  0.4115  0.2215
  611MOL0     H80641   6.837   2.848   9.505  4.0740  0.0457  2.4558
  611MOL0     H80642   6.638   2.795   9.643 -2.5649  1.0477  2.1315
  611MOL0     H80643   6.624   2.776   9.814  0.2546 -0.5268  1.0250
  611MOL0     H80644   6.811   2.630   9.700 -2.1256  1.1806 -0.9881
  611MOL0     H80645   6.899   2.787   9.688  2.9779 -3.2498  1.4631
  611MOL0     H80646   6.898   2.832   9.912  1.7214  0.2826 -1.4762
  611MOL0     H80647   6.978   2.677   9.878 -0.7783 -2.4644 -1.5689
  611MOL0     H80648   6.710   2.683   9.996 -0.2828 -1.4471 -1.6905
  611MOL0     H80649   6.814   2.547   9.966  0.9640 -0.2210  1.8315
  611MOL0     H80650   7.020   2.665  10.309  0.4143  2.3792  0.2323
  611MOL0     H80651   6.769   3.203   9.737  0.8274 -1.3952  1.4896
  611MOL0     H80652   6.811   3.337   9.547  0.8223  0.5532 -1.6211
  612MOL0     O80653  10.086   6.141   8.071  0.0110  0.0130  0.1436
  612MOL0     C80654   9.972   6.181   8.073 -0.1000 -0.2728 -0.0251
  612MOL0     O80655   9.866   6.128   8.011  0.5271  0.8256 -0.0572
  612MOL0     C80656   9.876   6.008   7.938 -0.0243 -0.1965 -0.7384
  612MOL0     C80657   9.766   5.914   7.938 -0.0863 -0.2985 -0.4348
  612MOL0     C80658   9.763   5.800   7.863  0.4397  1.0143 -0.2303
  612MOL0     C80659   9.872   5.772   7.779 -0.1404  0.5618  1.3590
  612MOL0     O80660   9.861   5.656   7.712  0.2426 -0.6598  0.1617
  612MOL0     C80661   9.879   5.674   7.578  0.5088 -0.3664 -0.7939
  612MOL0     C80662   9.854   5.536   7.518 -0.4070 -0.0608  0.3781
  612MOL0     C80663   9.988   5.463   7.510 -0.1728  0.1394  0.7983
  612MOL0     C80664   9.989   5.336   7.594 -0.4505  0.8583 -0.3797
  612MOL0     C80665   9.882   5.239   7.552  0.7230 -1.4078  0.7247
  612MOL0     C80666   9.887   5.106   7.624 -0.5283  1.0672 -0.3189
  612MOL0     C80667   9.752   5.029   7.598 -0.5073  0.0111 -1.6265
  612MOL0     C80668   9.706   5.013   7.452 -0.3432  0.0770 -0.0481
  612MOL0     N80669   9.759   4.886   7.403  0.3333  0.0320 -0.4059
  612MOL0     C80670   9.695   4.770   7.410  1.2272 -0.6303 -0.4126
  612MOL0     C80671   9.770   4.678   7.365  0.2946 -0.9492  0.8142
  612MOL0     C80672   9.727   4.531   7.364 -0.0845 -0.1326  0.1376
  612MOL0     C80673   9.682   4.489   7.219 -0.3192 -0.2969 -0.6118
  612MOL0     C80674   9.543   4.544   7.202 -0.6291 -0.5180 -0.0975
  612MOL0     C80675   9.421   4.462   7.187 -0.2859  0.0879  0.5382
  612MOL0     O80676   9.389   4.408   7.316 -0.4207  0.2313 -0.0286
  612MOL0     C80677   9.279   4.334   7.331  0.6257 -0.4176  0.3160
  612MOL0     C80678   9.150   4.397   7.344 -0.5497 -0.2075 -0.4852
  612MOL0     C80679   9.041   4.321   7.359  0.2405  0.0776 -1.2334
  612MOL0     C80680   9.044   4.181   7.341 -1.4008  0.2814 -0.9224
  612MOL0     C80681   8.918   4.103   7.362 -0.1005 -0.8023 -0.1147
  612MOL0     O80682   8.814   4.168   7.417  0.7767 -0.5267 -0.0353
  612MOL0     C80683   8.698   4.108   7.469 -0.0744 -0.7897 -0.6812
  612MOL0     C80684   8.645   4.190   7.578  0.5791  0.1245 -0.5977
  612MOL0     C80685   8.530   4.146   7.664 -0.4145  0.1204 -0.6781
  612MOL0     C80686   8.489   4.007   7.640 -1.1094  0.0692 -0.5580
  612MOL0     O80687   8.406   3.961   7.738  0.3134  0.1051 -0.3352
  612MOL0     C80688   8.321   3.851   7.700 -0.1388 -0.0111 -0.5853
  612MOL0     C80689   8.209   3.839   7.811  0.2891  1.3812 -0.0323
  612MOL0     C80690   8.112   3.961   7.814  0.6907  1.0427  0.0615
  612MOL0     C80691   7.999   3.930   7.912  0.6581 -0.5131  0.1938
  612MOL0     C80692   7.886   4.036   7.923 -0.0450 -0.9200 -0.1894
  612MOL0     C80693   7.927   4.180   7.927  0.7219 -0.0304 -0.9998
  612MOL0     C80694   7.802   4.277   7.976  0.2130  0.6821 -0.2392
  612MOL0     C80695   7.845   4.419   7.989  0.0255 -0.5098 -0.7234
  612MOL0    Cl80696   7.980   4.453   8.107  0.1960  0.3295  0.1188
  612MOL0     C80697   8.545   3.933   7.537  0.1237 -0.3457 -0.2753
  612MOL0     C80698   8.636   3.978   7.446 -0.9121  0.8882  0.7091
  612MOL0     O80699   8.924   3.982   7.344 -0.5184 -0.0496 -0.0741
  612MOL0     C80700   9.165   4.117   7.323  0.2310  0.5397 -0.0026
  612MOL0     C80701   9.283   4.199   7.314  0.1120 -0.0495 -1.0147
  612MOL0     N80702   9.888   4.736   7.328 -0.4526 -0.3957 -0.4526
  612MOL0     N80703   9.883   4.859   7.350  0.2273  0.1190 -0.1487
  612MOL0     C80704   9.984   5.863   7.770  0.0268 -0.8758 -0.4651
  612MOL0     C80705   9.981   5.979   7.850 -0.4246 -0.4053  0.7562
  612MOL0     C80706   9.937   6.308   8.128 -0.6027 -0.8051  0.3012
  612MOL0     C80707   9.822   6.332   8.206 -0.2011  0.0105 -0.3904
  612MOL0     C80708   9.794   6.468   8.244  0.4068 -0.6417 -0.4223
  612MOL0     C80709   9.888   6.569   8.208 -0.0793 -0.0555 -0.8125
  612MOL0     O80710   9.874   6.701   8.250 -0.4391 -0.5369  0.3354
  612MOL0     C80711   9.751   6.737   8.323 -0.1957 -0.3907  0.1375
  612MOL0     C80712   9.762   6.875   8.391  1.2158  0.5444  0.7234
  612MOL0     C80713   9.767   6.983   8.280 -0.1318  0.1302  0.7544
  612MOL0     C80714   9.722   7.121   8.319  0.1720 -0.2963  0.0762
  612MOL0     C80715   9.718   7.226   8.208  0.3701 -0.1428 -0.3775
  612MOL0     C80716   9.727   7.285   8.096  0.4509 -0.1733 -0.4465
  612MOL0     C80717   9.996   6.543   8.128  0.6166  0.7046 -0.5391
  612MOL0     C80718  10.017   6.411   8.089 -1.3275  0.3617  0.7925
  612MOL0     H80719   9.683   5.935   8.004  1.0115  0.1458  0.8391
  612MOL0     H80720   9.694   5.719   7.879  2.3609 -1.3314 -2.8584
  612MOL0     H80721   9.968   5.725   7.540  2.7484 -2.8403  0.8022
  612MOL0     H80722   9.794   5.732   7.541  0.1336  0.6759  1.5471
  612MOL0     H80723   9.811   5.551   7.419  2.7505  1.7915 -0.8636
  612MOL0     H80724   9.777   5.493   7.582  1.3953 -0.6706  2.2475
  612MOL0     H80725  10.069   5.532   7.533 -0.7721  2.1277 -2.3279
  612MOL0     H80726  10.003   5.427   7.407 -3.0156 -0.0295  0.3477
  612MOL0     H80727  10.085   5.286   7.578  0.8062  3.7442 -2.5856
  612MOL0     H80728   9.968   5.363   7.698 -1.9484 -3.8581  0.7863
  612MOL0     H80729   9.906   5.225   7.446 -1.0026  2.9142 -0.4223
  612MOL0     H80730   9.781   5.276   7.568  0.6207 -2.0660  1.7418
  612MOL0     H80731   9.893   5.117   7.733  1.8244 -1.0894 -0.1268
  612MOL0     H80732   9.979   5.068   7.577  1.7373  3.4030  1.8884
  612MOL0     H80733   9.753   4.929   7.643 -2.2927 -0.7317 -3.0729
  612MOL0     H80734   9.682   5.091   7.654  2.0887  0.4670  1.3747
  612MOL0     H80735   9.733   5.097   7.387 -0.7641 -1.0916 -1.7982
  612MOL0     H80736   9.598   4.997   7.441 -0.8836  2.5328  1.0509
  612MOL0     H80737   9.593   4.760   7.445  2.0740 -3.5923  1.6157
  612MOL0     H80738   9.652   4.513   7.442 -0.9194  0.0418 -0.6076
  612MOL0     H80739   9.820   4.480   7.391 -0.5929 -0.1859  1.8910
  612MOL0     H80740   9.675   4.381   7.203 -2.0554 -0.3557  0.3309
  612MOL0     H80741   9.754   4.533   7.150 -0.8584  1.2175 -0.2395
  612MOL0     H80742   9.512   4.615   7.279 -2.5819 -1.2577 -0.1295
  612MOL0     H80743   9.554   4.591   7.104 -2.2472  0.1485  0.0207
  612MOL0     H80744   9.437   4.382   7.113 -2.0641 -0.2229  0.4473
  612MOL0     H80745   9.338   4.516   7.141 -2.8382 -2.3415  1.9966
  612MOL0     H80746   9.152   4.505   7.349  1.0565 -0.2219 -0.2329
  612MOL0     H80747   8.946   4.373   7.364 -0.8490 -1.8316 -1.2158
  612MOL0     H80748   8.683   4.291   7.578  0.0229  0.4583  2.6744
  612MOL0     H80749   8.479   4.213   7.731  0.3214  0.0985 -0.0881
  612MOL0     H80750   8.384   3.762   7.700  1.7233  1.1627  2.5994
  612MOL0     H80751   8.277   3.879   7.604 -0.6340 -0.2312 -0.4242
  612MOL0     H80752   8.266   3.831   7.904  0.6540 -0.2417 -0.3706
  612MOL0     H80753   8.146   3.750   7.805 -0.6176  1.8965  1.3598
  612MOL0     H80754   8.081   3.984   7.712 -2.0766  2.5798  1.1244
  612MOL0     H80755   8.178   4.043   7.843  1.2285  0.6140  0.0610
  612MOL0     H80756   7.943   3.843   7.878  0.3946 -0.0964 -0.4567
  612MOL0     H80757   8.036   3.909   8.012  2.7235 -1.4869 -0.7159
  612MOL0     H80758   7.825   4.014   8.012  0.0956  3.1717  1.1455
  612MOL0     H80759   7.819   4.018   7.839 -0.7700  0.8209 -0.0463
  612MOL0     H80760   7.968   4.226   7.837  0.6397  2.2652  0.0403
  612MOL0     H80761   8.010   4.198   7.997 -1.3994 -0.4767  1.7750
  612MOL0     H80762   7.723   4.273   7.899 -1.1365 -2.0903  1.1498
  612MOL0     H80763   7.769   4.247   8.075 -2.3143  1.1563 -0.8579
  612MOL0     H80764   7.751   4.472   8.006 -1.1506 -2.7794  0.2691
  612MOL0     H80765   7.877   4.459   7.893  4.8413  0.7425  1.1070
  612MOL0     H80766   8.505   3.835   7.513 -1.5162  0.2763 -0.1895
  612MOL0     H80767   8.684   3.912   7.375  2.5709  0.5649  3.1207
  612MOL0     H80768   9.167   4.009   7.335  1.1805  0.5782  0.2859
  612MOL0     H80769   9.380   4.153   7.297  1.2373  1.0569  1.7203
  612MOL0     H80770  10.075   5.833   7.719  0.4277  0.5532 -0.6339
  612MOL0     H80771  10.068   6.041   7.835 -2.3408  2.0960 -0.8622
  612MOL0     H80772   9.769   6.241   8.231  2.6056 -1.6292  0.0602
  612MOL0     H80773   9.706   6.486   8.306  1.3225 -0.9541  1.0265
  612MOL0     H80774   9.729   6.665   8.403  0.0556 -0.1112  0.4586
  612MOL0     H80775   9.663   6.718   8.260 -1.0210 -2.2837  1.7376
  612MOL0     H80776   9.668   6.888   8.446 -0.6625 -2.5959 -1.3764
  612MOL0     H80777   9.849   6.886   8.456  0.4029 -0.4574  2.0281
  612MOL0     H80778   9.694   6.955   8.204 -1.0248  2.0640  0.8310
  612MOL0     H80779   9.867   6.988   8.237 -0.2513 -3.5148 -0.2664
  612MOL0     H80780   9.621   7.100   8.356  0.8815 -1.1391  1.6649
  612MOL0     H80781   9.772   7.160   8.408 -1.9943  0.5855  0.9896
  612MOL0     H80782   9.729   7.357   8.017 -0.7776  0.5101  0.1264
  612MOL0     H80783  10.069   6.616   8.095  0.3100  1.3067  0.1026
  612MOL0     H80784  10.099   6.388   8.021 -0.2996  1.9538  1.4381
  613MOL0     O80785   5.554   1.567  10.398  0.9063  0.7332  0.5265
  613MOL0     C80786   5.488   1.472  10.371  0.7487 -0.3334  0.4209
  613MOL0     O80787   5.363   1.485  10.315 -0.6179  0.1679 -0.3765
  613MOL0     C80788   5.298   1.610  10.302  0.2370  0.1911  0.8851
  613MOL0     C80789   5.161   1.608  10.323  1.0017  0.7811 -0.5746
  613MOL0     C80790   5.091   1.729  10.330  0.2307  0.6790  0.0057
  613MOL0     C80791   5.147   1.849  10.285  0.9312 -1.1429 -0.8008
  613MOL0     O80792   5.067   1.965  10.302 -0.7725  0.2550 -0.0975
  613MOL0     C80793   5.125   2.091  10.251 -1.0002 -0.1859  0.5609
  613MOL0     C80794   5.045   2.213  10.243  0.8206 -0.6600  0.0528
  613MOL0     C80795   4.914   2.197  10.164 -0.2615 -0.2055 -0.1961
  613MOL0     C80796   4.832   2.323  10.165 -0.0831  0.7087  0.3638
  613MOL0     C80797   4.914   2.436  10.094 -0.2656  0.7068 -0.5262
  613MOL0     C80798   4.836   2.559  10.059 -0.1378 -0.3961 -0.3912
  613MOL0     C80799   4.722   2.540   9.962 -0.2357 -0.3402 -0.9621
  613MOL0     C80800   4.691   2.669   9.892 -0.1837 -0.1717  0.0340
  613MOL0     N80801   4.557   2.650   9.824 -0.0034  0.1775 -0.5522
  613MOL0     C80802   4.464   2.753   9.820  0.8586  0.9217  0.2168
  613MOL0     C80803   4.368   2.709   9.740  0.3585 -0.5705  0.1495
  613MOL0     C80804   4.233   2.772   9.695 -0.2000 -0.1094  0.5326
  613MOL0     C80805   4.126   2.759   9.799 -0.3675 -0.1183  0.0433
  613MOL0     C80806   3.988   2.821   9.770 -0.5488  0.1623 -0.0788
  613MOL0     C80807   3.889   2.716   9.714 -0.7283 -0.2543 -0.3167
  613MOL0     O80808   3.751   2.741   9.761 -0.5157  0.6548  0.5981
  613MOL0     C80809   3.646   2.657   9.723 -0.3350  0.0310 -0.1347
  613MOL0     C80810   3.658   2.538   9.643  0.2352  0.4714 -0.4512
  613MOL0     C80811   3.543   2.463   9.600  0.5320  0.9741 -0.1372
  613MOL0     C80812   3.416   2.497   9.629 -0.3555 -0.0459  0.5872
  613MOL0     C80813   3.302   2.424   9.575 -0.0013  0.1581  0.5738
  613MOL0     O80814   3.322   2.302   9.504  0.0662 -0.0840 -0.6572
  613MOL0     C80815   3.205   2.258   9.453 -0.2178 -0.5135 -0.5907
  613MOL0     C80816   3.171   2.319   9.329 -0.8727 -0.1479  0.8356
  613MOL0     C80817   3.058   2.278   9.265 -0.3536 -0.1990 -0.6754
  613MOL0     C80818   2.971   2.195   9.333 -0.0114 -0.2500  0.4524
  613MOL0     O80819   2.857   2.171   9.263  0.2027 -0.2677 -1.5293
  613MOL0     C80820   2.817   2.033   9.278 -0.7130 -0.6698  0.4387
  613MOL0     C80821   2.711   2.013   9.169 -0.1911 -0.1912  0.0320
  613MOL0     C80822   2.583   2.106   9.172 -0.0662 -0.6645  0.1484
  613MOL0     C80823   2.473   2.065   9.076 -0.1887 -0.4681  0.2251
  613MOL0     C80824   2.442   1.922   9.082  0.3359  0.4082 -0.2268
  613MOL0     C80825   2.303   1.904   9.019 -1.2097  1.3411  0.5627
  613MOL0     C80826   2.259   1.986   8.899 -0.3853  0.9321 -1.5476
  613MOL0     C80827   2.129   1.936   8.830 -0.3316  0.7448  0.2206
  613MOL0    Cl80828   2.098   2.040   8.689  0.3788  0.4116 -0.2679
  613MOL0     C80829   3.002   2.138   9.463 -0.4288 -0.1395  0.7657
  613MOL0     C80830   3.120   2.172   9.521  0.0856  0.0655 -0.4838
  613MOL0     O80831   3.199   2.474   9.606  0.3081  0.1976 -0.0506
  613MOL0     C80832   3.400   2.614   9.707 -0.4538  0.0221  0.0193
  613MOL0     C80833   3.512   2.691   9.749  0.7807 -0.5895  0.9276
  613MOL0     N80834   4.404   2.593   9.664 -1.5870 -0.8208 -0.6001
  613MOL0     N80835   4.521   2.573   9.722 -0.3239  0.5441  0.2678
  613MOL0     C80836   5.278   1.842  10.244 -0.8128 -0.0158 -0.0678
  613MOL0     C80837   5.361   1.725  10.255 -0.0400 -0.5195 -0.3896
  613MOL0     C80838   5.552   1.336  10.372  0.5072 -0.6693  0.5801
  613MOL0     C80839   5.688   1.318  10.398  0.0236  0.3492  0.6506
  613MOL0     C80840   5.751   1.188  10.383 -1.1468  1.4058 -0.4651
  613MOL0     C80841   5.672   1.081  10.334  0.0115  0.2300  0.1250
  613MOL0     O80842   5.738   0.961  10.311 -0.5988  0.0370  0.6255
  613MOL0     C80843   5.671   0.844  10.261  0.0918  0.1679  0.0830
  613MOL0     C80844   5.755   0.723  10.308 -0.6493  0.4663 -0.1070
  613MOL0     C80845   5.726   0.595  10.250 -0.0770 -0.0320 -0.7161
  613MOL0     C80846   5.757   0.590  10.100  0.1500  0.6515  0.6269
  613MOL0     C80847   5.738   0.454  10.046 -0.6153  1.6216  0.3702
  613MOL0     C80848   5.715   0.344  10.002  0.1509  0.4190 -1.1567
  613MOL0     C80849   5.534   1.105  10.315 -0.0282 -0.3868  0.6713
  613MOL0     C80850   5.470   1.231  10.334  1.2497 -0.3709 -0.8231
  613MOL0     H80851   5.110   1.515  10.348 -1.1699  2.1381  0.3289
  613MOL0     H80852   4.997   1.731  10.383  0.4397  2.0623  0.3544
  613MOL0     H80853   5.159   2.066  10.150  0.4284 -0.8547  1.1756
  613MOL0     H80854   5.215   2.124  10.305  0.0640 -1.0305 -0.6568
  613MOL0     H80855   5.104   2.295  10.202 -1.3909  1.4813  0.9302
  613MOL0     H80856   5.034   2.251  10.344  2.6323  4.7097 -1.4309
  613MOL0     H80857   4.865   2.108  10.204 -0.9483 -0.0570 -0.6845
  613MOL0     H80858   4.952   2.183  10.062 -0.8468 -1.3626 -0.2768
  613MOL0     H80859   4.748   2.307  10.097  1.6015 -0.3233 -1.6015
  613MOL0     H80860   4.805   2.348  10.268 -0.7600  1.5595 -0.0129
  613MOL0     H80861   4.957   2.395  10.002  0.8590 -0.8470  0.6299
  613MOL0     H80862   5.002   2.462  10.154 -0.7449  0.0924  0.4533
  613MOL0     H80863   4.906   2.635  10.023 -0.2372 -0.8921 -1.6917
  613MOL0     H80864   4.792   2.595  10.152 -0.4257  3.9549 -1.9696
  613MOL0     H80865   4.764   2.487   9.876 -0.7556  1.8444 -2.6282
  613MOL0     H80866   4.638   2.481  10.001 -0.6362  1.3215  0.8021
  613MOL0     H80867   4.778   2.692   9.829  0.7827  1.4192  1.8477
  613MOL0     H80868   4.677   2.751   9.963 -1.7115 -1.8815  1.8545
  613MOL0     H80869   4.464   2.854   9.862  1.1990  1.1180 -0.2393
  613MOL0     H80870   4.193   2.725   9.605 -1.4636 -2.8897  2.4015
  613MOL0     H80871   4.251   2.877   9.668  1.6102 -0.5304 -0.0035
  613MOL0     H80872   4.168   2.817   9.881  1.3243 -0.1627 -0.7558
  613MOL0     H80873   4.119   2.655   9.833  1.9702 -1.0078 -1.8823
  613MOL0     H80874   3.943   2.868   9.857  0.2317  0.2849  0.2737
  613MOL0     H80875   3.990   2.896   9.690 -3.1332  0.4542  0.0724
  613MOL0     H80876   3.910   2.620   9.763  0.0125 -0.3183 -0.7484
  613MOL0     H80877   3.900   2.712   9.606  1.2565 -0.7709 -0.1459
  613MOL0     H80878   3.759   2.507   9.620  1.4784  0.2749  4.1553
  613MOL0     H80879   3.553   2.370   9.545 -2.2991  1.8035 -2.2930
  613MOL0     H80880   3.240   2.389   9.283  1.7847 -1.7805  2.1143
  613MOL0     H80881   3.036   2.310   9.164  1.0767  1.7247 -0.4236
  613MOL0     H80882   2.768   2.012   9.374  0.2165 -1.1742  0.8200
  613MOL0     H80883   2.901   1.963   9.274  0.8621  1.2045 -1.2889
  613MOL0     H80884   2.696   1.906   9.181 -1.1697  0.0854  1.5331
  613MOL0     H80885   2.761   2.020   9.071 -1.3354  1.9989 -0.4665
  613MOL0     H80886   2.612   2.211   9.159 -0.2640 -0.2381  2.6280
  613MOL0     H80887   2.549   2.109   9.276  2.9926  1.6106  1.2640
  613MOL0     H80888   2.391   2.130   9.105  0.1584  0.7219 -1.3004
  613MOL0     H80889   2.512   2.096   8.978  0.7159  1.0824  1.0322
  613MOL0     H80890   2.438   1.881   9.183 -2.6493  2.5740  0.6788
  613MOL0     H80891   2.516   1.853   9.041  0.1556 -0.5212  0.9675
  613MOL0     H80892   2.221   1.914   9.091 -1.0219 -0.0084  1.0082
  613MOL0     H80893   2.297   1.801   8.981 -2.7342  2.8829 -3.9806
  613MOL0     H80894   2.256   2.087   8.941  0.9350  0.8979 -1.3552
  613MOL0     H80895   2.331   1.995   8.818 -0.0800 -0.7835 -1.4915
  613MOL0     H80896   2.048   1.945   8.903  0.3920  3.2109  0.8185
  613MOL0     H80897   2.151   1.835   8.795 -1.5725  0.5530 -0.0710
  613MOL0     H80898   2.916   2.083   9.500 -0.9867  0.5438  0.5207
  613MOL0     H80899   3.155   2.143   9.620  2.0201 -1.1653 -1.4591
  613MOL0     H80900   3.304   2.644   9.748  0.5367  0.8986  1.7975
  613MOL0     H80901   3.481   2.782   9.799 -1.8344  1.3734 -3.6276
  613MOL0     H80902   5.318   1.939  10.216 -1.0908  0.5103  1.2923
  613MOL0     H80903   5.470   1.721  10.254  0.2302 -2.0579  4.6450
  613MOL0     H80904   5.744   1.402  10.436 -0.5350  1.8083 -1.5798
  613MOL0     H80905   5.858   1.169  10.394 -1.1354  1.2682 -0.7999
  613MOL0     H80906   5.658   0.835  10.153 -0.7241 -1.0280  0.2605
  613MOL0     H80907   5.565   0.840  10.287 -0.0085  0.7103 -0.2413
  613MOL0     H80908   5.859   0.739  10.280 -1.0897  0.6132 -1.7346
  613MOL0     H80909   5.754   0.713  10.417 -0.4754  0.4648 -0.1055
  613MOL0     H80910   5.624   0.559  10.268  0.8067 -1.4993  1.9591
  613MOL0     H80911   5.790   0.520  10.299 -0.5935 -1.5271 -2.2205
  613MOL0     H80912   5.688   0.643  10.034 -0.7523 -0.0522  0.9921
  613MOL0     H80913   5.855   0.635  10.079  0.8497 -1.1862 -0.2984
  613MOL0     H80914   5.683   0.244   9.979  1.9610 -0.6899  0.8142
  613MOL0     H80915   5.467   1.025  10.286  0.2864 -0.9768  1.5284
  613MOL0     H80916   5.363   1.246  10.323  1.1479 -1.1413 -0.9325
  614MOL0     O80917   5.048   7.696   6.232  0.4631  0.2078  0.3652
  614MOL0     C80918   5.043   7.810   6.267  0.2527 -0.7449 -0.8253
  614MOL0     O80919   4.930   7.892   6.268 -0.5571 -0.6516 -0.6744
  614MOL0     C80920   4.824   7.818   6.249  0.0828  0.2600  0.5464
  614MOL0     C80921   4.749   7.768   6.359 -0.7235  0.6701  0.0889
  614MOL0     C80922   4.633   7.704   6.343 -0.0828 -0.3026  0.7449
  614MOL0     C80923   4.576   7.682   6.217  0.5872 -0.2068  0.3722
  614MOL0     O80924   4.457   7.607   6.214 -0.4746 -0.0721  0.1609
  614MOL0     C80925   4.365   7.657   6.117 -1.0807 -0.0250  1.7275
  614MOL0     C80926   4.326   7.557   6.008  0.3918  0.3239  1.0141
  614MOL0     C80927   4.275   7.632   5.884  0.0266  0.5970  0.3176
  614MOL0     C80928   4.262   7.519   5.771  0.3259 -1.0189 -0.1324
  614MOL0     C80929   4.146   7.415   5.801  0.1327  0.4952 -0.1310
  614MOL0     C80930   4.133   7.284   5.724 -0.4724 -0.5567 -0.5973
  614MOL0     C80931   4.265   7.208   5.750  0.5049 -0.3325  0.1385
  614MOL0     C80932   4.252   7.060   5.753 -0.2999 -0.0960  0.6971
  614MOL0     N80933   4.200   7.018   5.878 -1.0898  0.6561  0.5667
  614MOL0     C80934   4.269   7.025   6.001 -0.3021  0.8606  0.0777
  614MOL0     C80935   4.175   6.988   6.097 -0.5718 -0.5917  0.1697
  614MOL0     C80936   4.181   6.997   6.245  0.3881  0.2530  0.0158
  614MOL0     C80937   4.305   7.054   6.310 -0.4499  0.0509 -0.3766
  614MOL0     C80938   4.288   7.204   6.335  0.6280  0.9245 -0.0141
  614MOL0     C80939   4.426   7.275   6.353  0.1566 -0.0405 -0.0996
  614MOL0     O80940   4.490   7.208   6.465 -0.2463 -0.3643  0.3482
  614MOL0     C80941   4.594   7.270   6.519 -0.0504 -0.0274 -1.2548
  614MOL0     C80942   4.681   7.360   6.451  0.3999 -0.5139  0.3819
  614MOL0     C80943   4.778   7.432   6.513 -0.2588 -0.3064 -0.4397
  614MOL0     C80944   4.807   7.409   6.653 -0.1249 -0.9225  0.6744
  614MOL0     C80945   4.912   7.486   6.731 -0.2176  0.2436 -0.2009
  614MOL0     O80946   4.949   7.611   6.700 -0.2183  0.4261 -0.1672
  614MOL0     C80947   5.028   7.693   6.782  0.1729  0.3205  0.4510
  614MOL0     C80948   5.070   7.674   6.916  0.1428 -0.0116 -0.1945
  614MOL0     C80949   5.117   7.782   6.991 -0.7811 -0.2846 -0.4205
  614MOL0     C80950   5.136   7.906   6.929  0.0824 -0.1888 -0.2202
  614MOL0     O80951   5.199   7.995   6.999  0.7944  0.1897 -0.6116
  614MOL0     C80952   5.138   8.049   7.123  0.1105  0.1973  0.6817
  614MOL0     C80953   5.190   8.177   7.184 -0.3223 -0.8628 -0.8699
  614MOL0     C80954   5.188   8.281   7.070 -0.3547 -1.3571 -0.1727
  614MOL0     C80955   5.169   8.417   7.135  0.3864 -0.2507 -0.0713
  614MOL0     C80956   5.140   8.519   7.026 -0.3362 -0.2021 -0.1974
  614MOL0     C80957   5.139   8.663   7.081  0.1824  0.4409  0.5786
  614MOL0     C80958   5.131   8.763   6.959  0.5806  1.0581 -0.3064
  614MOL0     C80959   5.098   8.902   7.014 -0.2380 -0.7528 -0.7555
  614MOL0    Cl80960   5.251   8.946   7.103  0.7465  0.0669 -0.0724
  614MOL0     C80961   5.093   7.930   6.796  0.2542  1.5620  1.1647
  614MOL0     C80962   5.039   7.826   6.723  0.1338 -0.9278  0.2979
  614MOL0     O80963   4.950   7.422   6.832 -0.7860  0.3843 -0.2171
  614MOL0     C80964   4.727   7.306   6.716 -0.6740 -0.3480  0.9994
  614MOL0     C80965   4.627   7.235   6.651  0.0499 -0.0458  0.5542
  614MOL0     N80966   4.057   6.968   6.026  0.6243  0.8943  0.0922
  614MOL0     N80967   4.068   6.992   5.904 -0.1695  0.2828 -0.1162
  614MOL0     C80968   4.656   7.726   6.106 -0.4080  1.7707 -0.1141
  614MOL0     C80969   4.776   7.789   6.126 -0.1355 -0.3253  0.7408
  614MOL0     C80970   5.161   7.873   6.318 -1.0383  0.2254 -0.4956
  614MOL0     C80971   5.156   8.006   6.383 -0.3392 -1.2156 -0.5006
  614MOL0     C80972   5.277   8.057   6.435  0.0738  0.4068  0.5060
  614MOL0     C80973   5.402   7.995   6.426  0.0380  0.5381 -0.9236
  614MOL0     O80974   5.517   8.061   6.469  0.6311 -0.0418  0.5422
  614MOL0     C80975   5.632   8.063   6.377  1.4854 -0.0277  0.9189
  614MOL0     C80976   5.711   8.182   6.416 -0.2549  0.3677  0.3359
  614MOL0     C80977   5.853   8.169   6.372 -1.0642 -0.2344 -0.3398
  614MOL0     C80978   5.860   8.181   6.216 -1.3192  0.4449 -0.5177
  614MOL0     C80979   5.799   8.294   6.147  0.9983 -0.2017  0.5206
  614MOL0     C80980   5.770   8.392   6.075  0.3297  1.3562  0.1038
  614MOL0     C80981   5.404   7.868   6.373  0.1404  0.4894  0.4346
  614MOL0     C80982   5.287   7.807   6.319 -0.3134 -0.7889  0.6131
  614MOL0     H80983   4.781   7.802   6.457 -0.7106  1.0544 -0.0460
  614MOL0     H80984   4.568   7.694   6.429 -0.2405  1.4950  0.8681
  614MOL0     H80985   4.409   7.744   6.066 -2.4336  0.6572  1.6816
  614MOL0     H80986   4.277   7.709   6.156 -1.0876  0.7798  0.6713
  614MOL0     H80987   4.243   7.499   6.049 -0.4230  1.2636  0.7377
  614MOL0     H80988   4.415   7.499   5.981  1.0548  1.9696 -0.5234
  614MOL0     H80989   4.341   7.714   5.854  0.9501  0.0108  0.6928
  614MOL0     H80990   4.174   7.664   5.912 -0.7783 -2.6874  1.6814
  614MOL0     H80991   4.243   7.570   5.676  0.4829 -0.0090  0.3617
  614MOL0     H80992   4.356   7.466   5.755 -0.9476 -3.0453 -1.3878
  614MOL0     H80993   4.049   7.454   5.770 -0.9358 -0.0478  2.2508
  614MOL0     H80994   4.136   7.393   5.908 -0.8091  0.4541 -0.2177
  614MOL0     H80995   4.100   7.298   5.620  0.4309 -0.1126 -0.8357
  614MOL0     H80996   4.051   7.242   5.783  0.3295 -1.2115  0.0819
  614MOL0     H80997   4.322   7.233   5.660  0.3038 -0.2343  0.0375
  614MOL0     H80998   4.318   7.249   5.836 -2.2780  2.0315  0.8843
  614MOL0     H80999   4.350   7.015   5.734  0.8179  1.5060  2.3222
  614MOL0     H81000   4.182   7.028   5.675  0.3728 -2.6540  1.0702
  614MOL0     H81001   4.370   7.063   6.017  0.6250 -0.6092 -1.9190
  614MOL0     H81002   4.160   6.898   6.287  1.4399  0.5447  1.3115
  614MOL0     H81003   4.097   7.061   6.273 -0.3627 -0.1450 -1.2327
  614MOL0     H81004   4.393   7.032   6.248 -1.7800  0.3397 -2.4549
  614MOL0     H81005   4.310   7.003   6.406  1.1872  3.3211  1.4592
  614MOL0     H81006   4.229   7.243   6.251 -1.1204 -0.1545  0.6594
  614MOL0     H81007   4.223   7.217   6.422 -1.9904  1.5477 -1.9352
  614MOL0     H81008   4.402   7.378   6.379 -0.0110 -0.8518  3.5944
  614MOL0     H81009   4.501   7.280   6.274  2.4640 -0.7903  1.8786
  614MOL0     H81010   4.654   7.405   6.356  1.3178  1.5673  1.0310
  614MOL0     H81011   4.842   7.504   6.465 -1.7032  2.6314  1.7204
  614MOL0     H81012   5.080   7.579   6.968 -0.1644 -1.9461 -3.4356
  614MOL0     H81013   5.162   7.761   7.087  0.8009 -0.9533 -1.2759
  614MOL0     H81014   5.151   7.976   7.204 -0.3241 -0.8626 -0.1896
  614MOL0     H81015   5.033   8.064   7.096  0.5905 -0.6174 -1.8923
  614MOL0     H81016   5.298   8.173   7.201  0.0420 -1.8498 -3.0103
  614MOL0     H81017   5.134   8.203   7.274  1.2309 -1.5441  0.3316
  614MOL0     H81018   5.118   8.260   6.989  1.2643  1.8707 -2.6445
  614MOL0     H81019   5.274   8.281   7.002 -0.3353 -0.5620 -0.1654
  614MOL0     H81020   5.080   8.411   7.198 -0.6487  1.5782 -1.2790
  614MOL0     H81021   5.258   8.450   7.189  0.7724  3.1936 -2.4743
  614MOL0     H81022   5.042   8.494   6.986 -2.3143  1.7886  2.9668
  614MOL0     H81023   5.209   8.510   6.941 -2.9542 -1.2211 -2.3561
  614MOL0     H81024   5.223   8.688   7.146  0.4948  2.9057 -0.6585
  614MOL0     H81025   5.054   8.667   7.151 -0.3664 -1.8431  0.1324
  614MOL0     H81026   5.230   8.767   6.913  1.3964  0.9177  1.3404
  614MOL0     H81027   5.052   8.736   6.888 -1.5393  0.1318  2.2081
  614MOL0     H81028   5.028   8.898   7.098  2.0587 -1.9147  1.2373
  614MOL0     H81029   5.072   8.973   6.935  1.7693 -0.1604 -0.9400
  614MOL0     H81030   5.107   8.030   6.756 -2.2478  1.7169  0.5334
  614MOL0     H81031   5.016   7.848   6.619  0.5805 -2.7654 -0.2189
  614MOL0     H81032   4.743   7.281   6.820  2.4622 -1.3604  0.3712
  614MOL0     H81033   4.582   7.155   6.709 -1.9867  0.6980  0.0581
  614MOL0     H81034   4.626   7.707   6.003  1.2400  1.0497 -0.4869
  614MOL0     H81035   4.829   7.849   6.052 -1.7749  2.0969  1.4043
  614MOL0     H81036   5.065   8.061   6.401  1.1219  0.2269  3.5314
  614MOL0     H81037   5.277   8.155   6.482 -1.6024  1.6682 -1.9289
  614MOL0     H81038   5.589   8.080   6.277  0.4842  0.2297  1.3748
  614MOL0     H81039   5.688   7.969   6.370 -1.6448 -1.9885 -0.7000
  614MOL0     H81040   5.663   8.270   6.374 -2.3957 -1.0433 -0.3612
  614MOL0     H81041   5.716   8.193   6.525  5.1468 -1.0962  0.5479
  614MOL0     H81042   5.894   8.069   6.389  1.0234  0.3222 -1.7318
  614MOL0     H81043   5.922   8.242   6.417 -2.6999  1.7526 -0.9204
  614MOL0     H81044   5.964   8.188   6.185 -0.9839  4.6325  0.9938
  614MOL0     H81045   5.815   8.091   6.172 -2.4534  2.4958 -3.9807
  614MOL0     H81046   5.746   8.472   6.008 -5.4202  0.1554  0.2384
  614MOL0     H81047   5.504   7.826   6.362  0.7334  2.4444 -3.6964
  614MOL0     H81048   5.295   7.720   6.255 -0.2109  0.8718 -1.7565
  615MOL0     O81049   3.260   5.201   1.459  0.1179  0.0421 -0.4161
  615MOL0     C81050   3.231   5.084   1.462  0.4872  0.1091 -0.0321
  615MOL0     O81051   3.313   4.975   1.493  0.6394 -0.2629 -0.5437
  615MOL0     C81052   3.403   4.972   1.592 -0.0388 -0.7035 -1.2105
  615MOL0     C81053   3.502   4.881   1.583 -0.4677  0.4974 -0.3059
  615MOL0     C81054   3.601   4.881   1.686  0.8955 -0.6589  0.5945
  615MOL0     C81055   3.595   4.962   1.796 -0.1263 -0.2844 -0.3685
  615MOL0     O81056   3.688   4.953   1.895 -0.0353  0.1483  0.2732
  615MOL0     C81057   3.757   5.076   1.920 -0.3318 -1.0947  0.1510
  615MOL0     C81058   3.852   5.056   2.032 -0.4189 -0.0024 -0.1394
  615MOL0     C81059   3.937   5.181   2.074  0.0601 -0.0722  0.6217
  615MOL0     C81060   4.016   5.143   2.196 -0.3275 -0.5803 -1.3423
  615MOL0     C81061   4.114   5.028   2.171  0.3937 -0.5659 -0.2321
  615MOL0     C81062   4.210   5.055   2.054  0.0825 -0.0871 -0.1458
  615MOL0     C81063   4.279   5.190   2.040  0.2226  0.2837  0.2549
  615MOL0     C81064   4.377   5.226   2.151 -0.9958 -0.2731  0.3935
  615MOL0     N81065   4.352   5.363   2.219  0.4509 -0.0995  0.0627
  615MOL0     C81066   4.424   5.412   2.328  0.1276 -0.1280  0.2359
  615MOL0     C81067   4.362   5.525   2.373 -0.0123 -0.2004  1.0114
  615MOL0     C81068   4.415   5.615   2.481  0.3246 -0.3302  0.1378
  615MOL0     C81069   4.565   5.669   2.459 -0.3842  0.1984  0.2903
  615MOL0     C81070   4.653   5.734   2.571  0.6986 -0.1390 -0.0597
  615MOL0     C81071   4.686   5.644   2.682 -0.3249 -1.1149 -0.1818
  615MOL0     O81072   4.764   5.532   2.648 -0.2155  0.5936  0.0761
  615MOL0     C81073   4.901   5.540   2.668  0.6671  0.3842 -0.1678
  615MOL0     C81074   4.968   5.590   2.779  0.0463  0.0778 -0.3717
  615MOL0     C81075   5.106   5.590   2.792 -1.1917 -0.2457 -0.0585
  615MOL0     C81076   5.197   5.529   2.697  0.5061  0.0314 -0.2840
  615MOL0     C81077   5.347   5.537   2.710  0.3783  0.2003 -0.8811
  615MOL0     O81078   5.390   5.538   2.843 -0.3935  0.5262 -0.4246
  615MOL0     C81079   5.516   5.493   2.879  0.6976 -0.6400 -0.3892
  615MOL0     C81080   5.616   5.444   2.792 -0.9786  0.2726 -0.6660
  615MOL0     C81081   5.729   5.389   2.850  0.5821 -0.9180 -0.1947
  615MOL0     C81082   5.750   5.381   2.981 -0.4692 -0.5891  0.1572
  615MOL0     O81083   5.873   5.329   3.011  0.1610  0.0695 -0.2105
  615MOL0     C81084   5.935   5.338   3.137  0.4125 -0.3565 -0.3886
  615MOL0     C81085   6.020   5.206   3.149 -0.1160  0.3780 -0.1422
  615MOL0     C81086   6.100   5.215   3.294  0.5789 -0.0913  0.9844
  615MOL0     C81087   6.181   5.078   3.311 -0.9716  0.5353 -0.6888
  615MOL0     C81088   6.295   5.085   3.426 -0.3537 -0.2847  0.8951
  615MOL0     C81089   6.233   5.087   3.568  1.0189 -0.0418  0.5265
  615MOL0     C81090   6.323   5.163   3.663 -0.4008  0.4965  0.1302
  615MOL0     C81091   6.456   5.094   3.690 -0.4795  0.6851  0.3008
  615MOL0    Cl81092   6.580   5.222   3.713  0.3370 -0.7065  0.3244
  615MOL0     C81093   5.662   5.451   3.068  0.3461  0.4117  0.7225
  615MOL0     C81094   5.541   5.500   3.018  0.3637  0.6163 -0.4792
  615MOL0     O81095   5.419   5.556   2.610  0.7109  1.0025  0.6357
  615MOL0     C81096   5.122   5.480   2.586 -0.2484  0.9661 -0.4956
  615MOL0     C81097   4.985   5.470   2.573  0.5222  0.1509  0.4296
  615MOL0     N81098   4.241   5.540   2.305  0.1686  0.5775 -0.2147
  615MOL0     N81099   4.240   5.437   2.221 -0.1277 -0.3217  0.1086
  615MOL0     C81100   3.484   5.046   1.817 -0.0213 -0.4046 -0.0497
  615MOL0     C81101   3.394   5.054   1.712 -1.1773  0.2065  0.5630
  615MOL0     C81102   3.093   5.035   1.432 -1.4369  0.0910 -0.4659
  615MOL0     C81103   3.068   4.897   1.404 -0.6101  0.1825 -0.3641
  615MOL0     C81104   2.936   4.847   1.391 -1.8011 -0.9998  0.0109
  615MOL0     C81105   2.824   4.939   1.411 -0.3377  0.6675  0.5140
  615MOL0     O81106   2.695   4.884   1.405 -0.0020 -0.3872 -0.3868
  615MOL0     C81107   2.579   4.966   1.401  0.3034 -0.1953 -0.1950
  615MOL0     C81108   2.524   5.013   1.530 -0.5484 -0.6928  0.3320
  615MOL0     C81109   2.577   4.942   1.658 -0.2303  0.4704 -0.1285
  615MOL0     C81110   2.510   4.988   1.779 -0.5541  0.2190 -0.4534
  615MOL0     C81111   2.564   4.916   1.902 -0.1270 -0.0631 -0.2490
  615MOL0     C81112   2.609   4.873   2.010 -0.7149 -0.9366  0.4027
  615MOL0     C81113   2.853   5.065   1.429  0.1150 -0.4030 -0.1340
  615MOL0     C81114   2.987   5.121   1.444  0.9632 -0.2626 -0.7445
  615MOL0     H81115   3.512   4.815   1.497 -0.9954  1.3937 -1.0628
  615MOL0     H81116   3.689   4.819   1.673  2.8531  2.0332  0.3982
  615MOL0     H81117   3.688   5.159   1.938 -4.3283 -2.6595 -5.3720
  615MOL0     H81118   3.810   5.113   1.832 -0.3891 -1.2319  0.0583
  615MOL0     H81119   3.915   4.972   2.003  0.5405  1.3591 -2.2980
  615MOL0     H81120   3.792   5.031   2.120  1.0491 -1.3772  0.5191
  615MOL0     H81121   3.873   5.268   2.091 -2.2299 -1.7006  0.8005
  615MOL0     H81122   4.005   5.196   1.990 -1.8470  0.2037 -0.9556
  615MOL0     H81123   4.074   5.225   2.239 -0.9269 -2.0577  2.6466
  615MOL0     H81124   3.944   5.104   2.269  1.0166  0.8015  0.8306
  615MOL0     H81125   4.056   4.936   2.161 -0.4788  0.1159 -2.0439
  615MOL0     H81126   4.176   5.013   2.259  0.6358 -0.2791 -0.3503
  615MOL0     H81127   4.145   5.041   1.967  3.2749 -0.8333 -2.6043
  615MOL0     H81128   4.290   4.981   2.042  0.8131  0.9042 -1.8327
  615MOL0     H81129   4.331   5.181   1.944 -0.7478  3.8128 -0.7387
  615MOL0     H81130   4.210   5.274   2.029 -0.0267  0.5235  2.9553
  615MOL0     H81131   4.476   5.234   2.105 -0.0746  1.8991  2.5662
  615MOL0     H81132   4.400   5.154   2.230 -0.3994  0.4694  0.9119
  615MOL0     H81133   4.518   5.375   2.367  1.0137  1.7755  0.0291
  615MOL0     H81134   4.418   5.569   2.580  1.4447  1.1970  0.8591
  615MOL0     H81135   4.346   5.700   2.490  0.0758 -0.7399  2.7033
  615MOL0     H81136   4.545   5.750   2.389 -2.2954  0.3228  0.9204
  615MOL0     H81137   4.617   5.587   2.408 -3.5904 -0.5624 -2.1137
  615MOL0     H81138   4.741   5.780   2.526  0.1141 -0.2090 -1.3330
  615MOL0     H81139   4.599   5.815   2.621  1.3647 -1.8491  3.7575
  615MOL0     H81140   4.596   5.610   2.734  1.5986 -1.7984  3.0271
  615MOL0     H81141   4.749   5.701   2.751 -0.9780 -0.8297  0.1929
  615MOL0     H81142   4.925   5.647   2.861 -0.4099  3.1922 -2.5519
  615MOL0     H81143   5.153   5.639   2.877  0.0560  0.2807 -1.0140
  615MOL0     H81144   5.614   5.442   2.683  0.2149 -0.3308 -0.6858
  615MOL0     H81145   5.818   5.370   2.790  2.1392  1.7202  1.0895
  615MOL0     H81146   5.861   5.341   3.217 -0.8588  0.5985 -1.5418
  615MOL0     H81147   5.993   5.431   3.135  0.3775 -0.3333 -0.3178
  615MOL0     H81148   6.088   5.208   3.064  1.3579  0.4908  1.0093
  615MOL0     H81149   5.952   5.120   3.146  1.6315 -1.0134 -2.2572
  615MOL0     H81150   6.030   5.228   3.377 -0.6729 -3.0018  0.4938
  615MOL0     H81151   6.168   5.300   3.299 -1.5433  1.8482 -0.6028
  615MOL0     H81152   6.116   4.991   3.324 -0.2090  0.3746  3.7404
  615MOL0     H81153   6.239   5.076   3.219 -2.2616  1.3192 -1.5514
  615MOL0     H81154   6.347   5.178   3.399 -2.8737  0.5822 -1.4402
  615MOL0     H81155   6.365   5.001   3.425  0.1572  0.1331 -0.3832
  615MOL0     H81156   6.215   4.981   3.585 -1.1937  0.0009 -1.1496
  615MOL0     H81157   6.133   5.133   3.563  0.6737 -0.8733 -2.4413
  615MOL0     H81158   6.338   5.261   3.617 -0.7156  1.0983  1.2703
  615MOL0     H81159   6.254   5.169   3.748  0.3317 -0.5748  0.8269
  615MOL0     H81160   6.485   5.030   3.606 -1.3647  0.3704  0.2304
  615MOL0     H81161   6.451   5.039   3.785  2.4150  1.3609  0.9372
  615MOL0     H81162   5.689   5.455   3.173  3.0714  1.8676  0.0583
  615MOL0     H81163   5.461   5.538   3.079  0.7099 -0.4026  0.6435
  615MOL0     H81164   5.178   5.421   2.513 -3.6821  1.1604 -3.5631
  615MOL0     H81165   4.940   5.422   2.487 -3.1642  0.8409  1.7914
  615MOL0     H81166   3.471   5.104   1.908 -2.0405 -0.9028  0.0095
  615MOL0     H81167   3.327   5.140   1.716  0.6362  1.6873  0.2140
  615MOL0     H81168   3.149   4.829   1.380 -1.6448 -0.2563 -3.0195
  615MOL0     H81169   2.922   4.746   1.354  0.1497 -1.6139  0.8042
  615MOL0     H81170   2.500   4.898   1.368 -1.4049  1.2657  0.7135
  615MOL0     H81171   2.596   5.038   1.320  0.1252 -2.6689 -2.6260
  615MOL0     H81172   2.542   5.120   1.534  1.1017 -0.8575 -1.3415
  615MOL0     H81173   2.417   4.994   1.517 -0.6622 -2.0663  2.6344
  615MOL0     H81174   2.687   4.944   1.652 -0.0850 -2.8996 -0.5321
  615MOL0     H81175   2.547   4.838   1.646  3.0836 -0.3133 -4.1192
  615MOL0     H81176   2.521   5.097   1.784  2.0383 -0.0169  0.4049
  615MOL0     H81177   2.404   4.974   1.754 -1.5209  4.9119 -0.0882
  615MOL0     H81178   2.614   4.819   2.102  1.9788  0.5648  1.2348
  615MOL0     H81179   2.778   5.141   1.450  1.8569  1.3545 -0.0419
  615MOL0     H81180   3.006   5.225   1.469  0.1624 -0.2837  0.0056
  616MOL0     O81181   5.497  10.106   3.172 -0.1670  0.1761 -1.0183
  616MOL0     C81182   5.436  10.165   3.086  0.3352  0.4291 -0.6770
  616MOL0     O81183   5.387  10.293   3.091  0.2154  0.0421 -0.9327
  616MOL0     C81184   5.393  10.373   3.209 -0.0884 -0.1759  0.1986
  616MOL0     C81185   5.306  10.474   3.233 -0.2650  0.5967  0.6000
  616MOL0     C81186   5.327  10.572   3.337  1.3430 -0.2099 -0.3642
  616MOL0     C81187   5.427  10.561   3.428  0.9866 -0.2820  0.0102
  616MOL0     O81188   5.453  10.656   3.530  0.2041  0.0454  1.1364
  616MOL0     C81189   5.363  10.766   3.527  0.3269  0.6866 -0.3636
  616MOL0     C81190   5.378  10.861   3.644 -0.1511  0.5411 -0.8147
  616MOL0     C81191   5.274  10.967   3.648 -0.1015 -0.0781  0.2089
  616MOL0     C81192   5.304  11.101   3.733 -0.1919 -0.2357  0.0200
  616MOL0     C81193   5.408  11.198   3.668 -0.4094 -0.0621  0.1966
  616MOL0     C81194   5.360  11.269   3.544 -0.8993  1.0647  0.2426
  616MOL0     C81195   5.419  11.405   3.515  0.1172  0.5701  0.0148
  616MOL0     C81196   5.565  11.404   3.540 -0.8932 -0.4698  0.3083
  616MOL0     N81197   5.634  11.515   3.474  0.7641 -0.5362 -0.5950
  616MOL0     C81198   5.602  11.643   3.489  0.8034 -0.0475  0.2846
  616MOL0     C81199   5.710  11.714   3.445  0.3623  0.2577 -0.7124
  616MOL0     C81200   5.723  11.862   3.422  0.5315  0.6320 -0.2321
  616MOL0     C81201   5.677  11.876   3.279 -0.2542 -0.5129 -0.7557
  616MOL0     C81202   5.662  12.027   3.257  0.4775 -0.4376  0.0937
  616MOL0     C81203   5.635  12.054   3.110 -0.3533  0.1702 -0.4141
  616MOL0     O81204   5.553  12.165   3.079 -0.8252  0.2741  0.0442
  616MOL0     C81205   5.491  12.163   2.954  0.2461  0.0477 -0.0593
  616MOL0     C81206   5.489  12.060   2.863 -0.5069 -0.3138 -0.0537
  616MOL0     C81207   5.417  12.065   2.737 -0.0019 -0.0576 -0.7691
  616MOL0     C81208   5.355  12.178   2.705  0.0385  0.2748 -0.4565
  616MOL0     C81209   5.276  12.188   2.582  0.1098 -0.2068  0.5423
  616MOL0     O81210   5.260  12.072   2.503  0.1563 -0.2737 -0.6841
  616MOL0     C81211   5.204  12.078   2.380  0.7134 -0.3815  0.3644
  616MOL0     C81212   5.074  12.044   2.358  0.2386 -0.6162 -0.1616
  616MOL0     C81213   5.017  12.050   2.231 -0.9057  0.1291  0.4097
  616MOL0     C81214   5.106  12.067   2.125 -0.3514 -0.5196  0.2066
  616MOL0     O81215   5.056  12.045   2.005  0.1467 -1.2649  1.0398
  616MOL0     C81216   5.144  12.000   1.899 -0.2139 -0.3976 -0.7306
  616MOL0     C81217   5.072  11.928   1.796  0.0315  0.3258  0.7907
  616MOL0     C81218   5.160  11.862   1.687  0.0971  0.0699  0.4545
  616MOL0     C81219   5.072  11.787   1.587 -0.0781  0.2102 -0.1143
  616MOL0     C81220   5.142  11.773   1.449 -0.2271  0.1517  0.8074
  616MOL0     C81221   5.051  11.706   1.341 -0.2019 -0.2222 -0.7097
  616MOL0     C81222   4.908  11.761   1.347 -0.3966  0.8084  0.4118
  616MOL0     C81223   4.839  11.730   1.211 -0.0264  0.5438  0.6759
  616MOL0    Cl81224   4.827  11.552   1.185 -0.0684 -0.1533 -0.0931
  616MOL0     C81225   5.240  12.116   2.152 -0.3288 -0.6674  0.0587
  616MOL0     C81226   5.281  12.108   2.273 -0.2037  0.0003 -0.7112
  616MOL0     O81227   5.245  12.303   2.545 -0.2282  0.3773  0.9006
  616MOL0     C81228   5.361  12.286   2.791  0.2874 -0.2310 -0.4616
  616MOL0     C81229   5.419  12.275   2.920  1.0615 -0.2098 -0.3697
  616MOL0     N81230   5.798  11.627   3.395 -0.2366 -1.0161 -1.3307
  616MOL0     N81231   5.756  11.509   3.425  0.5964  0.4177  0.1134
  616MOL0     C81232   5.512  10.440   3.419 -0.1151 -0.1735 -0.3362
  616MOL0     C81233   5.492  10.357   3.309 -0.3743 -0.6114 -0.6487
  616MOL0     C81234   5.417  10.079   2.975  0.1051 -0.0284  0.6379
  616MOL0     C81235   5.496   9.955   2.966  0.5291 -0.5301 -0.8619
  616MOL0     C81236   5.451   9.849   2.877  0.2549  0.2262  0.3548
  616MOL0     C81237   5.329   9.851   2.803  0.2621  0.3342  0.3883
  616MOL0     O81238   5.285   9.746   2.729 -0.2099  0.0064  0.6906
  616MOL0     C81239   5.150   9.745   2.674  0.7156  0.2255 -0.0562
  616MOL0     C81240   5.126   9.608   2.614 -0.8711  0.4436  0.3127
  616MOL0     C81241   4.997   9.605   2.536 -0.5275  0.1377  0.1954
  616MOL0     C81242   4.978   9.460   2.486  0.3629 -0.3927  0.7464
  616MOL0     C81243   4.846   9.429   2.426  1.0575  0.7553  0.1597
  616MOL0     C81244   4.741   9.383   2.381 -0.2774  0.4534  0.1251
  616MOL0     C81245   5.259   9.976   2.804 -0.7982  0.5970  0.3709
  616MOL0     C81246   5.302  10.086   2.886 -0.5920 -0.0219  0.1744
  616MOL0     H81247   5.227  10.484   3.159 -1.5252  4.0665  2.2052
  616MOL0     H81248   5.265  10.660   3.328 -0.0751 -1.2437 -1.1543
  616MOL0     H81249   5.262  10.725   3.524  0.3046  0.7301 -0.2314
  616MOL0     H81250   5.361  10.828   3.436 -1.2852  1.5446  0.2245
  616MOL0     H81251   5.473  10.915   3.630  0.0114  0.3864 -0.3050
  616MOL0     H81252   5.370  10.810   3.740 -0.9164 -1.5446 -1.9124
  616MOL0     H81253   5.187  10.924   3.699 -0.7131 -0.2719 -0.9816
  616MOL0     H81254   5.253  10.996   3.545  2.2788 -0.8868 -0.5667
  616MOL0     H81255   5.206  11.144   3.753 -1.1558 -1.1261 -2.3106
  616MOL0     H81256   5.349  11.067   3.826 -0.4344  1.1305  0.6542
  616MOL0     H81257   5.510  11.160   3.663 -0.8357 -1.1629 -0.6379
  616MOL0     H81258   5.422  11.267   3.751  0.7742 -0.0505  0.0006
  616MOL0     H81259   5.254  11.285   3.523 -0.5806  0.1575 -2.5025
  616MOL0     H81260   5.396  11.201   3.465 -1.5992  1.2752 -0.2671
  616MOL0     H81261   5.403  11.427   3.409  0.0617  0.0676 -0.0868
  616MOL0     H81262   5.372  11.487   3.569  0.9709 -1.2322  3.8088
  616MOL0     H81263   5.604  11.315   3.491  1.7509  1.3692 -1.1668
  616MOL0     H81264   5.600  11.397   3.644  1.4733  0.0880 -0.4065
  616MOL0     H81265   5.523  11.684   3.551  0.4794  0.9512 -0.7659
  616MOL0     H81266   5.824  11.904   3.433  1.3927 -1.4116 -0.0214
  616MOL0     H81267   5.662  11.908   3.500 -2.8834 -2.7543 -0.6409
  616MOL0     H81268   5.573  11.844   3.263 -0.2579 -0.8815 -0.0367
  616MOL0     H81269   5.753  11.842   3.209  0.8633  2.1368 -0.9293
  616MOL0     H81270   5.590  12.065   3.330 -0.0478 -1.9844  0.4085
  616MOL0     H81271   5.760  12.076   3.263 -0.1134  0.8369 -0.2921
  616MOL0     H81272   5.561  11.975   3.090 -0.5564  0.6955 -1.8025
  616MOL0     H81273   5.721  12.043   3.043 -1.8327 -1.6006 -2.1569
  616MOL0     H81274   5.559  11.981   2.887  1.1524  1.3742  0.9199
  616MOL0     H81275   5.413  11.973   2.678  0.7627  0.5340 -1.7594
  616MOL0     H81276   5.014  12.015   2.443 -3.6161  1.1559 -2.0598
  616MOL0     H81277   4.910  12.028   2.229 -1.0611 -0.1817  4.0892
  616MOL0     H81278   5.225  11.934   1.933 -0.3071 -0.5797 -0.8539
  616MOL0     H81279   5.191  12.091   1.863 -1.6660  0.2121 -1.1598
  616MOL0     H81280   5.008  11.997   1.741  1.9371  1.0579 -0.6034
  616MOL0     H81281   4.999  11.859   1.840 -0.0168  2.4372  4.4605
  616MOL0     H81282   5.222  11.788   1.739  1.2223 -0.2480 -1.2704
  616MOL0     H81283   5.224  11.934   1.635  1.3157 -0.8836  0.5848
  616MOL0     H81284   5.045  11.686   1.619  0.2290 -0.6851 -2.4783
  616MOL0     H81285   4.972  11.831   1.579 -0.5174 -0.0196  2.8718
  616MOL0     H81286   5.242  11.729   1.440 -0.1251  0.3933  0.7561
  616MOL0     H81287   5.151  11.875   1.412  0.1691 -0.2677 -0.2913
  616MOL0     H81288   5.051  11.600   1.368  2.7518 -0.4070 -1.0979
  616MOL0     H81289   5.099  11.723   1.244  1.8088  0.2829  0.3285
  616MOL0     H81290   4.846  11.706   1.418 -0.7580  0.1353 -0.4078
  616MOL0     H81291   4.922  11.869   1.353  0.3548  0.8333 -1.0948
  616MOL0     H81292   4.891  11.776   1.127 -2.3566  1.2766 -0.4494
  616MOL0     H81293   4.741  11.777   1.216  0.6926  3.1564 -3.9911
  616MOL0     H81294   5.304  12.148   2.070 -1.8754 -1.2735 -1.4352
  616MOL0     H81295   5.380  12.145   2.296  0.3407 -1.5294 -0.4779
  616MOL0     H81296   5.306  12.377   2.768  1.6083  1.0721  1.2653
  616MOL0     H81297   5.405  12.360   2.987 -0.8788 -2.1232  1.8092
  616MOL0     H81298   5.601  10.424   3.480 -0.5686  0.6891  0.5839
  616MOL0     H81299   5.579  10.295   3.288  1.4554  2.0946 -1.5732
  616MOL0     H81300   5.584   9.939   3.029 -0.5562 -1.7498  0.4044
  616MOL0     H81301   5.505   9.755   2.885  3.8893  1.7367 -3.2569
  616MOL0     H81302   5.143   9.813   2.589 -0.4342  0.2914  0.0738
  616MOL0     H81303   5.072   9.771   2.746 -0.5137 -0.6733 -1.0117
  616MOL0     H81304   5.215   9.591   2.554 -1.3729 -1.4210  0.0564
  616MOL0     H81305   5.109   9.531   2.690 -0.9040 -0.8213 -0.9416
  616MOL0     H81306   4.991   9.673   2.451  4.7007  1.3681  0.4670
  616MOL0     H81307   4.915   9.639   2.600 -1.8785 -0.4264 -1.1718
  616MOL0     H81308   5.060   9.433   2.419  1.3719 -0.3283  1.9193
  616MOL0     H81309   4.991   9.386   2.566  0.7611 -0.9858  0.1493
  616MOL0     H81310   4.656   9.346   2.328 -0.3712  0.6025  0.1685
  616MOL0     H81311   5.167   9.992   2.748  0.0151  2.2651 -0.5810
  616MOL0     H81312   5.232  10.166   2.907 -1.9226 -0.2280 -2.8357
  617MOL0     O81313   6.587   2.822   0.409  0.1256  0.4163  0.2117
  617MOL0     C81314   6.671   2.861   0.332 -0.1044 -0.1421  0.0602
  617MOL0     O81315   6.771   2.787   0.279  0.0378  0.6554  0.0057
  617MOL0     C81316   6.774   2.651   0.303  0.2647 -0.4361 -0.0878
  617MOL0     C81317   6.667   2.566   0.282 -0.9397 -0.1005 -0.8740
  617MOL0     C81318   6.688   2.424   0.305 -0.0867  0.1450  0.0405
  617MOL0     C81319   6.817   2.371   0.336 -0.3506  0.9551  0.3194
  617MOL0     O81320   6.838   2.237   0.347  0.3172  0.4700 -0.0918
  617MOL0     C81321   6.766   2.162   0.445 -0.4506 -1.2417  0.3368
  617MOL0     C81322   6.861   2.136   0.559 -0.3618  0.2825  0.1129
  617MOL0     C81323   6.954   2.012   0.534 -0.7351 -0.4849 -0.0905
  617MOL0     C81324   7.056   1.988   0.640  0.2448 -0.3571  0.1577
  617MOL0     C81325   7.020   1.958   0.786  0.6581 -0.2192 -0.0728
  617MOL0     C81326   6.932   1.838   0.811 -0.8805 -0.0059  0.8456
  617MOL0     C81327   6.881   1.830   0.963  0.5381  0.0526 -0.2479
  617MOL0     C81328   6.775   1.729   0.989 -1.4319  0.1981  0.4784
  617MOL0     N81329   6.820   1.600   1.044 -0.5903 -0.3424  0.0454
  617MOL0     C81330   6.785   1.545   1.156  0.3917  0.8374  0.1829
  617MOL0     C81331   6.820   1.413   1.145  0.9560  0.5272  0.1964
  617MOL0     C81332   6.777   1.295   1.231 -0.6785 -0.4804 -0.3436
  617MOL0     C81333   6.844   1.320   1.365 -0.6342 -0.6639  0.1947
  617MOL0     C81334   6.824   1.202   1.461 -0.6253 -0.4547  0.2452
  617MOL0     C81335   6.830   1.233   1.606  0.2816 -0.7224 -0.4222
  617MOL0     O81336   6.772   1.124   1.685  1.0140  0.1800  0.0745
  617MOL0     C81337   6.847   1.099   1.797  0.8572  0.7851  0.5758
  617MOL0     C81338   6.872   0.968   1.833 -0.1053 -0.6426 -0.4710
  617MOL0     C81339   6.943   0.934   1.947  0.8847 -0.1815 -0.5001
  617MOL0     C81340   6.995   1.035   2.031  0.3471  0.4828  0.2341
  617MOL0     C81341   7.080   0.995   2.141  0.8179 -1.0821 -0.7264
  617MOL0     O81342   7.152   1.093   2.198  0.7439 -0.1246  0.3654
  617MOL0     C81343   7.259   1.075   2.282  0.0477  0.1728  0.8119
  617MOL0     C81344   7.318   1.193   2.321 -0.1660  0.8964 -0.2029
  617MOL0     C81345   7.429   1.195   2.395  0.1078  0.2289  0.0510
  617MOL0     C81346   7.478   1.078   2.450  0.9769  0.2257  0.9006
  617MOL0     O81347   7.585   1.070   2.533 -0.1015  0.2841 -0.3867
  617MOL0     C81348   7.544   1.040   2.665  0.4880  0.7196 -0.5272
  617MOL0     C81349   7.653   1.073   2.754  0.5993  0.1291 -1.1573
  617MOL0     C81350   7.754   0.965   2.777  1.1927  0.3202  0.8062
  617MOL0     C81351   7.815   0.912   2.653 -0.2422 -0.3227 -0.9044
  617MOL0     C81352   7.942   0.824   2.667  0.1765 -0.4531  0.4125
  617MOL0     C81353   7.975   0.769   2.532  0.5627 -0.2975  0.3059
  617MOL0     C81354   8.107   0.697   2.522 -0.2003 -0.8289  0.6885
  617MOL0     C81355   8.231   0.764   2.581  0.4809 -0.3348  0.2145
  617MOL0    Cl81356   8.236   0.936   2.500  0.1130  0.4667 -0.3242
  617MOL0     C81357   7.427   0.952   2.412 -1.3511  0.2189 -0.8161
  617MOL0     C81358   7.314   0.954   2.325 -0.0856  0.1433 -0.4357
  617MOL0     O81359   7.083   0.876   2.169  0.0636 -0.5237 -0.1870
  617MOL0     C81360   6.971   1.170   1.997 -0.3198  0.5054 -0.2459
  617MOL0     C81361   6.901   1.199   1.876 -0.1715  0.5492  0.1647
  617MOL0     N81362   6.877   1.381   1.031 -0.7180  0.4619 -0.3791
  617MOL0     N81363   6.884   1.499   0.976  0.2951  0.8804  0.0770
  617MOL0     C81364   6.919   2.460   0.360 -0.1919  0.8160 -0.7331
  617MOL0     C81365   6.894   2.599   0.347 -0.5648  0.3128  0.4761
  617MOL0     C81366   6.675   3.006   0.311 -0.8097 -0.1828 -0.1970
  617MOL0     C81367   6.607   3.099   0.397 -0.4373  0.5291  0.5548
  617MOL0     C81368   6.605   3.238   0.371  0.2363 -0.0352  0.3028
  617MOL0     C81369   6.672   3.290   0.272 -0.7569  0.0335 -0.3329
  617MOL0     O81370   6.679   3.426   0.244 -0.1082  0.2821  0.8160
  617MOL0     C81371   6.789   3.482   0.171  0.3947 -0.2276  0.4506
  617MOL0     C81372   6.821   3.618   0.222 -0.5485 -0.0380  0.1374
  617MOL0     C81373   6.882   3.619   0.366 -1.2118  0.6462  0.8405
  617MOL0     C81374   6.837   3.525   0.475  0.6520  0.5348 -0.1311
  617MOL0     C81375   6.906   3.536   0.607  0.1434 -1.1133  0.4321
  617MOL0     C81376   6.951   3.535   0.718 -1.0437  0.3302 -0.0035
  617MOL0     C81377   6.744   3.204   0.192 -1.0387  1.0992  0.1643
  617MOL0     C81378   6.757   3.068   0.217 -0.0311 -0.1728 -0.4193
  617MOL0     H81379   6.566   2.603   0.267 -1.8520 -1.3522  1.5298
  617MOL0     H81380   6.611   2.348   0.296 -0.6144  0.7313 -0.4793
  617MOL0     H81381   6.722   2.071   0.403 -1.2638 -0.7308  0.0760
  617MOL0     H81382   6.682   2.216   0.489  0.5830  0.4681  0.2906
  617MOL0     H81383   6.793   2.131   0.644 -0.9688 -0.4670 -0.4010
  617MOL0     H81384   6.928   2.219   0.583  1.5815 -1.7882  2.3797
  617MOL0     H81385   7.005   2.011   0.438  0.2529  3.0737  0.2531
  617MOL0     H81386   6.897   1.919   0.526 -0.5864 -0.6868  0.9575
  617MOL0     H81387   7.117   1.903   0.608  1.0625  0.4091 -0.3471
  617MOL0     H81388   7.121   2.076   0.639 -0.0706 -0.1285 -0.3642
  617MOL0     H81389   6.976   2.049   0.828  4.5911  2.4896 -1.2617
  617MOL0     H81390   7.112   1.944   0.844  1.0333 -2.9873 -1.1741
  617MOL0     H81391   6.994   1.752   0.786 -0.3535  0.8262 -0.8585
  617MOL0     H81392   6.841   1.838   0.749 -2.6835  3.4047  3.1554
  617MOL0     H81393   6.967   1.810   1.028 -1.4033 -1.5061  1.9949
  617MOL0     H81394   6.850   1.929   0.997 -2.1478 -0.6646 -0.4309
  617MOL0     H81395   6.727   1.711   0.893 -0.8824  2.7940 -0.3586
  617MOL0     H81396   6.712   1.780   1.062  1.8866  4.0800  1.0053
  617MOL0     H81397   6.728   1.588   1.237  0.0299  0.5550  0.0783
  617MOL0     H81398   6.809   1.198   1.192  1.5384 -0.4919  1.2484
  617MOL0     H81399   6.671   1.282   1.251 -0.2449 -1.9052  1.3082
  617MOL0     H81400   6.795   1.409   1.407 -0.2691  1.4803 -3.4817
  617MOL0     H81401   6.947   1.357   1.359 -1.3121  1.0919 -1.5678
  617MOL0     H81402   6.726   1.161   1.436 -0.1055 -0.6012 -1.7756
  617MOL0     H81403   6.895   1.124   1.431 -1.3564 -1.0644  0.0782
  617MOL0     H81404   6.772   1.322   1.634 -0.5555 -0.5809 -2.4414
  617MOL0     H81405   6.933   1.267   1.622 -0.9799  2.9157  1.1963
  617MOL0     H81406   6.834   0.892   1.765  4.1914 -0.9690 -2.8025
  617MOL0     H81407   6.968   0.832   1.975 -2.3053 -1.1479 -0.8136
  617MOL0     H81408   7.279   1.287   2.284  0.0112  0.7935 -0.6470
  617MOL0     H81409   7.488   1.284   2.414 -1.4503  1.0748  1.1591
  617MOL0     H81410   7.510   0.938   2.682 -2.4461  2.1179  3.4041
  617MOL0     H81411   7.465   1.105   2.703 -0.4300 -0.7680  0.1709
  617MOL0     H81412   7.607   1.103   2.849 -1.0801 -0.2916 -1.8057
  617MOL0     H81413   7.701   1.164   2.717 -1.6342  1.2034 -1.5623
  617MOL0     H81414   7.694   0.886   2.822 -1.4908 -0.0750 -3.0659
  617MOL0     H81415   7.841   1.002   2.833 -0.2589  2.5128  1.7677
  617MOL0     H81416   7.739   0.857   2.597  0.4085 -0.1138 -2.0315
  617MOL0     H81417   7.846   1.002   2.600 -2.3023  0.2718 -1.1622
  617MOL0     H81418   7.926   0.748   2.744 -0.6551 -1.8553 -1.0907
  617MOL0     H81419   8.027   0.885   2.700  0.9549 -0.9717 -0.6121
  617MOL0     H81420   7.981   0.841   2.451  1.0086 -2.8403 -2.0816
  617MOL0     H81421   7.886   0.708   2.512  1.6304 -1.6496 -0.4938
  617MOL0     H81422   8.091   0.595   2.560  2.3876 -1.9995 -1.1055
  617MOL0     H81423   8.135   0.685   2.417 -0.5718  2.3026  0.1227
  617MOL0     H81424   8.320   0.702   2.571  1.9571  1.6075  0.6502
  617MOL0     H81425   8.218   0.766   2.690  2.9196 -4.6180  0.8093
  617MOL0     H81426   7.476   0.863   2.451  0.3356  0.7399 -1.6396
  617MOL0     H81427   7.280   0.855   2.297  0.3503 -0.2036  0.2429
  617MOL0     H81428   7.003   1.260   2.049 -0.9363  1.6050 -1.7027
  617MOL0     H81429   6.886   1.299   1.837  4.2214  0.9580 -1.0538
  617MOL0     H81430   7.021   2.435   0.384 -1.5517 -2.0795  3.1243
  617MOL0     H81431   6.984   2.657   0.367 -1.2599  0.2077  4.6214
  617MOL0     H81432   6.549   3.065   0.482 -2.4200  3.0433  0.3036
  617MOL0     H81433   6.527   3.298   0.417 -0.3307  1.2038 -2.1291
  617MOL0     H81434   6.748   3.510   0.074 -2.7239 -2.8153  0.8620
  617MOL0     H81435   6.887   3.434   0.182  0.1648 -0.4644  1.5932
  617MOL0     H81436   6.904   3.663   0.168  1.9296 -1.7139  2.3001
  617MOL0     H81437   6.744   3.695   0.215 -0.9417 -0.4269  0.0852
  617MOL0     H81438   6.861   3.718   0.408  0.5855  2.1423 -1.5404
  617MOL0     H81439   6.988   3.593   0.355 -1.0496  0.7198  2.0343
  617MOL0     H81440   6.732   3.546   0.500  0.5157 -1.9822  1.9111
  617MOL0     H81441   6.840   3.425   0.431  0.1450  0.3404  0.2578
  617MOL0     H81442   6.968   3.532   0.824 -3.7816 -3.3061  0.5710
  617MOL0     H81443   6.798   3.247   0.108 -0.2924  1.9973  1.0704
  617MOL0     H81444   6.805   3.012   0.137 -0.7235  0.3984 -1.2581
  618MOL0     O81445   6.119   1.655   5.853  0.6231  0.4699 -0.2484
  618MOL0     C81446   6.217   1.652   5.931 -0.2744  1.5892  0.5289
  618MOL0     O81447   6.216   1.697   6.057  0.1221  0.1238 -0.1582
  618MOL0     C81448   6.096   1.756   6.097  0.1057  0.4612  0.5099
  618MOL0     C81449   6.002   1.689   6.179  0.1491  1.2078  0.5147
  618MOL0     C81450   5.881   1.751   6.210  0.4860 -0.5801 -1.1735
  618MOL0     C81451   5.859   1.889   6.182 -0.2933  1.3507  0.3070
  618MOL0     O81452   5.743   1.957   6.220  0.0909  0.4305 -0.3578
  618MOL0     C81453   5.640   1.892   6.300 -1.1822 -0.8623 -0.1617
  618MOL0     C81454   5.513   1.971   6.271 -0.3111 -0.5277 -0.3600
  618MOL0     C81455   5.407   1.912   6.368  0.4343 -0.2096 -0.2503
  618MOL0     C81456   5.279   2.002   6.359  0.4287  0.3767  0.2128
  618MOL0     C81457   5.176   1.972   6.243  0.3637  0.6120  0.1603
  618MOL0     C81458   5.045   2.051   6.262 -0.1344 -0.0051 -0.3691
  618MOL0     C81459   5.034   2.159   6.153 -0.2434  0.2704 -0.0945
  618MOL0     C81460   5.111   2.293   6.191  0.0091  0.2293  0.0882
  618MOL0     N81461   5.231   2.309   6.110  0.2765 -0.0591 -0.4690
  618MOL0     C81462   5.236   2.356   5.978 -0.0131  0.2369 -1.0305
  618MOL0     C81463   5.359   2.379   5.952 -1.3471 -1.1483 -0.4397
  618MOL0     C81464   5.414   2.444   5.826 -0.6092 -0.4919  0.0290
  618MOL0     C81465   5.548   2.525   5.849  0.3965 -0.1372  0.5095
  618MOL0     C81466   5.520   2.667   5.902  0.1822  0.3147 -0.2859
  618MOL0     C81467   5.579   2.681   6.046  0.8776 -0.1114  0.5788
  618MOL0     O81468   5.540   2.803   6.107  0.2736  0.5968 -0.0151
  618MOL0     C81469   5.417   2.825   6.162  0.7254 -0.1704  0.1049
  618MOL0     C81470   5.317   2.724   6.166 -0.1650 -0.7050  0.4091
  618MOL0     C81471   5.199   2.744   6.237  0.9036 -0.5265  0.1334
  618MOL0     C81472   5.171   2.872   6.293  1.1014  0.6882 -0.3542
  618MOL0     C81473   5.044   2.899   6.372 -0.7531 -0.6032  1.1670
  618MOL0     O81474   5.030   3.027   6.408  0.3021 -0.4020 -0.0729
  618MOL0     C81475   4.936   3.055   6.504  1.6928 -0.2599  0.0070
  618MOL0     C81476   4.929   2.995   6.631  0.5618 -0.2610  0.2657
  618MOL0     C81477   4.818   3.022   6.714  0.7647 -1.2663 -0.4355
  618MOL0     C81478   4.727   3.135   6.691 -0.0553  0.4846  0.7523
  618MOL0     O81479   4.613   3.162   6.769 -0.3687 -0.5570  0.0917
  618MOL0     C81480   4.558   3.064   6.856  0.0738  1.1526  0.0424
  618MOL0     C81481   4.490   2.956   6.769  0.3380  0.0346 -0.3062
  618MOL0     C81482   4.387   3.019   6.673 -0.3237 -0.0334 -0.1785
  618MOL0     C81483   4.300   2.902   6.603  0.2479  0.0797 -0.0411
  618MOL0     C81484   4.183   2.962   6.525  0.4298 -0.2108  0.1302
  618MOL0     C81485   4.205   3.096   6.456 -0.3702 -1.1790  0.9311
  618MOL0     C81486   4.077   3.128   6.370 -0.2551 -0.6393 -0.3656
  618MOL0     C81487   4.089   3.242   6.269 -0.1732 -0.0699 -0.5521
  618MOL0    Cl81488   4.058   3.400   6.354 -0.0746 -0.1620  0.2041
  618MOL0     C81489   4.750   3.198   6.576  0.3654 -0.0400 -0.0701
  618MOL0     C81490   4.852   3.164   6.487  0.6367 -1.0566 -0.5184
  618MOL0     O81491   4.963   2.811   6.395 -0.1585  0.1377  0.1569
  618MOL0     C81492   5.274   2.965   6.287 -0.9089  0.2437  0.3792
  618MOL0     C81493   5.398   2.949   6.219  0.2398  0.4076 -0.5793
  618MOL0     N81494   5.433   2.360   6.071  0.2695  0.5761 -0.2020
  618MOL0     N81495   5.352   2.322   6.166 -1.5588 -0.3954  0.9106
  618MOL0     C81496   5.942   1.946   6.087  0.0507  0.2104  0.1463
  618MOL0     C81497   6.057   1.880   6.039 -0.3790 -0.3221 -0.4578
  618MOL0     C81498   6.337   1.589   5.880  0.3791  0.6458  0.2983
  618MOL0     C81499   6.340   1.539   5.747  0.0380 -0.5017 -0.1322
  618MOL0     C81500   6.452   1.485   5.685 -0.4328 -0.4242  0.2149
  618MOL0     C81501   6.573   1.482   5.761  0.4446 -0.3727  0.2789
  618MOL0     O81502   6.683   1.424   5.712 -0.6403  0.2813 -0.1250
  618MOL0     C81503   6.690   1.420   5.568  0.1237  0.6391  0.5316
  618MOL0     C81504   6.808   1.350   5.517 -0.0392 -0.1705  0.1802
  618MOL0     C81505   6.930   1.439   5.520  0.6027  0.4182 -0.1445
  618MOL0     C81506   6.970   1.488   5.660 -0.0749  0.7103 -0.0453
  618MOL0     C81507   7.095   1.557   5.643  0.1020 -0.0260  0.8655
  618MOL0     C81508   7.185   1.634   5.630 -0.0965  0.1051  0.5550
  618MOL0     C81509   6.566   1.529   5.886 -0.8143 -0.8323 -0.7769
  618MOL0     C81510   6.447   1.573   5.949 -0.7358  0.3089 -0.4348
  618MOL0     H81511   6.041   1.596   6.221  1.7601  1.5870 -0.0623
  618MOL0     H81512   5.823   1.699   6.285  1.9178  0.1463  0.5212
  618MOL0     H81513   5.661   1.906   6.406 -1.8490  0.1570 -0.1544
  618MOL0     H81514   5.621   1.786   6.280 -2.6028 -0.9063  1.2257
  618MOL0     H81515   5.484   1.954   6.167 -2.9585  0.2722  0.1686
  618MOL0     H81516   5.519   2.072   6.311 -0.1638  0.1420 -2.0202
  618MOL0     H81517   5.442   1.922   6.471 -1.5918 -0.0016  0.4734
  618MOL0     H81518   5.374   1.811   6.342 -0.3648  0.4465 -1.9598
  618MOL0     H81519   5.213   1.986   6.445 -1.9293 -3.4165 -2.0379
  618MOL0     H81520   5.313   2.106   6.356 -0.5919  0.7776  1.6616
  618MOL0     H81521   5.158   1.864   6.240 -0.1889  0.6662  1.2265
  618MOL0     H81522   5.218   1.991   6.144 -1.4205 -0.1994 -0.7982
  618MOL0     H81523   5.030   2.081   6.366  2.1863 -1.8375  0.5743
  618MOL0     H81524   4.952   1.995   6.248  0.2077 -0.4990 -0.6941
  618MOL0     H81525   5.074   2.121   6.059  2.5973 -0.9989  1.4862
  618MOL0     H81526   4.929   2.186   6.137 -0.0997  0.8271 -0.0990
  618MOL0     H81527   5.144   2.289   6.296 -0.3277 -0.0016  0.1866
  618MOL0     H81528   5.045   2.379   6.182 -2.0085 -1.3870 -1.6143
  618MOL0     H81529   5.155   2.369   5.907  0.9573  0.4186 -2.1557
  618MOL0     H81530   5.339   2.507   5.778  0.0201 -0.1688 -0.5428
  618MOL0     H81531   5.434   2.359   5.760 -0.2474  0.2336 -0.8074
  618MOL0     H81532   5.605   2.529   5.755 -3.8391 -1.3361 -2.3986
  618MOL0     H81533   5.609   2.474   5.925  0.6704  1.4632  1.4154
  618MOL0     H81534   5.576   2.740   5.843 -0.9952  2.0963  0.6940
  618MOL0     H81535   5.414   2.692   5.896 -0.2371 -0.8016  1.6372
  618MOL0     H81536   5.686   2.698   6.037  0.7435 -0.5345 -3.2190
  618MOL0     H81537   5.547   2.603   6.117 -2.2518  1.8993  1.6120
  618MOL0     H81538   5.331   2.627   6.119 -3.2077 -0.5103 -1.1085
  618MOL0     H81539   5.128   2.663   6.249  1.9920 -1.6264 -0.6013
  618MOL0     H81540   4.999   2.916   6.658  0.2322 -0.6659 -0.0317
  618MOL0     H81541   4.796   2.956   6.797 -2.0687 -1.0115 -0.8856
  618MOL0     H81542   4.481   3.108   6.920  0.8114  0.6177  1.3285
  618MOL0     H81543   4.626   3.022   6.931 -2.4257 -2.2169  0.6322
  618MOL0     H81544   4.432   2.888   6.831  1.4167 -1.4769 -0.8894
  618MOL0     H81545   4.557   2.893   6.709 -0.0845 -1.4926  0.7804
  618MOL0     H81546   4.421   3.090   6.597 -1.2505  0.8877  0.2297
  618MOL0     H81547   4.319   3.078   6.736  1.2941  2.5404 -0.7153
  618MOL0     H81548   4.365   2.841   6.540  0.8558 -1.8423  2.3247
  618MOL0     H81549   4.251   2.827   6.665 -2.4903 -1.1650 -3.3634
  618MOL0     H81550   4.111   2.975   6.606  0.0667 -0.8131 -0.0946
  618MOL0     H81551   4.145   2.877   6.469 -0.7750 -1.2142  2.3371
  618MOL0     H81552   4.283   3.082   6.381 -2.0744  3.2425 -2.0545
  618MOL0     H81553   4.220   3.174   6.531 -3.5528  3.0768 -2.3341
  618MOL0     H81554   4.065   3.039   6.307 -3.5792  0.7142 -1.9208
  618MOL0     H81555   4.002   3.140   6.449  4.3552 -3.6376  5.2235
  618MOL0     H81556   4.008   3.211   6.201  1.8862 -2.8191 -1.9975
  618MOL0     H81557   4.174   3.249   6.201 -0.4013 -5.6200 -1.9285
  618MOL0     H81558   4.679   3.275   6.546  0.5451  0.9295  1.8459
  618MOL0     H81559   4.870   3.211   6.392  0.0513  0.1569 -0.0483
  618MOL0     H81560   5.260   3.064   6.330 -0.7070  0.7270 -0.6471
  618MOL0     H81561   5.479   3.021   6.214 -1.5074  2.4865 -0.7061
  618MOL0     H81562   5.917   2.047   6.054 -3.4970 -0.4384  0.4258
  618MOL0     H81563   6.126   1.927   5.970  1.1173 -0.4162  0.9229
  618MOL0     H81564   6.249   1.547   5.689  0.7140  3.5462 -0.9134
  618MOL0     H81565   6.429   1.436   5.591 -3.1711  2.6082 -0.8966
  618MOL0     H81566   6.668   1.514   5.517 -2.9735 -1.0355 -1.4801
  618MOL0     H81567   6.614   1.347   5.538 -0.3653  2.0318 -1.8596
  618MOL0     H81568   6.838   1.269   5.584  0.1779 -0.7010 -0.5460
  618MOL0     H81569   6.782   1.306   5.420 -0.2202  1.6976 -0.6592
  618MOL0     H81570   6.912   1.523   5.452 -0.7908 -1.6257 -2.4942
  618MOL0     H81571   7.014   1.384   5.476  1.3593  2.9264 -2.0563
  618MOL0     H81572   6.894   1.559   5.691  0.4626  1.3756 -0.2338
  618MOL0     H81573   6.989   1.406   5.730  1.3539 -0.3861 -1.6200
  618MOL0     H81574   7.264   1.707   5.620 -0.0824  0.1218  0.7737
  618MOL0     H81575   6.661   1.528   5.937 -0.5349  1.9781 -1.0751
  618MOL0     H81576   6.458   1.612   6.050  0.6749 -0.4893 -0.2406
  619MOL0     O81577   0.329   6.291   1.848  0.6352 -0.6467  0.7666
  619MOL0     C81578   0.407   6.197   1.866  1.1356 -0.0060  1.0117
  619MOL0     O81579   0.379   6.081   1.926 -0.6645  0.2659  1.2985
  619MOL0     C81580   0.259   6.067   1.985  0.2481 -0.9124  0.2817
  619MOL0     C81581   0.227   6.109   2.117 -0.3617  0.2157  0.0389
  619MOL0     C81582   0.109   6.088   2.186  0.5990 -0.2516  0.8563
  619MOL0     C81583   0.013   6.009   2.124  0.2943 -0.5964  0.1118
  619MOL0     O81584  -0.108   5.972   2.186 -0.9647  0.1465 -0.3829
  619MOL0     C81585  -0.182   6.078   2.241 -0.6031  0.2091 -0.2337
  619MOL0     C81586  -0.321   6.020   2.222 -0.5331 -1.3511 -0.9875
  619MOL0     C81587  -0.416   6.101   2.300 -0.5073 -1.1204 -0.5177
  619MOL0     C81588  -0.569   6.073   2.284 -0.1511 -0.0116 -0.1848
  619MOL0     C81589  -0.648   6.114   2.402 -0.3930 -0.2087  0.2963
  619MOL0     C81590  -0.807   6.095   2.411 -0.0064  0.0719 -0.6765
  619MOL0     C81591  -0.849   5.964   2.484  0.6231 -0.2059 -0.1028
  619MOL0     C81592  -0.981   5.922   2.416 -0.5617 -0.6354 -0.4047
  619MOL0     N81593  -1.030   5.793   2.482 -0.3038  0.1976  0.8046
  619MOL0     C81594  -0.953   5.684   2.502 -1.0547 -0.5111 -0.1370
  619MOL0     C81595  -1.025   5.609   2.585  0.4829  0.0307  0.3103
  619MOL0     C81596  -0.977   5.482   2.635  0.4874 -0.8136  0.2245
  619MOL0     C81597  -1.051   5.451   2.765 -0.8038 -0.1690 -0.8984
  619MOL0     C81598  -1.027   5.549   2.880  0.5110  0.5545  0.2904
  619MOL0     C81599  -0.890   5.542   2.936 -0.3961 -0.1279 -0.1046
  619MOL0     O81600  -0.806   5.622   2.846  0.6016 -0.1555  0.5259
  619MOL0     C81601  -0.672   5.650   2.874 -0.0000  0.2690 -0.1741
  619MOL0     C81602  -0.581   5.603   2.978  0.6061 -0.3906  0.7650
  619MOL0     C81603  -0.443   5.629   2.982 -0.3115  0.5375  0.4256
  619MOL0     C81604  -0.387   5.725   2.891  0.5697 -0.1569  0.8556
  619MOL0     C81605  -0.250   5.783   2.909  0.9265  1.4524  0.3376
  619MOL0     O81606  -0.177   5.704   2.998 -0.1619 -0.0490 -0.1411
  619MOL0     C81607  -0.045   5.746   3.020  0.4189  0.7752 -0.0147
  619MOL0     C81608   0.061   5.697   2.934 -1.1197  0.1892 -0.0760
  619MOL0     C81609   0.186   5.760   2.923  0.3265  0.0999 -0.1097
  619MOL0     C81610   0.218   5.855   3.015 -0.4080 -0.3560 -0.3748
  619MOL0     O81611   0.342   5.909   3.029 -0.2422  0.1775 -0.3900
  619MOL0     C81612   0.412   5.869   3.146 -0.3097  0.2397 -0.3363
  619MOL0     C81613   0.554   5.915   3.145  0.0512  0.7208  0.7374
  619MOL0     C81614   0.620   5.887   3.009 -0.0699 -0.0004 -1.3265
  619MOL0     C81615   0.759   5.948   3.000  0.6729  0.3990  0.3930
  619MOL0     C81616   0.799   5.947   2.857  0.3637 -0.0154 -0.3405
  619MOL0     C81617   0.885   5.828   2.817  0.4070 -0.3064 -0.4065
  619MOL0     C81618   0.928   5.847   2.669 -0.3309  0.5549  0.6898
  619MOL0     C81619   1.037   5.758   2.616 -0.4294  0.4273 -0.1846
  619MOL0    Cl81620   1.073   5.822   2.445  0.8976  0.3238 -0.4896
  619MOL0     C81621   0.116   5.908   3.098 -0.2004 -0.1668 -0.2334
  619MOL0     C81622  -0.013   5.867   3.088 -0.2484  0.3225 -0.6290
  619MOL0     O81623  -0.209   5.881   2.850 -0.0026 -0.7075  0.4769
  619MOL0     C81624  -0.481   5.791   2.804 -0.9302  0.2679 -0.0667
  619MOL0     C81625  -0.610   5.747   2.796  0.8308  0.1456 -0.1992
  619MOL0     N81626  -1.143   5.664   2.616 -0.3694 -0.6414  0.1991
  619MOL0     N81627  -1.138   5.782   2.558 -0.1218 -0.6219 -0.2232
  619MOL0     C81628   0.035   5.977   1.995 -0.3577  0.3179  0.2797
  619MOL0     C81629   0.154   5.993   1.921  0.3561 -0.3010 -0.3027
  619MOL0     C81630   0.543   6.220   1.827  0.8458 -0.5582 -0.8507
  619MOL0     C81631   0.645   6.195   1.924 -0.0250 -0.1513  0.0132
  619MOL0     C81632   0.775   6.238   1.894 -0.0593  0.3489  0.5527
  619MOL0     C81633   0.805   6.307   1.777  0.0109 -0.2341 -0.2727
  619MOL0     O81634   0.930   6.343   1.742  0.0105 -0.0836  0.7697
  619MOL0     C81635   1.033   6.248   1.767 -0.1585 -0.2838 -0.4350
  619MOL0     C81636   1.150   6.279   1.680 -0.4426  0.8447  0.5015
  619MOL0     C81637   1.214   6.403   1.739  0.3099 -0.3688 -0.2585
  619MOL0     C81638   1.348   6.432   1.671 -0.0470 -0.0536  0.8570
  619MOL0     C81639   1.457   6.341   1.703  0.9554  0.7388 -0.8116
  619MOL0     C81640   1.546   6.261   1.736 -0.9542 -1.1070 -0.0466
  619MOL0     C81641   0.701   6.326   1.684  0.0279  1.1512  0.1259
  619MOL0     C81642   0.574   6.276   1.704 -1.1013 -0.0434  0.1813
  619MOL0     H81643   0.307   6.157   2.173  1.5405 -1.9660 -0.6584
  619MOL0     H81644   0.094   6.125   2.287 -1.2944  1.1604  0.1036
  619MOL0     H81645  -0.161   6.164   2.176  0.7013  1.0529  1.2275
  619MOL0     H81646  -0.149   6.102   2.343  0.0112  0.8804 -0.5797
  619MOL0     H81647  -0.320   5.917   2.258 -0.3714 -1.1101 -0.2863
  619MOL0     H81648  -0.343   6.021   2.115 -2.7305  2.9038 -0.7040
  619MOL0     H81649  -0.390   6.207   2.289  1.7213 -1.4618  0.7563
  619MOL0     H81650  -0.408   6.089   2.409 -1.7492  1.8795  0.0188
  619MOL0     H81651  -0.604   6.117   2.190  0.1071 -0.0514 -0.3015
  619MOL0     H81652  -0.567   5.963   2.281 -0.1532 -0.0145 -0.0768
  619MOL0     H81653  -0.633   6.222   2.408 -3.3128  0.3502 -0.9010
  619MOL0     H81654  -0.611   6.071   2.496  0.1960 -0.8019 -0.1941
  619MOL0     H81655  -0.853   6.113   2.314 -1.1718 -2.3090 -0.6469
  619MOL0     H81656  -0.829   6.172   2.485  1.0124 -0.7090  0.4732
  619MOL0     H81657  -0.780   5.880   2.467  3.2633  1.5240  1.3461
  619MOL0     H81658  -0.858   5.974   2.592 -1.8490 -1.2822 -0.1566
  619MOL0     H81659  -0.968   5.897   2.311 -0.3681 -1.6237 -0.1631
  619MOL0     H81660  -1.047   6.008   2.431 -0.7365 -0.7572 -0.4774
  619MOL0     H81661  -0.853   5.654   2.474 -2.2422 -2.5695 -2.5273
  619MOL0     H81662  -0.868   5.492   2.648  0.3343 -0.0545  0.9833
  619MOL0     H81663  -1.008   5.413   2.555 -2.0635  1.8364 -1.2680
  619MOL0     H81664  -1.023   5.351   2.801 -0.5073  0.6210  1.1801
  619MOL0     H81665  -1.159   5.456   2.749 -0.9340  0.4533  0.1074
  619MOL0     H81666  -1.053   5.648   2.840 -0.0092 -0.2657 -1.5325
  619MOL0     H81667  -1.107   5.521   2.949  1.8529 -0.8923  1.3178
  619MOL0     H81668  -0.870   5.435   2.927 -0.5651 -0.0575 -1.4376
  619MOL0     H81669  -0.895   5.583   3.038 -4.0635  0.8479 -0.5301
  619MOL0     H81670  -0.614   5.542   3.061 -0.1148 -1.3398 -0.1816
  619MOL0     H81671  -0.374   5.578   3.048 -0.6480  0.2962  0.5943
  619MOL0     H81672   0.054   5.610   2.868  0.6536  1.0474 -1.4990
  619MOL0     H81673   0.267   5.731   2.857  2.8219  1.6834  2.1036
  619MOL0     H81674   0.421   5.761   3.132  2.5667  0.3102  0.3532
  619MOL0     H81675   0.350   5.895   3.233 -1.4700 -2.9418 -0.0724
  619MOL0     H81676   0.593   5.852   3.226 -2.4104 -1.4751  0.3504
  619MOL0     H81677   0.568   6.017   3.182 -2.0780  0.7979  1.4549
  619MOL0     H81678   0.555   5.954   2.951  0.1859  1.0684 -0.4045
  619MOL0     H81679   0.605   5.781   2.989 -0.5571 -0.9265  3.0123
  619MOL0     H81680   0.754   6.052   3.033 -1.1634 -0.1323  1.9425
  619MOL0     H81681   0.834   5.892   3.057 -0.5595 -1.3084  0.4242
  619MOL0     H81682   0.850   6.043   2.844 -3.2236  2.1706  0.3520
  619MOL0     H81683   0.707   5.952   2.798  2.6735 -1.7452 -4.5677
  619MOL0     H81684   0.817   5.743   2.815 -1.8216  1.3901 -0.0427
  619MOL0     H81685   0.980   5.819   2.871 -0.1985 -0.7892  0.6082
  619MOL0     H81686   0.837   5.842   2.608 -1.6035 -1.2126  2.5973
  619MOL0     H81687   0.961   5.951   2.658 -3.0752  1.4367  0.0064
  619MOL0     H81688   1.004   5.654   2.618  0.4224  0.1193 -1.3743
  619MOL0     H81689   1.126   5.762   2.680 -0.0490 -0.5099 -0.6338
  619MOL0     H81690   0.148   5.992   3.158 -2.4433 -0.0951  0.9661
  619MOL0     H81691  -0.090   5.909   3.151  2.2681  2.4647  1.2691
  619MOL0     H81692  -0.449   5.877   2.745 -2.9601 -0.1022 -1.8534
  619MOL0     H81693  -0.670   5.800   2.723 -2.4312  2.1260  3.5413
  619MOL0     H81694  -0.042   5.913   1.952 -0.4795  1.1130 -0.7221
  619MOL0     H81695   0.156   5.958   1.818  0.9625  2.0582 -1.1600
  619MOL0     H81696   0.620   6.155   2.021  1.6033 -1.6458 -0.1296
  619MOL0     H81697   0.851   6.217   1.969 -0.6653  1.8777  1.6451
  619MOL0     H81698   0.988   6.153   1.737 -1.4132  0.2115 -0.1943
  619MOL0     H81699   1.056   6.244   1.874  0.3383 -0.8174 -0.5596
  619MOL0     H81700   1.213   6.190   1.671 -0.2413  0.7369  2.6109
  619MOL0     H81701   1.123   6.285   1.574  0.4721 -3.2551 -0.1323
  619MOL0     H81702   1.238   6.413   1.845  2.4501 -0.9355 -0.6472
  619MOL0     H81703   1.145   6.486   1.722 -1.7079 -1.5642  1.5004
  619MOL0     H81704   1.326   6.436   1.563 -0.6094  2.8378  0.9866
  619MOL0     H81705   1.379   6.536   1.687  0.9985  0.0758 -1.4596
  619MOL0     H81706   1.622   6.187   1.751 -1.0145 -0.9468  1.1046
  619MOL0     H81707   0.729   6.361   1.586  0.0006  0.1754 -0.2417
  619MOL0     H81708   0.491   6.268   1.634 -0.2777  1.0564 -0.9712
  620MOL0     O81709   1.259   2.072   5.716  0.3776 -0.2266 -0.1482
  620MOL0     C81710   1.250   2.037   5.599 -0.6580  0.0907 -0.5841
  620MOL0     O81711   1.133   2.002   5.542  0.4543 -0.1969  0.3213
  620MOL0     C81712   1.014   1.973   5.615  0.4581  0.6556 -0.4557
  620MOL0     C81713   0.889   2.010   5.567 -1.1937  0.0769 -0.4001
  620MOL0     C81714   0.758   1.965   5.614  0.1344  0.4078  0.9677
  620MOL0     C81715   0.761   1.884   5.723  0.1792  0.5262 -0.3949
  620MOL0     O81716   0.647   1.815   5.768 -0.2219 -0.0433 -0.0556
  620MOL0     C81717   0.609   1.823   5.907 -1.5558  0.1763  0.1061
  620MOL0     C81718   0.494   1.922   5.928  0.6782 -0.0643 -0.8545
  620MOL0     C81719   0.353   1.866   5.885 -0.3938  0.1030  0.6291
  620MOL0     C81720   0.246   1.927   5.974 -0.2222  0.8494  0.2152
  620MOL0     C81721   0.113   1.865   5.948 -0.2829  0.5586 -0.0684
  620MOL0     C81722   0.001   1.924   6.044 -1.1840 -1.0595  0.7405
  620MOL0     C81723  -0.096   1.827   6.111  0.5382  0.9029 -0.5409
  620MOL0     C81724  -0.182   1.764   6.002  0.2159 -0.4634 -0.3486
  620MOL0     N81725  -0.227   1.635   6.050  0.2028 -0.1194 -0.3410
  620MOL0     C81726  -0.314   1.619   6.162  1.0107 -0.4558  0.2416
  620MOL0     C81727  -0.332   1.488   6.171 -0.7577 -1.1628  0.1447
  620MOL0     C81728  -0.419   1.416   6.265  0.6880  0.2269  0.1420
  620MOL0     C81729  -0.561   1.408   6.196 -0.6407  0.2081  0.0504
  620MOL0     C81730  -0.668   1.343   6.290 -0.8663 -1.0046 -0.0917
  620MOL0     C81731  -0.802   1.328   6.220 -0.1508  0.5534 -0.3889
  620MOL0     O81732  -0.787   1.234   6.112  0.7624  0.6956 -0.2559
  620MOL0     C81733  -0.887   1.230   6.017  0.5024 -0.8906  0.6774
  620MOL0     C81734  -1.007   1.311   6.018 -0.5534  0.3177 -0.4263
  620MOL0     C81735  -1.100   1.313   5.921  1.3413  0.1843 -0.3143
  620MOL0     C81736  -1.091   1.224   5.813  0.4843  0.3390 -0.6921
  620MOL0     C81737  -1.178   1.231   5.697  0.6412 -0.2555 -1.1725
  620MOL0     O81738  -1.301   1.298   5.717 -0.2011  0.2187  0.2455
  620MOL0     C81739  -1.386   1.285   5.615 -0.1308  0.7923 -0.3764
  620MOL0     C81740  -1.495   1.204   5.642 -0.4560 -0.0872 -0.0298
  620MOL0     C81741  -1.599   1.207   5.543 -0.0524  0.8739  0.7440
  620MOL0     C81742  -1.597   1.283   5.426 -0.8557  0.8862  0.8012
  620MOL0     O81743  -1.702   1.274   5.334  0.2730 -0.2378  1.1169
  620MOL0     C81744  -1.737   1.390   5.251  0.4571 -0.1804  0.2536
  620MOL0     C81745  -1.869   1.349   5.186  0.4494 -0.1182  0.4264
  620MOL0     C81746  -1.996   1.353   5.279 -0.2963  0.3948 -0.9536
  620MOL0     C81747  -2.012   1.226   5.369  0.1780 -0.1235  0.1600
  620MOL0     C81748  -2.140   1.240   5.459 -0.0912  0.2882 -0.1416
  620MOL0     C81749  -2.186   1.102   5.517  0.7294 -0.1310 -0.4089
  620MOL0     C81750  -2.074   1.015   5.580  0.5268 -0.0991  0.1992
  620MOL0     C81751  -2.124   0.908   5.673 -0.5219  0.1463  0.6704
  620MOL0    Cl81752  -2.243   0.965   5.795  0.3784 -0.8578 -0.1933
  620MOL0     C81753  -1.485   1.367   5.411 -1.0417 -0.7967  0.9802
  620MOL0     C81754  -1.379   1.362   5.503 -0.9834  0.4975 -0.2475
  620MOL0     O81755  -1.144   1.180   5.590 -0.8077  0.0235  0.1668
  620MOL0     C81756  -0.971   1.145   5.810  0.3102 -0.6686 -0.9468
  620MOL0     C81757  -0.873   1.146   5.909 -0.1467 -0.1878  0.0530
  620MOL0     N81758  -0.252   1.427   6.076  0.6811  0.3046 -0.0125
  620MOL0     N81759  -0.203   1.518   5.998 -0.4198  0.7128  0.6884
  620MOL0     C81760   0.889   1.862   5.785 -0.2937 -0.5586 -0.3632
  620MOL0     C81761   1.011   1.905   5.734  0.1924  0.4946  1.1654
  620MOL0     C81762   1.378   2.033   5.530  0.5382 -0.6113 -0.4310
  620MOL0     C81763   1.377   2.001   5.394  0.2636  0.0265  0.8654
  620MOL0     C81764   1.495   1.954   5.323 -0.0558 -0.8437  0.7703
  620MOL0     C81765   1.608   1.934   5.394 -0.6133  0.0192  0.0461
  620MOL0     O81766   1.728   1.898   5.329 -0.5610 -0.1906 -0.5901
  620MOL0     C81767   1.750   1.760   5.304 -0.4642 -0.2817  0.0215
  620MOL0     C81768   1.851   1.717   5.409  0.5206 -0.3572  0.3918
  620MOL0     C81769   1.996   1.740   5.379  0.2801 -0.2859 -0.0105
  620MOL0     C81770   2.088   1.712   5.496 -0.0425  0.4164  1.0327
  620MOL0     C81771   2.068   1.801   5.614 -0.3274  0.2378 -0.3271
  620MOL0     C81772   2.040   1.878   5.706  0.0966  0.7966  1.2124
  620MOL0     C81773   1.616   1.972   5.525  0.1277 -0.3976 -0.4609
  620MOL0     C81774   1.497   2.021   5.591 -2.0300  0.4139 -0.3413
  620MOL0     H81775   0.885   2.067   5.474 -2.1060 -1.3689 -1.2922
  620MOL0     H81776   0.658   1.990   5.580 -0.5666 -2.6990  0.3995
  620MOL0     H81777   0.688   1.872   5.965  0.4708  1.6033 -3.5348
  620MOL0     H81778   0.595   1.721   5.946  0.8766 -0.0472  0.5407
  620MOL0     H81779   0.501   2.024   5.889  3.2532  0.5158  0.8837
  620MOL0     H81780   0.500   1.937   6.037  1.1276 -0.7705 -0.7740
  620MOL0     H81781   0.355   1.759   5.910 -3.1575  0.6206  3.7971
  620MOL0     H81782   0.332   1.880   5.778 -4.2699 -2.2842  0.8790
  620MOL0     H81783   0.265   1.915   6.081 -2.1223 -1.5875  0.3719
  620MOL0     H81784   0.241   2.031   5.942  1.9923  1.0080  0.2843
  620MOL0     H81785   0.131   1.760   5.969  1.3761  1.1823  2.0261
  620MOL0     H81786   0.083   1.886   5.845  3.5004  0.6844 -1.2967
  620MOL0     H81787  -0.049   2.006   5.992  2.4104  2.5118  2.3657
  620MOL0     H81788   0.062   1.975   6.118 -0.0215  0.3549 -1.0877
  620MOL0     H81789  -0.038   1.747   6.156 -1.7905 -0.8351 -0.4402
  620MOL0     H81790  -0.151   1.872   6.195 -0.3245 -3.4112  1.4819
  620MOL0     H81791  -0.127   1.739   5.911  1.0064 -1.0004  0.2673
  620MOL0     H81792  -0.259   1.836   5.972  1.8435 -0.1239 -4.2568
  620MOL0     H81793  -0.361   1.697   6.221 -0.2353 -1.3027  0.3968
  620MOL0     H81794  -0.434   1.471   6.359 -0.6131  0.0756  0.0439
  620MOL0     H81795  -0.384   1.318   6.297 -0.4955 -0.6726 -1.1811
  620MOL0     H81796  -0.550   1.347   6.106  2.1173 -0.7048  0.9036
  620MOL0     H81797  -0.591   1.510   6.168  1.8083  0.4816 -1.9142
  620MOL0     H81798  -0.636   1.246   6.331 -1.8412 -2.1523 -1.9347
  620MOL0     H81799  -0.679   1.409   6.377  0.2849 -0.4157 -0.3668
  620MOL0     H81800  -0.840   1.425   6.186  0.8790  0.7197 -1.1092
  620MOL0     H81801  -0.875   1.286   6.289 -1.6801  2.6671 -0.6109
  620MOL0     H81802  -1.022   1.394   6.086  1.1635 -0.0747  0.4732
  620MOL0     H81803  -1.187   1.376   5.934  2.4495  1.6357  0.2310
  620MOL0     H81804  -1.501   1.137   5.727  1.4131 -2.5628 -1.6858
  620MOL0     H81805  -1.680   1.138   5.564  1.2527 -0.4686  1.5851
  620MOL0     H81806  -1.655   1.392   5.179  0.5292 -3.9999  0.0238
  620MOL0     H81807  -1.737   1.477   5.317  1.7462  0.4121 -0.4931
  620MOL0     H81808  -1.864   1.247   5.147  1.9130  0.9030 -2.3820
  620MOL0     H81809  -1.876   1.416   5.099 -0.2122  1.7633  1.8508
  620MOL0     H81810  -2.082   1.371   5.215 -1.1290  1.0765  0.3192
  620MOL0     H81811  -1.998   1.448   5.333  1.2978  2.2325 -3.8166
  620MOL0     H81812  -2.036   1.138   5.309 -1.0081 -0.9971  1.8244
  620MOL0     H81813  -1.922   1.200   5.427 -1.2584 -2.5281  1.4632
  620MOL0     H81814  -2.220   1.291   5.405  1.2148  0.5376 -1.9463
  620MOL0     H81815  -2.106   1.306   5.539  1.8922 -1.1388  0.2710
  620MOL0     H81816  -2.229   1.042   5.436 -3.4166 -0.0595  1.4673
  620MOL0     H81817  -2.270   1.114   5.586  1.7823  2.5768  0.5290
  620MOL0     H81818  -2.010   0.973   5.503  2.1746 -0.5013  1.7102
  620MOL0     H81819  -2.009   1.087   5.631  1.5130 -0.3231 -0.7172
  620MOL0     H81820  -2.037   0.852   5.709 -0.2206  0.5249  0.5347
  620MOL0     H81821  -2.174   0.837   5.607  1.1433 -3.4601  2.9293
  620MOL0     H81822  -1.465   1.430   5.325 -1.1517 -1.4765  0.4469
  620MOL0     H81823  -1.295   1.430   5.509 -0.3943 -0.2881  4.3225
  620MOL0     H81824  -0.964   1.083   5.721  1.0017 -0.8513 -0.7734
  620MOL0     H81825  -0.787   1.083   5.890 -1.2359 -0.6216 -4.5785
  620MOL0     H81826   0.881   1.787   5.863 -2.6442 -1.8406 -1.7271
  620MOL0     H81827   1.108   1.875   5.770  0.9333 -0.6137 -1.5160
  620MOL0     H81828   1.284   2.001   5.338  1.5356 -1.3531 -1.4125
  620MOL0     H81829   1.500   1.926   5.218 -0.3419  1.5000  0.0689
  620MOL0     H81830   1.796   1.742   5.207  1.3866  0.7295  0.6687
  620MOL0     H81831   1.660   1.699   5.313 -0.9526 -0.3489 -3.6957
  620MOL0     H81832   1.838   1.757   5.510  3.1504 -0.1531  0.7288
  620MOL0     H81833   1.840   1.609   5.421  1.7878 -0.3136  2.5738
  620MOL0     H81834   2.002   1.848   5.364  1.6861 -0.3432  0.0450
  620MOL0     H81835   2.023   1.678   5.292  0.8245 -1.8384  1.2227
  620MOL0     H81836   2.090   1.606   5.524  1.7601  0.4383  1.0668
  620MOL0     H81837   2.190   1.737   5.469 -1.0706  2.8038 -1.0071
  620MOL0     H81838   2.027   1.936   5.795  0.8398  1.7173  0.7253
  620MOL0     H81839   1.707   1.963   5.583 -1.9622 -1.4976  2.9857
  620MOL0     H81840   1.497   2.048   5.696 -0.7865  0.0454 -0.2346
  621MOL0     O81841   0.626   5.673   9.796  0.1364 -0.1797 -0.4644
  621MOL0     C81842   0.741   5.712   9.802  0.4213  0.9316 -0.5774
  621MOL0     O81843   0.784   5.806   9.892 -0.8294 -0.0195 -0.0173
  621MOL0     C81844   0.702   5.867   9.982  1.2996 -0.6424 -0.5005
  621MOL0     C81845   0.740   5.877  10.120 -0.6165 -0.1980  0.3610
  621MOL0     C81846   0.651   5.923  10.222 -0.4720  0.1697  0.3647
  621MOL0     C81847   0.525   5.965  10.184  0.1741 -0.6817  1.0576
  621MOL0     O81848   0.436   6.020  10.277  0.0972 -0.5121  0.0359
  621MOL0     C81849   0.382   5.923  10.366 -0.3733 -0.2729  0.0312
  621MOL0     C81850   0.332   6.010  10.487 -1.0624 -0.5243  0.8019
  621MOL0     C81851   0.209   6.104  10.464  0.6413  0.0357 -0.7494
  621MOL0     C81852   0.153   6.135  10.602 -0.4698 -0.8342  0.0207
  621MOL0     C81853   0.037   6.244  10.603 -0.2668 -0.3510  0.3665
  621MOL0     C81854  -0.052   6.265  10.733  0.3189  0.3566 -0.3188
  621MOL0     C81855  -0.110   6.142  10.796  0.2312 -0.0576  0.2493
  621MOL0     C81856  -0.157   6.157  10.939 -0.2769 -1.2357 -0.1360
  621MOL0     N81857  -0.201   6.030  10.993  1.2053 -0.0878 -0.2031
  621MOL0     C81858  -0.311   5.960  10.954  0.1419 -0.6403  1.2231
  621MOL0     C81859  -0.322   5.867  11.041 -0.1148  0.6516 -1.1039
  621MOL0     C81860  -0.408   5.746  11.033  0.0280 -0.6178  0.6452
  621MOL0     C81861  -0.498   5.731  11.150  0.0889  0.2589 -0.8819
  621MOL0     C81862  -0.578   5.856  11.207 -0.5277 -0.5539  0.9310
  621MOL0     C81863  -0.678   5.898  11.097  0.1304 -0.1290 -0.1483
  621MOL0     O81864  -0.765   5.791  11.073  0.7308  0.4177 -0.5387
  621MOL0     C81865  -0.876   5.763  11.149  0.5069  0.5226  0.2937
  621MOL0     C81866  -0.922   5.838  11.249  0.7933  0.1804 -0.4938
  621MOL0     C81867  -1.047   5.804  11.317  0.7211 -0.5428 -1.0994
  621MOL0     C81868  -1.123   5.687  11.281 -0.1010 -0.5214 -0.3932
  621MOL0     C81869  -1.253   5.657  11.333  0.3520 -0.2787  0.4133
  621MOL0     O81870  -1.321   5.548  11.280  0.8191 -0.1609 -0.2820
  621MOL0     C81871  -1.439   5.529  11.336 -0.0555  0.0511 -0.0809
  621MOL0     C81872  -1.457   5.498  11.470 -0.7664 -0.5089  0.2257
  621MOL0     C81873  -1.580   5.474  11.520 -0.5164 -0.6407  0.2805
  621MOL0     C81874  -1.694   5.468  11.429  0.1053  0.7436 -0.5240
  621MOL0     O81875  -1.819   5.419  11.460 -0.4180 -0.6121 -0.0156
  621MOL0     C81876  -1.831   5.332  11.571  0.2054 -0.3416 -0.4737
  621MOL0     C81877  -1.762   5.190  11.571 -0.0167  0.9862 -0.1300
  621MOL0     C81878  -1.852   5.072  11.526  0.0014  0.1989  0.1888
  621MOL0     C81879  -1.915   5.109  11.394 -0.1850  0.2698  0.7122
  621MOL0     C81880  -1.947   4.978  11.323  0.8742  0.7612  1.0148
  621MOL0     C81881  -2.014   4.995  11.178 -0.5911 -0.0599 -0.3991
  621MOL0     C81882  -2.011   4.853  11.109 -0.4726 -0.3361  0.4253
  621MOL0     C81883  -2.081   4.750  11.194 -0.2466 -0.2918 -0.1105
  621MOL0    Cl81884  -2.130   4.609  11.091  0.2004 -0.3414 -0.2082
  621MOL0     C81885  -1.675   5.499  11.297  0.0378 -0.0609 -1.3177
  621MOL0     C81886  -1.547   5.538  11.256 -0.3525 -0.6746  0.1480
  621MOL0     O81887  -1.285   5.720  11.429  0.6067 -0.3453  0.0767
  621MOL0     C81888  -1.065   5.607  11.178 -0.4445  0.6524 -0.0377
  621MOL0     C81889  -0.949   5.650  11.105 -0.2631  1.2572  0.6137
  621MOL0     N81890  -0.231   5.882  11.146 -0.5825  0.1364 -0.6087
  621MOL0     N81891  -0.159   5.983  11.115  0.4286 -0.3661 -0.1142
  621MOL0     C81892   0.496   5.968  10.057  0.6343 -0.7651 -0.3546
  621MOL0     C81893   0.575   5.919   9.955  0.7097  0.4517  0.8027
  621MOL0     C81894   0.841   5.634   9.726  1.0465 -0.7719 -0.0565
  621MOL0     C81895   0.976   5.684   9.709 -0.5770  0.9935  0.5263
  621MOL0     C81896   1.064   5.615   9.632  0.6985 -0.3123  0.0717
  621MOL0     C81897   1.021   5.499   9.565  0.5802 -0.7299  0.1837
  621MOL0     O81898   1.122   5.439   9.493 -0.7788 -0.1091 -0.2015
  621MOL0     C81899   1.103   5.315   9.439  0.7227  0.3971 -0.2104
  621MOL0     C81900   1.229   5.265   9.372  0.5164 -0.0015 -0.2377
  621MOL0     C81901   1.191   5.136   9.306 -0.6309  0.1752 -0.5754
  621MOL0     C81902   1.310   5.075   9.235  0.4623  0.1843  0.7027
  621MOL0     C81903   1.268   4.944   9.191 -0.1683  0.4903 -0.1030
  621MOL0     C81904   1.225   4.834   9.149  0.2752 -0.1496 -0.2754
  621MOL0     C81905   0.883   5.455   9.574 -0.9108  0.2659  0.8270
  621MOL0     C81906   0.796   5.524   9.654 -0.4146 -0.4372 -0.4119
  621MOL0     H81907   0.835   5.830  10.143 -0.7067  0.3045  1.8865
  621MOL0     H81908   0.671   5.913  10.328 -4.6248 -3.2004  1.1127
  621MOL0     H81909   0.450   5.843  10.399 -0.9909  0.6858  4.0529
  621MOL0     H81910   0.307   5.866  10.310  0.8740 -1.2241 -0.7278
  621MOL0     H81911   0.422   6.055  10.530 -1.0958 -0.9621  1.3455
  621MOL0     H81912   0.300   5.934  10.559 -0.9868  1.1997  2.7329
  621MOL0     H81913   0.126   6.055  10.413 -1.0536 -0.4015  2.1847
  621MOL0     H81914   0.231   6.192  10.402  1.5773 -0.2163 -0.7889
  621MOL0     H81915   0.107   6.043  10.639  3.0129 -3.2412 -1.1806
  621MOL0     H81916   0.240   6.155  10.666  0.9389 -3.8967 -0.7822
  621MOL0     H81917  -0.023   6.226  10.513 -1.0544 -2.7455  1.3191
  621MOL0     H81918   0.082   6.342  10.581  1.5345 -1.1090  0.5523
  621MOL0     H81919  -0.138   6.331  10.722 -1.9412 -2.6431 -1.8532
  621MOL0     H81920   0.014   6.311  10.808  0.2351  2.2989 -1.3894
  621MOL0     H81921  -0.192   6.104  10.735  0.5197  0.5810 -0.5524
  621MOL0     H81922  -0.022   6.076  10.799  0.4319  0.2465  1.6700
  621MOL0     H81923  -0.242   6.225  10.943 -0.1549 -1.1300  0.8538
  621MOL0     H81924  -0.075   6.190  11.003 -0.9022  3.3025 -1.3436
  621MOL0     H81925  -0.369   5.976  10.864  2.1846 -1.1873 -0.2784
  621MOL0     H81926  -0.353   5.651  11.033 -0.7110 -1.1675 -2.4219
  621MOL0     H81927  -0.471   5.756  10.944 -1.5422  1.8348  1.9342
  621MOL0     H81928  -0.439   5.691  11.233  0.1372  1.5839 -0.2539
  621MOL0     H81929  -0.563   5.650  11.118  1.1416 -0.1251 -2.1631
  621MOL0     H81930  -0.631   5.834  11.299 -0.6870 -0.3357  0.8941
  621MOL0     H81931  -0.499   5.932  11.219 -1.1566  1.2141 -3.7779
  621MOL0     H81932  -0.630   5.925  11.003 -0.7176 -2.2110 -1.2440
  621MOL0     H81933  -0.740   5.978  11.137 -0.2342  0.5934 -2.0583
  621MOL0     H81934  -0.880   5.929  11.292 -2.9058  0.8266  2.3128
  621MOL0     H81935  -1.074   5.883  11.387  2.9571  0.5989 -1.4228
  621MOL0     H81936  -1.373   5.488  11.539 -1.4089 -0.1203  1.0828
  621MOL0     H81937  -1.589   5.449  11.626  0.3356  0.6725  0.6747
  621MOL0     H81938  -1.937   5.323  11.599 -0.3744  1.2894 -1.9762
  621MOL0     H81939  -1.771   5.375  11.652  0.8848  0.3526 -1.3297
  621MOL0     H81940  -1.749   5.170  11.678 -1.0599 -1.2054 -0.3640
  621MOL0     H81941  -1.667   5.196  11.516 -0.4603 -2.5735 -1.5500
  621MOL0     H81942  -1.933   5.051  11.596 -0.0104  2.0557  0.7796
  621MOL0     H81943  -1.787   4.984  11.523  2.9894  2.2143  1.5057
  621MOL0     H81944  -2.013   5.156  11.401 -0.2344 -0.0511  2.4279
  621MOL0     H81945  -1.842   5.165  11.334 -0.9946  2.6991  1.9096
  621MOL0     H81946  -2.020   4.935  11.393 -1.2494  1.1297 -0.8615
  621MOL0     H81947  -1.864   4.908  11.308 -1.2775 -1.1850 -4.3169
  621MOL0     H81948  -1.960   5.062  11.111 -0.7310 -1.2557 -1.7705
  621MOL0     H81949  -2.115   5.028  11.206  0.5895  1.9687  1.8388
  621MOL0     H81950  -2.062   4.874  11.014  0.7381  2.7836  0.3273
  621MOL0     H81951  -1.904   4.832  11.096 -0.0526  1.6428  0.4124
  621MOL0     H81952  -2.178   4.785  11.232  0.0022  0.0312  0.2348
  621MOL0     H81953  -2.014   4.715  11.273  2.9633 -1.3527 -3.0728
  621MOL0     H81954  -1.759   5.512  11.230 -1.5372 -3.0617 -0.1058
  621MOL0     H81955  -1.533   5.575  11.155 -0.3831  0.3896  0.5117
  621MOL0     H81956  -1.119   5.519  11.146 -2.4336  2.4031 -1.7750
  621MOL0     H81957  -0.910   5.577  11.035  1.2148  0.5385  2.1105
  621MOL0     H81958   0.399   5.996  10.018 -1.0036 -4.2527  0.8108
  621MOL0     H81959   0.531   5.913   9.857 -1.3916  1.2641  1.6496
  621MOL0     H81960   1.007   5.779   9.752 -0.8857  2.9095 -3.0942
  621MOL0     H81961   1.168   5.645   9.629  0.0838  3.5187  4.8345
  621MOL0     H81962   1.015   5.310   9.374  0.7173 -1.1226 -0.1287
  621MOL0     H81963   1.093   5.249   9.526 -0.1215  0.2440 -0.4165
  621MOL0     H81964   1.268   5.334   9.297  0.0611 -1.7771 -2.2246
  621MOL0     H81965   1.312   5.265   9.443  1.1288  2.2065 -0.8945
  621MOL0     H81966   1.115   5.155   9.230  1.3529  1.6581 -2.2827
  621MOL0     H81967   1.148   5.071   9.383  0.6892  0.5689  0.5387
  621MOL0     H81968   1.341   5.129   9.145  3.4209 -0.5161  1.2090
  621MOL0     H81969   1.394   5.049   9.300  1.6238 -0.8039 -1.1061
  621MOL0     H81970   1.192   4.745   9.099  1.6498  0.1192 -1.7471
  621MOL0     H81971   0.841   5.361   9.537 -1.7723  1.3365 -1.0802
  621MOL0     H81972   0.696   5.482   9.656  0.4558 -2.6552 -0.4724
  622MOL0     O81973   2.437   8.531   8.232 -0.3357  0.5977  0.1335
  622MOL0     C81974   2.423   8.651   8.231  0.6059  0.0101 -0.2539
  622MOL0     O81975   2.385   8.725   8.137  0.1198 -0.0955  0.1378
  622MOL0     C81976   2.328   8.680   8.018 -0.6752 -1.0390 -0.0608
  622MOL0     C81977   2.199   8.717   7.973  0.1861  0.3504 -0.0912
  622MOL0     C81978   2.150   8.666   7.850 -0.2041 -0.3010  0.0205
  622MOL0     C81979   2.239   8.590   7.769  0.8693  0.0213  0.5844
  622MOL0     O81980   2.204   8.543   7.645 -0.2748 -0.3320 -0.2895
  622MOL0     C81981   2.074   8.571   7.589 -0.3289  0.1652 -0.1092
  622MOL0     C81982   2.063   8.562   7.436  0.0900 -0.0089  0.2426
  622MOL0     C81983   2.030   8.699   7.362  0.7883 -0.0007 -1.2243
  622MOL0     C81984   2.141   8.799   7.380  0.0003 -0.1080  0.0601
  622MOL0     C81985   2.075   8.931   7.347 -0.5073 -0.2396  0.4536
  622MOL0     C81986   2.172   9.057   7.381 -0.2342 -0.1541  0.1262
  622MOL0     C81987   2.302   9.077   7.294 -1.1147  0.7994 -0.4153
  622MOL0     C81988   2.356   9.208   7.345 -1.0695  0.2293 -0.0002
  622MOL0     N81989   2.483   9.243   7.267  0.1398  0.0795 -1.1347
  622MOL0     C81990   2.549   9.361   7.293 -0.8138  0.0187 -0.3021
  622MOL0     C81991   2.666   9.351   7.221 -0.3187 -0.4186 -0.3009
  622MOL0     C81992   2.780   9.453   7.227 -0.3395  0.5313  0.0428
  622MOL0     C81993   2.895   9.424   7.318  0.6508  0.1426 -1.0723
  622MOL0     C81994   2.852   9.435   7.465 -0.6939 -0.4151  0.2372
  622MOL0     C81995   2.973   9.418   7.564  0.6423  0.2734  0.0882
  622MOL0     O81996   3.012   9.281   7.546  0.5024 -0.0955 -0.1209
  622MOL0     C81997   3.093   9.242   7.651  0.2011  1.2311 -0.2364
  622MOL0     C81998   3.199   9.318   7.701  0.6818 -0.0541  0.3256
  622MOL0     C81999   3.279   9.281   7.805  0.6188 -0.1032 -0.6055
  622MOL0     C82000   3.255   9.161   7.876 -0.5630 -0.4058  0.1980
  622MOL0     C82001   3.327   9.118   7.993 -0.8356  0.3667  0.0360
  622MOL0     O82002   3.452   9.169   8.011 -0.7643 -0.4182  0.0831
  622MOL0     C82003   3.540   9.108   8.106  0.1486  0.0535  0.0153
  622MOL0     C82004   3.616   9.197   8.178 -0.0235 -1.4970 -0.4363
  622MOL0     C82005   3.689   9.166   8.296  0.2305  0.6190 -0.8480
  622MOL0     C82006   3.696   9.036   8.338  0.7868 -0.1946  0.4661
  622MOL0     O82007   3.761   9.005   8.459  0.1407  0.3337  0.2608
  622MOL0     C82008   3.724   8.882   8.537  0.9726  0.4572 -0.9567
  622MOL0     C82009   3.706   8.928   8.680 -0.1744 -0.3218 -0.0451
  622MOL0     C82010   3.824   8.985   8.758  0.3044  0.5485 -0.4784
  622MOL0     C82011   3.941   8.875   8.758 -1.0872 -0.7940 -0.2640
  622MOL0     C82012   4.075   8.923   8.818  0.6856  0.8105 -0.5988
  622MOL0     C82013   4.133   9.058   8.767 -0.4355  0.1383 -0.3113
  622MOL0     C82014   4.274   9.101   8.824  0.1390  0.4790  0.3028
  622MOL0     C82015   4.302   9.247   8.798 -0.8374 -0.8503  0.2700
  622MOL0    Cl82016   4.477   9.303   8.815  0.5333 -0.3086 -0.1539
  622MOL0     C82017   3.620   8.940   8.260 -0.2011 -0.2266 -0.5980
  622MOL0     C82018   3.542   8.978   8.151 -0.9036 -0.7937  0.4553
  622MOL0     O82019   3.265   9.048   8.071 -0.8477 -0.3060  0.1137
  622MOL0     C82020   3.157   9.077   7.815 -0.2877  0.6614  0.4607
  622MOL0     C82021   3.081   9.118   7.700  0.3270 -0.4965 -1.5055
  622MOL0     N82022   2.678   9.220   7.175  0.6285 -0.1770 -0.6406
  622MOL0     N82023   2.569   9.162   7.207  0.5576  0.4582  0.4080
  622MOL0     C82024   2.364   8.547   7.817 -0.6641  0.6012 -0.2694
  622MOL0     C82025   2.413   8.606   7.933  0.8622  0.7118 -0.2234
  622MOL0     C82026   2.477   8.723   8.354  0.4778  1.1505 -0.1775
  622MOL0     C82027   2.510   8.855   8.357 -0.6445 -0.1555 -0.3978
  622MOL0     C82028   2.556   8.922   8.478  1.6444  0.4077  0.3758
  622MOL0     C82029   2.567   8.846   8.594 -0.8247 -0.2197 -0.1922
  622MOL0     O82030   2.611   8.897   8.714 -0.5478 -0.4281 -0.1273
  622MOL0     C82031   2.668   9.033   8.693 -0.2050  0.5228 -1.1205
  622MOL0     C82032   2.703   9.072   8.835 -0.7929  0.4103 -0.2872
  622MOL0     C82033   2.839   9.009   8.873 -0.9140  0.2936 -1.2804
  622MOL0     C82034   2.866   9.008   9.027 -0.2000  0.4537  0.3266
  622MOL0     C82035   2.932   8.876   9.058  0.0662 -0.4133 -0.4791
  622MOL0     C82036   2.989   8.778   9.081 -0.5019 -0.3263  0.7815
  622MOL0     C82037   2.546   8.714   8.595  0.7894  0.9320  0.1066
  622MOL0     C82038   2.488   8.657   8.476  0.1754  0.5088 -0.3598
  622MOL0     H82039   2.141   8.787   8.033 -0.2149  1.5465 -1.8006
  622MOL0     H82040   2.057   8.694   7.802 -0.6348 -1.2946  0.2478
  622MOL0     H82041   2.027   8.667   7.610  0.9934  1.2826 -1.9015
  622MOL0     H82042   2.010   8.489   7.623  1.1502 -0.2620  1.7523
  622MOL0     H82043   1.981   8.498   7.402  0.2756  0.2112 -0.6663
  622MOL0     H82044   2.153   8.515   7.396  1.3473  2.2972  0.1431
  622MOL0     H82045   1.939   8.729   7.415  1.6875 -0.1415  0.4823
  622MOL0     H82046   2.000   8.678   7.259 -0.6673  0.3268 -0.8967
  622MOL0     H82047   2.183   8.793   7.480 -2.4355  1.7309  1.3082
  622MOL0     H82048   2.215   8.768   7.306 -1.6926 -0.6842 -1.4856
  622MOL0     H82049   1.984   8.941   7.407 -1.7129 -0.4024 -1.2705
  622MOL0     H82050   2.042   8.936   7.243  0.3753 -1.6770  0.0830
  622MOL0     H82051   2.208   9.056   7.484 -0.0450 -0.2017  0.0612
  622MOL0     H82052   2.114   9.149   7.377  0.7245  0.4365 -1.7555
  622MOL0     H82053   2.375   8.998   7.313 -0.9626  1.0470  0.0612
  622MOL0     H82054   2.298   9.100   7.187  0.5412  1.6077 -0.3361
  622MOL0     H82055   2.384   9.196   7.450 -0.7221 -1.1566 -0.2290
  622MOL0     H82056   2.286   9.292   7.342 -0.7940  0.6785  2.9134
  622MOL0     H82057   2.517   9.454   7.340 -1.4616  0.2911 -1.2521
  622MOL0     H82058   2.749   9.554   7.254  1.0492  1.0408 -0.1807
  622MOL0     H82059   2.813   9.461   7.124 -1.6452  1.4847 -0.3301
  622MOL0     H82060   2.984   9.482   7.293  1.3873 -1.3166 -2.0044
  622MOL0     H82061   2.931   9.321   7.308 -0.1315 -0.2671  0.1658
  622MOL0     H82062   2.798   9.528   7.481 -2.2217 -0.9360 -1.4843
  622MOL0     H82063   2.785   9.353   7.494 -0.9658  0.4084  2.0493
  622MOL0     H82064   2.954   9.455   7.665  0.3053 -0.6766  0.3841
  622MOL0     H82065   3.053   9.481   7.524 -0.0690  0.2345 -1.4366
  622MOL0     H82066   3.223   9.414   7.655  1.8508 -1.1079 -1.3784
  622MOL0     H82067   3.345   9.354   7.849 -0.4416  0.6158 -0.1809
  622MOL0     H82068   3.617   9.302   8.148  0.7513 -0.8787  1.6187
  622MOL0     H82069   3.730   9.247   8.355  3.1139 -0.2730 -1.4231
  622MOL0     H82070   3.798   8.803   8.526  2.8048  1.8883  0.4934
  622MOL0     H82071   3.630   8.840   8.500  0.5907  1.5376 -1.2569
  622MOL0     H82072   3.679   8.841   8.741 -1.0211 -0.3074 -0.3839
  622MOL0     H82073   3.629   9.005   8.682 -1.7758 -1.8052  3.1604
  622MOL0     H82074   3.803   9.024   8.858  4.1177  2.3723 -0.2363
  622MOL0     H82075   3.850   9.076   8.703  0.4578 -0.0282 -1.3828
  622MOL0     H82076   3.912   8.782   8.809  0.5244 -0.6976  0.8975
  622MOL0     H82077   3.958   8.856   8.651  1.6310 -7.1922  0.8219
  622MOL0     H82078   4.145   8.840   8.808 -0.5004 -0.1147 -1.4287
  622MOL0     H82079   4.060   8.932   8.926 -2.5150  0.8299 -0.9600
  622MOL0     H82080   4.060   9.137   8.786 -0.3054  0.6200 -1.6940
  622MOL0     H82081   4.142   9.056   8.658 -2.0288  0.2776 -0.4653
  622MOL0     H82082   4.286   9.085   8.932  1.9899  1.4141  0.2788
  622MOL0     H82083   4.346   9.039   8.770 -0.9394 -0.3147 -0.2630
  622MOL0     H82084   4.246   9.307   8.870  0.5155  2.6722 -1.3770
  622MOL0     H82085   4.266   9.275   8.698 -0.9588  2.5000  1.1535
  622MOL0     H82086   3.630   8.834   8.282  3.9449 -0.5079 -2.8044
  622MOL0     H82087   3.485   8.903   8.097  0.4277 -2.8523  1.7579
  622MOL0     H82088   3.131   8.987   7.870 -3.2657  0.1419 -1.5607
  622MOL0     H82089   2.997   9.057   7.668 -0.7938  1.0283 -1.5911
  622MOL0     H82090   2.434   8.487   7.761 -0.2349  0.5734  0.2867
  622MOL0     H82091   2.510   8.570   7.967 -0.5645 -3.1447  0.3247
  622MOL0     H82092   2.506   8.923   8.272  1.2071 -0.4574 -0.7825
  622MOL0     H82093   2.553   9.030   8.467 -1.2405  0.2463 -1.5060
  622MOL0     H82094   2.584   9.091   8.655 -1.0839 -0.7043 -1.1352
  622MOL0     H82095   2.756   9.052   8.631 -0.6555  1.6733 -1.4179
  622MOL0     H82096   2.713   9.180   8.843 -2.4790  0.5220  0.9907
  622MOL0     H82097   2.618   9.046   8.900  0.5370 -0.8434  1.0192
  622MOL0     H82098   2.914   9.063   8.816 -3.2339  1.1145 -3.7855
  622MOL0     H82099   2.841   8.902   8.848 -0.2817 -1.3600  4.4951
  622MOL0     H82100   2.942   9.083   9.051  0.6279  0.9901 -3.4042
  622MOL0     H82101   2.770   9.027   9.077 -1.2526  1.0062 -1.8084
  622MOL0     H82102   3.047   8.688   9.079  0.2755  0.1856 -0.1848
  622MOL0     H82103   2.560   8.651   8.682  2.0396  0.5180 -0.3763
  622MOL0     H82104   2.424   8.570   8.482  0.4951  0.2466 -0.7257
  623MOL0     O82105   8.325  11.316   0.601 -0.2930  0.4375 -1.2239
  623MOL0     C82106   8.440  11.338   0.595 -1.1191 -0.3443  0.7129
  623MOL0     O82107   8.494  11.444   0.513 -0.8692  0.7751 -0.2740
  623MOL0     C82108   8.423  11.561   0.486 -0.0569  0.4186  0.4443
  623MOL0     C82109   8.347  11.635   0.575  1.0976 -0.5816 -0.5227
  623MOL0     C82110   8.275  11.749   0.532  0.6337  1.2456 -0.4232
  623MOL0     C82111   8.286  11.802   0.408  0.4074 -0.5284  0.6592
  623MOL0     O82112   8.218  11.921   0.369 -1.1501 -0.0129 -0.5078
  623MOL0     C82113   8.303  12.016   0.313 -0.5748 -1.0848 -0.3413
  623MOL0     C82114   8.240  12.158   0.311 -0.3908  0.3796 -0.3013
  623MOL0     C82115   8.319  12.264   0.235 -0.5500 -0.3670 -0.1497
  623MOL0     C82116   8.446  12.300   0.300 -0.8004  0.0041 -0.4400
  623MOL0     C82117   8.539  12.379   0.207 -0.1763 -0.2960 -0.5363
  623MOL0     C82118   8.667  12.404   0.278  0.0216 -0.0306  0.3197
  623MOL0     C82119   8.743  12.507   0.205  0.0977 -0.9531 -0.1853
  623MOL0     C82120   8.894  12.500   0.206  0.3494 -0.1382  0.1552
  623MOL0     N82121   8.931  12.613   0.128 -0.6269  0.0408 -0.3956
  623MOL0     C82122   8.922  12.623  -0.010  0.2248  0.5182  0.1649
  623MOL0     C82123   8.974  12.745  -0.044 -0.4589 -0.2874  0.7986
  623MOL0     C82124   8.983  12.802  -0.191  0.1828  0.7472 -0.5265
  623MOL0     C82125   9.111  12.870  -0.219  0.3857  0.1531 -0.6068
  623MOL0     C82126   9.148  12.860  -0.371  0.6796 -0.3574  0.1611
  623MOL0     C82127   9.294  12.816  -0.393 -0.9679  0.2917 -0.8856
  623MOL0     O82128   9.382  12.932  -0.397  0.0302  0.4461 -0.1806
  623MOL0     C82129   9.507  12.921  -0.469 -0.2058  0.8312  0.2320
  623MOL0     C82130   9.559  12.796  -0.501  0.2815 -0.5323  0.6331
  623MOL0     C82131   9.691  12.790  -0.553  1.3380 -0.1177  0.8779
  623MOL0     C82132   9.756  12.916  -0.577  0.7496  0.4523  0.2059
  623MOL0     C82133   9.896  12.912  -0.632 -0.3788  0.1954 -0.0761
  623MOL0     O82134   9.982  13.018  -0.589 -0.2967  0.2656  1.0371
  623MOL0     C82135  10.117  13.023  -0.616 -0.1506  0.4864 -0.3786
  623MOL0     C82136  10.167  13.155  -0.616 -0.2973  0.2423  0.2074
  623MOL0     C82137  10.298  13.170  -0.671  0.5202 -0.7125  0.6125
  623MOL0     C82138  10.375  13.069  -0.721 -0.1857  0.5111 -0.6977
  623MOL0     O82139  10.504  13.075  -0.775 -0.0540  0.0610  0.0322
  623MOL0     C82140  10.582  13.188  -0.738 -0.3947  0.1070  0.4198
  623MOL0     C82141  10.725  13.178  -0.783  0.0668 -0.9512  0.7762
  623MOL0     C82142  10.823  13.233  -0.686 -0.5203 -0.6260 -0.1880
  623MOL0     C82143  10.955  13.256  -0.765  0.3043  0.2183  0.2370
  623MOL0     C82144  11.060  13.311  -0.672  1.0856  0.0605 -0.4898
  623MOL0     C82145  11.191  13.336  -0.749  1.0200 -0.1391 -0.6226
  623MOL0     C82146  11.303  13.404  -0.677 -0.5522  0.3980 -0.7739
  623MOL0     C82147  11.268  13.550  -0.633 -0.1712 -0.7280 -0.2714
  623MOL0    Cl82148  11.410  13.648  -0.560  0.5699  0.1035  0.1046
  623MOL0     C82149  10.319  12.939  -0.713 -0.5102  0.6964 -0.6115
  623MOL0     C82150  10.192  12.908  -0.658 -0.3842  1.0351  0.3012
  623MOL0     O82151   9.928  12.812  -0.698 -0.0278  0.6362  0.0741
  623MOL0     C82152   9.707  13.044  -0.553  0.5739  0.1755  0.3412
  623MOL0     C82153   9.582  13.040  -0.497 -0.1105  0.3394 -0.0956
  623MOL0     N82154   9.009  12.802   0.079  0.6990  0.8932  0.2602
  623MOL0     N82155   8.993  12.728   0.173 -0.0388  0.2436 -0.0254
  623MOL0     C82156   8.378  11.741   0.322 -0.9830  0.2427  0.2297
  623MOL0     C82157   8.450  11.623   0.361  0.1081 -0.1402  0.0125
  623MOL0     C82158   8.540  11.254   0.652 -0.8709 -0.9654  1.0171
  623MOL0     C82159   8.512  11.151   0.741 -0.4843  0.5372  0.0918
  623MOL0     C82160   8.620  11.077   0.790 -0.2956 -0.6193 -0.5944
  623MOL0     C82161   8.756  11.113   0.764 -0.6499  0.2731  0.7825
  623MOL0     O82162   8.867  11.039   0.814 -0.5978  0.6515 -0.6492
  623MOL0     C82163   8.840  10.918   0.885 -0.2592  0.3016 -0.5961
  623MOL0     C82164   8.961  10.828   0.898  0.4421  0.6333 -0.2013
  623MOL0     C82165   8.993  10.755   0.768  0.1644  1.0184  0.8483
  623MOL0     C82166   9.105  10.648   0.793 -0.7958  1.0834  0.1609
  623MOL0     C82167   9.230  10.723   0.846  0.6112  0.4084 -0.3345
  623MOL0     C82168   9.329  10.778   0.898  0.1964 -0.0762 -0.0420
  623MOL0     C82169   8.789  11.214   0.669 -0.1684  0.2684 -0.7400
  623MOL0     C82170   8.678  11.282   0.618  0.3543  0.0820  0.0888
  623MOL0     H82171   8.335  11.610   0.680 -0.5495  1.7554 -0.0821
  623MOL0     H82172   8.219  11.809   0.602  3.0509  2.6676  0.4165
  623MOL0     H82173   8.337  11.997   0.211 -0.7891  2.5742 -1.2384
  623MOL0     H82174   8.394  12.013   0.375 -0.6979 -2.4764 -0.1911
  623MOL0     H82175   8.215  12.192   0.412 -1.3132 -1.6502  0.1953
  623MOL0     H82176   8.146  12.156   0.255 -0.5945 -0.6034  0.0532
  623MOL0     H82177   8.267  12.359   0.218  1.8667  0.9991 -0.3353
  623MOL0     H82178   8.336  12.234   0.131 -1.6362  0.4221 -0.5773
  623MOL0     H82179   8.446  12.364   0.389 -0.7631 -0.0454 -0.4040
  623MOL0     H82180   8.501  12.207   0.320  2.8613  2.3025  1.4486
  623MOL0     H82181   8.495  12.472   0.170  1.2567  0.5917 -0.0962
  623MOL0     H82182   8.562  12.308   0.127  2.7887 -2.9911  2.3713
  623MOL0     H82183   8.718  12.308   0.288 -1.4634 -1.0229 -0.9978
  623MOL0     H82184   8.651  12.443   0.378  0.2492  0.7339  0.0654
  623MOL0     H82185   8.707  12.518   0.102  1.1602 -1.0574 -0.5779
  623MOL0     H82186   8.718  12.591   0.270  1.5924 -0.0720 -0.7082
  623MOL0     H82187   8.917  12.410   0.148 -2.6298 -1.9910  1.6371
  623MOL0     H82188   8.934  12.495   0.308 -2.0760 -2.3965  1.1147
  623MOL0     H82189   8.882  12.554  -0.083  0.0401  4.1548 -3.4899
  623MOL0     H82190   8.896  12.864  -0.214 -1.8563 -2.7540 -3.2128
  623MOL0     H82191   8.963  12.715  -0.253  0.4543  2.1388 -2.6684
  623MOL0     H82192   9.186  12.816  -0.161 -1.0430  2.0240  3.3157
  623MOL0     H82193   9.124  12.974  -0.186  1.8160 -0.0411 -0.4966
  623MOL0     H82194   9.082  12.793  -0.427  0.3919 -1.3099  1.6047
  623MOL0     H82195   9.140  12.956  -0.423 -0.5081  0.3528  1.5967
  623MOL0     H82196   9.300  12.756  -0.484 -2.9208 -0.7154 -0.3996
  623MOL0     H82197   9.318  12.749  -0.310 -1.2923 -0.5280 -1.4389
  623MOL0     H82198   9.503  12.708  -0.469  0.0765  0.7587  4.2820
  623MOL0     H82199   9.738  12.698  -0.587 -0.2726  0.0039 -2.0047
  623MOL0     H82200  10.105  13.233  -0.572 -0.5355  0.6204 -0.7541
  623MOL0     H82201  10.338  13.270  -0.670  0.7792 -0.7594  3.4755
  623MOL0     H82202  10.593  13.203  -0.630  0.6090 -0.2936  0.3835
  623MOL0     H82203  10.540  13.280  -0.779 -0.0773  0.0901  0.0593
  623MOL0     H82204  10.735  13.238  -0.875  0.5448 -1.1337  0.7113
  623MOL0     H82205  10.748  13.075  -0.809 -1.2281 -0.6223 -2.1085
  623MOL0     H82206  10.835  13.161  -0.604 -2.6006 -0.5931  0.2036
  623MOL0     H82207  10.787  13.327  -0.643 -0.6676  1.4421 -4.3818
  623MOL0     H82208  10.988  13.165  -0.817  1.7416  0.0698  1.3625
  623MOL0     H82209  10.937  13.330  -0.844  0.0563  0.8084  0.8345
  623MOL0     H82210  11.082  13.235  -0.597  2.6595 -0.9432 -1.9049
  623MOL0     H82211  11.022  13.404  -0.628  3.6624  1.0717 -0.2682
  623MOL0     H82212  11.169  13.401  -0.835  3.0053 -0.4010 -1.3812
  623MOL0     H82213  11.223  13.244  -0.798 -0.1837  0.0671 -1.8660
  623MOL0     H82214  11.322  13.352  -0.582 -1.3880  2.3238  0.5315
  623MOL0     H82215  11.387  13.403  -0.748 -0.0037  2.8507 -0.2675
  623MOL0     H82216  11.199  13.560  -0.548 -0.7060  3.9869 -1.0239
  623MOL0     H82217  11.223  13.608  -0.714 -2.1824 -2.0872 -0.2131
  623MOL0     H82218  10.378  12.860  -0.758 -1.9726  1.9159 -5.1909
  623MOL0     H82219  10.146  12.810  -0.653  0.4434  0.5102 -1.5652
  623MOL0     H82220   9.767  13.135  -0.554  2.1165 -0.6374  3.6206
  623MOL0     H82221   9.534  13.135  -0.474  1.1280  0.9312  0.1165
  623MOL0     H82222   8.393  11.787   0.224 -0.0829  3.4763  1.7483
  623MOL0     H82223   8.516  11.579   0.288  1.0317  0.3412  0.5427
  623MOL0     H82224   8.406  11.139   0.760 -1.2634  1.0825 -3.3194
  623MOL0     H82225   8.599  11.002   0.865 -0.3539 -0.4313 -0.4229
  623MOL0     H82226   8.763  10.852   0.847  0.1520  0.5158 -1.8345
  623MOL0     H82227   8.807  10.941   0.987 -2.1068 -1.7943 -0.6496
  623MOL0     H82228   9.039  10.883   0.951  0.3400  1.6991 -1.1308
  623MOL0     H82229   8.932  10.751   0.970  5.0248 -0.1284  1.2024
  623MOL0     H82230   9.020  10.819   0.684 -0.7491  1.1975  0.6778
  623MOL0     H82231   8.896  10.716   0.738  0.7543 -2.5057  2.9268
  623MOL0     H82232   9.049  10.587   0.864 -1.0969  1.1626 -0.0032
  623MOL0     H82233   9.138  10.593   0.704  2.0596  1.7194  0.7226
  623MOL0     H82234   9.398  10.831   0.960 -1.7861  0.4900  1.8148
  623MOL0     H82235   8.886  11.260   0.655 -0.6635  1.3777 -0.5955
  623MOL0     H82236   8.701  11.359   0.544  0.2711 -0.8515 -0.9385
  624MOL0     O82237   6.000   4.740  10.243  0.5497 -0.3881  0.7655
  624MOL0     C82238   5.976   4.712  10.356 -0.3274  0.0296 -0.1779
  624MOL0     O82239   5.858   4.650  10.400 -0.5279 -0.4782 -0.1188
  624MOL0     C82240   5.759   4.603  10.315  0.4668 -0.1534  0.1974
  624MOL0     C82241   5.743   4.461  10.310  0.1417 -0.2165  0.0740
  624MOL0     C82242   5.639   4.392  10.253  0.2197 -0.0643  0.2200
  624MOL0     C82243   5.537   4.470  10.193 -0.6128  0.0011 -0.2699
  624MOL0     O82244   5.433   4.392  10.151  0.6114  0.0992  0.5841
  624MOL0     C82245   5.310   4.454  10.129  1.3108  0.5110  0.7202
  624MOL0     C82246   5.198   4.348  10.137  0.8517  0.2290  0.5599
  624MOL0     C82247   5.050   4.399  10.106 -0.8389  0.6724 -0.3955
  624MOL0     C82248   4.943   4.293  10.092  0.1017 -0.5873  0.3296
  624MOL0     C82249   4.930   4.214  10.224  0.8755 -0.1807  0.0632
  624MOL0     C82250   4.877   4.300  10.348  0.3281 -1.1126  0.6122
  624MOL0     C82251   4.895   4.230  10.486 -0.0735  0.0068  0.0957
  624MOL0     C82252   4.843   4.310  10.601 -1.0311  0.0703 -0.7377
  624MOL0     N82253   4.709   4.363  10.556  0.2652 -0.5587 -0.7507
  624MOL0     C82254   4.594   4.320  10.607 -0.5996  0.9256  0.4847
  624MOL0     C82255   4.505   4.412  10.575  0.0102 -1.3919  0.1264
  624MOL0     C82256   4.363   4.409  10.606  0.5046  0.0351  0.7451
  624MOL0     C82257   4.266   4.505  10.517 -0.0982  0.0281  0.2326
  624MOL0     C82258   4.240   4.456  10.370  0.0110  0.1560 -0.3205
  624MOL0     C82259   4.367   4.457  10.282  0.0268 -0.1396 -0.7997
  624MOL0     O82260   4.347   4.518  10.152  0.5501 -0.4569 -0.3857
  624MOL0     C82261   4.261   4.463  10.058  0.1450  0.6356 -0.1818
  624MOL0     C82262   4.221   4.330  10.063 -0.3825 -0.1709 -0.4166
  624MOL0     C82263   4.149   4.269   9.955 -0.1464  0.3318 -0.4238
  624MOL0     C82264   4.116   4.348   9.849 -0.0832 -0.0332 -0.4501
  624MOL0     C82265   4.031   4.289   9.732 -0.0545 -0.4738 -0.2406
  624MOL0     O82266   3.997   4.382   9.639 -0.7580  0.2058  0.7845
  624MOL0     C82267   3.921   4.356   9.524  0.0724 -0.5981 -0.2417
  624MOL0     C82268   3.866   4.472   9.465 -0.2147  0.2601  0.6619
  624MOL0     C82269   3.800   4.465   9.352  0.1119 -0.6846  0.2232
  624MOL0     C82270   3.768   4.339   9.306  0.9145 -0.8525  0.3179
  624MOL0     O82271   3.673   4.325   9.204  0.3036 -0.3563  0.0160
  624MOL0     C82272   3.532   4.268   9.233 -0.0124  0.2663 -0.3395
  624MOL0     C82273   3.429   4.382   9.211  0.4637 -0.0119 -0.0685
  624MOL0     C82274   3.286   4.334   9.179  0.7617  0.9807  0.1607
  624MOL0     C82275   3.245   4.255   9.303  0.1406 -0.0817  0.2400
  624MOL0     C82276   3.093   4.245   9.303  0.0400  0.5235 -0.8315
  624MOL0     C82277   3.016   4.207   9.175 -0.6941 -0.6742 -0.1032
  624MOL0     C82278   2.862   4.209   9.190 -0.6794  0.6058 -0.6060
  624MOL0     C82279   2.775   4.152   9.086  0.8058 -1.1104  0.4010
  624MOL0    Cl82280   2.786   4.242   8.928 -0.4448 -0.0606 -0.2601
  624MOL0     C82281   3.804   4.224   9.369 -0.7417  0.1277 -0.1567
  624MOL0     C82282   3.882   4.231   9.481 -1.0270 -0.3068  0.9864
  624MOL0     O82283   4.012   4.166   9.735  0.4684  0.6515  0.3980
  624MOL0     C82284   4.147   4.488   9.839 -0.2045  0.9121 -0.2059
  624MOL0     C82285   4.219   4.539   9.951 -0.0113  0.6494 -0.1083
  624MOL0     N82286   4.566   4.528  10.534 -0.2211 -0.3325  0.3499
  624MOL0     N82287   4.683   4.489  10.513 -1.4504  0.2422  0.4277
  624MOL0     C82288   5.549   4.615  10.204 -0.6891 -0.6740  0.4710
  624MOL0     C82289   5.654   4.680  10.267  0.8279  0.0337  0.2434
  624MOL0     C82290   6.086   4.710  10.446  0.2281  0.1704  0.1779
  624MOL0     C82291   6.063   4.687  10.582  1.2950  0.0113 -0.1866
  624MOL0     C82292   6.174   4.692  10.667 -0.0232  0.1543  0.1191
  624MOL0     C82293   6.304   4.713  10.619  0.0944 -0.0412 -0.7699
  624MOL0     O82294   6.420   4.703  10.689  0.5514 -0.0198 -0.3247
  624MOL0     C82295   6.409   4.630  10.819  0.0284 -0.3466  0.9478
  624MOL0     C82296   6.550   4.586  10.862 -0.2509 -0.1834 -0.4692
  624MOL0     C82297   6.644   4.701  10.913 -0.4143  0.9469  0.6898
  624MOL0     C82298   6.789   4.663  10.889  0.2829  0.8780 -0.3788
  624MOL0     C82299   6.887   4.740  10.961  0.4627  0.0078  0.5219
  624MOL0     C82300   6.969   4.815  11.010 -0.5980  1.1127  1.0488
  624MOL0     C82301   6.323   4.720  10.486  0.4621  0.2065  0.5636
  624MOL0     C82302   6.217   4.730  10.396 -0.1670  0.4201  0.3778
  624MOL0     H82303   5.804   4.398  10.375  0.8935  1.0628  0.6512
  624MOL0     H82304   5.623   4.287  10.273  1.3843 -0.0162  1.6135
  624MOL0     H82305   5.322   4.512  10.037 -0.8515  4.1175  2.5196
  624MOL0     H82306   5.275   4.521  10.207  1.5291 -1.2066  2.3687
  624MOL0     H82307   5.206   4.319  10.242 -1.9300  4.4817  2.2391
  624MOL0     H82308   5.212   4.265  10.068  1.6709  2.6974 -2.5067
  624MOL0     H82309   5.059   4.439  10.004  0.6082 -1.6144 -1.2280
  624MOL0     H82310   5.006   4.478  10.168 -1.7352  1.2854 -1.7561
  624MOL0     H82311   4.849   4.342  10.067 -2.1714 -4.2035  1.0665
  624MOL0     H82312   4.982   4.229  10.012 -0.9140 -0.5853 -0.1837
  624MOL0     H82313   5.025   4.172  10.259 -0.2484 -3.1984 -0.2526
  624MOL0     H82314   4.864   4.128  10.212  1.3457 -0.3627 -1.3821
  624MOL0     H82315   4.772   4.328  10.335  0.1117 -0.2579  3.4839
  624MOL0     H82316   4.933   4.394  10.343  1.2409 -1.6868 -2.3682
  624MOL0     H82317   4.837   4.137  10.485 -0.1073 -0.1276  3.5625
  624MOL0     H82318   4.999   4.207  10.512  0.3008  1.7914  0.2739
  624MOL0     H82319   4.912   4.393  10.621 -1.4491  0.4752 -0.9403
  624MOL0     H82320   4.831   4.253  10.693  0.6187  3.1824  1.6211
  624MOL0     H82321   4.573   4.231  10.665 -0.2046  1.9867  2.3246
  624MOL0     H82322   4.341   4.421  10.712 -1.0893  1.5365  0.2938
  624MOL0     H82323   4.327   4.307  10.591 -0.3011  0.3221  0.6712
  624MOL0     H82324   4.298   4.609  10.510  3.8342 -1.0312 -0.0728
  624MOL0     H82325   4.174   4.504  10.576 -0.2921  2.1160  0.0223
  624MOL0     H82326   4.196   4.356  10.382 -1.2652  0.7402  0.0459
  624MOL0     H82327   4.158   4.526  10.354 -1.1538 -0.9152  0.6715
  624MOL0     H82328   4.406   4.356  10.269  1.8779  0.6540 -1.8595
  624MOL0     H82329   4.439   4.520  10.336 -1.7580  1.5489 -0.2868
  624MOL0     H82330   4.257   4.266  10.143 -1.7263  0.9153  1.1313
  624MOL0     H82331   4.119   4.165   9.968  0.1100  0.5097  2.0516
  624MOL0     H82332   3.884   4.563   9.520 -1.3762 -1.0851  3.4559
  624MOL0     H82333   3.765   4.555   9.303 -1.8179  0.6486  3.6274
  624MOL0     H82334   3.505   4.218   9.327  2.3490 -1.0791 -0.3013
  624MOL0     H82335   3.526   4.196   9.151 -0.9823  0.4272 -0.4251
  624MOL0     H82336   3.469   4.444   9.130  1.3450 -2.4459 -1.6082
  624MOL0     H82337   3.438   4.438   9.305  2.0449 -2.3264  1.2595
  624MOL0     H82338   3.273   4.274   9.089 -2.2379  1.2692  0.2929
  624MOL0     H82339   3.232   4.429   9.166  1.2754  1.2405 -0.1307
  624MOL0     H82340   3.279   4.151   9.298 -0.1791 -0.1688 -0.2059
  624MOL0     H82341   3.288   4.281   9.400 -2.0191  2.4666  0.6104
  624MOL0     H82342   3.059   4.345   9.333  1.9387  0.3967  2.2327
  624MOL0     H82343   3.069   4.173   9.382  2.2590  1.5837  0.9524
  624MOL0     H82344   3.037   4.108   9.132  1.5022  0.6825 -2.3905
  624MOL0     H82345   3.047   4.271   9.092 -3.9206 -0.2756 -1.1660
  624MOL0     H82346   2.831   4.152   9.278 -2.6822  2.3675 -0.0758
  624MOL0     H82347   2.834   4.315   9.192  0.8588  1.1190 -3.0500
  624MOL0     H82348   2.670   4.148   9.118  0.6232  1.2374  0.2554
  624MOL0     H82349   2.808   4.049   9.068 -1.7169 -1.7893 -0.8657
  624MOL0     H82350   3.783   4.125   9.329  0.8592 -0.9909  1.6022
  624MOL0     H82351   3.921   4.144   9.532 -0.0369 -0.5533 -0.1509
  624MOL0     H82352   4.119   4.549   9.754 -0.9509  0.1386 -0.5291
  624MOL0     H82353   4.245   4.643   9.937  0.1492  0.6090 -0.1055
  624MOL0     H82354   5.463   4.679  10.184 -1.0077 -1.0942  0.4770
  624MOL0     H82355   5.668   4.786  10.250 -0.3604 -0.1631 -2.4002
  624MOL0     H82356   5.963   4.662  10.616  2.2200 -0.7733  2.1014
  624MOL0     H82357   6.164   4.656  10.769 -1.2140  1.0094  0.3218
  624MOL0     H82358   6.354   4.536  10.830 -2.0615  1.0497  3.6575
  624MOL0     H82359   6.369   4.695  10.897 -1.4061 -1.9700  1.6397
  624MOL0     H82360   6.540   4.527  10.953 -0.4725 -1.3473 -1.2363
  624MOL0     H82361   6.600   4.528  10.784  0.1951  0.7256 -0.8799
  624MOL0     H82362   6.633   4.722  11.020  0.5141  2.4098  0.5249
  624MOL0     H82363   6.619   4.797  10.867 -0.3143  0.0440 -1.3447
  624MOL0     H82364   6.805   4.559  10.920 -1.6553  0.4061 -0.7990
  624MOL0     H82365   6.803   4.660  10.780  0.9685 -2.5577 -0.3227
  624MOL0     H82366   7.055   4.863  11.054  1.1902 -1.8263  1.0304
  624MOL0     H82367   6.418   4.746  10.442 -0.8802 -1.2562 -3.6822
  624MOL0     H82368   6.241   4.743  10.291  2.4648 -0.1859  0.8332
  625MOL0     O82369   0.932   7.245   8.954 -0.0527  0.5204 -0.2280
  625MOL0     C82370   0.839   7.166   8.923  0.5823 -0.5669 -0.2396
  625MOL0     O82371   0.837   7.030   8.944  0.6663  0.2150  0.6236
  625MOL0     C82372   0.962   6.974   8.961  1.2738  0.1549 -0.4782
  625MOL0     C82373   1.067   6.992   8.867  1.0280  0.6973 -0.1649
  625MOL0     C82374   1.189   6.922   8.893  0.7171  0.0069 -0.7997
  625MOL0     C82375   1.200   6.830   9.006 -0.2835 -0.4544 -0.3249
  625MOL0     O82376   1.313   6.764   9.036  0.2342 -0.7702  0.0595
  625MOL0     C82377   1.421   6.766   8.939 -0.3645 -0.1465 -0.0864
  625MOL0     C82378   1.522   6.643   8.965 -0.1561 -0.0971 -0.3156
  625MOL0     C82379   1.602   6.673   9.089 -0.0495  0.3155  0.1140
  625MOL0     C82380   1.693   6.796   9.073 -1.4059  0.7890 -0.4834
  625MOL0     C82381   1.784   6.817   9.196  0.1443 -0.9208 -0.2969
  625MOL0     C82382   1.889   6.710   9.212 -0.0568 -0.4872 -0.1538
  625MOL0     C82383   1.994   6.725   9.111  0.4687  0.2442  0.1132
  625MOL0     C82384   2.085   6.852   9.138 -0.1390  0.9168 -0.2967
  625MOL0     N82385   2.154   6.837   9.263 -0.9092 -0.7674 -0.3900
  625MOL0     C82386   2.199   6.950   9.338 -0.9350  0.0378  0.6106
  625MOL0     C82387   2.303   6.894   9.403  0.2796 -0.4039  0.2668
  625MOL0     C82388   2.400   6.980   9.472 -0.0719 -0.4047 -0.4487
  625MOL0     C82389   2.548   6.977   9.445 -0.9420 -0.3512 -0.0375
  625MOL0     C82390   2.611   7.048   9.565 -0.3755 -0.4376  0.0451
  625MOL0     C82391   2.765   7.042   9.537 -0.5117  1.2598  0.0219
  625MOL0     O82392   2.816   6.926   9.606  0.0989  0.5245 -0.0349
  625MOL0     C82393   2.948   6.895   9.581  0.0873 -0.2614 -0.2106
  625MOL0     C82394   3.036   6.973   9.513  0.1022 -0.3309  0.5789
  625MOL0     C82395   3.167   6.931   9.492  0.6785 -0.1107 -0.3761
  625MOL0     C82396   3.215   6.813   9.555 -1.7272 -0.4738 -0.9241
  625MOL0     C82397   3.356   6.775   9.551  0.5377 -0.6160  1.9366
  625MOL0     O82398   3.396   6.665   9.610  0.0112  0.3585 -0.0575
  625MOL0     C82399   3.520   6.609   9.590  0.3321 -0.1886  0.6582
  625MOL0     C82400   3.638   6.672   9.639  0.0733 -1.1818  0.5095
  625MOL0     C82401   3.759   6.605   9.652 -0.1307  0.1185  0.3304
  625MOL0     C82402   3.764   6.463   9.619 -0.1923 -0.3414 -0.0087
  625MOL0     O82403   3.886   6.398   9.633 -0.3182  0.5091  0.2350
  625MOL0     C82404   3.973   6.422   9.750  0.0782  0.6097  0.6894
  625MOL0     C82405   4.087   6.496   9.694 -0.1778 -0.0518  0.7393
  625MOL0     C82406   4.220   6.515   9.765  0.2932 -0.7331 -0.3042
  625MOL0     C82407   4.314   6.618   9.691 -0.5578 -0.6500 -1.0148
  625MOL0     C82408   4.451   6.647   9.753 -0.0502  0.3312 -0.5715
  625MOL0     C82409   4.572   6.616   9.657  0.3473 -0.2213  0.9336
  625MOL0     C82410   4.705   6.688   9.705 -0.0834 -0.0300  0.3944
  625MOL0     C82411   4.764   6.632   9.832 -0.2093  0.3309 -0.0195
  625MOL0    Cl82412   4.934   6.699   9.844  0.2520  0.1941 -0.1213
  625MOL0     C82413   3.658   6.403   9.555  0.2846  0.3083  0.5405
  625MOL0     C82414   3.540   6.477   9.531 -0.5751 -0.7269  0.2746
  625MOL0     O82415   3.431   6.851   9.483  0.4864  0.5363  0.5216
  625MOL0     C82416   3.123   6.728   9.627 -1.2647 -0.4553 -0.5565
  625MOL0     C82417   2.990   6.768   9.636 -1.2813  0.7241  0.8686
  625MOL0     N82418   2.303   6.760   9.388  0.3878  0.2543 -0.4027
  625MOL0     N82419   2.212   6.724   9.305 -0.2934 -0.7476  1.2740
  625MOL0     C82420   1.089   6.817   9.085 -1.0993 -0.1453 -0.1989
  625MOL0     C82421   0.971   6.893   9.070 -0.0875 -1.1054  0.6554
  625MOL0     C82422   0.716   7.238   8.879 -0.6539  0.5281  0.0582
  625MOL0     C82423   0.696   7.367   8.911  0.7093 -0.4693 -0.9802
  625MOL0     C82424   0.580   7.434   8.860 -0.7362  0.2496  0.5019
  625MOL0     C82425   0.507   7.369   8.760 -0.7741 -0.4531  0.0850
  625MOL0     O82426   0.405   7.437   8.694  0.3238 -0.5878 -1.0347
  625MOL0     C82427   0.427   7.577   8.669  0.3754 -0.2025  0.6125
  625MOL0     C82428   0.304   7.643   8.592 -0.5767 -0.2976 -0.2941
  625MOL0     C82429   0.311   7.600   8.452  0.4905  0.6705  0.0041
  625MOL0     C82430   0.189   7.630   8.366 -0.1219  0.3163 -0.7860
  625MOL0     C82431   0.173   7.550   8.244 -0.9409  0.1894  0.1483
  625MOL0     C82432   0.171   7.485   8.144  0.2066  0.1951 -0.6086
  625MOL0     C82433   0.523   7.231   8.730 -0.1181 -0.5265 -0.0047
  625MOL0     C82434   0.638   7.169   8.791  0.1438 -0.3937  0.0561
  625MOL0     H82435   1.050   7.049   8.777 -1.4276 -1.4658 -1.1840
  625MOL0     H82436   1.271   6.934   8.823  2.7013 -1.5076  1.1544
  625MOL0     H82437   1.472   6.863   8.934  0.1629 -0.3784  0.6257
  625MOL0     H82438   1.392   6.754   8.834  4.2550  0.3207 -1.6681
  625MOL0     H82439   1.589   6.630   8.879  2.8182 -0.8919  1.9746
  625MOL0     H82440   1.474   6.546   8.985  1.6884 -0.3470  3.6938
  625MOL0     H82441   1.661   6.583   9.107 -1.5102 -0.3227  1.9391
  625MOL0     H82442   1.542   6.679   9.180 -0.6079 -1.1915 -0.1327
  625MOL0     H82443   1.759   6.790   8.987  2.3817  0.7023  2.1656
  625MOL0     H82444   1.631   6.885   9.059 -1.9733  0.3883 -0.5686
  625MOL0     H82445   1.725   6.822   9.288  0.2341  0.1203 -0.2873
  625MOL0     H82446   1.827   6.917   9.195 -0.9281 -0.4446 -0.3042
  625MOL0     H82447   1.836   6.615   9.199 -2.4172  0.6652  0.3311
  625MOL0     H82448   1.926   6.708   9.315 -0.4641 -0.3553 -0.0008
  625MOL0     H82449   2.069   6.646   9.118  2.4063  1.5815 -3.3474
  625MOL0     H82450   1.957   6.720   9.009 -0.4936 -1.1506  0.5052
  625MOL0     H82451   2.023   6.941   9.133  1.5571  2.0773 -1.6277
  625MOL0     H82452   2.153   6.866   9.054  2.3010 -1.9138  1.0281
  625MOL0     H82453   2.183   7.056   9.321 -0.9712 -0.1485 -0.6084
  625MOL0     H82454   2.390   6.958   9.579 -1.2523  3.6598  0.4617
  625MOL0     H82455   2.367   7.081   9.447 -2.3542 -1.7217 -3.3690
  625MOL0     H82456   2.581   7.030   9.355  0.3482  1.3318  1.3579
  625MOL0     H82457   2.582   6.873   9.447  2.4017  0.6214  1.5293
  625MOL0     H82458   2.584   7.154   9.573  3.2142  0.7665 -1.7379
  625MOL0     H82459   2.597   6.999   9.661  0.0014 -2.3247 -0.8233
  625MOL0     H82460   2.820   7.132   9.567  2.4696  0.1132 -1.5234
  625MOL0     H82461   2.795   7.031   9.432  0.6905 -1.3824  0.5557
  625MOL0     H82462   3.018   7.063   9.454  1.4146 -0.3899  0.0498
  625MOL0     H82463   3.232   6.967   9.413  1.8082 -0.2311  0.4732
  625MOL0     H82464   3.627   6.772   9.681  2.2959  0.2129 -1.9226
  625MOL0     H82465   3.844   6.648   9.704  0.2918 -3.3081  2.8016
  625MOL0     H82466   3.997   6.325   9.794  0.4797  0.7446  0.7673
  625MOL0     H82467   3.923   6.492   9.817  1.1399  0.7042  1.3882
  625MOL0     H82468   4.055   6.600   9.678  2.6535  0.6806 -0.8122
  625MOL0     H82469   4.116   6.450   9.599  0.9083 -0.3126  1.1836
  625MOL0     H82470   4.265   6.416   9.766 -2.8155 -2.3569 -2.8161
  625MOL0     H82471   4.205   6.551   9.868 -0.5251 -2.7952  0.3350
  625MOL0     H82472   4.317   6.585   9.586 -1.4627 -1.2810 -0.8581
  625MOL0     H82473   4.266   6.716   9.699 -0.0521 -0.4388 -0.4813
  625MOL0     H82474   4.462   6.593   9.848 -0.1796 -1.7952 -1.7179
  625MOL0     H82475   4.447   6.755   9.769  0.3036  0.2806 -0.1152
  625MOL0     H82476   4.549   6.655   9.557  1.0565 -2.4428 -0.1707
  625MOL0     H82477   4.584   6.508   9.646 -0.0733 -0.0665 -1.6982
  625MOL0     H82478   4.779   6.668   9.627 -0.4267 -2.6629  0.6265
  625MOL0     H82479   4.697   6.795   9.722  3.0225  0.2193  0.7692
  625MOL0     H82480   4.778   6.523   9.828  2.1337  0.2979  3.8592
  625MOL0     H82481   4.698   6.645   9.918  1.2729  2.1305  0.9287
  625MOL0     H82482   3.667   6.303   9.513  0.9742  1.5366 -2.5463
  625MOL0     H82483   3.461   6.420   9.482 -0.0043 -1.3448  0.0619
  625MOL0     H82484   3.156   6.633   9.668 -2.1972 -1.2106 -1.4952
  625MOL0     H82485   2.922   6.691   9.669  0.7891 -1.8055 -0.4271
  625MOL0     H82486   1.104   6.752   9.171  2.9882 -0.6797 -1.1351
  625MOL0     H82487   0.882   6.892   9.132  1.3787 -0.8996  2.8853
  625MOL0     H82488   0.769   7.418   8.973 -0.6127 -1.5827  1.6295
  625MOL0     H82489   0.564   7.536   8.892  0.2705  1.0861 -1.4900
  625MOL0     H82490   0.521   7.585   8.614  0.2463 -0.6721  0.3276
  625MOL0     H82491   0.441   7.636   8.761  2.6675 -1.7104  1.3297
  625MOL0     H82492   0.210   7.613   8.640 -2.6664  3.8890 -1.2815
  625MOL0     H82493   0.309   7.752   8.587 -1.5641 -0.1010  1.7913
  625MOL0     H82494   0.312   7.491   8.449 -0.4278  0.6785 -1.2293
  625MOL0     H82495   0.402   7.637   8.405 -0.3024  0.3697 -1.8434
  625MOL0     H82496   0.100   7.612   8.427 -0.2265 -0.9580 -1.2747
  625MOL0     H82497   0.193   7.737   8.344 -0.4893  0.8754  1.5698
  625MOL0     H82498   0.161   7.425   8.056  0.9709  0.1134 -0.6494
  625MOL0     H82499   0.457   7.183   8.658 -0.0372  1.7531 -1.7241
  625MOL0     H82500   0.650   7.072   8.743 -0.2518 -1.2932  1.7027
  626MOL0     O82501   0.049   7.632   2.417  0.0542  0.4561  1.2391
  626MOL0     C82502   0.109   7.640   2.305  0.4709 -0.7841  0.3550
  626MOL0     O82503   0.054   7.602   2.185 -0.5323 -0.0104 -0.1773
  626MOL0     C82504  -0.068   7.548   2.177 -0.1211  0.8595 -1.7175
  626MOL0     C82505  -0.175   7.630   2.175 -0.2538  0.3977  0.6678
  626MOL0     C82506  -0.304   7.578   2.176  0.5073 -0.8425  1.4601
  626MOL0     C82507  -0.326   7.438   2.155 -0.8659 -0.5567 -0.3113
  626MOL0     O82508  -0.445   7.367   2.156 -0.4874 -0.4355  0.7914
  626MOL0     C82509  -0.557   7.453   2.132 -0.5472  0.6594 -0.7691
  626MOL0     C82510  -0.683   7.372   2.107  0.3677 -0.9524 -0.1765
  626MOL0     C82511  -0.679   7.284   1.979 -0.0918  0.3384 -0.3395
  626MOL0     C82512  -0.822   7.250   1.926 -0.0859  0.3980  0.6240
  626MOL0     C82513  -0.880   7.117   1.988 -0.8657  1.0238 -0.4130
  626MOL0     C82514  -1.017   7.160   2.039 -1.0402  0.9459 -0.8431
  626MOL0     C82515  -1.096   7.031   2.077 -0.2436  0.0794 -1.0880
  626MOL0     C82516  -1.015   6.924   2.150  0.1997 -0.2791 -0.1064
  626MOL0     N82517  -1.103   6.821   2.196 -0.2433 -0.2931 -0.4808
  626MOL0     C82518  -1.125   6.705   2.129 -0.0187  0.0774  0.3035
  626MOL0     C82519  -1.211   6.628   2.202 -0.5466  0.2135  0.0108
  626MOL0     C82520  -1.252   6.492   2.170 -0.1850  0.0910 -0.1414
  626MOL0     C82521  -1.405   6.461   2.137  1.2274  0.1654  1.0127
  626MOL0     C82522  -1.467   6.573   2.047  0.4958  0.2567 -0.5770
  626MOL0     C82523  -1.616   6.552   2.055 -0.7622 -0.2635 -0.3502
  626MOL0     O82524  -1.654   6.596   2.193  0.1115 -0.0498  0.0275
  626MOL0     C82525  -1.706   6.721   2.230 -0.8241  0.8993 -0.3531
  626MOL0     C82526  -1.797   6.726   2.340  0.1261  0.3144  0.6820
  626MOL0     C82527  -1.859   6.840   2.382  0.5658  0.2788 -0.1773
  626MOL0     C82528  -1.830   6.961   2.318 -0.8494 -0.2026  1.3411
  626MOL0     C82529  -1.902   7.088   2.351 -0.6368 -0.4571 -0.3852
  626MOL0     O82530  -1.995   7.076   2.442  0.7152 -0.2276  0.9618
  626MOL0     C82531  -2.074   7.188   2.462 -0.5725 -0.3113 -0.7054
  626MOL0     C82532  -2.192   7.194   2.388 -0.2007 -1.0539 -0.3023
  626MOL0     C82533  -2.281   7.303   2.401 -0.0211 -0.6742 -0.6342
  626MOL0     C82534  -2.270   7.397   2.505 -0.1533  1.0580 -0.7689
  626MOL0     O82535  -2.372   7.483   2.527  0.9683 -0.7355  0.5738
  626MOL0     C82536  -2.348   7.601   2.602  0.7847  0.4087  0.4375
  626MOL0     C82537  -2.446   7.714   2.557 -0.4432 -0.1354 -0.3652
  626MOL0     C82538  -2.591   7.703   2.587 -0.0419 -0.4411  0.0164
  626MOL0     C82539  -2.629   7.729   2.735 -0.8383 -0.2890 -0.3447
  626MOL0     C82540  -2.781   7.756   2.745 -0.2358 -0.0091 -0.4414
  626MOL0     C82541  -2.820   7.801   2.885 -0.0467 -0.3539 -0.3957
  626MOL0     C82542  -2.967   7.842   2.905  0.0340  1.0054  0.0793
  626MOL0     C82543  -3.004   7.980   2.864  0.5866 -0.3102  0.0703
  626MOL0    Cl82544  -2.954   8.107   2.980  0.4650  0.3428 -0.1440
  626MOL0     C82545  -2.152   7.387   2.590  0.0907  0.0455  0.3533
  626MOL0     C82546  -2.053   7.284   2.563  0.0988 -0.7167  0.1490
  626MOL0     O82547  -1.863   7.185   2.288  0.7968  0.2157  0.2412
  626MOL0     C82548  -1.738   6.958   2.208 -0.7536  0.5261  0.8944
  626MOL0     C82549  -1.689   6.832   2.158  0.1294 -0.0082 -0.4553
  626MOL0     N82550  -1.223   6.701   2.323  0.7826 -0.4516 -0.7892
  626MOL0     N82551  -1.165   6.819   2.319  0.7391 -0.0624  0.9716
  626MOL0     C82552  -0.211   7.362   2.145  0.7595 -0.2102 -0.4442
  626MOL0     C82553  -0.083   7.414   2.160 -0.0033 -0.0168 -0.3233
  626MOL0     C82554   0.249   7.688   2.295 -0.5528  0.4735 -0.0472
  626MOL0     C82555   0.316   7.711   2.167 -0.1444  0.4657  0.4438
  626MOL0     C82556   0.455   7.749   2.165 -0.1503  0.3777  0.0439
  626MOL0     C82557   0.522   7.771   2.279 -0.5365 -0.3801 -0.6440
  626MOL0     O82558   0.659   7.793   2.257  0.4547  0.1285 -0.3505
  626MOL0     C82559   0.737   7.871   2.345 -0.1473  0.4010  0.1156
  626MOL0     C82560   0.847   7.933   2.263 -0.3500 -0.7234 -0.3891
  626MOL0     C82561   0.959   8.006   2.344  0.9259  0.9410  0.0338
  626MOL0     C82562   0.907   8.124   2.422  0.0426 -0.3824 -0.4542
  626MOL0     C82563   0.823   8.091   2.538  0.0830  0.6481 -0.1638
  626MOL0     C82564   0.762   8.054   2.636  1.0126 -0.0756  0.0986
  626MOL0     C82565   0.461   7.749   2.409 -0.7559  0.5626 -0.0781
  626MOL0     C82566   0.324   7.711   2.407 -0.2094  0.7973 -0.5340
  626MOL0     H82567  -0.139   7.732   2.183 -3.1322  1.6834 -1.0747
  626MOL0     H82568  -0.391   7.642   2.190  1.8224  1.1992  0.8454
  626MOL0     H82569  -0.541   7.519   2.046  0.3320  2.2376  0.5449
  626MOL0     H82570  -0.579   7.510   2.223 -2.5239 -2.8462  1.1631
  626MOL0     H82571  -0.759   7.451   2.096 -0.9917 -2.3402 -1.1003
  626MOL0     H82572  -0.719   7.321   2.197 -2.4274  3.9332  1.9076
  626MOL0     H82573  -0.620   7.193   1.988 -0.6148  0.2082  2.6231
  626MOL0     H82574  -0.638   7.350   1.901 -0.7821 -0.0573 -1.0507
  626MOL0     H82575  -0.887   7.336   1.946 -0.2219 -0.0369  2.2301
  626MOL0     H82576  -0.806   7.240   1.818 -3.2191  2.8055 -0.2371
  626MOL0     H82577  -0.804   7.087   2.061  1.1261 -0.0382 -2.7926
  626MOL0     H82578  -0.909   7.044   1.912 -0.0605 -1.6867  1.7172
  626MOL0     H82579  -1.075   7.213   1.963  0.7428  0.7046 -2.4647
  626MOL0     H82580  -1.024   7.214   2.133 -0.3385 -1.7848  0.8906
  626MOL0     H82581  -1.187   7.062   2.130 -0.5298 -2.7876  0.3296
  626MOL0     H82582  -1.136   6.980   1.989  1.9781 -0.8101 -1.6501
  626MOL0     H82583  -0.954   6.958   2.234  0.2966 -1.3407  0.2670
  626MOL0     H82584  -0.949   6.871   2.080 -0.1121  0.5479 -1.0434
  626MOL0     H82585  -1.082   6.662   2.039  0.8396  0.3144  0.5947
  626MOL0     H82586  -1.212   6.425   2.247  2.4336  1.1459 -0.4665
  626MOL0     H82587  -1.211   6.458   2.074 -2.2447 -2.7044 -0.1540
  626MOL0     H82588  -1.471   6.446   2.223  0.1850 -0.2793  0.1568
  626MOL0     H82589  -1.406   6.370   2.076  2.1264  0.4961  0.4815
  626MOL0     H82590  -1.439   6.675   2.075  2.7567 -0.7612  1.2209
  626MOL0     H82591  -1.445   6.558   1.941  0.0881  0.4680 -0.6935
  626MOL0     H82592  -1.627   6.447   2.027  0.8326 -0.0055 -2.2354
  626MOL0     H82593  -1.663   6.618   1.981  0.7250  1.5380  0.2180
  626MOL0     H82594  -1.828   6.635   2.392  1.4710 -1.2976 -1.1642
  626MOL0     H82595  -1.938   6.844   2.456  0.5278 -4.0594  0.2482
  626MOL0     H82596  -2.206   7.138   2.296 -1.0976 -1.2610 -0.0507
  626MOL0     H82597  -2.367   7.324   2.338  0.1361  0.6245 -0.4605
  626MOL0     H82598  -2.241   7.624   2.596  0.7374  0.3299 -1.6267
  626MOL0     H82599  -2.372   7.577   2.706  1.8627 -1.5573  0.2824
  626MOL0     H82600  -2.429   7.722   2.449  0.1328  1.2050 -0.1907
  626MOL0     H82601  -2.404   7.805   2.602 -2.8616  1.6562 -1.4772
  626MOL0     H82602  -2.637   7.610   2.553  0.0360  0.6354 -3.3460
  626MOL0     H82603  -2.627   7.792   2.534 -0.1182 -0.1343  0.5697
  626MOL0     H82604  -2.604   7.636   2.788 -1.1857 -0.0165  0.3136
  626MOL0     H82605  -2.571   7.812   2.775 -0.8025  0.4460 -1.8484
  626MOL0     H82606  -2.835   7.663   2.722  0.5948 -0.9186  1.0973
  626MOL0     H82607  -2.806   7.832   2.670  1.1437  0.0681 -0.8444
  626MOL0     H82608  -2.756   7.886   2.910  1.0924 -1.6662  1.3499
  626MOL0     H82609  -2.811   7.727   2.964 -2.1467  0.2247  0.4618
  626MOL0     H82610  -3.026   7.773   2.844  3.4190 -0.7712 -1.4911
  626MOL0     H82611  -2.989   7.820   3.010  3.4434 -4.1479  0.1241
  626MOL0     H82612  -3.111   8.000   2.847  0.3299 -1.7390 -0.1404
  626MOL0     H82613  -2.958   7.995   2.766  1.5907 -1.3417  0.3616
  626MOL0     H82614  -2.152   7.442   2.684  2.5160  0.0470  0.4323
  626MOL0     H82615  -1.970   7.258   2.628 -1.0082  0.2357  2.0467
  626MOL0     H82616  -1.705   7.048   2.156 -1.5283  0.6943  0.6850
  626MOL0     H82617  -1.629   6.829   2.068 -1.7052 -4.7036 -1.8442
  626MOL0     H82618  -0.220   7.255   2.131 -2.5182 -0.1113  0.1357
  626MOL0     H82619   0.001   7.346   2.153  1.1223  1.2817  0.1169
  626MOL0     H82620   0.265   7.691   2.074 -0.0585 -0.8153  0.6534
  626MOL0     H82621   0.502   7.763   2.068  2.6040  1.2360  1.3856
  626MOL0     H82622   0.775   7.801   2.420 -0.7984  0.8433  0.8667
  626MOL0     H82623   0.661   7.938   2.387 -1.7834  0.9629 -3.3188
  626MOL0     H82624   0.904   7.871   2.192  4.9666  2.6721  0.3331
  626MOL0     H82625   0.788   8.000   2.199 -0.5315 -0.8051 -0.3055
  626MOL0     H82626   1.034   8.042   2.273  1.4469  3.2419  1.6413
  626MOL0     H82627   1.008   7.931   2.407 -1.3084 -1.6153 -1.0766
  626MOL0     H82628   0.987   8.193   2.453 -2.4490  2.9417 -0.9341
  626MOL0     H82629   0.846   8.176   2.348 -3.0189 -0.7023  1.6421
  626MOL0     H82630   0.711   8.027   2.726 -2.4914 -0.2912 -1.8156
  626MOL0     H82631   0.521   7.774   2.496 -1.1428  1.7250 -0.1253
  626MOL0     H82632   0.290   7.700   2.510 -0.0433  0.7414 -0.4849
  627MOL0     O82633   0.922   9.679   4.725 -0.9029 -0.5886  0.1783
  627MOL0     C82634   1.006   9.648   4.637 -0.1226  0.4736 -0.4558
  627MOL0     O82635   0.988   9.626   4.498  0.6905 -0.6849 -0.4136
  627MOL0     C82636   0.851   9.638   4.454 -0.4893  0.5432 -0.5012
  627MOL0     C82637   0.744   9.554   4.505 -0.6593 -0.3314 -1.3617
  627MOL0     C82638   0.618   9.561   4.446 -0.6772  0.4319  0.5750
  627MOL0     C82639   0.592   9.666   4.359  0.5074  0.9063 -1.1249
  627MOL0     O82640   0.459   9.677   4.316 -0.0395 -0.5116  0.2626
  627MOL0     C82641   0.436   9.784   4.223 -0.6647  0.3132  0.3920
  627MOL0     C82642   0.293   9.804   4.218  0.3130 -0.0379 -0.0443
  627MOL0     C82643   0.205   9.698   4.157 -1.0835 -0.3258 -0.2033
  627MOL0     C82644   0.071   9.758   4.112  0.6996 -0.1058 -0.2136
  627MOL0     C82645  -0.024   9.633   4.103 -0.7605 -0.3261  0.8569
  627MOL0     C82646  -0.121   9.652   3.987  0.4048  0.6599 -0.5558
  627MOL0     C82647  -0.223   9.543   3.978  0.1995  0.0660 -0.8681
  627MOL0     C82648  -0.336   9.544   4.090 -0.5205  0.2178 -0.3348
  627MOL0     N82649  -0.404   9.676   4.101  0.2209 -0.3320 -0.0524
  627MOL0     C82650  -0.493   9.719   4.001 -0.0845  0.5998  0.0335
  627MOL0     C82651  -0.545   9.836   4.048 -0.7676  0.0514 -0.9716
  627MOL0     C82652  -0.656   9.924   3.988 -0.1749 -0.0352  0.3393
  627MOL0     C82653  -0.793   9.898   4.049  0.1600  0.1385  1.0480
  627MOL0     C82654  -0.840   9.751   4.023  0.2824  0.5078 -0.4285
  627MOL0     C82655  -0.815   9.656   4.140 -0.4227  0.2981  0.1519
  627MOL0     O82656  -0.803   9.515   4.101  0.0230 -0.5013 -0.0673
  627MOL0     C82657  -0.735   9.425   4.171  0.4246  0.4558  0.8753
  627MOL0     C82658  -0.721   9.302   4.098 -0.3628  1.0684  0.4851
  627MOL0     C82659  -0.642   9.200   4.150  0.0302  0.7944  0.0843
  627MOL0     C82660  -0.601   9.216   4.288 -0.1566  0.2045  0.0792
  627MOL0     C82661  -0.519   9.106   4.348  0.0431  0.0710 -1.0868
  627MOL0     O82662  -0.483   8.998   4.280 -0.2327 -0.6037  1.0252
  627MOL0     C82663  -0.426   8.894   4.339 -0.8004 -0.2433 -0.7092
  627MOL0     C82664  -0.479   8.771   4.306  0.5876  0.5006 -0.4408
  627MOL0     C82665  -0.407   8.660   4.347 -0.0270  0.1690  0.0009
  627MOL0     C82666  -0.288   8.661   4.419 -0.3398 -0.3186  0.4431
  627MOL0     O82667  -0.215   8.555   4.463  0.0565 -0.3588  0.1295
  627MOL0     C82668  -0.202   8.436   4.397  0.6183  0.3966  0.6664
  627MOL0     C82669  -0.299   8.333   4.450  0.0951  1.1730 -0.2858
  627MOL0     C82670  -0.297   8.198   4.374 -0.6818 -0.7705  0.2438
  627MOL0     C82671  -0.156   8.138   4.331  0.1795  0.4619 -0.9737
  627MOL0     C82672  -0.172   8.030   4.220 -0.6309  0.1196  0.7503
  627MOL0     C82673  -0.032   8.013   4.149 -0.4166  0.7001 -0.1805
  627MOL0     C82674  -0.023   7.900   4.045  0.6923  0.4255  0.3868
  627MOL0     C82675   0.105   7.878   3.972 -0.1536  0.4945  0.6682
  627MOL0    Cl82676   0.236   7.826   4.083 -0.3701  0.0651 -0.1184
  627MOL0     C82677  -0.240   8.790   4.458  0.7594 -0.4828  0.6772
  627MOL0     C82678  -0.310   8.905   4.416  0.3597  0.1467  0.5802
  627MOL0     O82679  -0.491   9.117   4.465 -0.2827  0.5296 -1.0333
  627MOL0     C82680  -0.618   9.333   4.354 -1.3501 -0.4544 -0.3388
  627MOL0     C82681  -0.694   9.443   4.299 -1.2584 -0.1378 -0.0320
  627MOL0     N82682  -0.477   9.863   4.167  0.5101 -0.9371 -0.4291
  627MOL0     N82683  -0.386   9.773   4.192  0.1453 -0.4877 -0.3506
  627MOL0     C82684   0.689   9.756   4.324 -1.2981 -0.6549  0.8696
  627MOL0     C82685   0.825   9.747   4.369  0.1665  0.6929  0.8587
  627MOL0     C82686   1.145   9.635   4.692  0.1969  0.2961 -0.0570
  627MOL0     C82687   1.175   9.713   4.803 -0.1295 -0.0808 -0.6398
  627MOL0     C82688   1.300   9.706   4.859 -0.4053  0.3680  0.1617
  627MOL0     C82689   1.396   9.617   4.807  0.4900 -0.7433  0.5262
  627MOL0     O82690   1.519   9.625   4.854  0.2760  0.4523 -0.7141
  627MOL0     C82691   1.542   9.523   4.960 -0.5498 -0.2308 -0.4438
  627MOL0     C82692   1.600   9.591   5.077  0.0707 -0.2366  0.8416
  627MOL0     C82693   1.747   9.613   5.051  0.2140 -0.6007  0.3423
  627MOL0     C82694   1.834   9.635   5.176 -0.5352  0.6181  1.2163
  627MOL0     C82695   1.978   9.684   5.150  0.3268 -0.0887  0.3505
  627MOL0     C82696   2.087   9.735   5.124  0.1024  0.3327 -0.2398
  627MOL0     C82697   1.372   9.538   4.695  0.0677 -0.8989 -0.6514
  627MOL0     C82698   1.233   9.549   4.634 -1.5596  0.4581  0.0153
  627MOL0     H82699   0.771   9.481   4.580  0.9353 -0.9139 -2.4554
  627MOL0     H82700   0.531   9.503   4.477  0.0819  0.1317  2.2255
  627MOL0     H82701   0.471   9.753   4.124  0.5945  2.9210 -0.0795
  627MOL0     H82702   0.481   9.877   4.260 -0.4365 -0.2837  1.6605
  627MOL0     H82703   0.264   9.899   4.172 -2.3259 -0.8474 -0.1943
  627MOL0     H82704   0.252   9.826   4.318 -1.0870  1.7763 -0.9510
  627MOL0     H82705   0.181   9.621   4.232 -0.1690 -0.4920 -0.0678
  627MOL0     H82706   0.258   9.639   4.082 -2.2325 -1.1426 -0.3976
  627MOL0     H82707   0.034   9.829   4.186  0.5758 -0.7317  0.3311
  627MOL0     H82708   0.084   9.809   4.016 -0.9409  1.7746  0.4961
  627MOL0     H82709  -0.084   9.634   4.194  0.5219 -0.8904  1.7420
  627MOL0     H82710   0.025   9.536   4.088 -0.0808  0.0080  0.8810
  627MOL0     H82711  -0.070   9.658   3.891  0.9484 -0.8994 -0.4021
  627MOL0     H82712  -0.177   9.742   4.013  2.2114  0.9178  3.1104
  627MOL0     H82713  -0.276   9.563   3.884  0.0925  0.2530 -0.7694
  627MOL0     H82714  -0.185   9.444   3.952 -2.7099 -1.3847 -0.0503
  627MOL0     H82715  -0.297   9.514   4.188 -2.2755 -0.8584  0.0930
  627MOL0     H82716  -0.405   9.463   4.067 -0.2050 -0.4498  0.9603
  627MOL0     H82717  -0.524   9.657   3.917  1.2441 -0.7594  0.5065
  627MOL0     H82718  -0.661   9.901   3.881  3.0149 -1.4704  0.3528
  627MOL0     H82719  -0.624  10.028   3.995  1.0320 -0.4758  2.1904
  627MOL0     H82720  -0.871   9.958   4.001 -1.9230 -2.9527  0.2910
  627MOL0     H82721  -0.791   9.926   4.155  0.4479 -0.9704  1.3563
  627MOL0     H82722  -0.948   9.753   4.010 -0.1076 -1.6348  1.6324
  627MOL0     H82723  -0.796   9.707   3.933  0.4101 -4.8915  1.8756
  627MOL0     H82724  -0.905   9.672   4.201 -2.4159  2.0588 -3.0137
  627MOL0     H82725  -0.725   9.689   4.193 -1.5509  2.3397  0.9251
  627MOL0     H82726  -0.771   9.290   4.003 -0.8482  0.0149  0.8656
  627MOL0     H82727  -0.624   9.105   4.100 -2.0666  0.9548 -1.1176
  627MOL0     H82728  -0.572   8.759   4.250  1.6437  0.3969 -2.2632
  627MOL0     H82729  -0.449   8.562   4.325  2.5258 -1.1312  0.5530
  627MOL0     H82730  -0.103   8.397   4.427  1.3832  1.7376 -0.0546
  627MOL0     H82731  -0.207   8.447   4.289  1.4163 -0.3595  0.5350
  627MOL0     H82732  -0.403   8.364   4.457  0.9227  4.0316  0.9821
  627MOL0     H82733  -0.272   8.299   4.550  0.6573  0.8852 -0.5298
  627MOL0     H82734  -0.371   8.218   4.296 -3.2723 -2.2286  2.1323
  627MOL0     H82735  -0.338   8.123   4.443  3.3157 -1.5713  1.9957
  627MOL0     H82736  -0.089   8.223   4.311  0.7669  0.5317  1.0947
  627MOL0     H82737  -0.113   8.091   4.419 -2.7599 -1.6602 -0.5215
  627MOL0     H82738  -0.241   8.054   4.139  1.6886 -1.8477 -2.0105
  627MOL0     H82739  -0.204   7.935   4.265  0.1034 -1.6569 -2.1927
  627MOL0     H82740   0.050   7.996   4.220  1.4181  0.7845 -2.1915
  627MOL0     H82741  -0.003   8.105   4.099 -0.1063  0.5783 -0.2305
  627MOL0     H82742  -0.050   7.806   4.095 -5.7950  0.4485 -2.0481
  627MOL0     H82743  -0.095   7.930   3.969  1.0817 -0.2419 -0.2518
  627MOL0     H82744   0.132   7.966   3.914 -0.9372  0.5593  0.3932
  627MOL0     H82745   0.089   7.801   3.896  1.2463  0.8147  0.0166
  627MOL0     H82746  -0.156   8.818   4.520 -0.1231  1.3457  1.1381
  627MOL0     H82747  -0.271   9.002   4.443  3.3903 -0.3656 -1.4345
  627MOL0     H82748  -0.592   9.338   4.459  0.8112  0.8454 -0.8678
  627MOL0     H82749  -0.712   9.541   4.343 -1.0904 -1.0076  2.0917
  627MOL0     H82750   0.676   9.852   4.274  1.8930 -0.8533 -0.5939
  627MOL0     H82751   0.883   9.833   4.338  0.2693 -0.9908 -4.7864
  627MOL0     H82752   1.090   9.770   4.839 -2.2448 -3.0839 -0.5105
  627MOL0     H82753   1.330   9.770   4.941 -2.1229 -0.2376  1.3148
  627MOL0     H82754   1.612   9.450   4.919  1.4585  2.0633 -1.3429
  627MOL0     H82755   1.453   9.466   4.991 -0.8346 -0.4306 -1.5888
  627MOL0     H82756   1.546   9.686   5.081 -0.4315 -0.4241 -0.8989
  627MOL0     H82757   1.581   9.525   5.162 -1.5029  0.4294  1.0359
  627MOL0     H82758   1.748   9.703   4.988  0.3238 -3.2146 -3.6903
  627MOL0     H82759   1.801   9.532   5.002  3.6011  1.8029 -0.2534
  627MOL0     H82760   1.785   9.705   5.244 -1.2549  0.2036  1.1334
  627MOL0     H82761   1.853   9.544   5.234  1.0649  2.0525  3.0902
  627MOL0     H82762   2.185   9.778   5.115  0.4468 -0.7161 -1.8993
  627MOL0     H82763   1.454   9.476   4.660 -1.9777 -3.6539 -0.9820
  627MOL0     H82764   1.217   9.487   4.547  1.3258  2.7294 -2.3678
  628MOL0     O82765   4.595   9.579   6.907  0.7143  0.4581 -0.6950
  628MOL0     C82766   4.478   9.572   6.928  0.8309  0.4493 -0.6744
  628MOL0     O82767   4.414   9.561   7.053 -0.1103  0.6788 -0.1103
  628MOL0     C82768   4.487   9.528   7.167 -0.8637  0.5082 -0.5304
  628MOL0     C82769   4.629   9.565   7.191  0.4221 -0.4251 -1.0682
  628MOL0     C82770   4.696   9.503   7.299  0.1676 -0.6058 -0.1746
  628MOL0     C82771   4.623   9.435   7.395  0.1367  0.8890 -0.2183
  628MOL0     O82772   4.660   9.392   7.516 -0.7029 -0.7813 -0.9353
  628MOL0     C82773   4.788   9.435   7.566 -0.5541  0.2863 -0.3088
  628MOL0     C82774   4.920   9.371   7.499  0.1625 -0.3477  0.2257
  628MOL0     C82775   4.948   9.231   7.550  0.0525 -0.4515  0.3239
  628MOL0     C82776   5.080   9.170   7.492 -0.4017  0.3503 -0.1678
  628MOL0     C82777   5.134   9.044   7.577 -0.6938 -0.5047  0.3842
  628MOL0     C82778   5.050   8.908   7.563 -1.6563  0.3848 -0.0778
  628MOL0     C82779   5.138   8.784   7.525 -1.2549 -0.7702 -0.3936
  628MOL0     C82780   5.243   8.756   7.634  0.2945 -0.4603  1.1093
  628MOL0     N82781   5.225   8.618   7.692 -0.3950 -0.3700  0.0935
  628MOL0     C82782   5.157   8.588   7.808  0.2942  0.0445 -0.4859
  628MOL0     C82783   5.211   8.471   7.844 -0.3174  0.6587 -1.1695
  628MOL0     C82784   5.181   8.395   7.974  1.0890  0.4630 -0.5892
  628MOL0     C82785   5.255   8.465   8.084 -0.2047  0.8488 -1.1658
  628MOL0     C82786   5.223   8.394   8.217 -0.3074  0.6945  0.0960
  628MOL0     C82787   5.082   8.391   8.265  0.5454  0.3077 -0.1002
  628MOL0     O82788   5.003   8.286   8.211  0.1503 -0.5641 -0.2010
  628MOL0     C82789   4.863   8.288   8.218  0.3128 -0.4114 -0.0905
  628MOL0     C82790   4.785   8.380   8.291 -0.1247 -0.4182  0.2189
  628MOL0     C82791   4.647   8.357   8.316 -1.2196 -0.3222  0.7204
  628MOL0     C82792   4.574   8.262   8.246 -0.3679 -1.0850 -0.4507
  628MOL0     C82793   4.424   8.253   8.272 -0.6863 -0.0968 -0.1660
  628MOL0     O82794   4.369   8.131   8.262 -0.5008 -0.1906 -0.1724
  628MOL0     C82795   4.238   8.109   8.280 -0.5732 -0.1119 -0.2408
  628MOL0     C82796   4.201   7.990   8.336  1.1041 -0.3837  0.5108
  628MOL0     C82797   4.067   7.954   8.356 -0.6116 -0.7108 -0.6570
  628MOL0     C82798   3.967   8.034   8.301 -0.1396  0.9655 -0.2212
  628MOL0     O82799   3.837   7.982   8.311 -0.2260 -0.5600 -0.6379
  628MOL0     C82800   3.730   8.050   8.250  0.3040 -0.1175 -0.1951
  628MOL0     C82801   3.595   7.973   8.287 -0.9491 -0.4720  0.7110
  628MOL0     C82802   3.468   8.031   8.211 -0.5206  0.7887 -0.8910
  628MOL0     C82803   3.331   8.014   8.270 -0.0351  0.1851 -0.4522
  628MOL0     C82804   3.299   8.078   8.405  0.9423  0.6363  0.1777
  628MOL0     C82805   3.153   8.054   8.465 -0.2848  0.4619  0.1216
  628MOL0     C82806   3.158   7.922   8.533  0.7240 -0.4050  0.1351
  628MOL0     C82807   3.068   7.819   8.456 -0.2407 -0.4620 -0.1623
  628MOL0    Cl82808   2.880   7.841   8.460  0.0031 -0.0677  0.1222
  628MOL0     C82809   3.997   8.165   8.252  0.4095  0.3840  0.1132
  628MOL0     C82810   4.130   8.197   8.243 -0.9084  0.5674 -0.7812
  628MOL0     O82811   4.372   8.350   8.330 -0.3641  0.1853  0.1508
  628MOL0     C82812   4.646   8.176   8.164 -1.0924 -0.1750 -0.8528
  628MOL0     C82813   4.789   8.179   8.159 -1.3989 -0.6884  0.2188
  628MOL0     N82814   5.293   8.429   7.740  0.3696 -0.5007 -0.2513
  628MOL0     N82815   5.308   8.516   7.657  0.6265 -0.3341 -0.1061
  628MOL0     C82816   4.484   9.414   7.376 -0.0591  0.4375 -0.4792
  628MOL0     C82817   4.424   9.453   7.261 -0.1182  0.6945 -0.1424
  628MOL0     C82818   4.381   9.576   6.813  0.1394  0.2784 -0.4976
  628MOL0     C82819   4.246   9.556   6.833 -0.7213 -0.1565  0.4897
  628MOL0     C82820   4.157   9.569   6.723 -0.5525 -0.4590 -0.8929
  628MOL0     C82821   4.201   9.586   6.590  0.3693  0.2488 -0.9665
  628MOL0     O82822   4.120   9.579   6.484 -0.2778  0.4714  0.2842
  628MOL0     C82823   4.172   9.601   6.353 -0.4048  0.4807  0.1270
  628MOL0     C82824   4.068   9.578   6.250  0.7696 -0.3713  0.2058
  628MOL0     C82825   4.134   9.568   6.112  0.6533  0.3480  0.0811
  628MOL0     C82826   4.180   9.424   6.087 -0.2991  1.1815  0.5956
  628MOL0     C82827   4.080   9.344   6.024 -0.1680  0.1765  0.3133
  628MOL0     C82828   3.997   9.263   5.991 -0.5583 -0.0049  0.0257
  628MOL0     C82829   4.334   9.609   6.579  0.0798  0.8018 -0.9092
  628MOL0     C82830   4.423   9.615   6.692  0.3701  0.4460  0.5977
  628MOL0     H82831   4.668   9.638   7.120  0.0312  0.0801 -0.7771
  628MOL0     H82832   4.801   9.530   7.309  0.2734 -0.8587 -0.5807
  628MOL0     H82833   4.783   9.425   7.675 -2.6951  1.8351 -0.2086
  628MOL0     H82834   4.786   9.544   7.567 -0.0659  0.4950  4.8197
  628MOL0     H82835   4.994   9.448   7.522 -1.5021  1.3432  0.1424
  628MOL0     H82836   4.921   9.359   7.391  0.5648 -1.9776  0.3842
  628MOL0     H82837   4.861   9.176   7.513  1.5428  0.3272 -5.3352
  628MOL0     H82838   4.949   9.221   7.659  0.7678 -1.4291  0.2361
  628MOL0     H82839   5.065   9.142   7.388  1.9151 -0.4345 -0.3427
  628MOL0     H82840   5.161   9.243   7.486  0.6209 -0.6302  1.0825
  628MOL0     H82841   5.151   9.073   7.681 -0.1081 -2.8028  0.9712
  628MOL0     H82842   5.234   9.033   7.534 -1.0468  1.4394 -1.0831
  628MOL0     H82843   4.982   8.910   7.477 -0.6909  0.7114 -0.8570
  628MOL0     H82844   4.999   8.883   7.656  1.7730 -2.4267  1.2954
  628MOL0     H82845   5.079   8.698   7.492 -0.1777 -2.9758  3.0350
  628MOL0     H82846   5.185   8.807   7.429  0.7455 -0.8135  0.5352
  628MOL0     H82847   5.250   8.837   7.707  0.9991  1.7833 -1.2792
  628MOL0     H82848   5.345   8.757   7.594  0.2786 -0.3599  1.0712
  628MOL0     H82849   5.079   8.648   7.855 -0.7845 -1.4959 -0.2318
  628MOL0     H82850   5.193   8.289   7.954 -2.2342 -0.2699  0.7118
  628MOL0     H82851   5.074   8.405   7.996  1.2341  1.4011 -0.2541
  628MOL0     H82852   5.234   8.572   8.088 -0.4606  0.7751 -0.3888
  628MOL0     H82853   5.361   8.466   8.058  0.5290  0.6550  1.5477
  628MOL0     H82854   5.264   8.294   8.233 -3.5945 -0.5721  1.4034
  628MOL0     H82855   5.272   8.451   8.297  0.3440 -0.0721  0.2568
  628MOL0     H82856   5.039   8.490   8.246 -0.2700  0.6471  2.9764
  628MOL0     H82857   5.091   8.379   8.373  1.3032 -0.4868 -0.2386
  628MOL0     H82858   4.839   8.453   8.350  1.0206 -1.5058  0.5645
  628MOL0     H82859   4.599   8.421   8.389 -1.1482 -1.7232  2.0343
  628MOL0     H82860   4.283   7.920   8.348  0.9509 -0.3659  1.8155
  628MOL0     H82861   4.051   7.850   8.384  0.5693 -1.4900 -2.6352
  628MOL0     H82862   3.744   8.039   8.142  1.5608  1.3826 -0.2153
  628MOL0     H82863   3.715   8.156   8.272 -3.7446 -0.8294  1.3994
  628MOL0     H82864   3.581   7.978   8.395 -0.6784  0.7228  0.7060
  628MOL0     H82865   3.609   7.866   8.265 -4.0480 -0.3460 -3.1729
  628MOL0     H82866   3.461   7.982   8.114 -2.1665 -0.1961 -0.3102
  628MOL0     H82867   3.495   8.137   8.220 -0.0856  0.6657 -0.7409
  628MOL0     H82868   3.255   8.044   8.198  1.2036  0.6588 -1.5973
  628MOL0     H82869   3.313   7.906   8.278 -1.2757  0.3954 -0.1456
  628MOL0     H82870   3.305   8.187   8.399  0.6181  0.6314 -0.3878
  628MOL0     H82871   3.374   8.039   8.474  2.4356  0.7536 -1.3044
  628MOL0     H82872   3.075   8.064   8.390 -1.4822 -2.6016  0.8088
  628MOL0     H82873   3.137   8.130   8.541  2.5650  0.7256  0.5861
  628MOL0     H82874   3.257   7.876   8.526  0.9927  0.0833  0.6227
  628MOL0     H82875   3.134   7.923   8.640 -0.6399 -2.0246 -0.1212
  628MOL0     H82876   3.087   7.721   8.500  1.8013 -0.3911 -0.7620
  628MOL0     H82877   3.102   7.825   8.352  1.1452 -0.2023  0.2894
  628MOL0     H82878   3.917   8.234   8.226  1.2460  2.1036  1.8470
  628MOL0     H82879   4.156   8.294   8.200  1.7647  0.2541 -0.0984
  628MOL0     H82880   4.580   8.106   8.115  3.1626 -3.1322 -3.0747
  628MOL0     H82881   4.857   8.116   8.103  0.5960 -0.9027  2.7215
  628MOL0     H82882   4.426   9.357   7.448 -0.0139  2.3927  1.1693
  628MOL0     H82883   4.324   9.420   7.236  0.7881 -0.5540 -2.3433
  628MOL0     H82884   4.219   9.533   6.936 -1.3704  0.6598  0.5144
  628MOL0     H82885   4.050   9.558   6.730 -0.5041 -0.2626  0.2855
  628MOL0     H82886   4.261   9.540   6.336  1.5125  3.3323 -0.8585
  628MOL0     H82887   4.195   9.707   6.338 -0.3195  0.4161 -0.2086
  628MOL0     H82888   4.020   9.480   6.260  2.1054 -0.8280  2.8012
  628MOL0     H82889   3.996   9.660   6.250 -0.3626 -1.3165 -0.7134
  628MOL0     H82890   4.221   9.633   6.104  1.9333 -1.3475 -0.3420
  628MOL0     H82891   4.070   9.610   6.034 -1.1850  2.0613  2.3617
  628MOL0     H82892   4.263   9.432   6.017  0.1667 -1.8962  0.6906
  628MOL0     H82893   4.203   9.369   6.178 -0.4456 -2.5660 -1.4387
  628MOL0     H82894   3.929   9.188   5.954 -1.6725  0.6733  0.6266
  628MOL0     H82895   4.380   9.634   6.484 -2.2820  2.9703 -1.5834
  628MOL0     H82896   4.530   9.629   6.675  0.5978 -0.7453  0.9385
  629MOL0     O82897   2.206  10.170  11.077  0.6739  1.2110  0.0339
  629MOL0     C82898   2.189  10.230  11.185  0.1894 -0.1162 -0.2171
  629MOL0     O82899   2.290  10.271  11.267 -0.2685 -0.3610  0.8054
  629MOL0     C82900   2.426  10.238  11.235  0.1733  0.1731 -1.2939
  629MOL0     C82901   2.505  10.193  11.349 -1.3251  0.2277 -0.5849
  629MOL0     C82902   2.641  10.175  11.332 -0.2208 -0.7619  0.0757
  629MOL0     C82903   2.695  10.185  11.203  0.0778 -0.7074 -0.0211
  629MOL0     O82904   2.824  10.162  11.188  0.1870 -0.2965 -0.4278
  629MOL0     C82905   2.861  10.027  11.190 -0.1279  0.0524  0.0622
  629MOL0     C82906   2.949   9.995  11.062  0.2170 -0.3807  0.2362
  629MOL0     C82907   3.091  10.051  11.068 -0.6634 -0.2924  0.0312
  629MOL0     C82908   3.091  10.206  11.107  0.4617 -0.0062 -0.2924
  629MOL0     C82909   3.222  10.286  11.064 -0.5572 -0.6050 -0.1561
  629MOL0     C82910   3.242  10.312  10.915  0.3735 -1.1332 -0.0751
  629MOL0     C82911   3.392  10.320  10.885  0.7898  1.0340 -0.5494
  629MOL0     C82912   3.456  10.187  10.868 -0.1691  0.6194  0.2386
  629MOL0     N82913   3.395  10.110  10.762 -0.2170  0.3819 -0.1298
  629MOL0     C82914   3.400  10.129  10.624 -0.4455 -0.0627 -0.4115
  629MOL0     C82915   3.376  10.003  10.577  0.4496 -0.1141 -0.5520
  629MOL0     C82916   3.386   9.958  10.442 -1.2989  0.5868  0.8314
  629MOL0     C82917   3.511  10.010  10.369 -0.0968 -0.7265  0.6031
  629MOL0     C82918   3.628   9.983  10.462 -0.3092 -0.4105  0.5732
  629MOL0     C82919   3.758   9.992  10.390  0.2324  0.4103 -0.1862
  629MOL0     O82920   3.850   9.915  10.472  1.1179  0.3780 -0.1224
  629MOL0     C82921   3.985   9.933  10.459  0.3869 -0.3070 -0.1835
  629MOL0     C82922   4.050  10.028  10.375 -0.0230 -0.0887  0.6527
  629MOL0     C82923   4.185  10.011  10.333  0.9648 -0.3918 -1.0468
  629MOL0     C82924   4.260   9.903  10.383  0.3833 -0.0690  0.0173
  629MOL0     C82925   4.405   9.893  10.360 -0.3655 -0.0741  0.3256
  629MOL0     O82926   4.476   9.996  10.292  0.1158  0.1275 -0.0756
  629MOL0     C82927   4.605   9.960  10.275 -0.2871 -0.4804  0.9927
  629MOL0     C82928   4.711  10.032  10.338  0.0886  0.7794 -0.1455
  629MOL0     C82929   4.837  10.019  10.292 -0.3134 -0.2950  0.5792
  629MOL0     C82930   4.864   9.920  10.200 -0.4763  0.0922 -0.1161
  629MOL0     O82931   4.995   9.891  10.173  0.2608 -0.7034  0.4970
  629MOL0     C82932   5.028   9.749  10.186  1.0499 -0.3755  0.2282
  629MOL0     C82933   5.083   9.694  10.057  0.3183  0.1679  0.0037
  629MOL0     C82934   5.176   9.788   9.975  1.5553 -0.0715  1.1771
  629MOL0     C82935   5.209   9.741   9.829 -0.1482 -0.4349 -0.7111
  629MOL0     C82936   5.312   9.626   9.832 -0.7331 -0.6634  0.1085
  629MOL0     C82937   5.327   9.542   9.702  0.5775 -0.8000  0.1024
  629MOL0     C82938   5.370   9.615   9.570  0.3204 -0.0130 -0.5560
  629MOL0     C82939   5.261   9.602   9.469  0.5696  0.3599 -0.2067
  629MOL0    Cl82940   5.095   9.645   9.514  0.1514 -0.1444 -0.0425
  629MOL0     C82941   4.764   9.847  10.134 -0.3406 -0.1617 -0.4222
  629MOL0     C82942   4.633   9.878  10.165 -0.8823 -0.6089  0.3485
  629MOL0     O82943   4.454   9.786  10.395  0.1977  0.4100  0.5306
  629MOL0     C82944   4.203   9.818  10.482  0.6265 -0.6886  0.0608
  629MOL0     C82945   4.065   9.836  10.512 -0.2743  0.3813 -0.8246
  629MOL0     N82946   3.357   9.919  10.685  0.3151 -0.9034 -0.6029
  629MOL0     N82947   3.360   9.983  10.798 -0.6395 -0.5500  0.0915
  629MOL0     C82948   2.630  10.233  11.089  0.6898  0.3176 -0.1612
  629MOL0     C82949   2.498  10.279  11.117  0.1495 -0.0330  0.5746
  629MOL0     C82950   2.053  10.301  11.210 -1.3455  0.5902 -0.1733
  629MOL0     C82951   2.027  10.388  11.311 -0.4502 -0.0646 -0.1201
  629MOL0     C82952   1.913  10.470  11.309 -0.3248  0.8766  0.2723
  629MOL0     C82953   1.815  10.458  11.217  0.1971  1.6759 -0.3143
  629MOL0     O82954   1.709  10.534  11.206  0.7415  0.4764  0.1531
  629MOL0     C82955   1.713  10.667  11.256 -0.1528  0.2039  0.3652
  629MOL0     C82956   1.616  10.758  11.176  0.4790 -1.3137  0.2927
  629MOL0     C82957   1.636  10.909  11.203  0.1049  0.7179  0.5244
  629MOL0     C82958   1.509  10.995  11.147  0.3550  0.5365  1.3142
  629MOL0     C82959   1.509  11.023  11.000 -0.3802 -0.9198  0.2327
  629MOL0     C82960   1.508  11.054  10.883 -0.2357  0.0717  0.6041
  629MOL0     C82961   1.838  10.353  11.125  0.0462 -0.4622  0.4613
  629MOL0     C82962   1.957  10.281  11.120  1.4827 -0.2516  0.6139
  629MOL0     H82963   2.472  10.168  11.449  0.3594 -1.6435 -0.4278
  629MOL0     H82964   2.699  10.138  11.416 -0.5299  0.6626  0.9455
  629MOL0     H82965   2.767   9.977  11.166 -1.0641 -0.2258  3.6649
  629MOL0     H82966   2.897   9.990  11.287  0.1078  1.1888  0.4157
  629MOL0     H82967   2.896  10.041  10.978 -1.5365 -1.5191  0.6618
  629MOL0     H82968   2.935   9.890  11.036 -0.5996  0.0011 -0.9786
  629MOL0     H82969   3.152  10.035  10.979  4.6742  2.5837  2.6746
  629MOL0     H82970   3.132   9.994  11.152 -2.3368 -2.7220 -0.6925
  629MOL0     H82971   3.003  10.253  11.062  0.9667  0.6583 -0.6002
  629MOL0     H82972   3.080  10.224  11.215 -0.3102 -1.6520 -0.0595
  629MOL0     H82973   3.303  10.226  11.107  0.4012  1.4821  1.1322
  629MOL0     H82974   3.212  10.385  11.110 -2.5083 -1.4719  1.4352
  629MOL0     H82975   3.193  10.406  10.891 -2.1626 -1.3798  3.3386
  629MOL0     H82976   3.184  10.236  10.862 -0.3890 -0.5343 -0.1153
  629MOL0     H82977   3.385  10.365  10.786 -0.0128  0.3769 -0.8021
  629MOL0     H82978   3.456  10.383  10.948  2.7377 -0.3280 -1.0517
  629MOL0     H82979   3.450  10.131  10.963  2.1860 -1.1341 -0.5331
  629MOL0     H82980   3.563  10.192  10.843  0.4533 -3.5300  1.2835
  629MOL0     H82981   3.433  10.209  10.558  0.6067 -1.6111 -1.8447
  629MOL0     H82982   3.294   9.985  10.390 -1.8812 -0.0520  1.5236
  629MOL0     H82983   3.403   9.850  10.439 -1.2751  0.6044 -1.2736
  629MOL0     H82984   3.506  10.118  10.349  3.8048 -0.8517 -2.1731
  629MOL0     H82985   3.524   9.967  10.269  0.6008 -1.1809  0.8832
  629MOL0     H82986   3.640  10.062  10.537  1.0149  0.3505 -0.3931
  629MOL0     H82987   3.620   9.891  10.521  1.3343  0.7246  2.7178
  629MOL0     H82988   3.791  10.095  10.374 -3.6748  1.7240 -0.7557
  629MOL0     H82989   3.759   9.941  10.294  3.1160 -1.1476  0.5502
  629MOL0     H82990   3.991  10.099  10.318 -1.2035 -3.1598 -2.2595
  629MOL0     H82991   4.235  10.078  10.264 -0.8582  2.0673 -0.0884
  629MOL0     H82992   4.686  10.083  10.431  3.1446  0.7610  0.8003
  629MOL0     H82993   4.929  10.069  10.322 -0.2706  0.3006 -0.5038
  629MOL0     H82994   4.942   9.688  10.214  1.6784 -1.2910  0.2084
  629MOL0     H82995   5.098   9.749  10.270  1.7010  2.2979 -0.2157
  629MOL0     H82996   5.005   9.675   9.983  0.6001  0.5946 -0.4046
  629MOL0     H82997   5.136   9.601  10.076 -0.2342 -0.6762 -2.2913
  629MOL0     H82998   5.266   9.813  10.032  0.3487  1.0919  2.6564
  629MOL0     H82999   5.113   9.873   9.951 -2.2860 -2.4200  2.1313
  629MOL0     H83000   5.117   9.705   9.781 -0.2737  0.1658 -0.9365
  629MOL0     H83001   5.245   9.817   9.759  2.3843 -2.5482 -1.8970
  629MOL0     H83002   5.298   9.549   9.909 -0.9395 -0.9112 -0.1738
  629MOL0     H83003   5.410   9.668   9.856  0.3301 -0.9717 -3.2298
  629MOL0     H83004   5.233   9.492   9.677  1.1519 -0.5375 -2.9394
  629MOL0     H83005   5.404   9.472   9.738  0.0833 -0.7541  1.3018
  629MOL0     H83006   5.393   9.720   9.589  0.0842 -0.1643  0.6659
  629MOL0     H83007   5.465   9.572   9.536  0.3923 -0.4312  0.1556
  629MOL0     H83008   5.268   9.501   9.428  4.0087 -0.2375  1.4612
  629MOL0     H83009   5.272   9.661   9.378  1.8361  0.1406 -0.2142
  629MOL0     H83010   4.779   9.767  10.062 -0.1831  1.4638 -2.2996
  629MOL0     H83011   4.558   9.816  10.116 -0.0828 -1.7344  0.5228
  629MOL0     H83012   4.249   9.730  10.525  0.3059 -0.2198  1.4058
  629MOL0     H83013   4.015   9.759  10.570 -2.4281 -0.7225 -3.8602
  629MOL0     H83014   2.677  10.246  10.992 -0.3226 -0.3483 -0.7560
  629MOL0     H83015   2.438  10.313  11.033  2.0648 -2.0789 -1.7843
  629MOL0     H83016   2.099  10.421  11.386 -1.4485  1.8186  0.0873
  629MOL0     H83017   1.925  10.549  11.383 -3.3359  2.4487 -0.7753
  629MOL0     H83018   1.812  10.711  11.241 -0.8612  2.2085  1.2531
  629MOL0     H83019   1.691  10.658  11.362 -0.5034  0.8906  0.3509
  629MOL0     H83020   1.604  10.735  11.070 -0.6555  0.2246  0.0547
  629MOL0     H83021   1.519  10.732  11.222 -0.3225  3.7993  2.1469
  629MOL0     H83022   1.740  10.935  11.181  1.1897 -3.1929  0.3404
  629MOL0     H83023   1.634  10.916  11.312 -0.0503  1.4029  0.4817
  629MOL0     H83024   1.421  10.932  11.167 -1.0077  1.7305 -0.6194
  629MOL0     H83025   1.492  11.085  11.206 -1.0825  1.3498 -0.2631
  629MOL0     H83026   1.503  11.062  10.776 -1.9967 -1.1111  0.5602
  629MOL0     H83027   1.764  10.328  11.049 -1.4767 -1.8023  2.2948
  629MOL0     H83028   1.974  10.229  11.027  1.6616  1.1647 -0.1688
  630MOL0     O83029   6.049   5.747   2.458  0.9282 -0.2783 -0.8749
  630MOL0     C83030   5.947   5.726   2.525 -0.1424 -0.4512 -0.4575
  630MOL0     O83031   5.939   5.646   2.644  0.8207  0.1417  1.0442
  630MOL0     C83032   6.026   5.545   2.655 -0.0030  0.1867  0.3104
  630MOL0     C83033   6.113   5.489   2.568  0.1945 -1.3958 -0.3467
  630MOL0     C83034   6.201   5.377   2.607 -0.1303 -0.4045 -0.1957
  630MOL0     C83035   6.208   5.351   2.744 -0.6422 -0.7626 -0.3855
  630MOL0     O83036   6.300   5.254   2.780  0.1226  0.1863  0.3665
  630MOL0     C83037   6.242   5.119   2.775 -0.6021  0.4233  0.3079
  630MOL0     C83038   6.344   5.013   2.773 -0.1127 -0.3652 -0.4367
  630MOL0     C83039   6.272   4.879   2.783  1.2208 -0.7980  1.1509
  630MOL0     C83040   6.359   4.757   2.765  0.1220  0.1733  0.5875
  630MOL0     C83041   6.496   4.752   2.839 -0.1861  0.2623  0.0121
  630MOL0     C83042   6.556   4.608   2.821  0.4626 -0.4731  0.2243
  630MOL0     C83043   6.691   4.591   2.878 -0.2327  0.1127 -0.2043
  630MOL0     C83044   6.747   4.453   2.876 -0.0512 -0.0062 -0.4499
  630MOL0     N83045   6.877   4.457   2.961  0.1379  0.8234  0.0590
  630MOL0     C83046   7.000   4.484   2.899 -0.1486  0.4915 -0.8578
  630MOL0     C83047   7.091   4.453   3.001 -0.8054  0.2959 -0.7112
  630MOL0     C83048   7.243   4.481   2.991  0.4002  0.3847  0.2211
  630MOL0     C83049   7.293   4.400   2.868  0.6162 -0.0180 -0.7091
  630MOL0     C83050   7.441   4.436   2.827 -0.2890  0.3577 -0.0030
  630MOL0     C83051   7.546   4.397   2.940  0.1457  0.6803  0.1988
  630MOL0     O83052   7.606   4.512   2.993  0.5225 -0.3628 -0.0776
  630MOL0     C83053   7.682   4.497   3.104  0.4790 -0.9813 -0.8220
  630MOL0     C83054   7.744   4.617   3.132  0.5627  0.6704  0.1672
  630MOL0     C83055   7.821   4.626   3.246 -0.5900  0.4193 -0.0916
  630MOL0     C83056   7.851   4.515   3.326  0.2572 -0.3414 -0.1888
  630MOL0     C83057   7.936   4.538   3.447 -0.3758 -0.3611  0.6718
  630MOL0     O83058   7.955   4.423   3.518  0.6267  0.7603 -0.5001
  630MOL0     C83059   8.033   4.431   3.634 -0.9906 -0.5430  0.0648
  630MOL0     C83060   8.000   4.524   3.738 -0.2419 -0.8012 -0.9193
  630MOL0     C83061   8.087   4.546   3.844 -0.1189  0.0023 -0.1284
  630MOL0     C83062   8.203   4.475   3.851 -0.0944  0.2168 -0.0539
  630MOL0     O83063   8.297   4.490   3.957 -0.3587  0.2082  0.1138
  630MOL0     C83064   8.264   4.561   4.078  0.0356 -0.6321 -0.0518
  630MOL0     C83065   8.403   4.594   4.134 -0.5820 -0.6635 -0.6156
  630MOL0     C83066   8.473   4.484   4.191 -0.5759  0.5166 -0.3789
  630MOL0     C83067   8.579   4.523   4.297 -0.1151 -0.0053 -0.5190
  630MOL0     C83068   8.617   4.401   4.381 -0.6939 -0.7560  0.1125
  630MOL0     C83069   8.682   4.441   4.508 -0.5368  1.0367  0.2588
  630MOL0     C83070   8.712   4.323   4.602  0.4381  0.0295  0.6364
  630MOL0     C83071   8.746   4.366   4.743 -0.4570  0.6662  0.7390
  630MOL0    Cl83072   8.608   4.438   4.818  0.1604 -0.1203  0.1251
  630MOL0     C83073   8.242   4.385   3.747 -0.4978 -0.2421 -0.8360
  630MOL0     C83074   8.151   4.361   3.639 -0.2279 -0.2461  0.1116
  630MOL0     O83075   7.997   4.651   3.471 -0.0446  0.1998 -0.4995
  630MOL0     C83076   7.788   4.391   3.297 -0.4266 -0.5902  0.4660
  630MOL0     C83077   7.698   4.382   3.186 -0.0229  0.2212 -1.3794
  630MOL0     N83078   7.026   4.417   3.121  0.3003 -0.5004  0.2985
  630MOL0     N83079   6.899   4.412   3.091 -0.0973  0.3177  0.6217
  630MOL0     C83080   6.126   5.421   2.834  0.2178  0.7429 -0.5220
  630MOL0     C83081   6.037   5.510   2.784  0.2469 -0.0451  0.3685
  630MOL0     C83082   5.831   5.804   2.480  0.6125  0.8295 -1.1048
  630MOL0     C83083   5.839   5.903   2.381  0.7413 -0.0651  0.3232
  630MOL0     C83084   5.731   5.973   2.342 -0.0632  0.3928 -0.0662
  630MOL0     C83085   5.602   5.953   2.406  0.3228 -0.8947 -0.2155
  630MOL0     O83086   5.496   6.036   2.363  0.4231  0.4337 -0.6226
  630MOL0     C83087   5.375   6.064   2.440 -0.8288 -0.0801  0.5281
  630MOL0     C83088   5.264   5.969   2.395  0.1093  0.4528 -0.6013
  630MOL0     C83089   5.132   6.000   2.466  0.3918 -0.7925 -0.5312
  630MOL0     C83090   5.021   5.906   2.454  0.3837  0.2621  0.3743
  630MOL0     C83091   4.976   5.876   2.315 -0.4736  0.2767  0.1196
  630MOL0     C83092   4.933   5.843   2.207 -0.2318 -0.4572  0.4348
  630MOL0     C83093   5.591   5.865   2.511 -0.0662  0.3981 -0.1672
  630MOL0     C83094   5.701   5.778   2.542 -0.1835 -0.7200 -0.3924
  630MOL0     H83095   6.112   5.513   2.462 -0.8897  1.0837  0.1561
  630MOL0     H83096   6.274   5.333   2.540  3.5317  3.5640  0.7411
  630MOL0     H83097   6.170   5.108   2.693  0.1993  1.7929 -0.6132
  630MOL0     H83098   6.191   5.101   2.870  0.9865 -1.2035  0.9141
  630MOL0     H83099   6.415   5.011   2.857  0.1595  1.2117 -0.6051
  630MOL0     H83100   6.396   5.024   2.678 -0.2383  1.1443 -0.3532
  630MOL0     H83101   6.185   4.868   2.717  2.7179  0.4823 -1.1672
  630MOL0     H83102   6.237   4.890   2.886  1.0072 -1.1576  1.1173
  630MOL0     H83103   6.308   4.664   2.790  4.4905 -2.0560  2.4588
  630MOL0     H83104   6.385   4.751   2.659  0.8470 -1.4320  0.8261
  630MOL0     H83105   6.488   4.784   2.943  2.2318  2.7209 -0.4525
  630MOL0     H83106   6.562   4.821   2.786 -1.3421 -0.8183 -3.0642
  630MOL0     H83107   6.548   4.569   2.719 -2.7026 -0.2630  0.2924
  630MOL0     H83108   6.488   4.544   2.879  0.5854 -1.7182 -0.9482
  630MOL0     H83109   6.759   4.659   2.826  1.8338 -2.3233 -0.9485
  630MOL0     H83110   6.671   4.620   2.981 -0.7810 -0.5642 -0.1082
  630MOL0     H83111   6.771   4.418   2.775  1.4800 -0.3244 -0.0121
  630MOL0     H83112   6.676   4.382   2.919 -1.8751  1.4074 -1.0147
  630MOL0     H83113   7.013   4.528   2.801 -0.2929 -1.1082 -1.6280
  630MOL0     H83114   7.277   4.444   3.089 -0.4296  0.4132  0.5256
  630MOL0     H83115   7.261   4.589   2.987 -0.1260  0.4232 -2.8621
  630MOL0     H83116   7.219   4.414   2.789 -3.0859 -3.4646  1.7880
  630MOL0     H83117   7.297   4.294   2.897  6.1666  0.6446  2.4895
  630MOL0     H83118   7.456   4.399   2.725  0.0975  1.2874 -0.2963
  630MOL0     H83119   7.446   4.544   2.813  1.7933  0.3858  0.6682
  630MOL0     H83120   7.616   4.318   2.910  0.9046  1.0755  0.8777
  630MOL0     H83121   7.482   4.358   3.020  0.6238 -1.2982 -0.3338
  630MOL0     H83122   7.735   4.703   3.066  0.7472  2.3473  2.2033
  630MOL0     H83123   7.859   4.723   3.277  0.2325  0.7143 -1.8929
  630MOL0     H83124   7.906   4.579   3.740 -0.7960 -1.7275 -0.6976
  630MOL0     H83125   8.065   4.619   3.921  1.4864 -0.8888  1.2459
  630MOL0     H83126   8.205   4.499   4.146 -2.0330  0.2055 -0.9961
  630MOL0     H83127   8.212   4.653   4.050  0.3465  0.2580  2.1814
  630MOL0     H83128   8.404   4.667   4.216  0.4507 -1.2551 -0.0884
  630MOL0     H83129   8.463   4.643   4.056  0.8292 -0.2962  0.6424
  630MOL0     H83130   8.531   4.424   4.120  2.7666  2.3362  0.5969
  630MOL0     H83131   8.398   4.417   4.235  0.5612 -0.5238  0.0492
  630MOL0     H83132   8.674   4.569   4.268  1.8392 -3.4470 -0.1749
  630MOL0     H83133   8.524   4.595   4.358 -0.6020 -0.2057 -0.7102
  630MOL0     H83134   8.679   4.337   4.317  1.5275  1.5889 -0.2329
  630MOL0     H83135   8.526   4.350   4.415 -1.4106  1.3249  1.4618
  630MOL0     H83136   8.610   4.504   4.560  0.7098  1.9373  0.9256
  630MOL0     H83137   8.776   4.495   4.493 -1.2447  2.3389  0.4079
  630MOL0     H83138   8.627   4.256   4.617 -0.8155  0.8870 -2.0942
  630MOL0     H83139   8.789   4.254   4.568  0.5059 -0.3377  1.5193
  630MOL0     H83140   8.814   4.452   4.740 -2.5607  2.6164  3.5759
  630MOL0     H83141   8.796   4.295   4.808  1.1235  0.9991 -0.0689
  630MOL0     H83142   8.336   4.332   3.755  0.0503  0.8050 -0.1509
  630MOL0     H83143   8.177   4.295   3.557  1.2349  0.5989 -0.1439
  630MOL0     H83144   7.807   4.306   3.361 -4.1775 -2.1762 -0.2425
  630MOL0     H83145   7.632   4.299   3.162  1.0499 -0.4755 -1.9654
  630MOL0     H83146   6.134   5.406   2.941  2.3535 -0.0790 -0.7408
  630MOL0     H83147   5.975   5.556   2.860  2.7794  1.1776  1.7841
  630MOL0     H83148   5.936   5.920   2.334  0.8676 -1.2532  0.1326
  630MOL0     H83149   5.758   6.047   2.267 -2.2307  1.8120  0.4802
  630MOL0     H83150   5.334   6.163   2.418  1.8227  1.0946  0.5074
  630MOL0     H83151   5.397   6.069   2.547  1.4851 -0.0917  0.1012
  630MOL0     H83152   5.254   5.977   2.287  0.3354 -1.0826 -0.7578
  630MOL0     H83153   5.306   5.871   2.423  0.8561  0.8292 -0.3808
  630MOL0     H83154   5.091   6.090   2.419  0.5052 -0.3642  0.1719
  630MOL0     H83155   5.152   6.023   2.571  0.9892  1.7610 -1.1240
  630MOL0     H83156   5.036   5.818   2.518 -0.7887  2.4853  3.9790
  630MOL0     H83157   4.936   5.957   2.501  0.1786 -0.7335  1.1313
  630MOL0     H83158   4.906   5.811   2.108 -0.0896  0.4285  0.1018
  630MOL0     H83159   5.492   5.851   2.554 -1.4911  1.6956 -2.8001
  630MOL0     H83160   5.688   5.707   2.623  1.2342 -1.6327 -0.9240
  631MOL0     O83161   1.725   5.892   7.850  0.5712  0.1723 -0.1600
  631MOL0     C83162   1.717   5.938   7.734 -0.4523  0.4048  0.4796
  631MOL0     O83163   1.599   5.964   7.659  0.0257 -0.5163 -0.4058
  631MOL0     C83164   1.479   5.911   7.690  1.3504 -0.1709 -0.5934
  631MOL0     C83165   1.388   5.902   7.586 -0.4354  0.2685 -1.1197
  631MOL0     C83166   1.267   5.840   7.606 -0.3675  0.0744  0.0536
  631MOL0     C83167   1.231   5.778   7.733 -0.7819  1.6569 -0.5228
  631MOL0     O83168   1.098   5.731   7.748  0.3967 -0.5964  0.0125
  631MOL0     C83169   1.061   5.681   7.875 -0.2808 -0.0691  0.3119
  631MOL0     C83170   0.911   5.647   7.869 -0.1442 -0.0110  0.3240
  631MOL0     C83171   0.871   5.580   7.994  0.3560 -0.7088  0.8664
  631MOL0     C83172   0.727   5.534   8.009 -0.1913 -0.0531 -0.0114
  631MOL0     C83173   0.636   5.654   8.023 -0.3842 -0.5848  0.1300
  631MOL0     C83174   0.493   5.604   8.037  0.5119  0.4497  0.2925
  631MOL0     C83175   0.391   5.717   8.046 -0.0946 -0.9979 -0.2766
  631MOL0     C83176   0.441   5.819   8.149  1.0257  0.3915 -0.1277
  631MOL0     N83177   0.325   5.910   8.167 -0.9520 -0.2105 -0.3139
  631MOL0     C83178   0.278   6.013   8.075 -0.7295 -0.4148 -1.0177
  631MOL0     C83179   0.184   6.076   8.142 -0.2711  0.1454  0.3329
  631MOL0     C83180   0.116   6.199   8.106 -0.2678  0.1174 -0.1305
  631MOL0     C83181  -0.036   6.203   8.163 -0.7074  0.5122 -0.3701
  631MOL0     C83182  -0.112   6.338   8.139 -0.5359 -0.5335  0.6273
  631MOL0     C83183  -0.265   6.326   8.137 -0.2455 -0.3962 -0.6821
  631MOL0     O83184  -0.306   6.259   8.260  0.0516 -0.5133 -0.3831
  631MOL0     C83185  -0.411   6.172   8.253 -0.2211  0.4379 -0.1366
  631MOL0     C83186  -0.541   6.209   8.242 -0.9960 -0.0338  0.9490
  631MOL0     C83187  -0.643   6.114   8.225  0.7107 -0.1807  0.6324
  631MOL0     C83188  -0.614   5.972   8.234 -1.0344 -0.6528  0.0449
  631MOL0     C83189  -0.702   5.863   8.184 -0.3138  0.3164  0.8693
  631MOL0     O83190  -0.641   5.744   8.147 -0.7866 -0.1093 -0.7088
  631MOL0     C83191  -0.694   5.649   8.056  0.2559  0.1979  0.1674
  631MOL0     C83192  -0.636   5.626   7.939 -0.7557  0.7405  0.3623
  631MOL0     C83193  -0.683   5.544   7.845  1.4008  0.2807  0.7832
  631MOL0     C83194  -0.790   5.459   7.870 -0.5425  0.3974 -0.3485
  631MOL0     O83195  -0.839   5.380   7.769  0.0131  0.2060 -0.7802
  631MOL0     C83196  -0.873   5.452   7.653  0.6348 -0.4329  0.1709
  631MOL0     C83197  -0.863   5.368   7.531  0.9789  0.0483 -0.0685
  631MOL0     C83198  -0.912   5.404   7.398 -0.4042  0.6398 -0.1079
  631MOL0     C83199  -0.822   5.516   7.339 -0.3728 -0.2338 -0.2966
  631MOL0     C83200  -0.882   5.560   7.218 -0.5789 -0.5286  0.7370
  631MOL0     C83201  -0.801   5.693   7.164  0.3840  0.5164 -0.4282
  631MOL0     C83202  -0.859   5.756   7.037 -0.1147  0.3580 -0.5468
  631MOL0     C83203  -0.847   5.664   6.915  0.5597  0.7478  0.3074
  631MOL0    Cl83204  -0.904   5.775   6.771 -0.3913  0.3517 -0.2681
  631MOL0     C83205  -0.845   5.468   7.998  0.1420 -0.0586 -0.0068
  631MOL0     C83206  -0.800   5.565   8.092  0.8211 -0.8710 -0.1236
  631MOL0     O83207  -0.819   5.887   8.163 -0.1139 -0.6021 -0.0380
  631MOL0     C83208  -0.476   5.938   8.251  0.3438 -0.2887  0.5663
  631MOL0     C83209  -0.373   6.039   8.258  0.0415  0.8713 -0.3500
  631MOL0     N83210   0.169   6.016   8.262  0.6302  0.6954  0.4347
  631MOL0     N83211   0.249   5.911   8.283  0.0232 -0.5033  0.4035
  631MOL0     C83212   1.319   5.796   7.839 -0.5405 -0.4476  0.1083
  631MOL0     C83213   1.439   5.869   7.820 -0.7384  0.8265 -0.9806
  631MOL0     C83214   1.842   5.989   7.683 -0.2254  0.9437  0.1554
  631MOL0     C83215   1.848   6.093   7.584 -0.2645  1.4558 -0.4807
  631MOL0     C83216   1.964   6.158   7.551  0.3138 -0.2107  0.9256
  631MOL0     C83217   2.081   6.124   7.613 -0.1705 -0.3517 -0.1646
  631MOL0     O83218   2.189   6.196   7.576 -0.1184 -0.1837  0.0218
  631MOL0     C83219   2.290   6.215   7.671 -0.3085  0.3452 -0.3714
  631MOL0     C83220   2.397   6.320   7.646 -0.0245 -0.7576  0.3570
  631MOL0     C83221   2.341   6.456   7.595  0.2225  0.3649  0.0400
  631MOL0     C83222   2.455   6.558   7.571  0.4754  0.2308  0.7874
  631MOL0     C83223   2.412   6.666   7.472  0.0978  0.0491  0.8364
  631MOL0     C83224   2.375   6.744   7.389  0.6288 -0.1372 -0.0733
  631MOL0     C83225   2.089   6.008   7.701 -0.4360 -0.6050  0.4523
  631MOL0     C83226   1.967   5.952   7.740  0.8145  0.1547  0.0838
  631MOL0     H83227   1.421   5.942   7.491 -0.5394  0.9359 -0.8777
  631MOL0     H83228   1.198   5.828   7.524 -0.0083  1.0071 -0.3947
  631MOL0     H83229   1.086   5.747   7.959 -3.2813 -0.1065  1.3417
  631MOL0     H83230   1.124   5.591   7.871 -0.6266 -0.2858 -0.4294
  631MOL0     H83231   0.894   5.577   7.787  3.0559 -0.6727  0.0824
  631MOL0     H83232   0.847   5.734   7.853 -2.4419 -1.9456 -2.0105
  631MOL0     H83233   0.875   5.654   8.074 -1.3405 -0.7862  1.0611
  631MOL0     H83234   0.944   5.501   8.016  0.5031 -0.4915  1.1679
  631MOL0     H83235   0.704   5.471   7.922  1.6296 -1.7629  0.6653
  631MOL0     H83236   0.722   5.476   8.101 -0.3271  0.7695  0.5060
  631MOL0     H83237   0.631   5.721   7.936 -3.0557  1.4964  1.7141
  631MOL0     H83238   0.666   5.715   8.108  0.4138 -0.8022  0.0113
  631MOL0     H83239   0.484   5.537   8.123  4.3494 -0.0205  0.5407
  631MOL0     H83240   0.465   5.535   7.958  1.3750  1.0572 -0.5652
  631MOL0     H83241   0.381   5.770   7.951  0.5538 -1.5790 -0.6778
  631MOL0     H83242   0.289   5.688   8.074 -0.1109 -0.2448  0.5250
  631MOL0     H83243   0.531   5.871   8.114 -0.2901  2.3188 -0.8220
  631MOL0     H83244   0.462   5.765   8.242 -0.5361 -0.8931 -0.4838
  631MOL0     H83245   0.324   6.045   7.982 -0.1527  0.4159 -0.4496
  631MOL0     H83246   0.120   6.198   7.996 -1.2607 -2.8902 -0.2437
  631MOL0     H83247   0.170   6.284   8.148 -3.0339  2.5323 -1.1568
  631MOL0     H83248  -0.029   6.184   8.271  1.5636 -0.9878 -0.7200
  631MOL0     H83249  -0.105   6.130   8.119 -1.4787  1.3563 -0.5880
  631MOL0     H83250  -0.077   6.414   8.210 -0.1710  1.6797 -1.7718
  631MOL0     H83251  -0.070   6.380   8.047 -2.4938 -0.5201 -0.3161
  631MOL0     H83252  -0.289   6.267   8.048  1.0374 -1.9199 -0.0553
  631MOL0     H83253  -0.314   6.424   8.126 -1.8894 -1.2689 -1.6766
  631MOL0     H83254  -0.558   6.316   8.234  0.4252  0.1336 -0.3780
  631MOL0     H83255  -0.750   6.124   8.210  0.6866 -1.0663  0.1643
  631MOL0     H83256  -0.543   5.678   7.923 -0.3528 -0.5816 -2.0364
  631MOL0     H83257  -0.638   5.535   7.747 -1.2163  5.0143 -1.1833
  631MOL0     H83258  -0.817   5.545   7.639  1.0720 -0.8711 -1.2711
  631MOL0     H83259  -0.976   5.487   7.659  0.2876 -1.1753 -1.0199
  631MOL0     H83260  -0.923   5.283   7.566  2.4986 -0.6684  0.8629
  631MOL0     H83261  -0.759   5.334   7.528  1.6177  1.5075  2.6098
  631MOL0     H83262  -1.017   5.435   7.396 -0.7484 -0.2566 -3.8774
  631MOL0     H83263  -0.905   5.314   7.336  0.4226 -0.8492  2.0269
  631MOL0     H83264  -0.807   5.603   7.403  0.6987  0.0548 -0.9125
  631MOL0     H83265  -0.721   5.475   7.328 -0.5279 -0.6208 -0.2969
  631MOL0     H83266  -0.986   5.593   7.231 -0.4013  0.4136 -0.1235
  631MOL0     H83267  -0.885   5.477   7.147 -0.7795 -0.1877  0.3420
  631MOL0     H83268  -0.694   5.671   7.155  0.4297  1.0170 -1.1825
  631MOL0     H83269  -0.812   5.769   7.242  4.8723  2.7156 -1.6324
  631MOL0     H83270  -0.965   5.777   7.052 -1.1481 -4.3962  0.7222
  631MOL0     H83271  -0.812   5.854   7.034  0.6436 -0.0104 -1.6648
  631MOL0     H83272  -0.912   5.576   6.913  0.6893  0.6617 -1.0695
  631MOL0     H83273  -0.743   5.634   6.902 -0.3900 -2.5528 -0.4371
  631MOL0     H83274  -0.928   5.407   8.033  1.6952 -3.9728 -2.4825
  631MOL0     H83275  -0.833   5.553   8.195 -1.7381 -0.9934 -0.8895
  631MOL0     H83276  -0.443   5.835   8.240  0.2545 -0.1568 -1.1982
  631MOL0     H83277  -0.273   6.000   8.241 -1.6774 -4.4125 -0.1684
  631MOL0     H83278   1.298   5.743   7.931  2.0734 -0.7574  0.6033
  631MOL0     H83279   1.503   5.879   7.907  2.6187  0.1585 -3.1736
  631MOL0     H83280   1.750   6.119   7.546 -0.1213  0.2346 -1.7851
  631MOL0     H83281   1.962   6.242   7.482 -3.5625 -2.4253 -2.1079
  631MOL0     H83282   2.333   6.118   7.696  0.1325  0.1345 -1.8118
  631MOL0     H83283   2.240   6.256   7.759 -1.6497 -1.1295 -0.4082
  631MOL0     H83284   2.458   6.335   7.736  2.8207 -0.6120 -1.4521
  631MOL0     H83285   2.472   6.283   7.575  2.0813  1.8952  0.9993
  631MOL0     H83286   2.273   6.500   7.668  0.5021  2.1035 -0.6972
  631MOL0     H83287   2.285   6.427   7.506  1.6340 -4.9743  0.5230
  631MOL0     H83288   2.470   6.607   7.667 -1.2912  1.0341  0.6939
  631MOL0     H83289   2.542   6.495   7.551  0.3128 -0.8764  3.2323
  631MOL0     H83290   2.348   6.799   7.300  0.1868  2.3466  1.5049
  631MOL0     H83291   2.179   5.973   7.750  1.1472  1.4497 -0.8389
  631MOL0     H83292   1.982   5.865   7.803 -0.9990  0.2228  0.6625
  632MOL0     O83293   9.315   6.386   1.664  0.2051  0.1078  0.0019
  632MOL0     C83294   9.240   6.476   1.647 -0.0279 -0.0974  0.0496
  632MOL0     O83295   9.270   6.603   1.627  0.6441  0.4748  0.2074
  632MOL0     C83296   9.400   6.641   1.664 -0.1054  0.4042 -0.5541
  632MOL0     C83297   9.511   6.623   1.588  0.0179 -0.2320 -0.3546
  632MOL0     C83298   9.640   6.663   1.628 -0.2097 -0.2567  0.7059
  632MOL0     C83299   9.654   6.756   1.725  0.1779 -0.1730  0.6381
  632MOL0     O83300   9.773   6.796   1.774 -0.0421 -0.1208  0.2532
  632MOL0     C83301   9.842   6.887   1.693 -0.0641  0.2982 -0.2819
  632MOL0     C83302   9.983   6.901   1.750 -0.2760 -0.3367 -0.5765
  632MOL0     C83303  10.060   7.008   1.671  0.0510  0.4826  0.4269
  632MOL0     C83304  10.202   7.026   1.719  0.9426  0.1561 -0.3131
  632MOL0     C83305  10.291   7.110   1.647  0.1460  0.4521  0.4736
  632MOL0     C83306  10.226   7.255   1.621  0.5669  0.3641 -1.0684
  632MOL0     C83307  10.336   7.351   1.589 -0.5678  0.2774 -0.7257
  632MOL0     C83308  10.276   7.482   1.569  0.5603  0.4406 -0.1526
  632MOL0     N83309  10.377   7.583   1.521 -0.5727 -0.0902  0.6222
  632MOL0     C83310  10.488   7.568   1.435  0.4620  0.0907  0.3967
  632MOL0     C83311  10.549   7.691   1.449 -1.1149  0.2364 -0.0955
  632MOL0     C83312  10.673   7.739   1.387  0.1176 -0.2887 -1.5235
  632MOL0     C83313  10.657   7.880   1.324  0.2057 -0.0911 -0.5666
  632MOL0     C83314  10.530   7.895   1.235  0.5006  0.1635  0.3716
  632MOL0     C83315  10.549   8.014   1.146  0.8265 -0.3531 -0.4752
  632MOL0     O83316  10.437   8.077   1.083 -0.1271  0.0376 -0.4996
  632MOL0     C83317  10.377   8.187   1.140  0.2435  1.0388  0.0906
  632MOL0     C83318  10.318   8.283   1.057 -0.5813  0.0707  0.3051
  632MOL0     C83319  10.243   8.384   1.117 -0.3155  0.6346  0.2907
  632MOL0     C83320  10.225   8.400   1.254 -0.7302  0.0975  0.1894
  632MOL0     C83321  10.186   8.529   1.301  1.2695 -0.2347 -0.0984
  632MOL0     O83322  10.213   8.636   1.207  0.0584 -0.4593 -0.4975
  632MOL0     C83323  10.134   8.746   1.238  0.8321 -0.1034 -0.3789
  632MOL0     C83324  10.188   8.872   1.261 -0.7241 -0.1317 -0.5520
  632MOL0     C83325  10.111   8.984   1.304  0.3985 -0.1454 -0.9280
  632MOL0     C83326   9.975   8.976   1.307  0.8068 -0.1464 -0.7195
  632MOL0     O83327   9.909   9.090   1.344 -0.4759  0.3614 -0.1946
  632MOL0     C83328   9.769   9.088   1.395 -0.7845  0.5726 -0.4807
  632MOL0     C83329   9.729   9.226   1.441  0.0746  0.3125 -0.3969
  632MOL0     C83330   9.810   9.299   1.542 -0.3461  0.1284 -0.2591
  632MOL0     C83331   9.819   9.237   1.687  0.1932  0.4811  0.1875
  632MOL0     C83332   9.908   9.313   1.785  0.5754 -0.2159  0.2319
  632MOL0     C83333   9.903   9.234   1.928 -0.0037 -0.0169  0.3129
  632MOL0     C83334  10.026   9.273   2.018  0.3536  0.0060 -0.8569
  632MOL0     C83335  10.161   9.211   1.981  0.6544 -0.0174 -0.5674
  632MOL0    Cl83336  10.285   9.227   2.107  0.1711 -0.3489  0.1099
  632MOL0     C83337   9.914   8.857   1.273 -0.0751  1.1401  0.1158
  632MOL0     C83338   9.989   8.743   1.226 -0.9300 -0.5162  0.0144
  632MOL0     O83339  10.123   8.543   1.405 -0.5670  0.2338 -0.0516
  632MOL0     C83340  10.286   8.307   1.336 -0.7579  0.2449  0.4625
  632MOL0     C83341  10.355   8.196   1.282 -0.0399 -0.2967  0.1826
  632MOL0     N83342  10.483   7.775   1.537  0.1578  0.5180 -0.7448
  632MOL0     N83343  10.377   7.713   1.573  0.7102  0.1953  0.4877
  632MOL0     C83344   9.545   6.776   1.807  0.0551  0.0688  0.2708
  632MOL0     C83345   9.420   6.723   1.779 -0.2018 -0.5217 -0.4108
  632MOL0     C83346   9.103   6.432   1.651  0.3792 -0.5476 -0.6582
  632MOL0     C83347   9.002   6.533   1.655 -0.6094 -0.1856  1.3354
  632MOL0     C83348   8.869   6.496   1.651  0.1600 -0.5052 -0.1968
  632MOL0     C83349   8.830   6.366   1.639  0.9054  0.0177 -1.1552
  632MOL0     O83350   8.690   6.358   1.625 -1.1465 -0.7601 -0.2146
  632MOL0     C83351   8.637   6.231   1.639 -0.5918  0.1089  0.4390
  632MOL0     C83352   8.486   6.232   1.603 -0.3342 -0.2390  0.3196
  632MOL0     C83353   8.471   6.252   1.456 -0.1729 -0.9116 -0.1260
  632MOL0     C83354   8.442   6.123   1.389  0.6281  0.8469  0.5095
  632MOL0     C83355   8.390   6.153   1.253  0.1645  0.0251  0.5446
  632MOL0     C83356   8.340   6.169   1.138  0.0480  0.4534 -0.0219
  632MOL0     C83357   8.921   6.256   1.649 -0.4711 -0.6065  0.5039
  632MOL0     C83358   9.060   6.296   1.660  0.2187  0.6552 -0.2273
  632MOL0     H83359   9.489   6.546   1.515 -0.1932  0.3315 -0.8911
  632MOL0     H83360   9.736   6.632   1.589 -0.6577 -1.1367  0.2820
  632MOL0     H83361   9.791   6.984   1.691  2.1661  1.5308 -1.7565
  632MOL0     H83362   9.853   6.837   1.596 -3.0427 -0.8233 -0.1331
  632MOL0     H83363  10.035   6.805   1.748  2.1867  0.4511  5.3237
  632MOL0     H83364   9.974   6.923   1.857 -1.0751  0.5811 -0.8131
  632MOL0     H83365  10.007   7.099   1.700 -0.3756  0.0455  1.0321
  632MOL0     H83366  10.060   6.993   1.562  1.3150  2.1501  0.1652
  632MOL0     H83367  10.186   7.053   1.823 -3.3361 -1.7235 -0.2623
  632MOL0     H83368  10.247   6.926   1.717 -0.3637 -0.4579 -0.6255
  632MOL0     H83369  10.299   7.077   1.543 -1.6292  0.4165  0.3125
  632MOL0     H83370  10.389   7.119   1.693  0.7694  1.7678 -1.0181
  632MOL0     H83371  10.175   7.290   1.710  1.0914 -1.9999  0.2453
  632MOL0     H83372  10.150   7.240   1.543 -0.6568 -0.3580  0.2252
  632MOL0     H83373  10.401   7.351   1.677  0.3876  0.1723 -1.4224
  632MOL0     H83374  10.393   7.322   1.501  1.0788  2.6560 -0.5255
  632MOL0     H83375  10.222   7.522   1.656 -0.3555  0.0866 -0.5474
  632MOL0     H83376  10.202   7.471   1.490  0.8347  1.8462 -0.6473
  632MOL0     H83377  10.519   7.494   1.362  1.5476  0.9282 -0.0099
  632MOL0     H83378  10.695   7.668   1.307  0.1372 -0.3317 -1.4796
  632MOL0     H83379  10.763   7.745   1.448  0.9741 -1.0021 -2.6704
  632MOL0     H83380  10.748   7.900   1.266  2.5013  1.0689  3.1075
  632MOL0     H83381  10.655   7.959   1.400 -0.1323 -0.9091  0.2834
  632MOL0     H83382  10.506   7.806   1.174  1.6279  2.5666 -3.9948
  632MOL0     H83383  10.448   7.911   1.306  0.4020 -0.2503  0.3597
  632MOL0     H83384  10.620   7.978   1.071  1.5793 -3.7954  1.6815
  632MOL0     H83385  10.601   8.090   1.204 -1.4656  0.6517  0.3861
  632MOL0     H83386  10.341   8.266   0.952 -0.2480  2.2620 -0.0341
  632MOL0     H83387  10.228   8.454   1.036  1.3526 -1.1680 -1.7125
  632MOL0     H83388  10.295   8.885   1.253 -0.6106  0.2526  1.1486
  632MOL0     H83389  10.158   9.081   1.320 -1.8712  1.4740 -3.2156
  632MOL0     H83390   9.765   9.016   1.476  0.6988  0.2589 -0.6586
  632MOL0     H83391   9.698   9.064   1.315 -1.2816  0.5712 -0.0374
  632MOL0     H83392   9.633   9.222   1.493  0.9380  1.5196  1.3881
  632MOL0     H83393   9.726   9.291   1.353 -1.8195  0.0967 -0.5452
  632MOL0     H83394   9.769   9.400   1.550 -3.6588 -0.9591 -1.5669
  632MOL0     H83395   9.914   9.314   1.511  0.1865  1.7490  2.0095
  632MOL0     H83396   9.715   9.242   1.719 -0.5372  1.6480 -2.1075
  632MOL0     H83397   9.839   9.130   1.678  1.2107  0.8283 -3.0265
  632MOL0     H83398   9.879   9.418   1.797 -0.2005 -0.3414 -0.4347
  632MOL0     H83399  10.008   9.318   1.740 -0.5371 -1.9924 -2.7426
  632MOL0     H83400   9.886   9.126   1.919 -0.2859  0.0773 -0.3430
  632MOL0     H83401   9.812   9.269   1.978 -1.4714 -1.3990 -1.2559
  632MOL0     H83402  10.041   9.380   2.005  0.5931 -0.0881 -1.3725
  632MOL0     H83403  10.026   9.253   2.126 -2.8022  1.9293 -0.3919
  632MOL0     H83404  10.209   9.260   1.895  1.1493  0.8446  0.1767
  632MOL0     H83405  10.142   9.105   1.964 -2.5084  0.6440 -1.8875
  632MOL0     H83406   9.806   8.842   1.271  0.1955 -1.5595 -3.0972
  632MOL0     H83407   9.949   8.644   1.209  0.1554 -2.0064  4.6205
  632MOL0     H83408  10.266   8.326   1.441  0.6201  1.7652  0.4865
  632MOL0     H83409  10.397   8.126   1.354 -0.9582 -1.2704 -0.2002
  632MOL0     H83410   9.573   6.839   1.891  1.8878 -1.2101  0.6877
  632MOL0     H83411   9.331   6.754   1.833 -0.9244  1.0475 -2.3869
  632MOL0     H83412   9.023   6.639   1.650 -1.8215  0.0382 -3.0948
  632MOL0     H83413   8.792   6.573   1.650  1.6350  1.0489  1.2794
  632MOL0     H83414   8.660   6.189   1.737  1.2391 -1.3940 -0.5769
  632MOL0     H83415   8.686   6.153   1.581 -1.2736 -1.0555  1.3755
  632MOL0     H83416   8.448   6.138   1.643  1.3158 -0.1172  2.3638
  632MOL0     H83417   8.439   6.312   1.660 -1.7324 -3.0806  3.4639
  632MOL0     H83418   8.564   6.291   1.413 -1.2579  1.1488 -0.7496
  632MOL0     H83419   8.399   6.330   1.427  2.6323  1.8119 -0.2510
  632MOL0     H83420   8.531   6.061   1.380 -1.1416 -1.4870 -3.6912
  632MOL0     H83421   8.359   6.071   1.437 -1.3057  2.7023 -0.6068
  632MOL0     H83422   8.307   6.197   1.040  0.6698 -0.7289 -0.5940
  632MOL0     H83423   8.892   6.153   1.628 -4.2012 -0.0097  1.8637
  632MOL0     H83424   9.125   6.210   1.652  0.3580  0.8272 -1.0063
  633MOL0     O83425   1.253   3.646   4.744 -0.3007 -0.4238  0.6394
  633MOL0     C83426   1.227   3.700   4.850 -0.2731  0.2161  0.2855
  633MOL0     O83427   1.311   3.690   4.959 -0.2407 -0.1729 -0.9369
  633MOL0     C83428   1.419   3.607   4.944 -0.0586 -0.6718  0.3519
  633MOL0     C83429   1.541   3.653   4.892  0.3323  0.5617 -0.3118
  633MOL0     C83430   1.646   3.561   4.882 -0.9807  0.3833 -1.1138
  633MOL0     C83431   1.629   3.426   4.924  1.1509  0.5656 -0.2888
  633MOL0     O83432   1.724   3.341   4.893  0.1229  0.1887  0.3762
  633MOL0     C83433   1.721   3.203   4.930 -0.5372 -0.1218  0.8221
  633MOL0     C83434   1.844   3.116   4.889 -0.3136 -0.7519 -0.1585
  633MOL0     C83435   1.976   3.194   4.889 -1.6636 -0.7187  0.0208
  633MOL0     C83436   2.026   3.267   5.010  0.3778 -0.5151 -0.4081
  633MOL0     C83437   2.140   3.375   4.995 -0.5271  0.6307  0.4815
  633MOL0     C83438   2.266   3.333   4.912  0.9528 -0.9214  0.1507
  633MOL0     C83439   2.367   3.445   4.885 -0.1895 -0.8547  0.3294
  633MOL0     C83440   2.453   3.420   4.752  0.0758 -0.0069 -0.2349
  633MOL0     N83441   2.528   3.544   4.733 -0.4208 -0.9383 -0.1360
  633MOL0     C83442   2.486   3.676   4.762 -0.2415  0.6731 -0.7247
  633MOL0     C83443   2.605   3.751   4.743  0.5487  0.4330  0.9791
  633MOL0     C83444   2.632   3.900   4.760 -0.4764  0.0121 -0.4642
  633MOL0     C83445   2.522   3.989   4.683  0.3458 -0.0362 -0.7661
  633MOL0     C83446   2.551   4.139   4.676 -0.4534 -0.3945 -0.6523
  633MOL0     C83447   2.450   4.234   4.612  1.0898  0.7942  0.3235
  633MOL0     O83448   2.314   4.177   4.601  0.6346  0.2324 -0.9758
  633MOL0     C83449   2.234   4.172   4.716 -0.6765 -0.2512  1.0237
  633MOL0     C83450   2.261   4.240   4.834 -0.1257  0.0170 -0.4693
  633MOL0     C83451   2.169   4.237   4.948 -0.2094 -0.4983  0.1837
  633MOL0     C83452   2.047   4.174   4.935  0.4624  0.4801 -0.3945
  633MOL0     C83453   1.935   4.182   5.045  0.0824 -0.6061  0.9817
  633MOL0     O83454   1.942   4.298   5.123  0.1961  0.5488 -0.1421
  633MOL0     C83455   1.874   4.287   5.242 -0.7824 -0.1699  0.3454
  633MOL0     C83456   1.732   4.294   5.254 -0.2948  0.9653 -0.4098
  633MOL0     C83457   1.663   4.275   5.370 -0.6353 -0.3278 -0.3646
  633MOL0     C83458   1.732   4.282   5.486  0.7591  0.2621 -0.5213
  633MOL0     O83459   1.660   4.278   5.605  0.0734 -0.5912 -0.3526
  633MOL0     C83460   1.551   4.189   5.614  0.0761 -0.4566 -0.1241
  633MOL0     C83461   1.512   4.155   5.756  0.0228  0.0589 -0.0562
  633MOL0     C83462   1.418   4.032   5.770 -0.0908  0.9272 -1.1840
  633MOL0     C83463   1.381   3.994   5.919  0.6123 -0.0095 -0.3694
  633MOL0     C83464   1.274   3.886   5.925 -0.3514 -0.5787  0.0391
  633MOL0     C83465   1.257   3.839   6.076 -0.0021  0.4115  0.3439
  633MOL0     C83466   1.166   3.710   6.068 -0.3644 -0.2587 -0.6760
  633MOL0     C83467   1.122   3.661   6.207  0.0819 -0.3310 -0.0784
  633MOL0    Cl83468   1.269   3.608   6.297 -0.0967  0.2257 -0.1583
  633MOL0     C83469   1.870   4.290   5.482 -0.1307 -0.2327  0.2914
  633MOL0     C83470   1.941   4.290   5.362  0.4222  0.3908  0.1860
  633MOL0     O83471   1.862   4.085   5.058 -0.1949  0.0914  0.5407
  633MOL0     C83472   2.019   4.117   4.814 -0.6063  0.0616  0.3262
  633MOL0     C83473   2.107   4.115   4.704 -0.1599 -0.7221 -0.5125
  633MOL0     N83474   2.703   3.670   4.693  1.1699 -0.5061  0.9608
  633MOL0     N83475   2.655   3.553   4.690 -0.3796 -0.0577 -0.4794
  633MOL0     C83476   1.513   3.396   4.988 -0.3295 -0.1723 -0.2782
  633MOL0     C83477   1.414   3.481   4.999  0.2949  0.1999  0.9497
  633MOL0     C83478   1.118   3.789   4.872 -0.6346  0.6564  0.7142
  633MOL0     C83479   1.103   3.858   4.994  0.1196  0.2538  0.2047
  633MOL0     C83480   0.985   3.919   5.027 -0.2035 -0.7533 -0.1293
  633MOL0     C83481   0.898   3.946   4.932  0.1577  0.5332  0.0406
  633MOL0     O83482   0.787   4.013   4.973  0.7057 -0.1172  0.0818
  633MOL0     C83483   0.796   4.138   5.033 -0.2320 -0.0852 -0.6453
  633MOL0     C83484   0.852   4.243   4.940 -0.6547 -0.1619 -0.2409
  633MOL0     C83485   0.875   4.372   5.023  0.1335  0.2583  0.1513
  633MOL0     C83486   0.749   4.458   5.038 -0.8697  0.1176 -0.2529
  633MOL0     C83487   0.668   4.413   5.150  1.1189 -0.0595  0.1262
  633MOL0     C83488   0.573   4.366   5.218 -1.1378 -0.3725 -0.0088
  633MOL0     C83489   0.910   3.898   4.803 -0.3753 -0.2399 -0.0255
  633MOL0     C83490   1.023   3.815   4.773  1.4589 -0.0040 -0.2503
  633MOL0     H83491   1.562   3.750   4.848 -2.1040  0.7129 -1.3046
  633MOL0     H83492   1.735   3.606   4.838 -0.3288  0.9169  0.6671
  633MOL0     H83493   1.635   3.155   4.884 -0.3405  2.6839 -2.9739
  633MOL0     H83494   1.730   3.200   5.039 -0.0419  0.3408  0.7996
  633MOL0     H83495   1.828   3.068   4.792 -3.0601  1.6912 -1.0392
  633MOL0     H83496   1.846   3.041   4.969 -0.3218 -1.1139 -0.4948
  633MOL0     H83497   1.979   3.263   4.804 -1.5800  0.7894  1.2108
  633MOL0     H83498   2.050   3.118   4.863 -3.0759 -2.1094 -0.0425
  633MOL0     H83499   1.943   3.332   5.039  0.0184 -1.3794  0.5424
  633MOL0     H83500   2.058   3.198   5.089  2.5899 -1.0032 -1.6450
  633MOL0     H83501   2.174   3.398   5.096  0.6327  0.5773  0.1245
  633MOL0     H83502   2.103   3.470   4.954 -0.7582 -1.2228 -4.1990
  633MOL0     H83503   2.232   3.291   4.817  1.0902  1.0376 -0.8320
  633MOL0     H83504   2.319   3.253   4.965  2.5256 -0.0915 -0.1168
  633MOL0     H83505   2.308   3.534   4.860  1.1691  0.2871  1.0193
  633MOL0     H83506   2.432   3.465   4.971 -2.8030  2.8524  1.6908
  633MOL0     H83507   2.385   3.391   4.672 -2.0322 -0.8517  1.7470
  633MOL0     H83508   2.524   3.337   4.758 -1.2524 -1.4136 -2.6087
  633MOL0     H83509   2.397   3.722   4.803 -0.0236  2.3684 -2.0204
  633MOL0     H83510   2.733   3.924   4.724 -0.3904  2.0725  0.9703
  633MOL0     H83511   2.625   3.920   4.868 -3.5686 -0.7823 -0.4385
  633MOL0     H83512   2.426   3.973   4.732  0.1792 -4.2441 -2.0767
  633MOL0     H83513   2.500   3.948   4.584 -1.3807  1.8965 -1.2404
  633MOL0     H83514   2.583   4.188   4.768  2.4834  0.5115 -2.0412
  633MOL0     H83515   2.639   4.145   4.611 -0.1595 -1.5823 -0.3884
  633MOL0     H83516   2.473   4.246   4.505 -1.2029 -1.1872 -0.4615
  633MOL0     H83517   2.454   4.329   4.665  2.2006  0.9122  0.0646
  633MOL0     H83518   2.356   4.285   4.862 -0.9025  0.9422  0.7480
  633MOL0     H83519   2.205   4.289   5.037  3.0861 -0.9367 -0.7398
  633MOL0     H83520   1.675   4.293   5.162 -1.6675  1.4891  0.4012
  633MOL0     H83521   1.555   4.285   5.376 -0.6021  1.3497 -1.5149
  633MOL0     H83522   1.575   4.095   5.565 -1.5583 -1.5372  1.0498
  633MOL0     H83523   1.459   4.226   5.567  0.7838 -0.7876 -1.8454
  633MOL0     H83524   1.455   4.234   5.808  1.5748 -0.1717  2.1443
  633MOL0     H83525   1.596   4.143   5.825 -0.3910  1.1308  0.6772
  633MOL0     H83526   1.454   3.941   5.722 -1.8653  0.8727 -2.5237
  633MOL0     H83527   1.321   4.050   5.724  0.2692 -0.4028 -2.5323
  633MOL0     H83528   1.470   3.944   5.958  0.4990  0.4784  0.5241
  633MOL0     H83529   1.351   4.073   5.988  2.6740 -1.1428  1.9888
  633MOL0     H83530   1.315   3.817   5.850  0.5178  2.1101 -2.1165
  633MOL0     H83531   1.184   3.935   5.889 -0.5618 -0.2882  0.9450
  633MOL0     H83532   1.210   3.916   6.137  1.7465  3.2506 -1.6618
  633MOL0     H83533   1.351   3.807   6.122 -1.3622 -1.0152  2.2915
  633MOL0     H83534   1.081   3.728   6.002 -1.6234 -2.6924  0.1666
  633MOL0     H83535   1.224   3.631   6.020 -0.6383  0.7412 -2.7612
  633MOL0     H83536   1.048   3.580   6.205  0.0466 -0.3096  0.2378
  633MOL0     H83537   1.075   3.742   6.264  0.7472  0.1034 -0.1361
  633MOL0     H83538   1.931   4.284   5.572 -1.1416  0.0702  1.0135
  633MOL0     H83539   2.050   4.299   5.361  0.3363  2.9585 -2.7964
  633MOL0     H83540   1.939   4.045   4.797  1.1311 -2.0489  0.6056
  633MOL0     H83541   2.089   4.052   4.617  0.4770 -1.4281 -0.1483
  633MOL0     H83542   1.486   3.297   5.024  3.0969 -1.1898 -0.1503
  633MOL0     H83543   1.317   3.454   5.039 -0.8446  2.3379 -0.1981
  633MOL0     H83544   1.177   3.863   5.073 -0.0848  1.4017  0.3462
  633MOL0     H83545   0.988   3.972   5.122 -1.4557 -2.2829  0.8115
  633MOL0     H83546   0.849   4.132   5.128  0.1613  2.0422 -0.6871
  633MOL0     H83547   0.696   4.174   5.062 -0.2581  2.0949 -3.0633
  633MOL0     H83548   0.949   4.216   4.898 -0.6442  1.5341 -1.4214
  633MOL0     H83549   0.781   4.254   4.858  0.9147 -1.0211 -1.7707
  633MOL0     H83550   0.966   4.425   4.992  1.8080 -2.7846 -0.5513
  633MOL0     H83551   0.904   4.337   5.123 -1.3014 -0.1845  0.4316
  633MOL0     H83552   0.792   4.553   5.069 -1.2251 -0.3250  1.6950
  633MOL0     H83553   0.684   4.466   4.950 -1.2147 -1.5181 -0.1848
  633MOL0     H83554   0.497   4.311   5.270 -0.7808  0.1208  1.0798
  633MOL0     H83555   0.844   3.899   4.717  1.4957 -1.0206 -1.5481
  633MOL0     H83556   1.029   3.774   4.673 -2.1980  0.8978 -0.9885
  634MOL0     O83557   3.995   9.945   1.232  1.0914 -0.5146 -0.2431
  634MOL0     C83558   3.978   9.919   1.112 -0.2952  1.3122  0.0757
  634MOL0     O83559   3.855   9.914   1.044  1.1773  0.0593  0.0326
  634MOL0     C83560   3.733   9.958   1.093  0.2207  0.3253  0.0535
  634MOL0     C83561   3.630   9.964   1.000  0.1651  0.7903 -0.8961
  634MOL0     C83562   3.513  10.024   1.028  0.3668  1.2685 -0.5230
  634MOL0     C83563   3.486  10.073   1.154  0.2396  0.1432  0.8257
  634MOL0     O83564   3.366  10.132   1.188 -0.4966 -0.1718  0.2512
  634MOL0     C83565   3.315  10.218   1.076 -0.0050 -0.3615 -0.0912
  634MOL0     C83566   3.212  10.314   1.138 -0.7268 -0.6021  0.5858
  634MOL0     C83567   3.082  10.235   1.173  0.4224  1.3009  0.0421
  634MOL0     C83568   2.963  10.334   1.198 -0.2380 -0.2015  0.4539
  634MOL0     C83569   2.835  10.241   1.220 -0.6348  0.6310  1.0356
  634MOL0     C83570   2.712  10.321   1.263  0.9027 -0.6390  0.1529
  634MOL0     C83571   2.571  10.247   1.244 -0.5287 -0.1625  0.7215
  634MOL0     C83572   2.447  10.336   1.250  0.8294  0.4047  0.3588
  634MOL0     N83573   2.388  10.347   1.118 -0.0819  0.3871  0.6796
  634MOL0     C83574   2.403  10.444   1.030  0.2024 -0.3881  0.3439
  634MOL0     C83575   2.322  10.414   0.925  0.5417  0.2111 -0.4312
  634MOL0     C83576   2.312  10.509   0.808  0.2365 -0.1799  0.0333
  634MOL0     C83577   2.236  10.460   0.678 -0.1335  0.7812 -0.8833
  634MOL0     C83578   2.084  10.424   0.704 -0.2002 -1.9372 -0.2896
  634MOL0     C83579   2.017  10.331   0.613 -0.6553 -0.0108 -0.5765
  634MOL0     O83580   1.985  10.410   0.498 -0.1178 -0.4467 -0.6551
  634MOL0     C83581   1.843  10.425   0.490 -0.0564  0.1492 -0.6179
  634MOL0     C83582   1.779  10.506   0.578  0.4003  0.3596  0.3668
  634MOL0     C83583   1.644  10.546   0.562  0.2344 -0.8048  0.5607
  634MOL0     C83584   1.569  10.506   0.448 -0.6084  0.2199 -0.9886
  634MOL0     C83585   1.436  10.565   0.415 -0.7365 -1.1691  0.0155
  634MOL0     O83586   1.376  10.634   0.523 -0.6819  0.2705 -0.0583
  634MOL0     C83587   1.237  10.659   0.520 -0.3611  0.1825  0.9875
  634MOL0     C83588   1.186  10.779   0.482 -0.0295 -0.8532  0.2367
  634MOL0     C83589   1.050  10.797   0.482 -0.4419 -0.3966 -0.0404
  634MOL0     C83590   0.960  10.699   0.504 -0.8991 -0.0910  0.1581
  634MOL0     O83591   0.824  10.743   0.506  0.0798  0.4809  0.0544
  634MOL0     C83592   0.726  10.645   0.476  0.1701  0.3821  0.2883
  634MOL0     C83593   0.596  10.711   0.450  0.1225  0.2093  0.8375
  634MOL0     C83594   0.588  10.829   0.348  0.1127  0.5394 -1.2395
  634MOL0     C83595   0.630  10.779   0.217  0.6189 -1.2028 -0.2457
  634MOL0     C83596   0.561  10.860   0.107  0.2793  0.7890 -0.3047
  634MOL0     C83597   0.619  10.835  -0.031  0.1204  0.5379 -0.6888
  634MOL0     C83598   0.595  10.948  -0.131  0.1078  0.2575  1.0101
  634MOL0     C83599   0.445  10.951  -0.154 -0.0923 -0.1748  0.2796
  634MOL0    Cl83600   0.366  10.792  -0.190 -0.7755 -0.2950 -0.1356
  634MOL0     C83601   1.013  10.573   0.520  0.0022 -1.0241 -1.1574
  634MOL0     C83602   1.154  10.556   0.534  0.0176  0.4126 -0.1023
  634MOL0     O83603   1.400  10.558   0.297 -0.4598 -0.7110 -0.9293
  634MOL0     C83604   1.635  10.415   0.359  0.4171 -0.5597 -0.2017
  634MOL0     C83605   1.771  10.378   0.378 -1.2817 -0.0629 -0.2749
  634MOL0     N83606   2.271  10.287   0.945  1.2481  0.3110  0.2774
  634MOL0     N83607   2.307  10.247   1.068  0.2993  0.7144  0.8161
  634MOL0     C83608   3.585  10.077   1.250  0.2294  0.4012 -0.2192
  634MOL0     C83609   3.701  10.010   1.224 -0.7781  1.1902 -0.2033
  634MOL0     C83610   4.102   9.870   1.037 -0.1454 -0.8201  0.0268
  634MOL0     C83611   4.096   9.818   0.905  0.0164 -0.3523 -0.0471
  634MOL0     C83612   4.220   9.789   0.839 -0.3863 -0.4347 -0.1695
  634MOL0     C83613   4.340   9.809   0.905  0.3358 -0.5694 -0.2731
  634MOL0     O83614   4.457   9.768   0.861  0.1997 -0.2457 -0.2759
  634MOL0     C83615   4.461   9.666   0.757  0.2748 -0.6447  0.4578
  634MOL0     C83616   4.492   9.731   0.617  0.0397  0.6006  0.4070
  634MOL0     C83617   4.523   9.623   0.511  0.1620  0.8710 -0.1880
  634MOL0     C83618   4.661   9.651   0.452  0.0277  0.9749  0.6959
  634MOL0     C83619   4.766   9.608   0.540 -0.6395 -0.4170 -0.6907
  634MOL0     C83620   4.859   9.577   0.608 -0.5414 -0.3289 -0.8408
  634MOL0     C83621   4.344   9.862   1.034 -0.0648 -0.2202 -0.2256
  634MOL0     C83622   4.226   9.883   1.098 -0.0255 -0.5580  0.4767
  634MOL0     H83623   3.641   9.919   0.902 -0.8232 -0.8694 -0.2917
  634MOL0     H83624   3.442  10.019   0.946  1.9107 -3.9226 -1.9630
  634MOL0     H83625   3.269  10.145   1.009  0.1690  1.8048 -2.7590
  634MOL0     H83626   3.398  10.262   1.020 -1.5391  0.7362 -1.6042
  634MOL0     H83627   3.186  10.390   1.063 -3.0274 -2.7832 -1.0057
  634MOL0     H83628   3.240  10.376   1.224  0.4044 -1.4430  0.8478
  634MOL0     H83629   3.099  10.160   1.250 -0.4762  2.3269  1.2679
  634MOL0     H83630   3.056  10.170   1.088  2.6383 -0.4400  0.6096
  634MOL0     H83631   2.992  10.393   1.285  1.1947 -1.4419  0.8578
  634MOL0     H83632   2.948  10.406   1.117 -0.7707 -1.0918 -0.2605
  634MOL0     H83633   2.867  10.156   1.281 -3.7178 -0.1421  1.7523
  634MOL0     H83634   2.809  10.193   1.126  0.3604  0.2469  0.9559
  634MOL0     H83635   2.699  10.410   1.200 -1.3040  1.6514  3.5220
  634MOL0     H83636   2.726  10.363   1.363 -1.3717  0.4698  0.0882
  634MOL0     H83637   2.583  10.201   1.145 -0.7807  0.1742  0.5331
  634MOL0     H83638   2.557  10.161   1.310  1.1131  0.3808  1.8368
  634MOL0     H83639   2.475  10.435   1.289 -0.4783  0.3048  1.6409
  634MOL0     H83640   2.378  10.280   1.313  1.8903 -1.2265  0.1287
  634MOL0     H83641   2.475  10.518   1.063 -1.1018  0.1613  2.0858
  634MOL0     H83642   2.416  10.522   0.776 -0.1322 -2.3052 -2.4046
  634MOL0     H83643   2.273  10.607   0.835  0.8015  0.2699 -0.7369
  634MOL0     H83644   2.282  10.364   0.649 -3.0265 -0.3758 -2.0997
  634MOL0     H83645   2.253  10.537   0.602  0.8687  0.7712 -0.6897
  634MOL0     H83646   2.078  10.375   0.802 -0.3353  0.0078  0.7250
  634MOL0     H83647   2.036  10.522   0.709 -2.0734 -2.8927  2.0915
  634MOL0     H83648   1.934  10.292   0.674  1.5332  1.8642  4.1209
  634MOL0     H83649   2.096  10.262   0.582 -0.6577 -0.3879  0.2284
  634MOL0     H83650   1.825  10.561   0.660 -1.8835 -0.0570  2.0469
  634MOL0     H83651   1.606  10.628   0.623  1.7290  0.5907 -0.2890
  634MOL0     H83652   1.245  10.861   0.441  3.2201 -2.2334  1.7967
  634MOL0     H83653   1.000  10.891   0.457 -2.6918 -0.8117  2.4888
  634MOL0     H83654   0.725  10.571   0.556  0.7040  1.1862  1.0541
  634MOL0     H83655   0.762  10.611   0.378  0.2166  2.2393 -0.3816
  634MOL0     H83656   0.553  10.755   0.540  1.0301  1.9992  0.4353
  634MOL0     H83657   0.520  10.635   0.425  0.1795  0.5742 -0.5399
  634MOL0     H83658   0.659  10.905   0.380 -0.0766  0.3297 -0.3061
  634MOL0     H83659   0.487  10.870   0.345 -1.9094 -3.7145 -0.1553
  634MOL0     H83660   0.738  10.773   0.205  0.6189  0.7724 -1.7745
  634MOL0     H83661   0.585  10.680   0.205 -1.5164 -0.0711 -2.8476
  634MOL0     H83662   0.588  10.965   0.127  1.4756  0.7955 -1.8103
  634MOL0     H83663   0.454  10.838   0.104  0.7234 -1.6403  0.2065
  634MOL0     H83664   0.567  10.744  -0.061 -0.5453  0.7199 -0.0993
  634MOL0     H83665   0.725  10.810  -0.019  0.0640  1.4690  3.2322
  634MOL0     H83666   0.623  11.045  -0.089 -1.8421  0.9284  0.8872
  634MOL0     H83667   0.645  10.926  -0.226 -3.1375 -0.3340 -0.7031
  634MOL0     H83668   0.419  11.016  -0.238 -0.4519 -0.3143  0.2781
  634MOL0     H83669   0.397  10.986  -0.062 -0.4264  0.6174 -0.1856
  634MOL0     H83670   0.963  10.477   0.525 -2.5844  0.2303 -1.7283
  634MOL0     H83671   1.191  10.454   0.543  0.4811  0.5540 -0.3605
  634MOL0     H83672   1.578  10.377   0.275  3.6921 -1.3599 -2.2217
  634MOL0     H83673   1.814  10.312   0.304  2.0920 -1.6794  2.8324
  634MOL0     H83674   3.553  10.111   1.348  1.2198 -2.3547  1.1648
  634MOL0     H83675   3.776  10.020   1.302 -2.6897 -0.8569  2.0684
  634MOL0     H83676   4.007   9.805   0.845  0.6409  0.5860 -1.2331
  634MOL0     H83677   4.220   9.772   0.732  2.8018 -0.5189 -0.2486
  634MOL0     H83678   4.367   9.611   0.750 -0.3169 -0.2550  3.8787
  634MOL0     H83679   4.538   9.599   0.796  1.4539 -0.2524 -1.1006
  634MOL0     H83680   4.409   9.796   0.589  1.3192  2.2081  0.2342
  634MOL0     H83681   4.583   9.790   0.624 -0.7017  1.8174  0.0813
  634MOL0     H83682   4.446   9.618   0.434 -3.8845  4.1607  3.1710
  634MOL0     H83683   4.530   9.525   0.559 -3.8260  1.0476  1.0777
  634MOL0     H83684   4.686   9.588   0.366  2.1023  0.8403  1.3637
  634MOL0     H83685   4.665   9.755   0.417  0.4598  0.5943 -0.4358
  634MOL0     H83686   4.924   9.549   0.689 -2.5500 -0.6901  0.7373
  634MOL0     H83687   4.447   9.881   1.063  0.2916 -1.7817 -0.3983
  634MOL0     H83688   4.241   9.933   1.193 -1.0257  0.0157  0.3510
  635MOL0     O83689   5.593   6.519   0.781  0.2956  0.4191  0.0961
  635MOL0     C83690   5.682   6.583   0.846  0.3467 -0.6081  0.5357
  635MOL0     O83691   5.658   6.670   0.939  0.1712 -0.3899 -0.6402
  635MOL0     C83692   5.535   6.703   0.985 -0.3856  0.1879  0.6563
  635MOL0     C83693   5.464   6.809   0.947 -0.2492  0.0354  0.5740
  635MOL0     C83694   5.335   6.830   0.999  0.4649  0.1041  0.4947
  635MOL0     C83695   5.274   6.739   1.084  0.0313  0.1457  0.0513
  635MOL0     O83696   5.146   6.737   1.140 -0.0994 -0.1050 -0.0596
  635MOL0     C83697   5.033   6.814   1.093 -0.9013  0.3955 -0.5881
  635MOL0     C83698   4.973   6.751   0.962 -0.5796 -0.1460  0.0409
  635MOL0     C83699   4.880   6.849   0.891 -0.9142 -0.3278  0.1313
  635MOL0     C83700   4.947   6.984   0.847 -0.6161  0.0510  0.5079
  635MOL0     C83701   4.893   7.048   0.719  0.4482 -0.8923 -0.1738
  635MOL0     C83702   4.739   7.085   0.710 -0.7991  0.1208 -0.0271
  635MOL0     C83703   4.725   7.188   0.588 -0.0516  0.6391 -0.3582
  635MOL0     C83704   4.602   7.287   0.584  0.8317 -0.6972 -0.4077
  635MOL0     N83705   4.521   7.300   0.707  0.5625 -0.8281 -0.2713
  635MOL0     C83706   4.419   7.219   0.759 -0.2108  0.0321  0.4720
  635MOL0     C83707   4.341   7.306   0.828  0.3271 -0.2858  0.9488
  635MOL0     C83708   4.213   7.265   0.894  0.0674 -0.5321 -0.0238
  635MOL0     C83709   4.190   7.323   1.041 -0.2672  0.1005 -0.3685
  635MOL0     C83710   4.261   7.247   1.155  0.7776  0.1508 -0.3817
  635MOL0     C83711   4.417   7.247   1.155  0.4166  0.5501  0.8556
  635MOL0     O83712   4.459   7.387   1.171 -0.0695 -0.0520 -0.7410
  635MOL0     C83713   4.587   7.428   1.122 -0.0459 -0.0775 -0.9785
  635MOL0     C83714   4.682   7.344   1.065  1.1702 -0.1321 -0.3872
  635MOL0     C83715   4.800   7.393   1.011 -0.0950 -0.2814  0.0354
  635MOL0     C83716   4.842   7.528   1.012  0.2228  0.1013  0.8280
  635MOL0     C83717   4.974   7.564   0.955  0.8976 -0.2885  0.4767
  635MOL0     O83718   5.013   7.690   0.973 -0.0056 -0.2672 -0.3038
  635MOL0     C83719   5.145   7.715   0.935  0.5146 -0.2187  1.0691
  635MOL0     C83720   5.160   7.784   0.811  0.6801 -0.6206 -0.9986
  635MOL0     C83721   5.279   7.823   0.754  0.0489  0.7449  0.0265
  635MOL0     C83722   5.398   7.773   0.810  0.5597  0.5520 -0.0470
  635MOL0     O83723   5.515   7.784   0.738 -0.2053  0.2144 -0.8436
  635MOL0     C83724   5.596   7.880   0.809  0.1301 -0.0472 -0.5139
  635MOL0     C83725   5.748   7.841   0.832  0.3502  0.1633 -0.6165
  635MOL0     C83726   5.817   7.816   0.704  1.0877 -0.0248  0.5659
  635MOL0     C83727   5.809   7.673   0.665  0.4377  0.3308  0.0227
  635MOL0     C83728   5.771   7.651   0.516  0.1894 -0.0883 -0.4130
  635MOL0     C83729   5.836   7.533   0.441 -0.1283  0.9417  0.0748
  635MOL0     C83730   5.785   7.398   0.480  0.1682 -0.2168 -0.7389
  635MOL0     C83731   5.830   7.289   0.385 -0.8182  0.2189 -0.3578
  635MOL0    Cl83732   5.991   7.222   0.421  0.1204 -0.1205 -0.2401
  635MOL0     C83733   5.389   7.683   0.925 -0.4338  0.0067  0.4131
  635MOL0     C83734   5.263   7.665   0.991 -0.3197 -0.6097  0.2309
  635MOL0     O83735   5.043   7.479   0.902 -0.4294  0.0309 -0.1663
  635MOL0     C83736   4.756   7.613   1.088  0.5276  0.6679  0.2516
  635MOL0     C83737   4.632   7.565   1.137 -0.1716  0.1704 -0.1124
  635MOL0     N83738   4.401   7.432   0.823  0.5080  0.0428 -0.0373
  635MOL0     N83739   4.509   7.415   0.765 -0.4520 -0.3622  0.7568
  635MOL0     C83740   5.356   6.626   1.126 -0.7074 -0.4954  0.4622
  635MOL0     C83741   5.485   6.615   1.076 -0.1447 -0.0576 -0.2125
  635MOL0     C83742   5.823   6.588   0.804 -0.8853  0.8666  0.3779
  635MOL0     C83743   5.906   6.690   0.854  0.6401  0.5803 -0.4357
  635MOL0     C83744   6.033   6.683   0.811  0.1959  0.8678 -0.4403
  635MOL0     C83745   6.078   6.592   0.719 -0.8262  0.6803 -0.4155
  635MOL0     O83746   6.208   6.619   0.671 -0.3630 -0.1619 -0.8797
  635MOL0     C83747   6.263   6.540   0.553 -0.6804 -1.0023 -0.1922
  635MOL0     C83748   6.324   6.414   0.617  0.7052  0.7221  0.8302
  635MOL0     C83749   6.414   6.448   0.739  0.0238 -0.8238 -0.3322
  635MOL0     C83750   6.371   6.368   0.870 -1.1147 -0.0033  1.0988
  635MOL0     C83751   6.369   6.217   0.852  0.1186  0.2612 -0.1206
  635MOL0     C83752   6.381   6.101   0.856 -0.1211  0.5339  0.6954
  635MOL0     C83753   5.994   6.491   0.671  0.3176  0.0026  0.0667
  635MOL0     C83754   5.866   6.494   0.710 -0.0502 -0.2584 -0.1367
  635MOL0     H83755   5.508   6.883   0.880  1.0493  0.9570  2.3566
  635MOL0     H83756   5.288   6.926   0.983  0.1563 -0.3020 -1.3317
  635MOL0     H83757   5.068   6.914   1.068  2.1775  1.0472  4.7342
  635MOL0     H83758   4.964   6.829   1.177  0.9259 -2.2441  1.5997
  635MOL0     H83759   4.929   6.657   0.996  1.0981 -1.7891 -2.0576
  635MOL0     H83760   5.057   6.725   0.897 -1.2505 -1.0073 -0.4994
  635MOL0     H83761   4.782   6.862   0.936 -0.2108 -2.0492  2.2956
  635MOL0     H83762   4.860   6.788   0.802  4.1324 -4.8940  1.5644
  635MOL0     H83763   4.927   7.054   0.928  0.2187  1.3209 -0.3355
  635MOL0     H83764   5.051   6.957   0.827 -0.8586 -0.2923 -0.3819
  635MOL0     H83765   4.905   6.973   0.641 -5.1542 -1.1291 -1.2319
  635MOL0     H83766   4.952   7.138   0.701 -0.4559 -0.3084 -0.2907
  635MOL0     H83767   4.709   7.112   0.812 -2.2519  0.2808 -0.4648
  635MOL0     H83768   4.686   6.992   0.685 -0.4953 -1.3423  4.0218
  635MOL0     H83769   4.812   7.254   0.583 -0.1895  0.9464  0.9139
  635MOL0     H83770   4.711   7.122   0.502  3.3373 -3.6938  1.9905
  635MOL0     H83771   4.540   7.250   0.501  1.5547 -2.5392 -0.1821
  635MOL0     H83772   4.636   7.386   0.552 -1.1694  0.3849  0.6345
  635MOL0     H83773   4.393   7.116   0.740 -0.8427  0.7008 -2.8176
  635MOL0     H83774   4.197   7.157   0.896 -0.0171 -0.5260 -0.3821
  635MOL0     H83775   4.137   7.309   0.830 -1.9494 -3.7036 -0.0351
  635MOL0     H83776   4.081   7.321   1.056 -0.1325 -1.0916  0.5358
  635MOL0     H83777   4.217   7.429   1.054  1.1564 -0.2345 -0.4997
  635MOL0     H83778   4.227   7.293   1.248 -0.8323 -1.0697 -0.3382
  635MOL0     H83779   4.242   7.139   1.162 -1.8891  0.6198  0.7569
  635MOL0     H83780   4.458   7.206   1.063  3.5363 -1.0838  2.7770
  635MOL0     H83781   4.468   7.187   1.231  1.8452  0.6793  0.0322
  635MOL0     H83782   4.669   7.237   1.060 -0.3723 -0.1588  2.5123
  635MOL0     H83783   4.865   7.328   0.954 -0.4061 -0.5838  0.0202
  635MOL0     H83784   5.069   7.814   0.759  1.4185  1.7448 -1.0466
  635MOL0     H83785   5.279   7.886   0.666 -3.1184  1.5982  0.5082
  635MOL0     H83786   5.564   7.907   0.910  3.3622  1.2186  0.2886
  635MOL0     H83787   5.594   7.967   0.743 -4.1888 -0.7354 -1.6163
  635MOL0     H83788   5.739   7.759   0.904  1.0693  0.1970 -0.4876
  635MOL0     H83789   5.805   7.916   0.888 -0.1809 -0.7529  1.2390
  635MOL0     H83790   5.924   7.836   0.705  1.1079  0.1970 -1.5725
  635MOL0     H83791   5.779   7.872   0.618  2.4279 -0.7162 -0.5144
  635MOL0     H83792   5.905   7.623   0.681  2.8438  4.6652  0.8739
  635MOL0     H83793   5.730   7.623   0.722  1.4983 -1.8306 -0.2842
  635MOL0     H83794   5.794   7.737   0.452 -4.1720 -0.1036 -2.3891
  635MOL0     H83795   5.662   7.643   0.508  0.0554 -1.5639  1.9367
  635MOL0     H83796   5.945   7.538   0.436 -0.0839  0.1114  0.1126
  635MOL0     H83797   5.787   7.545   0.344  3.8504 -4.9311 -3.2884
  635MOL0     H83798   5.803   7.377   0.586 -0.2347  3.1186  0.1126
  635MOL0     H83799   5.678   7.406   0.458  0.3131 -3.3701 -3.4114
  635MOL0     H83800   5.845   7.329   0.284 -0.1316  2.8877  0.7191
  635MOL0     H83801   5.751   7.214   0.374 -0.2512 -0.3765 -0.4293
  635MOL0     H83802   5.483   7.636   0.952  0.4485  1.3111 -0.2508
  635MOL0     H83803   5.246   7.591   1.068  1.4387 -2.4901 -1.0704
  635MOL0     H83804   4.768   7.721   1.081 -2.2529  1.0687  0.5301
  635MOL0     H83805   4.557   7.628   1.183 -0.3501 -0.3084  0.2552
  635MOL0     H83806   5.321   6.557   1.201  1.6711 -2.0669  0.2180
  635MOL0     H83807   5.548   6.542   1.126 -0.4795  0.8734  1.6389
  635MOL0     H83808   5.884   6.759   0.935  1.0256 -2.4047  2.4271
  635MOL0     H83809   6.089   6.772   0.837 -0.4811  1.1221  0.1727
  635MOL0     H83810   6.339   6.591   0.494 -0.5932 -2.1499 -1.1330
  635MOL0     H83811   6.183   6.501   0.488 -0.4042 -0.2797 -0.9876
  635MOL0     H83812   6.237   6.357   0.650  2.0785 -1.9091  0.1606
  635MOL0     H83813   6.376   6.355   0.542 -0.6610  1.9944 -1.2366
  635MOL0     H83814   6.407   6.555   0.760  1.6522 -0.7035 -0.2966
  635MOL0     H83815   6.518   6.423   0.716 -0.0887 -0.1852 -1.6495
  635MOL0     H83816   6.436   6.404   0.950  1.0643  1.9161 -1.3241
  635MOL0     H83817   6.279   6.408   0.912  0.5009  2.4188  2.6266
  635MOL0     H83818   6.367   5.996   0.877  0.8621  0.2792  0.1444
  635MOL0     H83819   6.015   6.434   0.581  0.8701 -1.1307  0.8867
  635MOL0     H83820   5.797   6.422   0.667  0.3466 -1.6741  1.5045
  636MOL0     O83821   0.047   9.564   3.221  0.1936 -0.6706 -0.5514
  636MOL0     C83822   0.144   9.523   3.161 -0.1427 -1.3680  0.2185
  636MOL0     O83823   0.136   9.443   3.054  0.0377  0.2813 -0.9626
  636MOL0     C83824   0.029   9.458   2.973  0.0295 -0.5901  1.2228
  636MOL0     C83825  -0.075   9.557   2.976 -0.1226 -0.0750  0.7558
  636MOL0     C83826  -0.176   9.533   2.884 -0.2486 -0.0287 -0.2792
  636MOL0     C83827  -0.182   9.431   2.797  0.1600 -0.3598  0.0145
  636MOL0     O83828  -0.308   9.405   2.747  0.3603  0.6523 -0.4299
  636MOL0     C83829  -0.381   9.306   2.820  0.4268 -1.3011 -0.0723
  636MOL0     C83830  -0.529   9.304   2.747  0.1246  0.2194  0.7648
  636MOL0     C83831  -0.534   9.336   2.589 -0.4225 -1.1729 -0.6841
  636MOL0     C83832  -0.509   9.216   2.500 -0.4229  0.3274 -0.1032
  636MOL0     C83833  -0.550   9.249   2.359  0.3292 -0.4479  0.2434
  636MOL0     C83834  -0.510   9.140   2.267 -0.0434  0.2055  0.5628
  636MOL0     C83835  -0.556   9.168   2.112 -0.1081  0.0374 -0.2521
  636MOL0     C83836  -0.702   9.141   2.090 -0.4204 -0.3671  0.3544
  636MOL0     N83837  -0.734   9.194   1.952  0.4521 -0.3384  0.4316
  636MOL0     C83838  -0.711   9.131   1.832 -0.0472 -0.3817 -0.8539
  636MOL0     C83839  -0.799   9.174   1.738 -0.1752  0.0659  0.1146
  636MOL0     C83840  -0.822   9.133   1.592  0.7392  0.6425 -1.2867
  636MOL0     C83841  -0.986   9.104   1.584 -0.3328 -0.3905  1.0079
  636MOL0     C83842  -1.042   9.003   1.685  0.1479 -0.5794 -0.6042
  636MOL0     C83843  -1.182   8.983   1.659  0.4800 -0.2746  0.1327
  636MOL0     O83844  -1.240   8.939   1.790 -0.3887  0.3361  0.2708
  636MOL0     C83845  -1.360   8.862   1.788 -1.0074 -0.1477  0.1700
  636MOL0     C83846  -1.425   8.802   1.675  0.2247 -0.0011  0.0248
  636MOL0     C83847  -1.549   8.737   1.705 -0.5396  1.0063 -0.5897
  636MOL0     C83848  -1.599   8.728   1.835  0.0179  0.9636 -0.7593
  636MOL0     C83849  -1.713   8.635   1.856  0.5025  1.9487 -1.0138
  636MOL0     O83850  -1.729   8.522   1.775 -0.5016  0.0011 -0.1722
  636MOL0     C83851  -1.827   8.430   1.796 -0.8797 -0.2376  0.2029
  636MOL0     C83852  -1.937   8.417   1.877 -0.3392 -1.1153  0.0375
  636MOL0     C83853  -2.024   8.302   1.864 -0.2110 -0.2273 -0.0142
  636MOL0     C83854  -1.980   8.190   1.781 -0.0553 -1.0436  0.2361
  636MOL0     O83855  -2.051   8.068   1.773  0.1006 -0.0871  0.2356
  636MOL0     C83856  -2.123   8.027   1.890  0.9364 -0.1747 -0.5618
  636MOL0     C83857  -2.133   7.875   1.906 -0.2132 -0.1547  0.0759
  636MOL0     C83858  -1.994   7.804   1.883  0.0546  0.1318  0.6485
  636MOL0     C83859  -1.920   7.837   2.024 -0.1526  1.0325  0.5136
  636MOL0     C83860  -1.795   7.751   2.016 -0.1545  0.1166  0.6417
  636MOL0     C83861  -1.729   7.740   2.154 -0.3509  0.0320 -0.4462
  636MOL0     C83862  -1.677   7.889   2.196  0.2693 -0.9127 -0.3470
  636MOL0     C83863  -1.625   7.885   2.344 -0.1806  0.5087 -0.6196
  636MOL0    Cl83864  -1.518   7.739   2.348 -0.0908  0.1302  0.0475
  636MOL0     C83865  -1.864   8.203   1.708  0.7295 -0.2303  1.0504
  636MOL0     C83866  -1.789   8.319   1.714  0.3765  0.3147  0.0710
  636MOL0     O83867  -1.780   8.656   1.964  0.0166  0.3935 -0.6479
  636MOL0     C83868  -1.525   8.781   1.939 -0.5905 -0.3323 -0.8102
  636MOL0     C83869  -1.402   8.840   1.921  0.0247 -0.2685 -0.2732
  636MOL0     N83870  -0.877   9.275   1.802  0.5428  0.1733 -0.0094
  636MOL0     N83871  -0.841   9.271   1.931  0.0663 -0.3534  0.0246
  636MOL0     C83872  -0.082   9.338   2.793  0.6271  0.1409  0.1217
  636MOL0     C83873   0.026   9.355   2.878 -0.3710  0.3095 -0.3445
  636MOL0     C83874   0.276   9.552   3.214 -0.7577 -0.1078  0.6456
  636MOL0     C83875   0.386   9.459   3.203 -0.3973  0.0118 -0.5467
  636MOL0     C83876   0.521   9.492   3.228  1.2064 -0.2601  0.2990
  636MOL0     C83877   0.542   9.621   3.285 -0.0751  0.0236  0.9090
  636MOL0     O83878   0.673   9.662   3.304  0.0556 -0.8189 -0.0524
  636MOL0     C83879   0.733   9.599   3.418  0.8133 -0.2800 -0.1649
  636MOL0     C83880   0.887   9.584   3.408  0.3067 -0.3793  0.5655
  636MOL0     C83881   0.955   9.618   3.542 -0.1784 -0.8662  0.2760
  636MOL0     C83882   1.094   9.551   3.551  0.8215  0.5760 -0.0818
  636MOL0     C83883   1.201   9.626   3.481  0.8177  0.3398 -0.1298
  636MOL0     C83884   1.283   9.674   3.413 -0.2209 -0.3868  0.4014
  636MOL0     C83885   0.441   9.721   3.286 -0.8436  0.4167  0.5205
  636MOL0     C83886   0.311   9.683   3.255 -0.2317 -0.2768  1.4460
  636MOL0     H83887  -0.077   9.640   3.046  1.0374 -1.1855  2.1840
  636MOL0     H83888  -0.252   9.611   2.884  0.8504  1.1060 -1.6374
  636MOL0     H83889  -0.381   9.331   2.926  1.7404  0.2031 -0.3889
  636MOL0     H83890  -0.339   9.208   2.794  4.4254 -0.3937  2.2577
  636MOL0     H83891  -0.583   9.390   2.788 -2.0871 -0.2869 -0.9046
  636MOL0     H83892  -0.585   9.214   2.770 -0.4026 -0.2307 -1.9118
  636MOL0     H83893  -0.458   9.413   2.570 -1.1657 -0.2309  0.0455
  636MOL0     H83894  -0.627   9.389   2.567 -0.2449 -1.0001 -1.0207
  636MOL0     H83895  -0.401   9.197   2.500 -0.7547 -1.9040  0.6441
  636MOL0     H83896  -0.554   9.127   2.545 -0.6087  0.8834  0.8310
  636MOL0     H83897  -0.517   9.345   2.317 -1.9017  2.2345  3.9318
  636MOL0     H83898  -0.658   9.267   2.369  0.6038  1.2439  0.5125
  636MOL0     H83899  -0.538   9.042   2.304  0.0471 -0.6281 -1.4233
  636MOL0     H83900  -0.402   9.120   2.264 -0.2093 -0.6574  0.1566
  636MOL0     H83901  -0.514   9.267   2.091  0.4554 -0.1966 -0.2531
  636MOL0     H83902  -0.505   9.103   2.041  1.6415  1.5001 -0.4133
  636MOL0     H83903  -0.749   9.189   2.176  0.8167  1.9851 -0.1811
  636MOL0     H83904  -0.710   9.032   2.090  0.0347 -0.4403 -1.7554
  636MOL0     H83905  -0.630   9.061   1.812 -0.2266 -1.0033  0.4787
  636MOL0     H83906  -0.757   9.048   1.567  0.0091 -0.8453  1.4512
  636MOL0     H83907  -0.789   9.219   1.533  2.8758 -1.8970 -4.1896
  636MOL0     H83908  -0.998   9.072   1.480 -0.8117  0.8413  0.6626
  636MOL0     H83909  -1.035   9.201   1.594 -1.2602 -0.7683  0.2338
  636MOL0     H83910  -0.980   8.913   1.682  1.7151  0.2197  2.7562
  636MOL0     H83911  -1.030   9.046   1.785 -0.2878 -1.6214 -0.0836
  636MOL0     H83912  -1.184   8.911   1.576  2.8581  1.9588 -2.0783
  636MOL0     H83913  -1.226   9.075   1.619  1.7497  0.1575 -0.3279
  636MOL0     H83914  -1.377   8.825   1.581  0.3913  0.6789  0.2693
  636MOL0     H83915  -1.609   8.700   1.622 -0.7328  1.2134 -0.5434
  636MOL0     H83916  -1.973   8.507   1.924 -1.6520 -0.4406 -2.1535
  636MOL0     H83917  -2.113   8.303   1.925 -0.8804  0.2219 -0.9804
  636MOL0     H83918  -2.227   8.061   1.879  0.4241 -0.7265  1.9958
  636MOL0     H83919  -2.074   8.077   1.974 -1.5365  0.2183  0.7483
  636MOL0     H83920  -2.198   7.843   1.824  0.0667 -1.6939  0.4149
  636MOL0     H83921  -2.184   7.846   1.998 -0.3117 -2.2236 -0.5866
  636MOL0     H83922  -1.950   7.855   1.796 -1.7405  0.6930  0.0317
  636MOL0     H83923  -2.004   7.696   1.869 -0.3146  0.3208 -0.7250
  636MOL0     H83924  -1.912   7.943   2.048 -2.7327  0.4594  4.9433
  636MOL0     H83925  -1.982   7.796   2.104  0.4964  0.5402  0.7680
  636MOL0     H83926  -1.727   7.783   1.936  0.7505  0.8004  1.6555
  636MOL0     H83927  -1.825   7.649   1.993 -0.6826 -0.2595  2.8358
  636MOL0     H83928  -1.648   7.671   2.129 -0.0724  1.1522 -2.9567
  636MOL0     H83929  -1.803   7.699   2.223 -2.5786 -0.1869 -2.8074
  636MOL0     H83930  -1.595   7.917   2.129  0.5600 -0.5373  0.1628
  636MOL0     H83931  -1.763   7.956   2.203 -0.2943 -1.6964  0.5550
  636MOL0     H83932  -1.716   7.884   2.404 -0.1131  0.3037 -0.5218
  636MOL0     H83933  -1.565   7.973   2.369  0.0841  0.9904 -2.7723
  636MOL0     H83934  -1.846   8.131   1.629  2.8112  1.6938 -0.3764
  636MOL0     H83935  -1.718   8.334   1.633 -0.2725  0.6541 -0.4505
  636MOL0     H83936  -1.567   8.781   2.039 -0.8699 -1.3033 -0.9196
  636MOL0     H83937  -1.342   8.883   2.000  0.8397 -2.3233  0.2845
  636MOL0     H83938  -0.091   9.242   2.742 -2.6338 -0.1207  0.9479
  636MOL0     H83939   0.102   9.279   2.896 -0.8401 -0.1708 -0.3612
  636MOL0     H83940   0.383   9.360   3.158  4.2879 -1.0634  0.9335
  636MOL0     H83941   0.601   9.418   3.223 -0.2376 -1.8335 -0.6519
  636MOL0     H83942   0.698   9.498   3.438  1.9552 -0.0616  3.8102
  636MOL0     H83943   0.707   9.652   3.510  0.6299 -0.5888 -0.0406
  636MOL0     H83944   0.919   9.488   3.368  2.4156 -1.3646  4.1759
  636MOL0     H83945   0.914   9.654   3.328 -2.5333  0.1156 -0.0831
  636MOL0     H83946   0.895   9.593   3.629 -0.3758 -0.4145  0.2753
  636MOL0     H83947   0.982   9.724   3.544  1.5392 -1.2797  1.3601
  636MOL0     H83948   1.120   9.538   3.656 -1.5036 -0.0960  0.4702
  636MOL0     H83949   1.092   9.451   3.506 -1.6926  0.6026 -0.1619
  636MOL0     H83950   1.358   9.708   3.344  0.8015 -0.7542  1.3003
  636MOL0     H83951   0.468   9.826   3.279  0.1997  0.1217 -0.0811
  636MOL0     H83952   0.230   9.754   3.266 -0.3671 -0.1424 -0.1294
  637MOL0     O83953   7.712   7.498   7.788  0.6830 -0.1907 -0.6066
  637MOL0     C83954   7.770   7.514   7.682  0.0095  0.1913  0.4436
  637MOL0     O83955   7.903   7.506   7.670  0.1032  0.0665  1.2590
  637MOL0     C83956   7.979   7.481   7.780 -0.6026  0.1409 -0.4862
  637MOL0     C83957   8.061   7.368   7.772 -1.3403 -1.1508  0.6076
  637MOL0     C83958   8.154   7.344   7.875 -0.7846 -0.0131 -0.4692
  637MOL0     C83959   8.163   7.430   7.984 -0.6946 -0.0809  0.3496
  637MOL0     O83960   8.256   7.393   8.079  0.2332  0.1773 -0.5245
  637MOL0     C83961   8.281   7.462   8.203  0.6217 -0.3533  0.2308
  637MOL0     C83962   8.348   7.599   8.194  0.1286 -0.4578  0.0591
  637MOL0     C83963   8.387   7.665   8.328  0.4480  0.2383  0.5488
  637MOL0     C83964   8.268   7.658   8.431  0.2462 -0.1074  0.3472
  637MOL0     C83965   8.268   7.764   8.552 -0.6909  1.0195  0.8366
  637MOL0     C83966   8.166   7.714   8.660 -0.0995  0.1290  0.0618
  637MOL0     C83967   8.165   7.814   8.786  0.8156  0.4173  0.0837
  637MOL0     C83968   8.041   7.774   8.874  0.4929  0.0378  0.2637
  637MOL0     N83969   8.021   7.879   8.987  0.2010  0.5389  0.6250
  637MOL0     C83970   8.100   7.886   9.101  0.3053  0.3989 -0.0860
  637MOL0     C83971   8.036   7.982   9.175 -1.1972  0.2360 -0.2621
  637MOL0     C83972   8.071   8.040   9.311 -0.3169 -0.0739 -0.0772
  637MOL0     C83973   8.221   8.077   9.308  0.0979 -0.2242 -0.8062
  637MOL0     C83974   8.253   8.218   9.241 -0.2547  0.0624 -0.4284
  637MOL0     C83975   8.226   8.229   9.091 -0.5469  0.7393  1.1693
  637MOL0     O83976   8.310   8.145   9.007 -0.0135  0.6927  0.3837
  637MOL0     C83977   8.299   8.154   8.867 -0.1054 -0.1356 -0.0746
  637MOL0     C83978   8.393   8.088   8.788 -0.8770  0.0984  0.7425
  637MOL0     C83979   8.390   8.089   8.644 -0.1703 -0.1859 -0.4999
  637MOL0     C83980   8.277   8.147   8.575 -0.5418 -0.2328  0.8475
  637MOL0     C83981   8.254   8.134   8.422 -0.3554  0.1466 -0.1059
  637MOL0     O83982   8.347   8.078   8.348 -0.1133  0.8706  0.2219
  637MOL0     C83983   8.322   8.054   8.216  0.3044 -0.4180  0.0561
  637MOL0     C83984   8.390   8.143   8.122  0.0946 -0.6976  0.4339
  637MOL0     C83985   8.373   8.114   7.987 -0.6311  0.2256  0.2722
  637MOL0     C83986   8.288   8.013   7.937  0.3939  0.7189  0.4935
  637MOL0     O83987   8.241   8.016   7.807 -0.0768 -0.0775 -0.2104
  637MOL0     C83988   8.103   7.996   7.809  0.6599  0.4292  0.3469
  637MOL0     C83989   8.030   8.038   7.675 -0.5447 -0.7566 -0.0083
  637MOL0     C83990   7.903   7.951   7.659  0.4372  0.2799 -0.2724
  637MOL0     C83991   7.818   8.000   7.534  0.0163 -0.2059  0.7934
  637MOL0     C83992   7.672   7.934   7.525 -0.0257 -0.1582 -0.7196
  637MOL0     C83993   7.583   8.033   7.454  0.2932 -0.1760  0.2115
  637MOL0     C83994   7.443   7.982   7.428  1.1977 -0.7157 -0.9162
  637MOL0     C83995   7.434   7.966   7.279 -0.1871  0.8872 -1.1985
  637MOL0    Cl83996   7.275   7.899   7.231 -0.1562 -0.0963  0.0942
  637MOL0     C83997   8.241   7.920   8.032 -0.5722  0.1856  0.5635
  637MOL0     C83998   8.261   7.940   8.167  0.3123  1.3337 -0.2333
  637MOL0     O83999   8.150   8.178   8.380  0.2949  0.6532 -0.1786
  637MOL0     C84000   8.182   8.210   8.656  0.1991  0.3408 -0.6134
  637MOL0     C84001   8.196   8.214   8.801  0.3719  0.5261  0.2231
  637MOL0     N84002   7.917   8.023   9.117  0.0036  0.3240  0.6299
  637MOL0     N84003   7.922   7.973   9.000 -0.2240  0.1083 -0.1286
  637MOL0     C84004   8.082   7.543   7.994  0.2289  0.0526  0.0434
  637MOL0     C84005   7.997   7.571   7.890  0.8047 -0.4385 -0.2576
  637MOL0     C84006   7.691   7.543   7.565  0.1835  0.6399 -0.4160
  637MOL0     C84007   7.555   7.572   7.573  0.1937 -0.4923 -0.0544
  637MOL0     C84008   7.482   7.609   7.458 -0.4704  0.3838 -0.5005
  637MOL0     C84009   7.534   7.591   7.331  0.4564 -0.2916 -0.2944
  637MOL0     O84010   7.450   7.602   7.221 -0.1029 -0.4928  0.1860
  637MOL0     C84011   7.500   7.599   7.076 -0.3444 -0.1202 -0.5873
  637MOL0     C84012   7.384   7.556   6.991  0.5401  0.0755 -0.1425
  637MOL0     C84013   7.277   7.661   7.006 -0.8773 -0.1778 -0.1339
  637MOL0     C84014   7.180   7.653   6.892  0.7830 -0.1413 -0.6706
  637MOL0     C84015   7.120   7.521   6.873 -1.1041 -0.0668  0.3631
  637MOL0     C84016   7.064   7.409   6.858 -0.6729  0.0331  0.6291
  637MOL0     C84017   7.670   7.556   7.320 -0.1593 -0.9071  1.0383
  637MOL0     C84018   7.752   7.533   7.432 -1.1444 -0.8528 -0.6451
  637MOL0     H84019   8.052   7.299   7.689 -1.7816 -2.0152  1.3566
  637MOL0     H84020   8.237   7.277   7.856  2.0862  2.9210  0.6599
  637MOL0     H84021   8.337   7.396   8.270 -2.7780 -2.6626  1.0670
  637MOL0     H84022   8.184   7.476   8.252 -0.6387  3.4487 -2.7752
  637MOL0     H84023   8.281   7.668   8.142 -1.5394 -1.0028  1.4161
  637MOL0     H84024   8.439   7.598   8.133  0.3876 -0.2224  0.4361
  637MOL0     H84025   8.405   7.769   8.299 -0.4259  0.1123 -0.5502
  637MOL0     H84026   8.485   7.631   8.361  1.8352  0.2550 -3.0662
  637MOL0     H84027   8.177   7.674   8.373 -1.0023 -0.0222  2.2515
  637MOL0     H84028   8.262   7.563   8.484 -0.0981  1.3295  3.0889
  637MOL0     H84029   8.232   7.860   8.515 -0.4253  1.1924  1.0296
  637MOL0     H84030   8.360   7.788   8.606 -1.4418  2.3863  1.5529
  637MOL0     H84031   8.186   7.613   8.699  2.9425 -0.1462 -1.8859
  637MOL0     H84032   8.068   7.715   8.612 -0.5592 -1.2416  0.8803
  637MOL0     H84033   8.260   7.803   8.839 -0.3186  0.2531  2.1428
  637MOL0     H84034   8.154   7.918   8.756  1.9168  0.7051  0.6102
  637MOL0     H84035   8.053   7.671   8.909 -0.4373 -1.7141 -3.9289
  637MOL0     H84036   7.960   7.758   8.802  0.6694  0.3333 -0.0097
  637MOL0     H84037   8.191   7.830   9.123 -0.8555 -1.0221  1.3343
  637MOL0     H84038   8.061   7.964   9.390  4.5617  0.4426  1.3882
  637MOL0     H84039   8.008   8.125   9.338 -0.1747  0.4906 -1.4402
  637MOL0     H84040   8.291   8.010   9.257 -0.1653 -1.4572  0.3844
  637MOL0     H84041   8.249   8.077   9.414 -1.4194  1.7320 -0.3369
  637MOL0     H84042   8.202   8.306   9.283 -2.1366  1.5190 -5.0566
  637MOL0     H84043   8.360   8.237   9.251  0.2749 -1.1750 -3.0519
  637MOL0     H84044   8.260   8.332   9.075 -2.6931  1.8933  3.3471
  637MOL0     H84045   8.124   8.209   9.059 -0.0490  0.1256 -0.0899
  637MOL0     H84046   8.467   8.030   8.843 -0.7240 -1.2211 -0.7653
  637MOL0     H84047   8.471   8.037   8.594  1.2221  0.2451  1.2105
  637MOL0     H84048   8.435   8.234   8.160 -2.8510  0.8150  0.5985
  637MOL0     H84049   8.399   8.186   7.910 -3.8682  1.8210  0.4889
  637MOL0     H84050   8.063   8.053   7.894  1.7206  0.4985  0.8112
  637MOL0     H84051   8.080   7.889   7.817  2.7565 -0.1411 -0.7745
  637MOL0     H84052   8.097   8.019   7.590 -1.9492  0.1225 -1.3749
  637MOL0     H84053   8.010   8.145   7.670 -2.1308 -1.0885 -1.8378
  637MOL0     H84054   7.839   7.971   7.745 -1.6251 -0.1671 -1.6103
  637MOL0     H84055   7.916   7.844   7.644 -0.3587  0.1720 -0.2345
  637MOL0     H84056   7.813   8.109   7.537 -1.5896 -0.2435  0.3356
  637MOL0     H84057   7.878   7.978   7.446  0.9476  1.0387  1.0816
  637MOL0     H84058   7.628   7.918   7.623  0.5775  0.7702 -0.2773
  637MOL0     H84059   7.696   7.846   7.466 -1.2488  0.7452 -2.6663
  637MOL0     H84060   7.643   8.061   7.366  2.1864  2.8605  2.2487
  637MOL0     H84061   7.573   8.117   7.524  1.0339  1.9989 -2.1045
  637MOL0     H84062   7.425   7.883   7.470 -0.9571  0.6665  1.7127
  637MOL0     H84063   7.367   8.056   7.455  0.4215 -2.1932  1.1648
  637MOL0     H84064   7.508   7.896   7.237  0.7335  1.5645 -0.7400
  637MOL0     H84065   7.453   8.063   7.232  1.3844  0.7344 -0.9229
  637MOL0     H84066   8.179   7.837   8.000 -2.0960  1.1805  0.8341
  637MOL0     H84067   8.206   7.876   8.235 -0.7495  1.0335 -1.3282
  637MOL0     H84068   8.096   8.253   8.607  1.7324  2.4705 -1.5808
  637MOL0     H84069   8.113   8.262   8.851 -2.0811 -1.3491 -1.8297
  637MOL0     H84070   8.084   7.615   8.075 -2.3666  2.3775 -1.8015
  637MOL0     H84071   7.943   7.665   7.878 -0.5805 -1.2560 -0.6930
  637MOL0     H84072   7.493   7.577   7.662 -0.3340  0.5704 -0.4613
  637MOL0     H84073   7.377   7.621   7.484 -0.5433 -2.6918  1.1084
  637MOL0     H84074   7.574   7.518   7.073  0.0988  0.2181  0.7703
  637MOL0     H84075   7.555   7.691   7.056  2.5552 -1.3921  0.9305
  637MOL0     H84076   7.417   7.549   6.887  3.4734 -1.5970  0.7820
  637MOL0     H84077   7.365   7.453   7.019  0.1112  0.2377  0.1714
  637MOL0     H84078   7.315   7.764   7.006 -3.6786  1.0591 -2.8176
  637MOL0     H84079   7.217   7.628   7.091  1.0181 -1.7246  0.6731
  637MOL0     H84080   7.088   7.712   6.900 -0.4348 -1.6904 -2.2789
  637MOL0     H84081   7.220   7.683   6.794 -1.8852  3.8231 -0.7968
  637MOL0     H84082   7.028   7.309   6.844 -2.7409  1.0477 -1.8308
  637MOL0     H84083   7.714   7.540   7.222 -3.7984  1.5752 -1.2462
  637MOL0     H84084   7.844   7.482   7.407  0.4065  1.4003  0.0842
  638MOL0     O84085   4.693   3.907   0.714 -0.2442 -0.5420 -0.2097
  638MOL0     C84086   4.634   3.820   0.654  0.4645  0.8970 -0.0119
  638MOL0     O84087   4.541   3.730   0.705 -0.2381  0.0308  0.0186
  638MOL0     C84088   4.514   3.693   0.828 -0.4603 -0.5690  0.3960
  638MOL0     C84089   4.389   3.641   0.860 -0.8343 -0.4936  0.0037
  638MOL0     C84090   4.367   3.582   0.985 -0.6683  0.6254  0.1042
  638MOL0     C84091   4.462   3.584   1.086  0.3223 -0.3911  0.7250
  638MOL0     O84092   4.458   3.533   1.214 -0.5368  0.4768  0.5784
  638MOL0     C84093   4.332   3.500   1.283  0.1789  0.2763 -0.6492
  638MOL0     C84094   4.341   3.367   1.370  0.5484 -0.4256  0.8081
  638MOL0     C84095   4.202   3.310   1.389 -0.7993  0.1260  0.0349
  638MOL0     C84096   4.203   3.201   1.497 -0.0579  0.5125 -0.0220
  638MOL0     C84097   4.247   3.243   1.634 -0.2863  0.4665 -0.0911
  638MOL0     C84098   4.203   3.134   1.731 -0.1498  0.4428  0.2425
  638MOL0     C84099   4.259   3.144   1.879 -0.9859 -1.0352 -0.2533
  638MOL0     C84100   4.211   3.278   1.948 -0.0920  0.0129  0.3893
  638MOL0     N84101   4.256   3.293   2.088 -0.4651 -0.1677 -0.1519
  638MOL0     C84102   4.394   3.291   2.127  0.8235  0.3390 -0.2335
  638MOL0     C84103   4.371   3.284   2.266 -0.6350 -0.7034 -0.3547
  638MOL0     C84104   4.490   3.257   2.361  0.8456  0.2403 -0.2966
  638MOL0     C84105   4.583   3.371   2.364 -0.2143  0.6895  0.7813
  638MOL0     C84106   4.667   3.345   2.482 -0.1936 -0.5593 -0.7481
  638MOL0     C84107   4.785   3.439   2.486 -0.4188  1.1901  0.2159
  638MOL0     O84108   4.863   3.435   2.606  0.1934  0.4593 -0.3900
  638MOL0     C84109   4.997   3.395   2.579  0.0204  0.9999 -1.2878
  638MOL0     C84110   5.081   3.499   2.538  0.0629 -0.3968  0.6424
  638MOL0     C84111   5.214   3.474   2.510  0.5136  0.4839  0.5600
  638MOL0     C84112   5.258   3.341   2.513  0.1256  1.1001 -0.7350
  638MOL0     C84113   5.394   3.309   2.477 -0.2680  0.5326  0.2279
  638MOL0     O84114   5.424   3.175   2.454 -0.1381  0.3535 -0.3488
  638MOL0     C84115   5.559   3.143   2.457 -0.2498  0.1337  0.8952
  638MOL0     C84116   5.616   3.057   2.365 -0.5798  0.6784 -0.2671
  638MOL0     C84117   5.750   3.007   2.385  0.5237 -0.8546 -0.4423
  638MOL0     C84118   5.835   3.062   2.477  0.6571 -0.2101 -0.6024
  638MOL0     O84119   5.967   3.035   2.505 -0.0173  0.0860 -0.0419
  638MOL0     C84120   6.033   2.944   2.418  0.8382 -0.0126 -0.4794
  638MOL0     C84121   6.053   3.021   2.284  0.3434 -0.4414  0.1211
  638MOL0     C84122   6.119   2.940   2.181 -0.0316  0.1353  0.3065
  638MOL0     C84123   6.030   2.845   2.097  0.3269 -0.0433  0.8291
  638MOL0     C84124   6.103   2.786   1.973 -0.2835  0.4089 -0.3454
  638MOL0     C84125   6.108   2.877   1.855 -0.6645  0.0986 -0.3825
  638MOL0     C84126   5.981   2.900   1.772  0.6659  0.2156 -0.5001
  638MOL0     C84127   5.894   2.783   1.743  0.3624 -0.2574 -1.1014
  638MOL0    Cl84128   5.995   2.655   1.676  0.2679  0.2815 -0.1061
  638MOL0     C84129   5.774   3.152   2.565  0.4862  1.3108 -0.1697
  638MOL0     C84130   5.640   3.186   2.559  1.3778  0.3107 -0.1430
  638MOL0     O84131   5.476   3.400   2.501 -0.2664 -0.0044 -0.1457
  638MOL0     C84132   5.172   3.241   2.546 -1.1076 -0.2778  0.6110
  638MOL0     C84133   5.041   3.265   2.587  1.2343 -0.8031  0.5218
  638MOL0     N84134   4.238   3.297   2.303  0.3140  0.4437  0.3282
  638MOL0     N84135   4.174   3.309   2.194  0.1989  0.7466 -0.9560
  638MOL0     C84136   4.582   3.650   1.060  0.2569  0.1912 -0.4925
  638MOL0     C84137   4.607   3.703   0.937 -0.4719  0.3094 -0.1080
  638MOL0     C84138   4.671   3.807   0.511 -0.3523 -0.6743  0.5417
  638MOL0     C84139   4.789   3.851   0.462 -1.1169 -0.9949  0.2818
  638MOL0     C84140   4.816   3.841   0.325  0.2001  0.0228 -0.7848
  638MOL0     C84141   4.723   3.785   0.234  0.9630  0.2732 -0.0251
  638MOL0     O84142   4.750   3.770   0.101 -0.5351  0.1399  0.3840
  638MOL0     C84143   4.890   3.758   0.059 -0.1316  0.2534  0.7044
  638MOL0     C84144   4.949   3.629   0.109 -0.5732  0.8625  0.0087
  638MOL0     C84145   5.074   3.588   0.032  0.2713 -0.3036  0.2865
  638MOL0     C84146   5.145   3.488   0.132  0.1099  0.7973  1.0504
  638MOL0     C84147   5.286   3.455   0.091  0.8324 -0.3317  0.3315
  638MOL0     C84148   5.406   3.464   0.060  0.4716  0.5326 -0.0080
  638MOL0     C84149   4.600   3.729   0.284 -0.6161 -1.0356 -0.1254
  638MOL0     C84150   4.572   3.746   0.423 -0.4240  0.3865  0.1041
  638MOL0     H84151   4.308   3.649   0.789  0.3619  4.2233 -1.2163
  638MOL0     H84152   4.274   3.527   1.000  0.9106 -2.4051 -0.4455
  638MOL0     H84153   4.260   3.501   1.200 -0.2951  4.3755 -0.3957
  638MOL0     H84154   4.305   3.578   1.355 -0.8739  1.7992 -2.5886
  638MOL0     H84155   4.367   3.391   1.473 -0.4031 -0.1595  1.0012
  638MOL0     H84156   4.399   3.288   1.321 -1.9325 -0.4085 -2.5197
  638MOL0     H84157   4.167   3.277   1.291  0.2347  1.7567 -0.9328
  638MOL0     H84158   4.123   3.380   1.416  0.3494  1.4852  0.0054
  638MOL0     H84159   4.105   3.152   1.491  0.4540 -0.3237 -2.5887
  638MOL0     H84160   4.274   3.127   1.459  0.1800 -1.6757  4.0817
  638MOL0     H84161   4.195   3.332   1.669 -2.0013 -0.3753 -0.4278
  638MOL0     H84162   4.357   3.246   1.637 -0.2787  0.4467 -0.3863
  638MOL0     H84163   4.241   3.041   1.688  3.6463  0.6458  2.7357
  638MOL0     H84164   4.094   3.130   1.728 -0.2156 -1.1637  2.4547
  638MOL0     H84165   4.212   3.056   1.925 -0.4209 -1.7853 -1.0878
  638MOL0     H84166   4.366   3.125   1.871 -1.3094 -1.9152 -3.4502
  638MOL0     H84167   4.102   3.280   1.935 -0.0147 -0.4752 -0.4578
  638MOL0     H84168   4.240   3.370   1.897 -1.3116  0.6070  0.7424
  638MOL0     H84169   4.473   3.284   2.053  1.8470 -4.3080  1.0050
  638MOL0     H84170   4.539   3.164   2.333  0.7758  0.5506 -1.5136
  638MOL0     H84171   4.441   3.251   2.459 -1.3356  1.9837 -1.1745
  638MOL0     H84172   4.522   3.462   2.374  3.2104  3.1697  0.9741
  638MOL0     H84173   4.649   3.389   2.279  0.4550  3.1440  1.7150
  638MOL0     H84174   4.612   3.361   2.575  2.1399 -0.0040  0.6413
  638MOL0     H84175   4.703   3.243   2.500  1.6479  0.3099  0.8630
  638MOL0     H84176   4.746   3.542   2.491  0.1650  1.3532  2.4875
  638MOL0     H84177   4.845   3.426   2.396 -1.1363  1.7710 -0.3690
  638MOL0     H84178   5.045   3.601   2.539 -0.3088 -0.5138  0.1937
  638MOL0     H84179   5.283   3.557   2.496  2.4703 -0.9942  0.9500
  638MOL0     H84180   5.555   3.025   2.281 -1.7966 -0.0365  0.8474
  638MOL0     H84181   5.794   2.920   2.337  1.8631  1.0057 -2.7900
  638MOL0     H84182   5.981   2.849   2.405  1.4936 -0.3150 -0.9495
  638MOL0     H84183   6.125   2.913   2.469  0.6279  2.4718  1.6653
  638MOL0     H84184   6.122   3.101   2.312 -0.2998  0.3870 -0.6129
  638MOL0     H84185   5.964   3.078   2.255 -0.6741 -1.8506  0.3801
  638MOL0     H84186   6.201   2.879   2.219  1.2017  1.3930 -0.2194
  638MOL0     H84187   6.162   3.010   2.109  0.4115 -1.5404 -1.1308
  638MOL0     H84188   5.992   2.758   2.151  0.1127  0.2080  1.0830
  638MOL0     H84189   5.951   2.911   2.060  0.3580  0.1406  1.0901
  638MOL0     H84190   6.069   2.684   1.949  5.3860 -1.3457 -2.6923
  638MOL0     H84191   6.205   2.777   2.012 -0.0875  0.3727 -0.8549
  638MOL0     H84192   6.189   2.833   1.797 -1.0309 -0.1441 -0.7154
  638MOL0     H84193   6.149   2.976   1.877 -0.2403  0.5094 -2.7008
  638MOL0     H84194   5.914   2.973   1.819 -0.1620  0.7474 -2.4104
  638MOL0     H84195   6.011   2.948   1.678  4.4404 -2.4255 -0.8528
  638MOL0     H84196   5.815   2.817   1.676  1.7352 -1.1075 -3.2483
  638MOL0     H84197   5.843   2.744   1.831 -0.0921  1.5312 -0.5222
  638MOL0     H84198   5.833   3.190   2.647 -0.2699  0.4366  0.8091
  638MOL0     H84199   5.603   3.250   2.639  1.7926 -1.0679  1.2027
  638MOL0     H84200   5.219   3.143   2.544  1.5576  0.8763 -2.4361
  638MOL0     H84201   4.972   3.190   2.624 -0.7844 -0.2138 -1.7749
  638MOL0     H84202   4.660   3.663   1.134  1.1911 -1.1605 -1.1956
  638MOL0     H84203   4.696   3.758   0.911  0.5533 -0.8034  0.9320
  638MOL0     H84204   4.864   3.892   0.528 -0.8891  0.5272 -0.8674
  638MOL0     H84205   4.906   3.889   0.287 -0.5355  0.6466 -1.7627
  638MOL0     H84206   4.952   3.836   0.103 -0.7996  2.4008 -1.8804
  638MOL0     H84207   4.903   3.757  -0.049  1.4737  3.2542  0.7758
  638MOL0     H84208   4.958   3.631   0.218 -1.6805  1.0832  0.1052
  638MOL0     H84209   4.884   3.543   0.094  3.3525 -2.4489  0.3264
  638MOL0     H84210   5.137   3.675   0.012  0.5814 -0.0858  2.0347
  638MOL0     H84211   5.056   3.546  -0.067 -0.9727 -1.7557  1.0849
  638MOL0     H84212   5.151   3.532   0.231 -1.2334  1.5689  0.8241
  638MOL0     H84213   5.099   3.390   0.150  1.9314 -0.8909 -2.4385
  638MOL0     H84214   5.507   3.483   0.032  1.1425 -1.1348  1.1110
  638MOL0     H84215   4.530   3.699   0.207  2.5621  0.1451 -3.8184
  638MOL0     H84216   4.475   3.720   0.465 -1.2555  3.6227  0.4388
  639MOL0     O84217   0.461   5.232   2.113  0.1169 -0.5155 -0.1891
  639MOL0     C84218   0.475   5.261   2.234  0.5087 -0.1468 -1.2174
  639MOL0     O84219   0.380   5.330   2.307 -0.4952 -0.4754 -0.2211
  639MOL0     C84220   0.258   5.365   2.256 -1.0974 -0.2385  0.1443
  639MOL0     C84221   0.172   5.259   2.217  0.3664  0.4726  0.5712
  639MOL0     C84222   0.040   5.279   2.171  0.8264  0.4910  1.1279
  639MOL0     C84223  -0.001   5.410   2.148  0.9758  0.9895  0.9917
  639MOL0     O84224  -0.121   5.433   2.091 -0.2634  0.9256 -0.3597
  639MOL0     C84225  -0.171   5.364   1.973  0.2465  0.7358 -0.8243
  639MOL0     C84226  -0.070   5.365   1.853  0.2711 -0.4120 -0.3975
  639MOL0     C84227  -0.139   5.290   1.732 -0.5020 -0.0170 -0.0393
  639MOL0     C84228  -0.046   5.288   1.614 -0.0338  0.6539  0.1833
  639MOL0     C84229  -0.126   5.262   1.482 -0.4030 -0.0566 -0.3024
  639MOL0     C84230  -0.032   5.224   1.376 -0.4083  0.4922 -0.1786
  639MOL0     C84231  -0.107   5.182   1.249 -0.0419 -0.3819  0.8675
  639MOL0     C84232  -0.019   5.161   1.123 -0.0703 -0.2321  0.3218
  639MOL0     N84233   0.111   5.234   1.130 -0.3754 -0.7793 -0.0573
  639MOL0     C84234   0.140   5.373   1.106 -0.4776  0.0053  0.5985
  639MOL0     C84235   0.271   5.370   1.138  0.0976  0.2204  0.2194
  639MOL0     C84236   0.355   5.498   1.129 -0.0700  0.8659  0.6116
  639MOL0     C84237   0.496   5.476   1.068 -0.1305  0.4652 -0.2288
  639MOL0     C84238   0.584   5.600   1.053  0.2978 -0.1786 -0.6722
  639MOL0     C84239   0.723   5.579   1.009 -0.0088 -0.5945 -0.3313
  639MOL0     O84240   0.758   5.709   0.969 -0.3611 -0.1790 -0.6791
  639MOL0     C84241   0.894   5.735   0.967 -1.6457 -0.5163 -0.5470
  639MOL0     C84242   0.984   5.631   0.938  0.1556 -0.3810  0.4981
  639MOL0     C84243   1.119   5.665   0.934 -0.2351 -0.0398 -0.6525
  639MOL0     C84244   1.157   5.795   0.972  0.4401  0.0909  0.1138
  639MOL0     C84245   1.308   5.816   0.981  0.8365  0.5952 -0.8165
  639MOL0     O84246   1.354   5.933   1.019  0.1384 -0.1199 -0.1930
  639MOL0     C84247   1.482   5.985   1.001 -0.6536 -0.6444  1.0535
  639MOL0     C84248   1.601   5.907   0.988 -0.1464  0.2682  0.7462
  639MOL0     C84249   1.732   5.962   0.993 -0.1381  0.5377 -0.4446
  639MOL0     C84250   1.752   6.101   0.999  0.7839  0.2075 -0.0521
  639MOL0     O84251   1.874   6.162   0.989 -0.8764  0.1300  0.5971
  639MOL0     C84252   1.947   6.155   1.107 -0.2971  0.0113  0.5238
  639MOL0     C84253   2.078   6.239   1.101  0.9207 -0.0205  1.2431
  639MOL0     C84254   2.053   6.388   1.091  0.1661 -0.0734  0.0530
  639MOL0     C84255   2.187   6.467   1.095  0.7359 -0.5671  0.7488
  639MOL0     C84256   2.203   6.540   1.232  0.7965  0.7214 -1.0002
  639MOL0     C84257   2.210   6.438   1.340  0.6859  1.1274  0.7955
  639MOL0     C84258   2.238   6.507   1.469  0.1013 -0.3420  0.1086
  639MOL0     C84259   2.329   6.418   1.560 -0.0533 -0.5066 -0.3648
  639MOL0    Cl84260   2.335   6.501   1.731 -0.0190 -0.0215  0.0156
  639MOL0     C84261   1.638   6.180   0.995  0.1175  0.2696  0.9984
  639MOL0     C84262   1.505   6.121   1.009 -0.4415 -1.1729 -0.2487
  639MOL0     O84263   1.384   5.714   0.949  0.6085 -0.4209  0.3222
  639MOL0     C84264   1.057   5.897   1.003 -0.3581 -1.5913 -0.2079
  639MOL0     C84265   0.931   5.864   1.008 -0.0226 -0.4302  0.6381
  639MOL0     N84266   0.320   5.242   1.154  0.2045 -0.1534 -0.4648
  639MOL0     N84267   0.220   5.161   1.149  0.3780 -0.1206 -0.2063
  639MOL0     C84268   0.092   5.513   2.180  0.4806  0.3286  0.4224
  639MOL0     C84269   0.219   5.493   2.239  0.3080 -0.7005 -0.9443
  639MOL0     C84270   0.610   5.250   2.302  0.3038  0.9892  0.5295
  639MOL0     C84271   0.715   5.171   2.233 -0.6685  0.5413  0.6445
  639MOL0     C84272   0.836   5.164   2.304  0.3978 -0.4156  0.0898
  639MOL0     C84273   0.858   5.219   2.432 -0.3320 -0.3997  0.1000
  639MOL0     O84274   0.978   5.212   2.491 -1.2443  0.0910 -0.0241
  639MOL0     C84275   1.066   5.321   2.452 -0.0531 -0.5895 -0.3816
  639MOL0     C84276   1.207   5.312   2.516 -1.3902  0.2007  1.0782
  639MOL0     C84277   1.284   5.205   2.430 -0.2604 -0.5552 -0.2990
  639MOL0     C84278   1.431   5.225   2.464  0.3894 -0.7867  0.8209
  639MOL0     C84279   1.474   5.184   2.593 -0.3605 -0.1289 -0.0304
  639MOL0     C84280   1.485   5.131   2.702 -0.7743  0.4493 -0.1744
  639MOL0     C84281   0.748   5.268   2.504  0.0742  0.2044  0.8848
  639MOL0     C84282   0.624   5.291   2.437  0.1965 -0.1608  0.0658
  639MOL0     H84283   0.208   5.156   2.222 -1.0734 -0.3091 -2.6365
  639MOL0     H84284  -0.024   5.196   2.141  1.8107 -0.2099  0.9463
  639MOL0     H84285  -0.266   5.414   1.952 -1.8137 -1.2509  2.8368
  639MOL0     H84286  -0.185   5.261   2.005 -3.2871  0.5255 -2.6026
  639MOL0     H84287   0.028   5.328   1.883 -0.8912 -0.6800  3.6793
  639MOL0     H84288  -0.055   5.470   1.826  3.2977 -1.2112 -2.2168
  639MOL0     H84289  -0.236   5.339   1.718 -0.6934 -0.8422 -1.9215
  639MOL0     H84290  -0.149   5.188   1.769  0.1855 -0.1689 -0.2575
  639MOL0     H84291  -0.006   5.389   1.608 -2.8978  2.1123  2.8924
  639MOL0     H84292   0.030   5.210   1.620 -2.0061 -1.2706  2.0790
  639MOL0     H84293  -0.187   5.346   1.448  1.1338  1.1124 -0.2651
  639MOL0     H84294  -0.193   5.176   1.495  0.1141 -0.3918  0.1831
  639MOL0     H84295   0.031   5.139   1.402 -1.5439 -0.4770 -0.5445
  639MOL0     H84296   0.027   5.314   1.357 -1.7689  1.5337  0.3151
  639MOL0     H84297  -0.174   5.099   1.271 -1.3685  0.0876 -1.1739
  639MOL0     H84298  -0.186   5.251   1.218 -0.5174 -1.2836  0.0156
  639MOL0     H84299  -0.064   5.182   1.026  3.1187  1.1131 -1.0037
  639MOL0     H84300   0.007   5.056   1.137 -0.2533 -0.4253 -0.7431
  639MOL0     H84301   0.072   5.454   1.080  1.2009  3.3321  5.1674
  639MOL0     H84302   0.383   5.525   1.231  3.2599  0.2500 -0.0189
  639MOL0     H84303   0.302   5.578   1.076  3.3501  3.6539  1.0109
  639MOL0     H84304   0.482   5.437   0.967 -1.6058  0.6558 -0.1223
  639MOL0     H84305   0.553   5.410   1.134  1.9382 -3.1038 -5.0461
  639MOL0     H84306   0.538   5.676   0.988  2.5075  2.1419  0.2789
  639MOL0     H84307   0.590   5.641   1.154 -5.7279  2.1220 -0.8558
  639MOL0     H84308   0.726   5.499   0.935 -0.7370 -1.9580  1.0577
  639MOL0     H84309   0.787   5.553   1.093 -1.0400 -2.7725 -0.1565
  639MOL0     H84310   0.955   5.529   0.918 -1.2712 -0.4614  2.5814
  639MOL0     H84311   1.193   5.586   0.920  1.7657  1.2995  1.5978
  639MOL0     H84312   1.601   5.799   0.981 -2.2744  0.2680 -0.0849
  639MOL0     H84313   1.828   5.912   0.981 -1.1043 -1.8889  1.1085
  639MOL0     H84314   1.968   6.051   1.134 -0.5280 -0.6307 -1.5501
  639MOL0     H84315   1.891   6.206   1.185  1.9688  1.5409  1.2486
  639MOL0     H84316   2.138   6.206   1.015 -0.2247  0.1230  0.3731
  639MOL0     H84317   2.144   6.217   1.185  2.1569 -1.5010 -0.0327
  639MOL0     H84318   1.987   6.431   1.167  2.1681  3.7899 -0.1814
  639MOL0     H84319   2.010   6.404   0.991  0.4117 -2.2388 -0.4491
  639MOL0     H84320   2.269   6.396   1.079  0.7286 -0.6805  1.2035
  639MOL0     H84321   2.190   6.540   1.014  0.4003  0.4492  1.6332
  639MOL0     H84322   2.132   6.619   1.259  0.3435  0.3246 -1.0192
  639MOL0     H84323   2.296   6.599   1.227  0.7814  1.2988  2.9374
  639MOL0     H84324   2.295   6.373   1.316  1.3438  0.9429  3.3839
  639MOL0     H84325   2.118   6.378   1.344  0.7770  0.4551 -2.9355
  639MOL0     H84326   2.300   6.596   1.453  0.7938 -0.9692 -0.7674
  639MOL0     H84327   2.152   6.561   1.512  0.3509 -0.9809  1.4804
  639MOL0     H84328   2.433   6.414   1.527 -0.6926 -1.5533 -2.4032
  639MOL0     H84329   2.300   6.314   1.583  0.3178  0.1469  3.9193
  639MOL0     H84330   1.652   6.288   0.998 -1.2682  0.6849 -2.5590
  639MOL0     H84331   1.432   6.201   1.016  0.2060 -0.3941 -1.9385
  639MOL0     H84332   1.097   5.995   1.027  2.0553 -3.3914  4.1837
  639MOL0     H84333   0.865   5.943   1.040  0.3143 -0.1765  0.7176
  639MOL0     H84334   0.050   5.611   2.159 -3.1784 -0.7414  1.9291
  639MOL0     H84335   0.289   5.572   2.264  0.2972 -0.5338 -1.4282
  639MOL0     H84336   0.730   5.134   2.132  1.4382  1.0454  0.7402
  639MOL0     H84337   0.921   5.122   2.250 -0.2521  0.7019 -1.9221
  639MOL0     H84338   1.021   5.415   2.485  0.3053 -1.1504  1.8943
  639MOL0     H84339   1.083   5.327   2.344  3.1687 -0.3221  0.0521
  639MOL0     H84340   1.252   5.411   2.509  5.2993 -2.3507  1.0793
  639MOL0     H84341   1.213   5.284   2.621  2.2555  1.3616  1.2877
  639MOL0     H84342   1.272   5.221   2.323  3.9270  1.3824 -0.6783
  639MOL0     H84343   1.267   5.099   2.453 -1.0830 -1.0533 -2.9060
  639MOL0     H84344   1.496   5.167   2.397 -0.2476 -1.9054  1.1524
  639MOL0     H84345   1.464   5.327   2.441 -2.4398 -0.1404 -0.7742
  639MOL0     H84346   1.492   5.091   2.802  0.9413  0.0248 -0.4290
  639MOL0     H84347   0.755   5.309   2.603  2.4872  3.6206 -0.5392
  639MOL0     H84348   0.535   5.331   2.484 -0.4404 -0.4827 -0.8532
  640MOL0     O84349   4.480   8.305   5.349 -0.1870  0.6662  0.0194
  640MOL0     C84350   4.485   8.428   5.363 -1.0904 -0.5354 -0.3777
  640MOL0     O84351   4.604   8.497   5.377 -0.2819 -0.8851 -0.7634
  640MOL0     C84352   4.722   8.424   5.362  0.5300 -0.9426 -0.9950
  640MOL0     C84353   4.785   8.357   5.472 -0.6056 -0.1352 -0.5495
  640MOL0     C84354   4.919   8.304   5.462 -0.2550  0.5271  1.3799
  640MOL0     C84355   4.988   8.322   5.342  0.0278  0.0835 -0.5512
  640MOL0     O84356   5.116   8.278   5.340 -0.6262 -0.3596  0.7420
  640MOL0     C84357   5.215   8.362   5.277  0.0162 -0.5838 -0.0649
  640MOL0     C84358   5.342   8.357   5.357 -0.1273  0.4733 -0.4335
  640MOL0     C84359   5.327   8.427   5.502  0.3200 -0.7856 -0.0170
  640MOL0     C84360   5.460   8.457   5.587 -1.3471 -0.3249  0.5475
  640MOL0     C84361   5.557   8.560   5.532  0.3263 -0.0371 -0.3803
  640MOL0     C84362   5.702   8.528   5.587 -0.2445  0.5122 -0.6779
  640MOL0     C84363   5.811   8.644   5.586 -0.8194  1.0452 -0.1062
  640MOL0     C84364   5.931   8.631   5.689  0.4567  1.1636  0.4248
  640MOL0     N84365   5.987   8.493   5.689 -0.0835  0.5572  0.4614
  640MOL0     C84366   5.937   8.383   5.758 -0.2674  0.0883 -0.1109
  640MOL0     C84367   6.046   8.296   5.776  0.3107  1.2825  0.1941
  640MOL0     C84368   6.033   8.172   5.856  0.4612 -0.7756  0.1599
  640MOL0     C84369   6.006   8.048   5.781 -0.9016 -0.3007 -0.6187
  640MOL0     C84370   5.869   8.056   5.710 -0.4586  0.7156  0.3907
  640MOL0     C84371   5.755   8.017   5.805 -0.3941  0.0100  2.0144
  640MOL0     O84372   5.635   8.080   5.769  0.0257 -0.2061 -0.3115
  640MOL0     C84373   5.543   8.020   5.686  0.7813  0.1729 -0.2485
  640MOL0     C84374   5.426   8.088   5.663  0.6086 -0.9107 -0.1300
  640MOL0     C84375   5.327   8.029   5.589 -0.3775  0.7649  0.2369
  640MOL0     C84376   5.342   7.900   5.535  0.7813  0.0952  0.5977
  640MOL0     C84377   5.228   7.831   5.466  0.8757 -0.3040  0.5446
  640MOL0     O84378   5.121   7.914   5.420  0.1892 -0.1547 -0.0332
  640MOL0     C84379   5.000   7.871   5.376 -0.2688  0.7037 -0.0855
  640MOL0     C84380   4.960   7.745   5.326 -0.3397 -0.0772 -0.3435
  640MOL0     C84381   4.835   7.720   5.269  0.3319  0.4334  1.1550
  640MOL0     C84382   4.744   7.825   5.247  0.6426 -0.1266  0.6181
  640MOL0     O84383   4.617   7.813   5.177  0.9336 -0.1575 -0.3373
  640MOL0     C84384   4.592   7.681   5.121 -0.1208 -0.4189  0.5742
  640MOL0     C84385   4.453   7.669   5.067  0.3849 -0.0234  0.2906
  640MOL0     C84386   4.429   7.779   4.956  1.9860  0.4190 -0.5758
  640MOL0     C84387   4.476   7.721   4.821 -0.5489  0.0329 -0.2293
  640MOL0     C84388   4.550   7.818   4.730 -0.0006 -0.1785  0.1196
  640MOL0     C84389   4.462   7.939   4.693  0.8947  0.2476 -0.3748
  640MOL0     C84390   4.534   8.042   4.597 -0.2173 -0.1917 -0.1807
  640MOL0     C84391   4.443   8.159   4.563 -0.2640 -0.8988 -0.7052
  640MOL0    Cl84392   4.477   8.234   4.397  0.3221 -0.2602 -0.7025
  640MOL0     C84393   4.770   7.943   5.305 -0.8813  0.3615  0.4639
  640MOL0     C84394   4.903   7.972   5.362 -1.5558  0.2061  0.0393
  640MOL0     O84395   5.226   7.710   5.477  1.4199 -0.6497  0.5526
  640MOL0     C84396   5.454   7.827   5.561 -1.2609 -0.1993 -0.8826
  640MOL0     C84397   5.562   7.890   5.637 -0.1436 -0.4262 -0.8414
  640MOL0     N84398   6.156   8.351   5.726  1.4341 -0.1792  0.4833
  640MOL0     N84399   6.119   8.461   5.668 -0.7688  0.2384  0.3040
  640MOL0     C84400   4.921   8.371   5.225  0.0251  0.1972 -0.3520
  640MOL0     C84401   4.792   8.425   5.240  0.1341 -0.1510 -0.0915
  640MOL0     C84402   4.357   8.497   5.368 -0.1653  0.4757 -0.2182
  640MOL0     C84403   4.343   8.631   5.332  0.1019 -0.1233 -0.0336
  640MOL0     C84404   4.228   8.704   5.324 -0.0075 -0.1909  0.5770
  640MOL0     C84405   4.105   8.632   5.361 -1.0053  0.4800  0.1717
  640MOL0     O84406   3.974   8.683   5.353  0.3272 -0.9479 -0.3889
  640MOL0     C84407   3.952   8.787   5.258 -0.5406  0.1650 -0.4220
  640MOL0     C84408   3.803   8.817   5.244  0.8208  0.1158 -1.0461
  640MOL0     C84409   3.732   8.851   5.381 -0.1884  0.1545  0.1269
  640MOL0     C84410   3.671   8.727   5.441  0.4445  0.0865 -0.4457
  640MOL0     C84411   3.648   8.735   5.588  0.1292 -0.2966  0.4446
  640MOL0     C84412   3.616   8.716   5.705 -0.0416 -0.8139 -0.3282
  640MOL0     C84413   4.110   8.501   5.414  0.9287 -0.6309 -0.1475
  640MOL0     C84414   4.232   8.437   5.408 -0.0237  0.2662 -0.7689
  640MOL0     H84415   4.734   8.359   5.567 -1.5323  0.8937 -1.0479
  640MOL0     H84416   4.954   8.265   5.557 -0.1249 -1.8362  0.4185
  640MOL0     H84417   5.191   8.468   5.270  0.0952 -0.4710  1.1878
  640MOL0     H84418   5.216   8.329   5.173 -1.4857 -0.9385  0.0066
  640MOL0     H84419   5.430   8.392   5.302  2.2137 -0.8699  2.2216
  640MOL0     H84420   5.376   8.256   5.383  0.2156  0.7684  0.2979
  640MOL0     H84421   5.258   8.374   5.568 -1.8664  0.6872 -0.9922
  640MOL0     H84422   5.282   8.525   5.484 -0.8998 -1.2814  0.2839
  640MOL0     H84423   5.426   8.490   5.686 -4.4873 -1.5724 -0.0125
  640MOL0     H84424   5.515   8.363   5.595  0.4218  0.7357  1.2388
  640MOL0     H84425   5.529   8.664   5.553  2.4203  1.3810 -3.8059
  640MOL0     H84426   5.544   8.555   5.424 -3.8024 -0.1640 -0.0256
  640MOL0     H84427   5.748   8.442   5.538  2.8796  0.8624  1.3200
  640MOL0     H84428   5.697   8.491   5.690 -1.3224 -1.0744 -1.2675
  640MOL0     H84429   5.844   8.653   5.482  0.8936 -1.2595  0.1682
  640MOL0     H84430   5.762   8.738   5.614  0.2749  1.4403  0.5252
  640MOL0     H84431   5.898   8.666   5.787  2.2525  2.7389  0.5150
  640MOL0     H84432   6.018   8.693   5.666  0.6717 -0.5113 -4.6328
  640MOL0     H84433   5.836   8.347   5.778  0.6422 -2.6626 -0.0987
  640MOL0     H84434   5.958   8.196   5.932 -0.1822  0.6919 -0.8976
  640MOL0     H84435   6.126   8.153   5.912  0.5175 -0.8736  0.0319
  640MOL0     H84436   6.007   7.963   5.850  1.1143  0.6818  0.6498
  640MOL0     H84437   6.090   8.028   5.714 -0.5285  0.2216 -0.3195
  640MOL0     H84438   5.865   8.147   5.650 -0.3132  0.3833 -0.1393
  640MOL0     H84439   5.868   7.964   5.649  1.3261 -0.4609  2.0340
  640MOL0     H84440   5.784   8.050   5.906  0.9595 -0.3497  1.7731
  640MOL0     H84441   5.751   7.908   5.815  2.9121 -1.4506 -5.4068
  640MOL0     H84442   5.407   8.192   5.687 -0.9618 -1.3666  0.7227
  640MOL0     H84443   5.243   8.095   5.569 -1.2639 -0.0962  0.9710
  640MOL0     H84444   5.037   7.668   5.327  1.5893  1.7102 -1.8051
  640MOL0     H84445   4.823   7.621   5.226  0.4157  0.0260  2.0386
  640MOL0     H84446   4.619   7.596   5.184  0.5948 -0.4202  0.2807
  640MOL0     H84447   4.654   7.663   5.033 -0.3165  3.7907 -0.6609
  640MOL0     H84448   4.373   7.680   5.141 -1.3368 -0.1641 -1.4475
  640MOL0     H84449   4.443   7.565   5.034  2.6876 -0.2852  0.3155
  640MOL0     H84450   4.488   7.868   4.979  2.3427  0.3466 -1.2010
  640MOL0     H84451   4.322   7.804   4.949  1.7606  0.8119  2.7858
  640MOL0     H84452   4.538   7.632   4.833 -0.2621  0.2536 -0.0808
  640MOL0     H84453   4.396   7.679   4.758  1.3428  0.4475 -3.1218
  640MOL0     H84454   4.561   7.767   4.634  0.6034 -3.9892  1.9978
  640MOL0     H84455   4.651   7.848   4.763 -0.1211  0.2009  0.1463
  640MOL0     H84456   4.445   7.996   4.785 -1.2386  0.7477 -1.0114
  640MOL0     H84457   4.364   7.910   4.652 -0.3753  0.5782  2.2002
  640MOL0     H84458   4.627   8.085   4.635 -0.5790 -0.1422  0.6695
  640MOL0     H84459   4.546   7.999   4.497 -2.1921  0.8454 -0.9169
  640MOL0     H84460   4.449   8.233   4.643 -1.2689 -3.6629  2.1403
  640MOL0     H84461   4.336   8.137   4.557 -0.4804  0.3890 -1.8662
  640MOL0     H84462   4.692   8.019   5.295 -1.9691 -1.0431 -5.3875
  640MOL0     H84463   4.935   8.068   5.401 -1.1933 -0.7002  2.1329
  640MOL0     H84464   5.481   7.724   5.537 -1.5549 -1.2783  2.8093
  640MOL0     H84465   5.647   7.832   5.670 -0.3441  0.5478  1.5871
  640MOL0     H84466   4.961   8.398   5.127 -1.6545 -0.0400 -1.1339
  640MOL0     H84467   4.739   8.484   5.166  1.2675  0.7150 -0.2419
  640MOL0     H84468   4.437   8.686   5.325 -0.0372  0.0783 -0.3062
  640MOL0     H84469   4.228   8.807   5.290 -2.2377  0.0816  1.2528
  640MOL0     H84470   4.002   8.758   5.165  1.7140  2.1135  0.0755
  640MOL0     H84471   4.003   8.874   5.300  1.5084 -1.4042  0.5309
  640MOL0     H84472   3.788   8.902   5.176  2.3126  1.5244  0.3174
  640MOL0     H84473   3.757   8.727   5.202 -0.4608 -0.7296  1.9374
  640MOL0     H84474   3.651   8.923   5.365 -2.2667 -1.8454  1.0214
  640MOL0     H84475   3.801   8.900   5.451 -0.1069 -1.0063  0.8982
  640MOL0     H84476   3.575   8.693   5.402  1.1434 -2.1859 -0.3459
  640MOL0     H84477   3.734   8.640   5.419  1.8386  1.4858 -2.2775
  640MOL0     H84478   3.613   8.686   5.808 -1.1633 -1.4866 -0.5420
  640MOL0     H84479   4.025   8.448   5.457  1.9198 -1.2118  1.1509
  640MOL0     H84480   4.236   8.335   5.443  1.3074 -0.4002 -2.7318
  641MOL0     O84481   5.626  10.043  10.335  0.4435  0.7611 -0.1888
  641MOL0     C84482   5.515  10.093  10.303 -0.9484 -0.0021 -0.2767
  641MOL0     O84483   5.497  10.153  10.188  0.4004 -0.3497  0.8552
  641MOL0     C84484   5.603  10.165  10.109  0.5963  0.3805  0.3892
  641MOL0     C84485   5.700  10.258  10.149  0.3444  1.5707 -0.0786
  641MOL0     C84486   5.809  10.271  10.062 -0.6268  0.1622 -0.3975
  641MOL0     C84487   5.832  10.196   9.945 -0.4500  0.2614 -0.1311
  641MOL0     O84488   5.945  10.205   9.865 -0.2686  0.1887  0.6996
  641MOL0     C84489   6.014  10.325   9.852  0.5824  1.5371 -0.1566
  641MOL0     C84490   6.099  10.315   9.721 -0.8165  0.7260  0.0895
  641MOL0     C84491   6.186  10.438   9.711  0.0379 -0.0323 -0.0343
  641MOL0     C84492   6.238  10.458   9.572  0.0904  0.6514 -1.1158
  641MOL0     C84493   6.310  10.590   9.557 -0.3702 -0.3932 -0.8071
  641MOL0     C84494   6.454  10.594   9.621  0.5063 -0.8017  1.0873
  641MOL0     C84495   6.493  10.742   9.665  0.0977  0.3887 -0.4425
  641MOL0     C84496   6.638  10.756   9.732  0.9375 -0.2901  0.1876
  641MOL0     N84497   6.749  10.758   9.636 -0.1203  0.5407 -0.4176
  641MOL0     C84498   6.753  10.813   9.508  0.2677  0.1104 -0.9763
  641MOL0     C84499   6.839  10.736   9.437 -0.2968 -0.0923  0.6143
  641MOL0     C84500   6.840  10.721   9.290  0.6130  0.0666  0.9401
  641MOL0     C84501   6.728  10.624   9.230  0.1459 -0.1898 -0.5257
  641MOL0     C84502   6.754  10.480   9.262  0.9271 -0.3836 -0.2794
  641MOL0     C84503   6.622  10.407   9.245 -0.7134 -0.5562 -0.0214
  641MOL0     O84504   6.587  10.400   9.110 -0.1031  0.5718  0.5295
  641MOL0     C84505   6.679  10.336   9.032 -0.3851 -0.4050  0.2172
  641MOL0     C84506   6.771  10.228   9.059  0.4043 -0.1161 -0.4773
  641MOL0     C84507   6.857  10.177   8.956  0.5656  0.2432  0.0548
  641MOL0     C84508   6.853  10.228   8.831 -0.3379 -0.5353 -0.7130
  641MOL0     C84509   6.959  10.171   8.744  0.3566  0.4277 -0.8056
  641MOL0     O84510   7.054  10.079   8.792  0.2601 -0.3881  0.0857
  641MOL0     C84511   7.161  10.033   8.713 -0.1753 -0.7702 -0.2364
  641MOL0     C84512   7.229  10.097   8.601 -1.4966  0.0266 -0.7653
  641MOL0     C84513   7.346  10.035   8.541  0.5782 -0.9031 -0.5749
  641MOL0     C84514   7.399   9.911   8.593 -0.4975 -0.7935  1.0758
  641MOL0     O84515   7.513   9.851   8.555 -0.2245 -1.4105 -0.1777
  641MOL0     C84516   7.592   9.917   8.453 -0.2763  0.4232 -0.8094
  641MOL0     C84517   7.730   9.858   8.443 -0.2108  0.7024  0.3512
  641MOL0     C84518   7.728   9.703   8.456 -0.6658 -0.2627  0.0280
  641MOL0     C84519   7.846   9.632   8.394 -0.3343 -0.3342 -0.2801
  641MOL0     C84520   7.844   9.475   8.403  0.1463 -0.7178 -0.3031
  641MOL0     C84521   7.953   9.406   8.322  0.5881  0.0427 -0.4704
  641MOL0     C84522   7.970   9.264   8.351  0.2197  0.5437  0.9838
  641MOL0     C84523   7.861   9.168   8.308  0.9416 -0.7697 -0.8515
  641MOL0    Cl84524   7.839   9.185   8.133 -0.2197  0.5371  0.0224
  641MOL0     C84525   7.329   9.849   8.696  0.4004  0.2010 -0.5657
  641MOL0     C84526   7.213   9.912   8.753  0.6812  0.1122  0.3313
  641MOL0     O84527   6.952  10.197   8.628 -0.8683  0.8357  0.0863
  641MOL0     C84528   6.773  10.337   8.800 -0.8258  0.1694  0.3202
  641MOL0     C84529   6.686  10.389   8.898  0.0533  0.7796  0.3845
  641MOL0     N84530   6.899  10.645   9.527  0.6016 -0.5843 -0.2037
  641MOL0     N84531   6.844  10.660   9.638 -0.6070 -0.1507 -0.2680
  641MOL0     C84532   5.734  10.096   9.923 -0.1224  0.4922 -0.4943
  641MOL0     C84533   5.620  10.087   9.992  0.3250 -1.2542 -0.8797
  641MOL0     C84534   5.403  10.073  10.394  0.2843  0.4580  0.3065
  641MOL0     C84535   5.285  10.015  10.363 -0.2081  0.4425 -0.4103
  641MOL0     C84536   5.193   9.990  10.474 -0.4700 -0.6701 -0.1699
  641MOL0     C84537   5.225  10.005  10.608 -0.5026  1.0298  0.2839
  641MOL0     O84538   5.141   9.980  10.718  0.0692  0.0337  1.0259
  641MOL0     C84539   5.016   9.915  10.708 -0.3312 -0.5805  0.6482
  641MOL0     C84540   5.040   9.769  10.704  0.3171  0.3874  0.9516
  641MOL0     C84541   4.899   9.709  10.666 -0.5288 -0.7836  0.6061
  641MOL0     C84542   4.919   9.571  10.604 -0.1610 -0.5697  0.2300
  641MOL0     C84543   4.790   9.530  10.548  0.5846 -0.5453 -0.1521
  641MOL0     C84544   4.691   9.478  10.493  0.9506 -0.5126  0.4676
  641MOL0     C84545   5.353  10.057  10.638 -0.0772  0.5454  0.7807
  641MOL0     C84546   5.436  10.087  10.532 -0.7459 -0.0408  0.2925
  641MOL0     H84547   5.677  10.318  10.236 -0.7918  0.8404  0.1525
  641MOL0     H84548   5.888  10.341  10.091  0.1817 -0.3314 -1.3483
  641MOL0     H84549   6.083  10.347   9.934  0.2520  4.7603 -0.6259
  641MOL0     H84550   5.958  10.419   9.843  0.1526  1.1211 -2.6082
  641MOL0     H84551   6.029  10.309   9.637 -0.6526 -0.4953  0.0186
  641MOL0     H84552   6.170  10.232   9.726  0.0039  1.3776 -0.4889
  641MOL0     H84553   6.276  10.426   9.772  1.3333 -2.9166 -2.2498
  641MOL0     H84554   6.122  10.525   9.732 -1.0035 -0.8304  0.1586
  641MOL0     H84555   6.312  10.380   9.551  2.6243  1.9540  2.1276
  641MOL0     H84556   6.156  10.450   9.499 -1.4022 -1.6532  0.6826
  641MOL0     H84557   6.236  10.651   9.609 -0.5136 -2.9770  2.3480
  641MOL0     H84558   6.317  10.621   9.452  3.2676 -0.8419 -0.8393
  641MOL0     H84559   6.521  10.561   9.541  0.5385  2.3089 -0.3216
  641MOL0     H84560   6.456  10.532   9.711  2.6088 -2.0033  0.2936
  641MOL0     H84561   6.483  10.821   9.590  2.4937  1.3942  0.2081
  641MOL0     H84562   6.421  10.763   9.744 -1.0411 -2.9717 -0.4296
  641MOL0     H84563   6.651  10.684   9.813  2.0083  1.4181  1.6107
  641MOL0     H84564   6.643  10.857   9.774  0.5458  1.6409 -3.9050
  641MOL0     H84565   6.674  10.876   9.471 -0.0830 -2.2902 -4.9360
  641MOL0     H84566   6.937  10.687   9.252 -0.2215 -0.4130 -0.8215
  641MOL0     H84567   6.823  10.817   9.240  2.0166  1.3413  2.7643
  641MOL0     H84568   6.738  10.643   9.123 -3.7616 -1.8893 -1.3423
  641MOL0     H84569   6.630  10.658   9.265  0.3258  0.5034 -0.6694
  641MOL0     H84570   6.829  10.433   9.198  1.3056 -1.8111  1.1261
  641MOL0     H84571   6.791  10.460   9.363 -0.2635 -2.0567 -0.1297
  641MOL0     H84572   6.544  10.451   9.308  0.2081  1.4659 -0.1955
  641MOL0     H84573   6.646  10.309   9.286  4.6925  1.2700  2.1445
  641MOL0     H84574   6.774  10.187   9.159  0.0249  2.8719  0.8533
  641MOL0     H84575   6.922  10.101   8.997 -2.1229 -2.7217 -0.8041
  641MOL0     H84576   7.185  10.184   8.552 -0.4795  0.1352 -1.5236
  641MOL0     H84577   7.398  10.083   8.459  0.8082 -2.8931 -1.6736
  641MOL0     H84578   7.611  10.024   8.470 -1.5077  0.5524 -0.1153
  641MOL0     H84579   7.549   9.905   8.353 -2.2691  1.2878 -0.1019
  641MOL0     H84580   7.798   9.892   8.521  1.8222 -0.4740 -0.7858
  641MOL0     H84581   7.779   9.870   8.345 -1.2423  2.4989  0.0308
  641MOL0     H84582   7.636   9.678   8.401 -0.5150  0.2853 -0.4824
  641MOL0     H84583   7.706   9.678   8.560  0.5230 -1.7105 -0.0259
  641MOL0     H84584   7.858   9.663   8.289 -2.3626  0.2389 -0.3830
  641MOL0     H84585   7.938   9.664   8.445 -1.5202 -0.9342  2.3808
  641MOL0     H84586   7.747   9.447   8.362 -0.2623  2.0436 -1.4551
  641MOL0     H84587   7.863   9.444   8.506  0.8751 -0.0791 -0.2327
  641MOL0     H84588   8.048   9.451   8.353  0.5382 -0.1715  0.0092
  641MOL0     H84589   7.950   9.424   8.214 -1.5532 -2.7731 -0.9903
  641MOL0     H84590   8.057   9.230   8.294 -0.9410  1.1267 -1.2958
  641MOL0     H84591   7.988   9.241   8.456 -1.2823 -1.9365  0.8070
  641MOL0     H84592   7.770   9.190   8.363 -1.3454  1.6858 -5.0921
  641MOL0     H84593   7.896   9.066   8.323  3.0735 -0.1421 -1.1553
  641MOL0     H84594   7.375   9.766   8.749 -1.4423 -1.6560 -1.6873
  641MOL0     H84595   7.163   9.861   8.835  0.9803 -0.7473 -0.0128
  641MOL0     H84596   6.781  10.389   8.705 -2.3073  2.9368  1.5860
  641MOL0     H84597   6.631  10.481   8.878  2.0782  2.6227  2.5979
  641MOL0     H84598   5.744  10.013   9.855  0.6023 -1.1627  1.5368
  641MOL0     H84599   5.540  10.019   9.964  1.1924 -2.6134 -0.1702
  641MOL0     H84600   5.272   9.997  10.256  1.4846  0.7330 -0.6900
  641MOL0     H84601   5.098   9.942  10.454 -0.4600 -1.3122  1.2465
  641MOL0     H84602   4.970   9.946  10.614 -0.6096 -0.2008  0.9083
  641MOL0     H84603   4.952   9.941  10.793  1.8075 -0.3490  2.2627
  641MOL0     H84604   5.114   9.740  10.629 -0.0345  1.3691  0.1931
  641MOL0     H84605   5.065   9.723  10.800 -0.5621 -1.4911  0.3225
  641MOL0     H84606   4.864   9.768  10.580  0.3763  1.2542  1.5761
  641MOL0     H84607   4.827   9.712  10.748 -2.6870  2.2590 -1.1942
  641MOL0     H84608   4.986   9.571  10.518  0.5265  1.9589  0.6910
  641MOL0     H84609   4.958   9.501  10.678 -2.9120 -0.5670  1.8068
  641MOL0     H84610   4.607   9.430  10.447 -1.4448  1.6635  2.2877
  641MOL0     H84611   5.389  10.067  10.740  1.9628 -0.9172  0.2739
  641MOL0     H84612   5.536  10.125  10.550 -0.5491 -1.7752  3.6362
  642MOL0     O84613   5.156   5.113   1.314  0.0829 -0.4556  0.2940
  642MOL0     C84614   5.170   5.091   1.198  1.0133  0.3580 -0.0903
  642MOL0     O84615   5.066   5.044   1.125 -0.7848  0.8503 -0.0164
  642MOL0     C84616   4.936   5.041   1.175 -0.3419  0.4493 -0.0531
  642MOL0     C84617   4.867   4.914   1.170 -0.2006 -0.5882 -0.1109
  642MOL0     C84618   4.735   4.901   1.221  0.2548  0.0032  0.5153
  642MOL0     C84619   4.679   5.001   1.297  0.8005 -0.6186 -0.0951
  642MOL0     O84620   4.572   4.961   1.372 -0.5912 -0.8427 -0.0584
  642MOL0     C84621   4.570   4.995   1.513  1.0610  0.2607 -1.1095
  642MOL0     C84622   4.451   5.068   1.554  1.3617 -0.3141 -0.5145
  642MOL0     C84623   4.315   4.993   1.542 -0.8203 -0.6456  0.1274
  642MOL0     C84624   4.196   5.078   1.580  0.6362 -1.0084  0.0557
  642MOL0     C84625   4.064   4.999   1.563 -0.7084 -0.0466  0.0681
  642MOL0     C84626   4.006   5.003   1.418 -1.0302 -0.4193 -0.0605
  642MOL0     C84627   3.855   5.000   1.421  0.1608  0.1359 -0.7622
  642MOL0     C84628   3.803   4.978   1.282  0.1058 -0.1270 -0.3067
  642MOL0     N84629   3.659   4.971   1.263  1.0035  0.8483  0.5133
  642MOL0     C84630   3.588   5.056   1.177 -0.5734  0.5711 -0.3544
  642MOL0     C84631   3.481   4.984   1.133 -0.0224  0.1570 -0.2052
  642MOL0     C84632   3.388   5.004   1.015 -0.5323  1.0348  0.1625
  642MOL0     C84633   3.264   5.078   1.052  0.3400  1.0212 -0.7751
  642MOL0     C84634   3.280   5.226   1.048 -0.4413  0.0107 -0.5303
  642MOL0     C84635   3.157   5.305   1.091 -0.8845  0.9021 -0.1959
  642MOL0     O84636   3.051   5.299   0.998 -0.8991  0.6298 -0.4060
  642MOL0     C84637   2.948   5.211   0.997  0.8205  0.2068 -0.7172
  642MOL0     C84638   2.846   5.232   0.913  0.1666 -0.3975  1.2427
  642MOL0     C84639   2.737   5.153   0.910  0.1449  0.7377 -0.0055
  642MOL0     C84640   2.720   5.041   0.998  0.9512  0.0144 -0.0542
  642MOL0     C84641   2.617   4.938   0.981 -0.6266  0.2057  0.3428
  642MOL0     O84642   2.517   4.974   0.919 -0.0790 -0.1863 -0.0804
  642MOL0     C84643   2.411   4.881   0.901 -1.0134 -0.1178 -0.2414
  642MOL0     C84644   2.347   4.859   0.779  0.6444  0.3684  0.6998
  642MOL0     C84645   2.232   4.778   0.771  0.3646  0.7760  0.5103
  642MOL0     C84646   2.168   4.729   0.888  0.8572 -0.6490  0.5191
  642MOL0     O84647   2.050   4.654   0.894  0.0518 -0.2876 -0.1676
  642MOL0     C84648   1.986   4.644   0.766  0.2370  0.6641  0.5187
  642MOL0     C84649   1.851   4.564   0.759  0.1962  0.4841 -0.2760
  642MOL0     C84650   1.879   4.415   0.792  0.3706  0.0304 -0.0316
  642MOL0     C84651   1.741   4.345   0.782  0.0659 -0.1565  0.8268
  642MOL0     C84652   1.750   4.198   0.825  0.4719  0.7504  0.0885
  642MOL0     C84653   1.616   4.135   0.859 -0.1999  0.0838 -0.2379
  642MOL0     C84654   1.635   4.003   0.946  0.1172 -0.0952  0.4150
  642MOL0     C84655   1.491   3.950   0.960  0.1091  0.5363  0.6482
  642MOL0    Cl84656   1.483   3.809   1.073  0.0737  0.4435  0.2883
  642MOL0     C84657   2.236   4.756   1.009 -0.1282 -0.8129 -1.4304
  642MOL0     C84658   2.356   4.822   1.016  0.6795 -0.8366  0.0372
  642MOL0     O84659   2.644   4.821   1.028 -0.5854  0.0330 -0.0967
  642MOL0     C84660   2.821   5.020   1.088  1.1634  0.1675  0.6252
  642MOL0     C84661   2.930   5.106   1.095  0.1559  0.4304  0.1848
  642MOL0     N84662   3.499   4.857   1.178  1.4075  0.3656  0.7629
  642MOL0     N84663   3.589   4.848   1.252 -1.4087 -0.1062 -0.4223
  642MOL0     C84664   4.747   5.125   1.305 -0.0554  0.6215 -0.3250
  642MOL0     C84665   4.874   5.145   1.241  0.4807 -0.4073  0.5778
  642MOL0     C84666   5.308   5.093   1.134 -0.2149  0.7731  0.0447
  642MOL0     C84667   5.419   5.140   1.202  0.0357 -0.3451  0.1104
  642MOL0     C84668   5.553   5.109   1.156  0.2784 -0.7021 -0.2193
  642MOL0     C84669   5.578   5.041   1.040 -0.4949  0.0674  0.5813
  642MOL0     O84670   5.703   5.016   0.981  0.3760  0.4779 -0.6408
  642MOL0     C84671   5.825   5.073   1.036  0.6990  0.1143 -0.5527
  642MOL0     C84672   5.827   5.226   1.019  1.3356  0.1896 -0.2805
  642MOL0     C84673   5.954   5.275   1.068  0.5072  0.0815 -0.6461
  642MOL0     C84674   5.944   5.290   1.221 -0.9345 -0.3790 -0.4572
  642MOL0     C84675   5.946   5.433   1.270  0.0066 -0.5459  1.0349
  642MOL0     C84676   5.949   5.551   1.311 -0.4286  0.4539  0.7228
  642MOL0     C84677   5.463   5.007   0.960 -0.1995  0.9364 -0.3387
  642MOL0     C84678   5.338   5.031   1.008  0.0389 -0.1840 -0.2860
  642MOL0     H84679   4.922   4.834   1.120  0.3755 -0.6271  0.5733
  642MOL0     H84680   4.692   4.802   1.218 -0.6053  0.3180  1.7519
  642MOL0     H84681   4.657   5.057   1.537  1.5455 -0.1816 -1.6711
  642MOL0     H84682   4.576   4.898   1.563  1.0515 -0.4515 -2.4222
  642MOL0     H84683   4.451   5.164   1.502 -0.9289  1.0922  1.8270
  642MOL0     H84684   4.473   5.103   1.655 -0.5107 -0.6966  0.0706
  642MOL0     H84685   4.326   4.908   1.609  2.1018 -0.6768 -0.2583
  642MOL0     H84686   4.293   4.962   1.439  0.8938  2.6997 -1.4391
  642MOL0     H84687   4.204   5.119   1.681 -0.0616  1.3751 -0.7944
  642MOL0     H84688   4.198   5.160   1.507  1.7318 -1.1980 -0.1489
  642MOL0     H84689   3.990   5.037   1.634  0.1718 -1.1644  1.6290
  642MOL0     H84690   4.075   4.891   1.575 -3.1953 -0.7215 -2.6117
  642MOL0     H84691   4.045   4.918   1.359  3.0071  2.2288 -1.6547
  642MOL0     H84692   4.033   5.100   1.375 -3.5174  0.9270  1.1813
  642MOL0     H84693   3.817   4.915   1.480  0.3167 -0.4396 -1.4781
  642MOL0     H84694   3.811   5.096   1.449 -1.7153 -0.4988 -1.4109
  642MOL0     H84695   3.855   4.888   1.247 -1.7898 -2.8665  3.2187
  642MOL0     H84696   3.847   5.060   1.224  0.4505 -1.2092 -1.6226
  642MOL0     H84697   3.613   5.161   1.161 -0.5652  0.6139 -0.0692
  642MOL0     H84698   3.369   4.906   0.969 -0.4160  0.1450  1.9243
  642MOL0     H84699   3.444   5.054   0.935 -0.2103  1.2588  0.5253
  642MOL0     H84700   3.236   5.045   1.152  0.9105  3.3571  0.2266
  642MOL0     H84701   3.186   5.042   0.985  1.0902  1.6337 -2.0156
  642MOL0     H84702   3.365   5.253   1.111 -0.1060  0.9397 -1.3508
  642MOL0     H84703   3.322   5.255   0.952  1.2293 -1.4145 -0.2749
  642MOL0     H84704   3.180   5.411   1.103 -0.9813  0.6635  3.0314
  642MOL0     H84705   3.140   5.278   1.196 -1.7416  3.4979  0.4091
  642MOL0     H84706   2.854   5.312   0.840 -0.5181 -3.9432 -3.1995
  642MOL0     H84707   2.661   5.173   0.836  0.5034  1.1894 -0.2554
  642MOL0     H84708   2.389   4.895   0.686 -0.2913 -1.0363 -0.2907
  642MOL0     H84709   2.217   4.757   0.666 -0.3448 -0.3382  0.8190
  642MOL0     H84710   2.047   4.594   0.690 -2.7172 -1.3065 -0.7243
  642MOL0     H84711   1.971   4.743   0.723 -2.1904  0.0557 -0.2009
  642MOL0     H84712   1.805   4.555   0.660 -0.8213 -0.8977  0.2920
  642MOL0     H84713   1.777   4.612   0.824  0.9191  1.3691 -0.0941
  642MOL0     H84714   1.915   4.398   0.893  1.3314  3.5101  0.3241
  642MOL0     H84715   1.954   4.379   0.721 -0.3820  1.4851 -1.6306
  642MOL0     H84716   1.666   4.401   0.838 -1.0438 -0.6461 -0.1436
  642MOL0     H84717   1.702   4.342   0.680 -1.8989  1.2857  1.4807
  642MOL0     H84718   1.812   4.184   0.913  2.2931 -1.2617 -1.3955
  642MOL0     H84719   1.799   4.122   0.763 -1.9706 -1.0437  0.1928
  642MOL0     H84720   1.572   4.126   0.759  0.2904  0.1334 -0.4609
  642MOL0     H84721   1.544   4.208   0.899  1.0371  2.5743 -2.2772
  642MOL0     H84722   1.703   3.942   0.885  0.9907  0.2574  1.0147
  642MOL0     H84723   1.686   4.020   1.042 -0.6608 -4.1886  1.7294
  642MOL0     H84724   1.454   3.910   0.865  0.3430 -2.5407  1.7286
  642MOL0     H84725   1.425   4.029   0.998  3.0462  2.5657  1.8547
  642MOL0     H84726   2.189   4.758   1.107 -1.5664  1.1229 -2.1040
  642MOL0     H84727   2.391   4.847   1.115  3.2595 -0.5543 -0.8678
  642MOL0     H84728   2.793   4.940   1.155  2.7660 -0.2608  0.8219
  642MOL0     H84729   3.019   5.089   1.155 -0.3887 -0.8177  0.6910
  642MOL0     H84730   4.703   5.212   1.352  3.4093  2.7264 -0.5679
  642MOL0     H84731   4.919   5.242   1.255 -2.3803  0.7686  2.4995
  642MOL0     H84732   5.410   5.202   1.291  0.3756  0.6357 -0.5266
  642MOL0     H84733   5.636   5.132   1.221 -0.6615  0.5522  0.5906
  642MOL0     H84734   5.916   5.030   0.994  2.1228 -0.2086  2.5607
  642MOL0     H84735   5.834   5.051   1.143  0.3793  0.2831 -0.4882
  642MOL0     H84736   5.804   5.250   0.915 -1.1196 -0.3222  0.0766
  642MOL0     H84737   5.743   5.271   1.073 -1.4875 -0.5331 -3.6840
  642MOL0     H84738   5.984   5.364   1.011 -2.0523 -0.1755 -2.5586
  642MOL0     H84739   6.031   5.204   1.038 -1.8040 -3.0859  0.4481
  642MOL0     H84740   5.863   5.243   1.277 -1.4573  2.2808  1.1569
  642MOL0     H84741   6.032   5.244   1.267 -0.6139 -0.3605 -1.0442
  642MOL0     H84742   5.946   5.654   1.339  0.5294  1.0652 -1.2521
  642MOL0     H84743   5.475   4.951   0.867 -0.3829 -1.9840  1.2803
  642MOL0     H84744   5.255   5.004   0.943  0.9142 -0.7362 -1.2100
  643MOL0     O84745   5.898   4.558   3.876 -0.2872 -0.1792  0.1116
  643MOL0     C84746   5.779   4.557   3.883 -0.2754 -0.2055  0.3511
  643MOL0     O84747   5.691   4.488   3.806 -0.0318  0.5973  0.2184
  643MOL0     C84748   5.733   4.387   3.722  0.0132  0.6126  0.2784
  643MOL0     C84749   5.829   4.291   3.760 -0.5626 -0.1052  0.1966
  643MOL0     C84750   5.865   4.185   3.678 -0.4086 -0.0097 -0.1750
  643MOL0     C84751   5.788   4.157   3.560 -0.1231  0.2803 -0.5725
  643MOL0     O84752   5.820   4.053   3.477 -0.0205 -0.0434  0.4022
  643MOL0     C84753   5.955   3.996   3.475 -0.7148  0.0465 -0.3636
  643MOL0     C84754   5.968   3.919   3.343 -1.2745  0.1204  1.0688
  643MOL0     C84755   5.934   4.005   3.207  0.5561  0.8701 -1.0041
  643MOL0     C84756   5.952   3.923   3.079  0.5565 -0.6445 -0.7860
  643MOL0     C84757   6.078   3.962   2.994  0.7017  0.1600  0.8360
  643MOL0     C84758   6.066   3.895   2.853 -0.1222  0.7837 -0.4597
  643MOL0     C84759   6.185   3.945   2.766 -0.0440 -0.0194 -0.4997
  643MOL0     C84760   6.178   3.856   2.637 -0.9677 -0.2535 -0.5252
  643MOL0     N84761   6.251   3.907   2.519  0.0537 -0.8098  0.2923
  643MOL0     C84762   6.387   3.913   2.511 -0.1542 -0.5825  0.0802
  643MOL0     C84763   6.410   3.952   2.379  0.8546 -0.9609 -0.1762
  643MOL0     C84764   6.548   3.954   2.311 -0.2161 -0.2629 -0.0927
  643MOL0     C84765   6.552   4.028   2.172 -0.4631 -0.8370  0.1975
  643MOL0     C84766   6.555   4.178   2.201  0.3727  0.8872  1.0922
  643MOL0     C84767   6.554   4.250   2.066 -0.8688  0.2483 -0.4769
  643MOL0     O84768   6.504   4.383   2.083 -0.5303  0.6202  0.2307
  643MOL0     C84769   6.573   4.498   2.043  0.3703  0.5173  0.4104
  643MOL0     C84770   6.508   4.591   1.964 -0.8506  0.4221 -0.0437
  643MOL0     C84771   6.583   4.698   1.916 -0.7770  0.7671  0.9201
  643MOL0     C84772   6.718   4.722   1.959 -0.5338  0.3562  0.4288
  643MOL0     C84773   6.796   4.838   1.910  0.3895  0.4903  0.5557
  643MOL0     O84774   6.895   4.876   1.986 -0.1548 -0.4084 -0.4190
  643MOL0     C84775   7.004   4.954   1.944 -0.4863 -1.0810 -0.3992
  643MOL0     C84776   7.054   4.990   1.821  0.5312 -0.2046 -0.4440
  643MOL0     C84777   7.176   5.067   1.801 -0.5496  0.4146  0.8775
  643MOL0     C84778   7.245   5.118   1.906 -0.4436  0.4352  0.0320
  643MOL0     O84779   7.352   5.199   1.879  0.2559 -0.3283 -0.7571
  643MOL0     C84780   7.327   5.348   1.906  0.3943  0.5994 -0.7105
  643MOL0     C84781   7.371   5.379   2.059 -0.7679  0.0453 -0.2681
  643MOL0     C84782   7.517   5.317   2.089 -0.2456  0.1129 -1.1206
  643MOL0     C84783   7.568   5.346   2.232  0.8858 -0.6243  0.4918
  643MOL0     C84784   7.716   5.323   2.249 -0.6334  0.7108 -0.6607
  643MOL0     C84785   7.812   5.438   2.213  0.4618  0.8826 -0.4529
  643MOL0     C84786   7.946   5.426   2.274 -0.0267  0.1045 -0.2205
  643MOL0     C84787   8.024   5.545   2.226  0.4592 -0.1745 -0.9722
  643MOL0    Cl84788   7.968   5.672   2.334 -0.0512 -0.1851 -0.2637
  643MOL0     C84789   7.205   5.068   2.034  0.2857 -0.1903 -0.0884
  643MOL0     C84790   7.085   4.996   2.046 -0.0403 -0.0992 -0.0109
  643MOL0     O84791   6.765   4.892   1.800 -0.3774  0.8116 -1.0612
  643MOL0     C84792   6.772   4.643   2.052 -0.4190 -0.1824 -0.2992
  643MOL0     C84793   6.703   4.534   2.100  0.0341  0.9678  0.0358
  643MOL0     N84794   6.282   3.970   2.314 -0.7262  0.1509 -0.4276
  643MOL0     N84795   6.188   3.927   2.392 -0.1099 -1.5592  0.2323
  643MOL0     C84796   5.692   4.250   3.525 -0.0259  0.0360  0.1747
  643MOL0     C84797   5.659   4.360   3.607  0.0558 -0.7589  0.2385
  643MOL0     C84798   5.725   4.627   4.002 -0.6064 -1.4460  0.0959
  643MOL0     C84799   5.592   4.615   4.042 -0.1472  0.4570 -0.1109
  643MOL0     C84800   5.544   4.666   4.155 -0.3485 -0.9734  0.0570
  643MOL0     C84801   5.619   4.746   4.234 -0.3828  0.5294 -0.5311
  643MOL0     O84802   5.574   4.798   4.354  0.0232 -0.6098 -0.3462
  643MOL0     C84803   5.579   4.937   4.363  0.0677 -0.5868 -0.4593
  643MOL0     C84804   5.504   5.001   4.483  0.6952 -0.1425 -0.5648
  643MOL0     C84805   5.348   4.977   4.484  0.4611  0.3795  0.1648
  643MOL0     C84806   5.279   5.009   4.349  0.4554 -0.7070 -0.6664
  643MOL0     C84807   5.134   5.021   4.377 -0.3816  0.2681  0.5023
  643MOL0     C84808   5.022   5.031   4.415  0.1074 -0.1652  0.5273
  643MOL0     C84809   5.747   4.767   4.201 -0.4001 -0.1323  0.2189
  643MOL0     C84810   5.807   4.706   4.088 -0.3830 -0.7184  1.3196
  643MOL0     H84811   5.881   4.305   3.854  0.0398  2.3670 -0.4400
  643MOL0     H84812   5.954   4.133   3.710  0.0905  0.9731  0.0695
  643MOL0     H84813   5.977   3.930   3.559 -0.0268  0.5810 -0.1124
  643MOL0     H84814   6.031   4.074   3.488  1.5515 -1.5620 -2.8622
  643MOL0     H84815   5.905   3.831   3.331  1.2423 -1.4100 -3.4818
  643MOL0     H84816   6.067   3.873   3.352 -0.1464  1.7530 -1.7080
  643MOL0     H84817   5.990   4.099   3.202  0.7325  0.7095 -2.5624
  643MOL0     H84818   5.827   4.029   3.210  0.0872 -1.0473  2.5445
  643MOL0     H84819   5.965   3.819   3.109 -2.5033 -0.5119  1.4889
  643MOL0     H84820   5.857   3.942   3.029  0.0878  0.0693  0.3371
  643MOL0     H84821   6.169   3.924   3.041  1.6888  2.9052  1.3605
  643MOL0     H84822   6.084   4.068   2.967  2.2174  0.2224  1.3178
  643MOL0     H84823   5.967   3.909   2.808 -0.7790  3.4714  1.5410
  643MOL0     H84824   6.060   3.787   2.870 -1.6403 -0.5791 -6.9714
  643MOL0     H84825   6.180   4.051   2.739 -0.9073 -0.0696 -0.5656
  643MOL0     H84826   6.280   3.935   2.819 -0.4830  1.2885  0.6020
  643MOL0     H84827   6.073   3.830   2.623 -0.7331 -3.3249  2.0928
  643MOL0     H84828   6.220   3.756   2.654 -0.5725 -0.1770 -1.0395
  643MOL0     H84829   6.461   3.907   2.590 -0.5313  0.9330  0.5864
  643MOL0     H84830   6.582   3.851   2.294  3.1944  0.8850 -1.0145
  643MOL0     H84831   6.626   3.988   2.380  0.0074  0.2335 -0.5829
  643MOL0     H84832   6.465   3.986   2.121 -1.4242  0.9026  0.3231
  643MOL0     H84833   6.634   3.999   2.106 -0.9620  0.3233 -0.9795
  643MOL0     H84834   6.469   4.209   2.261  0.5481  4.3709 -0.2442
  643MOL0     H84835   6.639   4.213   2.263  1.4888  1.0694 -0.4591
  643MOL0     H84836   6.495   4.187   2.000  2.0016 -3.8063  0.4108
  643MOL0     H84837   6.657   4.255   2.030 -1.2576  1.8787 -1.4527
  643MOL0     H84838   6.404   4.581   1.935 -1.0126  1.4814  0.1219
  643MOL0     H84839   6.540   4.757   1.837 -3.8390 -2.4312 -0.0467
  643MOL0     H84840   6.983   4.970   1.741  0.1000 -0.0784 -0.1026
  643MOL0     H84841   7.216   5.079   1.701  1.1597 -4.3072  0.7622
  643MOL0     H84842   7.227   5.386   1.886  1.3832  2.8736 -1.6992
  643MOL0     H84843   7.399   5.400   1.842 -0.2678  1.2789 -0.9253
  643MOL0     H84844   7.292   5.344   2.126 -1.0611 -0.3994 -0.8454
  643MOL0     H84845   7.384   5.488   2.063  1.8789 -0.2015  0.2164
  643MOL0     H84846   7.578   5.371   2.016 -1.3398 -0.5943 -2.6145
  643MOL0     H84847   7.512   5.208   2.081  1.6007 -0.6257  4.1306
  643MOL0     H84848   7.553   5.451   2.260  1.2678 -0.8802  1.7115
  643MOL0     H84849   7.507   5.297   2.309 -1.4799  2.7922  1.0457
  643MOL0     H84850   7.741   5.237   2.186  1.2628  1.5347 -1.1160
  643MOL0     H84851   7.736   5.295   2.352  0.3108  3.1965 -0.0853
  643MOL0     H84852   7.753   5.524   2.246 -1.2472 -0.5933  0.4881
  643MOL0     H84853   7.814   5.440   2.103  0.0959  2.0695 -0.4555
  643MOL0     H84854   7.950   5.421   2.383  0.4407 -4.7983 -0.2454
  643MOL0     H84855   7.999   5.336   2.241  0.5258  0.6488 -0.8459
  643MOL0     H84856   8.019   5.571   2.120 -0.0620 -1.1267 -1.1863
  643MOL0     H84857   8.130   5.528   2.246  0.5352  0.7246 -0.5239
  643MOL0     H84858   7.267   5.089   2.120 -0.6913  0.0423  0.5752
  643MOL0     H84859   7.053   4.969   2.146 -2.8857  1.7200 -0.3043
  643MOL0     H84860   6.869   4.665   2.095 -0.4077 -2.7320  1.1730
  643MOL0     H84861   6.747   4.474   2.179  1.7183  1.0920 -0.7781
  643MOL0     H84862   5.649   4.232   3.427  0.9991  4.5352 -1.3529
  643MOL0     H84863   5.591   4.437   3.573  3.1405  1.4455 -1.4349
  643MOL0     H84864   5.531   4.552   3.978  1.9716  0.8209 -2.6254
  643MOL0     H84865   5.439   4.651   4.179 -0.8777 -0.6688 -1.8771
  643MOL0     H84866   5.533   4.977   4.272 -1.2918  0.9936  0.8451
  643MOL0     H84867   5.682   4.973   4.358  0.1947 -1.0588 -1.5343
  643MOL0     H84868   5.529   4.950   4.577 -2.0180 -0.9692 -0.1961
  643MOL0     H84869   5.523   5.108   4.491  3.6764 -0.5197 -1.3247
  643MOL0     H84870   5.297   5.033   4.564 -2.8985 -0.8112 -0.9985
  643MOL0     H84871   5.321   4.878   4.520 -0.4836  1.7540  3.7371
  643MOL0     H84872   5.294   5.113   4.319  0.5143 -0.8701 -1.2220
  643MOL0     H84873   5.312   4.940   4.271  2.6130  1.9681 -2.3143
  643MOL0     H84874   4.922   5.051   4.448 -0.5677 -0.6673 -1.0969
  643MOL0     H84875   5.805   4.839   4.258  1.1837  0.4881 -2.0680
  643MOL0     H84876   5.911   4.728   4.065 -0.4587  0.9321  2.3671
  644MOL0     O84877   8.727   7.088   8.061 -0.1218  0.1428 -0.0510
  644MOL0     C84878   8.781   6.976   8.063  0.1769 -0.7996 -0.6393
  644MOL0     O84879   8.870   6.935   8.162  0.0318 -0.5600 -0.4262
  644MOL0     C84880   8.901   7.023   8.268  0.1728  0.8711 -0.1470
  644MOL0     C84881   8.810   7.039   8.377  0.3730  0.7556 -0.5070
  644MOL0     C84882   8.855   7.098   8.499  0.6473  1.1241  0.0957
  644MOL0     C84883   8.979   7.155   8.508 -0.0215 -0.3496  0.3275
  644MOL0     O84884   9.029   7.213   8.620 -0.0582 -0.2157 -0.1749
  644MOL0     C84885   8.952   7.274   8.717 -0.3311  0.6137 -0.5057
  644MOL0     C84886   8.943   7.186   8.836  0.5994  0.4218 -0.1724
  644MOL0     C84887   8.814   7.218   8.928 -0.2572  0.9708  0.6980
  644MOL0     C84888   8.695   7.129   8.911 -1.1002  0.3636 -0.1472
  644MOL0     C84889   8.590   7.155   9.016  0.4641 -0.0588 -0.1274
  644MOL0     C84890   8.492   7.041   8.992 -1.0818 -0.5089  0.6528
  644MOL0     C84891   8.385   7.064   9.084  0.7666  0.1818 -0.0408
  644MOL0     C84892   8.278   6.962   9.088 -0.0436 -0.0508  0.2452
  644MOL0     N84893   8.178   6.961   8.983  0.2575 -0.1466 -0.1420
  644MOL0     C84894   8.177   6.876   8.879 -0.1271  0.3671  0.8528
  644MOL0     C84895   8.059   6.889   8.826  0.8213 -0.3839  1.2268
  644MOL0     C84896   8.007   6.801   8.711  0.0742  0.7825 -0.0854
  644MOL0     C84897   7.987   6.659   8.753 -0.4091  0.8097 -0.4918
  644MOL0     C84898   7.856   6.626   8.829  1.0431 -0.2843  0.0079
  644MOL0     C84899   7.809   6.478   8.813 -0.6403 -0.7756  0.6452
  644MOL0     O84900   7.909   6.378   8.845  0.2547  0.1384 -0.0898
  644MOL0     C84901   7.882   6.244   8.858  1.8100  0.1105  0.8374
  644MOL0     C84902   7.962   6.173   8.939  0.1523  0.5252  0.0937
  644MOL0     C84903   7.941   6.042   8.972  0.6899  0.2848  0.0073
  644MOL0     C84904   7.828   5.973   8.922  0.9659 -0.1986 -0.4790
  644MOL0     C84905   7.822   5.825   8.924 -0.0207  0.1132  0.0468
  644MOL0     O84906   7.942   5.761   8.958 -0.6410 -0.3599  0.9981
  644MOL0     C84907   7.951   5.630   8.981 -0.0323  0.4035  0.9542
  644MOL0     C84908   7.869   5.529   8.916 -0.5340  0.0036 -0.4649
  644MOL0     C84909   7.875   5.397   8.963  1.0331 -0.5376  0.3402
  644MOL0     C84910   7.971   5.358   9.056 -0.7480  0.5897 -0.2696
  644MOL0     O84911   7.976   5.221   9.086 -0.5515  0.1298 -0.7596
  644MOL0     C84912   8.045   5.145   8.982  0.0864 -0.2221  0.7870
  644MOL0     C84913   8.051   4.995   9.017  0.4606  0.0647 -0.4701
  644MOL0     C84914   8.181   4.978   9.094  0.5861 -0.1332  0.3663
  644MOL0     C84915   8.163   4.852   9.170 -0.2312 -0.5143  0.9040
  644MOL0     C84916   8.296   4.778   9.198 -0.2837 -0.3389  0.0302
  644MOL0     C84917   8.352   4.834   9.325 -0.3384  0.4662 -0.6033
  644MOL0     C84918   8.486   4.760   9.344 -0.0288  0.4123  0.0164
  644MOL0     C84919   8.583   4.829   9.248  0.8257 -0.2028 -0.2784
  644MOL0    Cl84920   8.758   4.824   9.317  0.2835  0.2556 -0.3971
  644MOL0     C84921   8.058   5.453   9.106  0.0353 -0.4522 -0.5266
  644MOL0     C84922   8.053   5.588   9.064 -0.0439 -0.0556 -1.1814
  644MOL0     O84923   7.712   5.774   8.904 -0.2050  1.0181  0.3991
  644MOL0     C84924   7.730   6.048   8.853 -0.1642 -0.0395  0.3609
  644MOL0     C84925   7.767   6.175   8.808  0.4426 -0.5996 -0.7550
  644MOL0     N84926   8.007   7.010   8.865  0.1447 -0.3508  0.7784
  644MOL0     N84927   8.076   7.051   8.967 -0.1632  0.1944  0.4028
  644MOL0     C84928   9.055   7.159   8.399  0.3380  0.2135 -0.2694
  644MOL0     C84929   9.024   7.087   8.281 -0.0781 -0.8601 -0.2617
  644MOL0     C84930   8.761   6.880   7.951 -0.3224  0.0234  0.2221
  644MOL0     C84931   8.685   6.908   7.842 -0.7682 -0.1017  0.1640
  644MOL0     C84932   8.670   6.807   7.743 -0.4157  1.4251  0.3268
  644MOL0     C84933   8.711   6.675   7.767 -0.5541 -0.3234  0.2944
  644MOL0     O84934   8.703   6.576   7.678  0.4922  0.5235 -0.0220
  644MOL0     C84935   8.634   6.593   7.554 -0.3479 -0.8599  0.6871
  644MOL0     C84936   8.610   6.462   7.493 -0.5827  0.5574  0.0960
  644MOL0     C84937   8.522   6.378   7.586  0.1046  1.1255  0.1649
  644MOL0     C84938   8.450   6.260   7.508  0.1124  0.7799 -0.0206
  644MOL0     C84939   8.349   6.310   7.413  0.6155 -0.0050  0.2311
  644MOL0     C84940   8.274   6.354   7.329  0.1255 -0.0827  0.4271
  644MOL0     C84941   8.773   6.648   7.887  0.2725  1.0463  0.0297
  644MOL0     C84942   8.808   6.753   7.972  0.0590 -0.2455  0.6362
  644MOL0     H84943   8.714   6.989   8.384 -1.0253  3.2264 -0.7476
  644MOL0     H84944   8.781   7.103   8.578 -0.7389  1.4715 -1.1736
  644MOL0     H84945   8.849   7.303   8.692 -0.2611  1.2061 -0.1309
  644MOL0     H84946   9.003   7.366   8.748  1.3112 -0.4192 -0.0550
  644MOL0     H84947   9.030   7.209   8.897  1.0001 -0.4113 -0.4154
  644MOL0     H84948   8.943   7.079   8.812  1.5717  0.3768  0.0113
  644MOL0     H84949   8.781   7.322   8.920 -1.1068  0.7809  1.5154
  644MOL0     H84950   8.859   7.203   9.026  2.2039  0.9810 -0.3715
  644MOL0     H84951   8.652   7.154   8.813 -1.0824  4.1401  0.6655
  644MOL0     H84952   8.728   7.024   8.908  0.8603  0.9696 -2.0211
  644MOL0     H84953   8.544   7.252   8.995  1.1599  0.1496 -0.7285
  644MOL0     H84954   8.627   7.153   9.118  1.2490 -1.4727 -0.4086
  644MOL0     H84955   8.531   6.940   9.005  0.5342  0.0394  0.3101
  644MOL0     H84956   8.449   7.055   8.892 -1.1538 -0.9691  0.6185
  644MOL0     H84957   8.432   7.069   9.183 -2.3167 -1.5052  1.6644
  644MOL0     H84958   8.324   7.152   9.057 -4.0101 -2.6096  0.4290
  644MOL0     H84959   8.226   6.967   9.184 -0.3575 -1.0449  0.1404
  644MOL0     H84960   8.321   6.861   9.093 -2.0302 -0.9391  0.1404
  644MOL0     H84961   8.245   6.794   8.859  0.0897  0.7775 -0.1613
  644MOL0     H84962   8.079   6.807   8.628 -2.6348  1.5406 -2.5481
  644MOL0     H84963   7.910   6.834   8.672  0.4220 -1.2184 -2.9940
  644MOL0     H84964   8.073   6.626   8.812 -2.1346 -0.4763  1.4744
  644MOL0     H84965   7.977   6.593   8.667  0.4374 -2.8611  1.9785
  644MOL0     H84966   7.859   6.645   8.937 -0.4301 -1.0828  0.2257
  644MOL0     H84967   7.776   6.686   8.785  1.2404  0.8207  1.1172
  644MOL0     H84968   7.777   6.463   8.710  0.1748  1.5370 -0.0080
  644MOL0     H84969   7.722   6.459   8.877  1.3581 -0.2884  3.7109
  644MOL0     H84970   8.053   6.230   8.956 -0.1020  1.1141 -0.4977
  644MOL0     H84971   8.012   5.989   9.034  0.9120  2.1948  1.4572
  644MOL0     H84972   7.792   5.560   8.846 -1.9861  0.2859  1.1895
  644MOL0     H84973   7.800   5.322   8.941 -1.5396  1.0393  2.9445
  644MOL0     H84974   8.148   5.177   8.965 -0.1165 -0.5847 -1.3892
  644MOL0     H84975   7.999   5.150   8.883  2.5569  0.6610 -0.4071
  644MOL0     H84976   8.061   4.935   8.926 -1.1567 -0.8333 -0.0966
  644MOL0     H84977   7.967   4.958   9.077  2.1845 -1.1616  1.3036
  644MOL0     H84978   8.199   5.059   9.165  5.3294 -0.2669 -0.3516
  644MOL0     H84979   8.257   4.968   9.016  0.9609  2.7623  0.2544
  644MOL0     H84980   8.108   4.872   9.263  2.6735  1.8927  2.2797
  644MOL0     H84981   8.109   4.784   9.104 -2.1022  1.6849  0.0324
  644MOL0     H84982   8.369   4.794   9.117 -1.0451  1.3731 -0.3633
  644MOL0     H84983   8.279   4.670   9.203  1.8065 -0.6834  0.8413
  644MOL0     H84984   8.288   4.801   9.407 -0.3244  0.2955 -0.6607
  644MOL0     H84985   8.367   4.942   9.320 -0.9321  0.5104 -2.2505
  644MOL0     H84986   8.523   4.776   9.446  1.4978 -0.3494 -0.3839
  644MOL0     H84987   8.473   4.652   9.330  0.8717  0.5192 -2.0315
  644MOL0     H84988   8.551   4.933   9.233 -2.5527 -1.0515  0.4401
  644MOL0     H84989   8.570   4.781   9.151  0.3289  2.8090 -1.8497
  644MOL0     H84990   8.128   5.402   9.171 -3.2052 -4.7197  0.0181
  644MOL0     H84991   8.129   5.656   9.100  3.1323 -1.3748 -4.7781
  644MOL0     H84992   7.639   6.000   8.817  0.2228 -2.4053  2.2628
  644MOL0     H84993   7.698   6.231   8.745  1.1557 -1.4069 -2.3009
  644MOL0     H84994   9.152   7.209   8.405  1.2572 -1.3906 -0.9830
  644MOL0     H84995   9.077   7.083   8.186 -2.4782  0.3304 -1.7481
  644MOL0     H84996   8.659   7.009   7.811 -0.6158 -0.2785 -0.5563
  644MOL0     H84997   8.619   6.840   7.653  0.1328 -1.0839 -0.9909
  644MOL0     H84998   8.706   6.647   7.492 -0.3615 -1.3747  0.2224
  644MOL0     H84999   8.550   6.662   7.562  0.2066 -0.3188  2.4129
  644MOL0     H85000   8.555   6.484   7.401 -5.7986  0.4981  2.8224
  644MOL0     H85001   8.709   6.420   7.473 -0.8255  0.1870 -0.3358
  644MOL0     H85002   8.445   6.431   7.643 -1.2696 -0.0185 -0.5430
  644MOL0     H85003   8.590   6.332   7.658  0.3699  0.9405 -0.2012
  644MOL0     H85004   8.530   6.207   7.457 -0.6705  0.1058 -0.5766
  644MOL0     H85005   8.409   6.186   7.578  1.9711  0.4088  0.7221
  644MOL0     H85006   8.197   6.388   7.262 -0.0582  1.0931  1.2095
  644MOL0     H85007   8.802   6.546   7.909 -1.1894  0.3446 -1.0563
  644MOL0     H85008   8.865   6.717   8.057  0.2507 -3.6520 -0.7699
  645MOL0     O85009   5.634  11.032   9.861  0.7249 -0.6838 -0.6636
  645MOL0     C85010   5.631  10.928   9.927  0.0411 -0.2434  0.3074
  645MOL0     O85011   5.520  10.875   9.986 -0.2919  0.4414 -0.2130
  645MOL0     C85012   5.393  10.926   9.996 -0.2413 -0.6070 -0.4005
  645MOL0     C85013   5.286  10.849   9.961 -0.0767 -0.2651 -0.0593
  645MOL0     C85014   5.162  10.895   9.941  0.7266  0.5201  0.0756
  645MOL0     C85015   5.134  11.027   9.958 -0.1896 -0.3429  0.2852
  645MOL0     O85016   5.004  11.072   9.950 -0.5121 -0.6385 -0.3304
  645MOL0     C85017   4.930  11.061   9.825 -0.0304 -0.3033 -0.7727
  645MOL0     C85018   4.921  11.198   9.770 -0.1230 -1.1726 -0.3372
  645MOL0     C85019   5.051  11.272   9.755  0.6241 -0.9042  0.2521
  645MOL0     C85020   5.028  11.400   9.673 -0.4217  0.4834  0.4464
  645MOL0     C85021   4.929  11.510   9.736 -0.5426  0.1431  0.0955
  645MOL0     C85022   4.972  11.654   9.711  0.0252 -0.3882  0.1545
  645MOL0     C85023   4.899  11.752   9.810 -0.0104 -0.5887 -0.6349
  645MOL0     C85024   4.919  11.908   9.787  0.8467  0.9123  0.4220
  645MOL0     N85025   5.062  11.949   9.812  0.2325 -0.2071  0.0826
  645MOL0     C85026   5.108  11.998   9.933 -0.1566 -1.0101 -0.0922
  645MOL0     C85027   5.229  12.052   9.907  0.7385  0.9576  0.3017
  645MOL0     C85028   5.333  12.102   9.997 -0.5694  0.3406  0.3506
  645MOL0     C85029   5.343  12.251   9.997  0.1720 -1.0412 -0.9118
  645MOL0     C85030   5.219  12.308  10.065  0.0783 -0.2667  0.2886
  645MOL0     C85031   5.224  12.461  10.055  0.0853 -0.1896  0.8861
  645MOL0     O85032   5.106  12.512  10.121  0.2487  0.0673 -0.2234
  645MOL0     C85033   5.086  12.640  10.096 -0.4148 -0.1095 -0.6774
  645MOL0     C85034   5.193  12.739  10.064 -0.1690  0.1586 -0.1550
  645MOL0     C85035   5.161  12.869  10.029  0.1442  0.1742  1.2889
  645MOL0     C85036   5.024  12.914  10.007  0.9568  0.1244  0.1436
  645MOL0     C85037   4.986  13.051   9.965 -0.3924 -0.1118 -0.0796
  645MOL0     O85038   5.092  13.128   9.942  1.0182 -0.2768  0.0923
  645MOL0     C85039   5.053  13.234   9.859  0.2590 -0.6194 -0.4301
  645MOL0     C85040   5.057  13.197   9.724  0.6514  0.7569  0.7469
  645MOL0     C85041   5.017  13.292   9.621  0.7719  0.7084  0.7503
  645MOL0     C85042   5.001  13.427   9.656  0.5615  0.0678 -0.7026
  645MOL0     O85043   4.983  13.507   9.548  0.6409  0.0316  0.0239
  645MOL0     C85044   4.918  13.637   9.564 -0.0735  0.4068  0.6075
  645MOL0     C85045   4.822  13.650   9.454  0.7081 -0.3338 -0.1652
  645MOL0     C85046   4.765  13.792   9.438  0.4826  0.5186 -0.0905
  645MOL0     C85047   4.679  13.800   9.309 -0.3254  0.3528 -0.3330
  645MOL0     C85048   4.525  13.780   9.329  0.5295  0.4517  0.5909
  645MOL0     C85049   4.442  13.794   9.189 -0.6579  0.3424  0.7194
  645MOL0     C85050   4.294  13.768   9.199  0.6180 -0.4355  0.0908
  645MOL0     C85051   4.201  13.826   9.096  0.5903 -0.3764 -1.0187
  645MOL0    Cl85052   4.251  13.786   8.934  0.0542  0.5604 -0.1034
  645MOL0     C85053   4.996  13.457   9.792 -1.2391  0.1848  0.6643
  645MOL0     C85054   5.027  13.367   9.889  0.0269  0.8760 -0.3988
  645MOL0     O85055   4.863  13.080   9.959 -0.5549 -0.1765  0.1394
  645MOL0     C85056   4.927  12.820  10.032  0.1943  0.5746 -0.3753
  645MOL0     C85057   4.960  12.696  10.076 -0.1273  0.4938  0.1428
  645MOL0     N85058   5.254  12.025   9.771  0.2581  0.7049  0.1206
  645MOL0     N85059   5.164  11.956   9.725 -0.1466 -0.3616  0.3729
  645MOL0     C85060   5.235  11.111  10.004  0.5517 -0.3806  1.2472
  645MOL0     C85061   5.361  11.062  10.030 -0.5351 -0.5583 -1.2048
  645MOL0     C85062   5.761  10.862   9.924  0.0928  0.3387  0.4442
  645MOL0     C85063   5.884  10.912   9.864  0.1067  0.7434  0.3640
  645MOL0     C85064   6.004  10.839   9.892  0.7665 -0.5890  0.5231
  645MOL0     C85065   5.995  10.723   9.964  1.3338  0.1052 -0.8816
  645MOL0     O85066   6.113  10.650   9.987  0.6930 -0.5092 -0.0845
  645MOL0     C85067   6.242  10.711  10.013 -0.0344 -0.2357 -0.9359
  645MOL0     C85068   6.354  10.607  10.035  0.4283 -0.4252  0.7413
  645MOL0     C85069   6.318  10.480  10.104  0.4784 -0.6828 -0.5753
  645MOL0     C85070   6.262  10.519  10.245 -0.3377  0.8325 -0.0557
  645MOL0     C85071   6.386  10.539  10.322 -0.3089 -0.0024  0.7410
  645MOL0     C85072   6.499  10.547  10.373  0.4562 -0.1710  1.1336
  645MOL0     C85073   5.878  10.673  10.021  0.0187  1.2751 -0.1642
  645MOL0     C85074   5.759  10.745  10.006  0.3217 -0.3826  0.6000
  645MOL0     H85075   5.323  10.754   9.925  0.2522  0.6614 -2.3433
  645MOL0     H85076   5.085  10.824   9.910 -0.8998  2.1650  0.2020
  645MOL0     H85077   4.836  11.013   9.855  1.1290 -2.0660  0.2273
  645MOL0     H85078   4.985  10.990   9.762 -0.5695  0.0190 -1.6142
  645MOL0     H85079   4.846  11.252   9.828  2.7157  1.7535  0.9100
  645MOL0     H85080   4.880  11.193   9.669  1.2290  0.9263 -1.0659
  645MOL0     H85081   5.136  11.227   9.704  2.4448  1.9880  0.5035
  645MOL0     H85082   5.082  11.291   9.858  3.2665 -2.1594 -0.2326
  645MOL0     H85083   5.127  11.446   9.663 -0.9281  1.9590  1.8088
  645MOL0     H85084   4.990  11.379   9.573 -0.5371  3.0796 -0.1124
  645MOL0     H85085   4.933  11.486   9.842 -3.8554  0.2247  0.3208
  645MOL0     H85086   4.826  11.483   9.712 -0.4243 -0.0882 -0.1669
  645MOL0     H85087   4.940  11.691   9.614  1.6697  3.0824  0.7851
  645MOL0     H85088   5.080  11.671   9.708 -0.3113  2.6121  1.7567
  645MOL0     H85089   4.792  11.741   9.792 -0.5980  3.1484 -0.3197
  645MOL0     H85090   4.923  11.722   9.913 -1.0640  2.6985  0.7237
  645MOL0     H85091   4.853  11.961   9.857 -0.1563 -0.0877  0.2624
  645MOL0     H85092   4.895  11.944   9.687  1.1994 -0.1529 -0.0614
  645MOL0     H85093   5.048  12.007  10.023 -3.0651  1.7273 -2.0921
  645MOL0     H85094   5.426  12.061   9.957 -2.2901 -4.3199  0.5406
  645MOL0     H85095   5.317  12.065  10.098  1.3022 -0.7221  0.3016
  645MOL0     H85096   5.338  12.291   9.896  2.0721  3.5406  0.5676
  645MOL0     H85097   5.421  12.285  10.066 -0.1478 -0.8055 -0.6615
  645MOL0     H85098   5.139  12.283   9.995 -2.1141 -0.5826  2.7808
  645MOL0     H85099   5.202  12.268  10.165 -2.1660  1.5446  0.7120
  645MOL0     H85100   5.226  12.486   9.948 -2.1411 -1.4276  0.5012
  645MOL0     H85101   5.312  12.503  10.104  1.0461  0.1133 -1.0142
  645MOL0     H85102   5.296  12.703  10.060  0.0564  0.5573  1.4273
  645MOL0     H85103   5.252  12.927  10.025 -0.1314  0.7004  2.2847
  645MOL0     H85104   5.082  13.094   9.700 -0.4657  0.9285 -1.3820
  645MOL0     H85105   4.994  13.256   9.521 -1.0302  1.3265  0.9062
  645MOL0     H85106   4.985  13.720   9.541 -0.7560  0.8505  0.1496
  645MOL0     H85107   4.872  13.642   9.663  1.0733 -2.5419  1.3966
  645MOL0     H85108   4.745  13.575   9.476  2.8297 -1.8188  2.9845
  645MOL0     H85109   4.871  13.622   9.361  0.4321  3.4410 -1.6218
  645MOL0     H85110   4.851  13.857   9.420 -0.1790  1.2179 -0.7842
  645MOL0     H85111   4.704  13.820   9.525  1.1765 -1.7029  1.1883
  645MOL0     H85112   4.697  13.895   9.258  1.6653  1.3815  2.0861
  645MOL0     H85113   4.707  13.717   9.243  1.2647 -0.5174  1.3726
  645MOL0     H85114   4.481  13.855   9.396 -1.9848  0.6407 -1.1045
  645MOL0     H85115   4.507  13.673   9.348 -3.9657  0.5525 -1.6178
  645MOL0     H85116   4.491  13.734   9.111  1.4784  2.4767  0.2835
  645MOL0     H85117   4.461  13.896   9.154 -0.8732  0.1962  0.1702
  645MOL0     H85118   4.284  13.659   9.199  1.0072 -0.5209 -2.1448
  645MOL0     H85119   4.260  13.817   9.291 -3.6434 -1.1668 -0.8909
  645MOL0     H85120   4.206  13.935   9.105 -1.4423 -0.2624 -0.7212
  645MOL0     H85121   4.099  13.788   9.112 -0.8338  3.3650 -0.0740
  645MOL0     H85122   4.996  13.562   9.820  3.4864 -0.4094  4.1037
  645MOL0     H85123   5.026  13.382   9.997  1.7593 -1.1942 -0.0249
  645MOL0     H85124   4.822  12.845  10.021 -0.0706 -0.7116 -0.8822
  645MOL0     H85125   4.874  12.634  10.098  0.0314  0.9023  2.0529
  645MOL0     H85126   5.226  11.218  10.022 -2.0824  0.0492 -1.7157
  645MOL0     H85127   5.446  11.125  10.053  2.8699 -4.8357 -0.7155
  645MOL0     H85128   5.880  11.007   9.812 -1.0206  2.0143  2.6089
  645MOL0     H85129   6.096  10.880   9.851  1.3130  0.1886  2.3915
  645MOL0     H85130   6.219  10.777  10.097  0.3376  0.1437 -1.1243
  645MOL0     H85131   6.278  10.771   9.928  0.0541  1.5654  0.3129
  645MOL0     H85132   6.389  10.578   9.936 -0.6730 -0.9091  0.4738
  645MOL0     H85133   6.433  10.667  10.080 -2.6764  3.4622  1.6506
  645MOL0     H85134   6.404  10.412  10.112  1.6576  0.7157 -0.9911
  645MOL0     H85135   6.233  10.430  10.058  0.9579 -0.3930 -1.8133
  645MOL0     H85136   6.202  10.611  10.244 -2.2456 -0.3542  0.0200
  645MOL0     H85137   6.204  10.434  10.281  1.7667 -1.3432 -1.4643
  645MOL0     H85138   6.594  10.564  10.420  0.6526 -0.0688  0.7002
  645MOL0     H85139   5.862  10.582  10.078 -3.2029  2.8460  1.7604
  645MOL0     H85140   5.668  10.700  10.044 -1.7957  1.1237 -2.2918
  646MOL0     O85141   4.938   6.767   8.422  1.0375  0.0544 -0.0317
  646MOL0     C85142   4.930   6.684   8.332 -0.6126 -0.1029 -0.6203
  646MOL0     O85143   5.035   6.639   8.259  1.1027  0.2042 -0.8366
  646MOL0     C85144   5.153   6.684   8.283 -0.1883  0.1416  1.0106
  646MOL0     C85145   5.221   6.654   8.404  0.0050 -0.9224  1.0830
  646MOL0     C85146   5.356   6.682   8.412  1.0137 -0.1743  0.1057
  646MOL0     C85147   5.428   6.726   8.301  0.2193  0.1679 -0.5945
  646MOL0     O85148   5.562   6.749   8.316 -0.0093  0.0699 -0.3500
  646MOL0     C85149   5.638   6.799   8.206 -0.2678  0.8100 -0.2611
  646MOL0     C85150   5.785   6.821   8.244 -0.8199 -0.1617  0.0205
  646MOL0     C85151   5.808   6.896   8.384 -0.2102 -0.0611  0.8726
  646MOL0     C85152   5.880   6.794   8.468  0.0561 -0.6351 -0.4771
  646MOL0     C85153   5.919   6.872   8.601  0.1137 -0.4275  0.3102
  646MOL0     C85154   6.036   6.796   8.667 -0.3415 -0.4546  0.5380
  646MOL0     C85155   5.987   6.678   8.741 -0.2301  0.2139  0.1361
  646MOL0     C85156   5.957   6.721   8.889 -0.2322  0.3043  0.1509
  646MOL0     N85157   6.080   6.718   8.968 -0.8863  0.4165  0.4819
  646MOL0     C85158   6.131   6.599   9.013  0.3932  0.2240 -0.0522
  646MOL0     C85159   6.245   6.631   9.079 -1.2104  0.3964  0.8875
  646MOL0     C85160   6.350   6.552   9.157  0.4666  0.1298  0.0551
  646MOL0     C85161   6.500   6.555   9.100  0.0325 -0.4469 -0.2664
  646MOL0     C85162   6.538   6.470   8.979 -0.7774 -1.1297 -0.2575
  646MOL0     C85163   6.687   6.443   8.970  0.6422  0.0393 -0.3848
  646MOL0     O85164   6.716   6.437   8.829 -0.0448  0.5199 -0.1048
  646MOL0     C85165   6.841   6.374   8.807  0.4854 -0.2716  0.1819
  646MOL0     C85166   6.862   6.316   8.680 -0.2106  0.6534 -0.9192
  646MOL0     C85167   6.980   6.240   8.661 -0.5265  0.7539 -0.6693
  646MOL0     C85168   7.077   6.217   8.761 -0.3630 -0.3103  0.1305
  646MOL0     C85169   7.202   6.135   8.735 -1.0368 -0.8504  0.4728
  646MOL0     O85170   7.222   6.101   8.605  0.0636  0.1718  0.0624
  646MOL0     C85171   7.343   6.043   8.568  0.3899  0.4676  0.0120
  646MOL0     C85172   7.386   5.918   8.610  0.0618 -0.2996  0.6086
  646MOL0     C85173   7.513   5.865   8.579  0.6244 -0.5711 -0.9712
  646MOL0     C85174   7.602   5.942   8.509  0.3781 -0.7652 -0.0011
  646MOL0     O85175   7.720   5.890   8.461 -1.0721 -0.3905 -0.3066
  646MOL0     C85176   7.818   5.969   8.378 -0.3049 -0.0685 -0.0846
  646MOL0     C85177   7.912   6.063   8.467  0.2542  0.0471 -0.6363
  646MOL0     C85178   8.019   6.115   8.367 -0.0990 -0.7346  0.1005
  646MOL0     C85179   8.107   6.223   8.455 -0.6100 -0.8804  0.1333
  646MOL0     C85180   8.196   6.157   8.574  0.5495 -0.0012  0.7693
  646MOL0     C85181   8.286   6.033   8.539  0.5662 -0.6098 -0.7673
  646MOL0     C85182   8.363   6.074   8.405 -0.0109 -0.7034 -0.3472
  646MOL0     C85183   8.508   6.047   8.404 -0.5588  0.3637 -0.1368
  646MOL0    Cl85184   8.594   6.181   8.483 -0.3096 -0.4223 -0.0251
  646MOL0     C85185   7.565   6.071   8.469 -0.7566 -0.0912  0.1351
  646MOL0     C85186   7.434   6.129   8.506  0.2142  0.9403 -0.3099
  646MOL0     O85187   7.293   6.156   8.817  0.1792  0.7908 -0.5691
  646MOL0     C85188   7.053   6.280   8.878 -0.3683 -0.0151 -0.4606
  646MOL0     C85189   6.943   6.370   8.902 -0.4115 -0.1750 -1.0374
  646MOL0     N85190   6.267   6.769   9.057  0.4888  0.3447  0.6113
  646MOL0     N85191   6.164   6.812   8.998  1.7408 -0.1922 -0.1024
  646MOL0     C85192   5.360   6.745   8.174  0.4882  0.3272 -0.8817
  646MOL0     C85193   5.226   6.719   8.165 -0.1783  0.2054  0.4670
  646MOL0     C85194   4.801   6.626   8.305 -0.0878  0.3225  0.6458
  646MOL0     C85195   4.761   6.583   8.177  1.5332 -0.2465 -0.2137
  646MOL0     C85196   4.626   6.524   8.173 -0.0187  0.4245 -0.3603
  646MOL0     C85197   4.539   6.513   8.279  0.0468  1.7587  0.2782
  646MOL0     O85198   4.421   6.451   8.247 -0.2355  0.0256 -0.7299
  646MOL0     C85199   4.302   6.513   8.280 -0.9059  0.4409  0.5282
  646MOL0     C85200   4.247   6.440   8.401  1.3743 -0.5297  0.4974
  646MOL0     C85201   4.108   6.507   8.420 -0.5748 -0.6035  0.8542
  646MOL0     C85202   4.039   6.463   8.552 -1.7463 -0.3524  0.2392
  646MOL0     C85203   4.037   6.314   8.571  0.5070 -0.0641 -0.7310
  646MOL0     C85204   4.021   6.194   8.596 -0.1811  0.0289  1.1238
  646MOL0     C85205   4.582   6.560   8.396  0.8424  0.0664 -0.3598
  646MOL0     C85206   4.714   6.608   8.414  0.5640 -0.7439  1.5353
  646MOL0     H85207   5.153   6.622   8.482 -0.6971 -0.0437  0.8488
  646MOL0     H85208   5.413   6.677   8.504  1.6067  1.9638 -0.0848
  646MOL0     H85209   5.591   6.890   8.167  2.4070  1.7291 -1.5866
  646MOL0     H85210   5.644   6.743   8.112 -0.3327  2.6403 -1.4274
  646MOL0     H85211   5.826   6.891   8.170  0.7698 -3.0993 -2.0778
  646MOL0     H85212   5.841   6.727   8.234 -0.3937  0.3409 -5.5401
  646MOL0     H85213   5.711   6.912   8.432 -1.1785  0.7971 -1.2587
  646MOL0     H85214   5.849   6.995   8.364 -2.9015  1.5869  2.7575
  646MOL0     H85215   5.821   6.704   8.487 -2.8701  0.7512 -2.2544
  646MOL0     H85216   5.970   6.760   8.417 -0.3666 -1.3727 -0.7347
  646MOL0     H85217   5.828   6.885   8.659 -2.3907  1.4097 -3.5765
  646MOL0     H85218   5.951   6.975   8.585 -3.2920  0.5431 -1.2820
  646MOL0     H85219   6.071   6.871   8.739 -2.8396 -0.3302  1.7478
  646MOL0     H85220   6.125   6.774   8.608  0.2512  2.8922 -0.0364
  646MOL0     H85221   5.895   6.644   8.694  0.6609 -1.3945 -0.4988
  646MOL0     H85222   6.063   6.600   8.736  0.6450  1.1112 -1.2286
  646MOL0     H85223   5.887   6.654   8.940  1.0891  1.6150  3.9810
  646MOL0     H85224   5.910   6.820   8.884  1.2427  1.0609  0.7414
  646MOL0     H85225   6.096   6.500   8.984 -0.4826  0.4498  0.1947
  646MOL0     H85226   6.317   6.447   9.160 -2.2987  0.9503  1.7749
  646MOL0     H85227   6.362   6.569   9.264  2.8204 -2.5073  0.3360
  646MOL0     H85228   6.554   6.527   9.191  1.0519 -0.3066 -0.8166
  646MOL0     H85229   6.538   6.653   9.068 -1.4636 -0.2371 -1.5082
  646MOL0     H85230   6.474   6.382   8.973 -1.3591 -0.6454 -1.9909
  646MOL0     H85231   6.515   6.535   8.894 -0.1917  0.1363  0.5185
  646MOL0     H85232   6.703   6.355   9.031 -4.0940 -0.0645  1.1081
  646MOL0     H85233   6.740   6.527   9.017 -0.8877  1.0809 -0.4286
  646MOL0     H85234   6.793   6.315   8.596 -0.4310 -5.8784 -1.1753
  646MOL0     H85235   6.989   6.197   8.562 -0.6482 -0.9350  0.0212
  646MOL0     H85236   7.315   5.871   8.677 -0.8083  0.5927  0.3380
  646MOL0     H85237   7.527   5.758   8.596 -3.2920 -0.8826  1.4164
  646MOL0     H85238   7.765   6.028   8.303  0.2283  0.6339  0.0756
  646MOL0     H85239   7.875   5.888   8.331  1.4735  0.7389  0.5871
  646MOL0     H85240   7.961   6.003   8.545  0.5144 -1.5666 -1.9890
  646MOL0     H85241   7.853   6.148   8.502 -0.4525  0.5196 -2.8161
  646MOL0     H85242   7.976   6.178   8.288 -2.2640  1.7477  3.0204
  646MOL0     H85243   8.083   6.037   8.326  0.3955 -0.7339  0.8549
  646MOL0     H85244   8.165   6.287   8.388  0.3651  0.5992  2.2788
  646MOL0     H85245   8.032   6.283   8.507  0.6825  0.1499  0.8649
  646MOL0     H85246   8.144   6.120   8.663  2.6164  1.1732  2.5797
  646MOL0     H85247   8.262   6.234   8.615  3.7964 -2.8980  1.5369
  646MOL0     H85248   8.230   5.943   8.515 -0.4640  0.4659 -2.6857
  646MOL0     H85249   8.353   6.017   8.624 -1.2769  3.7935  1.8840
  646MOL0     H85250   8.318   6.015   8.325  1.2322 -0.1758 -1.4638
  646MOL0     H85251   8.347   6.179   8.378 -2.7873 -1.1530 -0.7650
  646MOL0     H85252   8.543   6.048   8.300  2.6445  2.0113  0.8078
  646MOL0     H85253   8.534   5.953   8.453  0.8215 -0.5328 -2.3790
  646MOL0     H85254   7.639   6.134   8.421  1.0601 -1.9261  0.4014
  646MOL0     H85255   7.401   6.228   8.478 -2.2724  0.9569  2.2008
  646MOL0     H85256   7.131   6.270   8.953 -0.0753  1.8106 -0.4743
  646MOL0     H85257   6.941   6.426   8.995 -0.1130 -1.4672 -0.2225
  646MOL0     H85258   5.408   6.773   8.081 -0.1071 -0.9397 -1.6080
  646MOL0     H85259   5.173   6.730   8.071  2.8060  1.4023 -1.1959
  646MOL0     H85260   4.810   6.597   8.081 -0.4367 -3.2264 -1.8026
  646MOL0     H85261   4.570   6.496   8.084 -0.4131  0.6687 -0.1965
  646MOL0     H85262   4.239   6.513   8.191  0.2426 -1.1584 -0.3476
  646MOL0     H85263   4.317   6.617   8.311  2.1699  0.3846 -0.4476
  646MOL0     H85264   4.235   6.332   8.387  0.4357 -0.2621 -0.9431
  646MOL0     H85265   4.303   6.448   8.495  2.8317 -2.3330 -0.1653
  646MOL0     H85266   4.049   6.498   8.328 -0.2999 -2.5961  0.8322
  646MOL0     H85267   4.136   6.611   8.438  1.9607 -1.1777  0.6296
  646MOL0     H85268   4.105   6.510   8.626 -1.0074  0.0444 -0.6460
  646MOL0     H85269   3.937   6.499   8.565 -2.0622 -1.0291 -0.2977
  646MOL0     H85270   4.017   6.087   8.587  1.5276  0.0125  0.0066
  646MOL0     H85271   4.517   6.560   8.483 -0.3347  1.8699 -1.1964
  646MOL0     H85272   4.732   6.633   8.518 -4.2030 -1.5937  2.7896
  647MOL0     O85273   7.207  11.010   4.968 -0.9629 -0.3746  0.1682
  647MOL0     C85274   7.106  10.945   4.928  0.8811 -0.4537  0.0450
  647MOL0     O85275   7.020  10.976   4.828  0.1636 -0.1161 -0.6831
  647MOL0     C85276   7.060  11.095   4.763 -0.5521  1.1131 -0.0767
  647MOL0     C85277   7.027  11.213   4.819  0.3087 -1.1202  0.5362
  647MOL0     C85278   7.054  11.342   4.763  1.2576 -0.4530 -0.7891
  647MOL0     C85279   7.098  11.341   4.630  0.0813  0.3031 -0.6111
  647MOL0     O85280   7.121  11.454   4.554  0.6111  1.4653 -0.7153
  647MOL0     C85281   7.118  11.580   4.620 -0.0168  0.3712 -0.9080
  647MOL0     C85282   7.145  11.718   4.538 -1.0369  0.1629  1.0245
  647MOL0     C85283   7.277  11.693   4.473  1.3180  0.4334  0.3614
  647MOL0     C85284   7.351  11.811   4.417  0.0047  0.4074  0.3354
  647MOL0     C85285   7.462  11.766   4.317 -0.1442 -0.5655 -0.2365
  647MOL0     C85286   7.530  11.892   4.282 -0.4089  0.9387  1.1187
  647MOL0     C85287   7.638  11.864   4.173  0.0564 -0.0349 -0.6662
  647MOL0     C85288   7.701  12.001   4.142 -0.1844 -0.9167  0.0441
  647MOL0     N85289   7.790  12.056   4.244  0.2598 -0.1443  0.4559
  647MOL0     C85290   7.851  12.179   4.248 -0.7796 -1.4430  0.0255
  647MOL0     C85291   7.919  12.170   4.366  0.0940 -0.9186 -1.0302
  647MOL0     C85292   7.988  12.292   4.427  0.2769 -0.7316  0.0760
  647MOL0     C85293   7.930  12.316   4.569 -0.5232 -0.3227 -0.2020
  647MOL0     C85294   7.990  12.436   4.642  0.4257 -0.5426 -0.4116
  647MOL0     C85295   7.939  12.582   4.612 -0.4625  0.6407  0.0275
  647MOL0     O85296   7.798  12.603   4.595 -0.7925 -0.4443 -0.2249
  647MOL0     C85297   7.724  12.614   4.708  0.1850 -1.1959  0.7684
  647MOL0     C85298   7.595  12.572   4.691  0.6672 -0.4886  0.2785
  647MOL0     C85299   7.516  12.566   4.808  0.2833  0.7656  0.1802
  647MOL0     C85300   7.549  12.615   4.930 -0.0225  0.0862  0.0970
  647MOL0     C85301   7.462  12.586   5.055  0.4337 -0.6008 -0.7768
  647MOL0     O85302   7.336  12.552   5.048 -0.1705  0.1233  0.3031
  647MOL0     C85303   7.284  12.476   5.151  0.4041  0.1415 -0.2716
  647MOL0     C85304   7.342  12.365   5.211  1.3835  0.0809 -0.3754
  647MOL0     C85305   7.260  12.287   5.305  0.3668 -0.0653  0.4896
  647MOL0     C85306   7.127  12.323   5.337  0.0987  0.9546 -0.3496
  647MOL0     O85307   7.042  12.260   5.422 -0.1060 -0.7955  0.0738
  647MOL0     C85308   7.051  12.117   5.439  0.3053 -0.2441 -0.4887
  647MOL0     C85309   7.018  12.034   5.307  0.6702  0.3389  0.1153
  647MOL0     C85310   7.012  11.881   5.334 -0.3438  0.0832  0.5325
  647MOL0     C85311   6.905  11.826   5.421 -0.6409 -0.3439 -0.0964
  647MOL0     C85312   6.757  11.834   5.391  0.1268 -0.0464 -0.5678
  647MOL0     C85313   6.737  11.785   5.247  0.4922  0.7453 -0.3519
  647MOL0     C85314   6.587  11.778   5.196  0.8914  0.0848  0.1930
  647MOL0     C85315   6.585  11.759   5.049 -0.3866  0.1085 -0.0827
  647MOL0    Cl85316   6.719  11.841   4.943 -0.2655  0.0485 -0.0057
  647MOL0     C85317   7.072  12.433   5.285 -0.3106 -0.6672 -0.0655
  647MOL0     C85318   7.151  12.511   5.198 -0.2096 -0.1779  0.6861
  647MOL0     O85319   7.518  12.606   5.167  0.0068  0.0669  0.4143
  647MOL0     C85320   7.676  12.673   4.943  0.2250 -0.3234 -1.0498
  647MOL0     C85321   7.767  12.667   4.831  0.2990  0.1286 -0.2365
  647MOL0     N85322   7.905  12.050   4.431 -0.1944 -0.0080  0.2903
  647MOL0     N85323   7.835  11.981   4.346  0.0289  0.1663  0.2091
  647MOL0     C85324   7.119  11.219   4.568  0.4410  0.9941 -0.7627
  647MOL0     C85325   7.112  11.093   4.634  0.2424  0.1359  0.2315
  647MOL0     C85326   7.064  10.824   5.003 -0.1473 -0.2406  0.1376
  647MOL0     C85327   6.933  10.764   5.015 -0.2718  0.1904 -0.9636
  647MOL0     C85328   6.917  10.634   5.073 -0.2314 -0.5145  0.1931
  647MOL0     C85329   7.023  10.571   5.120 -0.3122  1.1641 -0.3040
  647MOL0     O85330   6.997  10.454   5.186  0.1056 -0.0413 -0.9775
  647MOL0     C85331   7.104  10.358   5.213 -0.2737  0.2967 -0.0390
  647MOL0     C85332   7.050  10.226   5.260  0.0208  0.2576  0.3113
  647MOL0     C85333   6.959  10.162   5.158 -0.0408 -0.3615 -0.3640
  647MOL0     C85334   6.846  10.109   5.236  0.5894  0.7360  0.1429
  647MOL0     C85335   6.882  10.011   5.338  0.4849 -0.8461  0.1099
  647MOL0     C85336   6.929   9.929   5.415 -0.5157 -0.3363 -0.0178
  647MOL0     C85337   7.150  10.628   5.106 -0.0269 -1.2748 -0.2834
  647MOL0     C85338   7.175  10.753   5.053 -0.2030  0.5262  0.0687
  647MOL0     H85339   6.995  11.218   4.923 -0.4462  1.1622  0.2546
  647MOL0     H85340   7.043  11.437   4.812 -1.6103 -1.1929  0.1427
  647MOL0     H85341   7.193  11.580   4.700 -2.5242  1.5778  1.6720
  647MOL0     H85342   7.019  11.583   4.668 -0.1804 -2.7584 -0.8592
  647MOL0     H85343   7.152  11.798   4.613  1.3419  2.6647 -1.6352
  647MOL0     H85344   7.073  11.742   4.459  0.9780  1.1423 -0.5909
  647MOL0     H85345   7.270  11.611   4.400  2.2102  0.5638  0.1223
  647MOL0     H85346   7.347  11.647   4.542  0.0625 -1.0441  0.7084
  647MOL0     H85347   7.272  11.872   4.373 -1.1301 -0.2661  1.3798
  647MOL0     H85348   7.383  11.868   4.505  1.6240  1.9788 -1.1759
  647MOL0     H85349   7.425  11.730   4.220  1.5490  1.7750 -1.8766
  647MOL0     H85350   7.536  11.695   4.355 -0.0962 -0.3447  0.0843
  647MOL0     H85351   7.593  11.918   4.367  1.9003  0.8926 -0.4921
  647MOL0     H85352   7.461  11.970   4.247 -1.5729 -1.6086 -2.9718
  647MOL0     H85353   7.722  11.798   4.194 -0.4743 -0.6437 -0.4068
  647MOL0     H85354   7.590  11.829   4.081  3.5492 -1.4712 -2.1299
  647MOL0     H85355   7.621  12.074   4.128  1.3581  0.6939 -0.7714
  647MOL0     H85356   7.758  11.995   4.049  2.2032  0.6647  1.2977
  647MOL0     H85357   7.833  12.267   4.187  0.8209 -1.0935 -0.0019
  647MOL0     H85358   7.969  12.379   4.363 -1.6800 -2.1461 -1.4230
  647MOL0     H85359   8.096  12.273   4.423  0.7189  1.6388 -2.1777
  647MOL0     H85360   7.943  12.230   4.635 -0.3743  1.8446  2.7930
  647MOL0     H85361   7.827  12.351   4.560  0.1890  2.3584  1.1754
  647MOL0     H85362   7.954  12.403   4.739 -0.5135 -2.4654 -1.3575
  647MOL0     H85363   8.098  12.435   4.626  0.4324 -1.0396 -0.3329
  647MOL0     H85364   7.973  12.613   4.513 -0.2745 -2.1730 -0.8755
  647MOL0     H85365   7.989  12.646   4.685 -0.1305  0.6061 -0.1707
  647MOL0     H85366   7.555  12.539   4.596 -1.0285 -2.0441  1.4655
  647MOL0     H85367   7.418  12.521   4.791  0.7836 -0.0601 -0.6719
  647MOL0     H85368   7.440  12.327   5.184  1.5893 -0.1231  0.6285
  647MOL0     H85369   7.303  12.200   5.352 -3.2433 -0.5015  3.4877
  647MOL0     H85370   6.982  12.092   5.520  2.6575 -1.8675  1.1596
  647MOL0     H85371   7.146  12.077   5.475 -0.8571 -1.0065  1.9357
  647MOL0     H85372   7.086  12.069   5.228 -3.3532  0.7894 -3.5591
  647MOL0     H85373   6.925  12.073   5.264  1.3612 -1.6818 -3.7555
  647MOL0     H85374   7.106  11.839   5.373 -1.1684 -0.6878  1.7490
  647MOL0     H85375   7.006  11.828   5.239  2.6381  0.9534 -0.2503
  647MOL0     H85376   6.942  11.730   5.456  1.2587  1.0507  1.9464
  647MOL0     H85377   6.917  11.894   5.506  0.7183  0.7807 -1.1394
  647MOL0     H85378   6.732  11.940   5.384  3.3989  0.8163 -0.9531
  647MOL0     H85379   6.693  11.778   5.459 -1.0119 -2.3076 -3.3024
  647MOL0     H85380   6.763  11.679   5.250  1.2514  0.9562  2.2456
  647MOL0     H85381   6.798  11.853   5.186  0.9557  0.0340 -0.6926
  647MOL0     H85382   6.534  11.698   5.249  2.6433 -1.1203  0.2366
  647MOL0     H85383   6.530  11.869   5.214 -1.3484 -1.0906 -0.5584
  647MOL0     H85384   6.488  11.773   5.000 -0.9295 -0.3089  0.8259
  647MOL0     H85385   6.614  11.654   5.037  0.0923  0.3435 -1.0233
  647MOL0     H85386   6.981  12.478   5.324  0.5805 -1.1176  2.7111
  647MOL0     H85387   7.098  12.598   5.158 -2.8888  0.2530  4.6007
  647MOL0     H85388   7.717  12.710   5.036 -3.1553 -0.3628  0.5773
  647MOL0     H85389   7.865  12.712   4.828 -0.2306  1.5981  2.2708
  647MOL0     H85390   7.153  11.216   4.465  0.4327 -1.4460 -0.7372
  647MOL0     H85391   7.140  11.001   4.585 -0.7654 -0.6769  1.1405
  647MOL0     H85392   6.840  10.797   4.970  0.7189 -0.2329 -3.5005
  647MOL0     H85393   6.814  10.605   5.091 -0.6382  1.8226  2.1947
  647MOL0     H85394   7.168  10.392   5.295 -0.9636 -2.4918  1.8059
  647MOL0     H85395   7.164  10.348   5.122 -0.1397 -0.5923  0.1350
  647MOL0     H85396   7.136  10.162   5.282  0.7098  0.5261 -1.4552
  647MOL0     H85397   6.998  10.249   5.353 -1.5019 -1.5016 -0.0659
  647MOL0     H85398   7.013  10.079   5.111  2.0714  1.4052 -1.2921
  647MOL0     H85399   6.919  10.229   5.081 -2.8904 -1.8941 -0.3442
  647MOL0     H85400   6.788  10.192   5.276  0.6574  1.2895 -0.8704
  647MOL0     H85401   6.776  10.058   5.168  3.9680 -0.9967 -2.3686
  647MOL0     H85402   6.972   9.858   5.481  0.8459  0.3857 -0.1017
  647MOL0     H85403   7.239  10.574   5.139  0.3385 -1.5291 -1.6119
  647MOL0     H85404   7.276  10.790   5.039 -0.1929  1.1175  1.5076
  648MOL0     O85405  10.596   3.910   1.848 -0.0348 -0.0388  0.4914
  648MOL0     C85406  10.599   3.799   1.899  0.5570  0.3285 -0.2185
  648MOL0     O85407  10.491   3.721   1.929  0.1316 -0.1711 -0.6178
  648MOL0     C85408  10.367   3.792   1.943  0.1656 -0.0967  0.5196
  648MOL0     C85409  10.301   3.778   2.064 -0.0468  0.5775 -0.3476
  648MOL0     C85410  10.172   3.817   2.081  0.2182 -0.5129  0.1344
  648MOL0     C85411  10.099   3.876   1.973 -0.4298  0.3683 -0.2276
  648MOL0     O85412   9.979   3.922   2.008 -0.3580  1.1846  0.0384
  648MOL0     C85413   9.937   4.037   1.935  0.1080 -0.3860 -0.4156
  648MOL0     C85414   9.821   4.093   2.018 -0.2401  0.3348 -0.8415
  648MOL0     C85415   9.885   4.170   2.138  0.2224  1.3987  0.2159
  648MOL0     C85416   9.777   4.193   2.240  0.3789 -0.3963 -0.4295
  648MOL0     C85417   9.751   4.073   2.343 -0.5088  0.0391  0.1841
  648MOL0     C85418   9.630   4.106   2.427 -0.5208 -0.2413 -0.4501
  648MOL0     C85419   9.617   4.018   2.557  0.0144 -0.0408  0.3716
  648MOL0     C85420   9.492   4.052   2.634 -0.6304  0.4257 -0.2029
  648MOL0     N85421   9.473   3.974   2.760 -0.3604 -0.2029 -0.3680
  648MOL0     C85422   9.428   4.028   2.883  0.0548 -0.4255  0.4134
  648MOL0     C85423   9.413   3.907   2.955  0.4028 -0.4755  0.6927
  648MOL0     C85424   9.355   3.910   3.099  0.3761 -0.3178  0.2267
  648MOL0     C85425   9.466   3.890   3.202  0.1002 -0.1377  0.5541
  648MOL0     C85426   9.421   3.861   3.339  0.3995 -0.0276  0.0555
  648MOL0     C85427   9.406   3.989   3.404  0.0005 -0.2863 -0.0736
  648MOL0     O85428   9.327   3.982   3.523 -0.8782 -0.4669 -0.1418
  648MOL0     C85429   9.328   4.097   3.615  0.3045  1.1175  1.4833
  648MOL0     C85430   9.266   4.086   3.739 -0.2126  0.3977  0.4861
  648MOL0     C85431   9.285   4.179   3.834  0.1742 -0.3052  0.0559
  648MOL0     C85432   9.362   4.296   3.819 -0.5738  1.0458 -0.4212
  648MOL0     C85433   9.379   4.397   3.923  0.8599  0.0500  0.5224
  648MOL0     O85434   9.406   4.518   3.882  0.5323  0.2938  0.6750
  648MOL0     C85435   9.456   4.615   3.947 -0.7109 -0.9174  0.8494
  648MOL0     C85436   9.535   4.604   4.058 -0.5634 -0.5215  1.1132
  648MOL0     C85437   9.601   4.714   4.113 -0.3469  0.3300  1.2594
  648MOL0     C85438   9.576   4.841   4.056 -0.1242 -0.2655  0.4986
  648MOL0     O85439   9.637   4.957   4.087 -0.1326  0.5519 -0.0975
  648MOL0     C85440   9.729   4.954   4.200 -0.6615  0.1011 -0.7342
  648MOL0     C85441   9.792   5.095   4.200 -0.2547 -0.5620 -0.6347
  648MOL0     C85442   9.930   5.089   4.272 -0.9032  1.0483  0.1442
  648MOL0     C85443   9.910   5.057   4.424  0.4669  0.2671  1.5054
  648MOL0     C85444  10.019   5.129   4.504  0.4533  0.1183 -0.7834
  648MOL0     C85445  10.149   5.062   4.485  0.6515  0.0400  0.2150
  648MOL0     C85446  10.266   5.155   4.506 -1.3903  0.5075 -0.5831
  648MOL0     C85447  10.281   5.259   4.384  1.1637  0.1321 -0.9078
  648MOL0    Cl85448  10.259   5.198   4.209  0.0873  0.1622  0.0509
  648MOL0     C85449   9.489   4.851   3.944  0.3969 -0.0139 -0.8433
  648MOL0     C85450   9.422   4.739   3.895 -0.0859 -0.5613  0.2082
  648MOL0     O85451   9.359   4.362   4.041 -0.3895 -0.3102 -0.5459
  648MOL0     C85452   9.430   4.315   3.697  0.0494 -0.5149 -0.1315
  648MOL0     C85453   9.393   4.228   3.590 -0.2807  0.1774 -0.5879
  648MOL0     N85454   9.444   3.799   2.875 -0.3295  0.1784  0.3166
  648MOL0     N85455   9.470   3.839   2.758  0.7004 -0.4526 -0.1329
  648MOL0     C85456  10.167   3.889   1.852  0.6970 -0.9521  0.2195
  648MOL0     C85457  10.296   3.838   1.834 -0.0676 -0.3811 -0.0496
  648MOL0     C85458  10.729   3.750   1.930 -0.1192  0.6173  0.9289
  648MOL0     C85459  10.852   3.820   1.902 -0.5655  0.3845  0.3840
  648MOL0     C85460  10.971   3.773   1.944  0.0733 -0.2546  0.3327
  648MOL0     C85461  10.986   3.658   2.015 -0.9180 -0.2556 -0.0801
  648MOL0     O85462  11.112   3.604   2.057  0.4007  0.5745 -0.2656
  648MOL0     C85463  11.234   3.678   2.055  0.8783  0.2749  0.1042
  648MOL0     C85464  11.225   3.774   2.173  1.0342  0.0866 -0.1742
  648MOL0     C85465  11.347   3.873   2.179  0.0796 -0.3036  0.8200
  648MOL0     C85466  11.338   3.976   2.075 -0.0450 -0.4872 -0.0031
  648MOL0     C85467  11.469   4.041   2.043  0.7891 -0.7346 -0.8036
  648MOL0     C85468  11.569   4.101   2.041  0.4202 -0.4315  0.9337
  648MOL0     C85469  10.867   3.595   2.056  0.1651  0.4224  0.0186
  648MOL0     C85470  10.740   3.635   2.005  0.3794  0.4179  0.2434
  648MOL0     H85471  10.346   3.729   2.150  0.5663  1.5836 -0.0756
  648MOL0     H85472  10.122   3.801   2.176  0.8247 -0.3111  0.4911
  648MOL0     H85473   9.908   4.011   1.833 -0.4735 -0.9980 -0.1025
  648MOL0     H85474  10.009   4.120   1.934 -2.4511  2.0464  1.0858
  648MOL0     H85475   9.750   4.018   2.055  1.6859 -1.8721 -1.3292
  648MOL0     H85476   9.775   4.165   1.950  0.5683  1.6703 -0.0247
  648MOL0     H85477   9.925   4.264   2.097 -0.5958  1.2662 -0.9421
  648MOL0     H85478   9.975   4.128   2.184  1.6126  2.2157 -1.5901
  648MOL0     H85479   9.822   4.279   2.291 -0.4584 -0.6834  0.8253
  648MOL0     H85480   9.687   4.223   2.186  0.3344 -2.7736 -1.8234
  648MOL0     H85481   9.841   4.059   2.405  2.4385 -2.2271 -4.0530
  648MOL0     H85482   9.723   3.978   2.297  0.1759 -0.7651  1.3614
  648MOL0     H85483   9.541   4.105   2.363 -0.0935 -1.2286 -1.0527
  648MOL0     H85484   9.638   4.202   2.479 -0.9247 -1.7418  2.6384
  648MOL0     H85485   9.603   3.914   2.524  0.1730 -0.1248  0.5629
  648MOL0     H85486   9.707   4.025   2.619  0.2176 -0.0978  0.0847
  648MOL0     H85487   9.412   4.019   2.567 -0.5842  1.4096 -0.7610
  648MOL0     H85488   9.488   4.159   2.654  1.3981  1.1671 -3.1430
  648MOL0     H85489   9.408   4.132   2.904  0.5185  0.5636 -3.4087
  648MOL0     H85490   9.278   3.834   3.114 -0.6935  0.8714  1.0610
  648MOL0     H85491   9.314   4.008   3.125  0.4955 -0.6521  1.8126
  648MOL0     H85492   9.540   3.971   3.195 -0.9950  0.7315 -2.6222
  648MOL0     H85493   9.517   3.802   3.162  2.1438  2.2916 -2.7976
  648MOL0     H85494   9.322   3.817   3.350  0.3078 -0.7561 -2.7733
  648MOL0     H85495   9.501   3.808   3.391  1.4377  0.9800 -0.4884
  648MOL0     H85496   9.360   4.062   3.337 -2.7242 -1.4905  0.3795
  648MOL0     H85497   9.507   4.019   3.436 -1.9762  2.0225  5.1384
  648MOL0     H85498   9.202   4.002   3.762 -0.7464  0.5278 -0.4588
  648MOL0     H85499   9.236   4.169   3.930  1.1218  1.9848  0.8499
  648MOL0     H85500   9.552   4.508   4.106  1.4692 -1.6634 -1.6273
  648MOL0     H85501   9.657   4.718   4.205  1.5859  1.0028  0.1073
  648MOL0     H85502   9.802   4.873   4.200  0.2768  0.7690  2.9962
  648MOL0     H85503   9.685   4.950   4.299  2.7440  2.8582  1.1412
  648MOL0     H85504   9.739   5.181   4.241  2.0736  0.6161  0.0552
  648MOL0     H85505   9.809   5.116   4.095 -1.3426  0.7478 -0.5722
  648MOL0     H85506   9.977   5.186   4.257 -0.2561  0.6074 -0.8098
  648MOL0     H85507  10.005   5.026   4.223 -3.2617  0.2613 -2.7257
  648MOL0     H85508   9.810   5.076   4.462 -0.2792 -0.7474  0.1285
  648MOL0     H85509   9.915   4.951   4.448 -1.3881  0.2231  1.8232
  648MOL0     H85510  10.000   5.140   4.611  1.9809  2.3333 -0.6781
  648MOL0     H85511  10.028   5.234   4.476  1.3148 -0.5727 -3.3534
  648MOL0     H85512  10.158   5.010   4.389  1.1206 -1.9439  1.2821
  648MOL0     H85513  10.153   4.980   4.557 -0.0368  0.1390  0.3765
  648MOL0     H85514  10.247   5.211   4.598 -1.8583 -1.1758  0.3938
  648MOL0     H85515  10.363   5.104   4.507 -0.0832  2.7323 -2.5683
  648MOL0     H85516  10.383   5.297   4.387 -0.0635  3.6773  0.8781
  648MOL0     H85517  10.214   5.344   4.399  0.2358 -0.7250  0.0626
  648MOL0     H85518   9.482   4.952   3.904  1.0869  0.3372 -0.1134
  648MOL0     H85519   9.361   4.730   3.805 -0.9257 -2.4543  0.9140
  648MOL0     H85520   9.497   4.397   3.677  0.7062 -0.7407  1.0202
  648MOL0     H85521   9.452   4.241   3.500  1.0985 -1.0373  0.1119
  648MOL0     H85522  10.108   3.927   1.769  1.5716  1.4988  0.6135
  648MOL0     H85523  10.334   3.837   1.732 -1.9974  0.2728 -0.8109
  648MOL0     H85524  10.841   3.913   1.848 -2.8264 -0.6295 -1.0700
  648MOL0     H85525  11.063   3.807   1.900  0.2249  0.5115  1.2124
  648MOL0     H85526  11.243   3.732   1.961 -1.4434  2.7309  1.1558
  648MOL0     H85527  11.318   3.610   2.071  0.5500 -1.0113 -2.9781
  648MOL0     H85528  11.130   3.830   2.174  1.7746  1.4008 -0.2995
  648MOL0     H85529  11.237   3.723   2.269  2.7148  0.0381 -0.3815
  648MOL0     H85530  11.442   3.826   2.155 -0.5035 -0.7915 -0.5911
  648MOL0     H85531  11.346   3.911   2.282  0.2338 -0.8200  1.0147
  648MOL0     H85532  11.307   3.947   1.975 -1.3804  3.5647 -0.9396
  648MOL0     H85533  11.262   4.050   2.101  0.4029  0.9243 -2.3917
  648MOL0     H85534  11.666   4.143   2.056 -0.0484  1.0472  0.0188
  648MOL0     H85535  10.873   3.505   2.117  1.7707 -0.7953 -1.8440
  648MOL0     H85536  10.653   3.572   2.021  0.8392 -0.6093 -1.1478
  649MOL0     O85537   6.939   1.659  10.686 -0.2615  0.5196  0.0339
  649MOL0     C85538   6.901   1.628  10.797 -0.1567 -1.2400  0.5425
  649MOL0     O85539   6.769   1.606  10.823 -0.7168 -0.1173 -1.2236
  649MOL0     C85540   6.671   1.632  10.736  0.0185  0.8376 -0.4428
  649MOL0     C85541   6.557   1.713  10.768  0.4743  0.0948 -0.4274
  649MOL0     C85542   6.450   1.709  10.678 -0.4288  0.3408 -0.2054
  649MOL0     C85543   6.447   1.632  10.563 -0.6993 -0.3978  0.4696
  649MOL0     O85544   6.332   1.639  10.487  0.9298  0.4068 -0.2485
  649MOL0     C85545   6.347   1.632  10.350  0.5544  0.1865  0.2025
  649MOL0     C85546   6.208   1.633  10.282  0.7046  0.9911  0.0984
  649MOL0     C85547   6.169   1.485  10.251 -0.1745 -0.0478  0.3556
  649MOL0     C85548   6.023   1.478  10.208 -0.5263  0.3713 -0.5478
  649MOL0     C85549   5.991   1.343  10.129 -1.4983 -0.4156 -0.0468
  649MOL0     C85550   5.854   1.382  10.064  0.2288  0.3035  0.4620
  649MOL0     C85551   5.794   1.269   9.970  0.2281 -0.3654 -1.3854
  649MOL0     C85552   5.886   1.187   9.872 -0.0928 -0.3819 -0.3829
  649MOL0     N85553   5.913   1.259   9.746  0.2362  0.3112  0.4290
  649MOL0     C85554   5.877   1.209   9.626 -0.1192  0.2956  1.5633
  649MOL0     C85555   5.925   1.307   9.536  0.2394  1.3500 -0.4583
  649MOL0     C85556   5.928   1.292   9.384  0.5648  0.3081  1.1886
  649MOL0     C85557   5.786   1.306   9.324  0.0703  0.0323 -0.4214
  649MOL0     C85558   5.705   1.418   9.389  0.8980 -0.2237  0.0988
  649MOL0     C85559   5.560   1.427   9.334  0.1765 -0.2170 -0.5933
  649MOL0     O85560   5.528   1.566   9.362  0.1505 -0.2901 -0.5251
  649MOL0     C85561   5.500   1.652   9.262 -1.4053 -0.8564  0.5390
  649MOL0     C85562   5.580   1.663   9.151 -0.0771 -0.2171  0.1458
  649MOL0     C85563   5.555   1.758   9.053  0.0090  0.9886 -0.4836
  649MOL0     C85564   5.433   1.834   9.057 -0.4699 -0.1384  0.6342
  649MOL0     C85565   5.401   1.928   8.949 -0.3157  0.5569 -1.2994
  649MOL0     O85566   5.510   1.959   8.871  0.0623 -0.6286  0.0637
  649MOL0     C85567   5.488   2.062   8.784  0.8462  0.5664 -0.3237
  649MOL0     C85568   5.552   2.043   8.666 -0.7100 -0.4994  0.0514
  649MOL0     C85569   5.542   2.145   8.572  0.3957  0.0867  1.0281
  649MOL0     C85570   5.470   2.262   8.599 -0.2760 -0.1462  0.0845
  649MOL0     O85571   5.472   2.363   8.504  0.2925  0.2992  0.0302
  649MOL0     C85572   5.340   2.407   8.477 -1.3048  0.1176  0.5865
  649MOL0     C85573   5.347   2.503   8.353 -0.0218 -0.3685  0.3535
  649MOL0     C85574   5.232   2.609   8.353 -0.0366 -1.2885  0.3635
  649MOL0     C85575   5.088   2.552   8.368 -0.3526 -0.8350  0.1159
  649MOL0     C85576   5.005   2.683   8.370 -0.3490  0.2176 -0.2997
  649MOL0     C85577   4.854   2.654   8.384  0.2134  0.4781  0.2542
  649MOL0     C85578   4.768   2.757   8.328 -0.4003 -0.4613 -0.2511
  649MOL0     C85579   4.747   2.739   8.173 -0.2865 -0.8539  0.4796
  649MOL0    Cl85580   4.626   2.619   8.128  0.0548  0.1320 -0.0034
  649MOL0     C85581   5.410   2.271   8.717 -0.4434 -0.5929 -0.8150
  649MOL0     C85582   5.424   2.177   8.814 -0.6493 -0.2870 -0.1363
  649MOL0     O85583   5.285   1.958   8.930 -0.3349  0.0150  0.4554
  649MOL0     C85584   5.357   1.834   9.171  0.6402  0.1902  0.9192
  649MOL0     C85585   5.394   1.742   9.272  0.7487  0.1238 -0.1688
  649MOL0     N85586   5.992   1.405   9.609 -0.5546 -0.6109  0.2798
  649MOL0     N85587   5.974   1.377   9.736  0.0485 -0.7614 -0.0678
  649MOL0     C85588   6.555   1.554  10.540  0.3857 -0.1960  1.1392
  649MOL0     C85589   6.667   1.551  10.621 -1.5811  0.2170  0.0423
  649MOL0     C85590   7.001   1.617  10.907  0.2266  0.0906 -0.1034
  649MOL0     C85591   6.964   1.566  11.034  0.6872  0.4251  0.9061
  649MOL0     C85592   7.047   1.550  11.142 -0.2143  0.1179 -0.4942
  649MOL0     C85593   7.179   1.600  11.138  1.0840 -0.1812  0.3467
  649MOL0     O85594   7.257   1.607  11.252  0.3568 -0.3260  0.2700
  649MOL0     C85595   7.226   1.525  11.373  0.0468 -0.0457 -0.0880
  649MOL0     C85596   7.348   1.523  11.461 -0.6073  0.2621  0.5821
  649MOL0     C85597   7.467   1.458  11.387 -1.0909 -0.6252  0.1308
  649MOL0     C85598   7.593   1.469  11.476  0.2445 -0.9329  0.5378
  649MOL0     C85599   7.719   1.472  11.406 -0.0606 -0.4137 -0.0241
  649MOL0     C85600   7.829   1.466  11.346 -0.5189  1.0388 -0.8902
  649MOL0     C85601   7.218   1.664  11.021 -1.0688  0.4063 -0.4876
  649MOL0     C85602   7.138   1.665  10.907 -0.1033 -0.3869 -0.3609
  649MOL0     H85603   6.562   1.771  10.860  3.8649  1.1152 -1.1335
  649MOL0     H85604   6.376   1.781  10.710 -0.2726 -0.6818  2.7165
  649MOL0     H85605   6.408   1.552  10.309 -0.6602  0.8320 -3.1820
  649MOL0     H85606   6.403   1.720  10.317  2.7544 -0.8851  0.9297
  649MOL0     H85607   6.218   1.676  10.182  0.7227  0.7527 -0.0027
  649MOL0     H85608   6.141   1.685  10.351  0.9128 -0.4621  1.4567
  649MOL0     H85609   6.177   1.424  10.341 -1.4462 -3.3960 -1.6063
  649MOL0     H85610   6.234   1.430  10.183  0.8926  2.8886 -1.2103
  649MOL0     H85611   5.959   1.487  10.296 -0.4377 -1.0026 -0.3230
  649MOL0     H85612   6.005   1.561  10.139  2.8964 -0.6929 -2.9598
  649MOL0     H85613   5.978   1.253  10.189 -3.2477 -0.5903 -0.6255
  649MOL0     H85614   6.063   1.319  10.050  2.8901  2.5654  2.6137
  649MOL0     H85615   5.867   1.465   9.995  1.6156 -1.2647 -1.2589
  649MOL0     H85616   5.784   1.404  10.146 -0.6427  0.6866 -0.3716
  649MOL0     H85617   5.746   1.194  10.034 -2.1246  2.5594  0.5582
  649MOL0     H85618   5.710   1.317   9.920 -0.7986 -2.2096 -1.5449
  649MOL0     H85619   5.823   1.106   9.835 -2.1256 -0.0664  2.0995
  649MOL0     H85620   5.981   1.160   9.919 -0.1871 -0.3268 -0.1565
  649MOL0     H85621   5.820   1.121   9.597  2.1268 -1.5714  2.4811
  649MOL0     H85622   5.970   1.193   9.364  1.7979  1.1888 -0.9487
  649MOL0     H85623   6.002   1.358   9.338  1.5859 -0.2828  1.9374
  649MOL0     H85624   5.742   1.208   9.344  3.1453 -1.2916  0.4530
  649MOL0     H85625   5.792   1.313   9.215  0.5730 -0.6366 -0.4398
  649MOL0     H85626   5.693   1.386   9.493 -1.0476 -2.3848 -0.6891
  649MOL0     H85627   5.757   1.513   9.372  0.4997 -0.1492 -0.7457
  649MOL0     H85628   5.499   1.349   9.381 -2.4867  0.7155 -2.2297
  649MOL0     H85629   5.553   1.394   9.230  0.2412 -2.0362 -0.0476
  649MOL0     H85630   5.670   1.607   9.129  0.6370  1.0337 -0.2340
  649MOL0     H85631   5.616   1.758   8.963  0.9577  1.5458  0.1389
  649MOL0     H85632   5.611   1.955   8.642 -2.3434 -0.8954 -2.9272
  649MOL0     H85633   5.589   2.131   8.475  0.9764 -1.6050  1.5266
  649MOL0     H85634   5.293   2.468   8.554 -0.8594  1.8686 -0.4835
  649MOL0     H85635   5.263   2.330   8.466 -1.3115  0.1138  0.6588
  649MOL0     H85636   5.321   2.442   8.266 -0.3405  0.7992 -0.3887
  649MOL0     H85637   5.446   2.548   8.354 -0.3387  0.6472 -2.9377
  649MOL0     H85638   5.231   2.647   8.251  1.1618 -0.1373  0.7509
  649MOL0     H85639   5.269   2.690   8.417  1.8766 -1.6267 -0.2543
  649MOL0     H85640   5.062   2.491   8.281  3.8135 -0.6442 -1.4779
  649MOL0     H85641   5.072   2.489   8.456 -2.2467 -3.8686 -2.1841
  649MOL0     H85642   5.021   2.746   8.282 -1.0766  1.1590  0.2310
  649MOL0     H85643   5.026   2.744   8.458 -0.1726 -0.1852 -0.0579
  649MOL0     H85644   4.839   2.640   8.491  0.3906 -1.9092  0.0381
  649MOL0     H85645   4.837   2.549   8.356  3.0698 -0.3805  1.2868
  649MOL0     H85646   4.671   2.763   8.378  0.2879  0.5420  1.0321
  649MOL0     H85647   4.815   2.854   8.345  1.7660 -1.7509  1.6951
  649MOL0     H85648   4.830   2.702   8.111 -1.6026 -0.5742 -1.5428
  649MOL0     H85649   4.718   2.832   8.125  0.8392 -0.5806  0.2986
  649MOL0     H85650   5.333   2.346   8.738  0.2257 -0.3970  1.1591
  649MOL0     H85651   5.370   2.199   8.906 -2.0195  0.6026 -1.1172
  649MOL0     H85652   5.272   1.901   9.184 -0.1500  0.2735 -3.4058
  649MOL0     H85653   5.327   1.742   9.358  0.5790 -1.4901 -0.2763
  649MOL0     H85654   6.540   1.483  10.458  0.4073 -1.2014  1.9849
  649MOL0     H85655   6.748   1.487  10.588 -0.4165  0.9702  1.3063
  649MOL0     H85656   6.859   1.540  11.038  1.2677 -2.6876 -1.0734
  649MOL0     H85657   7.011   1.515  11.238 -0.8179 -0.4317 -0.9137
  649MOL0     H85658   7.204   1.422  11.344  0.5093  0.5615 -2.8541
  649MOL0     H85659   7.159   1.577  11.442 -1.4076 -2.1099  0.1495
  649MOL0     H85660   7.380   1.621  11.495 -1.4019 -0.1414  2.5868
  649MOL0     H85661   7.318   1.461  11.546  0.2620  0.6435  1.1873
  649MOL0     H85662   7.488   1.509  11.292 -1.8637 -0.7786 -0.1260
  649MOL0     H85663   7.441   1.357  11.353 -2.8231 -0.9598  2.2686
  649MOL0     H85664   7.590   1.568  11.523  3.2352  0.2993 -1.5512
  649MOL0     H85665   7.603   1.384  11.544  2.5376 -1.1013  0.0832
  649MOL0     H85666   7.926   1.450  11.305 -0.4850  1.5960 -1.0326
  649MOL0     H85667   7.311   1.719  11.022 -1.4628  1.1242  1.0859
  649MOL0     H85668   7.178   1.716  10.820  2.3030  1.5775  1.7667
  650MOL0     O85669   0.169   2.133   2.978 -0.5090 -0.7010  0.3194
  650MOL0     C85670   0.107   2.216   3.046  0.5180 -0.6713 -0.3406
  650MOL0     O85671   0.144   2.263   3.182 -0.4946  0.0822 -0.1704
  650MOL0     C85672   0.271   2.239   3.235 -0.4566  0.2360  0.6295
  650MOL0     C85673   0.390   2.225   3.157 -0.2614 -0.1036  0.4651
  650MOL0     C85674   0.516   2.200   3.215  0.4413  0.2010  0.0566
  650MOL0     C85675   0.524   2.198   3.358 -0.0262  0.2778  0.5108
  650MOL0     O85676   0.650   2.182   3.416  0.7566 -0.8138  0.4663
  650MOL0     C85677   0.663   2.175   3.554 -0.1361 -0.6224  0.6325
  650MOL0     C85678   0.746   2.292   3.599  0.5032  0.0701  0.9495
  650MOL0     C85679   0.698   2.317   3.744  0.1392  0.0682 -0.8264
  650MOL0     C85680   0.803   2.417   3.811 -0.2475  0.4338 -0.3244
  650MOL0     C85681   0.775   2.431   3.959  0.1948 -0.2099  0.2030
  650MOL0     C85682   0.888   2.486   4.048  0.0428 -0.4206 -0.0175
  650MOL0     C85683   0.949   2.624   4.002 -0.3004 -0.1262  0.1360
  650MOL0     C85684   0.855   2.747   3.993  0.7656  0.7917  0.2267
  650MOL0     N85685   0.916   2.877   4.015 -0.1427 -0.6541 -0.4707
  650MOL0     C85686   0.956   2.934   4.132  0.3312  0.9310  0.7929
  650MOL0     C85687   1.024   3.047   4.096 -0.8313 -0.0386  0.0821
  650MOL0     C85688   1.110   3.125   4.192 -0.3660  0.1999  0.2269
  650MOL0     C85689   1.261   3.111   4.174  0.2242  0.4580  0.7004
  650MOL0     C85690   1.323   3.152   4.041 -0.2149 -0.1558  0.1747
  650MOL0     C85691   1.277   3.287   3.998 -0.9942 -0.3700 -0.3229
  650MOL0     O85692   1.326   3.382   4.094  0.8054 -0.4789  0.4149
  650MOL0     C85693   1.226   3.460   4.161 -0.1158 -0.2139 -0.8332
  650MOL0     C85694   1.158   3.554   4.079 -0.2535  0.0178  0.7656
  650MOL0     C85695   1.054   3.630   4.135 -0.0211 -0.4402 -0.3048
  650MOL0     C85696   1.023   3.623   4.280 -0.3861 -0.3700 -1.1067
  650MOL0     C85697   0.906   3.694   4.347  0.0411  0.9981 -0.1103
  650MOL0     O85698   0.834   3.770   4.261  0.4792  0.7439  0.0322
  650MOL0     C85699   0.704   3.792   4.292 -0.1675 -0.7265 -0.1228
  650MOL0     C85700   0.662   3.917   4.263  0.4189  0.3605 -0.0165
  650MOL0     C85701   0.540   3.963   4.307  0.0473 -0.1932  0.0546
  650MOL0     C85702   0.430   3.873   4.341 -0.2105  0.0178  0.0847
  650MOL0     O85703   0.304   3.932   4.356 -0.1086  0.2251  0.1391
  650MOL0     C85704   0.181   3.855   4.326  0.1114  0.9926 -1.4300
  650MOL0     C85705   0.062   3.966   4.314  0.3002 -0.1066  0.1856
  650MOL0     C85706   0.015   4.024   4.454 -0.3935  0.9372  0.7349
  650MOL0     C85707  -0.092   4.133   4.440  0.4509 -0.4761 -0.9767
  650MOL0     C85708  -0.129   4.194   4.578 -0.5292  0.9007 -0.3020
  650MOL0     C85709  -0.201   4.321   4.548  0.0761 -0.5662  0.2769
  650MOL0     C85710  -0.261   4.392   4.677 -0.4831  0.2275  0.3593
  650MOL0     C85711  -0.313   4.527   4.663 -0.8134 -0.3770 -1.3402
  650MOL0    Cl85712  -0.467   4.527   4.571 -0.2276  0.1059  0.1978
  650MOL0     C85713   0.470   3.736   4.351 -1.1452  0.1967  0.2016
  650MOL0     C85714   0.612   3.706   4.344  0.2124  1.3987  0.4882
  650MOL0     O85715   0.878   3.664   4.465  0.2293 -0.0880 -0.5364
  650MOL0     C85716   1.107   3.537   4.360 -1.5045 -0.3046 -0.8502
  650MOL0     C85717   1.204   3.460   4.298  0.8241  1.4217 -0.5199
  650MOL0     N85718   1.018   3.063   3.952  0.4177  0.6964 -0.5510
  650MOL0     N85719   0.969   2.947   3.909 -0.2087  0.0588 -0.2412
  650MOL0     C85720   0.401   2.211   3.429 -0.8725  0.4054 -1.1198
  650MOL0     C85721   0.279   2.233   3.369  0.0988  0.2990  0.9013
  650MOL0     C85722  -0.030   2.250   3.002 -0.0604 -0.0897  0.7589
  650MOL0     C85723  -0.077   2.239   2.866  0.2960  0.8247  0.2084
  650MOL0     C85724  -0.204   2.283   2.820  0.1953  0.9747 -0.1753
  650MOL0     C85725  -0.298   2.319   2.913  0.0995 -0.7956 -0.3843
  650MOL0     O85726  -0.421   2.362   2.873  0.8690  1.7319 -0.6408
  650MOL0     C85727  -0.477   2.292   2.761  0.5128 -0.7013  0.2384
  650MOL0     C85728  -0.622   2.270   2.785 -0.4995 -0.2697 -0.3501
  650MOL0     C85729  -0.684   2.168   2.686  0.6553  0.0306 -0.3057
  650MOL0     C85730  -0.782   2.061   2.749 -0.2224 -1.1247  0.2983
  650MOL0     C85731  -0.911   2.117   2.809  0.0103  0.7219 -0.3931
  650MOL0     C85732  -1.012   2.161   2.866 -0.2764  0.5314 -0.5169
  650MOL0     C85733  -0.258   2.330   3.041 -0.3449 -0.3661 -0.2574
  650MOL0     C85734  -0.129   2.293   3.087 -0.2890  0.4449 -0.1925
  650MOL0     H85735   0.377   2.222   3.049  0.5824  0.4873  0.3361
  650MOL0     H85736   0.592   2.179   3.140 -2.3041 -0.3403 -2.8042
  650MOL0     H85737   0.720   2.086   3.582 -1.3691 -1.5670  0.1839
  650MOL0     H85738   0.569   2.160   3.607  0.3002  0.0088  1.6306
  650MOL0     H85739   0.730   2.385   3.545 -2.1418 -0.9501 -0.1620
  650MOL0     H85740   0.851   2.262   3.592  0.3162 -0.4228  0.1406
  650MOL0     H85741   0.696   2.228   3.807  1.5474 -0.3875 -1.3866
  650MOL0     H85742   0.593   2.349   3.752 -0.9973 -2.7944 -2.7369
  650MOL0     H85743   0.898   2.368   3.789  0.8354  2.6844 -0.8588
  650MOL0     H85744   0.794   2.515   3.764 -2.0032  0.3412 -0.2429
  650MOL0     H85745   0.732   2.342   4.006 -2.0750  1.0768  0.7261
  650MOL0     H85746   0.689   2.499   3.960 -0.5130 -1.0358  2.2531
  650MOL0     H85747   0.966   2.409   4.051 -1.0701 -1.5689  0.9669
  650MOL0     H85748   0.848   2.503   4.149  1.5927 -1.5710  0.8395
  650MOL0     H85749   1.023   2.650   4.078 -2.1920  1.9972  1.3729
  650MOL0     H85750   1.010   2.607   3.912 -0.3256 -3.7657  0.6500
  650MOL0     H85751   0.776   2.723   4.065  3.8234 -1.4657  3.1012
  650MOL0     H85752   0.809   2.751   3.893 -0.9109  1.9343  0.9918
  650MOL0     H85753   0.932   2.887   4.227 -0.4205 -0.6501 -0.1556
  650MOL0     H85754   1.084   3.097   4.295 -1.6150  1.5128  0.3010
  650MOL0     H85755   1.097   3.233   4.181  3.7399  0.7620 -0.6154
  650MOL0     H85756   1.290   3.005   4.179  0.9262  0.6914  1.9420
  650MOL0     H85757   1.304   3.156   4.264 -2.9734  3.5881  0.8695
  650MOL0     H85758   1.432   3.156   4.051 -0.0176 -1.9597 -0.8379
  650MOL0     H85759   1.298   3.084   3.959  3.5503  2.0906 -3.2102
  650MOL0     H85760   1.168   3.284   3.992 -1.0209 -0.4825  0.1561
  650MOL0     H85761   1.327   3.305   3.903  0.1344  0.4667  0.3928
  650MOL0     H85762   1.176   3.559   3.972 -0.5030  1.9683  0.7737
  650MOL0     H85763   0.996   3.700   4.076 -1.2794  0.4726  1.8826
  650MOL0     H85764   0.739   3.985   4.227  0.8800  0.8058  1.7491
  650MOL0     H85765   0.522   4.070   4.295 -0.5707 -0.4060 -0.9966
  650MOL0     H85766   0.154   3.783   4.403 -1.1440  0.3975 -2.3844
  650MOL0     H85767   0.180   3.803   4.230 -2.9100  0.2366 -1.1014
  650MOL0     H85768  -0.026   3.926   4.262  1.1103 -0.2082 -1.1388
  650MOL0     H85769   0.091   4.053   4.256 -0.7921 -0.7042 -1.3318
  650MOL0     H85770   0.102   4.063   4.507 -0.4000  3.5548 -0.9797
  650MOL0     H85771  -0.033   3.942   4.509 -3.6416  2.0233 -0.2570
  650MOL0     H85772  -0.042   4.208   4.378  1.5689 -0.0320  0.3988
  650MOL0     H85773  -0.184   4.099   4.392 -2.2905 -0.4918  3.6417
  650MOL0     H85774  -0.039   4.219   4.636 -0.5391  0.8471 -0.2619
  650MOL0     H85775  -0.185   4.126   4.643  0.4972  2.4852  2.4029
  650MOL0     H85776  -0.283   4.304   4.478  0.7199 -0.1244 -0.5885
  650MOL0     H85777  -0.141   4.397   4.498  1.4369 -1.0735  1.0993
  650MOL0     H85778  -0.335   4.323   4.717 -0.8683  0.1943 -0.4015
  650MOL0     H85779  -0.178   4.402   4.748 -0.4281 -0.5548  0.4133
  650MOL0     H85780  -0.240   4.587   4.607 -1.1485 -0.1561 -1.5433
  650MOL0     H85781  -0.328   4.556   4.767 -0.9750 -1.9553 -0.8879
  650MOL0     H85782   0.396   3.662   4.380 -0.9390  0.2858  0.9744
  650MOL0     H85783   0.639   3.604   4.369 -0.0599  0.9214 -1.0568
  650MOL0     H85784   1.099   3.522   4.467 -0.1535 -1.2064 -0.8474
  650MOL0     H85785   1.271   3.402   4.361 -1.3074  0.9233  1.4239
  650MOL0     H85786   0.394   2.215   3.537 -0.1707 -1.4281 -0.9860
  650MOL0     H85787   0.193   2.239   3.436  0.0659  1.0483  0.7914
  650MOL0     H85788  -0.001   2.216   2.792  0.9162 -0.7762  1.2724
  650MOL0     H85789  -0.228   2.271   2.715  1.1755  1.5898 -0.4875
  650MOL0     H85790  -0.437   2.191   2.757  1.3785 -0.3620  0.1419
  650MOL0     H85791  -0.471   2.346   2.666 -0.9181  1.4422  1.2856
  650MOL0     H85792  -0.645   2.229   2.884 -0.7900 -0.2073 -0.3908
  650MOL0     H85793  -0.675   2.365   2.789  0.7805  0.4887 -0.7659
  650MOL0     H85794  -0.609   2.118   2.624  0.4011 -1.1492  0.3043
  650MOL0     H85795  -0.741   2.221   2.610 -1.1253 -1.2660  0.0637
  650MOL0     H85796  -0.809   2.000   2.663 -2.1621 -0.6460  0.5289
  650MOL0     H85797  -0.723   2.012   2.826 -0.4574  0.8383  1.8098
  650MOL0     H85798  -1.102   2.199   2.910 -0.1006 -1.4763  1.8250
  650MOL0     H85799  -0.334   2.367   3.110  0.9145 -0.0681  1.0187
  650MOL0     H85800  -0.108   2.321   3.189 -0.3716  0.6643 -0.2348
  651MOL0     O85801   6.459   0.968   3.824 -0.5715 -0.3821  0.1101
  651MOL0     C85802   6.535   0.893   3.752  0.2843  0.2837 -1.0461
  651MOL0     O85803   6.560   0.908   3.618  0.0729  0.1443  0.2522
  651MOL0     C85804   6.476   0.998   3.544 -0.2238  0.0159  0.0213
  651MOL0     C85805   6.413   0.953   3.423 -0.1304 -0.0152  0.0326
  651MOL0     C85806   6.337   1.043   3.345 -0.9699 -0.1814 -0.3484
  651MOL0     C85807   6.328   1.176   3.379  1.0069 -0.6044  0.4095
  651MOL0     O85808   6.238   1.241   3.300  0.1178  0.3237  0.2559
  651MOL0     C85809   6.269   1.384   3.266  1.2816  0.2819  0.8704
  651MOL0     C85810   6.168   1.442   3.165  1.1942 -0.3739 -0.5587
  651MOL0     C85811   6.024   1.444   3.225  0.2889 -0.8226  0.3535
  651MOL0     C85812   5.933   1.542   3.143  1.1569  0.0715  1.2802
  651MOL0     C85813   5.789   1.563   3.195  0.2759  0.6603  0.2967
  651MOL0     C85814   5.714   1.680   3.142 -0.4231 -0.4464 -1.2295
  651MOL0     C85815   5.567   1.670   3.168 -0.4781 -0.6353  1.0365
  651MOL0     C85816   5.515   1.650   3.314 -0.0355  0.6197 -0.3268
  651MOL0     N85817   5.373   1.628   3.297  1.0097  0.3070  0.1546
  651MOL0     C85818   5.277   1.725   3.268  0.0254  0.3271  0.4040
  651MOL0     C85819   5.163   1.663   3.242  0.2611 -0.6320 -0.2370
  651MOL0     C85820   5.037   1.739   3.211 -1.0326  0.1812  0.1844
  651MOL0     C85821   4.941   1.674   3.126  0.0745  0.5620  0.1561
  651MOL0     C85822   4.806   1.759   3.117 -0.2239  0.2055  0.6615
  651MOL0     C85823   4.699   1.705   3.026 -0.2221 -0.8349  0.3375
  651MOL0     O85824   4.659   1.572   3.065  0.1160 -0.5153  0.1600
  651MOL0     C85825   4.618   1.499   2.957  0.8783 -0.5352  0.0079
  651MOL0     C85826   4.492   1.524   2.893  0.3405 -1.0603  0.4507
  651MOL0     C85827   4.438   1.451   2.796 -0.8334  0.5964  0.5515
  651MOL0     C85828   4.522   1.346   2.751  0.6660  0.1433 -1.0091
  651MOL0     C85829   4.481   1.267   2.637  0.1693 -0.0877 -1.0534
  651MOL0     O85830   4.448   1.349   2.534 -1.1327 -0.4745 -0.1141
  651MOL0     C85831   4.423   1.281   2.413 -0.7936  0.5489  0.7848
  651MOL0     C85832   4.299   1.309   2.350  0.3898  0.1492  0.2867
  651MOL0     C85833   4.276   1.258   2.219  0.2283 -0.2089 -0.7235
  651MOL0     C85834   4.374   1.191   2.146 -0.7545 -0.8659  0.0727
  651MOL0     O85835   4.350   1.151   2.006  0.3159 -0.5553 -0.8962
  651MOL0     C85836   4.343   1.003   1.997  0.4369 -0.8598 -0.0171
  651MOL0     C85837   4.305   0.962   1.852  0.5022  0.5845 -0.3398
  651MOL0     C85838   4.386   1.016   1.746 -0.0816  0.6662  0.0288
  651MOL0     C85839   4.519   0.936   1.713  0.4675 -0.2494 -0.1816
  651MOL0     C85840   4.559   0.971   1.573 -0.4203  0.5745  0.7812
  651MOL0     C85841   4.687   0.910   1.514  1.2258  0.1204 -0.1960
  651MOL0     C85842   4.672   0.755   1.495 -0.4787 -0.6125 -0.1112
  651MOL0     C85843   4.766   0.692   1.599 -0.2721  1.0993 -0.7044
  651MOL0    Cl85844   4.734   0.517   1.588 -0.2953  0.2803 -0.0463
  651MOL0     C85845   4.493   1.166   2.217 -0.0921  0.1577  0.1368
  651MOL0     C85846   4.517   1.204   2.350  0.5774  0.0307 -0.3398
  651MOL0     O85847   4.481   1.144   2.638 -0.4917 -0.9208 -0.6190
  651MOL0     C85848   4.640   1.310   2.811 -1.0279  0.0812 -0.3332
  651MOL0     C85849   4.692   1.383   2.918  0.3212  0.3643 -0.4534
  651MOL0     N85850   5.186   1.533   3.239 -0.2119  0.3223 -0.2411
  651MOL0     N85851   5.314   1.512   3.262 -0.8346 -0.4701 -0.5178
  651MOL0     C85852   6.378   1.221   3.501 -0.1987  0.5153 -0.0154
  651MOL0     C85853   6.456   1.137   3.580  0.2023  0.2811  0.5260
  651MOL0     C85854   6.573   0.767   3.830 -0.7378 -0.1128  0.7656
  651MOL0     C85855   6.536   0.760   3.958 -0.2449 -0.3876  0.5134
  651MOL0     C85856   6.560   0.647   4.035  0.3388 -0.1914  0.7131
  651MOL0     C85857   6.624   0.532   3.979  0.6964 -0.2782 -0.6075
  651MOL0     O85858   6.655   0.426   4.064 -0.2111  0.4874  0.2635
  651MOL0     C85859   6.717   0.300   4.004 -0.3996 -0.9398  0.3802
  651MOL0     C85860   6.637   0.214   3.913  0.2966 -0.4204 -0.0118
  651MOL0     C85861   6.537   0.132   3.997  0.0428  0.5993  0.0706
  651MOL0     C85862   6.434   0.068   3.895 -0.1264  0.0641  0.0045
  651MOL0     C85863   6.517  -0.036   3.830  0.0864  0.3355 -0.0706
  651MOL0     C85864   6.571  -0.129   3.782  0.2313 -0.2868  0.6410
  651MOL0     C85865   6.658   0.541   3.841 -0.3469  0.2021 -0.1646
  651MOL0     C85866   6.625   0.648   3.767 -0.0376 -1.3671 -0.3171
  651MOL0     H85867   6.420   0.849   3.393 -0.9665 -1.1257  3.2582
  651MOL0     H85868   6.286   1.010   3.256 -2.1105 -0.4227  0.3776
  651MOL0     H85869   6.374   1.398   3.242  1.0035  1.4217  0.2485
  651MOL0     H85870   6.249   1.439   3.359 -1.8161 -0.4607  0.7698
  651MOL0     H85871   6.169   1.387   3.071  0.1129 -1.2407 -0.0816
  651MOL0     H85872   6.198   1.542   3.132 -1.2541 -0.1338 -2.4062
  651MOL0     H85873   6.020   1.490   3.325  0.4811 -0.6185  0.2673
  651MOL0     H85874   5.984   1.343   3.236  1.4458 -1.0736  2.9327
  651MOL0     H85875   5.978   1.639   3.124  0.4998 -0.0112 -0.9649
  651MOL0     H85876   5.918   1.492   3.047 -1.1278 -4.9252  3.8185
  651MOL0     H85877   5.793   1.581   3.303  0.6240 -1.7987  0.7440
  651MOL0     H85878   5.742   1.467   3.171  4.5369 -1.4272 -0.7003
  651MOL0     H85879   5.732   1.689   3.034 -0.2214 -1.7634 -1.3222
  651MOL0     H85880   5.750   1.776   3.180  1.9107 -1.2449 -1.2621
  651MOL0     H85881   5.530   1.770   3.141  2.3347 -0.1639 -1.6909
  651MOL0     H85882   5.520   1.602   3.096 -0.8823  0.3097  0.3810
  651MOL0     H85883   5.549   1.734   3.376 -0.6391  0.6212  0.0054
  651MOL0     H85884   5.563   1.568   3.367 -2.3506  0.1349  1.1623
  651MOL0     H85885   5.297   1.832   3.279  1.3682  0.2496 -0.9321
  651MOL0     H85886   5.070   1.835   3.169  3.1621 -1.3215 -0.4455
  651MOL0     H85887   4.995   1.766   3.308  0.9349 -0.3438  1.2335
  651MOL0     H85888   4.926   1.569   3.152  0.9918 -0.2632 -2.3395
  651MOL0     H85889   4.985   1.666   3.025  2.9895 -3.3911  1.4822
  651MOL0     H85890   4.756   1.751   3.214  0.1223 -0.7527  0.7760
  651MOL0     H85891   4.830   1.862   3.089  2.0622 -0.2700  0.6808
  651MOL0     H85892   4.735   1.707   2.923 -1.6965 -2.8697 -0.2743
  651MOL0     H85893   4.614   1.774   3.038 -0.1641 -0.9982  1.9876
  651MOL0     H85894   4.438   1.613   2.922  0.5476 -2.0385  4.4924
  651MOL0     H85895   4.338   1.483   2.769 -0.7973  2.4790  2.3511
  651MOL0     H85896   4.230   1.368   2.409 -0.5544 -1.7416  1.1693
  651MOL0     H85897   4.185   1.289   2.169  0.4390  1.1410 -0.3026
  651MOL0     H85898   4.259   0.982   2.064  0.5092 -0.3295  0.2539
  651MOL0     H85899   4.437   0.953   2.021  0.8583 -0.8246 -1.5016
  651MOL0     H85900   4.205   1.003   1.835 -0.4957 -0.0654  3.1669
  651MOL0     H85901   4.289   0.854   1.851  0.0722  0.6451 -1.1852
  651MOL0     H85902   4.420   1.116   1.774  0.0277  0.1340  1.9387
  651MOL0     H85903   4.326   1.022   1.655  1.1198  2.0149 -0.7162
  651MOL0     H85904   4.599   0.956   1.785 -0.4983  1.6682  0.4218
  651MOL0     H85905   4.506   0.828   1.725 -2.6438  0.1479  0.8721
  651MOL0     H85906   4.574   1.078   1.558 -0.3235  0.3764 -0.7137
  651MOL0     H85907   4.469   0.947   1.517 -0.6070 -2.9000  2.2984
  651MOL0     H85908   4.779   0.931   1.568  0.7843  0.0298  0.6038
  651MOL0     H85909   4.687   0.952   1.413  0.8022  0.4809 -0.0487
  651MOL0     H85910   4.568   0.730   1.515  0.3303 -3.1305  1.5366
  651MOL0     H85911   4.694   0.712   1.397 -1.5818 -1.7002  0.0955
  651MOL0     H85912   4.749   0.717   1.704  1.4912 -3.8310  1.0579
  651MOL0     H85913   4.872   0.717   1.590  0.0433  1.3419  2.5418
  651MOL0     H85914   4.565   1.102   2.167  1.9325  2.2958  0.1356
  651MOL0     H85915   4.617   1.185   2.389  0.3655  1.2068  0.8051
  651MOL0     H85916   4.699   1.223   2.784  2.0787  1.7262  0.6479
  651MOL0     H85917   4.776   1.335   2.967 -0.3026  2.0453  2.4892
  651MOL0     H85918   6.359   1.325   3.526 -0.0247  1.0598 -1.9948
  651MOL0     H85919   6.492   1.177   3.674 -2.1830 -1.9091  2.5232
  651MOL0     H85920   6.485   0.845   4.003 -1.0005  0.1731 -1.3019
  651MOL0     H85921   6.525   0.627   4.135  0.3606 -1.7022  0.4446
  651MOL0     H85922   6.754   0.234   4.083  2.3374  1.2738  1.1345
  651MOL0     H85923   6.807   0.332   3.950  1.4785 -1.4609  2.9855
  651MOL0     H85924   6.590   0.283   3.842  1.3715  0.9383  0.5544
  651MOL0     H85925   6.712   0.149   3.866  0.3497  0.1503 -0.7391
  651MOL0     H85926   6.488   0.206   4.061 -0.4425  0.9245 -0.6512
  651MOL0     H85927   6.600   0.064   4.054 -0.2050  0.3401  0.0349
  651MOL0     H85928   6.356   0.015   3.950 -0.4852  0.1357 -0.4330
  651MOL0     H85929   6.384   0.138   3.827 -1.3256 -0.6456  0.1324
  651MOL0     H85930   6.615  -0.216   3.737  0.3133  0.1377 -0.1324
  651MOL0     H85931   6.707   0.452   3.800 -2.1446 -2.0621  2.2467
  651MOL0     H85932   6.645   0.642   3.660  0.9908 -1.5386 -0.1265
  652MOL0     O85933   2.898   8.818   7.527  1.1189  0.9092  0.5944
  652MOL0     C85934   2.834   8.742   7.444  0.5356  0.6733  0.3473
  652MOL0     O85935   2.708   8.734   7.420 -0.5471 -0.0597  0.1287
  652MOL0     C85936   2.629   8.832   7.485 -0.2905 -0.1583  0.2437
  652MOL0     C85937   2.510   8.784   7.558 -0.8881 -0.6104  0.4528
  652MOL0     C85938   2.440   8.878   7.631 -0.7422  0.6365 -0.5425
  652MOL0     C85939   2.476   9.016   7.640  0.2115  0.0388 -0.4269
  652MOL0     O85940   2.410   9.111   7.708 -0.1400  0.1466  0.0228
  652MOL0     C85941   2.311   9.073   7.803 -0.2759 -0.0480  0.0996
  652MOL0     C85942   2.293   9.193   7.889  0.5221 -0.1665  0.0449
  652MOL0     C85943   2.191   9.170   8.001 -0.2363  0.2956  0.1776
  652MOL0     C85944   2.146   9.297   8.080 -0.6804  0.2307  0.7151
  652MOL0     C85945   2.256   9.383   8.155  1.2745 -0.1812 -0.3879
  652MOL0     C85946   2.177   9.499   8.219  0.1970  0.0005  0.3399
  652MOL0     C85947   2.260   9.604   8.271  0.0639  0.2372  0.2675
  652MOL0     C85948   2.339   9.564   8.394  0.0840  0.5048  0.5701
  652MOL0     N85949   2.443   9.662   8.394 -0.2208 -0.3268  0.4560
  652MOL0     C85950   2.419   9.799   8.427  0.2475  0.0072 -0.3409
  652MOL0     C85951   2.535   9.867   8.408  0.0566 -0.5824  0.3133
  652MOL0     C85952   2.557  10.008   8.448 -0.4326 -1.2134 -0.6799
  652MOL0     C85953   2.699  10.041   8.503 -0.8179 -0.9636  0.2735
  652MOL0     C85954   2.708  10.196   8.556  1.1882 -0.4202 -0.3478
  652MOL0     C85955   2.841  10.239   8.631 -0.9008  0.4378 -0.2903
  652MOL0     O85956   2.845  10.373   8.670 -0.4207  0.0205 -0.0155
  652MOL0     C85957   2.754  10.424   8.760 -0.4702  0.0479  0.0370
  652MOL0     C85958   2.715  10.559   8.755  0.5002 -0.0656 -0.1845
  652MOL0     C85959   2.615  10.607   8.845  0.4927  1.0858  0.0994
  652MOL0     C85960   2.562  10.522   8.944  0.9661 -0.8015 -0.5013
  652MOL0     C85961   2.463  10.573   9.043 -0.2367 -0.8299 -0.3745
  652MOL0     O85962   2.420  10.496   9.136 -0.0836  0.3495 -0.1552
  652MOL0     C85963   2.314  10.524   9.211  0.0871  0.5981 -0.0678
  652MOL0     C85964   2.192  10.511   9.162 -0.3031  0.3093 -0.1497
  652MOL0     C85965   2.077  10.514   9.245 -0.6736 -0.0926  0.4867
  652MOL0     C85966   2.090  10.544   9.378  0.1140  0.4349  0.4358
  652MOL0     O85967   1.989  10.542   9.471  0.7802  0.3305  0.2800
  652MOL0     C85968   1.846  10.561   9.429 -0.5967 -0.5331  0.3825
  652MOL0     C85969   1.746  10.581   9.537 -0.5458  1.5277 -0.0667
  652MOL0     C85970   1.782  10.693   9.641  0.0947  0.2289 -0.0463
  652MOL0     C85971   1.715  10.709   9.773  0.4831  0.1559  0.6840
  652MOL0     C85972   1.750  10.838   9.839 -1.0058  0.0336  0.5316
  652MOL0     C85973   1.658  10.868   9.955  0.3438  0.0830 -0.1175
  652MOL0     C85974   1.654  10.769  10.069 -0.3749 -0.5327  1.6827
  652MOL0     C85975   1.533  10.791  10.156  1.3368 -0.8971  0.3513
  652MOL0    Cl85976   1.377  10.732  10.064 -0.3125 -0.1708 -0.2794
  652MOL0     C85977   2.223  10.568   9.426  0.8934 -0.1638  0.3677
  652MOL0     C85978   2.330  10.534   9.349 -0.1735 -0.1851 -0.2768
  652MOL0     O85979   2.434  10.693   9.031  0.0766 -0.2040 -0.5713
  652MOL0     C85980   2.603  10.392   8.957 -0.4804 -0.0556  0.1854
  652MOL0     C85981   2.690  10.340   8.859 -0.5647 -0.4288 -1.8776
  652MOL0     N85982   2.626   9.777   8.374 -0.2988 -0.0884  0.2459
  652MOL0     N85983   2.576   9.658   8.353 -0.3267 -0.1913  0.0784
  652MOL0     C85984   2.582   9.058   7.568 -0.2113  0.0888 -0.2198
  652MOL0     C85985   2.650   8.968   7.488 -0.4410 -0.4268 -0.6213
  652MOL0     C85986   2.926   8.656   7.364 -0.1586  0.0545  0.2404
  652MOL0     C85987   3.063   8.651   7.394  0.0018 -0.8005  0.3285
  652MOL0     C85988   3.141   8.547   7.337 -0.0435  0.8311 -0.2527
  652MOL0     C85989   3.088   8.458   7.239 -0.4557  0.0833 -1.0708
  652MOL0     O85990   3.180   8.358   7.202  0.1375 -0.0223 -0.4275
  652MOL0     C85991   3.151   8.222   7.227  0.4737  0.1652  0.2634
  652MOL0     C85992   3.166   8.176   7.370  0.1154 -0.9999 -0.0182
  652MOL0     C85993   3.309   8.177   7.406 -0.7426 -0.5114 -1.4652
  652MOL0     C85994   3.334   8.131   7.548  0.1135 -0.4402  0.3974
  652MOL0     C85995   3.476   8.139   7.575 -0.2551 -0.4817 -0.6711
  652MOL0     C85996   3.590   8.149   7.609 -0.2945  0.4155 -0.0432
  652MOL0     C85997   2.956   8.469   7.206  0.8438 -0.5330  0.3089
  652MOL0     C85998   2.885   8.570   7.263  0.0845  0.2960 -0.3404
  652MOL0     H85999   2.493   8.677   7.552  0.1835 -0.7950  0.4776
  652MOL0     H86000   2.348   8.854   7.683 -1.0419  1.7380 -0.5441
  652MOL0     H86001   2.332   8.982   7.859 -3.5105 -0.6803  0.4841
  652MOL0     H86002   2.219   9.054   7.747 -1.9464  1.4348  2.1357
  652MOL0     H86003   2.271   9.285   7.834  2.8467 -0.4628 -1.5574
  652MOL0     H86004   2.389   9.205   7.939  1.5991 -2.5377 -1.2564
  652MOL0     H86005   2.250   9.118   8.077 -1.3061 -1.5736 -0.2182
  652MOL0     H86006   2.110   9.104   7.971  0.7553  0.3191 -2.8171
  652MOL0     H86007   2.085   9.360   8.014  0.3897  0.9072  0.3604
  652MOL0     H86008   2.076   9.264   8.157 -3.5587  3.9114 -0.0085
  652MOL0     H86009   2.326   9.427   8.084  0.3136  0.1431 -1.1622
  652MOL0     H86010   2.306   9.321   8.230  1.3882  0.5720  0.1739
  652MOL0     H86011   2.101   9.472   8.293 -0.8790  2.8585  0.4261
  652MOL0     H86012   2.125   9.545   8.135 -0.2096  1.3838  1.3237
  652MOL0     H86013   2.328   9.629   8.189 -0.4066  2.2609  0.4417
  652MOL0     H86014   2.197   9.693   8.284 -2.9041 -1.8216  1.3359
  652MOL0     H86015   2.384   9.466   8.373 -3.3579 -0.6826 -2.2514
  652MOL0     H86016   2.282   9.587   8.485 -2.4641  0.6356 -0.9631
  652MOL0     H86017   2.330   9.844   8.470 -0.1971 -1.1496 -0.0075
  652MOL0     H86018   2.484  10.052   8.516  1.8922  1.9422  0.0255
  652MOL0     H86019   2.547  10.074   8.360  0.1282 -0.7978 -0.4391
  652MOL0     H86020   2.774  10.027   8.425 -1.7090 -1.3001 -0.5380
  652MOL0     H86021   2.724   9.981   8.591  1.0236 -1.9243 -0.8625
  652MOL0     H86022   2.693  10.261   8.469 -3.0743 -3.4746 -2.2369
  652MOL0     H86023   2.619  10.211   8.617  0.3241  2.1026 -2.0799
  652MOL0     H86024   2.910  10.214   8.549 -0.7919  2.4172 -0.8734
  652MOL0     H86025   2.847  10.170   8.715 -5.4582  0.4145  0.2428
  652MOL0     H86026   2.756  10.632   8.686 -0.8746 -2.1772 -3.4473
  652MOL0     H86027   2.565  10.703   8.837 -1.6551 -0.1395 -3.7777
  652MOL0     H86028   2.170  10.474   9.062 -1.7186 -0.1703  0.3183
  652MOL0     H86029   1.979  10.488   9.206  0.5108  0.0678 -2.9251
  652MOL0     H86030   1.811  10.487   9.357 -1.6754 -4.0283  4.1800
  652MOL0     H86031   1.847  10.657   9.376  2.9996 -0.6381 -0.0001
  652MOL0     H86032   1.738  10.481   9.582  4.1142  1.2137  0.6322
  652MOL0     H86033   1.646  10.609   9.503 -1.3466  1.8717  2.3373
  652MOL0     H86034   1.765  10.789   9.592  1.5060  0.7618  0.4574
  652MOL0     H86035   1.890  10.693   9.656  0.1301  2.3678  0.0875
  652MOL0     H86036   1.608  10.691   9.771  0.7241 -2.1195  2.8203
  652MOL0     H86037   1.756  10.627   9.832 -0.9546  1.8418  4.3305
  652MOL0     H86038   1.728  10.916   9.765 -0.0773  1.8356  2.0894
  652MOL0     H86039   1.856  10.855   9.859 -1.1183 -0.8713  2.0560
  652MOL0     H86040   1.556  10.894   9.925 -0.4198 -2.3010  0.2258
  652MOL0     H86041   1.697  10.964   9.991 -0.1195  2.3607 -4.8719
  652MOL0     H86042   1.653  10.666  10.033  1.7027 -0.1105  0.2199
  652MOL0     H86043   1.743  10.789  10.129  1.4254 -0.7671 -0.7461
  652MOL0     H86044   1.511  10.897  10.173  3.7483 -0.5768  1.8343
  652MOL0     H86045   1.534  10.734  10.249  0.6261  0.4037  1.2000
  652MOL0     H86046   2.239  10.599   9.529  3.6510 -1.8749  0.5481
  652MOL0     H86047   2.432  10.529   9.388 -0.0935  0.6223 -0.3751
  652MOL0     H86048   2.574  10.316   9.029 -4.5078  1.7817  0.7691
  652MOL0     H86049   2.723  10.237   8.873 -1.6423 -0.5035  0.4777
  652MOL0     H86050   2.616   9.161   7.567 -1.3930  0.5865  2.1588
  652MOL0     H86051   2.725   9.023   7.432  0.8318 -0.6877  0.7882
  652MOL0     H86052   3.113   8.705   7.474 -0.6391 -0.7561  0.7035
  652MOL0     H86053   3.248   8.550   7.356 -0.2358  1.5147  0.7960
  652MOL0     H86054   3.223   8.171   7.162 -1.1050  1.0977 -2.3772
  652MOL0     H86055   3.064   8.167   7.190  2.8812 -2.3592 -2.2630
  652MOL0     H86056   3.101   8.229   7.441 -0.8707 -2.6198  0.3647
  652MOL0     H86057   3.124   8.075   7.366  0.1820 -1.0025 -0.7802
  652MOL0     H86058   3.344   8.279   7.418  2.1696 -1.7482  4.0071
  652MOL0     H86059   3.368   8.117   7.337 -0.0380 -2.7730  0.8989
  652MOL0     H86060   3.272   8.187   7.619 -0.2500  1.4644 -1.3108
  652MOL0     H86061   3.303   8.027   7.562  2.2627 -0.9531  1.7877
  652MOL0     H86062   3.696   8.161   7.620 -0.2819 -0.9398  1.7618
  652MOL0     H86063   2.897   8.396   7.151 -1.3316  0.5129  1.1289
  652MOL0     H86064   2.778   8.576   7.247 -0.3455 -0.0170  2.0990
  653MOL0     O86065   5.766   9.826   2.086  0.3502 -0.0029 -0.0661
  653MOL0     C86066   5.689   9.841   1.983 -0.6131 -0.2009 -0.6935
  653MOL0     O86067   5.683   9.748   1.876  0.4187  0.1306  0.7012
  653MOL0     C86068   5.762   9.635   1.873 -0.0010  0.1941  0.2611
  653MOL0     C86069   5.785   9.552   1.978 -0.4508 -0.4907  0.3325
  653MOL0     C86070   5.869   9.441   1.965 -0.0601 -0.6573  0.1247
  653MOL0     C86071   5.931   9.414   1.842 -0.5146 -0.7380 -0.3564
  653MOL0     O86072   6.015   9.309   1.831 -1.0409 -0.2451  0.7639
  653MOL0     C86073   5.976   9.200   1.743 -1.0378  0.6847  0.5024
  653MOL0     C86074   6.004   9.051   1.787  0.1076 -0.5127  0.9387
  653MOL0     C86075   6.147   9.050   1.847 -0.1700  0.3811 -0.6332
  653MOL0     C86076   6.269   9.086   1.747 -0.1869  0.7687  0.3286
  653MOL0     C86077   6.290   8.973   1.654  0.6040 -0.5479  0.1683
  653MOL0     C86078   6.401   9.024   1.565 -0.7009 -1.1086  0.2814
  653MOL0     C86079   6.434   8.910   1.449  0.2259  0.4910 -0.1615
  653MOL0     C86080   6.483   8.773   1.502  1.7003 -0.1608 -0.1410
  653MOL0     N86081   6.619   8.774   1.557 -0.0091  0.1714 -0.6211
  653MOL0     C86082   6.731   8.737   1.483 -0.3666 -0.7710  0.5982
  653MOL0     C86083   6.843   8.775   1.559 -0.0336 -0.8445  0.3475
  653MOL0     C86084   6.986   8.761   1.515  0.4796 -0.1996  0.5099
  653MOL0     C86085   7.082   8.771   1.632  0.3204  0.2635 -0.8861
  653MOL0     C86086   7.080   8.660   1.737 -0.0549  0.5316  0.0922
  653MOL0     C86087   7.173   8.678   1.855  0.2729  0.5829  0.3925
  653MOL0     O86088   7.304   8.720   1.803  0.5262  0.6098  0.3686
  653MOL0     C86089   7.408   8.727   1.890  0.2750 -0.5025 -0.8067
  653MOL0     C86090   7.380   8.720   2.030 -0.4989 -0.5793  0.8283
  653MOL0     C86091   7.487   8.725   2.123 -0.1833 -0.4516  0.0430
  653MOL0     C86092   7.619   8.749   2.076  0.3825  0.1519  0.1961
  653MOL0     C86093   7.723   8.750   2.180  0.0891  1.4305  0.0865
  653MOL0     O86094   7.846   8.788   2.138 -0.3628  0.0560  0.5312
  653MOL0     C86095   7.945   8.817   2.225  0.8596 -0.3885 -1.6000
  653MOL0     C86096   8.036   8.706   2.249 -0.3539 -0.6100  0.4270
  653MOL0     C86097   8.142   8.720   2.342  0.5496  0.1418  0.0474
  653MOL0     C86098   8.163   8.843   2.415 -0.5325 -0.1868 -0.1189
  653MOL0     O86099   8.259   8.855   2.505 -0.3158 -0.8041 -1.1301
  653MOL0     C86100   8.326   8.742   2.552  0.3416  0.7708  0.0739
  653MOL0     C86101   8.434   8.772   2.652  0.2369 -0.5065 -0.3961
  653MOL0     C86102   8.515   8.904   2.614  0.0463  0.0203 -0.0086
  653MOL0     C86103   8.638   8.910   2.710  1.2818 -0.4649  0.8804
  653MOL0     C86104   8.762   8.990   2.673  0.6489  0.8393  0.0060
  653MOL0     C86105   8.741   9.146   2.654  0.4119 -1.1610  0.3810
  653MOL0     C86106   8.877   9.214   2.659 -0.1136 -0.0798 -0.0393
  653MOL0     C86107   8.962   9.162   2.543  0.4213  0.5226 -0.2536
  653MOL0    Cl86108   8.865   9.175   2.387 -0.5122  0.7543 -0.0656
  653MOL0     C86109   8.073   8.946   2.400  0.3068  0.0512 -0.1407
  653MOL0     C86110   7.965   8.937   2.303 -0.4635  0.3473 -0.0615
  653MOL0     O86111   7.692   8.719   2.296 -0.2582 -0.0720 -0.7408
  653MOL0     C86112   7.642   8.762   1.943  0.8146  0.9551  0.1689
  653MOL0     C86113   7.538   8.749   1.852 -0.2546  0.7911 -0.0524
  653MOL0     N86114   6.785   8.816   1.680  0.4809  0.5076 -0.4622
  653MOL0     N86115   6.659   8.823   1.674 -0.5870  0.0735  0.0586
  653MOL0     C86116   5.899   9.494   1.735 -0.3561 -0.4151  0.1605
  653MOL0     C86117   5.819   9.606   1.743 -0.1964  0.7862  0.0250
  653MOL0     C86118   5.607   9.958   1.976  0.4524  0.6261 -0.3651
  653MOL0     C86119   5.508   9.969   1.879 -0.0422 -0.6685 -0.3435
  653MOL0     C86120   5.421  10.078   1.884  0.8379 -0.9122 -0.5903
  653MOL0     C86121   5.434  10.184   1.972  0.0002 -0.2898  0.3194
  653MOL0     O86122   5.355  10.291   1.975  0.3671 -0.0554  0.3138
  653MOL0     C86123   5.278  10.339   1.864 -0.7269  1.1852  0.0591
  653MOL0     C86124   5.238  10.482   1.887 -0.0263 -0.0620  0.7326
  653MOL0     C86125   5.167  10.513   2.024 -0.0754  0.1738 -0.0868
  653MOL0     C86126   5.037  10.442   2.028  0.5779  0.4682  0.3535
  653MOL0     C86127   4.987  10.488   2.158  0.4774  0.1844  0.4015
  653MOL0     C86128   4.941  10.523   2.267  0.3464  0.4006 -0.3566
  653MOL0     C86129   5.543  10.176   2.058  0.2735  0.4613  0.0073
  653MOL0     C86130   5.628  10.066   2.062  0.4036  0.0789 -0.1430
  653MOL0     H86131   5.750   9.567   2.079  0.6045 -0.9817  0.7840
  653MOL0     H86132   5.905   9.393   2.055  2.4103  4.7465  2.4452
  653MOL0     H86133   6.038   9.216   1.655  0.3349 -2.5488  0.7576
  653MOL0     H86134   5.871   9.204   1.710 -0.9423 -1.8275 -0.3222
  653MOL0     H86135   5.987   8.990   1.699 -2.1709 -1.1994  1.7903
  653MOL0     H86136   5.927   9.026   1.861  2.1043  2.9548  4.6346
  653MOL0     H86137   6.174   8.953   1.891  1.9464  1.0863 -0.2560
  653MOL0     H86138   6.140   9.120   1.931 -3.3089 -0.0411 -0.4191
  653MOL0     H86139   6.249   9.177   1.690 -0.3813  0.7270  0.3276
  653MOL0     H86140   6.355   9.098   1.813 -0.8969 -0.7682  1.6058
  653MOL0     H86141   6.195   8.959   1.603  0.8469 -2.9244  0.2692
  653MOL0     H86142   6.313   8.880   1.706 -1.7380 -0.1545  2.0674
  653MOL0     H86143   6.494   9.030   1.623 -0.0133 -1.0978 -0.7864
  653MOL0     H86144   6.377   9.112   1.505  2.8209 -0.9704 -1.1852
  653MOL0     H86145   6.346   8.882   1.391  1.2386 -0.7652 -1.1308
  653MOL0     H86146   6.506   8.957   1.382  1.6677 -0.1947  0.8667
  653MOL0     H86147   6.483   8.698   1.423 -4.7823  1.7293 -2.5425
  653MOL0     H86148   6.412   8.744   1.580  0.3052  4.0545  0.4501
  653MOL0     H86149   6.724   8.688   1.387 -0.6128  0.8019 -0.2108
  653MOL0     H86150   7.006   8.842   1.443  2.3767 -0.7098  0.4142
  653MOL0     H86151   7.016   8.677   1.452  1.7439  0.5255  0.1138
  653MOL0     H86152   7.054   8.851   1.701  0.9416  0.8998 -1.3494
  653MOL0     H86153   7.185   8.793   1.602  0.9757 -0.7409  0.5320
  653MOL0     H86154   6.982   8.644   1.784 -0.3334  1.2719 -0.2187
  653MOL0     H86155   7.110   8.571   1.681 -1.3256  1.0571 -1.5431
  653MOL0     H86156   7.171   8.579   1.902 -1.1172  0.1638 -0.4805
  653MOL0     H86157   7.136   8.753   1.925  1.5179 -1.3292  3.2864
  653MOL0     H86158   7.282   8.703   2.073 -0.9552 -2.0509 -0.6911
  653MOL0     H86159   7.470   8.728   2.230  0.8194 -1.9774  0.2649
  653MOL0     H86160   8.026   8.609   2.201  1.1813 -0.3938 -0.4150
  653MOL0     H86161   8.211   8.637   2.357 -0.0618 -0.4575 -0.3664
  653MOL0     H86162   8.390   8.691   2.479  3.0135  1.9232  1.4710
  653MOL0     H86163   8.255   8.669   2.593 -0.8988  1.2605 -1.1050
  653MOL0     H86164   8.503   8.688   2.665 -0.6561 -0.8887  2.7236
  653MOL0     H86165   8.385   8.800   2.746  0.5477  1.1416 -0.6993
  653MOL0     H86166   8.468   9.002   2.626 -1.9151 -1.0867  1.9778
  653MOL0     H86167   8.550   8.893   2.511 -2.3259  2.2149 -1.1620
  653MOL0     H86168   8.601   8.960   2.800  0.2403 -0.8275  0.6625
  653MOL0     H86169   8.657   8.807   2.741  1.5663 -0.7663 -0.2269
  653MOL0     H86170   8.806   8.946   2.583  1.7844  3.1678 -0.6456
  653MOL0     H86171   8.833   8.975   2.756 -1.3105 -1.6125  1.4022
  653MOL0     H86172   8.677   9.185   2.734 -1.5231 -3.4965  0.1063
  653MOL0     H86173   8.693   9.172   2.559  2.3874 -0.0507 -0.3540
  653MOL0     H86174   8.876   9.321   2.639  1.8906  0.0196  0.2249
  653MOL0     H86175   8.922   9.201   2.758  0.7232  2.0419 -0.0884
  653MOL0     H86176   9.007   9.064   2.567  1.3491  1.4841  2.3200
  653MOL0     H86177   9.049   9.228   2.541 -0.6423  1.9844  0.5653
  653MOL0     H86178   8.081   9.027   2.472  2.4359  0.3223 -0.6030
  653MOL0     H86179   7.887   9.012   2.302  2.2857  3.4647  1.6262
  653MOL0     H86180   7.744   8.776   1.911  1.0912  1.4184  1.2196
  653MOL0     H86181   7.571   8.747   1.748  1.6632  0.2062  0.5330
  653MOL0     H86182   5.937   9.477   1.635 -0.3124 -0.2250  0.1441
  653MOL0     H86183   5.804   9.678   1.664 -0.9634  1.8299  1.0939
  653MOL0     H86184   5.498   9.884   1.813  0.3689 -1.0934  0.1310
  653MOL0     H86185   5.337  10.079   1.815 -0.7276  4.0600  1.0151
  653MOL0     H86186   5.194  10.271   1.846  0.8724 -1.1299  0.9038
  653MOL0     H86187   5.348  10.337   1.780  0.2011 -1.3379  0.7943
  653MOL0     H86188   5.322  10.549   1.870 -3.5063  4.3663 -1.0095
  653MOL0     H86189   5.169  10.494   1.803  0.8179 -1.4441 -0.2092
  653MOL0     H86190   5.163  10.620   2.048 -0.1584  0.6986 -2.1963
  653MOL0     H86191   5.228  10.468   2.103 -0.6743 -2.5233 -1.0674
  653MOL0     H86192   4.962  10.475   1.956 -1.1562  0.5747  2.0942
  653MOL0     H86193   5.035  10.333   2.020 -3.0296  0.1603  2.7626
  653MOL0     H86194   4.904  10.540   2.366  0.4176 -2.0031  0.1648
  653MOL0     H86195   5.554  10.263   2.123 -0.5152  1.4552 -1.1582
  653MOL0     H86196   5.699  10.085   2.142 -0.5252  0.9705  0.4946
  654MOL0     O86197  10.260   2.966   0.310  0.0984 -0.4112  0.6920
  654MOL0     C86198  10.226   3.005   0.201 -0.3154  0.8131 -1.3797
  654MOL0     O86199  10.091   3.043   0.161 -0.9873  0.0578 -0.1320
  654MOL0     C86200  10.006   3.083   0.259  0.1129  0.6728 -0.1665
  654MOL0     C86201   9.872   3.033   0.271 -0.2608 -0.5404 -0.2365
  654MOL0     C86202   9.789   3.063   0.383 -0.3118  0.3371 -0.6430
  654MOL0     C86203   9.842   3.146   0.479  0.4473  0.4553  0.1676
  654MOL0     O86204   9.751   3.175   0.572 -0.3008 -0.4381 -0.0463
  654MOL0     C86205   9.751   3.311   0.604 -0.7765 -0.4866  0.1727
  654MOL0     C86206   9.602   3.340   0.635  0.3916  0.0931 -0.1889
  654MOL0     C86207   9.517   3.326   0.501  0.2130  0.9965  0.5751
  654MOL0     C86208   9.374   3.348   0.537  0.0757 -0.3834 -1.0282
  654MOL0     C86209   9.263   3.298   0.436  0.3928  0.7681 -0.3790
  654MOL0     C86210   9.250   3.373   0.307  0.1871 -0.7237  1.0555
  654MOL0     C86211   9.198   3.518   0.304 -0.3227  0.3183 -0.8988
  654MOL0     C86212   9.041   3.517   0.327 -0.2480  0.1210 -1.0783
  654MOL0     N86213   8.984   3.654   0.319  0.6920 -0.5793 -0.0664
  654MOL0     C86214   8.954   3.733   0.208  0.3991 -0.5845 -0.0047
  654MOL0     C86215   8.910   3.849   0.265  0.4257  0.0866  0.1923
  654MOL0     C86216   8.856   3.977   0.210  0.1690 -0.0910  0.2218
  654MOL0     C86217   8.702   3.977   0.190 -1.0392 -0.0081  0.6139
  654MOL0     C86218   8.620   3.956   0.319  0.2632  0.2964 -0.7018
  654MOL0     C86219   8.656   4.068   0.417 -0.4334  0.5044 -0.1058
  654MOL0     O86220   8.549   4.094   0.506  0.3353 -0.1322 -0.0495
  654MOL0     C86221   8.432   4.162   0.459 -0.3156  0.4166  0.1347
  654MOL0     C86222   8.417   4.224   0.337 -0.5111 -0.9723  0.7158
  654MOL0     C86223   8.306   4.304   0.296  0.4124 -0.3076 -0.1925
  654MOL0     C86224   8.203   4.324   0.396 -0.5842 -0.7226  0.4410
  654MOL0     C86225   8.077   4.393   0.357 -0.3273 -0.3833 -0.4834
  654MOL0     O86226   7.998   4.431   0.456 -0.7003 -0.1351  0.1813
  654MOL0     C86227   7.884   4.492   0.417  0.3631 -0.1118 -0.1353
  654MOL0     C86228   7.796   4.403   0.353  0.5861  0.1507  0.1857
  654MOL0     C86229   7.667   4.447   0.325 -0.7498  0.1803  1.3496
  654MOL0     C86230   7.628   4.577   0.365  1.3957  0.9852 -1.2928
  654MOL0     O86231   7.504   4.624   0.335 -0.0988  0.5085 -0.7326
  654MOL0     C86232   7.392   4.559   0.400 -0.0409 -0.5326 -0.3823
  654MOL0     C86233   7.277   4.651   0.354  0.3623  0.4313  0.1892
  654MOL0     C86234   7.269   4.782   0.427 -0.5602 -0.1932 -0.3703
  654MOL0     C86235   7.240   4.781   0.584  0.5865  0.8627  0.0982
  654MOL0     C86236   7.117   4.706   0.638  0.5395 -0.1565  0.3291
  654MOL0     C86237   6.983   4.726   0.551 -0.3395  0.8276 -0.0576
  654MOL0     C86238   6.936   4.864   0.526 -0.7734  0.1477  0.5395
  654MOL0     C86239   6.788   4.872   0.487  0.1150  0.6144  0.1134
  654MOL0    Cl86240   6.674   4.806   0.602  0.3910 -0.3244  0.1763
  654MOL0     C86241   7.720   4.663   0.431  0.3115 -0.0569  0.1919
  654MOL0     C86242   7.846   4.621   0.460  0.1276 -0.9551  0.9942
  654MOL0     O86243   8.056   4.407   0.238 -0.2907  0.1613  0.0687
  654MOL0     C86244   8.226   4.265   0.520 -1.2567 -0.4375 -0.9209
  654MOL0     C86245   8.338   4.187   0.557 -0.1982  0.7039  0.2267
  654MOL0     N86246   8.914   3.843   0.399  0.1479  0.4745  0.1138
  654MOL0     N86247   8.959   3.727   0.432  1.2574 -0.3956 -0.8050
  654MOL0     C86248   9.975   3.183   0.482 -0.8323  0.3058  0.5943
  654MOL0     C86249  10.057   3.166   0.370 -0.5243  0.4121  0.7133
  654MOL0     C86250  10.335   3.000   0.096  0.4539 -0.3067  0.3303
  654MOL0     C86251  10.321   3.043  -0.036  0.6806  0.4273  0.6782
  654MOL0     C86252  10.426   3.073  -0.120  0.0483 -0.2447  0.2601
  654MOL0     C86253  10.561   3.033  -0.095  0.3844 -0.5853 -0.0562
  654MOL0     O86254  10.673   3.065  -0.167  0.0982  1.2517 -0.1976
  654MOL0     C86255  10.654   3.126  -0.297 -0.1034 -0.2004  0.4799
  654MOL0     C86256  10.797   3.143  -0.364 -0.2740  1.2806 -0.4390
  654MOL0     C86257  10.834   3.004  -0.409 -1.0856  0.5382 -0.0006
  654MOL0     C86258  10.952   2.998  -0.512  0.0061 -0.9696  0.1571
  654MOL0     C86259  11.028   2.878  -0.492  0.5203  0.2924 -0.0064
  654MOL0     C86260  11.087   2.770  -0.489 -0.1081 -0.4850  0.8827
  654MOL0     C86261  10.572   2.985   0.036 -0.1024 -0.1678 -0.2118
  654MOL0     C86262  10.470   2.975   0.127  0.0028 -0.2657 -0.3196
  654MOL0     H86263   9.836   2.964   0.195 -0.6757 -1.0736  0.4413
  654MOL0     H86264   9.685   3.031   0.375  0.1838 -0.8303 -3.2767
  654MOL0     H86265   9.789   3.371   0.521  0.8495 -1.1390  0.3867
  654MOL0     H86266   9.814   3.328   0.692 -1.3909  1.9470  0.2048
  654MOL0     H86267   9.595   3.447   0.659  0.7848  0.7784 -2.7893
  654MOL0     H86268   9.573   3.265   0.709  0.9597 -0.7268 -0.7791
  654MOL0     H86269   9.522   3.225   0.459 -4.6309  1.7982 -2.6707
  654MOL0     H86270   9.564   3.395   0.430  2.3157 -2.0910 -1.2530
  654MOL0     H86271   9.347   3.313   0.637 -3.7776  1.7485 -1.1215
  654MOL0     H86272   9.357   3.456   0.537 -1.7348 -0.6077  0.7585
  654MOL0     H86273   9.166   3.298   0.487  0.2925 -0.4910 -0.5474
  654MOL0     H86274   9.278   3.192   0.415 -2.3041  0.3101 -0.3342
  654MOL0     H86275   9.197   3.314   0.233  0.9948 -0.4794  0.2625
  654MOL0     H86276   9.350   3.381   0.262  0.5143  0.3140  1.8964
  654MOL0     H86277   9.241   3.572   0.389 -3.3354 -1.9602  2.4110
  654MOL0     H86278   9.222   3.574   0.213  2.7205  2.4773  1.0484
  654MOL0     H86279   9.011   3.464   0.418 -3.3210  0.0595 -2.0179
  654MOL0     H86280   8.983   3.463   0.251 -2.6140  1.6612 -0.4671
  654MOL0     H86281   8.980   3.715   0.105  2.4125  3.9807 -0.5020
  654MOL0     H86282   8.897   3.992   0.110  3.3677 -0.3334  1.3585
  654MOL0     H86283   8.882   4.065   0.271  1.9515 -0.9606  0.7741
  654MOL0     H86284   8.685   3.904   0.111  2.1911 -1.6784  1.2876
  654MOL0     H86285   8.676   4.077   0.153  0.0079  0.1853  0.3809
  654MOL0     H86286   8.515   3.972   0.291 -0.7072 -1.1024  1.8277
  654MOL0     H86287   8.634   3.856   0.360 -1.2757 -0.1125 -1.1123
  654MOL0     H86288   8.685   4.159   0.363 -0.5752 -0.5138 -2.0083
  654MOL0     H86289   8.744   4.043   0.477 -1.9365  1.0132  2.4402
  654MOL0     H86290   8.490   4.203   0.260 -1.6785 -6.2743  0.7122
  654MOL0     H86291   8.303   4.328   0.190 -0.3802 -3.6044 -1.0212
  654MOL0     H86292   7.822   4.302   0.323 -0.9894 -0.3408  0.4202
  654MOL0     H86293   7.585   4.396   0.278  0.2753 -0.5596  0.3012
  654MOL0     H86294   7.403   4.564   0.509 -1.5218 -0.1375 -0.2290
  654MOL0     H86295   7.372   4.456   0.366  0.1817 -1.4641  2.1277
  654MOL0     H86296   7.175   4.612   0.362 -0.5704  2.6466 -0.2227
  654MOL0     H86297   7.281   4.670   0.247  2.2841 -0.7241  0.0101
  654MOL0     H86298   7.207   4.850   0.368  1.7303  0.0098 -2.7507
  654MOL0     H86299   7.368   4.828   0.432 -0.9929  0.9204 -1.3999
  654MOL0     H86300   7.321   4.745   0.649 -0.3193  0.1366  0.8437
  654MOL0     H86301   7.231   4.882   0.624  1.9282  1.5102 -1.1369
  654MOL0     H86302   7.096   4.744   0.739  0.1957 -1.5353  0.7916
  654MOL0     H86303   7.142   4.600   0.647  0.5171 -0.0401  2.0362
  654MOL0     H86304   6.912   4.671   0.613  1.1151  2.5215  3.4110
  654MOL0     H86305   6.996   4.673   0.456 -4.2948 -0.2062 -0.1860
  654MOL0     H86306   6.955   4.923   0.616 -2.5615  0.0752  1.0078
  654MOL0     H86307   6.993   4.902   0.440  0.4708 -2.6030  0.0548
  654MOL0     H86308   6.773   4.810   0.398  2.0761  0.5577 -0.2079
  654MOL0     H86309   6.760   4.976   0.468 -0.9766 -0.0666 -2.2994
  654MOL0     H86310   7.677   4.760   0.451 -0.0882  0.0980 -1.3529
  654MOL0     H86311   7.916   4.694   0.500  0.4365 -0.3422 -0.5729
  654MOL0     H86312   8.163   4.280   0.608  2.7426  1.0236  1.9952
  654MOL0     H86313   8.349   4.142   0.655  2.9491  0.2749 -0.2376
  654MOL0     H86314  10.011   3.236   0.570  0.9501  1.4274 -0.7253
  654MOL0     H86315  10.155   3.211   0.359 -0.7791  0.2789 -4.0442
  654MOL0     H86316  10.220   3.069  -0.067  0.9992  2.5027  1.2239
  654MOL0     H86317  10.411   3.125  -0.215 -3.6886 -0.7254  0.4325
  654MOL0     H86318  10.612   3.227  -0.292  0.6259  0.1129  0.3678
  654MOL0     H86319  10.594   3.065  -0.364  2.2185 -2.0521 -0.0127
  654MOL0     H86320  10.789   3.207  -0.452 -1.2424 -0.2370 -1.4870
  654MOL0     H86321  10.869   3.177  -0.288  0.5090 -1.5532  0.1912
  654MOL0     H86322  10.746   2.958  -0.456  0.8424 -0.2896 -3.0163
  654MOL0     H86323  10.863   2.944  -0.322 -0.3630  0.0484 -0.5752
  654MOL0     H86324  10.917   3.000  -0.616  2.9625  0.4023 -0.9419
  654MOL0     H86325  11.025   3.080  -0.510  0.0721 -0.8583 -2.6113
  654MOL0     H86326  11.142   2.678  -0.500  0.9814  0.3834 -1.8249
  654MOL0     H86327  10.670   2.954   0.071  1.2870  1.4424 -2.3914
  654MOL0     H86328  10.492   2.935   0.226  0.5711 -0.5276 -0.5441
  655MOL0     O86329  10.645   0.061   1.767 -0.3799 -0.2639 -0.4879
  655MOL0     C86330  10.764   0.057   1.725  0.5472  0.0531  1.3125
  655MOL0     O86331  10.847  -0.041   1.749 -0.5790  0.5005  0.4926
  655MOL0     C86332  10.790  -0.164   1.774  0.4239 -1.0817  0.6049
  655MOL0     C86333  10.768  -0.214   1.905 -1.2325  0.6185  0.6098
  655MOL0     C86334  10.709  -0.335   1.927  1.0468 -0.6754  0.0012
  655MOL0     C86335  10.655  -0.407   1.825  0.2752  0.6536  0.3016
  655MOL0     O86336  10.596  -0.530   1.852 -0.1322  0.0386  0.5335
  655MOL0     C86337  10.581  -0.628   1.747  0.4852  0.3136  0.2612
  655MOL0     C86338  10.453  -0.618   1.668 -0.5253  0.1649 -0.1331
  655MOL0     C86339  10.331  -0.622   1.757 -0.0765 -0.3400 -0.6961
  655MOL0     C86340  10.207  -0.607   1.669  0.0299  0.4496  0.3213
  655MOL0     C86341  10.091  -0.683   1.735  0.0021  1.0714  0.1056
  655MOL0     C86342   9.970  -0.635   1.657 -0.2040 -0.3897 -0.3045
  655MOL0     C86343   9.831  -0.694   1.689 -1.3165 -0.6827 -0.3183
  655MOL0     C86344   9.720  -0.595   1.648 -0.6045  0.9468 -0.0876
  655MOL0     N86345   9.592  -0.661   1.619  0.5896  0.0433 -0.3473
  655MOL0     C86346   9.544  -0.641   1.491 -0.9415  0.8581 -1.6467
  655MOL0     C86347   9.426  -0.722   1.493  0.5289 -0.3017 -0.0417
  655MOL0     C86348   9.321  -0.777   1.393 -0.1005  0.5770 -0.7395
  655MOL0     C86349   9.266  -0.665   1.308 -0.2493 -0.0729 -0.5570
  655MOL0     C86350   9.167  -0.718   1.214  0.3230  0.0207  0.3431
  655MOL0     C86351   9.032  -0.703   1.283  0.6843 -0.3141 -1.1421
  655MOL0     O86352   8.935  -0.743   1.196  0.7269 -0.0665  0.4316
  655MOL0     C86353   8.811  -0.785   1.245  0.0387  0.6595 -0.1685
  655MOL0     C86354   8.717  -0.845   1.160 -0.2945  0.3300 -0.0441
  655MOL0     C86355   8.593  -0.889   1.210 -1.1855 -0.4446  0.5044
  655MOL0     C86356   8.554  -0.869   1.337  1.0459 -0.1147 -0.1385
  655MOL0     C86357   8.414  -0.905   1.367 -0.5521  0.0241  0.6901
  655MOL0     O86358   8.326  -0.929   1.266 -0.2398 -0.2066  0.9753
  655MOL0     C86359   8.198  -0.957   1.300 -0.8201 -0.0328  0.0574
  655MOL0     C86360   8.114  -0.879   1.374 -1.2962  0.5645  0.2036
  655MOL0     C86361   7.991  -0.917   1.423  1.0318  0.1659 -0.1078
  655MOL0     C86362   7.936  -1.045   1.394  0.0393 -0.2912 -1.3727
  655MOL0     O86363   7.810  -1.081   1.438  0.5544 -0.0695  0.2718
  655MOL0     C86364   7.761  -1.210   1.403 -0.2823  0.0579 -0.2406
  655MOL0     C86365   7.607  -1.209   1.432 -1.2257 -0.3293 -0.1822
  655MOL0     C86366   7.525  -1.107   1.363 -0.1747  0.7910  0.4671
  655MOL0     C86367   7.527  -0.973   1.421  0.1091 -0.2040  0.4006
  655MOL0     C86368   7.412  -0.890   1.355  1.0903 -0.3738 -0.1311
  655MOL0     C86369   7.397  -0.757   1.431 -0.2931 -0.8572 -0.1619
  655MOL0     C86370   7.293  -0.764   1.539  0.4848  0.2756 -0.3833
  655MOL0     C86371   7.285  -0.658   1.644 -0.2143 -0.0852 -0.3116
  655MOL0    Cl86372   7.142  -0.672   1.751  0.3700 -0.0385 -0.2806
  655MOL0     C86373   8.023  -1.131   1.323 -0.4073 -0.2812  0.8267
  655MOL0     C86374   8.151  -1.095   1.283 -0.6003 -0.5296  0.0672
  655MOL0     O86375   8.379  -0.874   1.478  0.2142  0.3936 -0.0436
  655MOL0     C86376   8.639  -0.815   1.431 -0.4711 -0.2833  1.1685
  655MOL0     C86377   8.770  -0.765   1.381 -0.1669 -0.1765 -0.1154
  655MOL0     N86378   9.428  -0.791   1.618  1.0871 -0.4920 -0.2854
  655MOL0     N86379   9.522  -0.748   1.690 -0.0353  0.6212 -0.1290
  655MOL0     C86380  10.668  -0.350   1.689  1.1323  0.5304 -0.7971
  655MOL0     C86381  10.737  -0.226   1.663  0.3585 -0.3886  0.6388
  655MOL0     C86382  10.825   0.185   1.674 -0.0657  0.5136  0.2677
  655MOL0     C86383  10.956   0.220   1.728  0.2582 -0.4062 -0.0939
  655MOL0     C86384  11.006   0.352   1.692 -0.0235  0.7019 -0.0787
  655MOL0     C86385  10.937   0.432   1.606  0.6229  0.4502 -0.6587
  655MOL0     O86386  11.010   0.543   1.568  0.7032  1.1287 -0.5361
  655MOL0     C86387  10.948   0.631   1.479  0.3989 -0.6994 -0.4417
  655MOL0     C86388  11.049   0.738   1.452  0.3549 -1.3929  0.2834
  655MOL0     C86389  11.021   0.819   1.321  0.0992  0.1236 -1.2620
  655MOL0     C86390  11.106   0.935   1.282 -0.2819  0.1223  0.4102
  655MOL0     C86391  11.032   1.019   1.178 -0.4004  0.9901  0.1063
  655MOL0     C86392  10.965   1.094   1.107 -0.4524  0.6244 -0.0306
  655MOL0     C86393  10.813   0.388   1.554 -0.5823 -0.7401 -0.6319
  655MOL0     C86394  10.752   0.275   1.597 -0.2719  0.2405  0.3813
  655MOL0     H86395  10.779  -0.157   1.997  1.5903  0.6115  0.3869
  655MOL0     H86396  10.695  -0.380   2.024 -1.2725 -1.9184 -0.8298
  655MOL0     H86397  10.593  -0.723   1.799 -2.7057  0.0448  0.6811
  655MOL0     H86398  10.672  -0.629   1.686  0.4201  1.2084  0.1234
  655MOL0     H86399  10.462  -0.707   1.605  0.6130  0.0518  0.1578
  655MOL0     H86400  10.439  -0.535   1.597 -0.5952 -0.3572 -0.7420
  655MOL0     H86401  10.344  -0.540   1.828 -3.0296 -2.3995  2.5316
  655MOL0     H86402  10.326  -0.717   1.810 -1.7323  1.0736  1.8931
  655MOL0     H86403  10.189  -0.500   1.660  3.5099  1.2777  1.6290
  655MOL0     H86404  10.222  -0.657   1.573 -2.8236 -0.7180  0.3893
  655MOL0     H86405  10.094  -0.677   1.844 -1.4229 -1.9210  0.4232
  655MOL0     H86406  10.102  -0.791   1.718 -1.4894  0.9230 -0.0202
  655MOL0     H86407   9.991  -0.650   1.551 -2.9348  1.4936 -1.2352
  655MOL0     H86408   9.957  -0.527   1.650 -0.9399 -0.5850 -3.2344
  655MOL0     H86409   9.826  -0.797   1.650  1.2592 -0.1150 -2.4446
  655MOL0     H86410   9.831  -0.700   1.798 -0.1815  1.9575 -0.1154
  655MOL0     H86411   9.756  -0.529   1.569  0.7141  1.0159  0.5489
  655MOL0     H86412   9.705  -0.525   1.731 -2.3191 -0.3585  0.7759
  655MOL0     H86413   9.569  -0.565   1.418  2.1723  0.4844 -1.0654
  655MOL0     H86414   9.246  -0.831   1.451  2.8731 -1.8051  1.2469
  655MOL0     H86415   9.368  -0.855   1.332 -0.7210 -1.5138  1.3290
  655MOL0     H86416   9.355  -0.630   1.256 -0.6804  0.5797 -0.8659
  655MOL0     H86417   9.233  -0.591   1.382  0.1539 -2.5713  2.3010
  655MOL0     H86418   9.173  -0.658   1.122 -0.2872 -0.3817  0.0352
  655MOL0     H86419   9.180  -0.826   1.205 -0.1667  0.0430 -0.7831
  655MOL0     H86420   9.017  -0.597   1.306  3.3625  0.0245 -0.6687
  655MOL0     H86421   9.035  -0.763   1.374  3.7404  2.3375  0.7114
  655MOL0     H86422   8.741  -0.860   1.055  1.8537  4.0602 -0.2559
  655MOL0     H86423   8.540  -0.941   1.132  2.5005 -1.4924 -1.5757
  655MOL0     H86424   8.145  -0.777   1.394  0.7000 -0.1679  1.1946
  655MOL0     H86425   7.927  -0.842   1.471 -1.1871 -1.1934 -0.7884
  655MOL0     H86426   7.813  -1.287   1.461 -1.2228 -0.5128 -0.1277
  655MOL0     H86427   7.778  -1.231   1.297 -0.9827 -0.6644 -0.2247
  655MOL0     H86428   7.589  -1.203   1.540  0.9800 -1.6615  0.3361
  655MOL0     H86429   7.574  -1.303   1.388 -0.5388 -0.6071 -0.1187
  655MOL0     H86430   7.420  -1.135   1.373  0.6663 -1.9166  3.3458
  655MOL0     H86431   7.560  -1.113   1.260 -2.3335  2.1004 -0.3994
  655MOL0     H86432   7.519  -0.968   1.530  0.9396  0.6806  0.4333
  655MOL0     H86433   7.618  -0.925   1.382 -0.1311 -0.6259 -0.7224
  655MOL0     H86434   7.312  -0.932   1.348 -0.0721  1.8105  1.8252
  655MOL0     H86435   7.432  -0.863   1.251 -1.8586  0.7364 -0.4864
  655MOL0     H86436   7.358  -0.682   1.361  0.7899  0.2766  0.3890
  655MOL0     H86437   7.492  -0.722   1.473 -0.6350 -2.4050  2.0138
  655MOL0     H86438   7.192  -0.772   1.497  0.3483  0.0574 -0.0147
  655MOL0     H86439   7.314  -0.857   1.594 -1.0788  0.0524 -0.1206
  655MOL0     H86440   7.280  -0.555   1.608 -3.0488 -0.6807 -1.9296
  655MOL0     H86441   7.363  -0.656   1.721 -2.0070  0.5910  1.6063
  655MOL0     H86442   7.999  -1.235   1.302 -3.1843  0.3161  0.6091
  655MOL0     H86443   8.216  -1.157   1.222 -1.2192  0.0573 -1.2254
  655MOL0     H86444   8.623  -0.799   1.537  1.6839 -0.2484  1.5252
  655MOL0     H86445   8.833  -0.715   1.453  0.6622 -1.1547 -0.1453
  655MOL0     H86446  10.641  -0.399   1.596  2.0959 -1.1335 -0.2270
  655MOL0     H86447  10.731  -0.187   1.561 -0.1310 -1.2006  0.3469
  655MOL0     H86448  11.012   0.157   1.797  0.0093 -0.0175  0.4743
  655MOL0     H86449  11.106   0.379   1.726  0.3528 -0.9888  0.2369
  655MOL0     H86450  10.860   0.672   1.530  1.3969 -0.0372  0.8239
  655MOL0     H86451  10.917   0.599   1.379 -1.2034  1.9841 -0.9005
  655MOL0     H86452  11.082   0.796   1.538  2.4043  2.1099 -2.5726
  655MOL0     H86453  11.145   0.687   1.436  1.6135  0.9266  0.0275
  655MOL0     H86454  10.921   0.863   1.327  1.6761  4.6456 -3.5918
  655MOL0     H86455  11.020   0.749   1.237 -2.1563  0.1167 -1.2947
  655MOL0     H86456  11.120   0.998   1.370  1.9947 -0.0847  0.2778
  655MOL0     H86457  11.202   0.905   1.238 -0.9991 -0.2156 -0.9934
  655MOL0     H86458  10.911   1.158   1.040  1.1523 -1.7076 -3.9273
  655MOL0     H86459  10.751   0.446   1.486  0.8072  2.4471  0.6491
  655MOL0     H86460  10.647   0.254   1.578  0.0463 -0.2604 -0.9616
  656MOL0     O86461  11.346   1.623   7.484  0.2398  0.1826  0.1048
  656MOL0     C86462  11.340   1.715   7.569  0.7984 -0.0861  0.0199
  656MOL0     O86463  11.311   1.848   7.541  0.2084  0.4731 -0.1137
  656MOL0     C86464  11.297   1.887   7.403  0.2384  0.7558  0.5633
  656MOL0     C86465  11.201   1.829   7.318  0.5802 -0.1963 -0.2180
  656MOL0     C86466  11.181   1.879   7.191  0.4408 -0.6594  0.1331
  656MOL0     C86467  11.254   2.003   7.153  0.9619  0.9959  0.2406
  656MOL0     O86468  11.216   2.063   7.037  0.5632 -0.5258  0.0123
  656MOL0     C86469  11.113   2.164   7.073  1.0565  0.8466 -0.1229
  656MOL0     C86470  11.069   2.237   6.942 -0.5368  0.4303  0.1075
  656MOL0     C86471  11.010   2.143   6.836 -0.7122 -0.4702  1.0731
  656MOL0     C86472  10.971   2.219   6.708  2.1145 -1.0088  0.9176
  656MOL0     C86473  10.847   2.312   6.734 -0.3389 -0.2454 -0.1232
  656MOL0     C86474  10.709   2.262   6.696  0.4531  0.4606  0.4986
  656MOL0     C86475  10.694   2.252   6.538  0.1222  0.0070  0.4891
  656MOL0     C86476  10.718   2.379   6.461 -0.6095 -0.0454  0.8742
  656MOL0     N86477  10.650   2.489   6.511  1.0356 -0.7004 -0.4371
  656MOL0     C86478  10.515   2.504   6.509  0.0480  0.6676 -0.3794
  656MOL0     C86479  10.489   2.629   6.569 -0.4132 -0.6850  0.4793
  656MOL0     C86480  10.353   2.701   6.580  0.2159  0.2238  1.1852
  656MOL0     C86481  10.255   2.665   6.468  0.8095 -1.0729  0.2944
  656MOL0     C86482  10.106   2.715   6.493  0.4702  0.4604 -0.0617
  656MOL0     C86483  10.096   2.855   6.539 -0.2990  0.6602  0.6841
  656MOL0     O86484  10.150   2.949   6.443 -0.3728  0.3184 -0.3734
  656MOL0     C86485  10.070   2.996   6.345 -0.3803 -0.0376  0.1309
  656MOL0     C86486  10.126   3.093   6.264  0.0826  1.2419  0.3791
  656MOL0     C86487  10.060   3.150   6.157 -0.6749  0.0907  0.1760
  656MOL0     C86488   9.929   3.114   6.134  0.4383 -0.6378  0.7856
  656MOL0     C86489   9.858   3.180   6.025 -1.2342 -0.0983 -0.6016
  656MOL0     O86490   9.743   3.119   5.982 -0.3773 -0.0651 -0.0041
  656MOL0     C86491   9.650   3.195   5.924  0.7237 -0.6505 -0.1801
  656MOL0     C86492   9.571   3.292   5.996  0.0944  0.0177 -1.0228
  656MOL0     C86493   9.471   3.371   5.942 -0.7032  0.3246 -0.1971
  656MOL0     C86494   9.456   3.352   5.805  0.8326  0.3345  0.4583
  656MOL0     O86495   9.374   3.436   5.730  0.0892  0.1199  0.9242
  656MOL0     C86496   9.415   3.570   5.730 -0.3837 -0.3694 -0.2882
  656MOL0     C86497   9.344   3.652   5.623  0.3085 -0.1087 -0.6868
  656MOL0     C86498   9.186   3.663   5.651 -0.6771  0.4679  0.8120
  656MOL0     C86499   9.123   3.739   5.532 -0.2588 -0.1671  0.3639
  656MOL0     C86500   8.971   3.742   5.564 -0.2520 -0.0915 -0.2012
  656MOL0     C86501   8.892   3.773   5.448  0.2351  0.0543 -0.3664
  656MOL0     C86502   8.925   3.918   5.400  0.0925 -0.5010  0.2411
  656MOL0     C86503   8.877   4.025   5.489 -0.4114 -0.6684  0.2966
  656MOL0    Cl86504   8.972   4.182   5.468  0.1254 -0.0469  0.1733
  656MOL0     C86505   9.529   3.257   5.730  0.9203 -0.3630 -0.0651
  656MOL0     C86506   9.626   3.188   5.794 -0.5128 -0.5947 -0.0456
  656MOL0     O86507   9.891   3.296   5.989 -0.4400  0.0354 -0.1612
  656MOL0     C86508   9.877   3.007   6.208 -0.3311 -1.2975 -0.0761
  656MOL0     C86509   9.947   2.951   6.313  0.1056 -0.1699  0.7988
  656MOL0     N86510  10.609   2.686   6.607  0.3763  0.3533  0.1515
  656MOL0     N86511  10.697   2.605   6.570 -0.8318 -1.0121 -0.5379
  656MOL0     C86512  11.356   2.054   7.232 -0.2003  0.3893  0.6561
  656MOL0     C86513  11.383   1.987   7.354  0.3668 -0.7464  0.5522
  656MOL0     C86514  11.363   1.672   7.701 -0.0615  0.0246 -0.2795
  656MOL0     C86515  11.416   1.545   7.724  0.6263 -1.0320  0.6222
  656MOL0     C86516  11.454   1.510   7.852  0.9461  1.9091  0.2675
  656MOL0     C86517  11.431   1.597   7.964 -1.2794  0.6898 -0.2736
  656MOL0     O86518  11.454   1.567   8.094 -0.0433 -0.0450 -0.1430
  656MOL0     C86519  11.462   1.425   8.135  0.5598  0.2891 -0.0967
  656MOL0     C86520  11.473   1.403   8.280  0.4777 -0.4997 -0.4468
  656MOL0     C86521  11.337   1.456   8.344 -0.4638  0.3046  0.1232
  656MOL0     C86522  11.331   1.403   8.494  0.0475  0.2556 -0.0708
  656MOL0     C86523  11.434   1.473   8.580 -0.4487  0.1124  0.1698
  656MOL0     C86524  11.530   1.542   8.616  0.0216  0.0280  1.1112
  656MOL0     C86525  11.367   1.715   7.942  0.1544 -0.4715  0.1241
  656MOL0     C86526  11.345   1.756   7.805 -0.9213 -0.7282 -0.1240
  656MOL0     H86527  11.134   1.747   7.343  0.1649  0.4006  0.6857
  656MOL0     H86528  11.109   1.832   7.124  0.4626 -0.1940 -0.2245
  656MOL0     H86529  11.147   2.233   7.150 -3.1727  0.2662  2.5994
  656MOL0     H86530  11.028   2.110   7.116  3.3592 -1.5975  1.7221
  656MOL0     H86531  11.152   2.300   6.910  0.8125  0.6575  3.6719
  656MOL0     H86532  11.001   2.314   6.978  1.6633  2.5062  0.0478
  656MOL0     H86533  10.926   2.088   6.878  0.9894 -1.8087  2.8981
  656MOL0     H86534  11.091   2.074   6.811 -0.2706 -0.2279  1.8217
  656MOL0     H86535  11.047   2.292   6.679 -1.1538  2.8218  1.1040
  656MOL0     H86536  10.949   2.134   6.643 -0.6892 -2.4292  3.5063
  656MOL0     H86537  10.856   2.405   6.676  3.1495 -1.4367 -1.7722
  656MOL0     H86538  10.848   2.346   6.838  0.8137 -2.1223  0.5208
  656MOL0     H86539  10.646   2.344   6.734 -0.3384 -0.5122  1.3391
  656MOL0     H86540  10.684   2.165   6.740  3.6994 -1.2931 -1.1612
  656MOL0     H86541  10.762   2.176   6.499  0.9357 -1.0194  3.5473
  656MOL0     H86542  10.594   2.214   6.516  0.9686 -2.0969  0.1097
  656MOL0     H86543  10.690   2.362   6.357 -1.1412  2.5071  0.5363
  656MOL0     H86544  10.827   2.386   6.455 -0.5245 -1.4399  0.2939
  656MOL0     H86545  10.450   2.428   6.467  0.7564 -0.4821  0.5516
  656MOL0     H86546  10.362   2.809   6.587 -1.4276  0.3259  2.0481
  656MOL0     H86547  10.307   2.667   6.674 -0.2167  1.7429  1.5438
  656MOL0     H86548  10.240   2.557   6.469 -1.5509 -0.8085  1.3472
  656MOL0     H86549  10.287   2.713   6.375 -1.1808  0.9340  0.5388
  656MOL0     H86550  10.048   2.703   6.401  1.7943 -0.2446 -0.8289
  656MOL0     H86551  10.054   2.667   6.577  0.1740  1.7636  0.5316
  656MOL0     H86552  10.145   2.845   6.637  1.8535 -0.4669 -0.4450
  656MOL0     H86553   9.997   2.885   6.574  0.4994  3.2554  0.9564
  656MOL0     H86554  10.232   3.105   6.285  0.3827 -0.9298  0.3939
  656MOL0     H86555  10.103   3.232   6.100 -1.5986  3.0272  3.3640
  656MOL0     H86556   9.592   3.309   6.101  1.2580  2.0169 -1.5184
  656MOL0     H86557   9.423   3.449   6.000 -2.2864  0.2294 -1.2982
  656MOL0     H86558   9.518   3.583   5.697 -1.0765  0.8485 -2.2114
  656MOL0     H86559   9.404   3.617   5.828  1.4073 -0.2358 -0.1270
  656MOL0     H86560   9.368   3.613   5.523 -1.0104  1.3385 -1.6102
  656MOL0     H86561   9.385   3.754   5.623 -0.0130  0.0893  2.3660
  656MOL0     H86562   9.156   3.713   5.743 -1.8549  1.7633 -0.2292
  656MOL0     H86563   9.138   3.565   5.653 -1.6245  0.9289  1.4709
  656MOL0     H86564   9.169   3.837   5.520 -2.2065  0.8233  0.5086
  656MOL0     H86565   9.143   3.688   5.437  1.8381 -0.4305  0.8975
  656MOL0     H86566   8.953   3.821   5.638 -0.6347  1.4771 -1.8832
  656MOL0     H86567   8.939   3.642   5.595 -2.1828  0.6176  0.2296
  656MOL0     H86568   8.790   3.770   5.487  2.1714 -0.1000  5.6579
  656MOL0     H86569   8.895   3.707   5.360 -0.4269  0.4098 -0.6655
  656MOL0     H86570   9.033   3.927   5.389 -0.0507  1.9345  0.3391
  656MOL0     H86571   8.882   3.934   5.301 -0.2512 -3.4950 -0.1895
  656MOL0     H86572   8.887   4.009   5.597  1.1874  0.7065  0.3932
  656MOL0     H86573   8.771   4.050   5.477  0.0153  1.5560  0.6464
  656MOL0     H86574   9.507   3.230   5.628 -2.7729 -1.4263  0.8697
  656MOL0     H86575   9.691   3.121   5.739  2.3643  1.3772  0.7150
  656MOL0     H86576   9.778   2.968   6.188 -1.5533  2.1533 -1.5395
  656MOL0     H86577   9.888   2.879   6.369 -0.6812 -1.3856 -1.4579
  656MOL0     H86578  11.405   2.144   7.195 -1.8366  2.7083  3.7345
  656MOL0     H86579  11.458   2.019   7.426 -0.6125 -1.7317  2.0695
  656MOL0     H86580  11.443   1.484   7.639 -0.8763 -0.0897 -0.5803
  656MOL0     H86581  11.512   1.418   7.864 -1.5562  0.0547 -1.0070
  656MOL0     H86582  11.556   1.385   8.095  0.4280 -1.9406  1.6278
  656MOL0     H86583  11.385   1.357   8.098  1.0258  0.7374 -2.0204
  656MOL0     H86584  11.496   1.300   8.309 -1.0426  0.1555  3.7060
  656MOL0     H86585  11.560   1.458   8.317  1.0913 -0.8795 -1.2923
  656MOL0     H86586  11.252   1.417   8.286 -1.2584 -1.1337  2.1411
  656MOL0     H86587  11.317   1.563   8.341 -0.7157  0.2484 -2.7972
  656MOL0     H86588  11.230   1.421   8.532  0.3687  2.4414 -0.0803
  656MOL0     H86589  11.357   1.297   8.500  4.4898  1.1499  0.1953
  656MOL0     H86590  11.616   1.591   8.659  1.3779 -0.4268 -0.9509
  656MOL0     H86591  11.330   1.772   8.026 -0.3276  0.1083 -0.4764
  656MOL0     H86592  11.296   1.851   7.788  1.0228  0.4833  0.8221
  657MOL0     O86593   2.843   2.205   3.278  0.1451 -0.5336  0.1478
  657MOL0     C86594   2.781   2.160   3.372  0.2867 -0.1131  0.1699
  657MOL0     O86595   2.687   2.224   3.446 -0.8084  0.2961 -0.3266
  657MOL0     C86596   2.655   2.351   3.402 -0.4748  0.8318  0.3949
  657MOL0     C86597   2.541   2.374   3.324 -0.1372 -0.6415 -0.0242
  657MOL0     C86598   2.517   2.509   3.283  0.6755  0.4857 -0.5326
  657MOL0     C86599   2.590   2.619   3.331 -0.8254  0.5245 -0.2141
  657MOL0     O86600   2.552   2.750   3.298 -0.0781 -0.0215 -0.6206
  657MOL0     C86601   2.673   2.819   3.244 -1.0647 -1.0737 -0.3249
  657MOL0     C86602   2.622   2.902   3.118 -0.5649  0.6108  0.4571
  657MOL0     C86603   2.548   2.812   3.023  0.3969 -0.9833  0.1528
  657MOL0     C86604   2.635   2.722   2.937  0.6662 -0.2625 -0.0695
  657MOL0     C86605   2.557   2.664   2.822  0.2221  0.0583  0.4999
  657MOL0     C86606   2.650   2.626   2.715  1.3488  0.0538 -0.4582
  657MOL0     C86607   2.582   2.582   2.582  0.8625  0.1349  0.3821
  657MOL0     C86608   2.679   2.508   2.488 -0.3462 -0.0206  0.0516
  657MOL0     N86609   2.782   2.594   2.420  0.2584  0.6018  0.3965
  657MOL0     C86610   2.897   2.650   2.460 -0.8336 -0.4028 -0.6484
  657MOL0     C86611   2.961   2.692   2.352 -0.0566 -0.2817 -0.1996
  657MOL0     C86612   3.095   2.763   2.348  0.0493 -0.1827  0.4889
  657MOL0     C86613   3.160   2.752   2.212 -0.2956 -0.1200 -0.2760
  657MOL0     C86614   3.285   2.831   2.178  0.2527  0.6663  0.2678
  657MOL0     C86615   3.315   2.847   2.027  0.6036 -0.3730  0.2464
  657MOL0     O86616   3.442   2.917   2.017 -0.3306  0.4169  0.5244
  657MOL0     C86617   3.487   2.916   1.886 -0.0746 -0.3581  0.2351
  657MOL0     C86618   3.512   3.046   1.830  0.1473  0.9981  0.0177
  657MOL0     C86619   3.591   3.046   1.710  0.5614 -0.3167  0.2590
  657MOL0     C86620   3.635   2.934   1.636  1.0454  1.1270 -0.2956
  657MOL0     C86621   3.743   2.939   1.531  0.3456  0.1008  0.6384
  657MOL0     O86622   3.745   2.825   1.456 -0.3909 -0.1481 -0.3309
  657MOL0     C86623   3.848   2.821   1.362 -0.2408 -0.4347 -0.8552
  657MOL0     C86624   3.954   2.744   1.389  0.4009  0.2143 -0.6003
  657MOL0     C86625   4.073   2.742   1.302  0.9403  0.2619  0.6198
  657MOL0     C86626   4.059   2.805   1.168 -0.3681  0.2809  0.0194
  657MOL0     O86627   4.156   2.811   1.068 -0.5695  0.6210 -0.0050
  657MOL0     C86628   4.297   2.783   1.104  0.2193  1.2680 -0.0456
  657MOL0     C86629   4.364   2.857   1.214 -0.9253 -1.2798 -0.1407
  657MOL0     C86630   4.355   3.014   1.179  0.3628  0.1721 -0.2571
  657MOL0     C86631   4.431   3.063   1.055 -0.5709 -0.2253 -0.0202
  657MOL0     C86632   4.377   3.192   0.991  0.1246 -0.6787 -0.0577
  657MOL0     C86633   4.259   3.167   0.894  0.2366 -0.4896 -0.2335
  657MOL0     C86634   4.166   3.287   0.883 -1.0737  0.2894  0.1258
  657MOL0     C86635   4.043   3.265   0.800  0.0717 -0.1323 -0.4575
  657MOL0    Cl86636   3.918   3.170   0.885 -0.1171 -0.1172 -0.3998
  657MOL0     C86637   3.940   2.872   1.146 -0.4475 -0.4617  0.0655
  657MOL0     C86638   3.837   2.877   1.236 -0.0484  0.7159  0.6607
  657MOL0     O86639   3.802   3.042   1.504  0.6771 -0.7376 -0.5105
  657MOL0     C86640   3.585   2.811   1.683  0.3524 -0.6324 -0.4448
  657MOL0     C86641   3.504   2.798   1.803 -0.4893  0.0708  0.8482
  657MOL0     N86642   2.876   2.668   2.248  0.3426 -0.4825 -0.1941
  657MOL0     N86643   2.774   2.605   2.285 -0.0144  0.2282 -0.2512
  657MOL0     C86644   2.701   2.589   3.407  0.8254  0.6577 -0.8691
  657MOL0     C86645   2.734   2.456   3.457  0.2385 -0.2686  0.6025
  657MOL0     C86646   2.813   2.016   3.415  0.4480  0.0506 -0.3994
  657MOL0     C86647   2.911   1.945   3.343 -0.3270  0.3804  0.0265
  657MOL0     C86648   2.940   1.816   3.374 -0.5514  0.4043 -0.3701
  657MOL0     C86649   2.896   1.749   3.488  1.1279 -0.2777 -1.4011
  657MOL0     O86650   2.922   1.613   3.509 -0.2855  0.2349  0.7217
  657MOL0     C86651   2.880   1.558   3.638  0.4287  0.4432 -0.1722
  657MOL0     C86652   2.943   1.422   3.654  0.1126 -0.7737 -0.7325
  657MOL0     C86653   2.904   1.326   3.547 -0.1832  0.2410  0.2919
  657MOL0     C86654   2.976   1.193   3.573  0.7458 -0.2846 -0.0653
  657MOL0     C86655   2.936   1.093   3.466 -0.5296 -0.8048 -0.9792
  657MOL0     C86656   2.903   1.034   3.365 -0.6820 -0.2376 -0.2927
  657MOL0     C86657   2.801   1.824   3.560 -0.4454  0.1485  0.4843
  657MOL0     C86658   2.753   1.949   3.517 -0.7002 -0.1211 -1.1005
  657MOL0     H86659   2.493   2.289   3.276 -0.9578  0.4326 -1.1731
  657MOL0     H86660   2.438   2.522   3.209 -1.5506  0.1757  1.6773
  657MOL0     H86661   2.739   2.745   3.197  0.3898  0.1145 -0.2156
  657MOL0     H86662   2.723   2.879   3.321 -1.9887 -1.5739  0.7083
  657MOL0     H86663   2.720   2.918   3.072 -0.4605 -0.5246  0.2594
  657MOL0     H86664   2.567   2.995   3.138 -2.6575 -0.6134  0.7276
  657MOL0     H86665   2.500   2.884   2.957 -0.2730  0.2524  1.9150
  657MOL0     H86666   2.462   2.770   3.075 -1.9275  0.3504 -2.3798
  657MOL0     H86667   2.713   2.788   2.897 -0.1854  0.3150 -0.8423
  657MOL0     H86668   2.669   2.648   3.009  0.0288  1.3459  1.9896
  657MOL0     H86669   2.482   2.737   2.788  1.2495  1.3537  0.9108
  657MOL0     H86670   2.488   2.580   2.834 -1.5658  1.3912  0.0052
  657MOL0     H86671   2.710   2.540   2.748  1.8537  0.6817  0.2926
  657MOL0     H86672   2.712   2.711   2.686 -2.3083  3.7692  1.5356
  657MOL0     H86673   2.495   2.523   2.615 -1.2408  2.4473 -0.7087
  657MOL0     H86674   2.534   2.653   2.514  0.6555 -2.0401 -1.9208
  657MOL0     H86675   2.612   2.471   2.410 -3.2583  2.3379  1.2656
  657MOL0     H86676   2.730   2.426   2.539 -0.1956  0.1710  0.2116
  657MOL0     H86677   2.944   2.647   2.558 -0.4785  1.2903 -0.7320
  657MOL0     H86678   3.160   2.719   2.424 -1.9835  0.4489  2.7236
  657MOL0     H86679   3.071   2.867   2.374 -1.6456 -1.0158  2.5456
  657MOL0     H86680   3.085   2.762   2.133 -1.5547 -0.3615  0.8395
  657MOL0     H86681   3.185   2.646   2.202 -0.1092 -0.6202  3.6300
  657MOL0     H86682   3.272   2.920   2.240 -2.6300 -0.9682  2.2747
  657MOL0     H86683   3.368   2.773   2.220  0.1083 -0.5885 -1.0707
  657MOL0     H86684   3.229   2.902   1.987  0.6870  0.3823  1.0882
  657MOL0     H86685   3.313   2.750   1.976  3.2010  0.1195 -0.9223
  657MOL0     H86686   3.518   3.132   1.896 -1.3321  0.7949  0.4421
  657MOL0     H86687   3.615   3.147   1.678  2.6410 -0.5997  0.7756
  657MOL0     H86688   3.965   2.684   1.479 -1.1452  0.2588 -0.3582
  657MOL0     H86689   4.161   2.691   1.341  1.5487  0.2295 -0.7504
  657MOL0     H86690   4.348   2.799   1.009 -3.6015  0.7709 -2.4071
  657MOL0     H86691   4.329   2.680   1.126  2.8123  1.5084 -2.1963
  657MOL0     H86692   4.467   2.823   1.213 -0.6040 -0.3410 -1.4298
  657MOL0     H86693   4.318   2.843   1.313  1.2656  1.3663  1.3804
  657MOL0     H86694   4.398   3.082   1.253 -0.4147  2.4044 -1.7308
  657MOL0     H86695   4.250   3.038   1.159  0.1876 -2.1368 -2.7051
  657MOL0     H86696   4.539   3.077   1.068 -0.3706  0.7300 -2.2440
  657MOL0     H86697   4.417   2.992   0.972  0.8277 -1.8001  1.0223
  657MOL0     H86698   4.451   3.247   0.933 -0.7292  0.5179 -0.0477
  657MOL0     H86699   4.336   3.267   1.060  0.6430  1.5974 -2.0906
  657MOL0     H86700   4.189   3.089   0.925 -2.5404  1.6965 -0.6048
  657MOL0     H86701   4.308   3.157   0.797 -1.9607  2.5127 -1.8340
  657MOL0     H86702   4.126   3.328   0.976  2.1274  1.8123  0.9691
  657MOL0     H86703   4.227   3.368   0.842 -0.7676  0.9514  1.8261
  657MOL0     H86704   4.062   3.212   0.706  0.0852  2.5273 -2.0353
  657MOL0     H86705   4.002   3.358   0.761 -1.1879 -1.9718 -3.9949
  657MOL0     H86706   3.934   2.907   1.044 -0.7458 -3.1938 -0.9466
  657MOL0     H86707   3.742   2.921   1.208 -0.3858 -2.5130 -4.4617
  657MOL0     H86708   3.628   2.722   1.639  1.5077 -1.3784  2.0234
  657MOL0     H86709   3.490   2.698   1.843 -0.6870  0.1657  1.0190
  657MOL0     H86710   2.749   2.680   3.441  2.7105 -0.3841 -0.5758
  657MOL0     H86711   2.824   2.438   3.514  2.3985 -1.7272 -2.9402
  657MOL0     H86712   2.952   1.985   3.251 -0.5720 -0.5690 -0.5181
  657MOL0     H86713   3.006   1.755   3.314 -3.2397 -0.3572 -2.7957
  657MOL0     H86714   2.772   1.558   3.658  0.2816 -0.6167 -0.8922
  657MOL0     H86715   2.923   1.624   3.714 -0.7026  1.0440 -0.0334
  657MOL0     H86716   3.049   1.443   3.639  0.0727 -0.4773 -0.6057
  657MOL0     H86717   2.919   1.392   3.756  2.0262 -0.0895 -0.0442
  657MOL0     H86718   2.939   1.361   3.449 -2.1510  1.8802  0.1256
  657MOL0     H86719   2.797   1.304   3.538 -0.8338  2.8202  0.9707
  657MOL0     H86720   3.085   1.207   3.576  0.7523 -0.4357  0.6557
  657MOL0     H86721   2.949   1.145   3.668  2.6913 -3.6575 -1.0313
  657MOL0     H86722   2.879   0.989   3.271 -0.3459  0.5498 -0.7659
  657MOL0     H86723   2.747   1.782   3.644  0.7550 -2.3882  0.0971
  657MOL0     H86724   2.684   1.999   3.584  2.6976  2.6512  0.6601
  658MOL0     O86725   5.801   8.726   7.125 -0.4235 -0.4515 -0.2813
  658MOL0     C86726   5.693   8.742   7.061 -0.0859  0.1988  0.8676
  658MOL0     O86727   5.593   8.654   7.074 -0.2053  0.1591  0.3340
  658MOL0     C86728   5.591   8.552   7.161 -0.1512 -0.3802 -0.7472
  658MOL0     C86729   5.696   8.455   7.167 -0.5280  0.0505  0.7735
  658MOL0     C86730   5.679   8.326   7.227  0.4719 -0.5582  0.5930
  658MOL0     C86731   5.566   8.315   7.307  0.3536  0.1892 -0.5774
  658MOL0     O86732   5.546   8.202   7.386 -0.4160 -0.2434  0.2629
  658MOL0     C86733   5.502   8.213   7.520 -0.2255  0.8208 -0.0820
  658MOL0     C86734   5.600   8.139   7.619 -0.2662  0.5183  1.1350
  658MOL0     C86735   5.547   8.157   7.767 -0.3034  0.9714  0.2911
  658MOL0     C86736   5.647   8.130   7.887  0.1747  0.3361  0.3275
  658MOL0     C86737   5.590   8.165   8.021 -0.8149  0.4539 -0.2505
  658MOL0     C86738   5.657   8.086   8.136  0.5894  0.4545  0.3417
  658MOL0     C86739   5.574   7.962   8.173  0.5127  0.2575  0.7071
  658MOL0     C86740   5.637   7.886   8.286  0.2194  0.5561 -0.1835
  658MOL0     N86741   5.534   7.817   8.366 -0.6563  0.1728  0.4291
  658MOL0     C86742   5.538   7.677   8.400 -0.3582  0.1157 -0.0808
  658MOL0     C86743   5.446   7.667   8.499  0.2449  0.5355  0.6287
  658MOL0     C86744   5.392   7.534   8.544 -0.5000  0.2267 -0.3849
  658MOL0     C86745   5.475   7.466   8.661 -0.2866  0.3113  0.4685
  658MOL0     C86746   5.502   7.582   8.761 -0.2892 -1.2378  0.2522
  658MOL0     C86747   5.559   7.523   8.894  0.2501  0.7637 -0.3944
  658MOL0     O86748   5.553   7.618   8.998 -0.3631  0.3000 -0.0532
  658MOL0     C86749   5.430   7.631   9.062 -0.7893 -0.8071  0.5782
  658MOL0     C86750   5.306   7.556   9.047  1.0526  0.5125  0.3011
  658MOL0     C86751   5.187   7.593   9.116  0.5874 -0.9490 -0.4485
  658MOL0     C86752   5.184   7.716   9.193  0.4442 -0.0015  0.0218
  658MOL0     C86753   5.061   7.754   9.267 -0.1074  0.2595 -0.3421
  658MOL0     O86754   4.946   7.705   9.207  0.0048 -0.3594  1.1603
  658MOL0     C86755   4.824   7.704   9.270  0.6952  0.7708  0.2358
  658MOL0     C86756   4.778   7.763   9.389 -0.3463  0.6611 -0.6103
  658MOL0     C86757   4.639   7.758   9.423  0.0861  0.0947  0.0599
  658MOL0     C86758   4.542   7.692   9.336 -0.9603 -0.0785 -1.0212
  658MOL0     O86759   4.411   7.681   9.378  0.1649  0.1316 -0.2928
  658MOL0     C86760   4.358   7.546   9.363  0.3492  0.4034  0.0884
  658MOL0     C86761   4.231   7.552   9.463  0.1295  0.4085 -0.5033
  658MOL0     C86762   4.137   7.671   9.432 -0.5975  0.0333  0.0469
  658MOL0     C86763   3.997   7.667   9.495 -0.2401 -0.1344 -1.0775
  658MOL0     C86764   3.895   7.755   9.417 -0.3176  0.5062 -0.0652
  658MOL0     C86765   3.750   7.753   9.478  0.1789  0.1636  1.0689
  658MOL0     C86766   3.688   7.610   9.473  0.0772  0.7149  0.5774
  658MOL0     C86767   3.540   7.630   9.470  0.5637  0.4356 -0.6709
  658MOL0    Cl86768   3.472   7.722   9.611  0.3761 -0.0266  0.2578
  658MOL0     C86769   4.592   7.626   9.218  0.8893 -1.3571  0.1030
  658MOL0     C86770   4.728   7.640   9.184 -0.8792 -0.0534 -0.0617
  658MOL0     O86771   5.067   7.832   9.361 -0.0128  0.2031  0.2170
  658MOL0     C86772   5.311   7.779   9.199  0.0523  0.3735 -0.3098
  658MOL0     C86773   5.426   7.747   9.140 -0.1337 -0.5694  0.2762
  658MOL0     N86774   5.401   7.790   8.535 -0.0385 -0.6753  0.2120
  658MOL0     N86775   5.454   7.875   8.458  0.3447 -0.1394  0.1950
  658MOL0     C86776   5.470   8.420   7.320  0.2621 -0.5701  1.6770
  658MOL0     C86777   5.481   8.531   7.238 -0.0348 -0.0576  0.3291
  658MOL0     C86778   5.690   8.848   6.953 -0.1946  0.1860  0.7514
  658MOL0     C86779   5.787   8.948   6.937  0.2427  0.5518 -0.9121
  658MOL0     C86780   5.767   9.051   6.838 -0.1580  0.2405  0.3730
  658MOL0     C86781   5.666   9.037   6.747 -0.0154 -0.4589 -0.1306
  658MOL0     O86782   5.637   9.143   6.663 -0.3902 -0.1871 -0.0384
  658MOL0     C86783   5.574   9.107   6.538  0.1000 -1.0506 -0.3295
  658MOL0     C86784   5.624   9.210   6.428  0.1518  0.1798 -1.0914
  658MOL0     C86785   5.784   9.193   6.433 -0.4850 -0.3042  0.8562
  658MOL0     C86786   5.839   9.238   6.308 -0.0489 -0.3317 -0.1882
  658MOL0     C86787   5.819   9.375   6.276 -0.1011  0.3559  0.3997
  658MOL0     C86788   5.813   9.489   6.239  0.8447 -0.4473  0.3350
  658MOL0     C86789   5.576   8.933   6.754 -0.4727 -0.1203  0.5310
  658MOL0     C86790   5.587   8.847   6.860  0.4327  0.2434  0.4647
  658MOL0     H86791   5.791   8.478   7.119 -0.6669  1.1096  0.9724
  658MOL0     H86792   5.746   8.241   7.220  0.3438 -0.6700  0.7129
  658MOL0     H86793   5.400   8.177   7.534  0.3856 -0.1774  2.2525
  658MOL0     H86794   5.510   8.319   7.545 -2.9411  0.7605  1.3654
  658MOL0     H86795   5.703   8.173   7.606 -0.1127  0.6439  2.5842
  658MOL0     H86796   5.604   8.030   7.602 -0.0848  0.5109  1.2259
  658MOL0     H86797   5.457   8.098   7.788 -0.7496  2.5503  3.4788
  658MOL0     H86798   5.509   8.260   7.762  1.0798  1.4578 -0.7303
  658MOL0     H86799   5.664   8.022   7.879  1.2279  0.5451 -0.3550
  658MOL0     H86800   5.746   8.170   7.864  0.0292  0.6021  0.1543
  658MOL0     H86801   5.481   8.155   8.026 -0.7501  0.4755  2.4144
  658MOL0     H86802   5.605   8.272   8.038 -1.5783  0.3200  1.4614
  658MOL0     H86803   5.648   8.154   8.221  1.9929  0.4041  0.5615
  658MOL0     H86804   5.760   8.061   8.106 -0.0278 -3.0239  0.6853
  658MOL0     H86805   5.470   7.982   8.202 -1.1677 -0.2772 -3.9917
  658MOL0     H86806   5.562   7.907   8.079  1.8200  2.7538 -1.0295
  658MOL0     H86807   5.696   7.959   8.344 -0.1654  1.9278 -1.4455
  658MOL0     H86808   5.707   7.810   8.249  1.0896  0.8636  0.7679
  658MOL0     H86809   5.601   7.607   8.346 -1.4874  0.4681 -1.9531
  658MOL0     H86810   5.386   7.467   8.458 -1.5640  0.4222 -0.4754
  658MOL0     H86811   5.287   7.544   8.574 -0.9568  1.1763 -2.1852
  658MOL0     H86812   5.565   7.423   8.616 -1.6410 -1.5827 -0.5710
  658MOL0     H86813   5.419   7.383   8.705  1.0182 -0.9768 -0.1988
  658MOL0     H86814   5.572   7.660   8.729  2.2302 -1.4035  4.5652
  658MOL0     H86815   5.405   7.631   8.772 -1.4418 -2.8710 -1.9523
  658MOL0     H86816   5.666   7.501   8.880 -0.2678 -0.5368 -2.6980
  658MOL0     H86817   5.527   7.420   8.911 -0.2779  0.8687 -0.7256
  658MOL0     H86818   5.296   7.480   8.971  2.1818  1.2374 -0.6046
  658MOL0     H86819   5.097   7.533   9.121 -1.5583  2.1549  2.2267
  658MOL0     H86820   4.841   7.807   9.467 -1.2826 -1.3791  1.4141
  658MOL0     H86821   4.598   7.804   9.513  0.2787 -0.4374  0.4263
  658MOL0     H86822   4.425   7.467   9.397 -0.3774  0.0110  0.6381
  658MOL0     H86823   4.323   7.527   9.261  1.2027 -0.6380 -0.0290
  658MOL0     H86824   4.264   7.551   9.567  1.6481  0.3388 -0.9590
  658MOL0     H86825   4.173   7.459   9.461 -2.8777  2.1611 -0.3827
  658MOL0     H86826   4.123   7.662   9.324  0.9588 -1.1404 -0.0875
  658MOL0     H86827   4.177   7.770   9.454  2.0407 -1.1091  0.8073
  658MOL0     H86828   3.952   7.567   9.492 -0.2745 -0.1961  0.3986
  658MOL0     H86829   4.008   7.711   9.595 -1.0438  1.6958 -1.7341
  658MOL0     H86830   3.893   7.720   9.314 -3.7226 -1.5104  0.5449
  658MOL0     H86831   3.939   7.855   9.422  1.7685 -0.3174 -0.8174
  658MOL0     H86832   3.687   7.816   9.414  1.2378  2.0176  1.7882
  658MOL0     H86833   3.738   7.791   9.579  1.9819 -1.0696  1.7977
  658MOL0     H86834   3.717   7.548   9.389 -2.6575  0.8790 -0.5946
  658MOL0     H86835   3.713   7.558   9.566 -0.8618  1.6051  1.3599
  658MOL0     H86836   3.512   7.526   9.491  0.6250  0.6397  0.5094
  658MOL0     H86837   3.503   7.664   9.373 -1.7285 -0.6863 -0.2558
  658MOL0     H86838   4.523   7.583   9.145 -1.4331  1.5607  0.3684
  658MOL0     H86839   4.761   7.601   9.088  1.9354 -0.0144  0.8066
  658MOL0     H86840   5.313   7.869   9.260  1.6853 -0.5727  1.1121
  658MOL0     H86841   5.518   7.804   9.143 -0.2560 -0.3966  2.0135
  658MOL0     H86842   5.385   8.411   7.387 -0.0231 -1.0429  1.2538
  658MOL0     H86843   5.402   8.605   7.231 -3.0829 -3.1474 -1.0570
  658MOL0     H86844   5.864   8.964   7.012 -1.0052 -2.6774  1.2576
  658MOL0     H86845   5.834   9.135   6.857  1.7126 -0.9970 -0.4632
  658MOL0     H86846   5.468   9.122   6.560  0.6883  1.9715  0.9876
  658MOL0     H86847   5.606   9.010   6.500  1.4631 -0.0352 -1.9594
  658MOL0     H86848   5.588   9.171   6.333  3.2024 -2.4906 -1.3254
  658MOL0     H86849   5.579   9.305   6.459  2.2160  0.5991  0.9127
  658MOL0     H86850   5.809   9.090   6.459 -1.9427 -0.4743  1.6938
  658MOL0     H86851   5.830   9.254   6.510 -0.4439 -1.2913  1.6318
  658MOL0     H86852   5.946   9.215   6.311  0.5567  2.2090  2.9657
  658MOL0     H86853   5.795   9.176   6.229  0.8781 -2.4678  0.8674
  658MOL0     H86854   5.798   9.589   6.205 -2.4308 -0.3419  1.6697
  658MOL0     H86855   5.479   8.938   6.705  0.9448 -0.0948 -2.4921
  658MOL0     H86856   5.510   8.772   6.877  1.4632 -0.3984  2.7114
  659MOL0     O86857   2.898   2.257   8.940  0.0166 -0.3551  0.0135
  659MOL0     C86858   2.811   2.327   8.890  0.7118  0.9845 -0.0269
  659MOL0     O86859   2.787   2.451   8.928  1.6105 -0.3772  0.6748
  659MOL0     C86860   2.864   2.524   9.011 -0.1329 -0.1420 -0.3892
  659MOL0     C86861   3.002   2.538   8.999 -0.2973  0.2130 -0.4501
  659MOL0     C86862   3.069   2.617   9.085 -0.6035  0.5647 -0.2273
  659MOL0     C86863   3.006   2.683   9.179 -0.4286 -0.4708  0.2542
  659MOL0     O86864   3.073   2.763   9.264 -0.6131 -0.5834 -0.0108
  659MOL0     C86865   3.152   2.703   9.364 -1.0906 -0.1798 -0.0318
  659MOL0     C86866   3.256   2.801   9.430 -0.0419 -0.6040 -0.5783
  659MOL0     C86867   3.356   2.854   9.334 -0.6834 -0.5274  0.3793
  659MOL0     C86868   3.409   2.994   9.383 -0.2223  0.1935 -0.3012
  659MOL0     C86869   3.558   3.004   9.378  0.4200  0.1200  0.3830
  659MOL0     C86870   3.624   3.001   9.237  1.2047 -0.1898  0.2164
  659MOL0     C86871   3.778   3.014   9.254  0.4910  0.6135 -0.5211
  659MOL0     C86872   3.846   2.894   9.328 -0.4220 -0.5861  0.2548
  659MOL0     N86873   3.991   2.908   9.298  0.5242  0.4529  0.5337
  659MOL0     C86874   4.077   2.805   9.320  0.6550  0.8011 -1.2056
  659MOL0     C86875   4.195   2.861   9.345 -0.6481 -0.0511  0.3974
  659MOL0     C86876   4.332   2.800   9.372  0.2942  0.1051 -0.1797
  659MOL0     C86877   4.431   2.814   9.256  0.2325 -0.2372  0.1831
  659MOL0     C86878   4.499   2.948   9.282 -0.1297 -0.2382  1.0773
  659MOL0     C86879   4.600   2.954   9.390 -0.1338  0.2537 -0.4991
  659MOL0     O86880   4.716   2.890   9.335  0.5243 -0.3218 -0.1928
  659MOL0     C86881   4.799   2.815   9.416  0.2330  0.1728  0.2238
  659MOL0     C86882   4.874   2.718   9.347  0.2116  0.1073 -0.5178
  659MOL0     C86883   4.973   2.649   9.418 -0.4129 -0.5511  0.4058
  659MOL0     C86884   4.991   2.664   9.559  0.0169 -0.7246  0.8069
  659MOL0     C86885   5.084   2.582   9.630  0.7874 -0.0415  0.2530
  659MOL0     O86886   5.090   2.610   9.761  0.8697  0.6918 -0.6103
  659MOL0     C86887   5.185   2.535   9.832 -0.6032  1.3590  0.4596
  659MOL0     C86888   5.160   2.393   9.859  0.3579  0.0289  0.3887
  659MOL0     C86889   5.232   2.325   9.952  0.5673 -0.3532 -0.2658
  659MOL0     C86890   5.321   2.395  10.031  0.0886  0.8122 -0.6535
  659MOL0     O86891   5.382   2.331  10.143 -0.3325 -0.0727  0.3738
  659MOL0     C86892   5.459   2.219  10.121 -0.9733  0.0396 -1.2243
  659MOL0     C86893   5.564   2.241  10.016  0.6502 -1.1836  0.0323
  659MOL0     C86894   5.680   2.150  10.044 -0.2493  0.3939 -0.3787
  659MOL0     C86895   5.647   1.994  10.026  0.1530  0.4941 -0.8296
  659MOL0     C86896   5.743   1.905  10.109  0.7038  0.3906 -0.1341
  659MOL0     C86897   5.734   1.920  10.265 -0.9931 -0.3889 -0.1318
  659MOL0     C86898   5.765   1.794  10.346  0.9777  0.6515  0.7786
  659MOL0     C86899   5.754   1.809  10.504  0.2744 -0.6925  0.0680
  659MOL0    Cl86900   5.609   1.899  10.554 -0.5361  0.1864  0.5889
  659MOL0     C86901   5.350   2.526  10.005  0.7033  0.7237  1.1589
  659MOL0     C86902   5.286   2.594   9.909  0.7540 -0.3263  0.2527
  659MOL0     O86903   5.161   2.506   9.573  0.7206  0.2104  1.0907
  659MOL0     C86904   4.912   2.765   9.628  0.3664  0.3217  0.2424
  659MOL0     C86905   4.814   2.838   9.555  0.6228  0.0263  0.2332
  659MOL0     N86906   4.184   2.997   9.335  0.8187 -0.1719  0.3283
  659MOL0     N86907   4.061   3.021   9.310  0.3274 -0.3764 -0.3548
  659MOL0     C86908   2.867   2.676   9.199  0.9167 -0.3211 -0.8929
  659MOL0     C86909   2.794   2.588   9.119  0.7876  0.5224 -0.1196
  659MOL0     C86910   2.706   2.256   8.811 -0.1055  0.0576  0.3167
  659MOL0     C86911   2.582   2.323   8.781 -0.5688 -0.2479  0.3557
  659MOL0     C86912   2.491   2.273   8.689  0.0771 -0.2720  0.8041
  659MOL0     C86913   2.515   2.147   8.632  0.1979 -0.4376 -0.3604
  659MOL0     O86914   2.428   2.084   8.542 -0.0554 -0.4228 -0.1263
  659MOL0     C86915   2.338   2.181   8.477  0.2028 -0.2889 -0.2678
  659MOL0     C86916   2.284   2.120   8.343 -0.2608  0.7734  0.4983
  659MOL0     C86917   2.213   2.225   8.257 -0.1196  1.2946 -0.7857
  659MOL0     C86918   2.082   2.277   8.321  0.5987  0.4293 -0.2061
  659MOL0     C86919   1.992   2.165   8.362 -1.1919  0.2815  0.7867
  659MOL0     C86920   1.931   2.069   8.390 -0.0411 -0.8622  0.2929
  659MOL0     C86921   2.636   2.081   8.668  0.1240  0.9471  0.6674
  659MOL0     C86922   2.731   2.134   8.751 -0.0763 -0.7996  1.1253
  659MOL0     H86923   3.051   2.477   8.924 -1.2402 -1.5001  0.2657
  659MOL0     H86924   3.177   2.623   9.086 -0.3330 -2.1932  2.6140
  659MOL0     H86925   3.202   2.619   9.315  1.1619  1.2461 -0.3400
  659MOL0     H86926   3.092   2.677   9.451 -1.0242  1.3592  0.5181
  659MOL0     H86927   3.307   2.762   9.519  0.7592  1.6609  0.0090
  659MOL0     H86928   3.195   2.884   9.466  3.3057  1.8691 -0.0940
  659MOL0     H86929   3.311   2.870   9.236 -2.6294  1.1214  1.4781
  659MOL0     H86930   3.439   2.784   9.320  0.3812  0.2999  2.1788
  659MOL0     H86931   3.379   3.065   9.306 -0.1153 -0.4109 -0.9072
  659MOL0     H86932   3.373   3.030   9.480 -2.0795  0.2319 -0.9587
  659MOL0     H86933   3.608   2.933   9.445 -0.0558 -0.9936 -0.4267
  659MOL0     H86934   3.566   3.103   9.424  0.5681 -0.0354  0.7017
  659MOL0     H86935   3.591   3.096   9.192  2.2376  1.2949  2.4155
  659MOL0     H86936   3.606   2.916   9.171  2.6283 -1.0147  0.8511
  659MOL0     H86937   3.828   3.033   9.159 -0.3172 -0.6207 -1.2205
  659MOL0     H86938   3.799   3.106   9.309  1.6074  0.1977 -0.2279
  659MOL0     H86939   3.795   2.803   9.296 -3.6052  0.9121  0.6841
  659MOL0     H86940   3.828   2.920   9.433  0.7489 -1.4821  0.6960
  659MOL0     H86941   4.035   2.706   9.332 -1.5694  1.8815  0.5031
  659MOL0     H86942   4.303   2.695   9.376 -1.2923  0.5419  1.7561
  659MOL0     H86943   4.361   2.827   9.474 -2.7689 -0.4246  0.9516
  659MOL0     H86944   4.378   2.831   9.162 -1.2676  1.6632  1.2781
  659MOL0     H86945   4.509   2.739   9.244  1.9688  1.5989 -0.4244
  659MOL0     H86946   4.549   2.974   9.188  1.0333  1.0505  2.0256
  659MOL0     H86947   4.431   3.031   9.302  0.4120  1.0627 -1.9530
  659MOL0     H86948   4.554   2.914   9.480 -0.4175  1.0476 -0.2804
  659MOL0     H86949   4.625   3.059   9.407 -0.7519  0.3529 -0.1970
  659MOL0     H86950   4.870   2.716   9.238  0.6954 -2.2112 -0.5364
  659MOL0     H86951   5.035   2.575   9.369 -1.1829 -0.4296 -0.7729
  659MOL0     H86952   5.087   2.346   9.794  1.9987  1.0585 -2.4234
  659MOL0     H86953   5.217   2.218   9.963  0.4957 -0.3015  0.1435
  659MOL0     H86954   5.398   2.130  10.105 -1.3999 -0.4564  2.4124
  659MOL0     H86955   5.496   2.203  10.222 -2.1433 -0.6689 -0.8873
  659MOL0     H86956   5.601   2.344  10.024  0.4906 -1.2780  4.5886
  659MOL0     H86957   5.525   2.223   9.916 -1.4525  0.4193  0.4781
  659MOL0     H86958   5.718   2.152  10.146 -0.0898 -0.7180 -0.4098
  659MOL0     H86959   5.772   2.166   9.987  1.0748  0.0755  1.5697
  659MOL0     H86960   5.547   1.970  10.062  1.2277 -3.4608  0.0215
  659MOL0     H86961   5.636   1.959   9.923 -2.8640 -2.4018  0.3144
  659MOL0     H86962   5.851   1.909  10.090  1.1821 -3.2302  1.0387
  659MOL0     H86963   5.699   1.806  10.095  0.9266  0.3090 -0.2736
  659MOL0     H86964   5.630   1.950  10.280 -1.3526  0.3666 -3.4067
  659MOL0     H86965   5.802   1.996  10.306 -1.6741  1.1096 -1.6446
  659MOL0     H86966   5.717   1.709  10.296  1.2102  1.4663 -0.9020
  659MOL0     H86967   5.873   1.782  10.333  0.9995  0.6433  0.9660
  659MOL0     H86968   5.840   1.861  10.546  1.5039 -2.6811  0.1450
  659MOL0     H86969   5.753   1.711  10.552  0.3109 -1.0253 -0.5877
  659MOL0     H86970   5.433   2.574  10.056 -0.4959 -0.4290  4.4732
  659MOL0     H86971   5.308   2.698   9.886 -0.8873 -0.2126 -0.9889
  659MOL0     H86972   4.924   2.781   9.735  1.9022 -1.9563  0.4991
  659MOL0     H86973   4.761   2.921   9.601  0.3637  1.7567 -2.9008
  659MOL0     H86974   2.828   2.745   9.273  0.2028 -1.7117  0.0723
  659MOL0     H86975   2.686   2.582   9.130  0.9231  0.7699  1.7639
  659MOL0     H86976   2.544   2.411   8.832 -1.5040 -1.1344  1.2504
  659MOL0     H86977   2.410   2.339   8.661 -0.3536 -1.2103 -0.2796
  659MOL0     H86978   2.394   2.267   8.438 -1.6935  0.2737 -1.9178
  659MOL0     H86979   2.262   2.218   8.546  1.0001 -3.9656  2.8772
  659MOL0     H86980   2.368   2.090   8.280 -0.7608 -0.7832  0.5311
  659MOL0     H86981   2.226   2.030   8.366  0.7217  0.7344  3.2311
  659MOL0     H86982   2.191   2.171   8.165  1.3755 -3.7087  1.4539
  659MOL0     H86983   2.284   2.309   8.248  2.8847 -0.6259  2.3892
  659MOL0     H86984   2.087   2.328   8.417 -1.4642 -2.2616  1.5104
  659MOL0     H86985   2.019   2.344   8.261 -0.3098  1.5441  1.8984
  659MOL0     H86986   1.872   1.981   8.408 -0.9815 -0.4486 -0.6450
  659MOL0     H86987   2.656   1.980   8.632 -0.2998  0.2681  2.2357
  659MOL0     H86988   2.822   2.076   8.763  1.8616  1.7484 -0.1045
  660MOL0     O86989   8.072   6.751   7.139 -0.9697 -0.5596 -0.4540
  660MOL0     C86990   7.978   6.824   7.117  0.7298 -0.3080  0.2089
  660MOL0     O86991   7.975   6.916   7.022 -0.2082  0.4837  0.3933
  660MOL0     C86992   7.955   6.871   6.890 -0.4952 -0.3653 -0.0145
  660MOL0     C86993   7.941   6.743   6.841 -0.5474 -0.6045 -0.0830
  660MOL0     C86994   7.937   6.729   6.697 -1.0608  0.4037 -1.9857
  660MOL0     C86995   7.932   6.836   6.620 -0.7040  0.4946  0.2843
  660MOL0     O86996   7.929   6.809   6.482  0.3125 -0.8120 -1.2457
  660MOL0     C86997   7.941   6.911   6.390  0.0325  0.7238 -0.5932
  660MOL0     C86998   7.934   6.869   6.247 -0.2966 -0.2805 -0.2623
  660MOL0     C86999   7.940   6.978   6.146 -0.4882 -0.8367 -1.4113
  660MOL0     C87000   7.912   6.931   6.000 -0.0119 -0.7010  0.0460
  660MOL0     C87001   8.042   6.906   5.927  1.0964  0.0460 -0.3669
  660MOL0     C87002   8.011   6.827   5.810  0.1696  0.5603 -0.2638
  660MOL0     C87003   8.132   6.765   5.720 -0.3590  1.1605 -0.6190
  660MOL0     C87004   8.224   6.677   5.813  0.0064 -0.3981  0.5097
  660MOL0     N87005   8.156   6.568   5.895 -0.2144  0.4436 -0.4212
  660MOL0     C87006   8.100   6.579   6.019 -1.0386  0.1879 -0.1580
  660MOL0     C87007   8.044   6.465   6.049  0.5333 -0.6727 -0.0097
  660MOL0     C87008   7.976   6.422   6.176 -0.0103  0.3658  0.0128
  660MOL0     C87009   8.083   6.391   6.276  0.3270  0.1492 -0.4568
  660MOL0     C87010   8.058   6.266   6.358 -0.1840  0.4613 -0.5532
  660MOL0     C87011   8.169   6.265   6.461  0.4168 -0.3729 -0.4307
  660MOL0     O87012   8.146   6.352   6.566 -0.0669  0.3568  0.1413
  660MOL0     C87013   8.094   6.320   6.689  0.2763  0.0866 -0.3145
  660MOL0     C87014   8.033   6.200   6.720  0.2897 -0.2696 -0.3409
  660MOL0     C87015   7.989   6.181   6.852 -0.0793 -0.3181  0.1147
  660MOL0     C87016   7.989   6.285   6.951  0.3840  0.2389  0.4532
  660MOL0     C87017   7.914   6.275   7.078  0.4203  0.5741 -0.3174
  660MOL0     O87018   7.913   6.379   7.163 -0.3218 -0.6339 -0.5644
  660MOL0     C87019   7.840   6.372   7.279  0.6712 -1.2099  0.5229
  660MOL0     C87020   7.692   6.364   7.267  0.3984  0.6837 -0.8468
  660MOL0     C87021   7.624   6.334   7.386  0.2085  0.5490 -0.0353
  660MOL0     C87022   7.676   6.319   7.518 -0.1021 -0.0881 -0.1808
  660MOL0     O87023   7.597   6.282   7.632 -0.3373  0.0213  0.3463
  660MOL0     C87024   7.659   6.299   7.753 -0.7169  0.0260 -0.8350
  660MOL0     C87025   7.553   6.289   7.867 -0.3950 -0.3829  0.2574
  660MOL0     C87026   7.602   6.223   7.995  0.4325  0.7526 -1.0680
  660MOL0     C87027   7.514   6.270   8.107 -0.2142 -0.6425 -0.0044
  660MOL0     C87028   7.525   6.416   8.151 -0.7499 -0.3760 -0.7735
  660MOL0     C87029   7.670   6.454   8.196 -0.9643  0.1092 -0.2583
  660MOL0     C87030   7.675   6.578   8.287  0.7096 -0.0677 -0.2417
  660MOL0     C87031   7.810   6.636   8.332  0.0618 -0.1427  0.8459
  660MOL0    Cl87032   7.905   6.505   8.391  0.4000  0.3484  0.4904
  660MOL0     C87033   7.818   6.325   7.523 -0.0329  0.3548 -0.5202
  660MOL0     C87034   7.900   6.352   7.410  0.1917 -0.7629 -0.0829
  660MOL0     O87035   7.865   6.164   7.097  0.3673 -0.5316 -0.7107
  660MOL0     C87036   8.057   6.398   6.916 -0.1330 -0.2760 -0.5180
  660MOL0     C87037   8.104   6.418   6.789  0.6470  0.3047  0.1528
  660MOL0     N87038   8.057   6.386   5.936 -1.4079  0.4968  0.0329
  660MOL0     N87039   8.118   6.450   5.843 -0.4289 -0.2678  0.8362
  660MOL0     C87040   7.945   6.965   6.673 -0.5964  0.7802 -0.3539
  660MOL0     C87041   7.960   6.981   6.807  0.8296  0.0041 -0.1684
  660MOL0     C87042   7.853   6.804   7.199  1.0548 -0.4864 -0.6417
  660MOL0     C87043   7.723   6.829   7.144 -0.3365  0.4560  0.3050
  660MOL0     C87044   7.602   6.792   7.216  0.5894  0.3299  0.5722
  660MOL0     C87045   7.618   6.726   7.340 -0.6226 -0.0269  0.2068
  660MOL0     O87046   7.511   6.688   7.416  0.0494  0.1043  0.0766
  660MOL0     C87047   7.378   6.739   7.400  0.0348 -0.6725  0.2442
  660MOL0     C87048   7.361   6.895   7.445  1.1297 -0.3137 -1.2993
  660MOL0     C87049   7.354   6.917   7.603  0.1315 -0.2582  0.3326
  660MOL0     C87050   7.438   6.811   7.684 -0.7594 -0.4825 -0.2962
  660MOL0     C87051   7.466   6.870   7.817  0.1991 -0.5898 -0.0498
  660MOL0     C87052   7.515   6.917   7.917 -0.6655  0.2503  0.0857
  660MOL0     C87053   7.740   6.683   7.384  0.2988 -0.7439 -0.0088
  660MOL0     C87054   7.855   6.727   7.317  0.5051  0.2086 -0.1770
  660MOL0     H87055   7.941   6.663   6.914 -1.4309  0.5162  1.1883
  660MOL0     H87056   7.927   6.629   6.656 -1.4942 -0.3236 -0.1950
  660MOL0     H87057   8.034   6.968   6.401 -0.7018  1.7348  0.6668
  660MOL0     H87058   7.857   6.979   6.408 -2.0891 -1.8231 -0.2616
  660MOL0     H87059   7.848   6.803   6.236  1.2724 -2.1336 -2.5722
  660MOL0     H87060   8.023   6.806   6.232 -1.0608 -1.0769 -1.6551
  660MOL0     H87061   8.040   7.020   6.158  0.0291 -2.1567 -0.8957
  660MOL0     H87062   7.867   7.053   6.176 -2.2314 -3.1928  0.6505
  660MOL0     H87063   7.841   6.848   6.001 -1.7615  0.7228  1.6903
  660MOL0     H87064   7.861   7.010   5.945 -0.0948 -0.9116 -0.1804
  660MOL0     H87065   8.098   6.839   5.993  2.8650  2.2509  0.4948
  660MOL0     H87066   8.101   6.995   5.903  0.7470  0.7061  1.1141
  660MOL0     H87067   7.951   6.891   5.744 -1.2803  0.4515  0.8994
  660MOL0     H87068   7.954   6.739   5.840 -0.3377  1.8391  2.9527
  660MOL0     H87069   8.081   6.710   5.640 -4.5779  0.4801  2.2133
  660MOL0     H87070   8.189   6.839   5.663  0.0915 -0.1536 -1.9587
  660MOL0     H87071   8.265   6.745   5.889 -0.8582 -0.6734  1.2498
  660MOL0     H87072   8.305   6.622   5.764 -0.1725  1.8027 -2.5772
  660MOL0     H87073   8.118   6.667   6.080  2.0769  2.1917 -3.4979
  660MOL0     H87074   7.926   6.326   6.161  0.4199 -0.0262  0.9391
  660MOL0     H87075   7.903   6.487   6.224 -3.4665 -3.8627  1.1698
  660MOL0     H87076   8.094   6.471   6.349  0.1054  0.8083 -1.1296
  660MOL0     H87077   8.180   6.399   6.226  0.2319  1.0920 -0.5176
  660MOL0     H87078   7.953   6.272   6.388 -0.4714 -0.2852 -1.3863
  660MOL0     H87079   8.064   6.175   6.298  0.1793 -1.9598  2.8093
  660MOL0     H87080   8.264   6.286   6.411  0.1125 -0.6078 -1.1201
  660MOL0     H87081   8.179   6.162   6.496  0.3054 -0.3758 -0.4061
  660MOL0     H87082   8.009   6.118   6.653 -1.6810 -0.7676  0.8880
  660MOL0     H87083   7.944   6.085   6.875 -0.1539 -0.1747  0.5727
  660MOL0     H87084   7.651   6.350   7.168  2.9072 -0.3537 -1.8344
  660MOL0     H87085   7.518   6.318   7.371  0.0891  1.5343 -0.3525
  660MOL0     H87086   7.706   6.398   7.752  0.0379 -0.3124 -0.2739
  660MOL0     H87087   7.734   6.219   7.759  0.4681  1.1691  0.0487
  660MOL0     H87088   7.456   6.251   7.834 -1.0739  2.5835 -1.6195
  660MOL0     H87089   7.537   6.397   7.874  3.6526  0.4753 -1.1567
  660MOL0     H87090   7.700   6.256   8.030 -1.2179  1.9277  3.1447
  660MOL0     H87091   7.601   6.114   7.985 -1.3450  0.6673 -0.3591
  660MOL0     H87092   7.408   6.253   8.083 -0.4857 -0.6108  1.1246
  660MOL0     H87093   7.542   6.194   8.180  2.5007 -1.0321 -1.3423
  660MOL0     H87094   7.451   6.439   8.228  0.8944 -0.2438  0.8150
  660MOL0     H87095   7.504   6.489   8.072 -0.6501  0.5434  0.0336
  660MOL0     H87096   7.713   6.456   8.096 -2.2196 -2.9501 -0.9838
  660MOL0     H87097   7.725   6.377   8.251 -0.4345  1.1282  0.6710
  660MOL0     H87098   7.629   6.666   8.241  3.6178  2.3187  1.1168
  660MOL0     H87099   7.614   6.552   8.373 -1.4651 -1.0428 -1.9706
  660MOL0     H87100   7.792   6.714   8.406 -1.6385 -0.3073  0.6302
  660MOL0     H87101   7.856   6.676   8.241 -1.3996 -0.5304 -0.0873
  660MOL0     H87102   7.861   6.295   7.619  1.6969 -0.0449 -1.3798
  660MOL0     H87103   8.007   6.345   7.427 -0.1674 -1.0472  2.5881
  660MOL0     H87104   8.060   6.479   6.988 -4.9116  0.8019 -1.1725
  660MOL0     H87105   8.149   6.516   6.774  1.4177  0.3525  2.3358
  660MOL0     H87106   7.963   7.048   6.605 -1.3931 -0.3233 -1.9781
  660MOL0     H87107   7.978   7.076   6.856  2.6893 -1.7388  2.8399
  660MOL0     H87108   7.706   6.880   7.050 -2.7673 -0.0339  0.3970
  660MOL0     H87109   7.513   6.833   7.169 -0.3641  1.0092  2.8815
  660MOL0     H87110   7.302   6.690   7.461  0.4212 -2.2132 -0.4852
  660MOL0     H87111   7.348   6.743   7.295 -0.5263  2.4013  0.4045
  660MOL0     H87112   7.446   6.949   7.402  0.5525  1.2942 -0.4956
  660MOL0     H87113   7.274   6.944   7.400  1.4479  1.3625 -0.1846
  660MOL0     H87114   7.249   6.894   7.627 -0.3931 -0.3968 -1.8422
  660MOL0     H87115   7.376   7.023   7.618 -1.7130 -0.0211  1.7933
  660MOL0     H87116   7.377   6.722   7.703 -0.7939 -0.0549  1.8605
  660MOL0     H87117   7.530   6.775   7.638 -0.8819 -3.0891  1.2864
  660MOL0     H87118   7.575   6.957   7.997 -1.5082  2.8905 -0.5045
  660MOL0     H87119   7.750   6.611   7.465  1.7471 -1.9608 -1.2196
  660MOL0     H87120   7.946   6.675   7.347 -1.0933 -2.2510  0.7325
  661MOL0     O87121   3.118   5.611   4.057  0.2153 -0.8543 -0.0391
  661MOL0     C87122   3.178   5.502   4.070  0.6843  0.9029 -0.3577
  661MOL0     O87123   3.249   5.455   4.183 -0.2611  0.2453 -0.6268
  661MOL0     C87124   3.255   5.548   4.292  0.1034  0.2586  0.7014
  661MOL0     C87125   3.194   5.526   4.424 -0.6757 -0.1358  0.3513
  661MOL0     C87126   3.234   5.609   4.527 -0.2074  0.1640  1.4667
  661MOL0     C87127   3.326   5.704   4.511 -0.0165 -1.1430 -0.7127
  661MOL0     O87128   3.380   5.778   4.612  0.6864  0.4012 -0.1770
  661MOL0     C87129   3.393   5.715   4.735  0.0016  0.2352 -0.9689
  661MOL0     C87130   3.426   5.819   4.839  0.6778  0.4004 -0.6737
  661MOL0     C87131   3.326   5.930   4.846 -0.4172 -0.0741 -0.1564
  661MOL0     C87132   3.178   5.888   4.839  0.1726  0.1438 -0.3690
  661MOL0     C87133   3.083   6.001   4.862  0.2187  0.5389  0.0249
  661MOL0     C87134   2.932   5.953   4.859 -0.2504  0.5306 -0.2419
  661MOL0     C87135   2.840   6.072   4.837  0.1973  0.6566  0.2027
  661MOL0     C87136   2.695   6.027   4.802  0.6543 -0.5607 -0.7640
  661MOL0     N87137   2.627   5.981   4.927  0.3050  0.1819 -0.5031
  661MOL0     C87138   2.530   6.057   4.981  0.1077 -0.0236 -0.7180
  661MOL0     C87139   2.470   5.970   5.070 -1.4155 -0.1055 -0.5306
  661MOL0     C87140   2.361   6.016   5.166 -0.0962  0.3858  0.3436
  661MOL0     C87141   2.284   5.900   5.233 -0.1247  0.1653  0.0733
  661MOL0     C87142   2.167   5.852   5.145  0.0631  0.9774  1.1066
  661MOL0     C87143   2.191   5.804   5.003 -0.6742  0.5695  0.3441
  661MOL0     O87144   2.107   5.702   4.949  1.5203 -0.0869 -0.1763
  661MOL0     C87145   2.149   5.652   4.827  0.9367 -1.0724 -0.4610
  661MOL0     C87146   2.277   5.658   4.760 -0.4067 -0.4734 -0.0708
  661MOL0     C87147   2.306   5.573   4.649  1.1548  0.0406  0.2108
  661MOL0     C87148   2.200   5.504   4.583  0.1965  0.3919  0.3876
  661MOL0     C87149   2.229   5.431   4.465 -1.0767  0.9249  1.3338
  661MOL0     O87150   2.131   5.416   4.371 -0.2965 -0.3246  0.2454
  661MOL0     C87151   2.170   5.351   4.251 -0.1367 -0.5533 -0.0522
  661MOL0     C87152   2.224   5.428   4.146 -0.1625  0.0132 -0.3749
  661MOL0     C87153   2.255   5.356   4.026 -0.3979 -1.0565  0.5432
  661MOL0     C87154   2.232   5.223   4.007 -0.3119  0.4407 -0.1910
  661MOL0     O87155   2.295   5.148   3.909  1.5319  0.6959  0.5352
  661MOL0     C87156   2.244   5.186   3.776 -0.4698 -0.2585  0.1390
  661MOL0     C87157   2.331   5.131   3.661 -0.2623 -0.0441  0.2575
  661MOL0     C87158   2.450   5.228   3.645  0.7047 -0.3754 -0.8044
  661MOL0     C87159   2.514   5.210   3.509 -0.0963  0.4442  0.8137
  661MOL0     C87160   2.637   5.303   3.497  0.5528 -0.6999  1.2701
  661MOL0     C87161   2.684   5.329   3.353 -1.1040 -0.1260  1.1789
  661MOL0     C87162   2.741   5.199   3.288 -0.3052 -0.2514  0.5182
  661MOL0     C87163   2.816   5.215   3.154  0.4300 -0.5562 -0.2265
  661MOL0    Cl87164   2.914   5.071   3.141 -0.0067  0.1087  0.4092
  661MOL0     C87165   2.177   5.151   4.115 -1.1227  0.5549 -0.4811
  661MOL0     C87166   2.140   5.215   4.239 -0.1316 -0.0485  0.1857
  661MOL0     O87167   2.339   5.379   4.449 -0.3743  0.3030 -0.1437
  661MOL0     C87168   2.072   5.505   4.643 -0.1653 -0.4842  0.2179
  661MOL0     C87169   2.054   5.569   4.765 -0.3034 -0.0045  0.0605
  661MOL0     N87170   2.544   5.852   5.068  0.6547 -0.0031  0.2007
  661MOL0     N87171   2.640   5.867   4.987  0.3962 -0.0788 -0.9015
  661MOL0     C87172   3.376   5.729   4.377 -0.0468 -0.0425 -0.7185
  661MOL0     C87173   3.342   5.651   4.272 -0.5458 -0.5409  0.6206
  661MOL0     C87174   3.170   5.410   3.951  1.1270  0.0143 -0.6167
  661MOL0     C87175   3.250   5.297   3.948  1.1971 -0.4737 -0.5396
  661MOL0     C87176   3.259   5.220   3.826  0.2984  0.5151 -0.8455
  661MOL0     C87177   3.168   5.246   3.717 -0.0887  0.3857 -0.2507
  661MOL0     O87178   3.174   5.158   3.607 -0.5274 -0.8566  0.7088
  661MOL0     C87179   3.079   5.166   3.498 -0.3651  0.3360  0.5536
  661MOL0     C87180   3.112   5.274   3.387 -0.3809 -0.1112 -0.6529
  661MOL0     C87181   3.257   5.296   3.359  0.0613 -0.7719 -0.5077
  661MOL0     C87182   3.285   5.376   3.239  0.2240 -0.5702  0.3179
  661MOL0     C87183   3.247   5.527   3.251  0.8393  0.7263  0.1940
  661MOL0     C87184   3.223   5.644   3.255  0.1445  0.0339  1.0317
  661MOL0     C87185   3.096   5.362   3.724  0.9961  0.1205  0.3684
  661MOL0     C87186   3.088   5.442   3.837 -0.7885  0.2535 -0.7790
  661MOL0     H87187   3.127   5.442   4.440 -0.1609 -1.1027 -2.0689
  661MOL0     H87188   3.184   5.593   4.622 -1.8263 -3.6633  0.1530
  661MOL0     H87189   3.459   5.628   4.728 -0.0120  0.1761 -0.4237
  661MOL0     H87190   3.299   5.668   4.765  1.8173 -3.6546 -0.7098
  661MOL0     H87191   3.531   5.844   4.822  1.1701 -0.0388  1.5011
  661MOL0     H87192   3.435   5.785   4.942  0.3478  2.7135  0.1911
  661MOL0     H87193   3.345   6.004   4.768 -3.3344 -0.5101 -1.4150
  661MOL0     H87194   3.339   5.987   4.938  0.1179 -0.2176 -0.1354
  661MOL0     H87195   3.146   5.852   4.741 -0.9021  1.0381 -0.3638
  661MOL0     H87196   3.161   5.813   4.917  2.9379  0.2389  0.4406
  661MOL0     H87197   3.091   6.068   4.777 -0.3246 -0.4498 -0.8282
  661MOL0     H87198   3.104   6.057   4.954 -0.7578 -0.1512  0.6908
  661MOL0     H87199   2.911   5.896   4.950 -0.5111 -0.3172 -0.8247
  661MOL0     H87200   2.912   5.887   4.774 -0.6827 -0.6059  0.7164
  661MOL0     H87201   2.832   6.147   4.917 -0.1323  1.5747 -0.6699
  661MOL0     H87202   2.884   6.123   4.751 -0.5946 -2.0705 -1.9515
  661MOL0     H87203   2.685   5.944   4.732 -2.8459 -1.5636  0.7202
  661MOL0     H87204   2.637   6.108   4.759 -1.8215 -1.2303  1.1164
  661MOL0     H87205   2.488   6.153   4.953  2.4195  0.9197 -1.1861
  661MOL0     H87206   2.298   6.090   5.115  2.6423  2.1967 -0.6677
  661MOL0     H87207   2.403   6.084   5.241 -0.2857 -0.5922  1.3601
  661MOL0     H87208   2.250   5.931   5.332 -0.8403  1.4036 -0.5442
  661MOL0     H87209   2.342   5.811   5.259 -1.1435 -0.8271 -0.9240
  661MOL0     H87210   2.117   5.763   5.182  3.0998 -0.1859  2.7944
  661MOL0     H87211   2.100   5.938   5.146 -0.7595  0.3288  2.1407
  661MOL0     H87212   2.291   5.759   5.007 -2.1072 -2.8839  1.0938
  661MOL0     H87213   2.202   5.887   4.933 -1.6077  1.3871  1.1346
  661MOL0     H87214   2.357   5.716   4.805  0.6198 -1.8385 -0.0825
  661MOL0     H87215   2.398   5.565   4.593  0.6159 -1.6384 -0.5287
  661MOL0     H87216   2.246   5.534   4.156 -0.5347 -0.0824  2.1080
  661MOL0     H87217   2.304   5.401   3.940  0.5505 -0.9685  1.1110
  661MOL0     H87218   2.233   5.295   3.773 -0.3846 -0.2310  0.7350
  661MOL0     H87219   2.143   5.155   3.748 -0.3006  1.4499 -2.7363
  661MOL0     H87220   2.279   5.114   3.566  1.3130 -1.8093 -0.3662
  661MOL0     H87221   2.367   5.032   3.689  0.3654 -0.8735 -3.0552
  661MOL0     H87222   2.514   5.203   3.730 -1.8304 -1.2822  0.9565
  661MOL0     H87223   2.410   5.330   3.655  1.1330 -0.2791  0.0571
  661MOL0     H87224   2.546   5.105   3.509 -0.6613  0.2618 -0.3791
  661MOL0     H87225   2.451   5.231   3.422  1.3680 -1.4659 -0.8128
  661MOL0     H87226   2.726   5.271   3.551  2.0157  3.1454  1.4690
  661MOL0     H87227   2.594   5.397   3.533  0.0890 -0.8159  1.0253
  661MOL0     H87228   2.767   5.400   3.357 -0.3668 -0.8807 -0.0299
  661MOL0     H87229   2.604   5.366   3.288  0.7984  0.6166 -0.8717
  661MOL0     H87230   2.819   5.180   3.362  0.0960  2.4914  0.9069
  661MOL0     H87231   2.653   5.133   3.286 -3.0157  2.9352  2.4558
  661MOL0     H87232   2.897   5.288   3.156 -0.2924  0.2711 -0.6754
  661MOL0     H87233   2.756   5.245   3.067  2.7317  3.4365 -0.6823
  661MOL0     H87234   2.165   5.046   4.093  1.8811 -0.1400  0.6889
  661MOL0     H87235   2.100   5.164   4.326  2.8551 -0.1018  1.6524
  661MOL0     H87236   1.992   5.440   4.605  0.3768 -1.3673  0.5511
  661MOL0     H87237   1.969   5.540   4.826  0.3201  0.6990  1.2906
  661MOL0     H87238   3.452   5.807   4.376 -0.2189  0.2081  1.4347
  661MOL0     H87239   3.387   5.671   4.175  0.2122  0.6718  1.1936
  661MOL0     H87240   3.317   5.260   4.024  0.2707  1.8721  1.5551
  661MOL0     H87241   3.335   5.144   3.809 -1.0265 -1.6135  1.9300
  661MOL0     H87242   2.982   5.186   3.545  0.4240  2.3714  1.4444
  661MOL0     H87243   3.071   5.066   3.456 -0.5504  0.1180  1.0969
  661MOL0     H87244   3.058   5.253   3.294 -2.0406 -0.2235  0.2944
  661MOL0     H87245   3.083   5.371   3.429  0.0683  0.7683 -2.2566
  661MOL0     H87246   3.309   5.200   3.348  0.8890 -0.3664 -0.2463
  661MOL0     H87247   3.292   5.351   3.448 -2.0256  2.2411 -1.3828
  661MOL0     H87248   3.390   5.373   3.207  0.4646  0.8790  0.8878
  661MOL0     H87249   3.228   5.332   3.157 -0.0106 -0.0097  0.1739
  661MOL0     H87250   3.196   5.748   3.261  0.3645  0.2656 -1.0515
  661MOL0     H87251   3.031   5.393   3.643 -1.0656  2.0923  2.6307
  661MOL0     H87252   3.024   5.530   3.841 -3.0292 -1.2053 -2.0616
  662MOL0     O87253   5.784   5.905   8.638 -0.4167  0.2398 -0.1986
  662MOL0     C87254   5.772   5.794   8.695 -0.0172 -0.4653  0.0396
  662MOL0     O87255   5.676   5.701   8.669  0.1300 -0.2384 -0.0284
  662MOL0     C87256   5.577   5.716   8.575 -0.1606 -0.2928 -0.2038
  662MOL0     C87257   5.523   5.594   8.534 -0.5795 -0.4688 -0.1889
  662MOL0     C87258   5.425   5.587   8.444  0.6615 -0.2011  0.7243
  662MOL0     C87259   5.352   5.703   8.394  0.0907  0.3727 -0.2061
  662MOL0     O87260   5.242   5.686   8.314 -0.3237 -0.0610 -0.0546
  662MOL0     C87261   5.273   5.604   8.198 -0.2096 -0.1594  0.2491
  662MOL0     C87262   5.179   5.635   8.086  0.3066 -0.4419  0.1564
  662MOL0     C87263   5.030   5.605   8.112  0.1026  0.2060 -0.0891
  662MOL0     C87264   4.960   5.614   7.979 -1.4069  0.5761  0.4456
  662MOL0     C87265   4.950   5.757   7.929 -0.2808  0.0771 -0.2377
  662MOL0     C87266   4.836   5.790   7.830  0.1708  0.2317 -0.0125
  662MOL0     C87267   4.688   5.788   7.885 -0.7267  0.3897 -0.1807
  662MOL0     C87268   4.610   5.840   7.768  0.3533  0.0166  0.1151
  662MOL0     N87269   4.466   5.841   7.796  0.5938 -0.0365  0.0882
  662MOL0     C87270   4.404   5.935   7.871  0.6392 -1.4534  0.9047
  662MOL0     C87271   4.283   5.878   7.905 -0.3295 -0.4141  0.3487
  662MOL0     C87272   4.175   5.912   7.992 -0.0288 -0.3497  0.1270
  662MOL0     C87273   4.082   6.023   7.938  0.4396 -0.0433 -0.1693
  662MOL0     C87274   4.159   6.157   7.937  0.1940  0.4230 -0.1211
  662MOL0     C87275   4.187   6.213   8.075  1.1515  0.3870 -0.2604
  662MOL0     O87276   4.083   6.295   8.128 -0.6592 -0.2362 -0.8852
  662MOL0     C87277   3.976   6.234   8.197 -0.3240 -0.6337  0.4412
  662MOL0     C87278   3.856   6.310   8.194 -0.2643 -0.2446  0.2449
  662MOL0     C87279   3.748   6.264   8.259  0.1953 -0.4014  0.8982
  662MOL0     C87280   3.745   6.141   8.330  0.3934  0.8556  0.0696
  662MOL0     C87281   3.625   6.098   8.411  0.0237 -1.1533  0.5656
  662MOL0     O87282   3.503   6.157   8.373  0.6408  0.8913 -0.9878
  662MOL0     C87283   3.379   6.144   8.441  0.1759 -0.7127 -0.1319
  662MOL0     C87284   3.268   6.172   8.364 -0.0304  0.2044  0.5850
  662MOL0     C87285   3.148   6.161   8.413  0.7579  0.1127 -0.0657
  662MOL0     C87286   3.127   6.157   8.551 -0.3695 -0.2458 -0.7380
  662MOL0     O87287   3.000   6.156   8.593 -0.0730 -1.1466  0.8207
  662MOL0     C87288   2.978   6.164   8.734  0.5373  0.4471 -0.7605
  662MOL0     C87289   2.829   6.139   8.762  0.2292 -0.5296  0.9335
  662MOL0     C87290   2.768   6.234   8.874 -0.4636  0.0406  1.1466
  662MOL0     C87291   2.813   6.194   9.009  0.9236  0.7592  0.1038
  662MOL0     C87292   2.747   6.272   9.114 -1.2641 -0.3984 -0.2047
  662MOL0     C87293   2.822   6.410   9.141  0.5150 -0.4990  0.6039
  662MOL0     C87294   2.815   6.456   9.284 -0.1763 -0.0843  0.3520
  662MOL0     C87295   2.916   6.580   9.306 -0.0387 -0.2793  0.8591
  662MOL0    Cl87296   3.094   6.541   9.300  0.1500 -0.1529  0.4068
  662MOL0     C87297   3.236   6.143   8.634  0.4239  0.0543 -0.5160
  662MOL0     C87298   3.362   6.134   8.582  0.5651  0.5581  0.5116
  662MOL0     O87299   3.630   6.012   8.500  0.8782 -0.5239  0.7585
  662MOL0     C87300   3.865   6.070   8.331  0.2868 -0.0033  0.7466
  662MOL0     C87301   3.983   6.112   8.270  0.6699 -0.1032  0.8214
  662MOL0     N87302   4.279   5.763   7.835 -0.1147 -0.0528 -0.1077
  662MOL0     N87303   4.386   5.736   7.765 -0.4024 -0.4267  0.2551
  662MOL0     C87304   5.400   5.825   8.438  0.0496 -0.3818 -0.0521
  662MOL0     C87305   5.518   5.827   8.526  0.3633  0.1168  0.1634
  662MOL0     C87306   5.882   5.743   8.788 -0.3604  0.6617  0.0938
  662MOL0     C87307   5.878   5.637   8.885  0.1532  1.1149 -0.6511
  662MOL0     C87308   5.989   5.605   8.960 -0.0500  0.1415  0.2007
  662MOL0     C87309   6.097   5.686   8.956  0.7440 -0.2687  0.8190
  662MOL0     O87310   6.208   5.663   9.038  0.0401 -0.2510  0.1084
  662MOL0     C87311   6.184   5.735   9.160 -0.0645  0.6892 -0.2773
  662MOL0     C87312   6.287   5.696   9.262 -0.0300  0.3601  0.8345
  662MOL0     C87313   6.434   5.710   9.211 -0.4855  0.3092 -1.2063
  662MOL0     C87314   6.537   5.751   9.327  1.3836 -0.3113  0.4362
  662MOL0     C87315   6.516   5.894   9.344  0.4772  0.2362 -0.6762
  662MOL0     C87316   6.491   6.010   9.351 -0.4214 -0.6121  0.3135
  662MOL0     C87317   6.094   5.796   8.875 -0.3407 -0.4448  0.5047
  662MOL0     C87318   5.988   5.827   8.797 -0.0215  0.3780 -0.2533
  662MOL0     H87319   5.554   5.492   8.554 -0.7648 -0.4402  0.2474
  662MOL0     H87320   5.391   5.491   8.407 -1.6896  0.7856  0.1640
  662MOL0     H87321   5.265   5.499   8.230  0.9922 -0.1774  0.5424
  662MOL0     H87322   5.370   5.633   8.158 -0.8123 -0.1153 -1.2545
  662MOL0     H87323   5.218   5.581   7.999  2.0877  1.4439 -0.3159
  662MOL0     H87324   5.196   5.742   8.071  0.2636 -0.3828  0.5044
  662MOL0     H87325   4.991   5.674   8.187 -1.8132  0.2381 -1.0523
  662MOL0     H87326   5.017   5.505   8.154  0.1816 -0.9108 -2.5410
  662MOL0     H87327   5.020   5.559   7.906  1.5282 -0.9430  3.7104
  662MOL0     H87328   4.860   5.571   7.989 -1.2547 -0.2442 -1.2836
  662MOL0     H87329   5.044   5.772   7.875  0.8838 -2.8070  0.7771
  662MOL0     H87330   4.935   5.830   8.009 -2.2954  0.3869 -0.8578
  662MOL0     H87331   4.838   5.713   7.752  1.1124 -1.7602  1.8499
  662MOL0     H87332   4.847   5.893   7.795 -1.9211  0.9008  1.1348
  662MOL0     H87333   4.658   5.690   7.922 -1.5659  1.3237  1.7043
  662MOL0     H87334   4.680   5.870   7.957  0.3542  2.1976 -1.9966
  662MOL0     H87335   4.634   5.779   7.681 -1.6912 -0.9428  0.1635
  662MOL0     H87336   4.626   5.944   7.738  0.7540  0.0081  0.2950
  662MOL0     H87337   4.450   6.030   7.896 -1.0121 -0.2353 -0.4520
  662MOL0     H87338   4.212   5.931   8.093  2.5130 -0.1859 -0.7491
  662MOL0     H87339   4.113   5.823   8.005 -0.3588 -0.1979 -0.3711
  662MOL0     H87340   4.001   6.032   8.010  0.7245 -2.1030  0.4920
  662MOL0     H87341   4.037   6.001   7.841 -0.7454 -0.8318  0.5305
  662MOL0     H87342   4.254   6.154   7.883  1.3404  2.3994  1.6084
  662MOL0     H87343   4.096   6.231   7.886  1.2985  1.2108 -0.3872
  662MOL0     H87344   4.270   6.283   8.066  1.1639  0.9492  3.0769
  662MOL0     H87345   4.225   6.136   8.144 -1.3603  1.6931  2.8517
  662MOL0     H87346   3.855   6.405   8.142  1.0832 -0.4670 -0.2352
  662MOL0     H87347   3.661   6.328   8.251  1.5088  1.4813  1.2673
  662MOL0     H87348   3.281   6.192   8.258 -0.1003  1.0042  0.7183
  662MOL0     H87349   3.063   6.181   8.349  1.6809 -3.6026 -2.8064
  662MOL0     H87350   2.993   6.267   8.768 -1.5169  0.7627 -0.6952
  662MOL0     H87351   3.036   6.098   8.800  0.0078  1.3375  0.6331
  662MOL0     H87352   2.820   6.032   8.784 -0.9540 -0.3689  1.3284
  662MOL0     H87353   2.769   6.166   8.674  1.7964 -1.0058 -0.3219
  662MOL0     H87354   2.659   6.234   8.877 -0.5164 -1.8375  4.9732
  662MOL0     H87355   2.801   6.337   8.859  1.8513 -0.1481  4.1716
  662MOL0     H87356   2.783   6.089   9.020 -2.2529  1.5048 -0.2859
  662MOL0     H87357   2.921   6.205   9.016  0.7533  2.0844  1.1800
  662MOL0     H87358   2.754   6.222   9.211  0.0310  1.2171  0.5797
  662MOL0     H87359   2.645   6.286   9.077 -0.2876  1.1224 -2.5801
  662MOL0     H87360   2.808   6.486   9.064  0.0455 -2.2025 -1.0886
  662MOL0     H87361   2.929   6.386   9.136  1.4983  3.2908  0.3954
  662MOL0     H87362   2.709   6.478   9.301 -0.4340  2.2304 -3.2462
  662MOL0     H87363   2.847   6.380   9.356 -0.8794 -2.7314 -1.9046
  662MOL0     H87364   2.893   6.615   9.406 -0.2880  2.5423 -0.1007
  662MOL0     H87365   2.887   6.659   9.236 -1.0471  0.8242  2.4711
  662MOL0     H87366   3.233   6.145   8.743  2.7377 -1.3514 -0.3502
  662MOL0     H87367   3.433   6.095   8.654 -1.2723 -0.4953  1.8417
  662MOL0     H87368   3.859   5.974   8.382 -0.6969 -0.1417  0.3910
  662MOL0     H87369   4.070   6.048   8.280  1.2783  0.5582 -0.1698
  662MOL0     H87370   5.347   5.917   8.413 -2.5926 -0.7721  3.3439
  662MOL0     H87371   5.540   5.929   8.556 -2.4830  1.3512 -1.4609
  662MOL0     H87372   5.786   5.580   8.894 -0.9859  2.8243 -0.9393
  662MOL0     H87373   5.992   5.520   9.028  0.4416  0.9527  1.2297
  662MOL0     H87374   6.088   5.709   9.205  1.0008  0.7593  2.1624
  662MOL0     H87375   6.198   5.843   9.156 -0.2534  0.6994 -0.8190
  662MOL0     H87376   6.275   5.761   9.349  0.4996 -1.8814  2.6615
  662MOL0     H87377   6.264   5.592   9.289  1.6980 -0.2584  0.0709
  662MOL0     H87378   6.444   5.785   9.133  1.9635  0.2678 -0.9992
  662MOL0     H87379   6.474   5.622   9.160  0.1342  0.5089 -1.0705
  662MOL0     H87380   6.511   5.692   9.415 -1.1034 -1.6622 -1.1037
  662MOL0     H87381   6.641   5.721   9.308  0.2380 -3.8149 -1.1328
  662MOL0     H87382   6.465   6.109   9.381  1.1672 -0.5116  1.4681
  662MOL0     H87383   6.185   5.855   8.875  0.2854 -1.3756  1.5482
  662MOL0     H87384   5.988   5.919   8.739 -1.7400  0.5679 -0.0143
  663MOL0     O87385   2.371   5.695  11.007 -0.1552  0.0718 -0.0553
  663MOL0     C87386   2.347   5.582  10.973  0.1088 -0.8360  0.9187
  663MOL0     O87387   2.237   5.512  11.011  0.0070 -0.4111  0.1514
  663MOL0     C87388   2.154   5.564  11.111 -0.8775 -0.7757  1.0763
  663MOL0     C87389   2.065   5.674  11.109  1.0595 -0.1392 -0.6012
  663MOL0     C87390   1.982   5.715  11.216  0.5500  0.2587 -0.3428
  663MOL0     C87391   1.994   5.638  11.334  0.0092  1.1182  0.0651
  663MOL0     O87392   1.932   5.686  11.450  0.0028  0.0152  0.5534
  663MOL0     C87393   1.923   5.615  11.581 -0.8214 -0.3166 -0.1335
  663MOL0     C87394   1.831   5.697  11.673  0.2617 -0.2803 -0.0698
  663MOL0     C87395   1.699   5.735  11.617 -0.3019  0.2307  0.6302
  663MOL0     C87396   1.615   5.610  11.567  0.4353  1.2377  0.4787
  663MOL0     C87397   1.495   5.654  11.483  0.5338  0.0122  0.4670
  663MOL0     C87398   1.463   5.550  11.382 -0.9685 -0.1546 -0.0441
  663MOL0     C87399   1.356   5.605  11.291 -0.5051  0.0904 -0.6250
  663MOL0     C87400   1.212   5.634  11.337  0.0021  0.1911  0.1676
  663MOL0     N87401   1.161   5.509  11.406  0.1185 -0.1296  0.3077
  663MOL0     C87402   1.169   5.385  11.348  0.9330  0.1906 -0.2537
  663MOL0     C87403   1.134   5.300  11.447  0.0793 -0.8237  0.1690
  663MOL0     C87404   1.110   5.158  11.430  0.1514 -0.3585 -0.1843
  663MOL0     C87405   0.970   5.103  11.473 -1.5602 -0.4785 -0.0458
  663MOL0     C87406   0.983   5.031  11.608  0.0756 -1.4613 -0.2394
  663MOL0     C87407   0.860   4.944  11.629  1.1945  0.6222 -0.3338
  663MOL0     O87408   0.855   4.834  11.528 -0.6983  0.6580  0.3914
  663MOL0     C87409   0.730   4.785  11.485  1.1433  0.1220  0.8073
  663MOL0     C87410   0.707   4.732  11.353  0.2432  1.0091 -0.2560
  663MOL0     C87411   0.590   4.668  11.325 -0.2529 -1.1206 -0.1976
  663MOL0     C87412   0.484   4.654  11.417  0.4388  0.3979 -1.3458
  663MOL0     C87413   0.354   4.597  11.375 -1.1231 -0.2476  0.9758
  663MOL0     O87414   0.268   4.562  11.476  0.3281  0.0947 -0.8044
  663MOL0     C87415   0.139   4.520  11.450  0.2313  0.2216 -0.2189
  663MOL0     C87416   0.029   4.584  11.505 -0.4988 -0.6049  0.5437
  663MOL0     C87417  -0.097   4.548  11.461  0.4684  0.6460  0.3173
  663MOL0     C87418  -0.123   4.442  11.378  0.5312  0.7095  0.0004
  663MOL0     O87419  -0.249   4.399  11.351 -0.5480 -0.0564 -0.6825
  663MOL0     C87420  -0.372   4.467  11.397 -0.1296 -0.6415 -0.0425
  663MOL0     C87421  -0.498   4.399  11.329 -0.5449 -0.3063 -0.1532
  663MOL0     C87422  -0.498   4.248  11.376 -0.1974 -0.7215  0.5137
  663MOL0     C87423  -0.609   4.154  11.330 -0.6046 -0.1084  0.2618
  663MOL0     C87424  -0.569   3.999  11.314 -0.2359  0.9024 -0.2365
  663MOL0     C87425  -0.468   3.958  11.211  0.2897 -0.5078  0.1180
  663MOL0     C87426  -0.439   3.803  11.204  0.3882 -0.3351 -0.2983
  663MOL0     C87427  -0.436   3.758  11.063 -0.0243  0.1973  0.4471
  663MOL0    Cl87428  -0.409   3.581  11.074 -0.2539 -0.2047  0.0907
  663MOL0     C87429  -0.020   4.369  11.330 -0.1423  1.2845 -0.0694
  663MOL0     C87430   0.110   4.401  11.366  0.3110  0.5851 -0.4278
  663MOL0     O87431   0.323   4.578  11.254 -0.0298 -0.1000 -0.3507
  663MOL0     C87432   0.502   4.716  11.541 -0.9758 -0.0335  0.4661
  663MOL0     C87433   0.624   4.776  11.577 -0.1288 -0.2915  0.5141
  663MOL0     N87434   1.110   5.376  11.559  0.5377 -0.0152 -0.2475
  663MOL0     N87435   1.114   5.507  11.530 -0.6620  0.6965 -1.0852
  663MOL0     C87436   2.075   5.525  11.339 -1.0784 -0.3392  0.0232
  663MOL0     C87437   2.144   5.488  11.224  0.1452 -0.0061  0.2958
  663MOL0     C87438   2.437   5.535  10.864 -0.4307 -0.0646 -0.8787
  663MOL0     C87439   2.413   5.422  10.801  0.8078  0.3456  0.5125
  663MOL0     C87440   2.507   5.369  10.715 -0.2492  1.0494 -0.4448
  663MOL0     C87441   2.632   5.416  10.697  0.6738 -0.7592 -0.8639
  663MOL0     O87442   2.722   5.344  10.619 -0.3645  0.1888 -0.0976
  663MOL0     C87443   2.827   5.408  10.549  0.1306 -0.1777 -0.1715
  663MOL0     C87444   2.783   5.423  10.400 -0.4140 -0.2197 -0.0282
  663MOL0     C87445   2.894   5.449  10.297  1.1639 -0.9323 -0.4272
  663MOL0     C87446   2.845   5.521  10.170 -0.5018 -0.4495 -0.2701
  663MOL0     C87447   2.940   5.518  10.061 -0.1976 -0.3998  0.4883
  663MOL0     C87448   3.012   5.527   9.966  0.3138  0.0971 -0.2622
  663MOL0     C87449   2.663   5.535  10.762  0.6345  0.3234  0.3941
  663MOL0     C87450   2.566   5.593  10.838  0.4077 -0.0661  0.4193
  663MOL0     H87451   2.055   5.735  11.020 -3.2907 -0.6953 -0.7280
  663MOL0     H87452   1.908   5.794  11.228  0.9072  0.3100  2.0386
  663MOL0     H87453   2.017   5.596  11.634 -0.5121 -1.1054 -0.9383
  663MOL0     H87454   1.875   5.518  11.566 -1.1349  0.0205 -1.4380
  663MOL0     H87455   1.888   5.789  11.688  2.5346 -1.4124 -1.2313
  663MOL0     H87456   1.810   5.647  11.768  0.7051 -1.9614 -0.8117
  663MOL0     H87457   1.718   5.805  11.536  0.2654 -0.9416 -0.2916
  663MOL0     H87458   1.636   5.787  11.690  0.4480 -0.6532  1.9375
  663MOL0     H87459   1.679   5.544  11.509 -1.6936 -2.9100  2.4024
  663MOL0     H87460   1.575   5.546  11.647  2.8970  0.6516  1.3385
  663MOL0     H87461   1.523   5.746  11.430 -1.4850 -0.8215 -2.2199
  663MOL0     H87462   1.405   5.694  11.532 -0.9764 -1.8569 -0.6772
  663MOL0     H87463   1.418   5.463  11.431 -0.1031 -1.0887 -0.8457
  663MOL0     H87464   1.558   5.518  11.338 -0.5336  2.2320 -0.9682
  663MOL0     H87465   1.390   5.702  11.253 -2.2184  0.3383 -1.6240
  663MOL0     H87466   1.354   5.540  11.203 -0.9254 -0.2000 -0.4005
  663MOL0     H87467   1.144   5.671  11.260  1.0444 -0.4116 -1.0684
  663MOL0     H87468   1.212   5.710  11.416  2.7171 -0.3769  0.8202
  663MOL0     H87469   1.207   5.372  11.247 -0.5869  1.0822 -0.9776
  663MOL0     H87470   1.191   5.114  11.489 -0.0863  0.6957  0.9720
  663MOL0     H87471   1.121   5.127  11.326 -3.4209 -0.8970 -0.4995
  663MOL0     H87472   0.934   5.033  11.397  1.7412 -2.5146  0.0795
  663MOL0     H87473   0.903   5.189  11.482  1.1930  1.6627  1.5613
  663MOL0     H87474   1.072   4.970  11.593  2.5257  1.7596 -0.0212
  663MOL0     H87475   0.988   5.099  11.695 -0.5848  0.8215 -1.8845
  663MOL0     H87476   0.765   4.998  11.631  0.7967 -0.0676 -0.1623
  663MOL0     H87477   0.867   4.912  11.733  2.7287  2.8965  0.3400
  663MOL0     H87478   0.776   4.754  11.272 -2.4201  3.0648 -2.1634
  663MOL0     H87479   0.572   4.636  11.223  0.6912  3.1594 -1.9250
  663MOL0     H87480   0.039   4.669  11.572 -2.4155 -1.4368  1.9740
  663MOL0     H87481  -0.177   4.611  11.500  0.8068  1.1004  0.2790
  663MOL0     H87482  -0.368   4.571  11.364 -2.6810 -0.4622  0.0384
  663MOL0     H87483  -0.377   4.459  11.506  0.3069 -0.9082 -0.0399
  663MOL0     H87484  -0.502   4.400  11.220  0.3550 -1.0367 -0.1993
  663MOL0     H87485  -0.590   4.445  11.367 -1.5228 -0.9740 -1.6278
  663MOL0     H87486  -0.486   4.222  11.482  4.0278 -3.4445 -0.4199
  663MOL0     H87487  -0.404   4.217  11.330  0.7846  3.6261 -0.7784
  663MOL0     H87488  -0.699   4.161  11.391 -0.3877 -1.9013  0.8615
  663MOL0     H87489  -0.641   4.192  11.233 -0.1192  1.2452  0.6082
  663MOL0     H87490  -0.664   3.945  11.302  0.4774  0.0217 -2.3498
  663MOL0     H87491  -0.530   3.958  11.407 -3.1622  0.0484  0.7443
  663MOL0     H87492  -0.378   3.996  11.261 -1.5020  4.5226 -0.0062
  663MOL0     H87493  -0.488   4.007  11.115 -0.8117 -2.1203 -0.5135
  663MOL0     H87494  -0.342   3.774  11.246  1.9645  3.0308 -1.1917
  663MOL0     H87495  -0.521   3.763  11.264 -3.1013  2.8978 -2.4229
  663MOL0     H87496  -0.355   3.799  11.002  1.4659 -0.9526  1.5936
  663MOL0     H87497  -0.530   3.794  11.020 -0.5362 -0.3608  1.0668
  663MOL0     H87498  -0.046   4.285  11.266  1.9141 -0.5773  1.3837
  663MOL0     H87499   0.202   4.363  11.322  0.1898  0.3554 -0.4838
  663MOL0     H87500   0.435   4.701  11.626 -0.5158 -1.2819  0.6298
  663MOL0     H87501   0.636   4.812  11.679 -1.9490  3.0028 -0.2800
  663MOL0     H87502   2.103   5.479  11.433  1.9435 -4.4386 -2.5532
  663MOL0     H87503   2.211   5.403  11.221 -0.9251 -0.8260 -1.7061
  663MOL0     H87504   2.319   5.369  10.808 -0.8969  3.1635  0.7249
  663MOL0     H87505   2.478   5.278  10.662 -1.6111  0.6820  0.8358
  663MOL0     H87506   2.908   5.334  10.552  0.8184  0.3326 -2.9743
  663MOL0     H87507   2.848   5.511  10.581 -1.3872  0.2841 -0.5942
  663MOL0     H87508   2.747   5.323  10.377 -0.5302 -0.4898  1.2491
  663MOL0     H87509   2.697   5.490  10.392 -1.7571 -1.6343  1.8328
  663MOL0     H87510   2.929   5.354  10.257  1.3543  0.0611 -2.7821
  663MOL0     H87511   2.974   5.506  10.344  0.3566  0.0424 -0.1907
  663MOL0     H87512   2.759   5.470  10.127  0.2619 -1.5773 -0.4934
  663MOL0     H87513   2.833   5.625  10.202  5.5244  0.9071 -1.2220
  663MOL0     H87514   3.077   5.548   9.883  4.4810  1.3226  2.9389
  663MOL0     H87515   2.755   5.593  10.755  1.3027 -0.7703 -0.0295
  663MOL0     H87516   2.572   5.690  10.886 -1.6538  0.8290 -0.9699
  664MOL0     O87517   2.508   7.062   7.453 -0.3938  0.7798 -0.0441
  664MOL0     C87518   2.553   6.975   7.531 -0.2656  0.3756 -0.5692
  664MOL0     O87519   2.494   6.931   7.643 -0.2715  0.0230  0.1606
  664MOL0     C87520   2.412   7.022   7.709 -0.1639  0.2069 -0.0036
  664MOL0     C87521   2.280   7.030   7.675  0.1901 -0.3042  0.3297
  664MOL0     C87522   2.188   7.107   7.742  0.3957 -0.2837 -1.6109
  664MOL0     C87523   2.224   7.168   7.870  0.2771  0.3496 -0.1223
  664MOL0     O87524   2.149   7.241   7.956  0.0804  0.2315 -0.0185
  664MOL0     C87525   2.010   7.239   7.924  0.0533  0.0794  0.5063
  664MOL0     C87526   1.926   7.315   8.026 -0.2476 -0.6544 -0.3018
  664MOL0     C87527   1.967   7.449   8.062  0.6479 -0.6060 -0.4967
  664MOL0     C87528   1.868   7.514   8.165 -0.0358  0.3966  0.1154
  664MOL0     C87529   1.922   7.641   8.234  0.4873 -0.1899  0.0967
  664MOL0     C87530   1.986   7.740   8.140  0.8795  0.5243 -0.4600
  664MOL0     C87531   1.969   7.893   8.187 -0.2006  0.5981  0.3392
  664MOL0     C87532   2.038   7.913   8.329  0.4832 -0.6968  0.0584
  664MOL0     N87533   2.178   7.890   8.335  0.2824  0.3741 -0.1200
  664MOL0     C87534   2.268   7.909   8.234  0.1928 -0.2621  0.0682
  664MOL0     C87535   2.383   7.870   8.283 -1.0470 -0.1735 -0.8337
  664MOL0     C87536   2.511   7.896   8.208 -0.0398 -0.0662  0.0813
  664MOL0     C87537   2.528   8.047   8.190 -0.1374  0.1770 -1.4772
  664MOL0     C87538   2.636   8.098   8.280 -0.0065 -0.8140  0.1687
  664MOL0     C87539   2.679   8.239   8.250  1.1298  0.8870 -0.5266
  664MOL0     O87540   2.733   8.308   8.362 -0.1387 -0.2626 -0.1450
  664MOL0     C87541   2.852   8.364   8.353  0.3120 -0.1237  0.2564
  664MOL0     C87542   2.954   8.302   8.278  0.1019  0.5298 -0.5134
  664MOL0     C87543   3.077   8.356   8.285 -0.1987 -1.3571  0.1058
  664MOL0     C87544   3.107   8.468   8.369  1.6254  0.0860  0.4694
  664MOL0     C87545   3.252   8.507   8.383  0.0946 -0.1791  0.8146
  664MOL0     O87546   3.335   8.456   8.287 -0.9854 -0.1622 -0.1130
  664MOL0     C87547   3.463   8.479   8.313 -0.7922 -0.6497  1.4019
  664MOL0     C87548   3.543   8.564   8.237  0.3414 -1.4443  0.0518
  664MOL0     C87549   3.685   8.568   8.267 -0.2712  0.0278 -0.0241
  664MOL0     C87550   3.749   8.481   8.357 -0.2544 -0.5676  0.7949
  664MOL0     O87551   3.874   8.482   8.387 -0.8430 -0.6100  0.1681
  664MOL0     C87552   3.910   8.500   8.518 -0.0807  0.5917  0.6953
  664MOL0     C87553   4.036   8.585   8.506  0.1182 -0.1239 -0.4085
  664MOL0     C87554   4.148   8.550   8.402 -0.4362 -0.0049 -0.2580
  664MOL0     C87555   4.265   8.642   8.416  0.0794 -0.0255  0.8136
  664MOL0     C87556   4.348   8.633   8.547  0.2388  0.6665  1.5629
  664MOL0     C87557   4.497   8.671   8.532 -0.2892 -0.0352 -0.4370
  664MOL0     C87558   4.527   8.794   8.438  0.9350 -0.2126 -0.0117
  664MOL0     C87559   4.582   8.755   8.303 -0.3682  0.2499 -0.1703
  664MOL0    Cl87560   4.604   8.906   8.202 -0.0906 -0.2945  0.0943
  664MOL0     C87561   3.667   8.384   8.415  0.8489 -0.5640  0.2046
  664MOL0     C87562   3.529   8.383   8.392  1.0302 -1.1638  0.5649
  664MOL0     O87563   3.278   8.565   8.488 -1.0120 -0.0134  0.1582
  664MOL0     C87564   3.004   8.529   8.450 -1.0777 -0.0829  0.1898
  664MOL0     C87565   2.875   8.467   8.445 -0.3353 -0.1727 -0.6001
  664MOL0     N87566   2.372   7.829   8.418  0.1922 -0.4459  0.2482
  664MOL0     N87567   2.246   7.827   8.433  0.2197  0.8417  0.6558
  664MOL0     C87568   2.355   7.141   7.914 -0.1838 -0.7307  0.7562
  664MOL0     C87569   2.448   7.086   7.831 -0.0670 -0.1331  0.2288
  664MOL0     C87570   2.675   6.917   7.490 -0.0916  0.0287  0.0428
  664MOL0     C87571   2.724   6.805   7.547  1.1335 -0.2725  0.3163
  664MOL0     C87572   2.836   6.746   7.492 -0.1831  0.1007 -0.5599
  664MOL0     C87573   2.908   6.796   7.383  0.4176  0.0476 -0.3072
  664MOL0     O87574   3.020   6.740   7.332 -0.0860  1.6550  0.4818
  664MOL0     C87575   3.076   6.769   7.207 -0.1103  0.8524  0.4537
  664MOL0     C87576   3.130   6.637   7.156 -0.6310  0.4794 -0.2957
  664MOL0     C87577   3.235   6.561   7.229  0.0388 -0.3568  1.4846
  664MOL0     C87578   3.285   6.456   7.135 -0.8902  0.1300  0.5225
  664MOL0     C87579   3.411   6.414   7.201 -0.6355  0.2307  0.7015
  664MOL0     C87580   3.513   6.371   7.241  0.2923  0.4484 -0.0175
  664MOL0     C87581   2.865   6.922   7.338  0.2163  0.3912 -0.5434
  664MOL0     C87582   2.747   6.979   7.389 -0.7239 -0.0257 -0.0046
  664MOL0     H87583   2.250   6.958   7.600  1.0946 -1.6920  1.2360
  664MOL0     H87584   2.086   7.116   7.705 -0.2495  1.4484  0.3828
  664MOL0     H87585   1.982   7.134   7.914  1.0224 -0.1950  0.5195
  664MOL0     H87586   1.997   7.283   7.825 -1.0967  2.4585  1.6424
  664MOL0     H87587   1.921   7.260   8.120  1.3997 -0.0202  0.1764
  664MOL0     H87588   1.822   7.323   7.991 -1.6285 -1.5832  3.1578
  664MOL0     H87589   1.991   7.514   7.977  1.9900 -2.0436 -1.2808
  664MOL0     H87590   2.063   7.434   8.113  0.1053  0.0736  0.7866
  664MOL0     H87591   1.779   7.545   8.109  0.8156  2.0163 -0.4042
  664MOL0     H87592   1.838   7.437   8.237  0.4003  0.5696  0.4934
  664MOL0     H87593   1.997   7.620   8.311 -0.4092  0.4509  1.1669
  664MOL0     H87594   1.832   7.687   8.275 -0.0924 -0.7908 -0.4803
  664MOL0     H87595   1.937   7.725   8.044 -2.0313  0.6433  0.9030
  664MOL0     H87596   2.092   7.714   8.136  0.1063 -3.4501  0.8414
  664MOL0     H87597   2.011   7.960   8.111  0.3617 -0.4954 -0.3367
  664MOL0     H87598   1.863   7.918   8.195  0.0503  2.3293 -0.9783
  664MOL0     H87599   1.990   7.852   8.406 -0.6790 -2.0892 -1.7015
  664MOL0     H87600   2.011   8.016   8.354  1.2605 -0.2067 -1.0754
  664MOL0     H87601   2.242   7.942   8.134  0.5065  3.2292  1.0057
  664MOL0     H87602   2.510   7.847   8.110 -1.6446 -1.7366  0.8388
  664MOL0     H87603   2.597   7.847   8.255 -1.3571 -2.0358  0.6161
  664MOL0     H87604   2.432   8.093   8.215 -0.6959 -2.6307  2.5991
  664MOL0     H87605   2.553   8.078   8.088  2.5041 -2.6175 -1.8249
  664MOL0     H87606   2.605   8.097   8.385  1.5026 -0.0697  0.6624
  664MOL0     H87607   2.729   8.041   8.270  0.5893 -0.3595  2.5757
  664MOL0     H87608   2.583   8.291   8.241  1.5579  3.0690  4.3375
  664MOL0     H87609   2.739   8.246   8.159 -0.3039  0.7589 -1.5220
  664MOL0     H87610   2.936   8.208   8.228  0.7147 -1.7968  3.2653
  664MOL0     H87611   3.162   8.305   8.241  0.9732 -1.6820  2.5871
  664MOL0     H87612   3.488   8.621   8.162  0.2602  0.3196  1.3678
  664MOL0     H87613   3.749   8.639   8.215 -0.9223 -0.0160 -0.9099
  664MOL0     H87614   3.950   8.405   8.553  2.6159  0.2626 -2.6844
  664MOL0     H87615   3.841   8.533   8.595  1.2200  2.4113  1.1731
  664MOL0     H87616   4.088   8.601   8.601  0.6588 -1.3643 -0.4722
  664MOL0     H87617   4.005   8.687   8.481 -0.6514 -0.5623 -1.2988
  664MOL0     H87618   4.093   8.564   8.308  0.1211  0.8151 -0.4668
  664MOL0     H87619   4.176   8.446   8.420 -0.6223 -0.2209 -1.1921
  664MOL0     H87620   4.332   8.616   8.334 -0.2490 -0.1356  0.5771
  664MOL0     H87621   4.229   8.745   8.402  0.7796  0.1415  0.1878
  664MOL0     H87622   4.340   8.527   8.572 -3.0684  1.0072  2.3816
  664MOL0     H87623   4.296   8.700   8.615 -2.8693 -0.3063  0.3040
  664MOL0     H87624   4.550   8.582   8.497 -0.3333 -0.3392  0.2628
  664MOL0     H87625   4.532   8.680   8.635 -2.0194 -1.3520  0.3141
  664MOL0     H87626   4.447   8.866   8.414  2.0447  1.1480  0.2398
  664MOL0     H87627   4.609   8.846   8.488 -0.1265 -1.6412  3.5397
  664MOL0     H87628   4.516   8.690   8.245  0.5309 -0.1263 -0.7899
  664MOL0     H87629   4.678   8.705   8.315  2.0847  4.4609 -0.3667
  664MOL0     H87630   3.718   8.319   8.485  1.2097  0.7216  1.1837
  664MOL0     H87631   3.476   8.302   8.441 -0.8587  1.7004  3.7498
  664MOL0     H87632   3.025   8.612   8.517  3.4075 -0.1545 -0.7847
  664MOL0     H87633   2.789   8.515   8.490  0.2188  0.6153 -0.3554
  664MOL0     H87634   2.398   7.177   8.007 -0.7646 -2.7249  1.8544
  664MOL0     H87635   2.551   7.075   7.865  0.6832  1.0073 -1.5732
  664MOL0     H87636   2.667   6.766   7.632 -2.1406  4.1469  0.5212
  664MOL0     H87637   2.878   6.656   7.537 -1.3630 -0.3542 -0.3340
  664MOL0     H87638   3.153   6.845   7.219 -0.1004  1.2003 -1.5344
  664MOL0     H87639   2.999   6.802   7.137 -1.4009 -0.7721  1.0348
  664MOL0     H87640   3.049   6.566   7.137 -0.4567 -0.0195  0.7655
  664MOL0     H87641   3.171   6.649   7.055 -2.8994 -2.7145 -1.7828
  664MOL0     H87642   3.202   6.519   7.325  0.4286 -1.8519  0.9823
  664MOL0     H87643   3.307   6.641   7.246 -0.5353  0.6224 -0.3897
  664MOL0     H87644   3.220   6.369   7.130  1.4743 -1.6552 -1.8840
  664MOL0     H87645   3.313   6.487   7.034 -1.0617  1.8140  0.9576
  664MOL0     H87646   3.601   6.340   7.295 -0.3048 -0.8424  0.2631
  664MOL0     H87647   2.892   6.969   7.244  0.1706  0.9214 -0.2971
  664MOL0     H87648   2.703   7.072   7.355 -4.2334 -1.8078 -0.7563
  665MOL0     O87649   1.986   6.779   6.544 -0.5146 -0.4862 -0.3831
  665MOL0     C87650   2.003   6.905   6.547  0.3620 -0.4258 -0.1931
  665MOL0     O87651   2.072   6.974   6.636  0.0341 -0.5334 -0.4578
  665MOL0     C87652   2.158   6.916   6.732 -0.3096 -0.2479  0.1192
  665MOL0     C87653   2.245   6.814   6.704 -0.6185  0.5614  0.1960
  665MOL0     C87654   2.353   6.790   6.795  0.2092 -0.7446 -0.7763
  665MOL0     C87655   2.363   6.846   6.923  0.0422 -0.3246 -0.6090
  665MOL0     O87656   2.444   6.795   7.024 -0.8168 -0.6672  0.9476
  665MOL0     C87657   2.523   6.677   6.993 -0.7256  0.6373  0.0558
  665MOL0     C87658   2.613   6.634   7.110  0.3889 -0.7363  0.2763
  665MOL0     C87659   2.676   6.496   7.091 -0.0593  0.4287  0.1523
  665MOL0     C87660   2.751   6.438   7.208 -0.5617 -0.1930  0.1215
  665MOL0     C87661   2.804   6.297   7.169  0.1913  0.0106  0.2588
  665MOL0     C87662   2.702   6.190   7.192 -0.0707  0.1415 -0.4164
  665MOL0     C87663   2.746   6.055   7.132  0.1377  0.4235  0.0320
  665MOL0     C87664   2.654   5.936   7.178 -0.6880 -0.6629  0.7860
  665MOL0     N87665   2.532   5.939   7.088  0.3168 -0.3295 -0.5227
  665MOL0     C87666   2.411   5.974   7.140  0.0558 -0.1663  1.1484
  665MOL0     C87667   2.321   5.950   7.045 -0.5564  0.2184 -1.2013
  665MOL0     C87668   2.171   5.974   7.064 -0.9126 -0.1351  0.7425
  665MOL0     C87669   2.080   5.855   7.093  0.0856  0.3874 -0.0105
  665MOL0     C87670   1.928   5.893   7.085  0.4333  0.1137  0.2603
  665MOL0     C87671   1.867   5.955   7.203  0.5664  0.9177  0.6341
  665MOL0     O87672   1.734   5.992   7.164 -0.2841 -0.8991  0.1709
  665MOL0     C87673   1.621   5.909   7.179  0.6333 -0.2282 -0.2587
  665MOL0     C87674   1.637   5.777   7.217  0.2795  0.6750 -0.2169
  665MOL0     C87675   1.534   5.691   7.223 -0.9427 -0.0793  0.1425
  665MOL0     C87676   1.402   5.728   7.190 -0.6027  0.3110 -0.7085
  665MOL0     C87677   1.299   5.631   7.209 -1.1635  0.7558  0.0674
  665MOL0     O87678   1.196   5.659   7.136  0.3779 -0.6581 -0.3235
  665MOL0     C87679   1.060   5.646   7.167 -0.2456 -0.6968  0.8376
  665MOL0     C87680   1.012   5.643   7.299 -1.6023  0.2757 -0.1410
  665MOL0     C87681   0.877   5.646   7.326 -0.1347 -0.0843 -0.1283
  665MOL0     C87682   0.784   5.677   7.228  0.3550  0.0047 -0.0595
  665MOL0     O87683   0.652   5.678   7.272  0.4354  0.1233 -0.7792
  665MOL0     C87684   0.555   5.741   7.186  0.7806  0.1448 -0.0290
  665MOL0     C87685   0.423   5.783   7.263 -0.2657  0.0243  0.7598
  665MOL0     C87686   0.448   5.898   7.372  0.2610 -0.8885  0.1343
  665MOL0     C87687   0.567   5.887   7.465  0.1937  0.9308 -0.2967
  665MOL0     C87688   0.572   6.006   7.566 -0.4989 -0.7000  0.4297
  665MOL0     C87689   0.709   6.005   7.643 -0.7997 -0.3160 -1.1516
  665MOL0     C87690   0.721   6.138   7.721 -0.8087  0.2094  0.8105
  665MOL0     C87691   0.618   6.146   7.833  0.2927 -0.0339  0.2879
  665MOL0    Cl87692   0.628   6.000   7.942  0.7048 -0.0316  0.2387
  665MOL0     C87693   0.824   5.679   7.094 -1.2342  0.0612  0.3715
  665MOL0     C87694   0.964   5.664   7.066  0.6679 -0.1977 -0.9489
  665MOL0     O87695   1.314   5.535   7.288  0.6169 -0.5643  0.3903
  665MOL0     C87696   1.382   5.864   7.160  0.3868  0.1987 -0.0015
  665MOL0     C87697   1.492   5.954   7.152 -0.0221  0.0870  0.1266
  665MOL0     N87698   2.389   5.906   6.930  1.3383 -0.1721 -0.2500
  665MOL0     N87699   2.516   5.895   6.957  0.1603 -0.0779 -0.5484
  665MOL0     C87700   2.262   6.948   6.956 -0.0715  0.1493  0.9562
  665MOL0     C87701   2.173   6.979   6.856 -0.4943  0.2062  0.1697
  665MOL0     C87702   1.936   6.991   6.453 -1.1008  0.1782  0.0634
  665MOL0     C87703   1.851   6.942   6.355  0.0115  1.0110  0.5764
  665MOL0     C87704   1.791   7.026   6.265  0.1319 -0.1258 -0.1607
  665MOL0     C87705   1.819   7.170   6.265  0.1398 -0.1036  0.1667
  665MOL0     O87706   1.760   7.257   6.182  1.4203  0.6508 -0.4668
  665MOL0     C87707   1.646   7.234   6.103  0.0090  0.0893 -1.1019
  665MOL0     C87708   1.519   7.264   6.200  0.4989  0.7005 -0.0150
  665MOL0     C87709   1.495   7.412   6.224  0.0857  0.2393 -0.3590
  665MOL0     C87710   1.426   7.479   6.109  0.5554  0.3649  0.6495
  665MOL0     C87711   1.395   7.618   6.152 -0.4523 -0.7127 -0.1849
  665MOL0     C87712   1.373   7.739   6.167  0.1926 -0.9219  0.3678
  665MOL0     C87713   1.914   7.219   6.360  0.2141  0.5177  0.2022
  665MOL0     C87714   1.980   7.128   6.449  0.2165 -1.0563 -0.4815
  665MOL0     H87715   2.239   6.737   6.628  1.4157  0.0100  0.5359
  665MOL0     H87716   2.413   6.702   6.775  0.4891 -1.1916  1.6907
  665MOL0     H87717   2.587   6.689   6.905 -0.5175 -1.2298 -0.0794
  665MOL0     H87718   2.451   6.598   6.971 -0.4739  0.5938 -0.6295
  665MOL0     H87719   2.556   6.629   7.203  0.7708  0.5533  0.5970
  665MOL0     H87720   2.684   6.717   7.118 -0.6785  0.1030  1.5455
  665MOL0     H87721   2.750   6.509   7.011 -2.3902  1.7512 -1.8859
  665MOL0     H87722   2.589   6.441   7.055  0.1170  0.2890 -0.0640
  665MOL0     H87723   2.841   6.496   7.230  0.5386 -1.4641 -0.9386
  665MOL0     H87724   2.688   6.420   7.296 -0.8513  2.0303  0.4428
  665MOL0     H87725   2.888   6.274   7.235 -0.0661 -1.2678  0.1711
  665MOL0     H87726   2.842   6.294   7.066  3.0847  1.7417  1.1571
  665MOL0     H87727   2.601   6.224   7.166  0.7262  2.0555 -1.1415
  665MOL0     H87728   2.687   6.172   7.299 -0.7928  0.6546 -0.4225
  665MOL0     H87729   2.749   6.063   7.023 -3.0729  1.6378 -0.0650
  665MOL0     H87730   2.850   6.041   7.165  0.7931  1.0921 -1.6433
  665MOL0     H87731   2.644   5.948   7.286  1.7946 -0.1070  1.0169
  665MOL0     H87732   2.709   5.843   7.159 -0.3475 -0.0569 -1.5908
  665MOL0     H87733   2.395   6.004   7.243 -1.2392 -0.2735  0.9890
  665MOL0     H87734   2.138   6.028   6.974  1.1114 -0.0664 -0.0273
  665MOL0     H87735   2.170   6.048   7.145 -0.4586  1.6415 -0.8045
  665MOL0     H87736   2.111   5.815   7.190  0.2106 -0.4109 -0.3731
  665MOL0     H87737   2.110   5.797   7.005  0.3765 -0.9464  0.9447
  665MOL0     H87738   1.903   5.946   6.993  2.3624 -0.7448 -0.8207
  665MOL0     H87739   1.874   5.798   7.086 -2.6682  1.5675  4.7321
  665MOL0     H87740   1.923   6.047   7.224  0.3414  1.3409 -0.5258
  665MOL0     H87741   1.877   5.903   7.299  2.1842  0.9847  0.5225
  665MOL0     H87742   1.736   5.736   7.238  1.0221  2.8478  0.8374
  665MOL0     H87743   1.553   5.591   7.258  0.8220  0.9720  2.4578
  665MOL0     H87744   1.082   5.620   7.379 -0.7249  1.1955 -0.6266
  665MOL0     H87745   0.846   5.639   7.430 -1.2350 -2.2386 -0.5584
  665MOL0     H87746   0.537   5.676   7.099 -0.4693  0.3231  0.0725
  665MOL0     H87747   0.589   5.838   7.148 -0.8156  0.5815 -0.4201
  665MOL0     H87748   0.392   5.687   7.307  0.1221 -0.2571  0.4313
  665MOL0     H87749   0.337   5.812   7.203 -0.2724 -2.1142 -0.3649
  665MOL0     H87750   0.354   5.899   7.428 -0.0712 -1.1192 -0.4038
  665MOL0     H87751   0.453   5.989   7.312  3.1173  0.0849  1.6571
  665MOL0     H87752   0.553   5.795   7.522  1.1963  2.5531  2.7873
  665MOL0     H87753   0.665   5.878   7.417  0.8919  1.4668  0.9964
  665MOL0     H87754   0.486   6.013   7.634  1.2042  0.2802  2.5849
  665MOL0     H87755   0.556   6.088   7.495  0.6939 -2.8874 -2.5815
  665MOL0     H87756   0.793   6.002   7.572  0.0866 -0.6812 -0.1258
  665MOL0     H87757   0.706   5.919   7.711  1.8775  1.4777  1.4966
  665MOL0     H87758   0.824   6.133   7.756  0.4748 -0.9912 -2.6797
  665MOL0     H87759   0.711   6.232   7.667  0.0347  1.3300  2.5369
  665MOL0     H87760   0.515   6.161   7.801  0.7898  0.5676 -1.1213
  665MOL0     H87761   0.654   6.233   7.889 -2.3517  0.4999  1.3176
  665MOL0     H87762   0.755   5.663   7.012  2.5466 -0.9976 -2.9133
  665MOL0     H87763   0.999   5.652   6.964 -0.0973  0.9314 -1.3652
  665MOL0     H87764   1.290   5.893   7.111  1.0344  3.1153  0.3340
  665MOL0     H87765   1.469   6.052   7.112 -0.2147  0.1569  0.4039
  665MOL0     H87766   2.246   7.002   7.049  2.0282 -1.7806  2.5358
  665MOL0     H87767   2.104   7.061   6.869 -0.8546 -0.4100  2.4684
  665MOL0     H87768   1.829   6.836   6.361 -1.2242  1.2478  0.5027
  665MOL0     H87769   1.722   6.980   6.194 -1.5678  1.3953  0.4148
  665MOL0     H87770   1.646   7.129   6.075 -1.0127 -0.9937  2.4532
  665MOL0     H87771   1.648   7.299   6.015 -0.1969  0.1432 -1.0687
  665MOL0     H87772   1.436   7.230   6.138  0.1097  0.6274  0.5374
  665MOL0     H87773   1.520   7.202   6.290 -0.4170  1.5428  0.5992
  665MOL0     H87774   1.590   7.463   6.244  0.4326 -1.0009  1.4652
  665MOL0     H87775   1.428   7.418   6.310 -2.1868 -2.0790 -1.8263
  665MOL0     H87776   1.496   7.482   6.026  0.5974  1.8261  0.7105
  665MOL0     H87777   1.339   7.419   6.081  1.7290 -1.2760  0.4104
  665MOL0     H87778   1.355   7.845   6.164 -0.6022 -1.0031  1.5470
  665MOL0     H87779   1.937   7.324   6.374  0.1208  0.5976 -0.2268
  665MOL0     H87780   2.063   7.169   6.505 -0.6404  0.3636 -0.2115
  666MOL0     O87781   5.618   6.051   1.559  0.0906 -0.5625  1.0445
  666MOL0     C87782   5.726   6.087   1.515  0.2237  0.1827  0.5244
  666MOL0     O87783   5.757   6.225   1.477 -0.4389  0.0269  0.4840
  666MOL0     C87784   5.655   6.299   1.497  0.2102 -0.4299  0.0678
  666MOL0     C87785   5.548   6.310   1.396 -0.5252  0.1205  0.0104
  666MOL0     C87786   5.437   6.400   1.416  0.9030  0.1580  0.6160
  666MOL0     C87787   5.439   6.498   1.522 -0.2638 -0.0874 -0.5681
  666MOL0     O87788   5.349   6.598   1.515 -0.6348  0.1482  0.4871
  666MOL0     C87789   5.363   6.701   1.616  0.8074 -0.0182 -0.3442
  666MOL0     C87790   5.250   6.811   1.588 -0.9537 -0.1521  0.1095
  666MOL0     C87791   5.299   6.912   1.489  0.5562 -0.3965 -0.1365
  666MOL0     C87792   5.198   7.021   1.453 -0.1753 -0.6361  0.2785
  666MOL0     C87793   5.271   7.117   1.360 -0.1068  0.2473  0.5112
  666MOL0     C87794   5.181   7.223   1.301 -0.4044 -1.0286  0.3448
  666MOL0     C87795   5.144   7.332   1.402 -0.1148 -0.5653  0.2250
  666MOL0     C87796   5.057   7.446   1.359  0.6464  1.0185 -1.1889
  666MOL0     N87797   5.025   7.540   1.469 -1.2187  0.1636  0.0217
  666MOL0     C87798   5.069   7.669   1.481 -0.6070 -0.4108  0.2189
  666MOL0     C87799   5.005   7.712   1.593  0.1466  1.7419 -0.4734
  666MOL0     C87800   5.027   7.827   1.674  0.3313  0.2692  0.4012
  666MOL0     C87801   5.133   7.819   1.790 -0.5624 -0.4206 -1.4067
  666MOL0     C87802   5.253   7.725   1.773 -0.2479 -0.1721  0.2751
  666MOL0     C87803   5.351   7.734   1.896  1.6432  0.6242  0.6007
  666MOL0     O87804   5.408   7.598   1.905 -0.2400 -0.1570  0.1853
  666MOL0     C87805   5.507   7.610   2.001  0.4411  0.2845  0.2995
  666MOL0     C87806   5.634   7.562   1.958 -0.5920  0.4701 -0.9316
  666MOL0     C87807   5.742   7.556   2.049 -0.0153  0.6004  0.2557
  666MOL0     C87808   5.728   7.610   2.180 -0.5137  0.2256  0.6281
  666MOL0     C87809   5.846   7.589   2.276  0.0074 -0.0049  0.7123
  666MOL0     O87810   5.970   7.603   2.222  0.0903  0.4895  0.4886
  666MOL0     C87811   6.073   7.585   2.306 -0.0886 -0.2434 -0.5297
  666MOL0     C87812   6.144   7.701   2.354  0.6797  0.9032  0.9699
  666MOL0     C87813   6.263   7.687   2.422  0.2819  0.2095 -0.2969
  666MOL0     C87814   6.323   7.557   2.432 -0.1583 -0.0539 -0.0222
  666MOL0     O87815   6.440   7.552   2.501 -0.1046 -0.1421 -0.4431
  666MOL0     C87816   6.463   7.433   2.591 -0.3081 -1.5922 -0.1200
  666MOL0     C87817   6.363   7.407   2.712  0.2843  0.8090  0.4672
  666MOL0     C87818   6.393   7.470   2.846 -0.6629 -0.5196  0.1527
  666MOL0     C87819   6.452   7.615   2.828  0.3196 -0.0330 -0.4105
  666MOL0     C87820   6.513   7.673   2.957  0.9907  0.0627  0.5167
  666MOL0     C87821   6.556   7.821   2.920 -0.0015  0.6330  1.3183
  666MOL0     C87822   6.579   7.894   3.049  0.6413 -0.1051  1.2598
  666MOL0     C87823   6.724   7.900   3.105 -0.1138  0.6592  0.3958
  666MOL0    Cl87824   6.748   7.755   3.207 -0.1471  0.2948 -0.2143
  666MOL0     C87825   6.252   7.451   2.390 -1.1178  1.2232  0.0755
  666MOL0     C87826   6.131   7.456   2.325 -0.4934  0.0469  0.2402
  666MOL0     O87827   5.817   7.566   2.391 -0.1771 -0.2738  0.2092
  666MOL0     C87828   5.604   7.666   2.218 -0.5042 -0.1413 -0.0113
  666MOL0     C87829   5.499   7.666   2.129 -0.5303 -0.1821  0.0619
  666MOL0     N87830   4.922   7.609   1.641  0.8004 -0.2274  0.2280
  666MOL0     N87831   4.940   7.508   1.566  0.0578  0.5931 -0.7637
  666MOL0     C87832   5.544   6.487   1.618  0.1597 -0.5868 -0.7916
  666MOL0     C87833   5.647   6.393   1.601  0.2226  0.8377 -0.2980
  666MOL0     C87834   5.834   5.988   1.513 -0.5676  0.0029  0.6535
  666MOL0     C87835   5.958   6.017   1.452 -0.2745 -0.6241  0.1317
  666MOL0     C87836   6.064   5.924   1.451  0.3439 -0.3019  0.6809
  666MOL0     C87837   6.046   5.795   1.521 -0.0585  0.0292  0.3121
  666MOL0     O87838   6.145   5.703   1.506  0.0942 -0.1794 -0.3675
  666MOL0     C87839   6.164   5.590   1.589 -0.8130  0.7080 -0.1741
  666MOL0     C87840   6.239   5.609   1.720 -0.3147 -1.4391 -1.0090
  666MOL0     C87841   6.354   5.709   1.718 -0.0669  0.4390  0.1432
  666MOL0     C87842   6.429   5.696   1.854  0.2703 -0.1291  0.6515
  666MOL0     C87843   6.570   5.728   1.845 -0.2515 -0.0906 -1.6151
  666MOL0     C87844   6.685   5.745   1.803 -0.3120  0.0339  0.1007
  666MOL0     C87845   5.919   5.767   1.579 -0.3797  0.7341 -1.4090
  666MOL0     C87846   5.814   5.865   1.581 -0.2595  0.3304 -0.0186
  666MOL0     H87847   5.543   6.250   1.305 -2.0663  0.5359 -0.2035
  666MOL0     H87848   5.362   6.391   1.339 -2.0275  3.8537  2.6760
  666MOL0     H87849   5.466   6.738   1.618  1.0739 -0.7503  0.8436
  666MOL0     H87850   5.332   6.655   1.710  3.9011 -1.9743 -0.1066
  666MOL0     H87851   5.230   6.875   1.675  0.6700 -1.2070  1.3083
  666MOL0     H87852   5.161   6.759   1.550 -0.9896  0.5228 -0.7669
  666MOL0     H87853   5.331   6.858   1.400  0.3585  1.6911 -1.5652
  666MOL0     H87854   5.389   6.951   1.537  0.1127 -0.7044  0.9686
  666MOL0     H87855   5.117   6.969   1.401 -0.3041  1.1435 -1.4044
  666MOL0     H87856   5.153   7.070   1.540  1.5242  1.8941 -0.1561
  666MOL0     H87857   5.329   7.080   1.275  0.8271  3.0671 -0.1781
  666MOL0     H87858   5.355   7.169   1.407  1.5311  0.3256 -2.2420
  666MOL0     H87859   5.096   7.170   1.258  1.5323 -2.6398 -1.7178
  666MOL0     H87860   5.238   7.288   1.234 -1.4159  0.6406  1.0392
  666MOL0     H87861   5.093   7.273   1.479  1.0566 -1.7853  0.1001
  666MOL0     H87862   5.229   7.391   1.437  0.8531 -0.8016 -1.5935
  666MOL0     H87863   4.961   7.399   1.335 -0.0835  0.6243  1.9465
  666MOL0     H87864   5.089   7.496   1.267  0.1555  2.2123 -0.7416
  666MOL0     H87865   5.150   7.714   1.425 -1.8034  3.1674  1.1114
  666MOL0     H87866   4.934   7.852   1.727  0.0545  0.0596  0.0150
  666MOL0     H87867   5.052   7.908   1.605 -0.7676 -2.4350 -3.5114
  666MOL0     H87868   5.076   7.766   1.868  0.9503  0.9050  0.7132
  666MOL0     H87869   5.164   7.918   1.826  0.1903  0.2768 -3.7989
  666MOL0     H87870   5.211   7.626   1.757 -1.6576  0.3170  0.8010
  666MOL0     H87871   5.305   7.748   1.679 -2.9456  1.0811 -1.0330
  666MOL0     H87872   5.295   7.761   1.986  1.5555 -3.1608  1.8805
  666MOL0     H87873   5.435   7.801   1.875  3.5084 -1.6826  0.2106
  666MOL0     H87874   5.652   7.529   1.856 -1.2430  2.7673 -1.8783
  666MOL0     H87875   5.833   7.506   2.017 -1.2696  1.2319 -5.1772
  666MOL0     H87876   6.096   7.794   2.327 -2.5807 -0.7816  0.3349
  666MOL0     H87877   6.319   7.766   2.470  1.2461 -0.7448  0.2036
  666MOL0     H87878   6.564   7.443   2.631 -0.8183  1.0366  0.7000
  666MOL0     H87879   6.465   7.336   2.540 -1.4218 -2.7593  1.9438
  666MOL0     H87880   6.346   7.301   2.733 -0.5512  0.7730 -0.3652
  666MOL0     H87881   6.271   7.449   2.673  2.3136  2.6100 -2.7970
  666MOL0     H87882   6.481   7.418   2.884  1.1745 -1.0301 -4.2350
  666MOL0     H87883   6.306   7.461   2.912 -0.4301 -1.2319  0.3724
  666MOL0     H87884   6.541   7.622   2.765 -0.5609 -0.4282 -1.7271
  666MOL0     H87885   6.371   7.670   2.780  2.2465  0.4371 -3.3726
  666MOL0     H87886   6.603   7.620   2.989  0.2087 -2.4975 -1.1273
  666MOL0     H87887   6.439   7.687   3.036  0.0956  2.4576 -0.6679
  666MOL0     H87888   6.476   7.863   2.859  0.4514 -1.0084 -0.5078
  666MOL0     H87889   6.651   7.816   2.866 -0.2463  0.9020  0.8543
  666MOL0     H87890   6.544   7.997   3.037 -0.3061 -0.6058 -0.7308
  666MOL0     H87891   6.518   7.853   3.131 -2.8054 -0.1765 -1.1421
  666MOL0     H87892   6.737   7.986   3.170  2.0318  1.1505 -0.6109
  666MOL0     H87893   6.792   7.890   3.020  0.0795 -0.4298  0.6530
  666MOL0     H87894   6.300   7.357   2.417  0.6761  2.4267  1.3483
  666MOL0     H87895   6.086   7.369   2.278 -1.7307  1.2967 -1.0061
  666MOL0     H87896   5.604   7.701   2.321 -0.2742  0.8513 -0.3394
  666MOL0     H87897   5.417   7.716   2.180  1.5043  1.6387  1.7168
  666MOL0     H87898   5.548   6.532   1.717  0.4303 -0.0368 -1.0470
  666MOL0     H87899   5.726   6.384   1.675  1.2843  3.9302 -0.9341
  666MOL0     H87900   5.974   6.112   1.401  0.7787  0.0131  1.5566
  666MOL0     H87901   6.157   5.946   1.400 -0.1185 -0.9183 -0.4640
  666MOL0     H87902   6.233   5.532   1.527 -0.5944  1.6703 -0.8580
  666MOL0     H87903   6.075   5.528   1.607 -2.4256  2.7270 -0.7967
  666MOL0     H87904   6.172   5.637   1.801 -2.9999 -2.1327 -2.8439
  666MOL0     H87905   6.283   5.511   1.742  2.1123 -0.5071 -1.3975
  666MOL0     H87906   6.316   5.811   1.706  2.7276  1.5087 -0.2142
  666MOL0     H87907   6.426   5.703   1.636 -1.4665  0.6077 -1.1569
  666MOL0     H87908   6.386   5.755   1.936 -1.1634 -2.9996  2.1170
  666MOL0     H87909   6.417   5.593   1.887 -0.8595 -0.9372 -2.0435
  666MOL0     H87910   6.787   5.738   1.770 -0.9105  1.7263 -2.4540
  666MOL0     H87911   5.901   5.672   1.630  1.4152  1.3370  0.4792
  666MOL0     H87912   5.728   5.858   1.647 -2.4754 -0.6845 -2.8072
  667MOL0     O87913   3.520   3.743   9.226 -1.0558 -0.4090  0.1788
  667MOL0     C87914   3.568   3.841   9.165  0.4442 -0.8594  0.2779
  667MOL0     O87915   3.503   3.935   9.074  0.2208  0.5281 -0.1896
  667MOL0     C87916   3.382   3.910   9.014 -1.0414  0.6584 -0.6503
  667MOL0     C87917   3.314   3.797   9.028  0.2372 -1.5083 -0.2923
  667MOL0     C87918   3.177   3.794   8.976 -0.6511 -0.8661 -0.5825
  667MOL0     C87919   3.106   3.903   8.927 -0.5816  0.1782 -0.4376
  667MOL0     O87920   2.972   3.885   8.888 -0.2074  0.7599 -1.2729
  667MOL0     C87921   2.957   3.805   8.773 -0.1199 -0.2390  0.7584
  667MOL0     C87922   2.897   3.899   8.667  0.0707  1.0215 -0.0462
  667MOL0     C87923   2.759   3.970   8.700  0.4546 -0.3317 -0.2908
  667MOL0     C87924   2.736   4.088   8.597 -0.4437  0.6069 -0.3219
  667MOL0     C87925   2.582   4.114   8.578  0.1127  0.1672 -0.5623
  667MOL0     C87926   2.515   4.168   8.701 -0.2304  0.4725  0.6113
  667MOL0     C87927   2.375   4.217   8.684  1.8342 -0.5668  0.1170
  667MOL0     C87928   2.362   4.339   8.609  0.0520 -0.4570  0.5211
  667MOL0     N87929   2.421   4.440   8.688  0.0788 -0.3211 -0.6388
  667MOL0     C87930   2.441   4.451   8.824  0.5478 -0.0702  0.7021
  667MOL0     C87931   2.494   4.574   8.841 -0.1254  0.9286 -0.3069
  667MOL0     C87932   2.561   4.650   8.950  0.2354 -0.6044  0.2672
  667MOL0     C87933   2.702   4.595   8.982  0.0717 -0.5896 -0.0612
  667MOL0     C87934   2.782   4.551   8.861 -0.6935 -0.2440  0.2845
  667MOL0     C87935   2.837   4.661   8.768 -0.6302  0.5096 -0.1839
  667MOL0     O87936   2.905   4.604   8.651  0.6462 -0.9651 -0.1706
  667MOL0     C87937   2.825   4.585   8.550 -0.1003 -0.2211  0.4649
  667MOL0     C87938   2.799   4.688   8.463  0.4030 -0.7499 -0.1670
  667MOL0     C87939   2.724   4.680   8.351  0.3564 -0.7210 -0.3710
  667MOL0     C87940   2.663   4.549   8.324  0.2032  0.1465  0.0669
  667MOL0     C87941   2.562   4.534   8.213 -0.2758  0.0952  0.0238
  667MOL0     O87942   2.546   4.412   8.162 -0.1833  0.4390 -0.2817
  667MOL0     C87943   2.468   4.402   8.050 -1.1189  0.5914  0.7877
  667MOL0     C87944   2.335   4.380   8.073  0.3756 -0.1572  0.3217
  667MOL0     C87945   2.248   4.354   7.973  0.1763 -0.3645  0.1622
  667MOL0     C87946   2.292   4.353   7.846 -0.9227 -0.3576  0.3337
  667MOL0     O87947   2.205   4.319   7.754 -0.4847 -0.1553  0.7775
  667MOL0     C87948   2.166   4.426   7.667 -0.0879 -0.0035 -0.1738
  667MOL0     C87949   2.025   4.419   7.624  0.1740  0.6005 -0.6288
  667MOL0     C87950   2.002   4.313   7.508  0.4270 -0.2249 -0.0664
  667MOL0     C87951   2.030   4.385   7.371  0.0734  0.0930 -0.2357
  667MOL0     C87952   2.068   4.298   7.255 -0.4323 -0.7024  0.0760
  667MOL0     C87953   1.960   4.197   7.211  0.4257  1.1853  0.7523
  667MOL0     C87954   2.005   4.115   7.089 -0.3786 -0.6984 -0.2209
  667MOL0     C87955   1.911   3.998   7.086 -0.1966  0.1362 -0.9655
  667MOL0    Cl87956   1.966   3.892   6.940 -0.5683 -0.1400  0.4371
  667MOL0     C87957   2.423   4.382   7.811 -0.7091  0.4943  1.3561
  667MOL0     C87958   2.514   4.408   7.915 -0.0679  0.8033 -0.5577
  667MOL0     O87959   2.500   4.633   8.183 -0.4287 -0.0609  0.3584
  667MOL0     C87960   2.702   4.441   8.404  0.0749  0.2495 -0.4161
  667MOL0     C87961   2.775   4.452   8.522 -0.9253 -0.5155  0.0093
  667MOL0     N87962   2.514   4.635   8.716 -0.9922 -0.0403 -0.1280
  667MOL0     N87963   2.465   4.550   8.629  0.0825 -0.2338 -0.2562
  667MOL0     C87964   3.181   4.021   8.913  0.4343 -0.0448 -0.5917
  667MOL0     C87965   3.315   4.022   8.952 -1.1175 -0.7777 -0.7772
  667MOL0     C87966   3.706   3.878   9.188  0.0126  0.6697  0.0226
  667MOL0     C87967   3.764   3.823   9.301  0.9495 -0.2319 -0.1308
  667MOL0     C87968   3.898   3.837   9.321 -0.1760  0.0414  0.5421
  667MOL0     C87969   3.984   3.901   9.242  0.0767 -0.0701 -0.0515
  667MOL0     O87970   4.122   3.893   9.257 -0.5310 -0.5690 -0.1641
  667MOL0     C87971   4.172   3.865   9.390 -0.1386  0.3967  0.3995
  667MOL0     C87972   4.319   3.856   9.402 -0.4884 -1.1914 -0.1943
  667MOL0     C87973   4.383   3.801   9.278  0.0156 -0.3907  0.1320
  667MOL0     C87974   4.536   3.788   9.300  0.2372 -1.1983  0.6887
  667MOL0     C87975   4.589   3.916   9.271  0.4373 -0.0939  0.3913
  667MOL0     C87976   4.642   4.025   9.266  0.1100 -0.5187 -0.4380
  667MOL0     C87977   3.926   3.963   9.131 -0.1266  0.1495 -0.8066
  667MOL0     C87978   3.785   3.958   9.109 -0.0960 -1.3440 -0.5452
  667MOL0     H87979   3.350   3.710   9.081  1.1867 -1.5641 -1.0109
  667MOL0     H87980   3.111   3.708   8.982 -0.1698 -1.2081 -0.1052
  667MOL0     H87981   2.886   3.727   8.803 -0.7609  0.5284  1.2762
  667MOL0     H87982   3.049   3.761   8.733 -0.2485 -1.2748  1.5404
  667MOL0     H87983   2.878   3.843   8.575  0.7669 -0.6400  0.7810
  667MOL0     H87984   2.975   3.975   8.649  0.4141  0.2462 -2.2047
  667MOL0     H87985   2.750   4.007   8.802  1.3700  2.8913 -1.2496
  667MOL0     H87986   2.675   3.905   8.676 -1.1322  1.5592 -0.0625
  667MOL0     H87987   2.788   4.176   8.637 -0.4263  1.3705 -1.9497
  667MOL0     H87988   2.784   4.065   8.501  2.9012  2.6137  0.7171
  667MOL0     H87989   2.524   4.032   8.536  0.9469 -0.0092 -1.4158
  667MOL0     H87990   2.579   4.189   8.499  0.3332  2.8679  1.8242
  667MOL0     H87991   2.582   4.244   8.743  1.7911 -1.3431  0.8758
  667MOL0     H87992   2.521   4.079   8.766 -2.1333  1.9867  3.0244
  667MOL0     H87993   2.309   4.145   8.635  1.9900 -2.3108  2.2633
  667MOL0     H87994   2.336   4.226   8.786  0.5478  0.4550 -0.4396
  667MOL0     H87995   2.257   4.371   8.603  0.1184 -0.0583  1.3727
  667MOL0     H87996   2.409   4.336   8.510 -0.4226 -0.7203  0.3029
  667MOL0     H87997   2.442   4.367   8.891  0.5686  0.2240  1.0749
  667MOL0     H87998   2.502   4.638   9.041  0.6439 -2.1800  0.3455
  667MOL0     H87999   2.571   4.756   8.924  0.4165 -0.6282  0.2336
  667MOL0     H88000   2.692   4.503   9.041  0.5673 -1.4203 -1.2300
  667MOL0     H88001   2.764   4.667   9.035  0.4761 -2.2200  1.7929
  667MOL0     H88002   2.866   4.493   8.900  1.6222  0.7940 -2.8045
  667MOL0     H88003   2.726   4.484   8.795  0.9501 -1.6861  0.2878
  667MOL0     H88004   2.906   4.726   8.823 -0.1078  0.1551 -0.4144
  667MOL0     H88005   2.751   4.719   8.732 -1.0699 -0.0796 -0.0898
  667MOL0     H88006   2.837   4.784   8.499 -1.2873 -1.1948  3.1318
  667MOL0     H88007   2.699   4.772   8.299  1.5957  1.4779  2.6528
  667MOL0     H88008   2.307   4.378   8.178  2.2958  3.2622  1.0410
  667MOL0     H88009   2.145   4.339   8.002  0.3255 -0.4990  0.6343
  667MOL0     H88010   2.235   4.427   7.581  1.1852  1.7883  0.7966
  667MOL0     H88011   2.173   4.522   7.719  0.6332 -0.6399  0.9487
  667MOL0     H88012   1.991   4.514   7.581 -2.3599  0.4913  0.9355
  667MOL0     H88013   1.949   4.403   7.700 -0.1240 -1.1234 -1.2444
  667MOL0     H88014   1.898   4.280   7.500  0.9820 -1.8746 -1.1407
  667MOL0     H88015   2.067   4.226   7.519  0.6987  0.1427  1.4471
  667MOL0     H88016   1.938   4.437   7.344 -2.1335 -2.2969  2.1467
  667MOL0     H88017   2.108   4.461   7.389 -0.6456  0.8303 -0.1891
  667MOL0     H88018   2.159   4.248   7.291  0.9004  0.6418 -1.2481
  667MOL0     H88019   2.108   4.352   7.169 -1.5560  2.5945  1.4510
  667MOL0     H88020   1.868   4.253   7.191 -1.3608 -1.5530  0.7558
  667MOL0     H88021   1.932   4.132   7.294 -2.0369  0.6539 -0.4091
  667MOL0     H88022   1.990   4.170   6.996 -1.4138  0.3652  0.5461
  667MOL0     H88023   2.107   4.078   7.095 -0.2623 -0.1846  2.0329
  667MOL0     H88024   1.809   4.031   7.064  0.0988  0.5807 -1.7432
  667MOL0     H88025   1.915   3.935   7.175  1.7202  1.0614 -0.3490
  667MOL0     H88026   2.453   4.378   7.707 -4.8030  0.1534  0.0078
  667MOL0     H88027   2.622   4.415   7.902 -0.3182  0.5361 -3.6783
  667MOL0     H88028   2.673   4.340   8.378  0.6083 -0.9585  3.1116
  667MOL0     H88029   2.799   4.382   8.602 -0.1978  1.0693  1.2313
  667MOL0     H88030   3.137   4.114   8.878  0.6060  1.9892  3.8648
  667MOL0     H88031   3.367   4.118   8.944  1.8031 -2.1927 -0.0374
  667MOL0     H88032   3.702   3.773   9.375  0.9185  1.4537  1.0467
  667MOL0     H88033   3.931   3.816   9.422 -0.5552 -0.3014  0.5973
  667MOL0     H88034   4.129   3.765   9.406 -1.6142  0.9772  0.2394
  667MOL0     H88035   4.135   3.930   9.470 -1.3595  1.6425 -1.1202
  667MOL0     H88036   4.357   3.959   9.407 -0.4108 -1.1306 -1.5710
  667MOL0     H88037   4.334   3.791   9.488  0.6809 -0.5183  0.1240
  667MOL0     H88038   4.363   3.864   9.190  0.4735  0.0935  0.3633
  667MOL0     H88039   4.344   3.699   9.273 -0.0796 -0.4532  1.6255
  667MOL0     H88040   4.565   3.750   9.399 -0.7736  2.3435  2.5253
  667MOL0     H88041   4.561   3.710   9.228 -0.4924  2.0793 -3.4650
  667MOL0     H88042   4.695   4.118   9.267  2.4493 -1.7822 -0.3161
  667MOL0     H88043   3.995   4.009   9.061 -1.5100  2.1618 -0.9397
  667MOL0     H88044   3.748   4.018   9.026  0.9326  1.0544  0.6313
  668MOL0     O88045  10.488   2.433   8.727 -0.0118  0.4054 -0.4189
  668MOL0     C88046  10.504   2.314   8.712 -0.5573 -0.0774  0.2541
  668MOL0     O88047  10.613   2.260   8.656 -0.4133  0.0667  0.3083
  668MOL0     C88048  10.707   2.349   8.617  0.6930 -0.5662 -0.9510
  668MOL0     C88049  10.824   2.368   8.692 -0.0807 -0.8968 -0.3753
  668MOL0     C88050  10.927   2.451   8.647  0.2511 -0.2300 -0.5554
  668MOL0     C88051  10.908   2.516   8.527  0.4829 -0.4549  0.3890
  668MOL0     O88052  11.013   2.582   8.473 -0.1641  0.2113  0.7533
  668MOL0     C88053  11.081   2.685   8.547 -0.0093 -0.1643  0.6876
  668MOL0     C88054  11.103   2.817   8.476 -0.6289 -0.1289 -0.5291
  668MOL0     C88055  11.201   2.900   8.562  0.8409 -0.0551 -0.1034
  668MOL0     C88056  11.215   3.033   8.499  0.1181 -0.1217  0.9563
  668MOL0     C88057  11.087   3.128   8.466 -1.1639  0.0532  0.3937
  668MOL0     C88058  10.978   3.136   8.570 -0.2698 -0.9867  0.1536
  668MOL0     C88059  10.886   3.257   8.539 -0.3211 -0.0022 -0.8996
  668MOL0     C88060  10.785   3.296   8.649 -1.0388 -0.4488 -0.2332
  668MOL0     N88061  10.716   3.423   8.618 -0.4296  0.6799  0.1160
  668MOL0     C88062  10.608   3.446   8.533  0.4245  0.1266  0.8619
  668MOL0     C88063  10.553   3.565   8.559 -0.4487  0.5232 -0.3153
  668MOL0     C88064  10.427   3.623   8.515  0.3759 -0.0735 -1.0021
  668MOL0     C88065  10.456   3.702   8.382  0.8045  0.2525  0.5545
  668MOL0     C88066  10.331   3.774   8.343 -0.1615 -0.9156  0.1630
  668MOL0     C88067  10.223   3.679   8.294 -0.6584 -0.0453 -0.2848
  668MOL0     O88068  10.235   3.664   8.154 -0.4024  0.3803 -0.1470
  668MOL0     C88069  10.166   3.553   8.106  0.4213 -0.6611 -0.2044
  668MOL0     C88070  10.196   3.504   7.980  0.0542  0.1347 -0.3313
  668MOL0     C88071  10.137   3.390   7.920  0.6163  0.6721  0.5262
  668MOL0     C88072  10.028   3.329   7.978 -0.3758 -0.0953  0.6179
  668MOL0     C88073   9.955   3.215   7.912  0.3246 -1.1132  0.9490
  668MOL0     O88074   9.971   3.210   7.770  0.4066 -0.4035  0.3215
  668MOL0     C88075   9.913   3.114   7.696  0.5641 -0.4889 -0.7169
  668MOL0     C88076   9.854   3.148   7.572 -0.4398 -0.0691 -0.5752
  668MOL0     C88077   9.790   3.049   7.496 -0.8190 -0.7561  0.2272
  668MOL0     C88078   9.797   2.915   7.541  0.0258 -1.2100  0.7142
  668MOL0     O88079   9.751   2.817   7.462  0.3390  0.0789  0.3215
  668MOL0     C88080   9.630   2.833   7.380 -0.6583 -0.2209 -0.0285
  668MOL0     C88081   9.566   2.707   7.357 -0.5171 -0.1570  0.6314
  668MOL0     C88082   9.654   2.613   7.273  0.2503 -0.1621  0.0042
  668MOL0     C88083   9.685   2.487   7.353  0.2246 -0.6349  0.1868
  668MOL0     C88084   9.790   2.400   7.284  0.6666  0.7614 -0.2059
  668MOL0     C88085   9.739   2.344   7.148 -0.2434  0.1077 -0.8070
  668MOL0     C88086   9.833   2.236   7.085 -0.3919 -0.0515 -0.3817
  668MOL0     C88087   9.771   2.101   7.057  0.1326 -0.3816 -0.1032
  668MOL0    Cl88088   9.884   1.981   6.997 -0.0946  0.3351  0.2976
  668MOL0     C88089   9.866   2.888   7.648  0.3983  0.5055 -0.0357
  668MOL0     C88090   9.920   2.981   7.738  0.2481  0.4589 -0.0037
  668MOL0     O88091   9.880   3.144   7.976 -0.2849  0.6677  0.8981
  668MOL0     C88092   9.998   3.378   8.106 -0.0837 -0.7615  0.0674
  668MOL0     C88093  10.064   3.482   8.177  0.1087 -0.2162 -0.2042
  668MOL0     N88094  10.648   3.626   8.634  0.1682 -0.5018 -0.6097
  668MOL0     N88095  10.750   3.542   8.664  0.2539  0.8876  1.1449
  668MOL0     C88096  10.790   2.497   8.454 -0.4335  0.0206 -0.8327
  668MOL0     C88097  10.692   2.415   8.496 -0.5242 -0.1351  0.6932
  668MOL0     C88098  10.408   2.223   8.779  0.1531  0.2707  0.8195
  668MOL0     C88099  10.316   2.280   8.873 -0.6587 -0.2373  0.0872
  668MOL0     C88100  10.223   2.204   8.936 -0.0728 -0.3105  0.3713
  668MOL0     C88101  10.197   2.071   8.899 -0.0277 -0.1243 -1.2237
  668MOL0     O88102  10.097   2.013   8.970 -0.6294 -0.6796 -0.2554
  668MOL0     C88103  10.018   1.924   8.898  0.4855  0.6509 -0.5299
  668MOL0     C88104   9.871   1.930   8.938 -0.3996  0.3159  1.0955
  668MOL0     C88105   9.816   2.062   8.892 -0.3219 -0.4523 -0.8390
  668MOL0     C88106   9.664   2.061   8.905 -0.3523  0.9034  0.3619
  668MOL0     C88107   9.622   2.197   8.866  0.1937 -0.1110  0.2912
  668MOL0     C88108   9.607   2.314   8.840 -0.1436 -0.5010  0.3029
  668MOL0     C88109  10.283   2.009   8.802 -1.2984 -0.8499  0.1283
  668MOL0     C88110  10.385   2.089   8.739 -0.6254 -0.0058 -0.6566
  668MOL0     H88111  10.846   2.321   8.787  1.7678  2.1541  0.8706
  668MOL0     H88112  11.014   2.474   8.707 -1.0519 -0.1500  1.4092
  668MOL0     H88113  11.178   2.639   8.571  0.3064 -2.3351 -3.7135
  668MOL0     H88114  11.017   2.712   8.631 -1.8204  0.4354 -0.8284
  668MOL0     H88115  11.004   2.863   8.480 -0.1600  0.9115 -0.6441
  668MOL0     H88116  11.136   2.810   8.372  3.4419 -0.6311  0.6381
  668MOL0     H88117  11.299   2.852   8.574 -0.6640 -3.1555  0.8116
  668MOL0     H88118  11.155   2.910   8.661 -0.3416 -0.3245 -0.6130
  668MOL0     H88119  11.277   3.091   8.568 -3.6329  2.9150  2.1348
  668MOL0     H88120  11.272   3.024   8.406 -1.4002  0.6666 -0.1099
  668MOL0     H88121  11.047   3.089   8.372  0.5846  0.4756 -0.5679
  668MOL0     H88122  11.127   3.227   8.445 -1.0413  0.7710  3.5060
  668MOL0     H88123  11.035   3.171   8.657  2.2600 -1.7045 -1.1109
  668MOL0     H88124  10.915   3.047   8.584 -1.5719  0.0868  1.3795
  668MOL0     H88125  10.950   3.344   8.522 -0.8449  1.2081  2.4601
  668MOL0     H88126  10.844   3.239   8.440  2.8281 -0.7857 -2.2330
  668MOL0     H88127  10.832   3.314   8.746 -2.4344  0.8248  0.2525
  668MOL0     H88128  10.716   3.211   8.649  1.0315 -2.2615 -2.0321
  668MOL0     H88129  10.562   3.372   8.467  2.6223  0.1209 -0.8014
  668MOL0     H88130  10.386   3.687   8.592 -0.6684 -0.5991 -1.1022
  668MOL0     H88131  10.357   3.539   8.508  0.3604 -0.1579  0.0637
  668MOL0     H88132  10.486   3.634   8.302 -4.6038  2.7108 -4.3156
  668MOL0     H88133  10.536   3.777   8.392  1.7903 -0.5656 -0.8489
  668MOL0     H88134  10.295   3.815   8.437  0.5104  0.1476 -0.0218
  668MOL0     H88135  10.346   3.859   8.274  1.0776  0.5646  2.1521
  668MOL0     H88136  10.129   3.728   8.321  0.8288  1.3381  2.7697
  668MOL0     H88137  10.222   3.587   8.353 -0.8101  1.2225  1.7705
  668MOL0     H88138  10.268   3.558   7.920 -1.2515  2.6126  0.2093
  668MOL0     H88139  10.188   3.366   7.828 -0.2910  2.1930 -0.4064
  668MOL0     H88140   9.884   3.246   7.535 -2.1203  0.4164 -0.7263
  668MOL0     H88141   9.741   3.088   7.407 -2.0864 -0.7705  0.8882
  668MOL0     H88142   9.649   2.897   7.293  0.2776  2.7408  2.2058
  668MOL0     H88143   9.563   2.892   7.443 -1.2251  0.9136 -1.6208
  668MOL0     H88144   9.488   2.743   7.289  0.0855  0.4123  0.2257
  668MOL0     H88145   9.524   2.653   7.442 -3.1191 -0.1951 -0.5799
  668MOL0     H88146   9.739   2.673   7.240 -1.5730  2.9629  0.5645
  668MOL0     H88147   9.601   2.584   7.182  1.1387 -1.4752 -0.1175
  668MOL0     H88148   9.735   2.536   7.437  2.2478  0.3513 -1.5055
  668MOL0     H88149   9.600   2.424   7.383 -0.0863 -0.0202  0.6086
  668MOL0     H88150   9.821   2.317   7.348 -1.4305  0.6173  0.7013
  668MOL0     H88151   9.882   2.454   7.261  1.0397 -1.0637 -3.4516
  668MOL0     H88152   9.729   2.418   7.069  3.5553  0.6558 -0.9559
  668MOL0     H88153   9.640   2.303   7.170 -1.0430  1.6810 -1.3977
  668MOL0     H88154   9.877   2.268   6.990 -1.8789  0.5530 -0.9004
  668MOL0     H88155   9.914   2.220   7.156 -4.0876  0.1799  4.3823
  668MOL0     H88156   9.697   2.114   6.977  1.4744 -1.2354 -1.5366
  668MOL0     H88157   9.719   2.062   7.145  1.3079 -1.9136 -0.0500
  668MOL0     H88158   9.863   2.786   7.686 -1.2402 -0.0685 -1.5892
  668MOL0     H88159   9.973   2.954   7.829  1.5296  0.7295 -0.6406
  668MOL0     H88160   9.913   3.337   8.161 -0.2284 -0.6079 -0.0429
  668MOL0     H88161  10.032   3.507   8.277 -0.5397  0.6407 -0.6065
  668MOL0     H88162  10.784   2.549   8.359  0.8375  0.6043 -0.6172
  668MOL0     H88163  10.609   2.389   8.432 -2.6832 -0.2549  3.3629
  668MOL0     H88164  10.342   2.381   8.906  4.5984 -1.3292  0.0849
  668MOL0     H88165  10.161   2.252   9.011  0.4259 -2.7845  2.5005
  668MOL0     H88166  10.039   1.820   8.925 -2.0565  0.1343 -0.2764
  668MOL0     H88167  10.027   1.929   8.789  0.4208 -0.1326 -0.5757
  668MOL0     H88168   9.810   1.851   8.893  1.1479 -1.0568  1.3308
  668MOL0     H88169   9.887   1.914   9.045  3.7282 -0.9143  0.4474
  668MOL0     H88170   9.844   2.059   8.786  0.2321 -1.3863 -0.6862
  668MOL0     H88171   9.856   2.149   8.944 -0.8049 -0.4663 -0.4463
  668MOL0     H88172   9.614   1.985   8.845 -4.1722  0.7309  3.3224
  668MOL0     H88173   9.625   2.050   9.007 -2.4416  0.8840 -0.3805
  668MOL0     H88174   9.599   2.419   8.824  1.0373 -0.8286 -3.6968
  668MOL0     H88175  10.265   1.905   8.775 -4.6312 -0.2539 -0.3677
  668MOL0     H88176  10.448   2.043   8.664  2.2618  2.1870  0.2190
  669MOL0     O88177   5.935  10.964   4.727 -0.0149 -0.7329 -0.1354
  669MOL0     C88178   5.845  11.019   4.664 -0.5173  0.0159  0.6355
  669MOL0     O88179   5.763  10.950   4.573 -0.2031 -0.6271  0.5070
  669MOL0     C88180   5.779  10.814   4.537 -0.9575  0.7316 -0.0892
  669MOL0     C88181   5.749  10.795   4.402  0.3610 -0.0674  0.1302
  669MOL0     C88182   5.760  10.661   4.353 -0.0843 -1.0878  0.1150
  669MOL0     C88183   5.804  10.558   4.436 -0.1365 -0.5550  0.4256
  669MOL0     O88184   5.801  10.438   4.379 -0.2324 -0.2811  0.3128
  669MOL0     C88185   5.776  10.321   4.459 -0.9963 -0.0192  0.3767
  669MOL0     C88186   5.801  10.198   4.368  0.0437 -0.2203  0.0696
  669MOL0     C88187   5.730  10.219   4.231  0.0040  1.0064  0.4772
  669MOL0     C88188   5.716  10.087   4.156  0.6350 -0.8168 -0.2930
  669MOL0     C88189   5.648   9.977   4.233 -0.1685 -0.1578  0.1788
  669MOL0     C88190   5.611   9.860   4.146 -0.5121  0.0745 -0.9990
  669MOL0     C88191   5.524   9.750   4.212 -0.0113 -1.2637 -0.0845
  669MOL0     C88192   5.386   9.787   4.280 -0.4138 -0.3126  0.3331
  669MOL0     N88193   5.348   9.659   4.329  0.0347 -0.0519  0.7889
  669MOL0     C88194   5.245   9.590   4.271  0.2325  0.2500 -1.1725
  669MOL0     C88195   5.224   9.483   4.359  0.2570 -0.2311  0.8262
  669MOL0     C88196   5.142   9.354   4.323 -0.0236  0.4939 -0.1730
  669MOL0     C88197   4.995   9.344   4.381 -0.5666  0.4453 -0.3323
  669MOL0     C88198   4.880   9.417   4.297 -0.4538 -0.1251 -0.6681
  669MOL0     C88199   4.896   9.566   4.314  0.2988  0.4014 -0.6261
  669MOL0     O88200   4.776   9.617   4.250  0.4548  0.4899  0.4232
  669MOL0     C88201   4.785   9.744   4.202 -0.2819  0.0938  0.2670
  669MOL0     C88202   4.730   9.769   4.070 -0.8108  0.1110  0.4603
  669MOL0     C88203   4.725   9.898   4.016 -0.0269  0.3977  0.3882
  669MOL0     C88204   4.778  10.011   4.086  0.3268  0.5712 -0.2233
  669MOL0     C88205   4.778  10.143   4.013  0.4573  0.2367  0.0857
  669MOL0     O88206   4.726  10.149   3.884 -0.3842  0.4098 -0.1654
  669MOL0     C88207   4.722  10.277   3.829 -0.2649 -0.5248 -1.1169
  669MOL0     C88208   4.831  10.319   3.742 -0.1020 -0.7885  0.2764
  669MOL0     C88209   4.817  10.440   3.672 -0.0253  0.1817 -0.3657
  669MOL0     C88210   4.705  10.521   3.700 -0.5340  0.2446 -0.4288
  669MOL0     O88211   4.676  10.644   3.641 -0.0945  0.2201 -0.2921
  669MOL0     C88212   4.755  10.682   3.527 -0.1553 -0.7657  0.6739
  669MOL0     C88213   4.702  10.814   3.464 -1.3364  0.1935 -0.8848
  669MOL0     C88214   4.581  10.785   3.376  0.0279 -0.2200  0.0073
  669MOL0     C88215   4.540  10.912   3.315  0.5285  0.3236  0.8909
  669MOL0     C88216   4.420  10.900   3.221 -0.1513  0.0091 -0.2194
  669MOL0     C88217   4.380  11.046   3.172  0.3661  0.3626 -0.3257
  669MOL0     C88218   4.279  11.030   3.055  0.2609 -0.0197  0.5149
  669MOL0     C88219   4.225  11.168   2.996  0.6521 -0.2337  0.3317
  669MOL0    Cl88220   4.359  11.200   2.886  0.3539 -0.3667 -0.2180
  669MOL0     C88221   4.610  10.491   3.795 -0.0624 -0.2441  0.1162
  669MOL0     C88222   4.614  10.367   3.860 -0.3883 -0.1480 -0.2869
  669MOL0     O88223   4.844  10.232   4.068  0.6587  0.1833  0.5972
  669MOL0     C88224   4.835   9.987   4.213  0.3379  0.1109 -0.6357
  669MOL0     C88225   4.846   9.854   4.262  0.0909  0.1831 -0.0846
  669MOL0     N88226   5.321   9.485   4.455  0.4666 -0.1093  0.3019
  669MOL0     N88227   5.389   9.598   4.442 -0.5961 -0.4921  0.6727
  669MOL0     C88228   5.842  10.580   4.570 -0.0291 -0.1554 -0.5833
  669MOL0     C88229   5.830  10.710   4.619 -0.4062 -0.0600  0.5635
  669MOL0     C88230   5.839  11.172   4.665  0.2422  0.1964  0.3560
  669MOL0     C88231   5.723  11.229   4.616 -0.2391 -0.0402 -0.0563
  669MOL0     C88232   5.699  11.372   4.624 -0.5048 -0.7741 -0.2377
  669MOL0     C88233   5.787  11.464   4.675 -0.0556  0.1871 -0.0895
  669MOL0     O88234   5.751  11.599   4.671  0.0641  0.3548 -0.0085
  669MOL0     C88235   5.851  11.697   4.706  0.4404 -0.0333  0.6571
  669MOL0     C88236   5.800  11.839   4.697 -0.7661  1.5552  0.1287
  669MOL0     C88237   5.718  11.882   4.562 -0.2043  0.7595 -0.4182
  669MOL0     C88238   5.668  12.018   4.597  0.4167  0.3390 -0.5521
  669MOL0     C88239   5.565  12.080   4.508  1.7156 -0.1959 -0.4565
  669MOL0     C88240   5.496  12.133   4.419  0.0476 -0.2269 -0.1120
  669MOL0     C88241   5.912  11.412   4.718  0.3230 -0.2773 -0.2742
  669MOL0     C88242   5.929  11.264   4.715 -0.0175 -0.3179 -0.4003
  669MOL0     H88243   5.707  10.870   4.336 -1.7189  2.8125  4.2812
  669MOL0     H88244   5.729  10.640   4.251 -0.9537  2.6427 -0.5693
  669MOL0     H88245   5.671  10.307   4.484 -1.2910 -0.0384 -0.7795
  669MOL0     H88246   5.845  10.320   4.544 -0.9774  3.4572  0.5604
  669MOL0     H88247   5.751  10.111   4.414  0.3387 -0.4031  0.0435
  669MOL0     H88248   5.907  10.182   4.351 -0.0720 -2.7451  1.2994
  669MOL0     H88249   5.787  10.291   4.172  2.3931 -2.0168 -1.2028
  669MOL0     H88250   5.629  10.257   4.247 -0.4803  0.4737 -1.1511
  669MOL0     H88251   5.651  10.105   4.070 -2.4711  0.6179  2.1319
  669MOL0     H88252   5.817  10.056   4.131  1.4259  1.1401  0.2598
  669MOL0     H88253   5.550  10.017   4.259 -1.7800 -2.4168 -1.9194
  669MOL0     H88254   5.716   9.930   4.304  0.1953  0.1115  0.0066
  669MOL0     H88255   5.705   9.812   4.118  1.3507  2.8749 -0.0535
  669MOL0     H88256   5.551   9.887   4.059 -3.3332 -1.4953  0.3298
  669MOL0     H88257   5.508   9.679   4.131  1.8392  0.1621 -1.8032
  669MOL0     H88258   5.596   9.696   4.273  2.1034  0.7841 -0.5928
  669MOL0     H88259   5.311   9.818   4.208 -0.9190 -0.1498  0.9214
  669MOL0     H88260   5.400   9.858   4.362 -2.1385  0.3636  0.0743
  669MOL0     H88261   5.203   9.602   4.171  1.6006  3.7849 -1.4595
  669MOL0     H88262   5.195   9.272   4.373 -0.4409 -0.1957 -0.8368
  669MOL0     H88263   5.135   9.331   4.217  0.6626  1.9778 -0.5555
  669MOL0     H88264   4.979   9.380   4.483 -0.5109 -2.9150  0.9805
  669MOL0     H88265   4.965   9.239   4.384 -3.2223  1.1072 -1.0196
  669MOL0     H88266   4.878   9.381   4.193  1.7262  0.1628 -0.8564
  669MOL0     H88267   4.794   9.378   4.352  0.3143  0.4679  0.9873
  669MOL0     H88268   4.985   9.613   4.272  1.9938 -3.2854 -1.5777
  669MOL0     H88269   4.886   9.598   4.419 -1.7718  2.6853 -1.4118
  669MOL0     H88270   4.720   9.685   4.001  2.4434 -0.9393  1.1087
  669MOL0     H88271   4.679   9.909   3.919 -1.5551 -0.0762  1.0331
  669MOL0     H88272   4.921  10.264   3.720 -1.2176 -2.1381 -1.1408
  669MOL0     H88273   4.899  10.471   3.607  0.4697 -1.0678 -0.3689
  669MOL0     H88274   4.755  10.602   3.453 -0.5940 -0.7702  0.6777
  669MOL0     H88275   4.858  10.703   3.558 -0.2984  1.0585  0.0846
  669MOL0     H88276   4.773  10.862   3.395 -1.9193  1.8322 -0.3929
  669MOL0     H88277   4.689  10.890   3.541  0.2498 -0.3668 -0.0088
  669MOL0     H88278   4.492  10.752   3.429 -1.9330  0.5746 -2.5617
  669MOL0     H88279   4.609  10.715   3.296 -0.0752 -0.0531 -0.1745
  669MOL0     H88280   4.503  10.978   3.393 -0.1696  1.7004 -0.5418
  669MOL0     H88281   4.622  10.965   3.264  2.3926 -1.4652  1.9146
  669MOL0     H88282   4.330  10.863   3.272 -1.0851  0.8578 -1.1853
  669MOL0     H88283   4.452  10.849   3.130  5.0865  1.8589  0.2333
  669MOL0     H88284   4.467  11.103   3.138  1.9174 -2.1495 -0.8111
  669MOL0     H88285   4.326  11.098   3.252  0.3284 -0.5784  0.2778
  669MOL0     H88286   4.321  10.963   2.981 -2.2586 -0.3384 -0.7408
  669MOL0     H88287   4.197  10.971   3.096  0.8019 -1.1531 -0.0107
  669MOL0     H88288   4.192  11.241   3.070 -1.3468 -1.7747  1.0619
  669MOL0     H88289   4.137  11.158   2.932 -0.5873  3.2441  1.2832
  669MOL0     H88290   4.542  10.574   3.815  0.2590  0.5484 -1.8613
  669MOL0     H88291   4.539  10.335   3.932 -2.0342 -0.2222 -1.9544
  669MOL0     H88292   4.892  10.065   4.261  1.8322 -1.2670 -0.0718
  669MOL0     H88293   4.894   9.831   4.357  0.5194 -0.1591 -0.3803
  669MOL0     H88294   5.868  10.496   4.634 -0.8954  0.7540  1.0306
  669MOL0     H88295   5.840  10.720   4.727 -1.4480  2.8760  0.4780
  669MOL0     H88296   5.646  11.164   4.574  1.9372 -1.7114 -1.6599
  669MOL0     H88297   5.605  11.414   4.592 -0.8152 -1.4307 -0.1908
  669MOL0     H88298   5.936  11.689   4.638 -0.0007  0.1284  0.0833
  669MOL0     H88299   5.888  11.682   4.808  0.9671  0.6934  0.5833
  669MOL0     H88300   5.742  11.860   4.787 -2.2861  3.1431 -1.1351
  669MOL0     H88301   5.889  11.900   4.710  0.3133 -0.3779  2.6115
  669MOL0     H88302   5.638  11.812   4.534  0.0727  0.7499 -1.1904
  669MOL0     H88303   5.785  11.896   4.478  0.9220  0.2995  0.3774
  669MOL0     H88304   5.616  12.014   4.693 -1.5953  1.0261 -1.5541
  669MOL0     H88305   5.754  12.082   4.621  0.3045  0.0183  0.8153
  669MOL0     H88306   5.439  12.200   4.357  1.8056  1.0387 -0.4545
  669MOL0     H88307   5.993  11.476   4.753 -0.2294  0.2447  0.0647
  669MOL0     H88308   6.021  11.216   4.749 -0.1426 -0.1258  0.2240
  670MOL0     O88309   8.355   5.314   5.938 -0.3653 -0.1135 -0.9065
  670MOL0     C88310   8.334   5.430   5.986  0.3199  0.0143  0.2274
  670MOL0     O88311   8.375   5.544   5.923 -0.3488 -0.0251  0.3182
  670MOL0     C88312   8.426   5.535   5.793 -0.1215 -0.1197 -0.0557
  670MOL0     C88313   8.554   5.588   5.764 -0.3954  0.2823  0.1657
  670MOL0     C88314   8.604   5.581   5.633  0.5069  0.1256  0.0479
  670MOL0     C88315   8.529   5.525   5.525  0.5007 -0.2878 -0.4019
  670MOL0     O88316   8.580   5.519   5.399 -0.3206 -0.4547 -0.0118
  670MOL0     C88317   8.492   5.566   5.301 -0.6566 -0.1438  0.4548
  670MOL0     C88318   8.575   5.650   5.205 -0.3882  0.2419  0.1856
  670MOL0     C88319   8.641   5.766   5.277  0.0257  0.2790  0.9032
  670MOL0     C88320   8.749   5.823   5.177  0.9451  0.7130  0.6852
  670MOL0     C88321   8.801   5.956   5.227  0.5977  0.0281 -0.1098
  670MOL0     C88322   8.891   6.032   5.130 -0.7082 -0.0325 -0.0373
  670MOL0     C88323   8.947   6.157   5.209 -0.2677 -0.4498 -0.7904
  670MOL0     C88324   9.002   6.277   5.118 -0.3677  0.6817  0.3965
  670MOL0     N88325   9.126   6.246   5.058 -0.5742 -0.4914 -0.7423
  670MOL0     C88326   9.174   6.295   4.945 -1.1376  0.0280 -1.1832
  670MOL0     C88327   9.300   6.250   4.916 -0.3018  0.0359 -0.9609
  670MOL0     C88328   9.388   6.238   4.781  1.2695  0.0703  0.3871
  670MOL0     C88329   9.401   6.083   4.725  0.5240 -0.4190 -0.4112
  670MOL0     C88330   9.263   6.020   4.693 -0.7859  0.0958  0.3328
  670MOL0     C88331   9.276   5.923   4.571  0.0026  0.3186 -0.3932
  670MOL0     O88332   9.147   5.886   4.508  0.1504 -0.4188 -0.4621
  670MOL0     C88333   9.090   5.773   4.561 -0.2902 -0.8833 -0.1120
  670MOL0     C88334   9.111   5.727   4.687 -0.1068 -0.9371 -0.3455
  670MOL0     C88335   9.043   5.622   4.742 -0.1120  0.6457 -0.5847
  670MOL0     C88336   8.942   5.564   4.668  0.8955 -0.3492  0.1781
  670MOL0     C88337   8.891   5.432   4.724  0.1941 -1.0674 -0.8608
  670MOL0     O88338   8.954   5.395   4.842 -0.2414  0.7547  0.5482
  670MOL0     C88339   8.879   5.316   4.929  0.6543 -0.1519 -0.2158
  670MOL0     C88340   8.835   5.385   5.045 -0.0185 -0.5694  0.6070
  670MOL0     C88341   8.744   5.320   5.129  0.7416  1.1369  0.2330
  670MOL0     C88342   8.696   5.187   5.093 -0.2584 -0.3554 -0.4614
  670MOL0     O88343   8.602   5.119   5.170 -0.3080  0.0855  0.1858
  670MOL0     C88344   8.487   5.197   5.203  0.1991 -0.0720  0.3550
  670MOL0     C88345   8.407   5.273   5.088  0.2278  0.4329 -0.4558
  670MOL0     C88346   8.366   5.165   4.987 -0.6289  0.0147 -0.4195
  670MOL0     C88347   8.319   5.229   4.859  0.3818 -0.0423  0.7868
  670MOL0     C88348   8.358   5.139   4.742  0.9586 -0.3805 -0.9158
  670MOL0     C88349   8.237   5.034   4.718  0.6610 -1.1566 -0.6102
  670MOL0     C88350   8.293   4.923   4.620 -0.3478  0.5567  0.9629
  670MOL0     C88351   8.350   4.794   4.687  0.2876 -0.3963 -0.4715
  670MOL0    Cl88352   8.353   4.658   4.577 -0.5388  0.2639  0.2361
  670MOL0     C88353   8.743   5.132   4.980  1.1359  0.3304  0.4300
  670MOL0     C88354   8.844   5.189   4.897  0.5337  1.3876  0.0720
  670MOL0     O88355   8.794   5.378   4.677 -0.7078 -0.5697  0.1860
  670MOL0     C88356   8.916   5.609   4.539  0.7255 -0.2461 -0.1204
  670MOL0     C88357   8.979   5.720   4.487 -0.1626  0.5710 -0.7004
  670MOL0     N88358   9.334   6.174   5.031  0.0006  0.0472  1.1190
  670MOL0     N88359   9.237   6.181   5.115  0.5030 -0.3758 -0.6201
  670MOL0     C88360   8.401   5.472   5.559 -0.3919  0.0047 -0.5944
  670MOL0     C88361   8.353   5.472   5.696  0.6832  0.4019  0.4300
  670MOL0     C88362   8.250   5.444   6.098 -0.2238  0.2361 -0.7886
  670MOL0     C88363   8.191   5.326   6.158 -0.2517 -0.1181 -0.1603
  670MOL0     C88364   8.117   5.339   6.268 -0.0186 -0.0198 -0.4585
  670MOL0     C88365   8.090   5.459   6.336  0.5906  0.8813  0.0586
  670MOL0     O88366   8.001   5.448   6.440 -0.1158  0.2674 -0.2421
  670MOL0     C88367   7.958   5.570   6.485 -0.4028 -0.5902 -0.9291
  670MOL0     C88368   8.063   5.636   6.581 -0.0083 -0.2895 -0.2608
  670MOL0     C88369   8.008   5.750   6.668  1.1655  0.4611  0.6106
  670MOL0     C88370   8.120   5.831   6.728 -0.1308 -0.1932 -0.0608
  670MOL0     C88371   8.218   5.893   6.634 -0.7983  0.1119 -0.5561
  670MOL0     C88372   8.305   5.933   6.566  0.6785 -0.4890  0.7097
  670MOL0     C88373   8.139   5.571   6.270  0.3275  0.8369  0.2403
  670MOL0     C88374   8.214   5.567   6.155 -0.1109  0.2680 -0.1055
  670MOL0     H88375   8.609   5.626   5.849 -1.6843  1.0570  0.6944
  670MOL0     H88376   8.699   5.610   5.589  1.0800  0.1645  1.2578
  670MOL0     H88377   8.410   5.628   5.337 -0.0044  2.0013 -1.4980
  670MOL0     H88378   8.458   5.479   5.244 -0.7640 -2.1973  3.4001
  670MOL0     H88379   8.513   5.678   5.119  0.9661  0.7407 -0.6582
  670MOL0     H88380   8.656   5.588   5.166 -0.1226  0.5232  0.2828
  670MOL0     H88381   8.700   5.741   5.366  0.3163  0.7361  0.8452
  670MOL0     H88382   8.568   5.845   5.297  1.8487  1.9388  1.3720
  670MOL0     H88383   8.826   5.747   5.159 -3.5483 -4.4281  0.4328
  670MOL0     H88384   8.702   5.857   5.084  2.9386 -2.3664 -1.6563
  670MOL0     H88385   8.859   5.940   5.318  1.0068  1.9271  0.0150
  670MOL0     H88386   8.717   6.015   5.264  0.2791 -3.0115  4.8815
  670MOL0     H88387   8.833   6.072   5.046  2.1714  0.4605 -1.9348
  670MOL0     H88388   8.977   5.975   5.093 -0.6625 -0.1859  0.3085
  670MOL0     H88389   8.869   6.205   5.269  0.0473  0.5122 -1.1388
  670MOL0     H88390   9.033   6.115   5.262  0.2171 -2.1915 -2.7800
  670MOL0     H88391   9.002   6.364   5.184 -1.8158  0.6501  0.4747
  670MOL0     H88392   8.919   6.305   5.052 -2.0475  1.4538  2.6984
  670MOL0     H88393   9.112   6.341   4.868  0.4063  2.3019 -1.1750
  670MOL0     H88394   9.484   6.289   4.787  2.4994 -1.6032 -2.8016
  670MOL0     H88395   9.340   6.296   4.701 -0.4212  0.2309  1.4612
  670MOL0     H88396   9.460   6.031   4.801  2.6533  2.8655  0.3776
  670MOL0     H88397   9.466   6.081   4.637  2.0124 -0.5579  0.6589
  670MOL0     H88398   9.227   5.966   4.781 -0.6545 -1.1423 -0.3468
  670MOL0     H88399   9.192   6.100   4.672 -0.7378 -0.4250 -2.0786
  670MOL0     H88400   9.347   5.841   4.581 -1.8154 -0.9897  4.1977
  670MOL0     H88401   9.317   5.987   4.492  0.2587 -0.6310 -1.0488
  670MOL0     H88402   9.185   5.774   4.751 -1.0209  1.5569 -0.9858
  670MOL0     H88403   9.081   5.587   4.837 -0.7126  0.9792 -0.2116
  670MOL0     H88404   8.869   5.488   5.052 -1.3746 -0.0719  0.1621
  670MOL0     H88405   8.707   5.381   5.210  3.8486  2.0872  1.0811
  670MOL0     H88406   8.519   5.271   5.276 -1.4861  1.5580 -0.4646
  670MOL0     H88407   8.420   5.127   5.254 -0.1510 -0.0573 -0.0763
  670MOL0     H88408   8.467   5.354   5.044  2.2612 -0.8394 -0.1917
  670MOL0     H88409   8.313   5.314   5.125 -0.4096 -0.7445 -0.7332
  670MOL0     H88410   8.284   5.097   5.009 -2.5066  0.5265 -4.8551
  670MOL0     H88411   8.456   5.105   4.971 -0.0069  0.2138  1.9695
  670MOL0     H88412   8.213   5.254   4.852  0.4056  0.3786  1.8384
  670MOL0     H88413   8.378   5.320   4.841 -1.9760  1.7351  1.6006
  670MOL0     H88414   8.456   5.095   4.760  2.0240  1.4460 -2.0177
  670MOL0     H88415   8.365   5.200   4.652 -0.5509 -1.0346 -1.5123
  670MOL0     H88416   8.159   5.096   4.673  1.1351 -0.3881 -0.4041
  670MOL0     H88417   8.208   4.989   4.813  0.6701  0.0026 -0.0447
  670MOL0     H88418   8.208   4.888   4.561  0.6072  0.8100 -0.5949
  670MOL0     H88419   8.368   4.964   4.552  1.0311 -0.9447  1.5061
  670MOL0     H88420   8.288   4.761   4.771  0.1519  1.1958  0.0738
  670MOL0     H88421   8.444   4.827   4.731 -1.3828  3.1615  0.7423
  670MOL0     H88422   8.690   5.039   4.963 -1.0759  1.0358  2.7374
  670MOL0     H88423   8.870   5.137   4.805  0.9932 -0.4698  1.1907
  670MOL0     H88424   8.833   5.560   4.490  1.9215  0.6569 -3.2999
  670MOL0     H88425   8.968   5.761   4.387  3.8525  0.1359 -1.5126
  670MOL0     H88426   8.351   5.421   5.478 -2.0701  0.9568 -0.1970
  670MOL0     H88427   8.254   5.447   5.733  2.1203 -2.4188  2.7591
  670MOL0     H88428   8.217   5.227   6.124 -2.4679 -1.0864  0.7602
  670MOL0     H88429   8.063   5.251   6.298 -0.0849 -0.8987 -2.9188
  670MOL0     H88430   7.868   5.558   6.546 -1.2591  1.2737 -1.7527
  670MOL0     H88431   7.926   5.639   6.406  1.1410 -0.5673 -1.5703
  670MOL0     H88432   8.104   5.561   6.649 -2.5701 -0.3153  1.4083
  670MOL0     H88433   8.150   5.679   6.530  1.5516  1.0219  3.2312
  670MOL0     H88434   7.952   5.712   6.754  1.3833  0.4821  0.7604
  670MOL0     H88435   7.937   5.817   6.619  1.7086  1.2812  0.9343
  670MOL0     H88436   8.079   5.917   6.781  2.6856  0.7378  0.7336
  670MOL0     H88437   8.174   5.783   6.809 -1.6715 -2.7272 -0.4112
  670MOL0     H88438   8.379   5.978   6.502 -0.8925  1.3066  0.0453
  670MOL0     H88439   8.102   5.664   6.312 -0.6601  0.0757  1.0821
  670MOL0     H88440   8.252   5.658   6.112  1.3232 -0.1893  0.1418
  671MOL0     O88441  10.945   8.221   8.957 -0.1181  0.0316 -0.1860
  671MOL0     C88442  10.964   8.117   8.891 -0.1474  0.9364 -0.2843
  671MOL0     O88443  11.078   8.099   8.819 -0.2385  0.2709 -0.5938
  671MOL0     C88444  11.181   8.183   8.843 -0.4151 -0.2521 -1.1379
  671MOL0     C88445  11.308   8.139   8.910  0.3923 -0.2193  1.1727
  671MOL0     C88446  11.406   8.235   8.934 -0.2555 -0.7136  0.4237
  671MOL0     C88447  11.388   8.370   8.900  0.2321  0.5205 -0.4810
  671MOL0     O88448  11.500   8.446   8.921  1.1408  0.0232  0.0357
  671MOL0     C88449  11.492   8.585   8.865  0.5416  0.4119  1.1340
  671MOL0     C88450  11.630   8.658   8.878 -0.0644  0.4215 -0.6452
  671MOL0     C88451  11.648   8.716   9.023  0.4565 -1.3191 -0.8640
  671MOL0     C88452  11.785   8.774   9.042 -0.8320 -0.2693 -1.3021
  671MOL0     C88453  11.789   8.923   9.014  0.6496  0.0699 -0.2915
  671MOL0     C88454  11.921   8.979   9.065  0.3033  0.4780 -0.5811
  671MOL0     C88455  11.929   9.126   9.031 -0.3635  0.0788  0.7884
  671MOL0     C88456  12.065   9.191   9.078 -0.1222 -0.3252 -1.0108
  671MOL0     N88457  12.193   9.156   9.010 -0.5256  0.0475 -0.0152
  671MOL0     C88458  12.278   9.059   9.060  0.5078 -0.7011  1.0636
  671MOL0     C88459  12.365   9.032   8.963  0.2193  0.1547 -0.3272
  671MOL0     C88460  12.488   8.934   8.973 -0.2315  0.5694 -0.0423
  671MOL0     C88461  12.448   8.813   9.058  1.1744 -0.4450  0.2392
  671MOL0     C88462  12.545   8.700   9.057 -0.8738 -0.0568  0.3261
  671MOL0     C88463  12.494   8.572   9.129 -0.2908 -0.5034 -0.2557
  671MOL0     O88464  12.600   8.489   9.161 -0.9375 -0.6010 -0.7180
  671MOL0     C88465  12.691   8.520   9.256 -0.1213 -0.2453 -0.6082
  671MOL0     C88466  12.815   8.462   9.236 -0.8025 -0.0825  0.1396
  671MOL0     C88467  12.930   8.497   9.311 -0.0386  0.1099  1.9169
  671MOL0     C88468  12.908   8.575   9.431 -0.2981  0.8433  0.4085
  671MOL0     C88469  13.030   8.581   9.526  0.5372  1.1121 -0.3784
  671MOL0     O88470  13.012   8.603   9.656  0.2902  0.5008 -0.2239
  671MOL0     C88471  13.121   8.595   9.740  0.2640 -0.5793  1.2218
  671MOL0     C88472  13.205   8.482   9.740  0.0992  0.5123  0.3187
  671MOL0     C88473  13.323   8.480   9.825  0.2386 -0.5032  0.2544
  671MOL0     C88474  13.351   8.594   9.904  0.5185  0.2585 -0.5438
  671MOL0     O88475  13.449   8.594  10.002 -0.0816 -0.4986  0.4789
  671MOL0     C88476  13.583   8.584   9.943  0.2295  0.2426  0.1038
  671MOL0     C88477  13.670   8.691  10.005  0.4977 -0.2694  0.0046
  671MOL0     C88478  13.811   8.693   9.931 -0.4795  0.5510 -0.2698
  671MOL0     C88479  13.930   8.699  10.031 -0.7296 -0.4347 -0.5180
  671MOL0     C88480  14.069   8.655   9.970 -0.0445  0.8592 -0.1643
  671MOL0     C88481  14.190   8.702  10.052  1.0731  0.4626 -0.5450
  671MOL0     C88482  14.330   8.697   9.983 -0.4619  0.2188  0.1602
  671MOL0     C88483  14.359   8.557   9.921  0.3629 -0.5072 -0.1015
  671MOL0    Cl88484  14.511   8.578   9.834  0.3711 -0.4238  0.4970
  671MOL0     C88485  13.261   8.713   9.902 -1.2297  0.7735  0.0112
  671MOL0     C88486  13.152   8.714   9.813 -0.5117 -0.3490 -0.0068
  671MOL0     O88487  13.139   8.596   9.480  0.5302  0.1463 -0.2950
  671MOL0     C88488  12.787   8.629   9.460 -0.3484  0.0640 -0.4927
  671MOL0     C88489  12.679   8.615   9.364 -0.5965 -1.0977 -0.3242
  671MOL0     N88490  12.332   9.116   8.858  0.0746  0.5705 -0.4912
  671MOL0     N88491  12.240   9.202   8.892  0.3988 -0.4476  0.5093
  671MOL0     C88492  11.263   8.415   8.845 -0.5959  0.7263  0.3779
  671MOL0     C88493  11.166   8.318   8.814 -0.6780  0.4466  0.7823
  671MOL0     C88494  10.866   8.001   8.889 -0.5305 -0.2488 -0.1359
  671MOL0     C88495  10.772   7.993   8.991  0.6831  0.6622  0.2439
  671MOL0     C88496  10.683   7.889   8.976  0.5734  0.8974 -0.4639
  671MOL0     C88497  10.685   7.787   8.864 -0.4990 -0.3441 -0.1114
  671MOL0     O88498  10.598   7.682   8.856 -1.0307 -0.8747 -0.6608
  671MOL0     C88499  10.512   7.652   8.970 -0.3838 -1.1718 -1.5842
  671MOL0     C88500  10.423   7.541   8.939 -0.0518 -0.3330 -0.5972
  671MOL0     C88501  10.331   7.574   8.825 -0.3576  0.2665  0.0393
  671MOL0     C88502  10.229   7.472   8.778 -0.8734 -1.2228 -0.5697
  671MOL0     C88503  10.143   7.534   8.673 -0.1048  1.0438 -0.6900
  671MOL0     C88504  10.064   7.591   8.604  0.1025 -0.0061  0.2020
  671MOL0     C88505  10.782   7.806   8.765 -0.0582  0.3138  0.0157
  671MOL0     C88506  10.872   7.903   8.787  0.1314 -0.7129  0.8866
  671MOL0     H88507  11.329   8.040   8.948  1.8253  0.0751  1.1981
  671MOL0     H88508  11.501   8.208   8.979 -0.9176 -0.9828  1.7015
  671MOL0     H88509  11.423   8.652   8.918 -0.2715  1.4246 -1.1082
  671MOL0     H88510  11.457   8.584   8.762  1.8365 -0.6807  0.6742
  671MOL0     H88511  11.644   8.729   8.796 -0.4953 -2.5517 -3.4868
  671MOL0     H88512  11.705   8.583   8.850  0.6816  1.4583 -1.4872
  671MOL0     H88513  11.635   8.642   9.102  4.9947 -0.0667  1.4491
  671MOL0     H88514  11.571   8.791   9.043 -0.6405 -2.6240 -0.0557
  671MOL0     H88515  11.814   8.754   9.145 -1.5680  1.5535 -0.6950
  671MOL0     H88516  11.846   8.714   8.974 -2.5639 -0.3269 -2.9136
  671MOL0     H88517  11.709   8.974   9.070 -0.1237 -0.6265 -0.7351
  671MOL0     H88518  11.776   8.932   8.906  0.8691 -0.9966 -0.4152
  671MOL0     H88519  11.999   8.931   9.005  0.8393 -0.1075  0.5346
  671MOL0     H88520  11.924   8.957   9.172  0.3478 -0.3450 -0.7518
  671MOL0     H88521  11.915   9.141   8.924 -0.4506  2.3215  1.0701
  671MOL0     H88522  11.849   9.175   9.087  0.5164  0.7653  1.4682
  671MOL0     H88523  12.090   9.184   9.184 -0.6592 -2.1930 -0.9606
  671MOL0     H88524  12.055   9.294   9.044 -2.6080 -0.4402 -0.8450
  671MOL0     H88525  12.275   8.995   9.148 -1.6438 -0.7971  0.9874
  671MOL0     H88526  12.578   8.983   9.012  0.7429  0.1364 -1.6592
  671MOL0     H88527  12.514   8.890   8.877  2.4390  0.6928  0.5551
  671MOL0     H88528  12.355   8.769   9.022  3.0049 -3.2895 -1.3744
  671MOL0     H88529  12.439   8.846   9.162  3.2734  1.4095 -0.1073
  671MOL0     H88530  12.579   8.666   8.958  0.6160  0.9019  0.4743
  671MOL0     H88531  12.644   8.733   9.090  1.5320 -3.5804 -2.6038
  671MOL0     H88532  12.426   8.523   9.058 -3.4385  0.5391  1.7945
  671MOL0     H88533  12.434   8.600   9.216 -0.8244  2.2817 -1.3913
  671MOL0     H88534  12.821   8.379   9.167 -2.4641  0.3482 -0.5708
  671MOL0     H88535  13.020   8.448   9.276 -0.5409 -0.0534  0.8186
  671MOL0     H88536  13.187   8.391   9.684  1.3059 -0.5806  1.6174
  671MOL0     H88537  13.398   8.402   9.815  1.4120  0.8410 -2.9620
  671MOL0     H88538  13.579   8.606   9.836  0.2020 -0.7211 -0.1069
  671MOL0     H88539  13.619   8.482   9.962 -0.7492  0.1036  1.3786
  671MOL0     H88540  13.694   8.665  10.109  0.4297  0.6137  0.2561
  671MOL0     H88541  13.618   8.786   9.985  0.5857 -1.0672 -5.3051
  671MOL0     H88542  13.812   8.771   9.853 -3.3078  1.3251  0.3408
  671MOL0     H88543  13.830   8.592   9.896  1.4399 -0.0473  2.2640
  671MOL0     H88544  13.916   8.804  10.061 -3.3339 -0.8997  0.1093
  671MOL0     H88545  13.913   8.627  10.111 -0.0094 -0.6399 -0.5403
  671MOL0     H88546  14.078   8.695   9.869 -0.3936 -3.2611 -2.0288
  671MOL0     H88547  14.065   8.547   9.956  0.2703  0.7064  0.8050
  671MOL0     H88548  14.182   8.647  10.146  0.7967  0.8843 -0.3182
  671MOL0     H88549  14.158   8.804  10.078  0.2049  0.5293 -1.7582
  671MOL0     H88550  14.340   8.786   9.921  4.4803  1.2415  1.9423
  671MOL0     H88551  14.415   8.714  10.050  1.8524 -1.3417 -2.2019
  671MOL0     H88552  14.276   8.519   9.861  1.4428 -0.5532 -1.6456
  671MOL0     H88553  14.367   8.475   9.993 -0.9189 -2.1356 -1.7116
  671MOL0     H88554  13.272   8.797   9.970  1.4995  0.0727  0.5780
  671MOL0     H88555  13.093   8.803   9.794  0.5986  0.5647  0.6674
  671MOL0     H88556  12.780   8.702   9.540 -1.1029 -0.3555 -0.1653
  671MOL0     H88557  12.591   8.679   9.373 -1.4574 -2.1510 -0.9830
  671MOL0     H88558  11.245   8.522   8.836  2.6018  1.2351 -1.1269
  671MOL0     H88559  11.079   8.353   8.760  0.5972  2.0623 -0.3392
  671MOL0     H88560  10.753   8.061   9.074 -1.0067 -1.2555  1.5425
  671MOL0     H88561  10.601   7.893   9.047  0.0009 -1.2050 -0.9261
  671MOL0     H88562  10.455   7.738   9.004  1.0306 -1.9418  3.6352
  671MOL0     H88563  10.573   7.640   9.060 -1.8992  0.9852 -0.1902
  671MOL0     H88564  10.488   7.456   8.913 -0.1271 -1.2190  1.9102
  671MOL0     H88565  10.367   7.506   9.026  1.9219 -0.8692  0.5349
  671MOL0     H88566  10.383   7.603   8.734  1.4379 -0.0227  0.9318
  671MOL0     H88567  10.273   7.658   8.866 -0.2396  0.1177  0.5242
  671MOL0     H88568  10.283   7.392   8.726 -1.4398 -1.8070 -0.2750
  671MOL0     H88569  10.168   7.433   8.860 -2.4135  1.6052 -0.2549
  671MOL0     H88570   9.993   7.638   8.538 -1.4824  0.0146  1.8608
  671MOL0     H88571  10.787   7.745   8.675 -0.2082 -0.9612  0.8361
  671MOL0     H88572  10.948   7.915   8.711 -1.7914 -0.6466 -1.1067
  672MOL0     O88573   1.132   7.068   0.138 -0.1932  0.1887  0.6517
  672MOL0     C88574   1.193   7.103   0.235 -0.3737 -0.2577 -0.4406
  672MOL0     O88575   1.137   7.137   0.362  0.1802 -0.4243 -0.1282
  672MOL0     C88576   1.020   7.081   0.407  0.0805 -0.0844  0.2901
  672MOL0     C88577   0.966   6.956   0.358  0.3500 -0.6290 -0.2386
  672MOL0     C88578   0.841   6.912   0.401  0.2740 -0.2783  0.1588
  672MOL0     C88579   0.764   6.994   0.481 -0.2898 -0.7200 -0.1131
  672MOL0     O88580   0.633   6.963   0.501  0.0788  0.3123  0.1735
  672MOL0     C88581   0.552   6.899   0.402  0.6013 -0.6675 -0.0805
  672MOL0     C88582   0.450   6.999   0.348  0.4656  0.3399  0.2416
  672MOL0     C88583   0.509   7.094   0.244 -0.4718  0.3908  1.6709
  672MOL0     C88584   0.413   7.203   0.194  0.5947  0.7683 -0.2984
  672MOL0     C88585   0.472   7.309   0.093  0.3151  1.3556 -0.3778
  672MOL0     C88586   0.386   7.432   0.052  0.2780  0.4338  0.3575
  672MOL0     C88587   0.476   7.520  -0.051 -0.2106 -0.1056 -0.0801
  672MOL0     C88588   0.431   7.672  -0.062  0.1668  0.3456 -0.1637
  672MOL0     N88589   0.439   7.748   0.064 -0.1004 -0.2636  0.7296
  672MOL0     C88590   0.543   7.739   0.161  0.7720  0.7906  0.2933
  672MOL0     C88591   0.501   7.833   0.258  0.4388 -0.2365  0.9959
  672MOL0     C88592   0.570   7.864   0.389  0.3951  0.6908 -0.0152
  672MOL0     C88593   0.529   7.993   0.443 -1.4512 -0.4034  0.1110
  672MOL0     C88594   0.604   8.038   0.570 -0.4391  0.5769  1.2774
  672MOL0     C88595   0.711   7.940   0.626  0.0507 -0.1723  1.2143
  672MOL0     O88596   0.841   7.949   0.554  0.4996 -0.2624 -0.0764
  672MOL0     C88597   0.929   8.057   0.571  0.5901  0.1967 -0.8687
  672MOL0     C88598   1.055   8.058   0.505 -0.5609  0.1539  0.7354
  672MOL0     C88599   1.154   8.156   0.530 -0.3207 -0.6611  0.7669
  672MOL0     C88600   1.118   8.263   0.609 -0.5308  0.1238 -0.4246
  672MOL0     C88601   1.199   8.388   0.622 -0.0601 -0.3884 -0.0551
  672MOL0     O88602   1.317   8.394   0.553  0.6165 -0.3494 -0.9972
  672MOL0     C88603   1.406   8.503   0.579 -0.1434  0.0522  0.3430
  672MOL0     C88604   1.531   8.466   0.620  0.1492 -0.0119 -0.5124
  672MOL0     C88605   1.626   8.565   0.652 -0.0804  0.7748 -0.1581
  672MOL0     C88606   1.610   8.700   0.641  1.0892  0.0674  0.8339
  672MOL0     O88607   1.695   8.806   0.661  0.2635 -0.6226 -0.0569
  672MOL0     C88608   1.835   8.778   0.685  0.7367 -0.5403 -0.3419
  672MOL0     C88609   1.899   8.916   0.707 -0.6335 -0.6938 -0.4240
  672MOL0     C88610   2.055   8.902   0.699  0.8035  1.2509 -0.5134
  672MOL0     C88611   2.096   8.913   0.548 -0.3929  1.1539  0.0143
  672MOL0     C88612   2.240   8.867   0.523 -1.5021  0.1793 -0.6202
  672MOL0     C88613   2.258   8.774   0.402 -1.1247  0.2948  0.0199
  672MOL0     C88614   2.197   8.841   0.274  0.2091 -1.3203  0.0063
  672MOL0     C88615   2.235   8.788   0.146 -0.2853 -0.3499 -0.0437
  672MOL0    Cl88616   2.139   8.874   0.033  0.7550 -0.2734  0.1728
  672MOL0     C88617   1.490   8.745   0.587  0.8279  0.5521 -0.2962
  672MOL0     C88618   1.385   8.648   0.572  1.5664  0.2057 -0.9239
  672MOL0     O88619   1.159   8.469   0.706  0.7956  0.0820  0.8033
  672MOL0     C88620   0.989   8.263   0.668 -1.0956 -0.0934 -0.7483
  672MOL0     C88621   0.901   8.162   0.650 -0.1562 -0.0405  0.2758
  672MOL0     N88622   0.389   7.897   0.202  0.2874 -0.2563  0.0550
  672MOL0     N88623   0.340   7.835   0.098 -0.7184 -0.3416 -0.1549
  672MOL0     C88624   0.813   7.111   0.530  0.2468 -0.8349  0.8818
  672MOL0     C88625   0.938   7.161   0.492  0.4013 -0.5581  0.0367
  672MOL0     C88626   1.341   7.129   0.214 -0.5824  0.2707 -0.4956
  672MOL0     C88627   1.409   7.109   0.094  0.1989  0.3027  0.1778
  672MOL0     C88628   1.535   7.155   0.083  0.2142  0.7769 -0.7209
  672MOL0     C88629   1.598   7.213   0.195  1.0106  0.4030 -0.3189
  672MOL0     O88630   1.734   7.235   0.184 -0.0563 -0.4570 -0.0320
  672MOL0     C88631   1.815   7.303   0.281  0.5794 -0.0838  0.6656
  672MOL0     C88632   1.957   7.248   0.268  0.5356 -0.3584  0.2465
  672MOL0     C88633   2.024   7.298   0.139 -0.0797  0.2934 -0.2977
  672MOL0     C88634   2.150   7.226   0.110  0.1474 -0.6439  0.6490
  672MOL0     C88635   2.239   7.250   0.221 -0.8622 -0.2987  0.8905
  672MOL0     C88636   2.296   7.267   0.326  0.1185 -0.3521 -0.1680
  672MOL0     C88637   1.536   7.236   0.315  0.2228  0.4259  0.3055
  672MOL0     C88638   1.413   7.182   0.321  0.6537 -0.2046 -0.0973
  672MOL0     H88639   1.022   6.878   0.307 -2.6186 -4.1934  1.4897
  672MOL0     H88640   0.793   6.818   0.379 -0.8232  0.2382  0.2496
  672MOL0     H88641   0.493   6.819   0.450 -0.4986  0.6506  0.8390
  672MOL0     H88642   0.609   6.865   0.315 -1.9487  1.7832 -2.9393
  672MOL0     H88643   0.406   7.061   0.427  5.4089  0.5494  3.2500
  672MOL0     H88644   0.367   6.940   0.308  0.3893  0.3921  0.3235
  672MOL0     H88645   0.560   7.044   0.161  0.6876  3.3945  0.4188
  672MOL0     H88646   0.586   7.150   0.298  0.9892 -0.2767  0.3738
  672MOL0     H88647   0.331   7.152   0.144 -1.0104  2.3644  0.6047
  672MOL0     H88648   0.373   7.261   0.277 -2.2513  1.6478 -2.1270
  672MOL0     H88649   0.499   7.250   0.005 -1.5274  0.9851 -0.7214
  672MOL0     H88650   0.565   7.352   0.133 -0.2449  1.4165  0.9009
  672MOL0     H88651   0.351   7.489   0.138 -4.2340 -2.2156  0.6029
  672MOL0     H88652   0.295   7.387   0.011  0.8056  1.8300 -2.5976
  672MOL0     H88653   0.577   7.518  -0.011  0.4614 -1.2979 -1.7083
  672MOL0     H88654   0.478   7.481  -0.154  3.3878  1.8509 -0.9114
  672MOL0     H88655   0.329   7.688  -0.097 -0.3383 -0.0623  1.0663
  672MOL0     H88656   0.498   7.726  -0.129  0.0533  1.8084  0.8483
  672MOL0     H88657   0.626   7.671   0.165  0.7035  0.5446 -1.6479
  672MOL0     H88658   0.677   7.872   0.370 -0.0578  2.3941 -2.1887
  672MOL0     H88659   0.550   7.776   0.451 -4.4903  0.5271 -1.4138
  672MOL0     H88660   0.420   7.998   0.457 -1.3571  0.8325  0.4708
  672MOL0     H88661   0.541   8.068   0.365  1.2401  0.5808  1.3440
  672MOL0     H88662   0.662   8.131   0.556  0.7532 -0.2318  0.6612
  672MOL0     H88663   0.537   8.050   0.655  0.9442  0.1652  2.4728
  672MOL0     H88664   0.669   7.839   0.619 -0.1378 -0.0117 -0.1901
  672MOL0     H88665   0.717   7.960   0.734  0.0388  4.1109  0.5863
  672MOL0     H88666   1.061   7.979   0.431 -0.3295 -0.4720  1.4057
  672MOL0     H88667   1.249   8.137   0.480  0.6411  0.5959  2.0145
  672MOL0     H88668   1.554   8.360   0.626 -3.2274 -1.3269 -4.7697
  672MOL0     H88669   1.721   8.526   0.689 -1.2753 -4.7523 -1.9665
  672MOL0     H88670   1.879   8.722   0.602  2.4261  0.7838 -0.3910
  672MOL0     H88671   1.842   8.725   0.780  1.1860 -0.3212 -0.2544
  672MOL0     H88672   1.870   8.969   0.798 -2.4662  0.8466 -1.8535
  672MOL0     H88673   1.873   8.984   0.626  0.3179  1.4835  0.9975
  672MOL0     H88674   2.079   8.812   0.756 -0.9761  3.6595  4.6898
  672MOL0     H88675   2.099   8.987   0.752  2.8166 -1.9644  3.5502
  672MOL0     H88676   2.028   8.855   0.484 -2.7304  0.3263  3.0080
  672MOL0     H88677   2.082   9.015   0.511  1.5129  1.0485 -1.1142
  672MOL0     H88678   2.288   8.827   0.612 -1.5050  2.7150  0.6025
  672MOL0     H88679   2.298   8.957   0.503 -1.4337  1.3280  3.7427
  672MOL0     H88680   2.208   8.679   0.423  0.3622 -0.2767  1.1263
  672MOL0     H88681   2.365   8.753   0.391 -1.2951  0.8334 -3.6484
  672MOL0     H88682   2.088   8.835   0.272  0.0651  0.3872  0.6666
  672MOL0     H88683   2.214   8.949   0.278 -0.6428 -1.2093  1.0968
  672MOL0     H88684   2.218   8.680   0.138 -3.0444  0.1649 -2.8304
  672MOL0     H88685   2.342   8.806   0.132 -0.0565 -0.8098  1.0004
  672MOL0     H88686   1.484   8.852   0.570  0.3871  0.4319 -0.9483
  672MOL0     H88687   1.292   8.698   0.547  0.7788  0.1817  1.6858
  672MOL0     H88688   0.961   8.348   0.730  5.6287  1.9259  0.3290
  672MOL0     H88689   0.815   8.186   0.712 -1.2297  0.3830 -1.3229
  672MOL0     H88690   0.757   7.176   0.597  0.6372  1.9170 -1.3196
  672MOL0     H88691   0.951   7.265   0.522  1.3845  0.1993 -2.6905
  672MOL0     H88692   1.362   7.070   0.004  2.2890 -1.3380 -0.2927
  672MOL0     H88693   1.579   7.132  -0.014 -1.5071 -2.0756 -0.9327
  672MOL0     H88694   1.778   7.305   0.384 -1.4012 -1.1279  0.0370
  672MOL0     H88695   1.811   7.407   0.249 -2.0587  0.0065  1.0432
  672MOL0     H88696   2.008   7.295   0.353  0.2018 -0.6124  0.5929
  672MOL0     H88697   1.951   7.139   0.274  1.1127 -0.4158 -0.1078
  672MOL0     H88698   2.040   7.406   0.146 -0.0085  0.5000 -2.7854
  672MOL0     H88699   1.960   7.281   0.052  2.0686 -2.2650 -1.5261
  672MOL0     H88700   2.120   7.123   0.088 -0.2622 -0.6275  1.1281
  672MOL0     H88701   2.198   7.278   0.026 -0.9248 -1.5517 -0.5785
  672MOL0     H88702   2.359   7.282   0.412  3.3622 -1.1327 -2.2371
  672MOL0     H88703   1.585   7.274   0.404 -1.1583 -2.0995  2.2961
  672MOL0     H88704   1.374   7.175   0.422  3.3215  0.4362  1.0683
  673MOL0     O88705   2.554   1.203  11.417 -0.7451  0.2186 -0.4866
  673MOL0     C88706   2.447   1.265  11.458 -0.4094 -0.0078  0.3656
  673MOL0     O88707   2.435   1.365  11.551 -0.1394 -0.1751  0.2953
  673MOL0     C88708   2.549   1.422  11.603  0.1556 -0.3426 -0.3137
  673MOL0     C88709   2.522   1.558  11.627  1.1892  0.9012  0.0714
  673MOL0     C88710   2.613   1.641  11.679  0.1244 -0.3385  0.4548
  673MOL0     C88711   2.735   1.587  11.721  0.8809 -0.6588 -0.5831
  673MOL0     O88712   2.840   1.671  11.763 -0.2979 -0.4034 -0.7548
  673MOL0     C88713   2.975   1.625  11.806  0.1815 -1.3168  0.2352
  673MOL0     C88714   3.055   1.740  11.873  0.2408 -0.3213  0.1634
  673MOL0     C88715   3.112   1.842  11.773 -0.2927 -0.5749 -0.4586
  673MOL0     C88716   3.231   1.791  11.691 -0.2600  0.5734  0.0502
  673MOL0     C88717   3.296   1.880  11.590  0.3023 -0.6016 -0.0373
  673MOL0     C88718   3.368   2.007  11.647  1.0723  0.9994  0.9766
  673MOL0     C88719   3.481   1.981  11.751  0.1658  0.4367  0.2277
  673MOL0     C88720   3.609   2.047  11.702  1.1600  0.2179 -0.2719
  673MOL0     N88721   3.599   2.186  11.657  0.1287 -0.5202 -0.4008
  673MOL0     C88722   3.572   2.298  11.729 -0.3513 -1.2747 -0.4113
  673MOL0     C88723   3.585   2.401  11.648  0.9132 -0.8966  0.9057
  673MOL0     C88724   3.551   2.550  11.660 -0.5437 -0.1779  0.6415
  673MOL0     C88725   3.571   2.591  11.807 -0.1744  0.2920 -1.0878
  673MOL0     C88726   3.528   2.738  11.839  1.3338  0.5851  1.5440
  673MOL0     C88727   3.376   2.765  11.819  0.6785 -0.6499 -0.4600
  673MOL0     O88728   3.342   2.778  11.682 -0.2335  0.3256  0.5503
  673MOL0     C88729   3.208   2.790  11.637 -0.4309  0.2078  0.9930
  673MOL0     C88730   3.181   2.831  11.507  0.3027  0.6963  0.5239
  673MOL0     C88731   3.047   2.850  11.452  0.9185 -0.2612 -0.9102
  673MOL0     C88732   2.940   2.818  11.552 -0.2018  1.2425  0.1278
  673MOL0     C88733   2.789   2.830  11.517  0.1596 -0.3950  0.3463
  673MOL0     O88734   2.769   2.893  11.398  1.1611 -0.1996  1.4733
  673MOL0     C88735   2.638   2.899  11.361 -0.4321 -0.0457  1.2033
  673MOL0     C88736   2.582   2.803  11.274  0.5155 -0.5682  0.0013
  673MOL0     C88737   2.451   2.814  11.236  0.4376 -0.0510 -0.2930
  673MOL0     C88738   2.365   2.907  11.289 -0.4499 -0.8610 -0.5151
  673MOL0     O88739   2.238   2.915  11.243  0.2056 -1.0060  0.6027
  673MOL0     C88740   2.181   2.803  11.187  0.1500  0.0521  0.3950
  673MOL0     C88741   2.021   2.797  11.185 -0.7289 -0.0550 -0.3465
  673MOL0     C88742   1.957   2.937  11.152 -1.0429  0.5050  0.1811
  673MOL0     C88743   1.817   2.923  11.192 -0.7330 -0.2316 -0.2516
  673MOL0     C88744   1.732   3.020  11.119  0.1113 -0.6809  0.1729
  673MOL0     C88745   1.582   3.011  11.151 -0.1525  0.2737 -0.1308
  673MOL0     C88746   1.510   3.101  11.067  0.3037  0.4136 -0.5548
  673MOL0     C88747   1.370   3.085  11.103  0.3914 -0.2294  0.2135
  673MOL0    Cl88748   1.266   3.207  11.031 -0.1634  0.4508  0.0113
  673MOL0     C88749   2.412   2.997  11.385 -0.0643 -0.1361 -0.3879
  673MOL0     C88750   2.555   2.994  11.426 -0.1618  0.6141  0.5333
  673MOL0     O88751   2.705   2.785  11.589  0.0059  0.1264 -0.8299
  673MOL0     C88752   2.970   2.771  11.676 -0.4539 -0.0506 -0.7693
  673MOL0     C88753   3.105   2.769  11.726  0.1621 -0.8990 -0.1498
  673MOL0     N88754   3.613   2.353  11.518 -0.3425  1.1287 -0.0596
  673MOL0     N88755   3.610   2.227  11.525 -1.4855  0.6229 -0.1300
  673MOL0     C88756   2.756   1.445  11.709 -0.4300 -1.4588  0.5442
  673MOL0     C88757   2.665   1.367  11.639 -0.3320  0.2618 -0.4332
  673MOL0     C88758   2.322   1.221  11.391  0.1737  0.0635 -0.3303
  673MOL0     C88759   2.317   1.157  11.266 -1.0154 -0.0299  0.4784
  673MOL0     C88760   2.200   1.128  11.194  0.0568  0.4345 -0.6843
  673MOL0     C88761   2.079   1.163  11.253  0.7005 -1.0412  0.3865
  673MOL0     O88762   1.961   1.123  11.200  0.3841  0.0369  0.0342
  673MOL0     C88763   1.951   1.047  11.082 -0.4714 -0.3844 -0.8729
  673MOL0     C88764   1.975   1.143  10.967 -0.8262  0.4066  0.1939
  673MOL0     C88765   1.931   1.295  10.978 -0.0333 -0.1709  0.1383
  673MOL0     C88766   2.051   1.396  10.989  0.8441  0.0486 -0.6596
  673MOL0     C88767   2.145   1.389  10.879  0.3007  0.1635 -0.1223
  673MOL0     C88768   2.218   1.387  10.780 -0.7368 -0.1568 -0.4528
  673MOL0     C88769   2.079   1.231  11.370 -1.0240  0.1043 -0.8582
  673MOL0     C88770   2.195   1.265  11.437  0.1602  0.0419 -0.2826
  673MOL0     H88771   2.426   1.593  11.590  2.0572  0.6179 -2.7046
  673MOL0     H88772   2.590   1.745  11.699  1.2920 -0.4176  2.4872
  673MOL0     H88773   3.028   1.591  11.717 -3.2916  1.0351 -3.0071
  673MOL0     H88774   2.974   1.541  11.877  0.4640 -3.5307 -2.2367
  673MOL0     H88775   3.139   1.682  11.913 -2.8145 -4.7193  1.0006
  673MOL0     H88776   2.992   1.785  11.951 -2.0747  0.3958 -1.9735
  673MOL0     H88777   3.157   1.926  11.825 -1.1640  1.1843 -2.3718
  673MOL0     H88778   3.030   1.881  11.711 -1.1340 -0.5059  0.6650
  673MOL0     H88779   3.302   1.747  11.762 -1.6420  0.3584  1.3586
  673MOL0     H88780   3.206   1.705  11.628 -0.0028  1.9995 -2.0809
  673MOL0     H88781   3.214   1.910  11.525  1.8432  2.2740 -0.8158
  673MOL0     H88782   3.363   1.822  11.526  0.5980 -0.8400  0.4762
  673MOL0     H88783   3.288   2.070  11.686 -0.0617  0.6288 -0.6396
  673MOL0     H88784   3.408   2.058  11.559 -1.3047 -0.1404 -0.9024
  673MOL0     H88785   3.460   2.030  11.846  1.1906 -0.8633  1.1754
  673MOL0     H88786   3.499   1.879  11.787  1.5279  0.9786  1.1904
  673MOL0     H88787   3.646   1.997  11.612 -3.4014 -0.0281 -2.2819
  673MOL0     H88788   3.674   2.026  11.788  0.0588  0.7806  0.7157
  673MOL0     H88789   3.542   2.298  11.833 -2.1750 -1.0729 -0.9036
  673MOL0     H88790   3.448   2.552  11.621 -1.4039 -1.3349  2.6718
  673MOL0     H88791   3.612   2.614  11.597 -1.7385 -2.4356 -3.1423
  673MOL0     H88792   3.676   2.570  11.826  0.7534  3.0773 -2.4524
  673MOL0     H88793   3.515   2.528  11.876  2.9020 -0.9579  0.4699
  673MOL0     H88794   3.559   2.762  11.942  1.8579  1.6647  1.1501
  673MOL0     H88795   3.589   2.808  11.780  0.0976 -0.0345 -0.5463
  673MOL0     H88796   3.359   2.860  11.870 -2.0435 -1.7110  0.8175
  673MOL0     H88797   3.316   2.686  11.863 -0.0424 -0.6691 -1.4376
  673MOL0     H88798   3.263   2.878  11.454  0.8285  2.1837  2.5288
  673MOL0     H88799   3.019   2.890  11.354 -1.2341 -0.6995 -0.5315
  673MOL0     H88800   2.650   2.732  11.227 -0.9147 -1.2059 -1.1902
  673MOL0     H88801   2.417   2.748  11.157 -2.0773  0.4296  0.2955
  673MOL0     H88802   2.212   2.713  11.241 -0.7582 -1.2191 -1.0831
  673MOL0     H88803   2.225   2.797  11.087  1.0081 -2.6814  0.8477
  673MOL0     H88804   1.981   2.757  11.279 -1.3269  0.3861 -0.4119
  673MOL0     H88805   1.987   2.726  11.108 -0.8819  0.7072 -0.9888
  673MOL0     H88806   1.968   2.967  11.048 -0.0314  0.5329  0.2903
  673MOL0     H88807   1.988   3.016  11.221 -1.7705  1.4422 -0.5262
  673MOL0     H88808   1.778   2.824  11.167 -0.1904  0.4219 -4.3777
  673MOL0     H88809   1.813   2.937  11.301  3.1006  0.8270 -0.0815
  673MOL0     H88810   1.757   3.006  11.014  2.4607 -2.0316  0.8434
  673MOL0     H88811   1.773   3.118  11.145  0.8265 -1.1606  0.9045
  673MOL0     H88812   1.566   3.026  11.259  1.3115 -3.5002  0.7837
  673MOL0     H88813   1.553   2.907  11.137  2.6557 -0.5101 -0.6637
  673MOL0     H88814   1.552   3.202  11.075  0.6692  0.6373 -3.8043
  673MOL0     H88815   1.525   3.078  10.960 -2.7211  2.2635 -1.4893
  673MOL0     H88816   1.362   3.098  11.211 -0.3089  1.7458 -0.0420
  673MOL0     H88817   1.329   2.988  11.073  1.3507 -0.2534 -1.0992
  673MOL0     H88818   2.345   3.074  11.422  0.1687  0.5420 -1.3257
  673MOL0     H88819   2.589   3.071  11.494 -0.0382 -0.2897  1.5269
  673MOL0     H88820   2.892   2.745  11.746  1.7148 -2.1436  1.0534
  673MOL0     H88821   3.126   2.721  11.821 -0.6196  0.2121  0.6074
  673MOL0     H88822   2.858   1.411  11.726 -0.0832 -0.4017  0.6723
  673MOL0     H88823   2.693   1.267  11.606  1.4398  0.6567 -0.2455
  673MOL0     H88824   2.415   1.130  11.226 -0.3669  1.1797  1.1690
  673MOL0     H88825   2.199   1.067  11.104 -5.7856  1.4537 -1.7092
  673MOL0     H88826   1.854   0.998  11.071  0.8083 -3.2955 -0.2553
  673MOL0     H88827   2.016   0.959  11.077  2.5717  1.5666  0.9712
  673MOL0     H88828   2.078   1.137  10.933 -0.9367 -1.6733  0.0786
  673MOL0     H88829   1.917   1.106  10.882 -0.4628  0.6728 -0.1707
  673MOL0     H88830   1.863   1.325  11.058  0.6934  2.7844 -0.2235
  673MOL0     H88831   1.880   1.331  10.888  0.7947 -1.4837 -0.8867
  673MOL0     H88832   2.014   1.498  11.006  1.2586  0.0011  0.6827
  673MOL0     H88833   2.097   1.374  11.086  1.6212 -0.5051 -1.1448
  673MOL0     H88834   2.274   1.381  10.689 -1.1906 -0.7908 -0.6964
  673MOL0     H88835   1.984   1.247  11.420  0.7023  2.3380  1.9472
  673MOL0     H88836   2.179   1.318  11.530  3.2944 -0.1960  0.4747
  674MOL0     O88837   0.654   4.836   1.388 -0.6436 -0.9272  0.0470
  674MOL0     C88838   0.584   4.776   1.465 -0.3815 -0.2571  0.5701
  674MOL0     O88839   0.627   4.701   1.574 -0.1134 -0.6954  0.9301
  674MOL0     C88840   0.757   4.651   1.546  0.7465 -0.5753 -0.1737
  674MOL0     C88841   0.783   4.531   1.476  0.0657  0.8844  0.0515
  674MOL0     C88842   0.921   4.487   1.460  0.1249 -0.0017 -1.0174
  674MOL0     C88843   1.019   4.548   1.527 -0.3892 -0.0480  0.0134
  674MOL0     O88844   1.147   4.499   1.529  0.4012  0.9428 -0.3567
  674MOL0     C88845   1.246   4.533   1.635  0.6659  0.0498  0.2238
  674MOL0     C88846   1.356   4.434   1.627  0.4696 -0.5737  1.0645
  674MOL0     C88847   1.475   4.453   1.726  0.0625 -0.2091  0.1541
  674MOL0     C88848   1.596   4.401   1.656  0.1740 -0.2666 -0.2419
  674MOL0     C88849   1.727   4.395   1.755  0.9772 -0.0664 -0.0298
  674MOL0     C88850   1.772   4.541   1.776  0.4850  0.2463  0.6556
  674MOL0     C88851   1.899   4.537   1.855  0.2512 -0.8543 -0.1777
  674MOL0     C88852   1.890   4.472   1.988 -0.2093  0.3642  0.0230
  674MOL0     N88853   1.791   4.524   2.084 -0.1611 -0.6855 -0.0057
  674MOL0     C88854   1.666   4.475   2.097  0.9580 -0.1315 -0.3885
  674MOL0     C88855   1.599   4.565   2.172 -0.2226  0.0454 -0.0244
  674MOL0     C88856   1.464   4.556   2.235  0.7665  0.1975  0.4693
  674MOL0     C88857   1.352   4.558   2.124  0.7305  0.4850 -0.8183
  674MOL0     C88858   1.213   4.520   2.176 -0.2514  0.1273  0.1894
  674MOL0     C88859   1.102   4.518   2.080  0.6499  0.5532  0.3707
  674MOL0     O88860   0.975   4.479   2.148 -0.0431 -0.7187  0.1235
  674MOL0     C88861   0.858   4.508   2.095 -0.2228  0.5709  0.4625
  674MOL0     C88862   0.845   4.510   1.951 -0.2469 -0.0915  0.7344
  674MOL0     C88863   0.724   4.520   1.897  0.1821 -0.1014 -0.3294
  674MOL0     C88864   0.608   4.519   1.971  0.3292 -0.1818 -0.4582
  674MOL0     C88865   0.468   4.494   1.921 -0.7870 -0.4640  0.0502
  674MOL0     O88866   0.354   4.512   2.002 -0.4893  0.0682  1.3268
  674MOL0     C88867   0.219   4.501   1.958 -1.0359 -0.8180 -0.3021
  674MOL0     C88868   0.126   4.460   2.059 -0.2151  0.8673  0.7098
  674MOL0     C88869  -0.008   4.440   2.028  0.9007 -1.4480  0.1028
  674MOL0     C88870  -0.065   4.496   1.906  0.2005 -0.5885 -0.0576
  674MOL0     O88871  -0.199   4.488   1.879 -0.4929  0.5731 -0.3056
  674MOL0     C88872  -0.251   4.353   1.898  0.7403 -0.1814  0.1481
  674MOL0     C88873  -0.395   4.358   1.852  0.7042 -0.4485 -0.4731
  674MOL0     C88874  -0.430   4.377   1.706  0.4776  0.1479  0.1090
  674MOL0     C88875  -0.383   4.263   1.620 -0.2877 -0.2545 -0.2736
  674MOL0     C88876  -0.434   4.288   1.475  0.4253 -0.0578  0.8366
  674MOL0     C88877  -0.582   4.240   1.458 -0.6122 -0.5055  0.3686
  674MOL0     C88878  -0.630   4.242   1.314 -0.5700 -0.5498 -0.5923
  674MOL0     C88879  -0.767   4.184   1.297 -0.2924  0.0096  0.0962
  674MOL0    Cl88880  -0.780   4.021   1.376  0.0151  0.2284  0.5569
  674MOL0     C88881   0.026   4.545   1.818  1.0908 -0.0746 -0.0910
  674MOL0     C88882   0.165   4.552   1.845 -0.2987 -0.2230  0.7622
  674MOL0     O88883   0.470   4.468   1.799 -0.2460  0.5044  0.4167
  674MOL0     C88884   0.614   4.519   2.111  0.2125 -0.4289 -0.2537
  674MOL0     C88885   0.742   4.520   2.172 -0.0201 -0.0497 -0.2441
  674MOL0     N88886   1.684   4.672   2.186  0.7533  1.2529  0.3526
  674MOL0     N88887   1.798   4.644   2.142  0.9653  0.4610  0.7191
  674MOL0     C88888   0.995   4.667   1.596 -0.5571 -0.6042 -0.3440
  674MOL0     C88889   0.859   4.717   1.604  0.0084  0.0647  0.6742
  674MOL0     C88890   0.438   4.781   1.449  0.4141  1.0247 -0.5238
  674MOL0     C88891   0.378   4.858   1.343 -0.3904 -0.3360  0.2847
  674MOL0     C88892   0.240   4.853   1.322 -0.9960 -0.4675 -0.4261
  674MOL0     C88893   0.158   4.786   1.411 -0.2598  0.3192  0.8370
  674MOL0     O88894   0.022   4.799   1.382  0.3004  0.0236  0.1495
  674MOL0     C88895  -0.077   4.715   1.447  0.0295  0.2908  0.2252
  674MOL0     C88896  -0.154   4.786   1.557 -0.0568 -0.0471  0.0412
  674MOL0     C88897  -0.283   4.849   1.522 -0.0283  0.0481  1.0822
  674MOL0     C88898  -0.343   4.945   1.629  0.0686  0.3644 -0.1775
  674MOL0     C88899  -0.437   5.049   1.579  0.2794  0.0212 -0.4766
  674MOL0     C88900  -0.507   5.128   1.524  0.2295  0.3970 -0.3987
  674MOL0     C88901   0.219   4.705   1.506  0.1505 -0.0476  0.6431
  674MOL0     C88902   0.355   4.707   1.535 -0.3568 -0.0065  0.3494
  674MOL0     H88903   0.708   4.476   1.420  0.4635 -0.4076  0.7577
  674MOL0     H88904   0.939   4.393   1.407 -3.7263 -2.3662  1.3474
  674MOL0     H88905   1.187   4.520   1.727 -2.4096  3.3338 -1.0785
  674MOL0     H88906   1.299   4.628   1.625  0.6355  0.2447  1.7217
  674MOL0     H88907   1.399   4.454   1.529 -2.9945  1.0893 -0.3003
  674MOL0     H88908   1.322   4.330   1.638  3.2197 -1.3411  3.7281
  674MOL0     H88909   1.472   4.398   1.820  3.2067  0.1423  0.5880
  674MOL0     H88910   1.478   4.561   1.744  0.0989 -0.7325  4.3283
  674MOL0     H88911   1.563   4.305   1.616 -0.1349  0.5131 -1.9516
  674MOL0     H88912   1.615   4.466   1.570 -0.2445 -1.8179 -1.5513
  674MOL0     H88913   1.801   4.332   1.706 -2.5121 -2.5294 -2.5713
  674MOL0     H88914   1.699   4.339   1.845 -1.9598 -1.4714 -1.6963
  674MOL0     H88915   1.699   4.604   1.828  0.4841 -0.6413  1.7641
  674MOL0     H88916   1.792   4.591   1.681  0.5211 -2.7746 -1.0454
  674MOL0     H88917   1.972   4.482   1.795  1.1776 -1.3873  1.3986
  674MOL0     H88918   1.942   4.637   1.859  1.3734 -1.2614 -1.2926
  674MOL0     H88919   1.991   4.484   2.029 -0.2120 -2.7195  1.2138
  674MOL0     H88920   1.873   4.364   1.985 -0.7083  0.4076 -3.9025
  674MOL0     H88921   1.628   4.383   2.054  0.7611  0.6467 -1.9650
  674MOL0     H88922   1.448   4.626   2.318 -0.3830  1.0754 -0.4660
  674MOL0     H88923   1.450   4.457   2.279  0.2068  0.9751  2.1107
  674MOL0     H88924   1.385   4.490   2.045  0.8227 -0.9068  0.3682
  674MOL0     H88925   1.350   4.659   2.083  2.0672  0.9081  0.0550
  674MOL0     H88926   1.222   4.421   2.221  2.8818  0.9094  1.5614
  674MOL0     H88927   1.182   4.596   2.248  3.1101 -0.0114  1.9653
  674MOL0     H88928   1.123   4.453   1.994 -3.0530  3.3005 -3.0297
  674MOL0     H88929   1.093   4.623   2.049  0.7663  0.8027  1.1581
  674MOL0     H88930   0.932   4.492   1.888 -1.8599 -1.6387 -1.1702
  674MOL0     H88931   0.723   4.515   1.789  4.0207 -0.5875 -0.4603
  674MOL0     H88932   0.159   4.423   2.155  1.9122 -2.2624 -1.0816
  674MOL0     H88933  -0.079   4.407   2.103 -2.0636  2.3495 -0.7495
  674MOL0     H88934  -0.250   4.323   2.003 -2.6258  0.8833  0.5874
  674MOL0     H88935  -0.204   4.283   1.828 -0.2879 -0.2187 -0.5158
  674MOL0     H88936  -0.452   4.435   1.904 -1.9587 -3.5188  1.5422
  674MOL0     H88937  -0.438   4.261   1.880  0.7325 -0.2273  0.3395
  674MOL0     H88938  -0.393   4.476   1.676  0.2488 -0.1697 -1.2773
  674MOL0     H88939  -0.539   4.376   1.691  0.2830 -2.3190  1.2354
  674MOL0     H88940  -0.273   4.264   1.618 -0.1942  3.2292  0.1765
  674MOL0     H88941  -0.422   4.167   1.654 -1.3784  1.0833  2.5864
  674MOL0     H88942  -0.390   4.213   1.409  1.0659 -1.6323  2.9480
  674MOL0     H88943  -0.422   4.392   1.442 -0.0202 -0.4406 -0.5956
  674MOL0     H88944  -0.651   4.295   1.522 -1.5745 -1.7759  0.4725
  674MOL0     H88945  -0.589   4.135   1.490 -2.0599 -0.3295  0.7042
  674MOL0     H88946  -0.640   4.346   1.280  2.3713  0.5262  1.3442
  674MOL0     H88947  -0.550   4.197   1.255 -1.2082  1.4470 -3.1484
  674MOL0     H88948  -0.788   4.167   1.191  0.5949 -1.6579  0.1459
  674MOL0     H88949  -0.836   4.255   1.342  0.1531  0.4529  0.0893
  674MOL0     H88950  -0.024   4.573   1.726  1.5436  0.2608 -0.2424
  674MOL0     H88951   0.225   4.578   1.758  2.3613 -1.3217  2.1530
  674MOL0     H88952   0.529   4.517   2.179 -2.6539 -2.4737 -3.5632
  674MOL0     H88953   0.752   4.511   2.280 -0.0035 -3.2655 -0.4280
  674MOL0     H88954   1.073   4.727   1.641 -0.4755 -0.9970  0.0521
  674MOL0     H88955   0.836   4.816   1.644 -1.3051  0.8482 -1.8583
  674MOL0     H88956   0.449   4.917   1.284  2.0172 -3.9104 -0.7000
  674MOL0     H88957   0.191   4.902   1.239  0.9267  0.0056 -1.3582
  674MOL0     H88958  -0.031   4.626   1.491  1.6511  1.5947  1.2844
  674MOL0     H88959  -0.145   4.680   1.369 -1.2471 -0.1451  1.4899
  674MOL0     H88960  -0.162   4.712   1.638  3.0686 -2.0682 -1.3129
  674MOL0     H88961  -0.101   4.873   1.597  1.3406 -0.6080 -0.5276
  674MOL0     H88962  -0.341   4.758   1.503  2.9167 -2.3911  2.6853
  674MOL0     H88963  -0.278   4.889   1.421  1.1503 -1.5064  0.4757
  674MOL0     H88964  -0.384   4.886   1.712  0.5121  2.0347  1.3133
  674MOL0     H88965  -0.258   5.001   1.669  1.1664  0.5913 -2.6886
  674MOL0     H88966  -0.568   5.192   1.463 -0.3074  0.5014  0.2412
  674MOL0     H88967   0.178   4.623   1.563  5.2089 -2.1762  1.7448
  674MOL0     H88968   0.387   4.648   1.620  2.6477 -2.9004 -2.4420
  675MOL0     O88969   6.463   1.345   1.011  0.2176 -0.0108  0.1781
  675MOL0     C88970   6.363   1.364   1.083 -1.1399 -0.4597  0.0560
  675MOL0     O88971   6.311   1.261   1.158  0.1143 -0.2221  0.1015
  675MOL0     C88972   6.336   1.121   1.166 -0.6999 -0.2966 -0.2985
  675MOL0     C88973   6.462   1.067   1.121  0.3691 -0.9770 -0.8475
  675MOL0     C88974   6.490   0.929   1.122  0.0992 -0.8364 -0.9544
  675MOL0     C88975   6.392   0.839   1.163 -0.3428 -0.8284  0.6620
  675MOL0     O88976   6.413   0.702   1.160  0.2923  1.1192  0.0585
  675MOL0     C88977   6.545   0.659   1.155 -0.1766  0.4946  0.0160
  675MOL0     C88978   6.577   0.627   1.004  0.6463 -0.2737  0.7062
  675MOL0     C88979   6.481   0.528   0.940  0.9222 -0.0790 -0.0475
  675MOL0     C88980   6.554   0.406   0.875 -0.6805  0.2800  0.1393
  675MOL0     C88981   6.461   0.315   0.813 -0.7533  0.6130 -0.3597
  675MOL0     C88982   6.538   0.186   0.779  0.0787 -0.3208 -0.0463
  675MOL0     C88983   6.449   0.096   0.698  0.0603 -0.9217 -0.0924
  675MOL0     C88984   6.514  -0.040   0.688  0.2890 -0.1163 -1.0806
  675MOL0     N88985   6.638  -0.033   0.620  0.4900  0.4981  0.4530
  675MOL0     C88986   6.754  -0.090   0.663 -0.3713 -0.1771 -1.5228
  675MOL0     C88987   6.839  -0.085   0.564 -0.1128 -1.0378 -0.4579
  675MOL0     C88988   6.985  -0.136   0.551  0.5430 -0.4652  0.1834
  675MOL0     C88989   7.034  -0.131   0.400  0.3041 -0.0635  0.0925
  675MOL0     C88990   7.170  -0.195   0.391 -0.8282  0.3179 -0.1928
  675MOL0     C88991   7.214  -0.217   0.237  0.1296 -0.4977 -0.0618
  675MOL0     O88992   7.343  -0.267   0.229  0.3057 -0.4945 -0.1268
  675MOL0     C88993   7.394  -0.320   0.112 -0.7863 -0.9355 -0.3469
  675MOL0     C88994   7.506  -0.389   0.132 -0.4362  0.9161 -0.1083
  675MOL0     C88995   7.586  -0.430   0.018 -0.3813  0.7928  0.3661
  675MOL0     C88996   7.541  -0.413  -0.112 -0.6895 -0.2001 -1.0045
  675MOL0     C88997   7.616  -0.470  -0.226  0.7126  0.2555 -0.8329
  675MOL0     O88998   7.743  -0.523  -0.198 -0.5568  0.1469 -0.0094
  675MOL0     C88999   7.825  -0.561  -0.297  1.4966 -0.0977  0.1435
  675MOL0     C89000   7.914  -0.659  -0.253  0.1997  0.2941  0.3547
  675MOL0     C89001   7.987  -0.727  -0.341  0.5190 -0.1338 -0.4126
  675MOL0     C89002   7.992  -0.688  -0.476  0.9465 -0.4426  0.6788
  675MOL0     O89003   8.089  -0.757  -0.541 -0.4345  0.7607  0.0883
  675MOL0     C89004   8.039  -0.783  -0.675  0.4345 -0.1082  0.6649
  675MOL0     C89005   8.143  -0.884  -0.742  0.3805 -0.0808  0.2153
  675MOL0     C89006   8.270  -0.824  -0.782 -0.9523 -0.6707  0.1741
  675MOL0     C89007   8.372  -0.936  -0.812  0.1245  0.8624 -0.3623
  675MOL0     C89008   8.510  -0.876  -0.863  0.5914 -0.2393 -0.4108
  675MOL0     C89009   8.578  -0.792  -0.750 -1.0076  0.2313 -0.1077
  675MOL0     C89010   8.719  -0.744  -0.813  0.8703  0.4548 -0.8125
  675MOL0     C89011   8.796  -0.660  -0.708  0.4590 -0.4645  0.3044
  675MOL0    Cl89012   8.817  -0.752  -0.556 -0.0183  0.1050 -0.0091
  675MOL0     C89013   7.913  -0.574  -0.525 -0.6117 -0.3831 -0.5416
  675MOL0     C89014   7.822  -0.508  -0.427 -0.4325  0.7933  0.0470
  675MOL0     O89015   7.552  -0.489  -0.330 -0.7958 -0.0104 -0.5858
  675MOL0     C89016   7.421  -0.352  -0.123  0.2112 -0.1207  0.9094
  675MOL0     C89017   7.349  -0.304  -0.014 -0.3868  1.0332 -0.0353
  675MOL0     N89018   6.772  -0.024   0.463  0.1569  0.2885 -0.2678
  675MOL0     N89019   6.654   0.000   0.490  0.1836 -1.4790  0.0434
  675MOL0     C89020   6.270   0.892   1.190  0.6643 -0.2389 -0.0674
  675MOL0     C89021   6.232   1.031   1.199  0.0762 -0.2768  0.2660
  675MOL0     C89022   6.313   1.506   1.085 -0.3375  1.1292  0.0687
  675MOL0     C89023   6.188   1.521   1.151 -1.0592  1.3621  0.3203
  675MOL0     C89024   6.146   1.646   1.166  0.6321  0.8786 -0.3163
  675MOL0     C89025   6.213   1.761   1.124  0.2580 -0.2662 -0.1450
  675MOL0     O89026   6.169   1.894   1.141  0.4630  0.4382  0.1758
  675MOL0     C89027   6.055   1.914   1.223 -0.1509  1.6053  0.3341
  675MOL0     C89028   6.059   2.057   1.276  0.4526 -0.6484  0.2070
  675MOL0     C89029   5.967   2.069   1.398  0.5104  1.0663 -0.5160
  675MOL0     C89030   5.945   2.216   1.425  0.4465 -0.0422 -0.4328
  675MOL0     C89031   5.909   2.221   1.571 -0.4154 -0.1775  0.9316
  675MOL0     C89032   5.882   2.210   1.684 -0.9952 -0.2325  0.5219
  675MOL0     C89033   6.323   1.743   1.039 -0.8503  0.2420 -1.1536
  675MOL0     C89034   6.376   1.613   1.026 -0.5021 -0.6135  0.4556
  675MOL0     H89035   6.550   1.128   1.101 -0.3144  0.2929 -0.0980
  675MOL0     H89036   6.576   0.896   1.066  0.6068 -0.4636 -0.4048
  675MOL0     H89037   6.561   0.562   1.204  2.1452  1.8405  2.1317
  675MOL0     H89038   6.624   0.716   1.205  1.8139 -2.0844  0.0569
  675MOL0     H89039   6.673   0.575   1.014 -1.0112 -4.0834 -0.9370
  675MOL0     H89040   6.595   0.720   0.950  1.0286  0.7219  2.4550
  675MOL0     H89041   6.422   0.582   0.865  0.1850  0.1798  0.7074
  675MOL0     H89042   6.408   0.486   1.010  0.9965  0.2348  0.2223
  675MOL0     H89043   6.630   0.448   0.809  0.1773 -0.5829  0.5625
  675MOL0     H89044   6.618   0.360   0.950  1.5319  2.3972 -0.3402
  675MOL0     H89045   6.438   0.366   0.719  1.2697  1.3562 -0.4990
  675MOL0     H89046   6.371   0.284   0.866 -0.8585  1.4763 -0.0187
  675MOL0     H89047   6.574   0.136   0.870  1.5061 -2.8661 -1.8753
  675MOL0     H89048   6.630   0.198   0.721  0.2046 -0.4902  0.1170
  675MOL0     H89049   6.352   0.087   0.748  0.5930  2.2148  1.7896
  675MOL0     H89050   6.426   0.139   0.601 -0.2882 -0.8284  0.0295
  675MOL0     H89051   6.448  -0.111   0.638 -0.4714  1.3513 -2.2574
  675MOL0     H89052   6.523  -0.072   0.792  1.6266  0.4719 -0.9887
  675MOL0     H89053   6.758  -0.132   0.764  1.2796  0.9238 -1.0846
  675MOL0     H89054   6.981  -0.242   0.574  0.9579 -0.3411  0.8343
  675MOL0     H89055   7.061  -0.088   0.613  3.4372  0.6467 -3.8199
  675MOL0     H89056   7.046  -0.025   0.372  1.4630  0.2535  1.6614
  675MOL0     H89057   6.961  -0.174   0.331  1.3832 -2.9316  0.6109
  675MOL0     H89058   7.253  -0.138   0.434 -0.8345 -1.7682  2.9443
  675MOL0     H89059   7.160  -0.282   0.458 -1.4375  2.0304  2.0620
  675MOL0     H89060   7.213  -0.119   0.188 -3.5451 -0.6656 -0.6819
  675MOL0     H89061   7.159  -0.286   0.172  1.7733  0.7503 -2.9813
  675MOL0     H89062   7.535  -0.388   0.236  1.4015  0.4929 -0.5660
  675MOL0     H89063   7.685  -0.471   0.032 -0.8457 -0.8465 -0.8723
  675MOL0     H89064   7.919  -0.681  -0.147  5.3111 -1.2697  0.0185
  675MOL0     H89065   8.052  -0.805  -0.303  0.9201  0.6288  0.5188
  675MOL0     H89066   8.050  -0.691  -0.733  0.9223  1.2430  2.8023
  675MOL0     H89067   7.938  -0.826  -0.677  0.8960 -1.2374  0.7885
  675MOL0     H89068   8.093  -0.926  -0.830 -0.9245  1.1613  0.3217
  675MOL0     H89069   8.159  -0.961  -0.667 -0.9423  2.3347  3.2359
  675MOL0     H89070   8.308  -0.764  -0.698 -3.4931  1.8976 -0.3693
  675MOL0     H89071   8.258  -0.750  -0.861  0.1033  0.6950  1.2214
  675MOL0     H89072   8.394  -0.995  -0.722  2.8330 -0.6083 -1.8547
  675MOL0     H89073   8.332  -1.011  -0.881 -0.9210  0.2765  0.8235
  675MOL0     H89074   8.488  -0.813  -0.950  1.7127 -1.8063 -1.8943
  675MOL0     H89075   8.587  -0.948  -0.891  3.5487  1.6944  2.0941
  675MOL0     H89076   8.600  -0.845  -0.658 -0.5630  0.0022 -0.3451
  675MOL0     H89077   8.528  -0.697  -0.728  0.0823 -0.1079  5.2949
  675MOL0     H89078   8.780  -0.833  -0.832  0.5107  0.2252 -0.8885
  675MOL0     H89079   8.704  -0.687  -0.905  1.6179  0.0756 -1.1799
  675MOL0     H89080   8.744  -0.566  -0.691 -0.0282 -0.6826  0.0479
  675MOL0     H89081   8.886  -0.620  -0.756  2.1906 -1.8913  2.1506
  675MOL0     H89082   7.916  -0.553  -0.632 -1.8860  1.6911 -0.2388
  675MOL0     H89083   7.770  -0.416  -0.450  0.8245  1.4786 -0.1474
  675MOL0     H89084   7.387  -0.329  -0.224  0.9459 -2.5290  0.0436
  675MOL0     H89085   7.255  -0.253  -0.035 -2.3571 -3.1780 -2.8698
  675MOL0     H89086   6.190   0.824   1.218  1.5364 -1.0400  0.5394
  675MOL0     H89087   6.142   1.086   1.221  2.5425  3.6666  1.4949
  675MOL0     H89088   6.138   1.433   1.189 -1.1051  0.7238 -1.1750
  675MOL0     H89089   6.051   1.666   1.215  1.2318  0.8459  0.9155
  675MOL0     H89090   6.066   1.851   1.312  0.0840 -0.0285 -0.8124
  675MOL0     H89091   5.960   1.889   1.176  0.4606 -1.7384  0.6589
  675MOL0     H89092   6.162   2.088   1.297 -0.5519  1.3956  2.4949
  675MOL0     H89093   6.019   2.119   1.196  0.1580 -1.4650 -0.2926
  675MOL0     H89094   6.015   2.023   1.485  0.2263  0.2875 -0.7605
  675MOL0     H89095   5.873   2.015   1.387  0.9641 -0.4636  2.1727
  675MOL0     H89096   6.031   2.279   1.401 -1.7422  2.7194 -1.5444
  675MOL0     H89097   5.853   2.255   1.380  0.9840  3.3927  1.1437
  675MOL0     H89098   5.866   2.199   1.789 -0.6694  0.9233  0.7060
  675MOL0     H89099   6.388   1.819   0.997  4.8105 -2.8619  0.9026
  675MOL0     H89100   6.470   1.610   0.971 -0.3388  1.8371  0.4546
  676MOL0     O89101   0.954   5.918  11.416  0.2211 -0.6394 -0.6134
  676MOL0     C89102   0.828   5.940  11.429 -0.8141 -0.8438 -0.5408
  676MOL0     O89103   0.751   6.049  11.370 -0.0415  1.1536 -0.1303
  676MOL0     C89104   0.817   6.149  11.299 -0.3363 -0.3187 -0.0873
  676MOL0     C89105   0.914   6.227  11.365 -0.0151  0.2192 -0.7047
  676MOL0     C89106   0.963   6.330  11.304 -0.2929 -0.9809  0.2603
  676MOL0     C89107   0.919   6.371  11.176 -0.0651  0.4360 -0.6857
  676MOL0     O89108   0.971   6.472  11.095  0.7945  0.4325  0.8773
  676MOL0     C89109   1.048   6.569  11.150 -0.3396  0.2756  0.1280
  676MOL0     C89110   1.075   6.687  11.051  1.0321  0.2899  0.4005
  676MOL0     C89111   0.957   6.779  11.021  0.0924  0.6564 -0.0849
  676MOL0     C89112   0.917   6.860  11.144 -0.6331 -0.0234  1.6639
  676MOL0     C89113   0.822   6.976  11.107  0.8491 -0.2600 -0.0793
  676MOL0     C89114   0.689   6.942  11.028  0.4509  0.6119 -0.9807
  676MOL0     C89115   0.595   6.864  11.130 -0.3389  0.2148 -0.3010
  676MOL0     C89116   0.444   6.886  11.102 -1.2643  0.3732 -0.6190
  676MOL0     N89117   0.359   6.804  11.189  0.5821 -0.3991  0.2110
  676MOL0     C89118   0.329   6.845  11.315 -0.0085  0.8945 -0.7815
  676MOL0     C89119   0.262   6.737  11.368 -0.7581 -0.6411  0.1646
  676MOL0     C89120   0.216   6.736  11.514 -0.5098 -0.2395  0.3900
  676MOL0     C89121   0.072   6.788  11.542 -0.2653  0.5755  0.2688
  676MOL0     C89122   0.038   6.751  11.690  0.1765  0.2643 -0.1404
  676MOL0     C89123  -0.114   6.765  11.726 -0.4605 -0.2067 -0.2396
  676MOL0     O89124  -0.193   6.680  11.644 -0.5444 -0.1726 -0.8351
  676MOL0     C89125  -0.323   6.667  11.687  0.7906 -0.7344  0.6579
  676MOL0     C89126  -0.389   6.722  11.802  0.8333  0.5090 -0.7228
  676MOL0     C89127  -0.527   6.689  11.833  0.6460 -0.2943  1.7259
  676MOL0     C89128  -0.605   6.621  11.736 -0.3099 -0.2865 -0.0159
  676MOL0     C89129  -0.743   6.585  11.771  0.0567  0.3294  0.7797
  676MOL0     O89130  -0.785   6.575  11.904 -0.8206  0.4496  0.2350
  676MOL0     C89131  -0.928   6.590  11.910 -0.3160  1.1256 -0.8457
  676MOL0     C89132  -0.990   6.488  11.970 -0.2053  0.2142  0.6096
  676MOL0     C89133  -1.135   6.485  11.987  0.6129 -0.1984  0.2746
  676MOL0     C89134  -1.215   6.590  11.933  0.2052 -0.0399  0.6728
  676MOL0     O89135  -1.347   6.595  11.961  0.0889  0.3796 -0.1242
  676MOL0     C89136  -1.372   6.644  12.097 -0.1557 -0.1984 -0.5063
  676MOL0     C89137  -1.519   6.696  12.097  0.1042  0.3365 -0.0968
  676MOL0     C89138  -1.630   6.599  12.068 -0.6669 -0.2287 -0.0602
  676MOL0     C89139  -1.755   6.682  12.077  1.1934  1.3145 -0.3257
  676MOL0     C89140  -1.877   6.607  12.018  0.3055 -0.3961 -0.0870
  676MOL0     C89141  -1.998   6.703  11.998  0.2966 -1.0542 -0.1236
  676MOL0     C89142  -2.122   6.608  11.979  0.1253 -0.3403  0.4325
  676MOL0     C89143  -2.244   6.686  11.920  0.7699 -0.9601 -0.3932
  676MOL0    Cl89144  -2.213   6.729  11.758  0.2680 -0.1755 -0.5060
  676MOL0     C89145  -1.149   6.686  11.852  0.2797 -0.5935 -0.7313
  676MOL0     C89146  -1.005   6.693  11.859 -0.6375  0.3635 -0.7317
  676MOL0     O89147  -0.807   6.529  11.675 -0.1055 -0.1273  0.5325
  676MOL0     C89148  -0.540   6.585  11.615 -0.5135  0.6150  0.2109
  676MOL0     C89149  -0.408   6.612  11.597 -0.5871  0.5861 -0.9121
  676MOL0     N89150   0.254   6.640  11.273  0.3340  0.6002 -0.2271
  676MOL0     N89151   0.297   6.686  11.161  0.2854  0.1411  0.1343
  676MOL0     C89152   0.812   6.298  11.119 -0.2434 -0.9773 -0.5500
  676MOL0     C89153   0.760   6.184  11.176  0.6702 -0.2967  0.0533
  676MOL0     C89154   0.741   5.839  11.502  0.3487 -0.6496  0.5790
  676MOL0     C89155   0.599   5.856  11.501  0.7638  0.0404 -0.2363
  676MOL0     C89156   0.518   5.754  11.551  0.2759 -0.2549  0.0833
  676MOL0     C89157   0.576   5.633  11.600  0.0327 -0.4039 -1.0847
  676MOL0     O89158   0.481   5.543  11.633  0.6145  0.2648  0.1525
  676MOL0     C89159   0.518   5.416  11.691 -0.2289  0.7149  0.2145
  676MOL0     C89160   0.382   5.351  11.746  0.2441  0.0373 -0.0891
  676MOL0     C89161   0.274   5.350  11.636  0.8200 -0.7202 -0.1134
  676MOL0     C89162   0.308   5.308  11.494 -0.0216 -0.5386 -0.2186
  676MOL0     C89163   0.378   5.180  11.498  0.6650 -0.1438 -0.2747
  676MOL0     C89164   0.432   5.071  11.501  0.2238  1.3873  0.6292
  676MOL0     C89165   0.719   5.620  11.601  0.2631  1.4410  0.0732
  676MOL0     C89166   0.798   5.718  11.547  0.2019 -0.2360 -0.1418
  676MOL0     H89167   0.950   6.187  11.460 -1.1282 -1.3498 -0.8931
  676MOL0     H89168   1.051   6.375  11.350 -0.0965  0.0354 -1.0274
  676MOL0     H89169   1.144   6.525  11.178 -0.3367  0.1106 -0.1385
  676MOL0     H89170   1.014   6.614  11.244  0.2096  0.7731  0.0906
  676MOL0     H89171   1.102   6.647  10.952 -0.7089 -0.3139  0.1152
  676MOL0     H89172   1.150   6.746  11.102  2.2782 -0.4394 -0.5367
  676MOL0     H89173   0.868   6.728  10.984 -1.6904  3.4431  0.0581
  676MOL0     H89174   0.986   6.854  10.947 -1.1991 -0.3870 -1.7158
  676MOL0     H89175   0.868   6.793  11.216 -1.3286 -1.6276 -0.2243
  676MOL0     H89176   1.008   6.892  11.196 -1.3380  2.9018  1.2395
  676MOL0     H89177   0.862   7.051  11.038 -0.9661  1.2210  0.4112
  676MOL0     H89178   0.803   7.026  11.202 -1.1463 -2.2728  0.6690
  676MOL0     H89179   0.703   6.895  10.931  3.5780 -1.7111  0.4359
  676MOL0     H89180   0.639   7.036  11.004 -0.4829 -0.2680 -2.7001
  676MOL0     H89181   0.607   6.757  11.116  2.2038  0.2555  1.0643
  676MOL0     H89182   0.623   6.896  11.230 -3.2428 -2.8816  1.7188
  676MOL0     H89183   0.413   6.860  11.000 -2.0929  1.6735 -0.7107
  676MOL0     H89184   0.424   6.993  11.106  0.5300  0.7256  0.1639
  676MOL0     H89185   0.352   6.940  11.362 -2.2311  2.3939 -2.5410
  676MOL0     H89186   0.295   6.779  11.576  0.8031 -0.1686 -1.2661
  676MOL0     H89187   0.222   6.632  11.546  0.9381  0.0936  1.3144
  676MOL0     H89188  -0.000   6.729  11.485 -1.3925  4.0698 -2.1943
  676MOL0     H89189   0.050   6.894  11.526 -2.4263 -0.0552 -1.4649
  676MOL0     H89190   0.053   6.643  11.698 -0.9604  0.1590  0.8486
  676MOL0     H89191   0.100   6.790  11.771 -2.5199  2.1497  1.1678
  676MOL0     H89192  -0.160   6.864  11.730 -1.5786 -0.7261  0.2703
  676MOL0     H89193  -0.130   6.739  11.831 -3.7637  1.4713 -0.1964
  676MOL0     H89194  -0.333   6.767  11.884 -1.0128 -0.2237  1.0116
  676MOL0     H89195  -0.580   6.729  11.919 -0.5472  0.0295  0.8727
  676MOL0     H89196  -0.935   6.397  11.990  1.0990  0.7422 -0.3894
  676MOL0     H89197  -1.175   6.411  12.055  1.0580  0.7458  1.6094
  676MOL0     H89198  -1.309   6.728  12.127  1.7303 -2.0607  1.0480
  676MOL0     H89199  -1.349   6.566  12.170 -0.3439  1.1137  1.0215
  676MOL0     H89200  -1.521   6.768  12.015  1.9303  1.8422  1.1129
  676MOL0     H89201  -1.531   6.752  12.190  0.9612 -1.4937  1.1732
  676MOL0     H89202  -1.618   6.521  12.143  0.7391  1.6920  1.8056
  676MOL0     H89203  -1.619   6.561  11.966  2.7569 -3.0201  1.1607
  676MOL0     H89204  -1.774   6.697  12.184  0.5958  2.0185 -0.5271
  676MOL0     H89205  -1.742   6.778  12.028  0.6740  3.1523  2.8540
  676MOL0     H89206  -1.897   6.522  12.085 -0.2805  0.0140  0.2679
  676MOL0     H89207  -1.834   6.560  11.929  3.8165 -2.2598  2.3306
  676MOL0     H89208  -1.975   6.766  11.911  0.3017 -2.7844 -1.4443
  676MOL0     H89209  -2.019   6.778  12.074 -0.1056 -0.0285 -1.2098
  676MOL0     H89210  -2.095   6.519  11.922  0.1161  0.2056 -0.4433
  676MOL0     H89211  -2.155   6.579  12.080  0.2594 -4.0751 -0.4469
  676MOL0     H89212  -2.278   6.768  11.985 -0.5978 -0.5124 -1.6083
  676MOL0     H89213  -2.327   6.614  11.923 -1.3855  1.3969  2.0705
  676MOL0     H89214  -1.213   6.769  11.826 -1.0226 -0.5186  2.3649
  676MOL0     H89215  -0.957   6.779  11.814  3.0785 -0.0711  1.9426
  676MOL0     H89216  -0.596   6.519  11.550  3.6960 -4.6458  1.2656
  676MOL0     H89217  -0.347   6.573  11.516  0.1006  0.2668 -0.2546
  676MOL0     H89218   0.786   6.315  11.015 -1.7297  0.9841  0.0919
  676MOL0     H89219   0.681   6.128  11.128 -1.8810  4.2440 -1.6977
  676MOL0     H89220   0.538   5.933  11.456 -6.4671 -3.0188  2.7547
  676MOL0     H89221   0.410   5.750  11.551  0.2995 -1.3139  0.1872
  676MOL0     H89222   0.590   5.420  11.773  1.8713 -3.1411 -1.1587
  676MOL0     H89223   0.555   5.345  11.616  3.0343  2.6196 -0.1617
  676MOL0     H89224   0.407   5.251  11.784  1.1146 -0.4453 -1.8135
  676MOL0     H89225   0.343   5.402  11.834 -1.4600 -2.8302  0.9674
  676MOL0     H89226   0.237   5.450  11.613  1.2307 -0.3893  0.6510
  676MOL0     H89227   0.186   5.299  11.676 -0.1386 -0.3038 -1.6148
  676MOL0     H89228   0.216   5.309  11.434 -1.0154  2.9844  1.1464
  676MOL0     H89229   0.383   5.374  11.451  0.5762 -1.5128 -0.7054
  676MOL0     H89230   0.472   4.973  11.486  2.9214  2.7755 -2.2577
  676MOL0     H89231   0.771   5.527  11.623 -0.2305  1.0537 -0.3656
  676MOL0     H89232   0.903   5.693  11.544  0.4346  0.5188  0.9252
  677MOL0     O89233   9.482   5.783   8.058  0.4919  0.5384 -0.7545
  677MOL0     C89234   9.401   5.692   8.087 -0.0509  0.4199  0.7187
  677MOL0     O89235   9.305   5.691   8.182  0.4008  0.9777 -0.3441
  677MOL0     C89236   9.308   5.786   8.278  1.0985 -1.2041 -0.5665
  677MOL0     C89237   9.376   5.770   8.401  0.0682  0.2734  0.0264
  677MOL0     C89238   9.372   5.876   8.492 -0.0174  0.3967  0.5696
  677MOL0     C89239   9.304   6.001   8.461 -0.1391 -0.0899  0.4039
  677MOL0     O89240   9.294   6.108   8.544 -0.0806  0.0744  0.3304
  677MOL0     C89241   9.327   6.077   8.682  0.0933 -0.1381 -0.0231
  677MOL0     C89242   9.248   6.176   8.763 -0.5339  0.1034 -0.0777
  677MOL0     C89243   9.101   6.164   8.737  0.5626  0.0869 -0.4579
  677MOL0     C89244   9.047   6.031   8.800  0.9707 -0.4273  0.0673
  677MOL0     C89245   8.895   6.040   8.818  0.7330  0.3660 -0.1669
  677MOL0     C89246   8.814   6.041   8.695  0.1108 -0.1415  0.3749
  677MOL0     C89247   8.815   5.915   8.612 -0.1263 -0.9028  0.3265
  677MOL0     C89248   8.904   5.939   8.483 -0.4537  0.7279  0.3468
  677MOL0     N89249   8.888   5.846   8.369  0.1939 -0.1351 -0.5057
  677MOL0     C89250   8.968   5.733   8.364  0.1122  0.7854  0.5423
  677MOL0     C89251   8.945   5.690   8.232 -0.7014 -1.3704  0.3985
  677MOL0     C89252   9.017   5.572   8.172 -0.0267  0.1162 -0.4059
  677MOL0     C89253   8.920   5.451   8.132  0.5263 -0.5458 -0.8541
  677MOL0     C89254   8.771   5.495   8.094 -0.2470  1.3465  1.2337
  677MOL0     C89255   8.677   5.373   8.063 -0.3981  0.0870 -0.3765
  677MOL0     O89256   8.649   5.319   8.190 -0.6179  0.2079  0.6277
  677MOL0     C89257   8.522   5.269   8.194 -0.5936  0.1538 -0.3222
  677MOL0     C89258   8.414   5.356   8.201 -0.1412 -0.1494 -0.1991
  677MOL0     C89259   8.288   5.309   8.235 -0.4543  0.0703  0.3391
  677MOL0     C89260   8.274   5.174   8.225  0.2504  0.6384  1.0189
  677MOL0     C89261   8.137   5.105   8.231  0.9773  0.4187 -0.1345
  677MOL0     O89262   8.140   4.969   8.220 -0.7347  0.5971 -0.3941
  677MOL0     C89263   8.020   4.899   8.228 -0.4747  0.2836 -0.1016
  677MOL0     C89264   7.890   4.935   8.172 -0.8120  0.8232 -0.4671
  677MOL0     C89265   7.779   4.860   8.185  0.0747  0.9094 -1.0617
  677MOL0     C89266   7.783   4.736   8.257  0.3222 -0.2243 -0.4332
  677MOL0     O89267   7.674   4.659   8.257  0.4161  0.2260  0.0079
  677MOL0     C89268   7.654   4.555   8.358 -0.0070 -0.3214 -0.6034
  677MOL0     C89269   7.703   4.416   8.309  0.5089 -1.1514  0.0643
  677MOL0     C89270   7.635   4.309   8.396  0.1226  0.7219 -0.1169
  677MOL0     C89271   7.496   4.279   8.346  0.5621  0.6017  1.0062
  677MOL0     C89272   7.452   4.147   8.424  0.3827  0.6515 -0.4984
  677MOL0     C89273   7.492   4.016   8.348 -0.2692  0.3333  0.6772
  677MOL0     C89274   7.479   3.886   8.434  0.9499 -0.1332 -0.0000
  677MOL0     C89275   7.342   3.823   8.402  0.3121  0.5661  0.7458
  677MOL0    Cl89276   7.207   3.921   8.480  0.4270 -0.3155 -0.4840
  677MOL0     C89277   7.904   4.701   8.310  0.5057  0.2460  0.3630
  677MOL0     C89278   8.021   4.776   8.297 -0.3694  0.6815  0.6406
  677MOL0     O89279   8.037   5.165   8.276 -0.1107  1.3102  0.1127
  677MOL0     C89280   8.380   5.083   8.223 -0.3883 -0.4893  0.6342
  677MOL0     C89281   8.513   5.134   8.208 -0.5081 -0.6248 -0.2519
  677MOL0     N89282   8.848   5.779   8.175  0.4027 -0.1629 -0.5336
  677MOL0     N89283   8.806   5.868   8.263  0.3190  0.1299  0.0675
  677MOL0     C89284   9.240   6.014   8.337 -0.6707 -0.3374 -0.1665
  677MOL0     C89285   9.233   5.906   8.248 -0.8462  0.0906 -0.8451
  677MOL0     C89286   9.399   5.560   8.012  0.8967 -0.8428 -0.0338
  677MOL0     C89287   9.419   5.575   7.881  1.0525 -0.0436  0.6235
  677MOL0     C89288   9.407   5.464   7.796  0.3322 -0.2898  0.4158
  677MOL0     C89289   9.358   5.345   7.846  0.5405  0.5391  1.0835
  677MOL0     O89290   9.352   5.232   7.761  0.5112 -0.2996  0.3651
  677MOL0     C89291   9.223   5.162   7.774  0.2089 -0.0385  0.9634
  677MOL0     C89292   9.220   5.046   7.687  0.2673  0.3737 -0.3109
  677MOL0     C89293   9.295   5.065   7.555  0.0105 -0.7402 -1.2803
  677MOL0     C89294   9.261   4.979   7.434  0.7006 -0.4326 -0.5949
  677MOL0     C89295   9.286   4.840   7.456 -0.2120 -0.2528  0.5087
  677MOL0     C89296   9.310   4.718   7.454 -0.3714  0.3765 -1.1625
  677MOL0     C89297   9.342   5.328   7.983 -0.3529  0.4290  0.0819
  677MOL0     C89298   9.363   5.432   8.065  0.2337  0.2146 -1.0012
  677MOL0     H89299   9.440   5.691   8.438  1.0819  2.5713  3.6943
  677MOL0     H89300   9.418   5.864   8.590 -2.9077  0.0422  1.9837
  677MOL0     H89301   9.431   6.094   8.713  0.1348 -1.5949  0.7426
  677MOL0     H89302   9.304   5.979   8.724 -0.6128 -0.9266 -2.1563
  677MOL0     H89303   9.277   6.277   8.732  0.1459 -0.1727 -0.3816
  677MOL0     H89304   9.273   6.172   8.869 -1.7207  0.0255  0.2114
  677MOL0     H89305   9.076   6.168   8.630  0.4191 -2.9331 -0.6266
  677MOL0     H89306   9.070   6.255   8.789  3.3354 -0.8765  3.2976
  677MOL0     H89307   9.084   5.941   8.749 -0.2819 -1.0843  0.2566
  677MOL0     H89308   9.094   6.019   8.898  2.7995 -3.9997 -1.0645
  677MOL0     H89309   8.856   6.123   8.878  1.2409 -0.4619  1.3628
  677MOL0     H89310   8.861   5.966   8.891 -0.2162  1.7261  0.8295
  677MOL0     H89311   8.852   6.129   8.642  0.4231  0.7776  2.0541
  677MOL0     H89312   8.714   6.081   8.712  0.1588 -0.5814  1.8185
  677MOL0     H89313   8.863   5.838   8.674  0.4615 -1.5759 -0.9439
  677MOL0     H89314   8.713   5.885   8.586 -1.0599  0.4959  2.1260
  677MOL0     H89315   9.004   5.928   8.525 -0.8748  0.2659  1.2674
  677MOL0     H89316   8.906   6.038   8.437  4.1671  0.7985  0.2532
  677MOL0     H89317   9.053   5.705   8.426  1.3621  1.8546 -0.5984
  677MOL0     H89318   9.091   5.532   8.241 -1.8153 -1.0944  0.8938
  677MOL0     H89319   9.071   5.614   8.086 -0.3127  1.9180  0.2624
  677MOL0     H89320   8.929   5.392   8.224  2.1561  2.6976  1.2752
  677MOL0     H89321   8.962   5.390   8.052 -0.8842 -1.1039 -1.1967
  677MOL0     H89322   8.733   5.550   8.181  1.0714  2.3392  1.2099
  677MOL0     H89323   8.772   5.560   8.006 -0.0933 -1.7716 -1.2356
  677MOL0     H89324   8.711   5.310   7.981 -1.2249  1.0286 -1.4806
  677MOL0     H89325   8.586   5.427   8.036  0.1811  0.5635 -1.4084
  677MOL0     H89326   8.433   5.461   8.180 -0.4466 -0.1887 -0.6996
  677MOL0     H89327   8.205   5.378   8.247 -0.9737 -0.7734  1.7991
  677MOL0     H89328   7.895   5.024   8.109  1.3371  0.7382 -0.4796
  677MOL0     H89329   7.687   4.892   8.137  1.0076  1.4144 -2.5860
  677MOL0     H89330   7.547   4.551   8.380 -0.7209  0.7125 -3.5420
  677MOL0     H89331   7.699   4.586   8.453 -0.3324  1.0687 -0.8872
  677MOL0     H89332   7.810   4.414   8.328  0.6744 -0.2299 -0.6994
  677MOL0     H89333   7.679   4.405   8.202 -1.3768 -1.1849  0.4471
  677MOL0     H89334   7.631   4.340   8.501  2.7638 -5.1099  2.1381
  677MOL0     H89335   7.694   4.217   8.388  3.4949  2.7162 -0.2797
  677MOL0     H89336   7.422   4.356   8.373 -2.2904 -2.1746  1.7198
  677MOL0     H89337   7.511   4.266   8.239  0.8137 -1.3901  1.2486
  677MOL0     H89338   7.345   4.163   8.437  0.3897  1.3024 -1.1724
  677MOL0     H89339   7.499   4.142   8.523  0.5369 -2.7520 -0.6122
  677MOL0     H89340   7.600   4.027   8.335 -0.3335  2.8247  1.7821
  677MOL0     H89341   7.444   4.005   8.250 -0.0502  1.4495  0.4365
  677MOL0     H89342   7.560   3.814   8.413  0.5348 -0.3774 -0.7723
  677MOL0     H89343   7.481   3.909   8.541  1.0402  0.5278 -0.1432
  677MOL0     H89344   7.333   3.718   8.433 -0.5737  0.3914 -0.0399
  677MOL0     H89345   7.329   3.820   8.293  3.3236 -1.4886  0.3314
  677MOL0     H89346   7.895   4.614   8.374  0.0341 -0.1617 -0.2472
  677MOL0     H89347   8.117   4.745   8.337  0.6551  0.6161 -1.7225
  677MOL0     H89348   8.369   4.975   8.235 -1.4714 -0.3233  1.2364
  677MOL0     H89349   8.597   5.068   8.191 -0.0534 -0.1880  0.2757
  677MOL0     H89350   9.190   6.110   8.328 -0.8005 -0.1253  2.1654
  677MOL0     H89351   9.175   5.910   8.156 -1.8219 -1.4030 -0.3328
  677MOL0     H89352   9.429   5.669   7.828  0.2845  0.2960  1.0601
  677MOL0     H89353   9.445   5.470   7.695 -0.5590 -0.4265  0.0614
  677MOL0     H89354   9.146   5.236   7.748 -0.3148 -1.1340 -0.7169
  677MOL0     H89355   9.209   5.131   7.878  0.4838 -0.7030  0.8035
  677MOL0     H89356   9.272   4.963   7.736  0.3213  0.2676 -0.5458
  677MOL0     H89357   9.115   5.023   7.663  0.9765 -0.2107 -3.2917
  677MOL0     H89358   9.401   5.050   7.576 -0.7416  0.0061  4.6776
  677MOL0     H89359   9.281   5.167   7.519 -1.1340 -1.2613 -2.3893
  677MOL0     H89360   9.154   4.993   7.412 -0.2539 -1.3735  2.7982
  677MOL0     H89361   9.323   5.015   7.352 -1.8071  2.1397 -1.5096
  677MOL0     H89362   9.322   4.613   7.437  0.2798  0.4356 -1.0753
  677MOL0     H89363   9.328   5.230   8.026 -2.4644  0.3883 -0.5898
  677MOL0     H89364   9.355   5.442   8.172  0.6371  0.4686 -0.9940
  678MOL0     O89365   3.334   3.421   1.195 -0.1039  0.1280  0.3848
  678MOL0     C89366   3.283   3.378   1.091  0.4182 -0.9792  0.3144
  678MOL0     O89367   3.293   3.426   0.966 -0.1789  0.2203  0.3045
  678MOL0     C89368   3.378   3.522   0.931 -0.4678 -0.2817 -0.0624
  678MOL0     C89369   3.340   3.614   0.842 -0.1766 -0.8004 -0.0188
  678MOL0     C89370   3.432   3.709   0.785  0.3058 -0.2278  0.2711
  678MOL0     C89371   3.561   3.709   0.834 -0.0954  0.4555  0.5212
  678MOL0     O89372   3.662   3.791   0.790 -0.5649 -0.3473  0.1788
  678MOL0     C89373   3.636   3.927   0.800 -0.3070  0.0732  0.4729
  678MOL0     C89374   3.758   4.008   0.757  0.4949  0.6041  0.0123
  678MOL0     C89375   3.753   4.152   0.791  0.4719 -0.4654  0.2686
  678MOL0     C89376   3.876   4.228   0.741 -0.6241 -0.2945  0.3851
  678MOL0     C89377   3.866   4.379   0.753  0.0562  0.3264 -0.6494
  678MOL0     C89378   3.884   4.428   0.897 -0.0728 -0.1018  0.4222
  678MOL0     C89379   4.017   4.392   0.958  0.0760 -0.0169  0.2786
  678MOL0     C89380   4.047   4.472   1.086 -0.3278  0.4692 -0.3537
  678MOL0     N89381   3.953   4.446   1.196 -0.1630  0.1733  0.2542
  678MOL0     C89382   3.888   4.545   1.258 -0.2986  0.4790  0.2869
  678MOL0     C89383   3.816   4.479   1.355 -0.4684  0.4423 -0.4071
  678MOL0     C89384   3.706   4.539   1.445  0.2189 -0.0821  0.1547
  678MOL0     C89385   3.650   4.449   1.554  0.3704  0.6257 -0.1348
  678MOL0     C89386   3.585   4.312   1.523  0.0772  0.3177 -1.1350
  678MOL0     C89387   3.535   4.241   1.655  0.2698 -0.2200 -0.4752
  678MOL0     O89388   3.467   4.127   1.634 -0.3248  0.3969 -0.0999
  678MOL0     C89389   3.352   4.114   1.701  0.5445 -0.5645 -0.5351
  678MOL0     C89390   3.247   4.062   1.624  0.2085  0.3241 -0.5183
  678MOL0     C89391   3.126   4.037   1.682 -0.6989 -0.5847  0.3088
  678MOL0     C89392   3.104   4.064   1.818 -0.2604  0.8208 -0.7588
  678MOL0     C89393   2.962   4.067   1.875 -0.1493  0.8063  0.0990
  678MOL0     O89394   2.936   4.145   1.985 -0.3348 -0.2004 -0.1816
  678MOL0     C89395   2.817   4.158   2.035  0.7246 -0.2565  0.1347
  678MOL0     C89396   2.722   4.063   2.064  0.0537  0.2731  0.1036
  678MOL0     C89397   2.589   4.090   2.092 -0.5153 -0.4823 -0.1021
  678MOL0     C89398   2.548   4.219   2.115 -0.7028  1.2390 -0.2235
  678MOL0     O89399   2.423   4.240   2.154  1.1062 -1.1375  0.1597
  678MOL0     C89400   2.368   4.373   2.178  0.8301 -0.1079  0.8319
  678MOL0     C89401   2.220   4.376   2.226  0.1202 -1.0609 -0.7236
  678MOL0     C89402   2.179   4.520   2.254 -0.0778 -0.1959  0.4146
  678MOL0     C89403   2.228   4.628   2.153 -0.0946  0.4223 -0.1994
  678MOL0     C89404   2.147   4.768   2.169  0.1035  0.3767 -0.5232
  678MOL0     C89405   2.172   4.860   2.046 -0.1445  0.6266  0.2500
  678MOL0     C89406   2.072   4.969   2.048  0.0614  0.1464 -0.8943
  678MOL0     C89407   2.100   5.063   1.934 -0.3806 -0.9069 -0.2850
  678MOL0    Cl89408   2.076   4.968   1.779  0.1279 -0.1056 -0.0458
  678MOL0     C89409   2.647   4.316   2.093 -0.4955  0.4108 -1.3512
  678MOL0     C89410   2.783   4.298   2.063  0.4006  0.3648  0.9808
  678MOL0     O89411   2.900   3.965   1.834  0.1864 -0.1718 -0.5127
  678MOL0     C89412   3.216   4.094   1.905  0.1791 -0.2467  1.0404
  678MOL0     C89413   3.343   4.117   1.841 -0.5025 -0.3916 -0.6018
  678MOL0     N89414   3.866   4.347   1.355  0.2515  0.3518 -0.4818
  678MOL0     N89415   3.951   4.335   1.261  0.1586 -0.1186  0.9300
  678MOL0     C89416   3.603   3.609   0.930 -0.4134 -0.5058  0.6254
  678MOL0     C89417   3.511   3.515   0.966  0.7504 -0.6631 -1.4244
  678MOL0     C89418   3.179   3.270   1.111 -0.3700 -0.3559  1.1412
  678MOL0     C89419   3.128   3.241   1.245 -0.5837 -0.1187 -0.2770
  678MOL0     C89420   3.046   3.122   1.259 -0.4750 -1.0991 -0.7566
  678MOL0     C89421   3.012   3.047   1.156  0.0274 -0.4408 -0.5383
  678MOL0     O89422   2.942   2.930   1.174  0.1052  0.1381 -0.5757
  678MOL0     C89423   2.999   2.840   1.268  0.5950  0.3594 -0.0663
  678MOL0     C89424   2.971   2.693   1.231 -0.1069  0.1047  0.4729
  678MOL0     C89425   3.074   2.653   1.130 -0.0048  0.4215 -0.2522
  678MOL0     C89426   3.041   2.537   1.049  0.0455 -0.2131  0.2291
  678MOL0     C89427   3.088   2.545   0.912 -0.9606  0.4032  0.4030
  678MOL0     C89428   3.116   2.549   0.789  0.8815 -0.1178 -0.2914
  678MOL0     C89429   3.050   3.081   1.027  0.3597 -1.0208  0.0601
  678MOL0     C89430   3.144   3.183   1.004  0.3014  0.1781  0.1993
  678MOL0     H89431   3.236   3.616   0.812 -0.7438  5.4266  0.9751
  678MOL0     H89432   3.390   3.762   0.701 -2.2167 -0.8880  1.0194
  678MOL0     H89433   3.620   3.940   0.907 -3.0187  2.0513 -0.0793
  678MOL0     H89434   3.547   3.958   0.745  0.4690  0.2868 -0.6936
  678MOL0     H89435   3.769   4.010   0.648 -0.2412  1.0278 -0.0566
  678MOL0     H89436   3.847   3.954   0.792  0.3474 -1.0864 -1.9934
  678MOL0     H89437   3.752   4.163   0.900 -1.0024 -2.4822  0.5298
  678MOL0     H89438   3.669   4.207   0.750 -0.7583 -2.0801  0.5308
  678MOL0     H89439   3.969   4.189   0.785  0.6846  0.5079 -1.5115
  678MOL0     H89440   3.884   4.217   0.633 -1.2930  2.4672 -0.0163
  678MOL0     H89441   3.767   4.412   0.718  0.2780  1.7100 -0.0253
  678MOL0     H89442   3.941   4.420   0.685 -2.1497  2.0698 -2.2023
  678MOL0     H89443   3.810   4.384   0.965 -1.5946  0.1768 -0.9779
  678MOL0     H89444   3.858   4.535   0.898  1.4136  0.2967 -0.4965
  678MOL0     H89445   4.022   4.286   0.986 -3.1560 -0.9246 -1.9647
  678MOL0     H89446   4.093   4.400   0.879  1.0294 -1.0998  1.0452
  678MOL0     H89447   4.057   4.580   1.067  3.6111  0.7734  2.3508
  678MOL0     H89448   4.142   4.439   1.127  0.9586  1.9840 -1.9753
  678MOL0     H89449   3.885   4.651   1.234  2.2399  1.0439  2.1580
  678MOL0     H89450   3.629   4.578   1.378  1.8632  2.2486 -0.4897
  678MOL0     H89451   3.752   4.630   1.484  2.3219  0.3015 -2.8288
  678MOL0     H89452   3.574   4.502   1.612 -0.0039  0.9921 -0.9420
  678MOL0     H89453   3.735   4.411   1.612  1.0893 -2.0546 -2.7004
  678MOL0     H89454   3.492   4.324   1.466  0.6187  4.4977 -1.4403
  678MOL0     H89455   3.651   4.254   1.458  0.1657  1.4085 -2.0474
  678MOL0     H89456   3.472   4.313   1.708 -0.2804 -0.1056 -1.2590
  678MOL0     H89457   3.625   4.224   1.715  1.8175 -1.8068 -3.0514
  678MOL0     H89458   3.259   4.058   1.516  2.7946 -1.7546 -0.2471
  678MOL0     H89459   3.037   4.007   1.628 -2.0498 -0.5516  2.3771
  678MOL0     H89460   2.756   3.961   2.049  4.1505  1.7274 -2.0514
  678MOL0     H89461   2.507   4.019   2.094 -1.7813  0.9478  0.0237
  678MOL0     H89462   2.374   4.422   2.080  0.8154  2.4724  2.0296
  678MOL0     H89463   2.425   4.421   2.259 -0.4036 -1.5489  2.6436
  678MOL0     H89464   2.219   4.315   2.317 -2.9303 -0.0421  0.0491
  678MOL0     H89465   2.153   4.329   2.154 -1.0895  0.4302 -0.6229
  678MOL0     H89466   2.227   4.525   2.352  2.0195  0.6279 -0.6098
  678MOL0     H89467   2.070   4.531   2.245 -0.0937  0.5145  1.2973
  678MOL0     H89468   2.329   4.660   2.182  0.3512 -1.7847  0.8516
  678MOL0     H89469   2.233   4.591   2.050 -1.2045 -0.1316 -0.0608
  678MOL0     H89470   2.160   4.825   2.261  0.0606  1.1168 -0.9650
  678MOL0     H89471   2.042   4.739   2.157 -0.1913  1.0594  0.3538
  678MOL0     H89472   2.154   4.801   1.955 -0.7239 -0.9165  1.3250
  678MOL0     H89473   2.273   4.901   2.054 -0.4465  1.3677  0.3567
  678MOL0     H89474   1.973   4.924   2.033  0.1759 -1.5596  2.6580
  678MOL0     H89475   2.074   5.029   2.139  0.4509 -0.4628 -0.5004
  678MOL0     H89476   2.196   5.115   1.928 -0.9255  0.1262 -0.3629
  678MOL0     H89477   2.028   5.145   1.932  1.1277  0.5246  1.1432
  678MOL0     H89478   2.608   4.417   2.093 -2.1405 -0.1659  0.5682
  678MOL0     H89479   2.851   4.381   2.049  1.7446 -0.5934  1.5396
  678MOL0     H89480   3.216   4.126   2.009  4.2235  0.0130  1.1295
  678MOL0     H89481   3.422   4.155   1.905 -0.5975  0.0410 -0.7361
  678MOL0     H89482   3.702   3.608   0.972 -0.3981 -0.0442  0.6123
  678MOL0     H89483   3.544   3.429   1.023  1.4669  0.9182  0.7047
  678MOL0     H89484   3.147   3.304   1.332 -1.6837 -1.9933  1.4201
  678MOL0     H89485   3.004   3.096   1.356  3.7422 -1.0366  1.2820
  678MOL0     H89486   2.960   2.861   1.368  2.5907 -0.7826  1.0112
  678MOL0     H89487   3.108   2.847   1.272  0.4768  1.8303  2.1818
  678MOL0     H89488   2.971   2.626   1.318  2.3325 -0.0974  0.3923
  678MOL0     H89489   2.876   2.690   1.176 -0.7489 -0.0278  1.5561
  678MOL0     H89490   3.173   2.634   1.171  0.9049  0.8260 -2.1615
  678MOL0     H89491   3.093   2.736   1.061 -2.8169 -0.8889 -2.8557
  678MOL0     H89492   3.087   2.451   1.098 -2.7716 -2.3102 -0.5389
  678MOL0     H89493   2.935   2.511   1.061  0.7843 -2.9330  1.5525
  678MOL0     H89494   3.123   2.569   0.684 -2.2177 -0.3355 -0.6238
  678MOL0     H89495   3.014   3.026   0.940  1.3887 -1.5120 -0.0639
  678MOL0     H89496   3.179   3.194   0.902 -0.8944 -1.4807 -0.4254
  679MOL0     O89497  10.003   8.223   2.230 -0.0831  0.8380  0.2622
  679MOL0     C89498   9.888   8.255   2.219 -0.3215 -0.6585 -1.1012
  679MOL0     O89499   9.812   8.253   2.104 -1.2353 -0.4452 -0.3686
  679MOL0     C89500   9.876   8.255   1.985  0.4583 -0.1080 -0.7207
  679MOL0     C89501   9.955   8.363   1.945 -0.6651 -0.3739 -0.2337
  679MOL0     C89502  10.008   8.358   1.817 -0.3568  0.1339 -0.1128
  679MOL0     C89503   9.972   8.255   1.734  0.1450  0.0173 -0.6155
  679MOL0     O89504  10.022   8.274   1.607 -0.0851 -0.0690  0.0291
  679MOL0     C89505   9.977   8.208   1.490 -1.0868  0.8100 -0.3207
  679MOL0     C89506  10.042   8.067   1.461 -0.0462 -0.9046  0.1705
  679MOL0     C89507   9.995   8.024   1.316  0.1693 -0.5012  0.6227
  679MOL0     C89508  10.092   7.902   1.276  0.0289 -0.5375 -0.3151
  679MOL0     C89509  10.048   7.836   1.148 -0.0560  0.6215 -0.3812
  679MOL0     C89510  10.133   7.715   1.112  0.4280 -0.5843 -0.6160
  679MOL0     C89511  10.118   7.601   1.225  0.1339 -0.9005  0.9571
  679MOL0     C89512  10.082   7.464   1.161 -0.0722  0.3166 -0.1100
  679MOL0     N89513  10.204   7.394   1.118 -0.4088  0.3683 -0.1832
  679MOL0     C89514  10.281   7.434   1.019 -0.8520 -1.2078  0.5474
  679MOL0     C89515  10.383   7.347   1.011 -0.1894  0.4348  0.1105
  679MOL0     C89516  10.493   7.334   0.920 -0.7827 -0.6373  1.6396
  679MOL0     C89517  10.626   7.369   0.988 -0.0252  0.4819  0.5944
  679MOL0     C89518  10.742   7.320   0.899 -0.4014 -0.1500 -0.0069
  679MOL0     C89519  10.758   7.165   0.910 -0.0043 -0.8064 -0.3836
  679MOL0     O89520  10.890   7.119   0.886  0.4666 -0.5900  0.6949
  679MOL0     C89521  10.965   7.148   0.779 -0.5671 -0.8833  0.3306
  679MOL0     C89522  10.917   7.114   0.651  0.0098  0.0805  0.0495
  679MOL0     C89523  11.004   7.123   0.539 -0.0305  0.4822  0.2227
  679MOL0     C89524  11.140   7.164   0.567 -0.1818  0.1925 -0.0351
  679MOL0     C89525  11.230   7.132   0.458  0.0432 -1.7593 -0.5019
  679MOL0     O89526  11.174   7.085   0.346 -0.1035  0.3394 -0.1116
  679MOL0     C89527  11.243   7.090   0.225  0.8202  0.0983  0.6552
  679MOL0     C89528  11.182   7.024   0.110 -0.0416  0.1185 -1.3996
  679MOL0     C89529  11.231   7.035  -0.020 -0.2178  0.2366  0.2404
  679MOL0     C89530  11.358   7.108  -0.040  0.6856  0.3749  0.1951
  679MOL0     O89531  11.394   7.136  -0.170 -1.2877  0.0914 -0.0569
  679MOL0     C89532  11.484   7.031  -0.215 -0.6598  0.3886 -0.0761
  679MOL0     C89533  11.539   7.054  -0.353 -0.1799 -0.5502  0.2995
  679MOL0     C89534  11.632   7.182  -0.364  0.5463 -0.2152  1.4401
  679MOL0     C89535  11.667   7.207  -0.516 -0.2111 -0.1479 -1.0479
  679MOL0     C89536  11.749   7.342  -0.530  0.6961  0.1824 -0.1673
  679MOL0     C89537  11.889   7.327  -0.488 -0.0793 -1.0279 -0.4954
  679MOL0     C89538  11.968   7.446  -0.536 -1.2125 -0.3628  1.0253
  679MOL0     C89539  12.111   7.447  -0.496  1.2978  0.8441  0.0006
  679MOL0    Cl89540  12.187   7.291  -0.538 -0.0081 -0.2880 -0.6096
  679MOL0     C89541  11.410   7.174   0.073 -0.6697  0.2934  0.1326
  679MOL0     C89542  11.356   7.162   0.200 -0.5364 -1.1372  0.5333
  679MOL0     O89543  11.355   7.161   0.473  0.5602  0.8738 -0.0786
  679MOL0     C89544  11.178   7.213   0.694 -0.9480 -0.5023  0.9169
  679MOL0     C89545  11.088   7.210   0.792 -0.0377  0.4709  0.9420
  679MOL0     N89546  10.369   7.244   1.108 -0.1769 -0.6291 -0.5702
  679MOL0     N89547  10.261   7.283   1.169  0.6658  0.1798 -0.3357
  679MOL0     C89548   9.900   8.145   1.779  0.0729 -0.0937 -0.1922
  679MOL0     C89549   9.845   8.140   1.908  0.0525  1.2018  0.0244
  679MOL0     C89550   9.823   8.307   2.340 -0.5397 -1.2947 -0.4243
  679MOL0     C89551   9.744   8.425   2.335 -0.6288 -0.1873  1.2131
  679MOL0     C89552   9.685   8.468   2.449 -0.0133  0.0399 -0.4639
  679MOL0     C89553   9.683   8.403   2.567  0.1510  0.4746 -1.4871
  679MOL0     O89554   9.593   8.439   2.668 -1.1256  0.4771  0.3088
  679MOL0     C89555   9.494   8.536   2.657 -0.4431 -0.5128  0.5588
  679MOL0     C89556   9.403   8.513   2.772  0.0129  0.6334 -0.3365
  679MOL0     C89557   9.290   8.609   2.796  0.2182 -0.7044  0.7186
  679MOL0     C89558   9.328   8.735   2.884  0.2855  0.3585  0.8688
  679MOL0     C89559   9.217   8.829   2.869  0.5411  0.3645  0.1089
  679MOL0     C89560   9.126   8.914   2.879  0.6345  0.1419 -0.1496
  679MOL0     C89561   9.759   8.285   2.580  0.1670  0.5436  0.1244
  679MOL0     C89562   9.838   8.243   2.467 -0.4288  0.9221 -0.6057
  679MOL0     H89563   9.976   8.455   1.998 -1.2541  1.1178 -2.4913
  679MOL0     H89564  10.061   8.440   1.770 -0.9229  0.6832  0.1915
  679MOL0     H89565  10.016   8.262   1.403  0.8652 -4.4381 -3.2079
  679MOL0     H89566   9.869   8.192   1.494 -0.7907 -1.4473  0.2544
  679MOL0     H89567  10.026   7.987   1.534 -1.1105  1.3440  2.5580
  679MOL0     H89568  10.150   8.087   1.459 -0.4008  1.6168  1.8452
  679MOL0     H89569  10.017   8.097   1.238  1.8821 -2.2743 -0.6715
  679MOL0     H89570   9.889   8.006   1.333 -0.1749  3.1527  3.8822
  679MOL0     H89571  10.193   7.946   1.270  0.6990 -2.1300 -1.2311
  679MOL0     H89572  10.086   7.826   1.354  0.7936 -1.3389 -1.0257
  679MOL0     H89573  10.057   7.896   1.057  2.2278 -1.0429 -1.3589
  679MOL0     H89574   9.944   7.804   1.159  1.3230 -4.7979 -0.4879
  679MOL0     H89575  10.238   7.744   1.100  0.3434 -0.0253 -0.0254
  679MOL0     H89576  10.103   7.681   1.012 -1.9154 -1.0683  0.2005
  679MOL0     H89577  10.217   7.598   1.273  0.5001 -2.7664  0.1906
  679MOL0     H89578  10.036   7.626   1.293  0.1712 -0.1587  0.7330
  679MOL0     H89579  10.012   7.463   1.077 -2.8754 -0.7174  2.0944
  679MOL0     H89580  10.029   7.397   1.229  0.9244 -0.7036 -0.3131
  679MOL0     H89581  10.259   7.516   0.950  1.7391  0.8471  2.0060
  679MOL0     H89582  10.481   7.382   0.822  1.5502 -6.0330 -1.7665
  679MOL0     H89583  10.502   7.231   0.886  2.2807 -0.5362  1.8357
  679MOL0     H89584  10.624   7.318   1.084  1.3298 -0.0178  0.3780
  679MOL0     H89585  10.643   7.477   0.996  1.5889  0.5080 -1.9424
  679MOL0     H89586  10.738   7.356   0.795 -0.5053  2.7123  0.9032
  679MOL0     H89587  10.835   7.360   0.939 -1.8048 -0.8453  4.4497
  679MOL0     H89588  10.688   7.113   0.843 -0.5229  1.1047 -1.4188
  679MOL0     H89589  10.732   7.135   1.011 -0.1598 -2.9786 -1.0247
  679MOL0     H89590  10.815   7.092   0.624 -0.1678  1.3973 -0.4299
  679MOL0     H89591  10.975   7.092   0.439  1.1422  1.1900 -0.3533
  679MOL0     H89592  11.106   6.951   0.137  0.5563  0.1616  0.5629
  679MOL0     H89593  11.175   6.987  -0.100  0.6142 -0.6726  0.1846
  679MOL0     H89594  11.446   6.929  -0.205  2.8934 -0.8594  2.6742
  679MOL0     H89595  11.571   7.036  -0.149 -0.3393  0.8008 -0.5253
  679MOL0     H89596  11.452   7.063  -0.418  0.5386  3.4079 -0.3424
  679MOL0     H89597  11.602   6.973  -0.390 -0.5913  0.5520 -3.1439
  679MOL0     H89598  11.720   7.179  -0.298 -0.8035 -1.3545  3.2788
  679MOL0     H89599  11.562   7.259  -0.332 -0.7120 -0.7647  0.1491
  679MOL0     H89600  11.720   7.123  -0.560  0.8529  1.3588 -2.7616
  679MOL0     H89601  11.569   7.223  -0.563 -0.0662  0.8174 -1.0529
  679MOL0     H89602  11.694   7.426  -0.486  2.0254  0.7281  0.5233
  679MOL0     H89603  11.753   7.381  -0.632  0.4217  0.1513 -0.1901
  679MOL0     H89604  11.928   7.234  -0.531 -1.4876 -1.9597  0.1865
  679MOL0     H89605  11.889   7.314  -0.379 -1.7127  1.8234 -0.0357
  679MOL0     H89606  11.964   7.457  -0.645 -1.7106 -1.4717  0.9259
  679MOL0     H89607  11.935   7.542  -0.495 -1.0611 -0.1376  0.6260
  679MOL0     H89608  12.120   7.466  -0.388 -1.5113 -1.7795  0.8428
  679MOL0     H89609  12.154   7.535  -0.544  0.0507  1.6819  0.3656
  679MOL0     H89610  11.502   7.227   0.055 -1.7885  2.5456  0.7164
  679MOL0     H89611  11.423   7.219   0.265 -1.8549  0.4364  0.5665
  679MOL0     H89612  11.281   7.247   0.702 -1.3575  1.3345 -0.8449
  679MOL0     H89613  11.122   7.242   0.890 -1.1921  2.2198  0.8229
  679MOL0     H89614   9.875   8.070   1.706 -1.1316 -0.1619  0.2608
  679MOL0     H89615   9.765   8.076   1.946 -0.4926  3.0153  2.1957
  679MOL0     H89616   9.722   8.473   2.240 -0.7253  0.9176  1.7720
  679MOL0     H89617   9.629   8.560   2.433  0.5468  0.4054 -0.3425
  679MOL0     H89618   9.441   8.528   2.561 -2.4826 -0.2246  1.6113
  679MOL0     H89619   9.547   8.631   2.659 -0.7365 -0.3086  4.3692
  679MOL0     H89620   9.362   8.413   2.760  1.2608  0.0527  0.0516
  679MOL0     H89621   9.458   8.512   2.866  0.9673  1.4188 -0.8642
  679MOL0     H89622   9.211   8.549   2.843  0.1291 -2.9476 -1.9985
  679MOL0     H89623   9.261   8.641   2.695 -0.9945  1.4709  1.6810
  679MOL0     H89624   9.341   8.698   2.986 -0.0180  2.1857  1.6098
  679MOL0     H89625   9.423   8.772   2.845 -0.4651  2.9343  1.2755
  679MOL0     H89626   9.041   8.978   2.893  2.3394  2.5713 -0.3721
  679MOL0     H89627   9.764   8.238   2.678 -2.2832  0.0037  0.0313
  679MOL0     H89628   9.911   8.162   2.462 -0.0161  1.1071  1.5322
  680MOL0     O89629   5.092  10.163   8.845  0.4774 -0.6028  0.2515
  680MOL0     C89630   4.977  10.140   8.791 -0.5507  0.7816 -0.8123
  680MOL0     O89631   4.940  10.176   8.665 -0.4819  0.0870  0.0170
  680MOL0     C89632   5.028  10.222   8.568  0.6810  0.1765  0.1231
  680MOL0     C89633   5.012  10.182   8.436 -0.7644  0.5514  0.0475
  680MOL0     C89634   5.110  10.214   8.335 -0.7403  0.2713 -0.2591
  680MOL0     C89635   5.212  10.306   8.368 -0.8373  0.2709  0.3154
  680MOL0     O89636   5.315  10.338   8.285  0.2930  0.5549 -0.4014
  680MOL0     C89637   5.410  10.438   8.327 -0.3403 -0.0814  0.7389
  680MOL0     C89638   5.515  10.469   8.221  0.0447  0.4178 -0.5037
  680MOL0     C89639   5.564  10.340   8.144  0.0806 -0.2091  0.8702
  680MOL0     C89640   5.665  10.382   8.036 -0.4365  0.6313 -0.0470
  680MOL0     C89641   5.734  10.265   7.968 -0.5962  0.4325 -0.3593
  680MOL0     C89642   5.836  10.317   7.872 -0.1625  0.2978  0.1230
  680MOL0     C89643   5.916  10.214   7.798 -0.4781 -0.6184 -0.2296
  680MOL0     C89644   6.025  10.140   7.884 -0.4857  0.1904  0.1430
  680MOL0     N89645   6.144  10.206   7.924 -0.2920 -0.4415 -0.9976
  680MOL0     C89646   6.182  10.271   8.043  0.2443 -0.4072  0.8415
  680MOL0     C89647   6.309  10.313   8.026 -1.2126 -0.5162  0.4566
  680MOL0     C89648   6.404  10.361   8.135  0.4191  0.7885 -0.5359
  680MOL0     C89649   6.428  10.249   8.241  0.5981 -0.9442 -0.1280
  680MOL0     C89650   6.523  10.300   8.340 -1.5410 -1.5213 -0.5792
  680MOL0     C89651   6.541  10.210   8.464  0.2996 -0.8655  0.2518
  680MOL0     O89652   6.418  10.195   8.538  0.1327 -0.1304  0.1553
  680MOL0     C89653   6.415  10.131   8.662  0.5668  0.0254 -1.1786
  680MOL0     C89654   6.308  10.166   8.752 -0.1147 -0.2571 -0.1503
  680MOL0     C89655   6.315  10.117   8.890 -0.1861 -0.4609 -0.0298
  680MOL0     C89656   6.429  10.052   8.937  0.9985 -0.1344 -0.1657
  680MOL0     C89657   6.446  10.011   9.078 -0.4351  0.0210  0.1315
  680MOL0     O89658   6.332   9.950   9.129  0.3499  0.0086  1.1783
  680MOL0     C89659   6.314   9.943   9.263 -0.6300  0.2537  0.1946
  680MOL0     C89660   6.344  10.047   9.353 -0.8090 -0.1513 -0.6835
  680MOL0     C89661   6.342  10.026   9.491 -0.2862  0.7743  0.4454
  680MOL0     C89662   6.308   9.906   9.550  0.4843  0.1171 -0.1149
  680MOL0     O89663   6.320   9.906   9.685 -0.4011  0.1138 -0.4055
  680MOL0     C89664   6.257   9.800   9.756 -0.3742 -0.1067 -0.0677
  680MOL0     C89665   6.339   9.677   9.768 -0.6312  0.0578 -0.0886
  680MOL0     C89666   6.481   9.711   9.819 -1.2617 -0.5447 -0.4272
  680MOL0     C89667   6.578   9.605   9.781 -0.9778 -0.4265 -1.3523
  680MOL0     C89668   6.719   9.638   9.834 -0.9574 -0.0712 -0.8768
  680MOL0     C89669   6.782   9.766   9.779 -0.6525 -0.8324 -0.3059
  680MOL0     C89670   6.935   9.769   9.818 -0.1677  0.7180  0.0075
  680MOL0     C89671   6.957   9.810   9.959  0.4178 -0.4667  0.1039
  680MOL0    Cl89672   7.127   9.788   9.978 -0.1582  0.1772  0.0814
  680MOL0     C89673   6.289   9.797   9.463  0.3623 -0.1651  0.6701
  680MOL0     C89674   6.288   9.820   9.327  0.4992  0.6951 -0.0854
  680MOL0     O89675   6.545  10.024   9.144  0.1702  0.9419  0.7226
  680MOL0     C89676   6.529  10.019   8.844 -0.9571 -0.4402 -0.4367
  680MOL0     C89677   6.517  10.048   8.707  0.6716  0.0009 -0.6285
  680MOL0     N89678   6.348  10.275   7.893 -0.4316 -0.8840 -0.1571
  680MOL0     N89679   6.247  10.215   7.837  0.5778  0.6213  0.1523
  680MOL0     C89680   5.215  10.350   8.502 -0.4864  0.3125  0.0669
  680MOL0     C89681   5.123  10.315   8.600 -0.4668 -0.0883 -0.2159
  680MOL0     C89682   4.863  10.091   8.865  0.1760 -0.0495  0.9883
  680MOL0     C89683   4.872  10.124   9.001 -0.0865  0.9108 -0.0041
  680MOL0     C89684   4.765  10.094   9.091  0.5871 -0.5835  0.2588
  680MOL0     C89685   4.656  10.019   9.037 -1.1036  0.8820  0.2045
  680MOL0     O89686   4.566   9.984   9.132 -0.4500  0.0706 -0.5855
  680MOL0     C89687   4.435   9.955   9.094  0.7865  0.3915  1.0807
  680MOL0     C89688   4.352   9.969   9.221  0.6717 -0.1449 -0.4367
  680MOL0     C89689   4.206   9.972   9.197  0.7269  0.6931  0.5939
  680MOL0     C89690   4.166   9.856   9.106 -0.0558  0.1751 -0.1004
  680MOL0     C89691   4.017   9.839   9.104 -0.6196  0.2402 -0.0227
  680MOL0     C89692   3.894   9.824   9.098 -0.1017  0.3144 -0.0850
  680MOL0     C89693   4.652   9.992   8.898  0.7701 -0.8966  1.1921
  680MOL0     C89694   4.749  10.038   8.805 -0.7165 -0.3952  0.0904
  680MOL0     H89695   4.934  10.108   8.421  0.2105 -0.2348 -1.3827
  680MOL0     H89696   5.098  10.177   8.234 -0.2924  1.2682 -0.6901
  680MOL0     H89697   5.472  10.391   8.404  0.0429 -2.5436 -0.9311
  680MOL0     H89698   5.358  10.527   8.362 -0.7421 -0.4211  1.0216
  680MOL0     H89699   5.594  10.528   8.269 -1.0844 -0.5486  2.7975
  680MOL0     H89700   5.455  10.536   8.159 -0.3124 -0.3486 -1.0085
  680MOL0     H89701   5.476  10.288   8.105 -0.2019 -0.2797  1.5965
  680MOL0     H89702   5.615  10.266   8.206  0.3586 -0.5438  0.2564
  680MOL0     H89703   5.611  10.438   7.959 -1.1059 -0.0950 -0.1179
  680MOL0     H89704   5.744  10.440   8.084 -0.0484  0.7899 -0.8763
  680MOL0     H89705   5.663  10.196   7.922 -1.4812  1.5160 -0.6685
  680MOL0     H89706   5.785  10.206   8.044  2.7080  3.8858  0.4046
  680MOL0     H89707   5.900  10.386   7.928 -2.2553  3.2830 -0.8918
  680MOL0     H89708   5.792  10.390   7.803  0.4955 -0.2385 -0.8935
  680MOL0     H89709   5.843  10.140   7.764 -3.5617  1.1904  1.8476
  680MOL0     H89710   5.962  10.268   7.715 -0.4629 -0.8755 -0.3884
  680MOL0     H89711   6.070  10.059   7.826 -1.5357  0.1971 -0.7092
  680MOL0     H89712   5.985  10.093   7.974  2.0312  2.7337  2.8434
  680MOL0     H89713   6.118  10.309   8.122  1.5013 -0.4418  1.8892
  680MOL0     H89714   6.371  10.457   8.176  0.7526  0.7314 -0.1216
  680MOL0     H89715   6.504  10.365   8.090 -0.0491 -0.6465 -1.7821
  680MOL0     H89716   6.466  10.156   8.199 -1.8019 -0.4712 -3.8055
  680MOL0     H89717   6.336  10.234   8.298  0.7747  0.1748  0.4890
  680MOL0     H89718   6.623  10.300   8.296 -0.0776  2.6589  2.2434
  680MOL0     H89719   6.502  10.401   8.376  0.8388 -2.0713  2.8237
  680MOL0     H89720   6.628  10.256   8.511  0.9413  0.1705 -1.8433
  680MOL0     H89721   6.569  10.106   8.444  1.6507 -0.4260 -0.2561
  680MOL0     H89722   6.223  10.228   8.723  0.1783  1.8177  2.9030
  680MOL0     H89723   6.232  10.152   8.950  0.1199 -0.3667  0.3422
  680MOL0     H89724   6.365  10.147   9.317 -1.6649  0.0600 -0.6146
  680MOL0     H89725   6.374  10.114   9.545 -0.7521  0.5189  1.1538
  680MOL0     H89726   6.164   9.778   9.702  2.3752 -2.0147 -4.6582
  680MOL0     H89727   6.236   9.833   9.858  2.2744  4.8910 -0.8330
  680MOL0     H89728   6.360   9.634   9.669  2.9884 -1.3937  1.1529
  680MOL0     H89729   6.285   9.607   9.832  0.9484  0.4218  1.7570
  680MOL0     H89730   6.480   9.722   9.928 -0.0475  0.3550 -0.4930
  680MOL0     H89731   6.520   9.806   9.782  0.9349 -1.1335  0.2575
  680MOL0     H89732   6.555   9.504   9.818  1.9236 -0.3072  1.1549
  680MOL0     H89733   6.587   9.613   9.672 -0.0853  0.2683 -1.2348
  680MOL0     H89734   6.786   9.559   9.801  0.7106  0.7061  0.5057
  680MOL0     H89735   6.718   9.626   9.943 -0.2325  3.2011 -0.3808
  680MOL0     H89736   6.726   9.854   9.810 -1.0773 -1.1652 -0.1323
  680MOL0     H89737   6.777   9.758   9.670 -0.1862 -2.6569 -0.2171
  680MOL0     H89738   6.974   9.669   9.799 -1.0358 -0.3288  3.1720
  680MOL0     H89739   6.968   9.844   9.744 -3.8816 -0.4922 -3.2433
  680MOL0     H89740   6.896   9.765  10.037  0.7014 -0.5627  0.2761
  680MOL0     H89741   6.943   9.918   9.966  2.6983  0.0456 -1.7624
  680MOL0     H89742   6.265   9.697   9.498 -3.3075  0.2174 -0.3428
  680MOL0     H89743   6.278   9.722   9.280  3.8538 -1.0715  2.4022
  680MOL0     H89744   6.622   9.968   8.865  0.5309  1.7445 -1.3915
  680MOL0     H89745   6.597  10.012   8.644 -1.1707 -2.6004 -1.6439
  680MOL0     H89746   5.299  10.410   8.536  1.2875 -1.9201 -0.1386
  680MOL0     H89747   5.125  10.368   8.695  0.5395 -0.4276 -0.0438
  680MOL0     H89748   4.958  10.171   9.047 -0.1255  1.6006 -0.6136
  680MOL0     H89749   4.756  10.121   9.196 -1.2195  1.3525 -0.3284
  680MOL0     H89750   4.434   9.858   9.043  0.3566  0.1685  1.5055
  680MOL0     H89751   4.397  10.034   9.028  1.5832 -0.2276 -0.1585
  680MOL0     H89752   4.370   9.888   9.292 -2.2694  1.4771  2.4588
  680MOL0     H89753   4.380  10.058   9.277  0.4118 -0.5162  0.2966
  680MOL0     H89754   4.190  10.071   9.151 -2.0720  0.4641  0.9137
  680MOL0     H89755   4.165   9.969   9.298  1.9491  1.8398  1.1536
  680MOL0     H89756   4.196   9.893   9.007 -2.8799 -1.0178 -1.5358
  680MOL0     H89757   4.211   9.758   9.124  0.4842  0.1965 -1.2335
  680MOL0     H89758   3.788   9.812   9.101 -0.1862 -1.7469 -4.1147
  680MOL0     H89759   4.568   9.947   8.846  1.5792  0.0875 -1.1446
  680MOL0     H89760   4.738  10.025   8.697 -1.1731  0.7995 -0.0140
  681MOL0     O89761   7.552   5.433   5.699  0.0703 -0.0104 -0.1410
  681MOL0     C89762   7.489   5.483   5.793 -0.2236  0.5003 -0.9763
  681MOL0     O89763   7.402   5.405   5.867  0.6618 -0.4877  0.1271
  681MOL0     C89764   7.409   5.269   5.858  0.8509  0.0087  0.5600
  681MOL0     C89765   7.286   5.201   5.843 -0.6380 -0.6988 -0.7970
  681MOL0     C89766   7.289   5.058   5.832  0.1451  0.1039  1.0738
  681MOL0     C89767   7.413   4.990   5.814 -0.4336  0.4881 -0.0944
  681MOL0     O89768   7.446   4.848   5.825 -0.4990 -0.1217  0.4158
  681MOL0     C89769   7.345   4.759   5.834  0.2793  0.7573 -1.0712
  681MOL0     C89770   7.289   4.735   5.697 -0.5579  0.7196  0.0837
  681MOL0     C89771   7.379   4.663   5.602 -0.2242 -1.6842 -0.7573
  681MOL0     C89772   7.359   4.517   5.619 -0.0863 -0.5733 -0.7934
  681MOL0     C89773   7.483   4.442   5.574 -0.0413 -0.4488 -0.1229
  681MOL0     C89774   7.486   4.306   5.645  0.5913  0.4272  0.1687
  681MOL0     C89775   7.605   4.226   5.588  0.3331  0.3737  0.6969
  681MOL0     C89776   7.744   4.305   5.591  0.2342 -0.0270  1.0058
  681MOL0     N89777   7.853   4.231   5.529  0.5587  0.1368 -0.3032
  681MOL0     C89778   7.842   4.130   5.445  0.9312  0.1109  0.2329
  681MOL0     C89779   7.966   4.081   5.430 -0.1065  0.3699  0.5163
  681MOL0     C89780   8.001   3.963   5.342  0.6186 -0.3823 -0.5841
  681MOL0     C89781   7.946   3.829   5.399 -0.4169  0.9501  0.1110
  681MOL0     C89782   7.927   3.805   5.542 -0.6483 -0.8680  0.1887
  681MOL0     C89783   7.847   3.681   5.569  0.8262  0.2529  0.6741
  681MOL0     O89784   7.708   3.706   5.532 -0.4676  0.0630 -0.1314
  681MOL0     C89785   7.637   3.768   5.638  0.8034 -0.0008  0.7494
  681MOL0     C89786   7.680   3.826   5.761  0.8426  0.3360 -0.1379
  681MOL0     C89787   7.579   3.899   5.831 -0.2967 -0.3822 -1.6486
  681MOL0     C89788   7.446   3.922   5.785  0.7695 -0.4636  1.0734
  681MOL0     C89789   7.353   3.998   5.876  0.3332 -0.0866 -0.7836
  681MOL0     O89790   7.401   4.051   5.989  0.0969 -0.0161 -0.2180
  681MOL0     C89791   7.338   4.152   6.049  1.8524  0.3839  0.0705
  681MOL0     C89792   7.299   4.266   5.979 -0.1861 -0.3574 -0.2319
  681MOL0     C89793   7.231   4.362   6.054 -0.5059  0.2962 -0.1019
  681MOL0     C89794   7.160   4.339   6.175  1.3445  0.0931 -0.5432
  681MOL0     O89795   7.082   4.444   6.229 -0.3007 -0.1013  0.2113
  681MOL0     C89796   7.031   4.437   6.359  0.5642  0.1035  0.3371
  681MOL0     C89797   6.995   4.577   6.410  0.1357 -0.1282 -0.4031
  681MOL0     C89798   6.878   4.568   6.506  0.0305  0.2839 -0.4567
  681MOL0     C89799   6.854   4.703   6.585  0.3188 -0.3792  0.2195
  681MOL0     C89800   6.732   4.703   6.678 -0.0036 -0.4871 -0.1370
  681MOL0     C89801   6.765   4.623   6.801  0.0305  0.4417  0.0303
  681MOL0     C89802   6.640   4.599   6.892  0.1780  0.2278 -0.5233
  681MOL0     C89803   6.679   4.562   7.037 -1.0798 -0.3574  0.5837
  681MOL0    Cl89804   6.754   4.409   7.032 -0.4759  0.4919  0.0225
  681MOL0     C89805   7.188   4.213   6.241 -0.1346 -0.8406 -0.0109
  681MOL0     C89806   7.281   4.129   6.186  0.0387 -0.7077 -0.2597
  681MOL0     O89807   7.243   4.018   5.835 -0.2846 -0.5276  0.7059
  681MOL0     C89808   7.406   3.869   5.656  0.3780 -0.3698 -0.0143
  681MOL0     C89809   7.503   3.791   5.595 -0.0290 -0.0812  0.6716
  681MOL0     N89810   8.055   4.167   5.505  0.1912  0.5472  1.5604
  681MOL0     N89811   7.983   4.255   5.553 -0.5474  0.2884 -0.0560
  681MOL0     C89812   7.529   5.068   5.827 -0.0931  0.6275 -0.4934
  681MOL0     C89813   7.532   5.203   5.852 -0.1324 -0.0038 -0.3363
  681MOL0     C89814   7.510   5.624   5.835 -0.7013 -0.2453  0.1347
  681MOL0     C89815   7.470   5.674   5.956 -0.0677  0.1057  0.1302
  681MOL0     C89816   7.484   5.810   5.985  0.2199  0.3497  0.7018
  681MOL0     C89817   7.530   5.899   5.889  0.8200 -0.1945  0.3407
  681MOL0     O89818   7.521   6.029   5.931 -0.2431 -0.0160  0.6653
  681MOL0     C89819   7.468   6.122   5.838 -2.0908  0.5463  0.4655
  681MOL0     C89820   7.357   6.209   5.908  0.3611  0.0774 -0.1976
  681MOL0     C89821   7.244   6.242   5.810  0.6494  0.9255  0.9129
  681MOL0     C89822   7.176   6.105   5.758 -0.1364  0.4870  0.0597
  681MOL0     C89823   7.031   6.122   5.726  0.0164  0.0854  0.3468
  681MOL0     C89824   6.923   6.155   5.685  0.5911  1.2379 -1.1259
  681MOL0     C89825   7.578   5.845   5.760 -0.1447 -0.4359 -0.4568
  681MOL0     C89826   7.567   5.711   5.733  0.1939 -0.5568 -0.3171
  681MOL0     H89827   7.194   5.257   5.846 -1.1300 -1.5328  0.9578
  681MOL0     H89828   7.199   5.000   5.817  1.8291 -2.2082 -0.8794
  681MOL0     H89829   7.263   4.796   5.895 -0.7075 -1.3114 -1.0575
  681MOL0     H89830   7.385   4.670   5.885 -1.4200  0.3478 -0.3969
  681MOL0     H89831   7.256   4.825   5.643  0.3259 -0.4611 -2.5644
  681MOL0     H89832   7.200   4.671   5.705 -0.6315  0.7637 -0.3530
  681MOL0     H89833   7.483   4.686   5.627 -0.3613 -3.3105  1.6296
  681MOL0     H89834   7.370   4.700   5.499  2.5136 -0.3196 -0.5992
  681MOL0     H89835   7.338   4.504   5.726 -0.0738  0.8646 -0.5927
  681MOL0     H89836   7.278   4.481   5.555 -0.4633 -1.5900  0.2173
  681MOL0     H89837   7.569   4.504   5.598  0.0580 -0.5627 -0.1871
  681MOL0     H89838   7.480   4.430   5.465 -1.6847 -0.5299 -0.0995
  681MOL0     H89839   7.386   4.263   5.643  0.9241 -0.3802  0.3638
  681MOL0     H89840   7.502   4.334   5.749 -0.0645  0.0028  0.3872
  681MOL0     H89841   7.602   4.131   5.642  1.0117 -1.4614 -2.2556
  681MOL0     H89842   7.576   4.205   5.485 -2.2248 -1.2670  1.6500
  681MOL0     H89843   7.770   4.304   5.697  0.3253 -3.9070  1.0991
  681MOL0     H89844   7.737   4.403   5.543 -2.6821 -0.9033 -0.6154
  681MOL0     H89845   7.751   4.083   5.409 -0.3721  3.0333 -0.5481
  681MOL0     H89846   8.109   3.960   5.353  0.5250 -2.8831  0.3380
  681MOL0     H89847   7.964   3.982   5.240  0.4711  2.6952 -0.0443
  681MOL0     H89848   8.014   3.757   5.352 -0.5678  1.3253 -0.6926
  681MOL0     H89849   7.849   3.803   5.355 -1.0735 -1.2765  2.5882
  681MOL0     H89850   8.027   3.776   5.575 -0.0271  0.6076 -0.2902
  681MOL0     H89851   7.893   3.896   5.593 -0.2564 -0.1633 -0.7845
  681MOL0     H89852   7.873   3.664   5.673  2.0845  0.8201  0.4731
  681MOL0     H89853   7.866   3.587   5.516  1.5512 -0.6722  2.5110
  681MOL0     H89854   7.784   3.822   5.791  1.3624  2.9516 -1.2788
  681MOL0     H89855   7.618   3.919   5.931  0.6344 -0.8102 -1.9130
  681MOL0     H89856   7.322   4.268   5.873  1.6034 -0.4062  0.1259
  681MOL0     H89857   7.212   4.464   6.022  1.1459  0.8435  0.5809
  681MOL0     H89858   7.092   4.380   6.430 -0.5159 -1.2281  0.2336
  681MOL0     H89859   6.940   4.377   6.353  0.1675  0.3745  2.6485
  681MOL0     H89860   6.967   4.644   6.328 -1.9660  0.5582  0.7995
  681MOL0     H89861   7.090   4.614   6.449  0.7295  0.1983 -2.0936
  681MOL0     H89862   6.883   4.491   6.584  0.9487  1.1573  0.3823
  681MOL0     H89863   6.790   4.545   6.445 -1.1709  0.8686  0.9888
  681MOL0     H89864   6.939   4.712   6.654 -0.9799 -2.0835  2.1963
  681MOL0     H89865   6.844   4.783   6.512  0.2482  1.0774  1.7517
  681MOL0     H89866   6.641   4.668   6.628 -0.7307  2.7247 -1.2963
  681MOL0     H89867   6.701   4.803   6.711  0.8780 -0.0036 -0.7169
  681MOL0     H89868   6.844   4.678   6.852  2.8135 -0.0516 -3.3850
  681MOL0     H89869   6.805   4.524   6.777  0.5683  0.2847  1.4717
  681MOL0     H89870   6.569   4.683   6.889 -0.5708 -0.2370  2.1045
  681MOL0     H89871   6.580   4.517   6.851  0.9867 -2.0274  2.4695
  681MOL0     H89872   6.599   4.544   7.110 -1.9237  1.8907  0.2865
  681MOL0     H89873   6.740   4.640   7.083 -0.1446 -0.0455 -1.1052
  681MOL0     H89874   7.164   4.175   6.340  1.8627  0.3030  0.9784
  681MOL0     H89875   7.299   4.034   6.236 -3.0678 -0.8987  0.7486
  681MOL0     H89876   7.304   3.877   5.618  0.2345 -3.3685 -0.4520
  681MOL0     H89877   7.476   3.741   5.503  2.5980  0.2680 -0.3745
  681MOL0     H89878   7.617   5.007   5.842 -0.4082  0.5392  1.1822
  681MOL0     H89879   7.626   5.252   5.874 -1.2641  1.7094  0.8722
  681MOL0     H89880   7.432   5.606   6.032  1.6642 -1.9326 -0.6945
  681MOL0     H89881   7.467   5.850   6.085 -1.0005  0.8897  0.2924
  681MOL0     H89882   7.430   6.075   5.747 -1.4278  1.9263 -0.5567
  681MOL0     H89883   7.561   6.169   5.807 -0.5490 -2.7986 -0.4428
  681MOL0     H89884   7.316   6.163   5.998  4.0489 -2.4861  0.4241
  681MOL0     H89885   7.402   6.305   5.936  2.1795  0.3436 -3.5036
  681MOL0     H89886   7.277   6.301   5.725  0.2972  0.5945  0.5397
  681MOL0     H89887   7.168   6.286   5.875 -1.4696 -1.7734  0.4486
  681MOL0     H89888   7.224   6.059   5.671 -0.9195  1.0574 -0.6934
  681MOL0     H89889   7.170   6.039   5.845 -2.5075 -0.7563 -0.9581
  681MOL0     H89890   6.823   6.191   5.671  0.1857 -0.1419 -1.8593
  681MOL0     H89891   7.613   5.915   5.686 -3.1924 -0.8338 -2.4573
  681MOL0     H89892   7.601   5.679   5.635 -0.5014 -0.8434 -0.4731
  682MOL0     O89893  11.385   6.078   0.358  0.0696  0.2631  0.6487
  682MOL0     C89894  11.504   6.051   0.374  0.8675 -0.1458  0.2046
  682MOL0     O89895  11.542   5.959   0.472 -0.1016 -0.0928  0.1176
  682MOL0     C89896  11.438   5.915   0.559 -0.6652  0.2235  0.4224
  682MOL0     C89897  11.400   5.996   0.662  0.3243 -0.2475 -0.5984
  682MOL0     C89898  11.286   5.960   0.736  0.6441  0.1999  0.0133
  682MOL0     C89899  11.204   5.855   0.704  0.1124  0.0423 -0.7810
  682MOL0     O89900  11.089   5.853   0.768  0.5822 -0.2203  0.8920
  682MOL0     C89901  11.005   5.739   0.760  0.1019 -0.7308 -0.2277
  682MOL0     C89902  10.914   5.750   0.873  0.4330 -0.1696 -0.7621
  682MOL0     C89903  10.775   5.782   0.838  0.1944  1.7466 -0.0304
  682MOL0     C89904  10.766   5.920   0.774  0.0183  0.1834  0.1132
  682MOL0     C89905  10.621   5.946   0.736 -0.7991 -0.3548  0.1941
  682MOL0     C89906  10.555   5.870   0.619  0.0013  1.0013  0.4132
  682MOL0     C89907  10.422   5.939   0.588  0.7214 -0.1646 -0.0736
  682MOL0     C89908  10.359   5.843   0.482 -0.5353  1.1728 -0.5871
  682MOL0     N89909  10.219   5.876   0.448  0.1905  0.5438 -0.1856
  682MOL0     C89910  10.146   5.838   0.333  0.1517 -0.2781 -0.6351
  682MOL0     C89911  10.014   5.839   0.374  0.9169  0.1028  1.3967
  682MOL0     C89912   9.909   5.784   0.283 -0.1064 -0.9742 -0.3313
  682MOL0     C89913   9.766   5.826   0.327 -0.7861  0.2931  0.9566
  682MOL0     C89914   9.657   5.747   0.254 -0.4385 -1.0870 -0.5830
  682MOL0     C89915   9.650   5.779   0.103  0.0088 -0.1370  0.8316
  682MOL0     O89916   9.524   5.752   0.031 -0.5019  0.4310 -0.0256
  682MOL0     C89917   9.404   5.801   0.059  0.2984 -0.8244 -0.1257
  682MOL0     C89918   9.288   5.729   0.012  0.5142  0.6691  0.1795
  682MOL0     C89919   9.157   5.768   0.054  0.3127 -0.7723 -0.3118
  682MOL0     C89920   9.146   5.882   0.132  0.5381 -0.5218 -1.2174
  682MOL0     C89921   9.006   5.917   0.193  0.2200  1.1791 -1.0320
  682MOL0     O89922   8.995   5.942   0.325 -0.0977 -0.4446 -0.3738
  682MOL0     C89923   8.872   5.939   0.384  0.3598 -0.4305  0.0611
  682MOL0     C89924   8.823   5.828   0.447 -0.6651  0.6610  0.7029
  682MOL0     C89925   8.704   5.826   0.520 -0.1448 -0.6180  0.6120
  682MOL0     C89926   8.628   5.936   0.544  0.1022  0.2590  0.7735
  682MOL0     O89927   8.514   5.926   0.615  0.5984  0.7278  0.3492
  682MOL0     C89928   8.428   6.044   0.627  0.5829 -0.2563 -0.6078
  682MOL0     C89929   8.320   6.004   0.732 -0.2549 -0.6902 -0.2718
  682MOL0     C89930   8.216   6.110   0.748  0.7511  0.7825 -0.6262
  682MOL0     C89931   8.109   6.055   0.847 -0.2252  0.5845  0.1313
  682MOL0     C89932   8.003   6.169   0.863  0.0628 -0.4278 -0.3808
  682MOL0     C89933   8.015   6.259   0.987 -0.8179  0.0846 -0.9139
  682MOL0     C89934   7.878   6.335   0.995 -0.2758  0.4433 -0.0939
  682MOL0     C89935   7.895   6.452   1.088 -1.1962  0.0671 -0.2782
  682MOL0    Cl89936   7.737   6.514   1.143 -0.2890  0.1106  0.6365
  682MOL0     C89937   8.671   6.050   0.471  1.1044 -0.5427  0.2270
  682MOL0     C89938   8.787   6.055   0.389 -0.5854  0.4390  0.1084
  682MOL0     O89939   8.907   5.897   0.118  0.4081  0.8878  0.1347
  682MOL0     C89940   9.264   5.956   0.167 -0.3607  0.2661 -0.1405
  682MOL0     C89941   9.392   5.920   0.133  0.2976  0.8018  0.7182
  682MOL0     N89942  10.002   5.884   0.502  0.0681  0.2377 -0.1409
  682MOL0     N89943  10.125   5.911   0.546  0.3871  0.5063 -0.6971
  682MOL0     C89944  11.256   5.767   0.606  0.0176 -0.6316 -0.0998
  682MOL0     C89945  11.365   5.794   0.528 -1.0470 -0.0179  0.1205
  682MOL0     C89946  11.608   6.102   0.289 -0.8815 -0.1291  0.7004
  682MOL0     C89947  11.578   6.200   0.182 -0.8813 -0.2621 -0.1314
  682MOL0     C89948  11.686   6.267   0.111  0.4632  0.1823 -0.0934
  682MOL0     C89949  11.824   6.239   0.135 -0.4833  1.2889 -0.0579
  682MOL0     O89950  11.930   6.303   0.078  0.0653  1.0975 -0.1603
  682MOL0     C89951  11.917   6.404  -0.017  0.1916  0.2826  0.2212
  682MOL0     C89952  12.045   6.482  -0.009  0.0739 -1.6255  0.5260
  682MOL0     C89953  12.089   6.532   0.130 -0.1408  0.7160  0.0025
  682MOL0     C89954  12.237   6.587   0.113  0.7760 -0.5540 -0.3178
  682MOL0     C89955  12.231   6.730   0.074  0.4473 -0.4185 -0.5142
  682MOL0     C89956  12.223   6.847   0.070  0.2322  0.1062 -0.0063
  682MOL0     C89957  11.850   6.136   0.221  1.1129  0.4763 -0.1715
  682MOL0     C89958  11.745   6.073   0.297 -0.1712  0.0733  0.7982
  682MOL0     H89959  11.434   6.097   0.681 -0.7010 -0.3567  2.2043
  682MOL0     H89960  11.259   6.028   0.816 -1.1187 -1.0694  0.5612
  682MOL0     H89961  11.062   5.646   0.763  2.0645  0.4258  0.2785
  682MOL0     H89962  10.949   5.742   0.666 -1.4058  0.4709  0.6537
  682MOL0     H89963  10.959   5.833   0.930  0.4612 -1.2384  0.8508
  682MOL0     H89964  10.915   5.653   0.924 -0.4981 -0.4333 -1.2207
  682MOL0     H89965  10.717   5.755   0.927  2.3584 -0.8949  0.7239
  682MOL0     H89966  10.734   5.710   0.767  0.5169  1.4075  0.1260
  682MOL0     H89967  10.811   5.997   0.838  0.7407  0.2150 -0.4174
  682MOL0     H89968  10.819   5.919   0.678 -2.4899 -1.3400 -1.3403
  682MOL0     H89969  10.605   6.051   0.713 -1.4611 -0.5628 -0.3256
  682MOL0     H89970  10.575   5.921   0.832  1.7317  0.7749  1.7887
  682MOL0     H89971  10.541   5.767   0.654 -1.8767  1.5974  1.5432
  682MOL0     H89972  10.614   5.869   0.527 -1.4838  1.1347 -0.5803
  682MOL0     H89973  10.361   5.941   0.679 -0.1053  4.9359 -0.4518
  682MOL0     H89974  10.427   6.044   0.556  0.3280  0.3411  1.4357
  682MOL0     H89975  10.379   5.741   0.515  1.3526  1.2420 -1.3866
  682MOL0     H89976  10.405   5.844   0.383 -1.3966  2.9375 -1.0029
  682MOL0     H89977  10.181   5.809   0.235  0.4670 -1.3973 -0.2085
  682MOL0     H89978   9.929   5.676   0.289  1.3885 -0.6366  2.7879
  682MOL0     H89979   9.931   5.817   0.181  0.2067 -1.4914 -0.4343
  682MOL0     H89980   9.753   5.934   0.320  0.4673  0.3539 -3.2194
  682MOL0     H89981   9.754   5.799   0.432 -0.2329 -0.2760  0.8821
  682MOL0     H89982   9.670   5.639   0.268  0.7714 -1.0078 -0.9606
  682MOL0     H89983   9.562   5.778   0.298  1.8766 -0.4093  4.8016
  682MOL0     H89984   9.734   5.734   0.050  1.5228  0.9728  2.1733
  682MOL0     H89985   9.672   5.885   0.088  0.1573 -0.0331  1.7134
  682MOL0     H89986   9.301   5.645  -0.056 -0.0983  0.1851  0.6532
  682MOL0     H89987   9.064   5.716   0.034 -0.1775  0.6203 -1.8484
  682MOL0     H89988   8.892   5.745   0.456 -3.1294 -1.2753  4.3600
  682MOL0     H89989   8.657   5.736   0.557  0.1995 -0.8864  0.4039
  682MOL0     H89990   8.381   6.082   0.536 -2.0429  0.1427  0.7893
  682MOL0     H89991   8.488   6.123   0.672 -2.2466  1.9088 -0.3701
  682MOL0     H89992   8.381   6.009   0.822 -1.2067  3.9745  0.3727
  682MOL0     H89993   8.278   5.905   0.711  1.7171 -1.3007 -1.6628
  682MOL0     H89994   8.158   6.131   0.657  0.6645  1.4112 -0.4291
  682MOL0     H89995   8.258   6.202   0.789 -3.5301  2.3033  0.8727
  682MOL0     H89996   8.061   5.967   0.803  1.6641 -1.2102  1.5057
  682MOL0     H89997   8.161   6.021   0.937 -0.4893 -3.7261 -1.1001
  682MOL0     H89998   7.906   6.118   0.867  0.8594 -2.1116 -1.3547
  682MOL0     H89999   8.009   6.236   0.777 -0.9847 -2.1668 -1.8837
  682MOL0     H90000   8.104   6.322   0.977  2.4585 -3.9852  0.0366
  682MOL0     H90001   8.033   6.200   1.078 -3.3939  0.6109  0.0222
  682MOL0     H90002   7.826   6.372   0.906 -5.7633  2.8040  3.5124
  682MOL0     H90003   7.808   6.269   1.048  0.8743 -0.7396  0.0033
  682MOL0     H90004   7.956   6.535   1.052 -1.1350  0.3834  0.5401
  682MOL0     H90005   7.945   6.416   1.178 -0.5766  0.9221 -0.2745
  682MOL0     H90006   8.623   6.147   0.474  1.9027 -0.1079 -0.5653
  682MOL0     H90007   8.819   6.139   0.329 -1.3964 -0.5607 -1.8333
  682MOL0     H90008   9.243   6.045   0.225 -3.3972  0.9525 -2.0575
  682MOL0     H90009   9.481   5.965   0.174  2.3000 -4.2375  2.6827
  682MOL0     H90010  11.206   5.674   0.581  2.7799 -2.1378 -0.4017
  682MOL0     H90011  11.388   5.747   0.432 -0.7113 -2.5715  1.3800
  682MOL0     H90012  11.475   6.219   0.154 -0.6331  0.3227 -0.6603
  682MOL0     H90013  11.665   6.338   0.031 -2.6097  2.3890  2.4089
  682MOL0     H90014  11.829   6.467  -0.002 -0.2569  0.1045 -1.4572
  682MOL0     H90015  11.906   6.346  -0.110 -2.6229  3.8446 -1.9504
  682MOL0     H90016  12.123   6.422  -0.056 -0.1854  0.0685 -2.3008
  682MOL0     H90017  12.017   6.560  -0.081  2.3691 -3.8580 -3.0937
  682MOL0     H90018  12.089   6.446   0.199  1.5034  1.8930  1.5575
  682MOL0     H90019  12.008   6.596   0.167 -0.0265  1.0008 -0.2433
  682MOL0     H90020  12.269   6.594   0.217 -1.4833 -0.5274  0.4077
  682MOL0     H90021  12.303   6.518   0.059  2.3581  1.0642 -0.5652
  682MOL0     H90022  12.207   6.953   0.071 -0.7117 -0.0199  2.1149
  682MOL0     H90023  11.948   6.101   0.250  0.9243 -0.1528 -0.2958
  682MOL0     H90024  11.777   5.999   0.370 -1.6490 -0.7104  0.6744
  683MOL0     O90025  11.053   5.300   7.367  0.4091 -0.1431 -0.3336
  683MOL0     C90026  11.167   5.252   7.378 -0.8653 -0.2704 -0.2836
  683MOL0     O90027  11.234   5.189   7.279 -0.8050 -0.4177 -0.2761
  683MOL0     C90028  11.160   5.125   7.183  0.3290 -0.4600 -0.3168
  683MOL0     C90029  11.208   5.133   7.057  0.2968 -0.8648  0.1268
  683MOL0     C90030  11.145   5.083   6.947 -0.3405 -0.4038 -0.5780
  683MOL0     C90031  11.036   5.004   6.957 -0.5078 -0.2845 -0.0003
  683MOL0     O90032  10.997   4.930   6.842  0.2026  0.2597  0.6392
  683MOL0     C90033  10.970   4.793   6.860 -0.7336 -0.0690  0.3897
  683MOL0     C90034  10.916   4.739   6.722  0.4353 -0.6117  0.8234
  683MOL0     C90035  10.967   4.600   6.684  0.5688 -0.3162  0.8333
  683MOL0     C90036  11.120   4.605   6.643  0.2979  0.2319 -0.0931
  683MOL0     C90037  11.173   4.487   6.561 -0.2022 -0.3653  0.3509
  683MOL0     C90038  11.155   4.352   6.628  0.0153  0.2682  0.0061
  683MOL0     C90039  11.232   4.246   6.541 -0.7394  0.6475 -0.3559
  683MOL0     C90040  11.218   4.102   6.577  1.0803  1.2025 -0.3967
  683MOL0     N90041  11.295   4.000   6.502  1.3320 -0.5266  0.1603
  683MOL0     C90042  11.426   4.007   6.471 -0.4734  1.3342  0.8266
  683MOL0     C90043  11.454   3.895   6.397 -0.0860 -0.2947 -0.1683
  683MOL0     C90044  11.580   3.876   6.317 -0.4190 -0.3028  0.6366
  683MOL0     C90045  11.555   3.796   6.194 -0.7204  0.5540 -0.2558
  683MOL0     C90046  11.545   3.640   6.219  0.7458  0.0280  0.6251
  683MOL0     C90047  11.677   3.574   6.263  0.6173 -0.0770 -0.2862
  683MOL0     O90048  11.697   3.613   6.396  0.9125  0.3002 -0.7028
  683MOL0     C90049  11.826   3.632   6.438 -0.0659 -1.0393  0.1665
  683MOL0     C90050  11.927   3.559   6.377  0.3431 -0.1949 -0.1453
  683MOL0     C90051  12.060   3.576   6.413 -0.6478 -0.4482  0.8881
  683MOL0     C90052  12.089   3.665   6.513 -0.2246  0.7815 -0.7680
  683MOL0     C90053  12.229   3.690   6.549 -0.5992  0.0604  0.5325
  683MOL0     O90054  12.255   3.815   6.597  0.4521 -0.4353  0.0204
  683MOL0     C90055  12.383   3.835   6.639 -0.3464  0.7313  0.1069
  683MOL0     C90056  12.393   3.900   6.765 -0.9637  0.2829 -0.0583
  683MOL0     C90057  12.523   3.924   6.824  0.1922  0.7500 -1.0324
  683MOL0     C90058  12.650   3.892   6.762  0.8367  0.0201 -0.8147
  683MOL0     O90059  12.772   3.901   6.831 -0.0458  0.1391 -0.2954
  683MOL0     C90060  12.795   4.028   6.895 -0.5511  0.4163  0.2829
  683MOL0     C90061  12.788   4.153   6.803 -0.1040 -0.9242 -0.0511
  683MOL0     C90062  12.745   4.282   6.878  0.7121 -0.1626 -0.3409
  683MOL0     C90063  12.844   4.317   6.998  0.3650  0.1637  0.5364
  683MOL0     C90064  12.805   4.434   7.076  0.3029 -0.8699  0.2080
  683MOL0     C90065  12.682   4.406   7.168  0.3718 -0.7339 -0.0041
  683MOL0     C90066  12.649   4.527   7.258  0.1809  0.5344  0.0844
  683MOL0     C90067  12.588   4.647   7.189 -0.1146 -0.2515 -0.8967
  683MOL0    Cl90068  12.543   4.783   7.294  0.3808  0.1170 -0.2064
  683MOL0     C90069  12.637   3.832   6.638  0.9283  0.0218  0.2697
  683MOL0     C90070  12.513   3.807   6.578  0.3352  0.2896  0.4086
  683MOL0     O90071  12.313   3.609   6.511  0.2645 -0.3333  0.2580
  683MOL0     C90072  11.988   3.739   6.578  0.1139 -0.5412  0.3782
  683MOL0     C90073  11.853   3.717   6.546  0.6254 -0.9635  0.3056
  683MOL0     N90074  11.345   3.819   6.394  1.6428  0.4628 -0.0082
  683MOL0     N90075  11.251   3.879   6.451  0.8479  0.2105  0.3866
  683MOL0     C90076  10.981   4.998   7.088  0.1358 -0.4373  0.5160
  683MOL0     C90077  11.045   5.048   7.196 -0.6828  0.1951 -0.2773
  683MOL0     C90078  11.231   5.281   7.505 -1.0676  0.4115 -0.0554
  683MOL0     C90079  11.371   5.265   7.503  0.3309  1.4202 -0.9457
  683MOL0     C90080  11.447   5.266   7.626  0.5336 -0.3373  0.4445
  683MOL0     C90081  11.381   5.302   7.739  0.0539  0.6629  0.3640
  683MOL0     O90082  11.446   5.328   7.855 -1.1224  0.6538 -0.7357
  683MOL0     C90083  11.581   5.287   7.871 -0.5885 -0.4912  0.3414
  683MOL0     C90084  11.588   5.130   7.902  0.7089 -0.5897  1.3462
  683MOL0     C90085  11.535   5.080   8.042 -1.1481 -0.8910  0.0264
  683MOL0     C90086  11.384   5.056   8.054  0.3560  0.4343  0.3260
  683MOL0     C90087  11.347   4.976   8.178  0.3368  0.7144  0.1754
  683MOL0     C90088  11.307   4.927   8.278  1.4707  0.2601  0.2117
  683MOL0     C90089  11.243   5.344   7.730  0.0569  1.1601 -0.2680
  683MOL0     C90090  11.171   5.329   7.618  0.3765 -0.4628  0.3049
  683MOL0     H90091  11.299   5.185   7.029 -0.9275  0.0581 -2.4349
  683MOL0     H90092  11.186   5.089   6.847 -0.8191 -0.9197 -0.8117
  683MOL0     H90093  10.900   4.779   6.944  0.4633 -1.8292  1.1616
  683MOL0     H90094  11.064   4.742   6.884 -2.1198 -2.1441  1.7743
  683MOL0     H90095  10.945   4.812   6.646  0.1632 -0.0534  1.2520
  683MOL0     H90096  10.807   4.738   6.731 -0.0220  0.2596 -3.0649
  683MOL0     H90097  10.910   4.570   6.595 -0.2255  1.6155  0.6296
  683MOL0     H90098  10.951   4.539   6.774 -0.1390  0.4096  1.2134
  683MOL0     H90099  11.154   4.694   6.589  1.3506  0.8133  1.4616
  683MOL0     H90100  11.170   4.609   6.740  2.3040  2.7441 -1.1053
  683MOL0     H90101  11.279   4.507   6.546 -0.7595  3.0222  0.2984
  683MOL0     H90102  11.128   4.486   6.461  2.5828 -1.4601 -0.9970
  683MOL0     H90103  11.049   4.325   6.623  0.8685 -3.3495 -1.6167
  683MOL0     H90104  11.181   4.345   6.734  0.5790  3.1449  0.1187
  683MOL0     H90105  11.197   4.246   6.438 -1.3851  0.9448 -0.1404
  683MOL0     H90106  11.341   4.261   6.543 -0.4066 -1.2208 -2.0937
  683MOL0     H90107  11.111   4.078   6.570  1.6295 -1.4021 -1.1820
  683MOL0     H90108  11.241   4.098   6.684  0.5932  5.2926  0.0066
  683MOL0     H90109  11.488   4.096   6.471  2.9422 -0.8295 -0.3705
  683MOL0     H90110  11.657   3.831   6.379  0.9828  1.3947  0.1878
  683MOL0     H90111  11.611   3.977   6.287 -0.2044 -1.0938 -2.1360
  683MOL0     H90112  11.638   3.828   6.130 -0.0286 -1.9211 -0.6873
  683MOL0     H90113  11.461   3.831   6.150 -1.2555  1.5825  1.5991
  683MOL0     H90114  11.462   3.613   6.286  0.1959 -3.2451 -1.1370
  683MOL0     H90115  11.520   3.596   6.122 -3.8177  1.7033  0.8060
  683MOL0     H90116  11.748   3.622   6.195 -0.5287  1.2107 -0.6241
  683MOL0     H90117  11.670   3.467   6.245  4.1320 -0.3391 -0.7924
  683MOL0     H90118  11.902   3.477   6.311 -1.0837 -1.2735  1.6552
  683MOL0     H90119  12.142   3.535   6.354 -1.2758 -0.5501  0.0609
  683MOL0     H90120  12.302   3.932   6.816 -0.9333 -0.0369  0.2006
  683MOL0     H90121  12.510   3.973   6.919 -3.4803 -0.1271 -0.9488
  683MOL0     H90122  12.897   4.037   6.932 -0.0110 -0.2478 -0.9662
  683MOL0     H90123  12.729   4.037   6.982 -0.2921  0.5212  0.4670
  683MOL0     H90124  12.718   4.147   6.719  0.3375 -0.1981 -0.4740
  683MOL0     H90125  12.889   4.166   6.763 -0.5819 -1.8121 -1.6361
  683MOL0     H90126  12.641   4.273   6.910  0.7584  1.6624  0.4457
  683MOL0     H90127  12.747   4.365   6.806 -0.7730  0.4991  0.3338
  683MOL0     H90128  12.866   4.223   7.051  2.4195 -0.3906 -1.1671
  683MOL0     H90129  12.938   4.342   6.947 -1.0510  1.3944 -1.5981
  683MOL0     H90130  12.774   4.507   7.000 -0.5223 -1.2829  0.1400
  683MOL0     H90131  12.888   4.470   7.138  0.6577  1.2654 -1.3782
  683MOL0     H90132  12.714   4.318   7.226  2.7960 -0.7826 -1.2832
  683MOL0     H90133  12.596   4.380   7.106 -0.1450  0.5264  0.1579
  683MOL0     H90134  12.568   4.494   7.323 -0.0897 -0.6499 -0.8271
  683MOL0     H90135  12.728   4.545   7.331 -1.3631  3.5173  1.2099
  683MOL0     H90136  12.496   4.613   7.142 -0.3948 -0.5667 -0.1279
  683MOL0     H90137  12.657   4.680   7.110 -0.9820 -0.3170 -1.7088
  683MOL0     H90138  12.733   3.821   6.588  0.6905  4.0502 -1.4830
  683MOL0     H90139  12.502   3.764   6.479 -0.7033 -0.3100  0.7714
  683MOL0     H90140  12.005   3.804   6.663  0.1408 -1.2277  0.9130
  683MOL0     H90141  11.782   3.783   6.594  1.4016  1.5155 -1.6892
  683MOL0     H90142  10.892   4.937   7.100 -2.3110  2.6969 -0.3404
  683MOL0     H90143  11.006   5.037   7.297 -0.6780 -1.4727 -0.4233
  683MOL0     H90144  11.411   5.250   7.403 -1.4118 -0.2142 -1.4610
  683MOL0     H90145  11.549   5.231   7.610  0.1869 -0.8226 -0.8410
  683MOL0     H90146  11.625   5.344   7.954  1.8030 -0.6052 -0.7662
  683MOL0     H90147  11.652   5.309   7.791 -1.4568 -2.1250 -0.9217
  683MOL0     H90148  11.541   5.076   7.820  1.6883  1.0501 -0.3910
  683MOL0     H90149  11.693   5.099   7.894  0.3412 -2.5986  3.3387
  683MOL0     H90150  11.578   5.138   8.125  0.1324 -0.2360 -1.0374
  683MOL0     H90151  11.581   4.981   8.045  2.5388  0.5428 -2.0136
  683MOL0     H90152  11.351   5.160   8.053 -0.3675  0.2121  0.1267
  683MOL0     H90153  11.338   5.012   7.964 -1.1708  2.6433 -0.0521
  683MOL0     H90154  11.270   4.889   8.372  0.6639 -1.8469 -0.8831
  683MOL0     H90155  11.191   5.384   7.816 -1.5776  2.6520 -1.8602
  683MOL0     H90156  11.067   5.362   7.619  0.6396  0.3940  1.5732
  684MOL0     O90157   0.300  10.892  10.271  1.1191 -0.2992 -0.4179
  684MOL0     C90158   0.303  10.983  10.354 -0.6983  0.5651 -0.2500
  684MOL0     O90159   0.194  11.045  10.414  0.0666 -0.4578  0.4179
  684MOL0     C90160   0.063  11.007  10.387  0.6109 -0.2992 -0.0492
  684MOL0     C90161   0.020  10.873  10.379  0.8692  0.1570 -0.6249
  684MOL0     C90162  -0.117  10.846  10.377 -0.2408  0.9365 -0.9310
  684MOL0     C90163  -0.210  10.947  10.375 -0.3294  0.0246  0.9839
  684MOL0     O90164  -0.341  10.918  10.358  0.7980  0.2427  0.7098
  684MOL0     C90165  -0.397  10.846  10.471  0.0754 -0.6112 -0.3459
  684MOL0     C90166  -0.531  10.796  10.444  0.5794  0.8084 -0.2499
  684MOL0     C90167  -0.549  10.696  10.322 -0.7844  0.7177 -1.1612
  684MOL0     C90168  -0.630  10.758  10.225 -0.1515  0.6188 -0.7341
  684MOL0     C90169  -0.629  10.671  10.095  1.3748 -0.1550 -0.1395
  684MOL0     C90170  -0.716  10.734   9.986 -0.3199 -0.5740  0.5558
  684MOL0     C90171  -0.736  10.616   9.875 -1.0395 -0.3297  0.4840
  684MOL0     C90172  -0.808  10.649   9.749 -0.3915 -1.5864 -0.6244
  684MOL0     N90173  -0.957  10.656   9.764  0.5834 -0.5999 -0.3735
  684MOL0     C90174  -1.041  10.758   9.722 -0.0182  0.0378  0.3960
  684MOL0     C90175  -1.159  10.736   9.788  0.1895 -0.1168 -0.4109
  684MOL0     C90176  -1.282  10.822   9.776 -0.1228 -0.0777  1.1100
  684MOL0     C90177  -1.389  10.762   9.862 -0.5375  1.0579 -0.1677
  684MOL0     C90178  -1.520  10.827   9.836 -0.8618 -0.3074  0.2011
  684MOL0     C90179  -1.644  10.770   9.900  0.6188 -0.4411 -0.8842
  684MOL0     O90180  -1.623  10.792  10.042 -0.3409 -0.2119  0.1839
  684MOL0     C90181  -1.739  10.836  10.098 -0.7905 -0.0401  0.1902
  684MOL0     C90182  -1.740  10.967  10.148  0.2061  0.5655 -0.3206
  684MOL0     C90183  -1.866  11.021  10.190  0.7259 -0.3008  0.2391
  684MOL0     C90184  -1.980  10.936  10.190  0.6802  0.4632  1.4566
  684MOL0     C90185  -2.115  10.988  10.233  0.2748  0.9211 -0.1169
  684MOL0     O90186  -2.204  10.894  10.272  0.1365  0.2346  0.1159
  684MOL0     C90187  -2.327  10.937  10.320 -0.3093  0.1592  0.7745
  684MOL0     C90188  -2.435  10.919  10.230  0.1236  0.7637  0.3551
  684MOL0     C90189  -2.565  10.956  10.266 -0.1021  0.0099  0.6253
  684MOL0     C90190  -2.600  11.007  10.392  0.2460 -0.0703  0.4374
  684MOL0     O90191  -2.724  11.047  10.427 -0.0720 -1.0985 -0.2633
  684MOL0     C90192  -2.833  10.990  10.352  0.7649 -0.6992 -0.6404
  684MOL0     C90193  -2.960  11.010  10.435  0.0921 -0.3239 -0.3984
  684MOL0     C90194  -3.085  10.943  10.380  0.5659 -0.3030 -0.1666
  684MOL0     C90195  -3.215  11.023  10.419 -0.1135  0.4032  0.9158
  684MOL0     C90196  -3.340  10.940  10.362 -0.0866 -1.0764  0.4923
  684MOL0     C90197  -3.353  10.953  10.203 -0.2161 -0.0349  0.0559
  684MOL0     C90198  -3.412  11.091  10.162  0.0778  0.0370 -0.4729
  684MOL0     C90199  -3.487  11.089  10.038 -0.2242 -0.4601 -0.4558
  684MOL0    Cl90200  -3.359  11.089   9.913 -0.0872 -0.0325  0.0111
  684MOL0     C90201  -2.487  11.022  10.478  0.3518  0.4341 -0.5560
  684MOL0     C90202  -2.359  10.984  10.450 -0.0121  0.3563 -0.1013
  684MOL0     O90203  -2.139  11.111  10.236 -0.0695  1.2465  0.1157
  684MOL0     C90204  -1.963  10.801  10.158 -0.3632  0.2553  0.1379
  684MOL0     C90205  -1.840  10.750  10.110  0.6599 -0.6320  0.2708
  684MOL0     N90206  -1.133  10.621   9.857  0.4664  0.7106  0.3151
  684MOL0     N90207  -1.034  10.561   9.827 -0.3473  0.5260 -0.2999
  684MOL0     C90208  -0.169  11.082  10.391 -0.7071  0.2794 -0.6306
  684MOL0     C90209  -0.035  11.108  10.392 -0.1303  0.0368 -0.2190
  684MOL0     C90210   0.433  11.047  10.381  0.3226  1.3694 -0.5626
  684MOL0     C90211   0.554  10.977  10.353  0.2684 -1.2580 -0.1164
  684MOL0     C90212   0.675  11.039  10.371 -0.1043 -0.8821  0.7015
  684MOL0     C90213   0.681  11.164  10.424 -0.0393 -0.5231  0.1622
  684MOL0     O90214   0.804  11.209  10.458 -0.6087  0.3707  0.2231
  684MOL0     C90215   0.828  11.346  10.442  0.7960 -0.8001  0.1024
  684MOL0     C90216   0.819  11.406  10.303 -1.0105  0.3653  0.3241
  684MOL0     C90217   0.922  11.350  10.206  0.0046 -0.4670  0.0735
  684MOL0     C90218   0.900  11.417  10.067 -0.2785  0.0123 -0.1773
  684MOL0     C90219   0.957  11.549  10.069  0.4101  0.3988 -0.2728
  684MOL0     C90220   1.008  11.657  10.065 -0.5016 -0.1221 -0.3736
  684MOL0     C90221   0.568  11.233  10.467  0.2649  0.2250 -0.1236
  684MOL0     C90222   0.440  11.177  10.437 -0.6265 -0.4878  0.1742
  684MOL0     H90223   0.093  10.794  10.393  1.9678  1.5440  2.7653
  684MOL0     H90224  -0.151  10.743  10.371 -0.7139  1.0600 -0.3646
  684MOL0     H90225  -0.403  10.919  10.553  0.0412 -1.8278  0.7777
  684MOL0     H90226  -0.332  10.764  10.502  3.1692  1.0464 -1.9663
  684MOL0     H90227  -0.596  10.882  10.427  0.3867  0.4385 -1.4360
  684MOL0     H90228  -0.566  10.759  10.541 -2.4315  2.7120 -0.4975
  684MOL0     H90229  -0.597  10.605  10.358 -1.2058  1.3651 -0.0411
  684MOL0     H90230  -0.448  10.679  10.284  0.1238  0.8190  1.0940
  684MOL0     H90231  -0.734  10.773  10.258  0.2822  0.0599  0.9691
  684MOL0     H90232  -0.593  10.858  10.204  0.2716  0.6466  0.1125
  684MOL0     H90233  -0.671  10.573  10.118  5.0389 -2.3441 -1.8473
  684MOL0     H90234  -0.529  10.644  10.061  1.4394  2.1705 -2.0970
  684MOL0     H90235  -0.658  10.817   9.944 -0.7502 -0.1561  0.7674
  684MOL0     H90236  -0.816  10.763  10.019  0.5268 -0.5268  3.2596
  684MOL0     H90237  -0.645  10.562   9.848 -1.3725 -0.6030 -0.1106
  684MOL0     H90238  -0.786  10.529   9.917 -0.9356 -0.0828  1.1398
  684MOL0     H90239  -0.797  10.581   9.664 -2.9187 -4.6488  1.2903
  684MOL0     H90240  -0.779  10.749   9.715  0.3658 -2.1237 -1.6367
  684MOL0     H90241  -1.038  10.843   9.655 -1.7356 -2.0288 -2.5645
  684MOL0     H90242  -1.306  10.808   9.670 -0.7115  1.0695  1.0821
  684MOL0     H90243  -1.244  10.920   9.806  2.9528 -1.5199  2.3902
  684MOL0     H90244  -1.369  10.764   9.969  2.6311  3.3334 -0.6563
  684MOL0     H90245  -1.410  10.659   9.833 -0.9036  1.0598  0.0871
  684MOL0     H90246  -1.509  10.935   9.847  0.0370  0.0484 -3.1122
  684MOL0     H90247  -1.539  10.807   9.730 -1.6235  1.0276  0.0782
  684MOL0     H90248  -1.664  10.664   9.885 -1.7179  0.0543 -1.6951
  684MOL0     H90249  -1.735  10.819   9.863  0.2055  2.2283  2.9849
  684MOL0     H90250  -1.652  11.030  10.134 -1.0000  2.0244 -1.6410
  684MOL0     H90251  -1.877  11.121  10.231 -1.9266 -0.4721  0.1371
  684MOL0     H90252  -2.412  10.856  10.145 -0.3758 -0.9007  1.4244
  684MOL0     H90253  -2.638  10.944  10.186  0.5032  0.1039  0.0440
  684MOL0     H90254  -2.814  10.883  10.337  1.8219 -0.6276  0.1082
  684MOL0     H90255  -2.839  11.052  10.262  0.9248  5.0970  2.8419
  684MOL0     H90256  -2.965  11.116  10.463  3.0528 -0.2128  0.0117
  684MOL0     H90257  -2.950  10.958  10.531 -2.2498 -3.1907 -1.5781
  684MOL0     H90258  -3.082  10.843  10.424  0.9782 -0.6862 -1.0201
  684MOL0     H90259  -3.072  10.935  10.271 -3.1297  2.4224 -0.9924
  684MOL0     H90260  -3.224  11.027  10.528 -0.4149  5.0615  0.9464
  684MOL0     H90261  -3.213  11.130  10.392 -0.5573  0.2043  0.0636
  684MOL0     H90262  -3.427  10.968  10.423  1.1172  1.1694  1.2996
  684MOL0     H90263  -3.320  10.834  10.381 -0.1623 -1.0901  0.4922
  684MOL0     H90264  -3.418  10.873  10.166 -0.0804  0.2957 -0.9036
  684MOL0     H90265  -3.257  10.934  10.154 -1.5135 -1.6948 -2.0266
  684MOL0     H90266  -3.470  11.127  10.247  2.3421 -1.8046  2.0662
  684MOL0     H90267  -3.330  11.164  10.164  0.1931 -0.0376  2.5920
  684MOL0     H90268  -3.550  11.178  10.022 -0.3909 -0.8038 -1.8566
  684MOL0     H90269  -3.552  11.002  10.043  0.3435 -0.8225  1.6717
  684MOL0     H90270  -2.487  11.077  10.572  3.1228  2.0554 -1.3726
  684MOL0     H90271  -2.279  11.002  10.521  2.7442 -0.6425 -2.7578
  684MOL0     H90272  -2.044  10.729  10.166  0.1641 -0.2169  1.6172
  684MOL0     H90273  -1.816  10.655  10.062  1.0186 -0.2830 -0.2519
  684MOL0     H90274  -0.245  11.159  10.397  0.5386  1.6423 -1.8034
  684MOL0     H90275  -0.006  11.210  10.413 -0.7226 -0.2221  2.1349
  684MOL0     H90276   0.545  10.878  10.309 -2.0437 -0.5734 -1.3447
  684MOL0     H90277   0.765  10.985  10.343 -0.8751 -2.7555  1.6511
  684MOL0     H90278   0.922  11.374  10.491 -1.0354  2.4212  2.1332
  684MOL0     H90279   0.763  11.407  10.505  2.0588  0.4071  0.3025
  684MOL0     H90280   0.719  11.389  10.260  0.0809 -0.9354 -1.8417
  684MOL0     H90281   0.838  11.513  10.321 -0.7356  1.0989 -3.5132
  684MOL0     H90282   0.887  11.246  10.202 -3.3048  0.4971  0.8090
  684MOL0     H90283   1.026  11.344  10.239  0.6069 -3.3171 -1.9718
  684MOL0     H90284   0.948  11.360   9.988  0.0451  0.8288 -0.5871
  684MOL0     H90285   0.796  11.425  10.033  0.5329  0.6060 -2.7335
  684MOL0     H90286   1.061  11.749  10.074  1.8898 -1.2749 -1.6374
  684MOL0     H90287   0.563  11.330  10.515  4.2567  0.1547  0.8381
  684MOL0     H90288   0.347  11.229  10.460 -1.0526 -1.6511  1.2237
  685MOL0     O90289   7.629   4.830   5.459 -1.4934  0.8623  0.2151
  685MOL0     C90290   7.721   4.779   5.399 -0.7052 -0.1189 -1.0104
  685MOL0     O90291   7.735   4.762   5.271  0.4338 -0.9851  0.5495
  685MOL0     C90292   7.630   4.773   5.177  0.6095 -0.7618 -1.5594
  685MOL0     C90293   7.669   4.808   5.049  0.0708  0.8177  0.1522
  685MOL0     C90294   7.583   4.801   4.944  0.5160 -0.0342  0.1687
  685MOL0     C90295   7.445   4.756   4.959 -0.6303  0.8398 -0.9266
  685MOL0     O90296   7.349   4.739   4.862 -0.4255  0.1630  0.1666
  685MOL0     C90297   7.350   4.843   4.770  0.0897 -0.8562 -0.2011
  685MOL0     C90298   7.214   4.851   4.709  0.1137  0.6679 -0.2935
  685MOL0     C90299   7.123   4.938   4.798  0.1936 -0.5108 -0.0453
  685MOL0     C90300   7.062   4.865   4.916 -0.6571 -0.4825 -0.6267
  685MOL0     C90301   6.947   4.945   4.993 -0.3391  0.6174  0.3950
  685MOL0     C90302   6.940   5.103   4.993  0.5679  0.2758  0.0024
  685MOL0     C90303   6.838   5.132   5.103  1.0452 -0.0734  0.2930
  685MOL0     C90304   6.812   5.276   5.123 -0.4385 -0.1277  0.8418
  685MOL0     N90305   6.930   5.355   5.165 -0.1690 -0.4579  0.7971
  685MOL0     C90306   6.983   5.362   5.292  0.3703 -0.7279 -0.9917
  685MOL0     C90307   7.066   5.467   5.290  0.7287  0.7909 -0.0990
  685MOL0     C90308   7.136   5.527   5.408 -0.4196  0.0711 -0.6737
  685MOL0     C90309   7.296   5.520   5.375  0.1445 -0.7596 -0.8088
  685MOL0     C90310   7.334   5.659   5.328  0.2658  0.5774  0.6898
  685MOL0     C90311   7.487   5.669   5.331 -0.2031  0.1526  0.2791
  685MOL0     O90312   7.523   5.774   5.241  0.0975 -0.5646  0.1057
  685MOL0     C90313   7.650   5.788   5.179 -0.0299 -0.4561 -1.5060
  685MOL0     C90314   7.661   5.896   5.092  0.0991 -0.0772 -0.2612
  685MOL0     C90315   7.776   5.936   5.039 -0.1079 -0.0544  0.7250
  685MOL0     C90316   7.892   5.868   5.063  1.2352  0.0058 -1.1381
  685MOL0     C90317   8.021   5.921   5.011  1.1796  0.3854 -0.6014
  685MOL0     O90318   8.134   5.853   5.041  0.1124 -0.6051  0.2175
  685MOL0     C90319   8.253   5.924   5.045  0.7436 -0.4956 -0.0892
  685MOL0     C90320   8.282   6.006   5.155  1.2412 -0.6544 -0.1705
  685MOL0     C90321   8.393   6.086   5.160 -0.5889  0.3100 -0.0786
  685MOL0     C90322   8.474   6.100   5.046 -0.9471  0.8325 -0.2227
  685MOL0     O90323   8.595   6.178   5.055  0.2302  0.7377  0.0250
  685MOL0     C90324   8.601   6.295   4.975  0.9183 -0.3858  0.8355
  685MOL0     C90325   8.630   6.416   5.060 -0.6458  0.3694 -0.1362
  685MOL0     C90326   8.602   6.547   4.981 -0.3918 -0.7340 -0.1840
  685MOL0     C90327   8.662   6.664   5.058 -0.1205 -0.1421 -0.3075
  685MOL0     C90328   8.819   6.666   5.067  0.4499 -0.7842 -0.9973
  685MOL0     C90329   8.891   6.638   4.936 -0.4858  0.5626  0.0228
  685MOL0     C90330   9.035   6.689   4.958 -0.2658  0.3707 -0.1789
  685MOL0     C90331   9.058   6.842   4.961  0.7745 -0.1681  0.5712
  685MOL0    Cl90332   9.210   6.878   5.050  0.0870  0.1306 -0.0314
  685MOL0     C90333   8.438   6.041   4.928  0.1097  0.3881 -1.0360
  685MOL0     C90334   8.322   5.956   4.929 -1.4549  0.5405  0.5481
  685MOL0     O90335   8.020   6.032   4.960  0.3742  0.0359 -0.7338
  685MOL0     C90336   7.884   5.750   5.141  0.5923 -0.5597 -0.0349
  685MOL0     C90337   7.765   5.704   5.192  0.5989 -0.1509 -0.0481
  685MOL0     N90338   7.067   5.522   5.157  0.9922  0.8331 -0.9021
  685MOL0     N90339   6.981   5.458   5.088  0.5197  0.7471  0.0582
  685MOL0     C90340   7.406   4.729   5.090 -0.0231  0.3692  0.5272
  685MOL0     C90341   7.492   4.739   5.200 -0.5269 -0.6594 -0.7950
  685MOL0     C90342   7.833   4.730   5.478  0.5618 -0.0580 -0.2079
  685MOL0     C90343   7.922   4.636   5.417 -0.4475 -0.2336 -0.1209
  685MOL0     C90344   8.023   4.578   5.500 -0.1622 -0.1988  0.3789
  685MOL0     C90345   8.021   4.598   5.634  0.1375  0.2555  0.3544
  685MOL0     O90346   8.120   4.535   5.700  0.1841 -0.1130 -0.2037
  685MOL0     C90347   8.228   4.625   5.730 -0.0351  0.1022 -1.2207
  685MOL0     C90348   8.352   4.588   5.639  0.2652  0.1888 -0.2157
  685MOL0     C90349   8.407   4.454   5.675  0.1752 -1.2732 -0.2562
  685MOL0     C90350   8.565   4.440   5.643 -0.1588 -0.3834  0.2928
  685MOL0     C90351   8.576   4.438   5.502 -0.2381  0.4704  0.7653
  685MOL0     C90352   8.587   4.428   5.375  0.3269 -0.5723  0.3788
  685MOL0     C90353   7.921   4.675   5.694 -0.0460 -0.2095  0.5221
  685MOL0     C90354   7.836   4.756   5.613 -0.6133  0.8261 -0.7064
  685MOL0     H90355   7.775   4.828   5.040  0.4892  0.0660  2.5204
  685MOL0     H90356   7.620   4.824   4.845 -2.2171  0.6200 -0.7757
  685MOL0     H90357   7.430   4.821   4.698 -1.0051 -3.3165 -0.7582
  685MOL0     H90358   7.376   4.936   4.822 -1.1366 -0.9296  0.5726
  685MOL0     H90359   7.175   4.751   4.688  0.8153 -0.2069  2.1639
  685MOL0     H90360   7.229   4.885   4.606  3.5292 -0.0829 -0.1432
  685MOL0     H90361   7.031   4.969   4.746 -0.8016  2.1569  2.9843
  685MOL0     H90362   7.176   5.030   4.820 -0.5555 -0.2446  0.7001
  685MOL0     H90363   7.029   4.767   4.881 -0.1089  0.2768 -3.5305
  685MOL0     H90364   7.142   4.848   4.988 -1.5423 -3.0657 -0.1431
  685MOL0     H90365   6.929   4.907   5.094  1.1040  0.5261  0.6345
  685MOL0     H90366   6.853   4.922   4.941 -0.5240  2.5080 -0.1947
  685MOL0     H90367   6.911   5.147   4.897  0.8337  0.1422 -0.1403
  685MOL0     H90368   7.040   5.131   5.027  1.1653 -4.6621  3.5121
  685MOL0     H90369   6.741   5.088   5.079 -1.3864  2.6152  4.1285
  685MOL0     H90370   6.862   5.081   5.197 -0.5988  0.2599  0.9206
  685MOL0     H90371   6.725   5.291   5.187 -2.1251 -0.8834 -1.1871
  685MOL0     H90372   6.775   5.313   5.027 -1.4351 -0.6118  1.0312
  685MOL0     H90373   6.973   5.306   5.385  5.3945  0.3642  0.5550
  685MOL0     H90374   7.113   5.469   5.498  3.3937 -1.9957 -0.8292
  685MOL0     H90375   7.086   5.622   5.430  2.4139  1.3981  0.5172
  685MOL0     H90376   7.329   5.443   5.305 -0.4654  0.6302 -2.7094
  685MOL0     H90377   7.342   5.496   5.471 -0.7480 -0.9510 -0.4169
  685MOL0     H90378   7.292   5.691   5.232  0.0607 -1.4868  0.0292
  685MOL0     H90379   7.278   5.728   5.392  1.8376  1.4518  1.1664
  685MOL0     H90380   7.526   5.574   5.292 -0.1127  0.3866 -0.2057
  685MOL0     H90381   7.524   5.689   5.431  0.8650  0.5258 -0.1787
  685MOL0     H90382   7.576   5.961   5.076  0.4939  1.2545  2.4040
  685MOL0     H90383   7.772   6.014   4.963 -0.8409 -0.2319  0.5727
  685MOL0     H90384   8.218   5.997   5.242  0.9726  0.4569 -0.2451
  685MOL0     H90385   8.422   6.123   5.258 -2.1592 -0.0962  0.5625
  685MOL0     H90386   8.513   6.303   4.910  0.8862 -2.4320  0.5649
  685MOL0     H90387   8.681   6.281   4.902  0.0585  0.3696 -0.2803
  685MOL0     H90388   8.731   6.412   5.100 -1.5544  1.3733  2.4758
  685MOL0     H90389   8.559   6.421   5.143  0.2671  1.5080  0.5893
  685MOL0     H90390   8.495   6.566   4.965 -0.7345 -3.3629 -1.5976
  685MOL0     H90391   8.659   6.539   4.888  3.1493 -0.3737  1.7909
  685MOL0     H90392   8.642   6.755   5.001 -1.0437  0.1440  0.4453
  685MOL0     H90393   8.613   6.678   5.155  0.3202  0.7327 -0.2020
  685MOL0     H90394   8.848   6.591   5.141 -3.9790  0.1265  2.1096
  685MOL0     H90395   8.846   6.767   5.101  0.4105 -1.2756  0.6118
  685MOL0     H90396   8.855   6.674   4.839  1.0853 -2.0741 -1.6573
  685MOL0     H90397   8.904   6.530   4.930 -2.1608  0.4364 -3.2025
  685MOL0     H90398   9.064   6.650   5.056 -0.1067 -1.0108 -0.7438
  685MOL0     H90399   9.102   6.636   4.890  1.0678 -2.1751  2.8598
  685MOL0     H90400   8.972   6.886   5.012 -0.7162 -2.2248 -0.0716
  685MOL0     H90401   9.052   6.875   4.857 -0.7473  0.8333  0.9461
  685MOL0     H90402   8.508   6.043   4.845 -0.8511 -2.2415 -1.9973
  685MOL0     H90403   8.307   5.901   4.837  2.0751 -3.5336  2.0674
  685MOL0     H90404   7.976   5.699   5.167  1.1011  0.7306  0.7884
  685MOL0     H90405   7.751   5.606   5.236 -3.1292  0.3552  0.1692
  685MOL0     H90406   7.300   4.705   5.097  0.0590  0.3727  2.2359
  685MOL0     H90407   7.446   4.710   5.294 -2.5650 -2.6954 -2.3048
  685MOL0     H90408   7.934   4.610   5.313  1.9800  1.5362 -0.3719
  685MOL0     H90409   8.105   4.517   5.466  1.0004  1.4917  0.0493
  685MOL0     H90410   8.255   4.608   5.835  2.9423  4.8587 -0.8877
  685MOL0     H90411   8.197   4.730   5.718 -0.3877  0.2488  0.6551
  685MOL0     H90412   8.317   4.588   5.535 -3.5772  1.5431  0.9035
  685MOL0     H90413   8.436   4.655   5.659 -1.7143  2.6562  0.4147
  685MOL0     H90414   8.355   4.376   5.618 -1.7325  0.5778 -1.2110
  685MOL0     H90415   8.395   4.428   5.780 -2.0450 -0.0908 -0.1472
  685MOL0     H90416   8.627   4.521   5.683  1.0663 -0.8324 -0.6492
  685MOL0     H90417   8.596   4.341   5.676 -2.8233 -2.2183 -2.1292
  685MOL0     H90418   8.580   4.417   5.269 -0.3699 -3.3327  0.6177
  685MOL0     H90419   7.916   4.676   5.803 -3.2432 -4.1973  0.6459
  685MOL0     H90420   7.776   4.835   5.659  0.2267 -0.0459  2.0878
  686MOL0     O90421   1.221   9.293   4.029 -0.3537 -0.3834 -0.1533
  686MOL0     C90422   1.248   9.311   3.912  0.1989  1.1175 -0.7469
  686MOL0     O90423   1.176   9.269   3.805  0.5817  0.7043  0.3401
  686MOL0     C90424   1.061   9.195   3.819  0.1162  0.2926 -0.6364
  686MOL0     C90425   1.032   9.106   3.928 -0.7047  0.1027  0.1834
  686MOL0     C90426   0.907   9.044   3.939 -0.2450 -0.3060 -0.5364
  686MOL0     C90427   0.813   9.062   3.837 -0.1868 -0.3128  0.3697
  686MOL0     O90428   0.688   9.001   3.839  0.1412 -0.3318  0.6926
  686MOL0     C90429   0.577   9.088   3.886  0.1362 -0.2060  0.5444
  686MOL0     C90430   0.437   9.029   3.884  0.0408  0.1612 -0.3036
  686MOL0     C90431   0.435   8.911   3.994  0.1408 -0.6380  0.0997
  686MOL0     C90432   0.283   8.868   4.022  0.9415  0.1430 -0.2047
  686MOL0     C90433   0.264   8.751   4.109 -0.0254  0.2358  0.4417
  686MOL0     C90434   0.329   8.749   4.248  0.0740 -0.1087 -0.0739
  686MOL0     C90435   0.278   8.615   4.316 -1.1057 -0.2237  0.4165
  686MOL0     C90436   0.139   8.613   4.378 -0.1754  0.4393  0.2295
  686MOL0     N90437   0.140   8.700   4.497  0.2270  0.0931 -0.4122
  686MOL0     C90438   0.189   8.668   4.618 -0.3335  0.5095 -0.5092
  686MOL0     C90439   0.224   8.782   4.687 -0.1267 -0.0715 -0.4024
  686MOL0     C90440   0.275   8.782   4.839 -1.0033 -0.0489 -0.3195
  686MOL0     C90441   0.425   8.736   4.846 -0.0389 -0.3974  0.0916
  686MOL0     C90442   0.526   8.842   4.798 -0.0179  0.4171  0.4979
  686MOL0     C90443   0.661   8.790   4.792  0.1055  0.8460  0.5898
  686MOL0     O90444   0.691   8.678   4.705 -0.2517  0.0753 -0.3162
  686MOL0     C90445   0.687   8.689   4.572  0.4635 -0.1023 -0.4023
  686MOL0     C90446   0.680   8.806   4.494  0.4641  0.4310 -0.4712
  686MOL0     C90447   0.674   8.788   4.355 -0.0701 -0.3050  0.2528
  686MOL0     C90448   0.700   8.659   4.302 -1.0863 -0.2662 -0.3764
  686MOL0     C90449   0.730   8.641   4.151 -0.0020  0.1666 -0.8578
  686MOL0     O90450   0.701   8.512   4.107  0.1955  0.0483 -0.0557
  686MOL0     C90451   0.702   8.492   3.967  0.3782  0.0322  0.1431
  686MOL0     C90452   0.606   8.410   3.903  0.0342 -0.6274  0.0928
  686MOL0     C90453   0.629   8.372   3.771 -0.5092 -0.5189  0.7448
  686MOL0     C90454   0.731   8.414   3.692 -0.9116  0.1206  0.5809
  686MOL0     O90455   0.718   8.403   3.556  0.1627  0.0190  0.0428
  686MOL0     C90456   0.815   8.453   3.468 -1.3849 -0.5822  0.2269
  686MOL0     C90457   0.787   8.606   3.429 -0.6192  0.8608  0.4257
  686MOL0     C90458   0.860   8.649   3.301  0.3476 -0.0965  0.5898
  686MOL0     C90459   1.002   8.653   3.324 -0.5350 -1.0277  0.0667
  686MOL0     C90460   1.083   8.757   3.241  0.8301 -0.1270  0.3661
  686MOL0     C90461   1.077   8.739   3.089  0.1729  0.3653 -0.1526
  686MOL0     C90462   0.941   8.752   3.021  0.2358 -1.1075 -0.2140
  686MOL0     C90463   0.938   8.831   2.891  0.4507 -0.2278 -0.2612
  686MOL0    Cl90464   1.053   8.769   2.773  0.1579 -0.2818  0.1578
  686MOL0     C90465   0.827   8.498   3.757 -0.1888  0.3704  0.3687
  686MOL0     C90466   0.820   8.531   3.896  0.4706 -0.1673  0.8587
  686MOL0     O90467   0.752   8.735   4.079  0.2755  0.4803  0.5529
  686MOL0     C90468   0.717   8.551   4.383 -0.4637  0.0000  0.1590
  686MOL0     C90469   0.698   8.570   4.512 -0.2654 -0.3496 -0.0182
  686MOL0     N90470   0.185   8.890   4.611  0.6520 -0.7003  0.6841
  686MOL0     N90471   0.132   8.837   4.504 -0.8127 -0.0064  0.7473
  686MOL0     C90472   0.834   9.157   3.734 -0.0586 -0.2967  0.3212
  686MOL0     C90473   0.960   9.222   3.730 -0.3547  0.6126  0.1470
  686MOL0     C90474   1.372   9.390   3.899 -0.1283 -0.0997  0.1787
  686MOL0     C90475   1.415   9.437   3.773 -0.2554 -0.1708 -0.5504
  686MOL0     C90476   1.538   9.506   3.751 -0.3992  0.0100 -0.4992
  686MOL0     C90477   1.629   9.496   3.860 -0.8655  0.0999 -0.2152
  686MOL0     O90478   1.753   9.543   3.852  1.0287 -0.3405 -0.3497
  686MOL0     C90479   1.798   9.631   3.747 -0.0002 -0.3872 -0.0691
  686MOL0     C90480   1.937   9.587   3.710  0.6834  0.0204 -0.0208
  686MOL0     C90481   1.944   9.444   3.653  0.3894  0.9596  0.5118
  686MOL0     C90482   1.845   9.406   3.544  0.0305  0.7365 -0.2548
  686MOL0     C90483   1.835   9.503   3.431  0.7472  0.1073  0.2482
  686MOL0     C90484   1.822   9.584   3.352  0.0106 -0.8555  0.3343
  686MOL0     C90485   1.592   9.436   3.980  0.5772  0.4300 -0.0626
  686MOL0     C90486   1.464   9.382   3.997  0.5933 -0.3591  0.1781
  686MOL0     H90487   1.105   9.086   4.007  0.7387 -2.7140 -1.6891
  686MOL0     H90488   0.883   8.979   4.023 -0.2175  0.4022  0.0282
  686MOL0     H90489   0.576   9.179   3.825 -4.6523 -0.9615 -0.9148
  686MOL0     H90490   0.598   9.113   3.990 -0.5827 -0.0127  0.6480
  686MOL0     H90491   0.419   8.990   3.783  0.5527  1.1564 -0.7905
  686MOL0     H90492   0.358   9.101   3.905 -0.9340 -0.5826 -1.2614
  686MOL0     H90493   0.484   8.942   4.087  1.1719  3.7069 -1.6454
  686MOL0     H90494   0.493   8.831   3.946 -0.8132  1.2873 -4.9083
  686MOL0     H90495   0.227   8.953   4.061  3.1557  2.0797 -1.0274
  686MOL0     H90496   0.245   8.837   3.924  1.0162  2.5920 -1.0646
  686MOL0     H90497   0.302   8.670   4.047  4.4876  3.1930 -1.1745
  686MOL0     H90498   0.155   8.744   4.114  0.0459  0.0247  2.4378
  686MOL0     H90499   0.302   8.843   4.296  2.5525  1.5056 -1.6306
  686MOL0     H90500   0.438   8.746   4.238 -0.1795 -1.8741 -5.4167
  686MOL0     H90501   0.294   8.532   4.247 -1.6204  0.3214 -0.3718
  686MOL0     H90502   0.335   8.591   4.406  0.9194 -2.1855 -1.2798
  686MOL0     H90503   0.120   8.509   4.404 -2.1109  0.2141 -1.7909
  686MOL0     H90504   0.064   8.652   4.309 -1.3500 -2.4745 -0.2604
  686MOL0     H90505   0.211   8.567   4.652  0.4473  1.3108  1.4941
  686MOL0     H90506   0.225   8.724   4.917  2.9109 -0.1623  2.4223
  686MOL0     H90507   0.275   8.887   4.870 -3.7220 -0.1388  0.1964
  686MOL0     H90508   0.432   8.649   4.780  1.5657 -0.3908  0.2100
  686MOL0     H90509   0.453   8.721   4.950 -3.5225  0.8470  1.3229
  686MOL0     H90510   0.493   8.888   4.704  1.1738 -0.7964 -0.5643
  686MOL0     H90511   0.528   8.926   4.868 -0.0761  1.4563 -0.7222
  686MOL0     H90512   0.700   8.757   4.889 -0.2614 -1.2087  0.0737
  686MOL0     H90513   0.723   8.875   4.761 -0.7087  1.2549  0.0622
  686MOL0     H90514   0.668   8.907   4.532  0.5227  0.8704 -1.5897
  686MOL0     H90515   0.666   8.868   4.282  2.1532  1.6347  1.9609
  686MOL0     H90516   0.524   8.380   3.967  0.3786 -0.7383  0.4880
  686MOL0     H90517   0.569   8.299   3.718  0.7668 -2.3007  1.6414
  686MOL0     H90518   0.814   8.384   3.383 -2.0559 -0.1358 -0.1392
  686MOL0     H90519   0.914   8.442   3.512 -2.1097 -4.0855  1.2758
  686MOL0     H90520   0.806   8.671   3.515  3.8325  1.3914 -0.7448
  686MOL0     H90521   0.679   8.591   3.418 -1.0559 -1.2381  5.2822
  686MOL0     H90522   0.831   8.751   3.278 -0.1414 -0.0212  1.5008
  686MOL0     H90523   0.844   8.579   3.218  0.6289  2.7318 -2.0459
  686MOL0     H90524   1.033   8.663   3.429 -0.6866 -0.1413  0.0368
  686MOL0     H90525   1.045   8.557   3.293 -3.2590 -1.8037 -1.6091
  686MOL0     H90526   1.189   8.755   3.269  0.6345  3.3926  1.9672
  686MOL0     H90527   1.047   8.859   3.262 -3.5626 -1.2886 -0.5231
  686MOL0     H90528   1.114   8.636   3.080 -0.7087  0.1193 -1.1493
  686MOL0     H90529   1.145   8.812   3.045 -2.3289  3.1684  0.3226
  686MOL0     H90530   0.899   8.653   3.007  0.1142 -1.3111  1.4237
  686MOL0     H90531   0.871   8.799   3.090  1.2239  0.5963 -0.3111
  686MOL0     H90532   0.949   8.937   2.919 -1.8874  0.3280 -1.1992
  686MOL0     H90533   0.837   8.835   2.849  0.7864  2.7461 -1.0041
  686MOL0     H90534   0.914   8.538   3.706  1.1175  1.8402  3.5129
  686MOL0     H90535   0.902   8.584   3.945 -1.1000  2.1777  1.1403
  686MOL0     H90536   0.764   8.456   4.358  3.2612  1.4087  1.0389
  686MOL0     H90537   0.713   8.479   4.570 -0.5544 -1.0058 -0.9472
  686MOL0     H90538   0.749   9.175   3.668  0.1427 -1.7839 -0.3640
  686MOL0     H90539   0.980   9.292   3.650 -1.8169  0.4849 -0.3658
  686MOL0     H90540   1.341   9.437   3.694 -1.7772  3.6862  0.6296
  686MOL0     H90541   1.545   9.540   3.648  1.0154 -2.4451 -1.2955
  686MOL0     H90542   1.789   9.737   3.774 -4.1432 -0.8186  1.0497
  686MOL0     H90543   1.736   9.630   3.656 -4.4515  0.2646  2.6460
  686MOL0     H90544   1.973   9.653   3.630  1.8995 -0.7825 -0.1714
  686MOL0     H90545   2.002   9.599   3.797  0.4500  3.2021 -0.1718
  686MOL0     H90546   1.943   9.383   3.744  1.7337 -0.7850 -0.5731
  686MOL0     H90547   2.038   9.414   3.606  2.0878 -0.3488  4.2689
  686MOL0     H90548   1.857   9.305   3.504 -0.4621 -0.2178  1.8485
  686MOL0     H90549   1.749   9.400   3.596  0.6917  1.0026  1.0214
  686MOL0     H90550   1.817   9.673   3.292 -0.7763  0.4410  2.2284
  686MOL0     H90551   1.649   9.413   4.070 -1.3799 -2.8544  0.5247
  686MOL0     H90552   1.446   9.337   4.094 -1.0490 -0.3857 -0.1161
  687MOL0     O90553   3.069   0.038   2.095  0.1822  0.3792  0.0404
  687MOL0     C90554   2.991   0.068   2.181  0.1568  0.7684 -0.2376
  687MOL0     O90555   2.875   0.002   2.207  0.6993 -0.5198 -0.3454
  687MOL0     C90556   2.833  -0.094   2.128  0.3031  0.7645 -0.2002
  687MOL0     C90557   2.913  -0.215   2.134  0.6912  0.2401  0.1033
  687MOL0     C90558   2.873  -0.328   2.078  0.1088  0.8934 -0.0476
  687MOL0     C90559   2.745  -0.329   2.007  0.7630 -0.0175  0.4061
  687MOL0     O90560   2.680  -0.435   1.958  0.1471 -0.4407 -0.2324
  687MOL0     C90561   2.732  -0.564   1.978 -0.2153 -0.0550  0.2942
  687MOL0     C90562   2.678  -0.669   1.891 -0.0315  0.2690 -0.4144
  687MOL0     C90563   2.558  -0.754   1.957 -0.3146 -0.1393 -0.7767
  687MOL0     C90564   2.503  -0.848   1.844  0.0192 -0.3456 -0.8426
  687MOL0     C90565   2.441  -0.782   1.724  0.2765  0.4020  0.1315
  687MOL0     C90566   2.355  -0.873   1.645  0.9258 -0.3683 -0.1145
  687MOL0     C90567   2.278  -0.789   1.541  0.0065  0.6602 -0.1740
  687MOL0     C90568   2.204  -0.879   1.444 -0.2814  0.4145 -0.3848
  687MOL0     N90569   2.107  -0.810   1.356  0.4395 -0.3038 -0.2737
  687MOL0     C90570   1.984  -0.754   1.394  0.0124  0.1465 -0.8669
  687MOL0     C90571   1.934  -0.693   1.278  0.4423 -0.3472 -0.8578
  687MOL0     C90572   1.799  -0.623   1.266  0.5894 -0.4012 -0.7897
  687MOL0     C90573   1.688  -0.714   1.208  0.4962 -0.0900 -0.9146
  687MOL0     C90574   1.553  -0.650   1.248 -0.3395 -0.2173 -0.2174
  687MOL0     C90575   1.429  -0.731   1.207 -0.1981 -0.0208  0.6556
  687MOL0     O90576   1.310  -0.675   1.264 -0.1343  0.1303 -0.6256
  687MOL0     C90577   1.201  -0.758   1.265  0.0318  0.0036  0.7919
  687MOL0     C90578   1.191  -0.879   1.190  0.0219  0.2296  0.1970
  687MOL0     C90579   1.062  -0.944   1.187  0.0075  0.0265  0.7239
  687MOL0     C90580   0.951  -0.889   1.253  1.2012  0.6021  0.1787
  687MOL0     C90581   0.817  -0.959   1.267 -1.1443  0.0596 -0.2542
  687MOL0     O90582   0.815  -1.088   1.217 -0.0549 -1.0750 -0.2016
  687MOL0     C90583   0.693  -1.151   1.235  0.3323  0.6920 -0.1134
  687MOL0     C90584   0.664  -1.210   1.359 -0.3310 -0.5014  0.5798
  687MOL0     C90585   0.556  -1.300   1.370 -0.3178  0.1092 -0.3768
  687MOL0     C90586   0.463  -1.311   1.270 -0.1927  0.1736 -0.6778
  687MOL0     O90587   0.339  -1.377   1.303 -0.5097  0.6117  0.4474
  687MOL0     C90588   0.284  -1.456   1.200  0.6893  0.2084  0.1362
  687MOL0     C90589   0.155  -1.528   1.262 -0.8655 -1.3278  0.4277
  687MOL0     C90590   0.089  -1.635   1.171 -0.2117 -0.2812  0.5020
  687MOL0     C90591  -0.057  -1.660   1.205 -0.5895  0.1092 -0.2738
  687MOL0     C90592  -0.079  -1.789   1.277 -0.8598  0.3107  0.8543
  687MOL0     C90593  -0.214  -1.797   1.334 -0.6468  0.5691  0.0006
  687MOL0     C90594  -0.231  -1.942   1.382 -0.4035  0.4394 -0.7057
  687MOL0     C90595  -0.267  -2.040   1.276 -0.7194 -0.3603 -0.4685
  687MOL0    Cl90596  -0.418  -2.002   1.188 -0.1600 -0.1785  0.1066
  687MOL0     C90597   0.485  -1.258   1.142 -1.3118 -0.0802 -0.8141
  687MOL0     C90598   0.607  -1.178   1.127 -0.5932  1.0722  0.0947
  687MOL0     O90599   0.733  -0.909   1.346 -0.9088  0.2658 -0.1319
  687MOL0     C90600   0.981  -0.776   1.323  1.4981 -1.5880  1.0976
  687MOL0     C90601   1.095  -0.704   1.324 -0.0591  0.5029 -0.1919
  687MOL0     N90602   2.032  -0.714   1.180 -0.5045  0.1099 -0.2959
  687MOL0     N90603   2.134  -0.784   1.226 -0.2909  0.0045  0.0642
  687MOL0     C90604   2.666  -0.219   2.009 -0.5597 -0.4922 -0.1274
  687MOL0     C90605   2.707  -0.100   2.071  0.7187  0.1854 -0.2597
  687MOL0     C90606   3.023   0.183   2.255 -0.2801  0.1703 -0.5261
  687MOL0     C90607   2.926   0.272   2.299  0.1253 -0.1108 -0.6917
  687MOL0     C90608   2.963   0.383   2.382  0.2724  0.3462  0.0828
  687MOL0     C90609   3.094   0.402   2.425 -0.1415 -0.6990  0.6321
  687MOL0     O90610   3.119   0.488   2.525  0.0857  0.5297  0.0294
  687MOL0     C90611   3.246   0.536   2.552 -0.8713 -0.5326  0.1141
  687MOL0     C90612   3.307   0.462   2.676 -0.0244 -0.3252  0.5694
  687MOL0     C90613   3.447   0.526   2.709  0.7325 -0.5243  0.5209
  687MOL0     C90614   3.519   0.455   2.820 -0.6965 -0.3592  0.3373
  687MOL0     C90615   3.564   0.324   2.778  0.6926  0.8257  0.1931
  687MOL0     C90616   3.578   0.209   2.734 -0.0723 -0.6536  0.4186
  687MOL0     C90617   3.189   0.303   2.384  0.7039  0.4002 -1.1312
  687MOL0     C90618   3.156   0.201   2.302 -0.3041 -0.1832 -0.5592
  687MOL0     H90619   3.013  -0.210   2.176  0.2712 -0.3596  1.2061
  687MOL0     H90620   2.934  -0.418   2.073 -1.2873 -0.1926  1.1683
  687MOL0     H90621   2.716  -0.599   2.081 -1.8893 -0.2387 -0.0092
  687MOL0     H90622   2.838  -0.555   1.954 -0.2349  2.9600  0.8932
  687MOL0     H90623   2.754  -0.741   1.863 -0.9699 -0.9309  0.0243
  687MOL0     H90624   2.641  -0.616   1.803  2.9910 -0.6736 -2.3748
  687MOL0     H90625   2.483  -0.686   1.997 -1.8036 -1.4405 -1.2598
  687MOL0     H90626   2.589  -0.824   2.035  0.8261  0.4877 -0.6482
  687MOL0     H90627   2.586  -0.909   1.809 -1.1613 -0.9857 -2.6578
  687MOL0     H90628   2.422  -0.902   1.895 -0.7398  0.6179 -1.0001
  687MOL0     H90629   2.519  -0.747   1.656  0.3008 -0.8571 -0.5045
  687MOL0     H90630   2.383  -0.698   1.765  1.4211  0.3820  1.9262
  687MOL0     H90631   2.294  -0.937   1.710  2.3167 -0.0832  1.5356
  687MOL0     H90632   2.420  -0.943   1.591  3.5462  0.7332  1.4182
  687MOL0     H90633   2.204  -0.725   1.590  0.9926  1.8988 -0.2441
  687MOL0     H90634   2.352  -0.728   1.488  0.9747 -1.6969 -1.6781
  687MOL0     H90635   2.152  -0.965   1.488  0.0939 -0.0662 -0.8685
  687MOL0     H90636   2.280  -0.927   1.381  0.6725  0.3497  0.7771
  687MOL0     H90637   1.946  -0.753   1.496  1.6760 -3.6193 -0.0245
  687MOL0     H90638   1.813  -0.533   1.206 -0.9626 -1.7115 -3.2647
  687MOL0     H90639   1.760  -0.597   1.365  1.6917  1.5523 -0.8212
  687MOL0     H90640   1.687  -0.810   1.260  0.0183  0.9033  0.9886
  687MOL0     H90641   1.697  -0.721   1.099 -0.8579 -0.1902 -1.0365
  687MOL0     H90642   1.550  -0.640   1.357 -1.3346 -5.0034  0.4086
  687MOL0     H90643   1.541  -0.554   1.197 -3.8812 -2.9263 -5.3233
  687MOL0     H90644   1.442  -0.832   1.249 -0.6014 -1.5349 -2.5516
  687MOL0     H90645   1.424  -0.745   1.098  0.5531  3.2851  0.0942
  687MOL0     H90646   1.267  -0.925   1.128 -2.0789 -0.5555 -1.9266
  687MOL0     H90647   1.058  -1.040   1.136  1.5981  0.8393 -1.0688
  687MOL0     H90648   0.739  -1.204   1.437  0.3924  1.1856 -0.1907
  687MOL0     H90649   0.535  -1.352   1.463  0.4574  0.7713  0.1843
  687MOL0     H90650   0.358  -1.529   1.169  3.6876  1.5393  3.4981
  687MOL0     H90651   0.257  -1.388   1.118  2.0961  0.5635 -0.0534
  687MOL0     H90652   0.073  -1.459   1.283  0.1196  0.3282 -0.8919
  687MOL0     H90653   0.184  -1.587   1.349 -2.3808 -2.4133  0.2336
  687MOL0     H90654   0.148  -1.726   1.182  0.6581  0.3562  1.3871
  687MOL0     H90655   0.108  -1.611   1.066  3.4875  0.0751  1.1070
  687MOL0     H90656  -0.105  -1.578   1.259  1.3851  1.1139  0.0580
  687MOL0     H90657  -0.104  -1.667   1.106 -0.6436  0.2805 -0.2605
  687MOL0     H90658  -0.004  -1.802   1.356 -0.8881  2.1424  1.2119
  687MOL0     H90659  -0.064  -1.861   1.197  0.3566  2.2587 -0.7519
  687MOL0     H90660  -0.290  -1.769   1.260 -1.8077  2.2728  1.7426
  687MOL0     H90661  -0.225  -1.726   1.416 -1.8577  2.0043 -1.3356
  687MOL0     H90662  -0.139  -1.972   1.432 -1.6438 -0.9148  0.8879
  687MOL0     H90663  -0.312  -1.944   1.456  1.1240 -0.5973  1.0170
  687MOL0     H90664  -0.267  -2.141   1.320 -0.1936 -0.4559 -0.6789
  687MOL0     H90665  -0.177  -2.041   1.215  2.1092  0.2233  3.3136
  687MOL0     H90666   0.417  -1.266   1.057 -2.5622  2.7557 -0.1966
  687MOL0     H90667   0.620  -1.141   1.026 -1.1514  0.5725 -0.1695
  687MOL0     H90668   0.903  -0.723   1.377  0.5972 -0.9610 -0.7167
  687MOL0     H90669   1.086  -0.606   1.369 -2.2929 -0.6676  2.2169
  687MOL0     H90670   2.575  -0.228   1.950 -0.2266  3.0537 -1.4748
  687MOL0     H90671   2.645  -0.011   2.066  3.7142  2.4059 -0.3379
  687MOL0     H90672   2.827   0.261   2.256  0.4950 -0.5808 -1.4599
  687MOL0     H90673   2.897   0.455   2.429  1.2091 -0.2606  2.4435
  687MOL0     H90674   3.226   0.638   2.584  0.2197 -0.4525  0.5908
  687MOL0     H90675   3.317   0.539   2.469  0.5340  0.4744  1.2879
  687MOL0     H90676   3.236   0.462   2.760  0.1093  2.1323  0.7570
  687MOL0     H90677   3.321   0.359   2.640  1.6822  0.3819 -0.8965
  687MOL0     H90678   3.434   0.634   2.715 -0.1068 -0.5412 -0.5642
  687MOL0     H90679   3.511   0.510   2.622  1.0732  2.6908  0.0587
  687MOL0     H90680   3.607   0.518   2.839 -0.0385  0.2999 -3.8848
  687MOL0     H90681   3.455   0.445   2.908 -1.3840  0.2885 -0.0757
  687MOL0     H90682   3.601   0.113   2.692 -0.8369  0.0974 -1.8784
  687MOL0     H90683   3.289   0.288   2.422 -0.5644 -0.3151  2.2550
  687MOL0     H90684   3.234   0.137   2.261 -1.8583 -1.6652 -1.2975
  688MOL0     O90685   6.573   3.171   3.078  0.5203 -1.2041 -0.7414
  688MOL0     C90686   6.503   3.078   3.029 -0.2695  0.1843  0.0399
  688MOL0     O90687   6.399   3.019   3.084  0.5240 -0.7314 -0.3514
  688MOL0     C90688   6.344   3.082   3.194  1.0091  0.4133 -0.4621
  688MOL0     C90689   6.418   3.117   3.311  1.0209  0.4097 -0.4931
  688MOL0     C90690   6.342   3.161   3.426  0.6964 -0.3246 -0.2048
  688MOL0     C90691   6.205   3.171   3.425 -0.0553  0.3389  1.4224
  688MOL0     O90692   6.145   3.224   3.537  0.0614  0.0996 -0.2392
  688MOL0     C90693   6.018   3.181   3.579 -0.3145 -0.9170 -0.1514
  688MOL0     C90694   6.013   3.202   3.731  0.2205  0.4246  0.3694
  688MOL0     C90695   5.883   3.152   3.786 -0.0900 -0.4185 -0.0325
  688MOL0     C90696   5.894   3.143   3.941 -0.3694 -0.4120 -0.8703
  688MOL0     C90697   5.774   3.199   4.015 -0.6540 -0.4845 -0.5017
  688MOL0     C90698   5.767   3.189   4.167  0.0762 -0.1103 -0.6903
  688MOL0     C90699   5.655   3.274   4.219  0.4503  0.3909  0.6925
  688MOL0     C90700   5.515   3.230   4.164  0.6966  0.2291 -0.4146
  688MOL0     N90701   5.479   3.097   4.208  0.0084  0.5569 -0.6244
  688MOL0     C90702   5.523   2.984   4.138 -1.1913  1.1035 -0.8915
  688MOL0     C90703   5.428   2.890   4.147 -0.0895  0.0815  0.4594
  688MOL0     C90704   5.422   2.759   4.084 -0.7543  0.7485 -0.5941
  688MOL0     C90705   5.510   2.665   4.163  0.1323 -0.3443 -1.0548
  688MOL0     C90706   5.443   2.568   4.260 -0.0567 -0.2709 -0.1623
  688MOL0     C90707   5.551   2.506   4.348  0.4318  0.1389  0.4164
  688MOL0     O90708   5.488   2.438   4.455 -0.1119 -0.4912 -1.8093
  688MOL0     C90709   5.492   2.497   4.578 -1.0744  0.1018  0.2810
  688MOL0     C90710   5.491   2.409   4.689 -0.0394 -0.8698  1.3272
  688MOL0     C90711   5.493   2.456   4.819  0.4557 -0.1392  0.1884
  688MOL0     C90712   5.493   2.585   4.855 -0.2869  0.7380 -0.7792
  688MOL0     C90713   5.501   2.614   5.002 -0.7463  0.0876  1.1761
  688MOL0     O90714   5.504   2.749   5.024  0.0558  0.3031 -0.0876
  688MOL0     C90715   5.529   2.787   5.151 -0.3549 -0.5500  0.4283
  688MOL0     C90716   5.660   2.784   5.203 -0.2906  0.4256 -0.3925
  688MOL0     C90717   5.685   2.819   5.342 -0.4144 -0.7847 -0.1693
  688MOL0     C90718   5.579   2.864   5.425 -0.2499  0.7887 -0.6684
  688MOL0     O90719   5.607   2.910   5.550  0.1017  0.7654 -0.3472
  688MOL0     C90720   5.497   2.970   5.624 -0.1584 -0.1211  0.2754
  688MOL0     C90721   5.549   3.028   5.756  0.7588 -0.2089 -0.4536
  688MOL0     C90722   5.443   3.116   5.825 -0.6018  0.0164  0.0774
  688MOL0     C90723   5.500   3.195   5.948 -0.9640  0.7955  0.1541
  688MOL0     C90724   5.392   3.272   6.020  0.1990 -0.4800 -0.4467
  688MOL0     C90725   5.455   3.375   6.116  1.1845 -0.6401 -0.6461
  688MOL0     C90726   5.356   3.469   6.197 -0.0312  0.4601  0.1077
  688MOL0     C90727   5.340   3.440   6.343  0.2935  0.2253  0.3171
  688MOL0    Cl90728   5.199   3.534   6.407 -0.5191 -0.0415 -0.6080
  688MOL0     C90729   5.449   2.858   5.363 -0.4087 -0.8793  0.3580
  688MOL0     C90730   5.422   2.816   5.233  0.2260 -0.3989 -0.4054
  688MOL0     O90731   5.512   2.530   5.086  0.7152  0.4707 -0.0733
  688MOL0     C90732   5.486   2.681   4.745 -0.1803  0.3451 -0.5656
  688MOL0     C90733   5.487   2.639   4.607 -0.9704  0.9666  0.2339
  688MOL0     N90734   5.342   2.935   4.244 -0.0978 -0.7577 -0.6267
  688MOL0     N90735   5.365   3.059   4.274 -0.3914  0.8087 -0.1170
  688MOL0     C90736   6.136   3.136   3.302 -0.1161  0.1666 -0.1465
  688MOL0     C90737   6.208   3.084   3.191  0.3455 -0.2012  0.8550
  688MOL0     C90738   6.547   3.003   2.903 -0.2844  0.2938 -0.2304
  688MOL0     C90739   6.666   3.043   2.844 -0.7717 -0.3279  0.5066
  688MOL0     C90740   6.711   2.983   2.729  1.5474  0.0661  0.2217
  688MOL0     C90741   6.635   2.881   2.682 -0.4187 -0.7417  0.6739
  688MOL0     O90742   6.689   2.824   2.570 -0.1688  0.1363  0.5577
  688MOL0     C90743   6.776   2.715   2.602 -0.5340  0.3335  0.2614
  688MOL0     C90744   6.790   2.622   2.480 -0.2159  0.6425  0.2400
  688MOL0     C90745   6.920   2.646   2.393  1.1175  0.2894 -0.1172
  688MOL0     C90746   6.939   2.791   2.351 -0.0928  0.3669  0.1018
  688MOL0     C90747   7.023   2.806   2.226 -0.1904  0.6602 -0.1763
  688MOL0     C90748   7.084   2.821   2.120 -0.2483  0.1493  0.6465
  688MOL0     C90749   6.521   2.837   2.743  0.2137  0.8806 -0.0476
  688MOL0     C90750   6.470   2.897   2.857 -0.4534 -0.9471  0.1985
  688MOL0     H90751   6.526   3.116   3.295  1.1751  1.1076  0.4197
  688MOL0     H90752   6.396   3.182   3.518 -1.9360  1.5633  1.0016
  688MOL0     H90753   6.021   3.074   3.556  1.2645 -0.4401 -2.3996
  688MOL0     H90754   5.927   3.211   3.525  0.5058 -2.9548 -2.8659
  688MOL0     H90755   6.028   3.307   3.758  3.4553  0.5263 -1.3133
  688MOL0     H90756   6.101   3.149   3.770 -0.8533 -1.0997  0.8089
  688MOL0     H90757   5.849   3.060   3.737  1.2424 -1.8606  1.5790
  688MOL0     H90758   5.801   3.220   3.765  0.7196  0.0162 -2.0022
  688MOL0     H90759   5.912   3.041   3.977 -0.3949 -0.0284  0.2725
  688MOL0     H90760   5.986   3.189   3.977 -1.6730 -0.4483  2.9134
  688MOL0     H90761   5.690   3.149   3.964 -1.9710  1.7890 -0.7151
  688MOL0     H90762   5.774   3.307   3.995 -1.4283 -0.3800  0.0143
  688MOL0     H90763   5.860   3.227   4.210 -0.1729  1.8696 -1.7863
  688MOL0     H90764   5.765   3.085   4.199 -0.8241  0.2127  0.3448
  688MOL0     H90765   5.662   3.266   4.328  0.6085 -2.3878  0.5404
  688MOL0     H90766   5.678   3.377   4.188  1.7443 -0.3470 -0.9497
  688MOL0     H90767   5.508   3.251   4.057 -3.3101  1.7458 -0.0204
  688MOL0     H90768   5.441   3.298   4.209 -0.1464 -1.0149  0.1333
  688MOL0     H90769   5.616   2.982   4.083 -0.3792  1.1869  0.4371
  688MOL0     H90770   5.460   2.769   3.982 -2.8915 -1.1841 -1.6614
  688MOL0     H90771   5.319   2.724   4.077 -1.2650  1.0792  3.0632
  688MOL0     H90772   5.572   2.728   4.228 -0.4352 -0.6018 -0.2413
  688MOL0     H90773   5.573   2.608   4.095 -1.7911  0.1361 -3.3569
  688MOL0     H90774   5.364   2.616   4.319 -0.8008  2.4000 -3.0528
  688MOL0     H90775   5.407   2.486   4.197  0.7972  1.0825 -2.5409
  688MOL0     H90776   5.612   2.585   4.392 -0.7625 -0.4968  3.4377
  688MOL0     H90777   5.621   2.441   4.294 -2.2462 -2.6764  0.0327
  688MOL0     H90778   5.504   2.303   4.669  3.2139 -0.2964 -0.3692
  688MOL0     H90779   5.509   2.376   4.890 -1.0123 -2.1837 -1.6225
  688MOL0     H90780   5.736   2.771   5.128  3.0878 -1.7561  3.0443
  688MOL0     H90781   5.785   2.815   5.385 -1.3687 -1.3426  2.1419
  688MOL0     H90782   5.422   2.898   5.659  0.4395 -0.6078  0.5674
  688MOL0     H90783   5.462   3.048   5.556  0.7089  0.1036  0.0798
  688MOL0     H90784   5.644   3.084   5.758 -0.1788  1.8145  5.1084
  688MOL0     H90785   5.577   2.944   5.819  3.2183  1.1905  0.4720
  688MOL0     H90786   5.351   3.069   5.860 -1.4402  1.9192  0.5434
  688MOL0     H90787   5.420   3.178   5.738  2.7032 -0.2084 -1.1121
  688MOL0     H90788   5.544   3.127   6.021  0.4995  0.7694 -0.6980
  688MOL0     H90789   5.580   3.259   5.909  3.3001 -4.1355 -0.2414
  688MOL0     H90790   5.328   3.209   6.083 -0.9425  0.6659 -0.4346
  688MOL0     H90791   5.323   3.327   5.956  1.8044 -0.1757 -2.0028
  688MOL0     H90792   5.529   3.438   6.067  2.2140 -1.4599 -0.1694
  688MOL0     H90793   5.511   3.316   6.189 -1.6289 -1.0917  1.3241
  688MOL0     H90794   5.395   3.572   6.193  1.1751  0.0705  1.1775
  688MOL0     H90795   5.261   3.481   6.144 -0.4906 -0.1174  0.7836
  688MOL0     H90796   5.425   3.467   6.406  1.1386 -1.1702 -0.1884
  688MOL0     H90797   5.319   3.333   6.352 -1.5198  0.3102 -1.9075
  688MOL0     H90798   5.362   2.886   5.423  0.2744 -0.1102  1.0192
  688MOL0     H90799   5.324   2.796   5.191  0.8385 -0.3863 -1.9156
  688MOL0     H90800   5.492   2.789   4.761  1.3920  0.1649  0.3209
  688MOL0     H90801   5.466   2.711   4.529  1.1722  1.1312 -0.2391
  688MOL0     H90802   6.028   3.132   3.303 -0.2627  1.2392 -3.1341
  688MOL0     H90803   6.163   3.045   3.100  0.4863 -0.2436  0.8044
  688MOL0     H90804   6.719   3.133   2.872  0.0824  0.3040 -2.7533
  688MOL0     H90805   6.797   3.013   2.671  0.3403 -1.1891 -2.3780
  688MOL0     H90806   6.754   2.652   2.688 -0.9350 -0.6398 -0.5321
  688MOL0     H90807   6.874   2.756   2.627 -0.0617 -0.6769  0.1302
  688MOL0     H90808   6.803   2.523   2.525  5.0824  0.4119 -1.0882
  688MOL0     H90809   6.701   2.630   2.418  0.2824 -1.0276 -0.7540
  688MOL0     H90810   6.898   2.591   2.301 -0.9576  1.9516 -0.6789
  688MOL0     H90811   7.009   2.607   2.443 -1.0406 -2.1134  2.2140
  688MOL0     H90812   6.842   2.836   2.329 -0.4402 -0.5327 -0.2446
  688MOL0     H90813   6.994   2.833   2.436 -1.9103  2.7543  0.1993
  688MOL0     H90814   7.145   2.848   2.036  2.8219  0.2796  2.7619
  688MOL0     H90815   6.471   2.757   2.690 -0.4483  1.2110  0.0733
  688MOL0     H90816   6.378   2.868   2.906 -0.7323  1.8555  1.5308
  689MOL0     O90817   3.362  10.348  10.376  0.2289  0.5392  0.3261
  689MOL0     C90818   3.331  10.464  10.362 -0.7920  0.1315  1.5402
  689MOL0     O90819   3.418  10.568  10.306  0.4149  0.3618  0.6499
  689MOL0     C90820   3.555  10.537  10.295 -0.4679  1.2541  0.1568
  689MOL0     C90821   3.602  10.421  10.228  0.1980 -0.1096 -0.1972
  689MOL0     C90822   3.739  10.389  10.227  0.2436  0.3996 -0.4587
  689MOL0     C90823   3.824  10.472  10.305  0.2537  1.0000  0.0250
  689MOL0     O90824   3.943  10.426  10.340 -0.3388  0.3444  0.1856
  689MOL0     C90825   4.040  10.482  10.255 -0.2038 -0.4571  0.8298
  689MOL0     C90826   4.177  10.414  10.272 -0.5887  0.3452 -0.4160
  689MOL0     C90827   4.293  10.503  10.234  0.0770  0.3497  0.0933
  689MOL0     C90828   4.430  10.431  10.274 -0.1881 -0.1267  0.7068
  689MOL0     C90829   4.539  10.505  10.211 -0.8740  0.0771 -0.2356
  689MOL0     C90830   4.659  10.412  10.195  0.0528 -0.4509 -0.3199
  689MOL0     C90831   4.716  10.359  10.335 -0.1844 -0.1730 -0.0563
  689MOL0     C90832   4.804  10.462  10.409  1.0238  0.2289  0.5626
  689MOL0     N90833   4.883  10.397  10.516 -0.1076 -0.5369 -0.2726
  689MOL0     C90834   4.964  10.470  10.600 -0.1306  0.3556 -0.2712
  689MOL0     C90835   5.050  10.374  10.657  0.5184 -0.6132  1.4126
  689MOL0     C90836   5.153  10.373  10.760  0.0869  0.6385 -0.5822
  689MOL0     C90837   5.168  10.489  10.841 -0.0788 -0.0545 -0.5158
  689MOL0     C90838   5.293  10.483  10.931 -0.8215 -0.7462  0.1590
  689MOL0     C90839   5.426  10.469  10.868 -0.0557  0.2488 -0.4126
  689MOL0     O90840   5.447  10.335  10.823  0.2971 -0.3244  0.0612
  689MOL0     C90841   5.564  10.322  10.745 -1.0992  0.6521  0.0802
  689MOL0     C90842   5.568  10.377  10.619 -0.4017  0.2773  0.5303
  689MOL0     C90843   5.680  10.363  10.539  0.5800 -1.3057 -0.0043
  689MOL0     C90844   5.794  10.287  10.578  0.4321  0.1300  0.2044
  689MOL0     C90845   5.908  10.269  10.483 -0.9967 -0.0685 -0.3626
  689MOL0     O90846   5.991  10.157  10.518  0.0288 -0.3109  0.2040
  689MOL0     C90847   6.105  10.131  10.448  0.1819  0.7924  0.1613
  689MOL0     C90848   6.226  10.176  10.492 -0.5275  0.1869  0.6158
  689MOL0     C90849   6.347  10.146  10.421  0.7794  1.1538  0.0260
  689MOL0     C90850   6.337  10.084  10.288  0.3569  0.1565  0.4008
  689MOL0     O90851   6.457  10.049  10.234  0.4758 -0.3613 -0.3203
  689MOL0     C90852   6.470   9.959  10.124 -0.2387 -0.3759  0.0829
  689MOL0     C90853   6.450  10.033   9.987 -0.8824 -0.2334  0.9652
  689MOL0     C90854   6.562  10.133   9.972 -0.0371  0.0337  0.3438
  689MOL0     C90855   6.538  10.207   9.842 -1.1150  0.1566 -0.3958
  689MOL0     C90856   6.659  10.291   9.794  0.3646  0.8907  1.4525
  689MOL0     C90857   6.764  10.201   9.712 -0.0362  0.2120 -0.6811
  689MOL0     C90858   6.854  10.298   9.629 -0.4348 -0.0734  0.3349
  689MOL0     C90859   6.977  10.254   9.559 -0.1774  0.2968  0.8065
  689MOL0    Cl90860   7.081  10.179   9.683 -0.1195  0.2200  0.2121
  689MOL0     C90861   6.210  10.035  10.249  0.5379 -0.7055  0.0980
  689MOL0     C90862   6.100  10.062  10.334 -0.3647  0.4305 -0.0368
  689MOL0     O90863   5.918  10.341  10.385  0.1136 -0.0715  0.5328
  689MOL0     C90864   5.790  10.234  10.710 -0.4658  0.1642 -0.1796
  689MOL0     C90865   5.675  10.246  10.785  0.4320 -0.4393  0.4282
  689MOL0     N90866   5.019  10.253  10.606  0.5589 -0.1196 -0.3063
  689MOL0     N90867   4.920  10.266  10.531  0.0604  0.2661  0.3685
  689MOL0     C90868   3.783  10.591  10.358 -0.0389  0.6385  0.0954
  689MOL0     C90869   3.649  10.625  10.352  0.0271 -0.0371 -0.2513
  689MOL0     C90870   3.194  10.507  10.392 -0.4157  0.9215  0.2390
  689MOL0     C90871   3.160  10.641  10.395 -0.3852 -0.3962 -0.0228
  689MOL0     C90872   3.026  10.687  10.402 -1.3092 -0.3205 -0.2649
  689MOL0     C90873   2.921  10.604  10.404  0.3190  0.8172  0.2017
  689MOL0     O90874   2.796  10.657  10.414 -0.2350  0.3329 -0.2920
  689MOL0     C90875   2.677  10.578  10.439  0.0286 -0.1903 -0.2654
  689MOL0     C90876   2.555  10.664  10.477 -0.6997  0.3011 -0.3559
  689MOL0     C90877   2.559  10.694  10.635  0.4203  0.0364 -0.1032
  689MOL0     C90878   2.418  10.740  10.696 -0.3798 -0.1499  0.8894
  689MOL0     C90879   2.298  10.667  10.646  0.0497 -0.5377 -0.4549
  689MOL0     C90880   2.205  10.604  10.599 -0.5814  0.4047  0.0804
  689MOL0     C90881   2.956  10.467  10.416 -0.7861 -0.2086  0.2052
  689MOL0     C90882   3.087  10.420  10.416  0.2699 -0.3866 -0.4563
  689MOL0     H90883   3.538  10.356  10.169 -0.3316  1.5941 -1.5767
  689MOL0     H90884   3.770  10.292  10.190 -2.8977 -2.6662  3.9564
  689MOL0     H90885   4.034  10.589  10.279 -0.7193  0.6221 -3.3134
  689MOL0     H90886   4.004  10.483  10.152 -0.4942  0.3913  0.9288
  689MOL0     H90887   4.170  10.322  10.212 -1.1849  0.1931 -0.1281
  689MOL0     H90888   4.198  10.386  10.375 -0.4195 -0.8257 -0.7564
  689MOL0     H90889   4.286  10.600  10.284  0.2714  1.4787 -1.9509
  689MOL0     H90890   4.295  10.521  10.126  1.4376 -0.5445 -0.0630
  689MOL0     H90891   4.448  10.424  10.381 -1.5541 -2.7288  0.8576
  689MOL0     H90892   4.429  10.329  10.233 -1.2975 -0.4851  1.5816
  689MOL0     H90893   4.560  10.600  10.261  0.0188  0.5374 -1.4201
  689MOL0     H90894   4.514  10.543  10.111 -0.5599  0.2406 -0.2533
  689MOL0     H90895   4.731  10.468  10.135 -1.3493 -0.3335 -1.9963
  689MOL0     H90896   4.630  10.325  10.136 -3.3804  1.1358 -1.2765
  689MOL0     H90897   4.637  10.314  10.395  0.3745 -0.5725  0.3877
  689MOL0     H90898   4.787  10.284  10.298  1.4381  1.5428 -0.5644
  689MOL0     H90899   4.739  10.544  10.443  1.7834  1.5404 -1.0211
  689MOL0     H90900   4.880  10.506  10.344  0.4480 -1.2998 -1.2240
  689MOL0     H90901   4.960  10.573  10.635 -2.2428  0.7721 -1.5608
  689MOL0     H90902   5.241  10.360  10.695 -0.6337  0.8184 -1.6228
  689MOL0     H90903   5.149  10.282  10.820 -2.3375 -0.2185 -1.9362
  689MOL0     H90904   5.079  10.517  10.898 -0.8170 -2.0492 -0.6122
  689MOL0     H90905   5.192  10.569  10.770  2.9601 -0.6785 -0.3437
  689MOL0     H90906   5.309  10.580  10.981 -0.9510 -1.7511  2.2499
  689MOL0     H90907   5.288  10.411  11.014  0.9179 -0.8170  0.2504
  689MOL0     H90908   5.495  10.496  10.947 -2.8641  0.6307  2.0900
  689MOL0     H90909   5.425  10.543  10.787 -0.5779  0.4713 -0.2077
  689MOL0     H90910   5.489  10.437  10.577 -0.0528  1.3339  1.3334
  689MOL0     H90911   5.692  10.416  10.445 -0.5212 -0.8788  0.0939
  689MOL0     H90912   6.231  10.254  10.567 -1.3594 -0.6097  1.5254
  689MOL0     H90913   6.447  10.177  10.448  0.9424  1.1643 -0.5735
  689MOL0     H90914   6.399   9.875  10.123  1.6835 -2.0883 -1.1339
  689MOL0     H90915   6.570   9.916  10.123  0.4856  1.1419  1.7803
  689MOL0     H90916   6.349  10.075   9.985 -0.9273 -0.3518  0.6531
  689MOL0     H90917   6.467   9.963   9.904  3.8276  1.8638 -0.1617
  689MOL0     H90918   6.664  10.093   9.977 -0.0842 -0.1646 -0.1958
  689MOL0     H90919   6.562  10.208  10.052 -1.9499 -0.4862  0.8800
  689MOL0     H90920   6.510  10.135   9.764  0.8179  2.2311 -3.2184
  689MOL0     H90921   6.452  10.274   9.847 -1.2740 -0.1111  3.9622
  689MOL0     H90922   6.691  10.331   9.891 -0.2193 -0.8403  2.4154
  689MOL0     H90923   6.632  10.370   9.724  0.0226  0.5646  1.2133
  689MOL0     H90924   6.698  10.145   9.645 -0.6509 -0.5760  0.5642
  689MOL0     H90925   6.821  10.136   9.778 -1.7213 -1.1424 -0.4836
  689MOL0     H90926   6.791  10.326   9.544  0.3603 -0.3578 -0.3621
  689MOL0     H90927   6.860  10.397   9.675  0.9111  1.5602 -2.9920
  689MOL0     H90928   7.038  10.333   9.513 -0.3846 -0.7839 -1.5109
  689MOL0     H90929   6.960  10.187   9.474  0.8481 -1.6519  2.0692
  689MOL0     H90930   6.194   9.973  10.161  0.7781  2.6083 -2.4400
  689MOL0     H90931   6.001  10.029  10.304 -0.8387  1.7763 -0.0247
  689MOL0     H90932   5.880  10.181  10.741 -1.7647 -1.5564  0.7866
  689MOL0     H90933   5.674  10.205  10.885  1.5823  1.1231  1.1192
  689MOL0     H90934   3.854  10.645  10.420  0.8863 -0.3795 -0.0569
  689MOL0     H90935   3.605  10.714  10.396 -0.2430  0.9594 -2.4231
  689MOL0     H90936   3.231  10.720  10.376 -1.9756  1.1051  0.0433
  689MOL0     H90937   3.007  10.793  10.388 -0.3158  0.2530  2.1994
  689MOL0     H90938   2.694  10.510  10.523  0.5083  1.5456  1.0913
  689MOL0     H90939   2.659  10.520  10.347 -1.8610 -0.0539 -0.0288
  689MOL0     H90940   2.571  10.748  10.409 -3.4083  0.0417 -1.4296
  689MOL0     H90941   2.466  10.605  10.455  0.4104 -0.5292 -3.0284
  689MOL0     H90942   2.629  10.773  10.664 -0.7053  0.8499  0.5131
  689MOL0     H90943   2.574  10.601  10.690 -3.5617  0.0764  1.3985
  689MOL0     H90944   2.435  10.733  10.804 -0.2977  1.2467  0.9774
  689MOL0     H90945   2.410  10.847  10.674  2.2969  0.1255  0.8921
  689MOL0     H90946   2.121  10.552  10.557  0.8633 -1.1170 -1.0960
  689MOL0     H90947   2.869  10.404  10.426 -3.3093  2.5223 -2.3299
  689MOL0     H90948   3.106  10.313  10.414  1.7283 -0.2097  1.4094
  690MOL0     O90949  10.680   2.967   2.034 -0.4583  0.1209 -0.0379
  690MOL0     C90950  10.688   2.850   2.001 -0.7071  0.0496  0.0322
  690MOL0     O90951  10.803   2.791   1.952  0.9659  0.5092  0.2726
  690MOL0     C90952  10.918   2.833   2.011  0.6785  0.0234 -0.4333
  690MOL0     C90953  10.939   2.850   2.147  0.4253  0.5748  0.2135
  690MOL0     C90954  11.067   2.889   2.190 -0.2676 -0.3218 -0.4938
  690MOL0     C90955  11.168   2.921   2.095  0.6333 -0.3654  0.0709
  690MOL0     O90956  11.289   2.957   2.142 -0.1589  0.1834  0.5660
  690MOL0     C90957  11.409   2.937   2.072 -0.0302 -0.2569  0.7653
  690MOL0     C90958  11.518   2.906   2.174 -0.5505 -0.0382  0.5635
  690MOL0     C90959  11.664   2.899   2.108 -0.2743  0.3260 -0.2657
  690MOL0     C90960  11.776   2.869   2.201 -0.4324  0.4002  0.2534
  690MOL0     C90961  11.767   2.747   2.294 -0.0859 -1.7583  0.2089
  690MOL0     C90962  11.851   2.785   2.425 -0.0975  0.7203  0.7975
  690MOL0     C90963  11.779   2.863   2.533 -0.4092 -0.5007 -0.1907
  690MOL0     C90964  11.760   3.014   2.508 -0.7545  0.1452  0.2891
  690MOL0     N90965  11.714   3.094   2.619 -0.3548  0.0575  0.5235
  690MOL0     C90966  11.618   3.060   2.705  0.4203 -0.7217  0.3388
  690MOL0     C90967  11.616   3.150   2.809 -0.8000  0.9696  0.0384
  690MOL0     C90968  11.558   3.128   2.951 -0.9512  0.2976  1.4207
  690MOL0     C90969  11.406   3.178   2.949  0.6942 -0.6313 -0.9740
  690MOL0     C90970  11.347   3.150   3.086  0.3651  0.3419  0.0591
  690MOL0     C90971  11.193   3.146   3.091  0.5749  0.1245  0.0911
  690MOL0     O90972  11.132   3.239   2.998 -0.5013  0.3451 -0.9597
  690MOL0     C90973  11.001   3.227   3.000 -0.8487  0.1318 -0.3228
  690MOL0     C90974  10.914   3.152   3.085 -0.3847 -0.0020 -0.5470
  690MOL0     C90975  10.774   3.161   3.071  1.3012 -0.2335 -0.0948
  690MOL0     C90976  10.713   3.240   2.969 -0.1536  0.5573  0.4105
  690MOL0     C90977  10.569   3.260   2.947  0.2908 -0.1333  0.6495
  690MOL0     O90978  10.530   3.347   2.855 -0.4400  0.1161  0.2994
  690MOL0     C90979  10.401   3.339   2.810  0.8514 -0.3787 -0.2085
  690MOL0     C90980  10.298   3.404   2.875  0.7415  0.4235  0.1920
  690MOL0     C90981  10.170   3.399   2.827  0.3197  0.3121 -0.1636
  690MOL0     C90982  10.138   3.339   2.702  0.1407  0.5644 -0.2615
  690MOL0     O90983  10.021   3.326   2.637  0.4522 -0.7906  0.1695
  690MOL0     C90984   9.893   3.356   2.714 -0.2711 -0.3896  1.0084
  690MOL0     C90985   9.787   3.382   2.608  0.5955  0.5080 -1.2689
  690MOL0     C90986   9.762   3.527   2.578 -0.8101  0.1592  1.2647
  690MOL0     C90987   9.656   3.531   2.465  0.2523 -0.0812 -0.3018
  690MOL0     C90988   9.703   3.521   2.314  0.1087  0.2315 -0.4030
  690MOL0     C90989   9.788   3.650   2.272 -0.0243  0.0544 -0.6628
  690MOL0     C90990   9.861   3.649   2.133 -0.1503  0.4037 -0.2712
  690MOL0     C90991   9.901   3.521   2.069  0.5414  0.8273  0.5374
  690MOL0    Cl90992  10.022   3.428   2.177 -0.1456 -0.1609  0.2132
  690MOL0     C90993  10.245   3.274   2.641 -0.5751 -0.0442  0.6542
  690MOL0     C90994  10.371   3.262   2.699  0.9392  0.5186 -0.6494
  690MOL0     O90995  10.493   3.203   3.027 -0.5439  0.3899  0.1252
  690MOL0     C90996  10.801   3.299   2.885 -0.0270  0.7146 -0.5287
  690MOL0     C90997  10.940   3.293   2.899 -0.5659 -0.6548  0.2529
  690MOL0     N90998  11.703   3.247   2.774  1.0994  0.8456  0.2035
  690MOL0     N90999  11.764   3.216   2.663  0.4019 -0.3048 -0.1086
  690MOL0     C91000  11.140   2.916   1.952  0.4027  0.0449  0.4181
  690MOL0     C91001  11.012   2.871   1.918  0.3401  0.1886 -0.2895
  690MOL0     C91002  10.566   2.766   2.012 -0.8215  0.3721  0.1092
  690MOL0     C91003  10.461   2.796   2.086  1.2413 -0.2842  0.1405
  690MOL0     C91004  10.340   2.728   2.088  0.5564 -0.9365 -0.2176
  690MOL0     C91005  10.334   2.608   2.020  0.0492 -0.4091  1.0698
  690MOL0     O91006  10.223   2.520   2.028 -0.3762 -0.4242 -1.0103
  690MOL0     C91007  10.105   2.570   2.101  0.0476 -0.7895 -0.1206
  690MOL0     C91008   9.991   2.492   2.067 -0.3029 -0.4807 -0.4343
  690MOL0     C91009   9.871   2.514   2.165 -0.5052 -0.0117  0.2362
  690MOL0     C91010   9.775   2.400   2.153  0.3688 -0.1500 -1.0295
  690MOL0     C91011   9.695   2.408   2.032  0.2474 -0.1788 -0.9024
  690MOL0     C91012   9.647   2.416   1.921 -0.3187  0.1025 -0.2213
  690MOL0     C91013  10.438   2.573   1.940  0.5867 -0.5755 -0.1403
  690MOL0     C91014  10.556   2.651   1.929 -0.3152  0.1582  0.1395
  690MOL0     H91015  10.861   2.851   2.222 -0.5872  1.3205 -0.8197
  690MOL0     H91016  11.093   2.905   2.294  1.8140 -0.8451 -0.8923
  690MOL0     H91017  11.441   3.026   2.016 -0.7935 -0.0513  0.6433
  690MOL0     H91018  11.407   2.845   2.013  3.5884  0.9088 -1.5860
  690MOL0     H91019  11.502   2.808   2.218 -0.0239 -1.9194 -3.0361
  690MOL0     H91020  11.513   2.976   2.258 -1.9554 -0.4749  0.8791
  690MOL0     H91021  11.674   2.981   2.037  0.2586 -0.9921 -1.7563
  690MOL0     H91022  11.666   2.806   2.050 -1.1897  0.7880 -1.0695
  690MOL0     H91023  11.865   2.837   2.146 -0.8490  1.0445 -0.8246
  690MOL0     H91024  11.805   2.960   2.254  1.5499 -0.3425  0.5162
  690MOL0     H91025  11.800   2.654   2.246  1.4532 -2.1646  1.9213
  690MOL0     H91026  11.669   2.719   2.335 -0.4022 -0.5986  0.2841
  690MOL0     H91027  11.951   2.823   2.406  0.1506 -0.5902 -0.7073
  690MOL0     H91028  11.867   2.686   2.470 -0.0606 -0.0487 -0.8642
  690MOL0     H91029  11.677   2.828   2.553 -0.5117  1.0020  2.2363
  690MOL0     H91030  11.841   2.849   2.622  1.4950 -0.7647 -1.4973
  690MOL0     H91031  11.693   3.028   2.423  0.5558  1.1256 -0.6200
  690MOL0     H91032  11.862   3.048   2.485  0.6393 -3.1659  0.8857
  690MOL0     H91033  11.556   2.970   2.698 -1.9932  0.9341 -1.5737
  690MOL0     H91034  11.622   3.191   3.014 -1.0116 -0.1089  1.8952
  690MOL0     H91035  11.560   3.022   2.976 -0.3295 -0.5837 -1.8730
  690MOL0     H91036  11.355   3.119   2.873  0.9596 -2.4750  0.2076
  690MOL0     H91037  11.393   3.286   2.935 -0.8832 -0.6067  0.3365
  690MOL0     H91038  11.374   3.060   3.141  1.0993  1.1465  1.0406
  690MOL0     H91039  11.389   3.228   3.150  0.2692 -0.5153  1.2049
  690MOL0     H91040  11.156   3.148   3.194 -0.2237 -0.7307 -0.1722
  690MOL0     H91041  11.168   3.042   3.069  0.7543 -0.0734  0.7885
  690MOL0     H91042  10.948   3.101   3.175  1.8320 -0.7162 -1.7255
  690MOL0     H91043  10.714   3.097   3.135  0.9644  0.9432  0.7872
  690MOL0     H91044  10.321   3.470   2.958  3.7234 -0.1908 -0.0492
  690MOL0     H91045  10.087   3.456   2.868  1.9039  4.3518 -2.1061
  690MOL0     H91046   9.898   3.443   2.781 -0.5529 -0.2496  0.8474
  690MOL0     H91047   9.876   3.262   2.767 -0.7397 -2.8165 -3.0268
  690MOL0     H91048   9.697   3.350   2.662 -0.0288  3.2779 -0.4913
  690MOL0     H91049   9.809   3.318   2.523  0.2159 -1.7838  0.2582
  690MOL0     H91050   9.856   3.580   2.560 -0.7225 -0.4933 -0.3427
  690MOL0     H91051   9.707   3.581   2.656 -1.1745  0.3321  0.8883
  690MOL0     H91052   9.588   3.446   2.477  0.7097 -0.1866  1.7594
  690MOL0     H91053   9.603   3.627   2.466  0.6699  0.1637 -0.8210
  690MOL0     H91054   9.617   3.494   2.252 -1.4333 -4.2212  3.1860
  690MOL0     H91055   9.778   3.441   2.309  0.7139  0.8069 -0.7857
  690MOL0     H91056   9.872   3.652   2.342 -2.1339 -0.3263  2.0408
  690MOL0     H91057   9.734   3.745   2.270 -3.4200 -1.6400  1.3293
  690MOL0     H91058   9.795   3.705   2.066  1.4912  3.1108  0.2477
  690MOL0     H91059   9.954   3.703   2.153 -0.8787  1.8422 -0.6307
  690MOL0     H91060   9.958   3.535   1.977  4.7134  0.2476  2.7737
  690MOL0     H91061   9.815   3.459   2.044  0.1933  2.4889 -3.0076
  690MOL0     H91062  10.220   3.212   2.555 -2.2173 -0.8099  1.6331
  690MOL0     H91063  10.456   3.217   2.648  0.4979 -1.9817  0.6826
  690MOL0     H91064  10.764   3.350   2.796 -0.6601  1.9993  0.4339
  690MOL0     H91065  11.008   3.346   2.833 -0.3432 -1.5123 -0.2237
  690MOL0     H91066  11.204   2.949   1.871 -0.1674  0.5942  0.1794
  690MOL0     H91067  10.985   2.870   1.813 -2.0979  0.8265  0.2734
  690MOL0     H91068  10.465   2.878   2.157 -1.5422 -1.1238  1.4510
  690MOL0     H91069  10.249   2.767   2.133  1.7305  0.0593  1.3839
  690MOL0     H91070  10.083   2.674   2.078  0.3921 -1.0715 -1.9330
  690MOL0     H91071  10.126   2.566   2.208 -0.6874  0.5245  0.0925
  690MOL0     H91072   9.953   2.514   1.966  0.6725 -0.7981 -0.8815
  690MOL0     H91073  10.018   2.387   2.054 -0.6806 -0.5465 -0.7154
  690MOL0     H91074   9.832   2.615   2.153 -0.9151 -0.4351 -2.6948
  690MOL0     H91075   9.910   2.504   2.267 -3.0033 -3.5285  1.0637
  690MOL0     H91076   9.822   2.301   2.147 -2.8425 -1.8303 -0.8899
  690MOL0     H91077   9.705   2.404   2.237  0.6697 -1.7580 -0.6694
  690MOL0     H91078   9.609   2.409   1.821  1.3851  2.8409 -1.1526
  690MOL0     H91079  10.436   2.486   1.875 -1.0345 -0.5475 -0.1839
  690MOL0     H91080  10.640   2.611   1.874  1.2873 -1.1800  3.3008
  691MOL0     O91081   5.971   0.814   3.959 -0.0808 -0.1606 -0.6213
  691MOL0     C91082   6.054   0.737   3.917  0.5816  0.1343 -0.5513
  691MOL0     O91083   6.110   0.743   3.795  0.4869  0.2323 -0.4649
  691MOL0     C91084   6.033   0.819   3.710  0.2494  1.0135  0.5976
  691MOL0     C91085   5.903   0.782   3.678  0.1238  0.3173  0.1501
  691MOL0     C91086   5.825   0.859   3.603 -0.0907  0.1364 -0.8482
  691MOL0     C91087   5.875   0.978   3.558  0.5261 -0.1437 -0.2996
  691MOL0     O91088   5.790   1.039   3.468  0.9664  0.7651 -0.7380
  691MOL0     C91089   5.809   1.180   3.423 -0.3857  0.3900  0.5917
  691MOL0     C91090   5.682   1.247   3.377  0.9191  0.0392 -0.4754
  691MOL0     C91091   5.622   1.180   3.253 -0.7843  0.7483 -1.4225
  691MOL0     C91092   5.484   1.251   3.209  0.4106 -0.3043 -0.7476
  691MOL0     C91093   5.405   1.176   3.107 -0.4476  0.5296 -0.1504
  691MOL0     C91094   5.274   1.250   3.050  0.0080  0.3930 -0.7945
  691MOL0     C91095   5.309   1.376   2.967  0.2283  0.5621 -0.7736
  691MOL0     C91096   5.188   1.463   2.915  0.5615  0.2857  0.6500
  691MOL0     N91097   5.223   1.582   2.844 -0.6710  0.3203  0.8646
  691MOL0     C91098   5.286   1.694   2.889  0.5381 -0.4924 -0.1772
  691MOL0     C91099   5.244   1.785   2.799  0.2828  0.3187 -0.3527
  691MOL0     C91100   5.274   1.938   2.812  0.6620  1.1148 -0.0050
  691MOL0     C91101   5.174   2.009   2.913  0.0465 -0.3594  0.3169
  691MOL0     C91102   5.069   2.088   2.816 -0.4697  1.0231 -0.2524
  691MOL0     C91103   4.940   2.005   2.805  0.3207 -0.3038 -0.0067
  691MOL0     O91104   4.863   2.074   2.712  0.3183  0.3005 -0.9783
  691MOL0     C91105   4.855   2.037   2.582  0.0271  0.5550  0.1129
  691MOL0     C91106   4.940   1.942   2.516  1.2434  0.4641  0.4567
  691MOL0     C91107   4.933   1.923   2.378  0.5784 -0.6503  0.6473
  691MOL0     C91108   4.848   1.990   2.295 -0.2997  0.6536  0.7522
  691MOL0     C91109   4.837   1.972   2.149 -0.5170  0.6260 -0.7683
  691MOL0     O91110   4.958   1.917   2.097  0.7400  0.0623 -0.5217
  691MOL0     C91111   4.983   1.913   1.963 -0.0745 -0.6211  0.6402
  691MOL0     C91112   5.044   1.806   1.920  0.0139 -0.2511  0.2269
  691MOL0     C91113   5.086   1.799   1.784  0.2895  0.4387  0.1500
  691MOL0     C91114   5.054   1.895   1.688  0.1186 -0.9257 -1.2019
  691MOL0     O91115   5.098   1.865   1.559  0.3542  0.3367  0.4787
  691MOL0     C91116   5.080   1.951   1.443 -0.5762 -1.1784 -0.0467
  691MOL0     C91117   5.132   1.896   1.311 -0.2935  0.4270 -0.0487
  691MOL0     C91118   5.087   1.977   1.192  0.1229  0.1123 -0.0283
  691MOL0     C91119   5.155   1.926   1.068 -0.9605  0.0003 -0.1299
  691MOL0     C91120   5.159   2.028   0.945 -0.3554  0.7240  1.1671
  691MOL0     C91121   5.198   1.977   0.808 -0.0277 -0.0298 -0.9447
  691MOL0     C91122   5.083   1.915   0.735 -0.0322 -1.4345  0.8883
  691MOL0     C91123   5.012   2.037   0.676  0.0870  0.5499  0.4058
  691MOL0    Cl91124   4.865   1.988   0.586 -0.6685  0.1200 -0.3013
  691MOL0     C91125   5.002   2.017   1.738 -0.3282  0.1190  0.2589
  691MOL0     C91126   4.958   2.025   1.877 -1.1429  0.2029 -0.8327
  691MOL0     O91127   4.739   2.004   2.084  0.6418 -0.2578 -0.4715
  691MOL0     C91128   4.758   2.078   2.361 -0.0267 -0.4139 -0.3199
  691MOL0     C91129   4.769   2.110   2.502 -0.0512 -0.3829  0.5980
  691MOL0     N91130   5.187   1.722   2.694  0.5225  0.5480  0.1863
  691MOL0     N91131   5.168   1.600   2.724  0.7824  0.7044 -0.0605
  691MOL0     C91132   6.012   1.006   3.569  0.3198  0.3554  0.0746
  691MOL0     C91133   6.091   0.930   3.658  0.3070 -0.0880  0.5482
  691MOL0     C91134   6.083   0.613   3.992 -0.4714 -0.0704 -0.1819
  691MOL0     C91135   6.009   0.575   4.106 -0.3741 -0.1060  0.0952
  691MOL0     C91136   6.022   0.455   4.171 -0.0128 -1.3033 -0.6925
  691MOL0     C91137   6.119   0.366   4.129  1.0483  0.3731 -0.3275
  691MOL0     O91138   6.147   0.245   4.183 -0.2934  0.7166 -0.4698
  691MOL0     C91139   6.038   0.172   4.249 -0.5659  0.8920  0.5096
  691MOL0     C91140   6.078   0.029   4.281  0.2852  0.0441  1.0710
  691MOL0     C91141   6.206   0.014   4.378  0.8614 -0.1049 -1.2128
  691MOL0     C91142   6.241  -0.125   4.415  0.0428  0.8458  0.0671
  691MOL0     C91143   6.364  -0.126   4.488 -0.3299  0.3698 -0.2640
  691MOL0     C91144   6.461  -0.132   4.556 -0.1857  0.0604  0.3782
  691MOL0     C91145   6.205   0.398   4.015  0.2219 -0.8247  0.2278
  691MOL0     C91146   6.183   0.521   3.946 -0.0711 -0.1460 -0.6377
  691MOL0     H91147   5.863   0.684   3.702 -0.9747  0.9563  1.0272
  691MOL0     H91148   5.730   0.824   3.564 -0.1490  1.1938 -1.6950
  691MOL0     H91149   5.878   1.166   3.340  0.1121 -1.0810  1.2330
  691MOL0     H91150   5.857   1.240   3.501  1.5800  0.2499 -0.4506
  691MOL0     H91151   5.713   1.350   3.356 -0.9473  0.2778 -2.5033
  691MOL0     H91152   5.599   1.255   3.448 -0.8115 -0.8513 -2.2909
  691MOL0     H91153   5.596   1.077   3.280  2.3996  0.0997 -0.3953
  691MOL0     H91154   5.704   1.185   3.180  3.2420 -1.5099  2.4917
  691MOL0     H91155   5.412   1.259   3.291 -0.8406  2.5728 -1.9913
  691MOL0     H91156   5.509   1.353   3.178  0.0537 -0.6209 -2.1454
  691MOL0     H91157   5.372   1.083   3.154 -1.8492  0.4918 -1.1548
  691MOL0     H91158   5.463   1.141   3.021  1.4320 -3.1328  2.3440
  691MOL0     H91159   5.215   1.281   3.137  1.9996  0.1535  0.7164
  691MOL0     H91160   5.223   1.176   2.988  0.4888 -0.2427 -0.4564
  691MOL0     H91161   5.374   1.431   3.035 -0.4347 -2.7627  2.8908
  691MOL0     H91162   5.365   1.350   2.877  1.3784  0.7457 -0.1288
  691MOL0     H91163   5.114   1.483   2.993 -1.7754 -0.3287 -1.3000
  691MOL0     H91164   5.143   1.401   2.837  0.4628  1.6330 -0.4033
  691MOL0     H91165   5.328   1.704   2.988  0.5528 -3.4812  0.2154
  691MOL0     H91166   5.274   1.981   2.712  0.3293  1.3116  0.0789
  691MOL0     H91167   5.377   1.928   2.847  0.5175  1.6802  0.6187
  691MOL0     H91168   5.236   2.066   2.983 -0.3940 -2.3498  2.4496
  691MOL0     H91169   5.134   1.932   2.979  1.7481 -1.6469 -0.0814
  691MOL0     H91170   5.049   2.189   2.851 -2.3430  1.3097 -1.9224
  691MOL0     H91171   5.114   2.112   2.719  2.8310 -2.4680  0.1597
  691MOL0     H91172   4.888   2.010   2.901  2.0334  1.6683  0.8933
  691MOL0     H91173   4.937   1.898   2.784 -1.5975 -0.2263 -0.3518
  691MOL0     H91174   5.024   1.899   2.570  1.5405 -0.5042 -0.7445
  691MOL0     H91175   4.984   1.833   2.346  0.5171 -0.4845  0.0615
  691MOL0     H91176   5.075   1.732   1.992 -0.2859 -0.3423  0.2645
  691MOL0     H91177   5.136   1.709   1.749 -1.0712 -0.4052  0.3409
  691MOL0     H91178   5.130   2.048   1.455  0.5535 -1.5954 -1.1352
  691MOL0     H91179   4.977   1.986   1.432  0.0085  1.5769  2.1307
  691MOL0     H91180   5.111   1.789   1.309 -0.3317  0.3249  2.4072
  691MOL0     H91181   5.242   1.898   1.313 -0.2811 -0.4956  0.5003
  691MOL0     H91182   5.126   2.079   1.201  3.1557 -1.0436  1.2927
  691MOL0     H91183   4.978   1.974   1.182 -0.0173  2.6784  0.0707
  691MOL0     H91184   5.257   1.898   1.097 -1.5966  0.1841  2.5047
  691MOL0     H91185   5.112   1.835   1.027  2.2605 -1.6669 -0.1395
  691MOL0     H91186   5.239   2.097   0.975  1.3475 -1.7419  2.6856
  691MOL0     H91187   5.062   2.079   0.946 -0.2580  1.0467 -1.1650
  691MOL0     H91188   5.289   1.917   0.820  0.3219  0.5504 -0.6393
  691MOL0     H91189   5.238   2.058   0.747  1.7649  0.6627  1.0130
  691MOL0     H91190   5.107   1.857   0.645 -2.4890 -0.8140 -0.2453
  691MOL0     H91191   5.009   1.854   0.788 -1.1206 -0.3498  0.6788
  691MOL0     H91192   5.063   2.076   0.587 -2.2012 -1.6231 -2.0407
  691MOL0     H91193   4.991   2.116   0.748 -1.5813  0.0164  0.5374
  691MOL0     H91194   5.005   2.107   1.677 -3.1341  2.0639  2.6678
  691MOL0     H91195   4.910   2.116   1.911  0.6488  0.9046 -0.0755
  691MOL0     H91196   4.676   2.128   2.310 -0.5960  1.0839  1.8883
  691MOL0     H91197   4.707   2.182   2.554 -0.3634  0.3121 -0.6723
  691MOL0     H91198   6.054   1.096   3.526  2.1865  0.2768  1.6384
  691MOL0     H91199   6.197   0.945   3.677  1.0636 -2.5788 -1.2375
  691MOL0     H91200   5.928   0.644   4.130 -1.3416  0.6115 -4.2508
  691MOL0     H91201   5.966   0.439   4.263  0.0717 -1.7661 -0.7204
  691MOL0     H91202   5.971   0.175   4.162  0.9559 -3.1471 -1.0687
  691MOL0     H91203   5.994   0.222   4.335 -0.6991  1.3030  0.2070
  691MOL0     H91204   5.991  -0.011   4.334 -0.2271 -1.0862 -0.5506
  691MOL0     H91205   6.085  -0.029   4.189  2.1594  0.2651  1.0336
  691MOL0     H91206   6.190   0.076   4.467 -0.0354 -0.2188 -1.2900
  691MOL0     H91207   6.290   0.053   4.320  0.4470 -2.4447 -3.5476
  691MOL0     H91208   6.170  -0.175   4.482  1.3925 -0.8205  0.3462
  691MOL0     H91209   6.263  -0.188   4.328  1.8197 -0.1759  1.1855
  691MOL0     H91210   6.549  -0.143   4.615 -0.0040  3.1564  0.8195
  691MOL0     H91211   6.278   0.325   3.981  2.3427  1.7658 -1.1993
  691MOL0     H91212   6.239   0.530   3.853 -0.7245  0.4180 -0.9912
  692MOL0     O91213   6.253   8.512  11.097  0.6362  0.8457 -0.5523
  692MOL0     C91214   6.152   8.586  11.112  0.3873  1.1783  0.3068
  692MOL0     O91215   6.093   8.609  11.229  0.3295  0.8534 -0.2823
  692MOL0     C91216   6.153   8.567  11.346 -0.3750 -0.1887 -0.0891
  692MOL0     C91217   6.125   8.655  11.447 -0.7155  1.0208 -0.2436
  692MOL0     C91218   6.170   8.639  11.578 -0.8216 -0.6191  0.6479
  692MOL0     C91219   6.226   8.515  11.612 -0.6608  0.2050  0.3939
  692MOL0     O91220   6.266   8.480  11.732  0.1752 -0.0180 -0.9334
  692MOL0     C91221   6.178   8.505  11.836 -0.2291 -0.3772  0.3214
  692MOL0     C91222   6.208   8.619  11.927 -0.5174 -0.1609 -0.2700
  692MOL0     C91223   6.360   8.630  11.975 -0.3296  0.5620 -0.1630
  692MOL0     C91224   6.411   8.508  12.054  1.3179  0.7043 -0.3025
  692MOL0     C91225   6.558   8.493  12.054 -0.2496  0.5366 -0.1550
  692MOL0     C91226   6.622   8.586  12.152  0.2172 -1.0654 -0.6736
  692MOL0     C91227   6.761   8.545  12.198  0.6623 -0.1485  0.0880
  692MOL0     C91228   6.877   8.648  12.216 -0.2062 -0.2376 -0.0931
  692MOL0     N91229   7.004   8.592  12.243  0.3737 -0.0518 -0.3590
  692MOL0     C91230   7.080   8.540  12.147 -0.8268 -0.1604  0.4570
  692MOL0     C91231   7.188   8.504  12.224 -0.3440 -0.0214 -0.0591
  692MOL0     C91232   7.317   8.452  12.177  0.5042 -0.5466 -0.5260
  692MOL0     C91233   7.331   8.462  12.022 -0.5886  0.1308 -0.0250
  692MOL0     C91234   7.455   8.384  11.965  1.1954 -0.9214 -1.0124
  692MOL0     C91235   7.582   8.457  12.010  0.5294  0.4774  0.4819
  692MOL0     O91236   7.687   8.388  11.949 -0.4393  0.0799 -0.0269
  692MOL0     C91237   7.820   8.422  11.980 -0.7329 -0.2909  0.8287
  692MOL0     C91238   7.861   8.514  12.085  0.1803  1.1285  0.4592
  692MOL0     C91239   8.000   8.523  12.120 -0.3870  0.2199  0.2793
  692MOL0     C91240   8.098   8.466  12.041 -0.0309 -0.3180 -0.3271
  692MOL0     C91241   8.243   8.488  12.088  0.1554 -0.3395 -1.1505
  692MOL0     O91242   8.336   8.498  11.990 -0.0060 -0.5295  0.1733
  692MOL0     C91243   8.465   8.525  12.034  0.2760 -0.9654  0.7382
  692MOL0     C91244   8.544   8.625  11.973 -0.8845 -0.8713  0.6222
  692MOL0     C91245   8.681   8.632  12.009  0.1231  0.1014  0.1564
  692MOL0     C91246   8.742   8.542  12.103 -0.2047  0.0507  0.3916
  692MOL0     O91247   8.872   8.548  12.132 -1.2691 -0.0856 -0.1652
  692MOL0     C91248   8.967   8.645  12.068  0.5735 -0.3206 -0.1898
  692MOL0     C91249   8.940   8.784  12.139 -0.5334  0.1772  1.1182
  692MOL0     C91250   9.036   8.809  12.255  0.1818  0.1170  0.2069
  692MOL0     C91251   9.019   8.709  12.374 -0.5472 -0.5821  0.0419
  692MOL0     C91252   9.127   8.713  12.495  0.2307 -0.6546  0.2100
  692MOL0     C91253   9.137   8.860  12.544  0.1322 -0.2477 -0.0373
  692MOL0     C91254   9.240   8.900  12.646  0.0043 -0.2021  0.6929
  692MOL0     C91255   9.332   9.015  12.601  0.6179  0.2477  0.3635
  692MOL0    Cl91256   9.431   9.068  12.736 -0.0122  0.2732 -0.2530
  692MOL0     C91257   8.663   8.441  12.151 -0.6445 -0.1095 -0.5777
  692MOL0     C91258   8.525   8.435  12.119 -0.3863  0.5772  0.3241
  692MOL0     O91259   8.260   8.489  12.216  0.0794 -0.0824 -0.2860
  692MOL0     C91260   8.055   8.396  11.928 -0.8842 -0.6250  0.0601
  692MOL0     C91261   7.920   8.367  11.903 -0.5725 -0.7058 -0.0247
  692MOL0     N91262   7.170   8.537  12.360  0.1143 -0.1649 -0.2021
  692MOL0     N91263   7.050   8.580  12.369 -0.5284  0.7374  0.9423
  692MOL0     C91264   6.265   8.428  11.509 -0.0332 -0.3083 -0.4168
  692MOL0     C91265   6.224   8.450  11.380 -0.3921  0.4512  0.1741
  692MOL0     C91266   6.077   8.623  10.985  0.9710  1.0879 -0.1013
  692MOL0     C91267   5.935   8.669  10.996  0.4480  0.3271 -0.4611
  692MOL0     C91268   5.860   8.679  10.877  0.4308  0.2393 -0.1886
  692MOL0     C91269   5.916   8.663  10.753  0.2084  0.0921  0.0377
  692MOL0     O91270   5.831   8.668  10.646  1.3786 -0.9675 -0.0806
  692MOL0     C91271   5.875   8.687  10.505 -0.8601  0.0916 -0.8100
  692MOL0     C91272   5.881   8.840  10.479 -0.4608  0.5270  0.0944
  692MOL0     C91273   5.978   8.877  10.371  0.1962  0.7298 -1.8831
  692MOL0     C91274   5.919   8.897  10.237  0.2154 -0.1641 -0.0319
  692MOL0     C91275   5.828   9.003  10.245  0.6582  0.2185  0.6838
  692MOL0     C91276   5.740   9.094  10.247  0.3467  0.7018  0.1529
  692MOL0     C91277   6.057   8.638  10.749 -0.3926 -0.5656 -0.7514
  692MOL0     C91278   6.135   8.625  10.858  0.9051 -0.2039 -0.1388
  692MOL0     H91279   6.055   8.735  11.422  0.8439  2.3582 -0.4841
  692MOL0     H91280   6.158   8.719  11.651 -0.4839  2.3108 -2.2969
  692MOL0     H91281   6.162   8.411  11.889 -1.5873 -1.6864 -2.1766
  692MOL0     H91282   6.084   8.529  11.786 -0.6094  0.6006  1.4642
  692MOL0     H91283   6.145   8.606  12.016 -3.3133  0.4260 -2.0284
  692MOL0     H91284   6.174   8.713  11.882  0.5830  1.4855  2.1357
  692MOL0     H91285   6.365   8.709  12.051 -2.5066  0.5449  0.0814
  692MOL0     H91286   6.426   8.652  11.891  1.7111  1.2551  1.5360
  692MOL0     H91287   6.365   8.518  12.153  0.3325  0.3908 -0.7195
  692MOL0     H91288   6.366   8.420  12.007 -0.1182  0.0483  2.1258
  692MOL0     H91289   6.593   8.520  11.954 -3.6235  0.7565 -1.3740
  692MOL0     H91290   6.584   8.388  12.072  1.9645  1.1581  0.6066
  692MOL0     H91291   6.564   8.611  12.242  0.5761  1.0145 -0.9599
  692MOL0     H91292   6.628   8.675  12.088 -1.0771 -1.6275 -1.6096
  692MOL0     H91293   6.755   8.478  12.284 -0.5813 -0.2641 -0.0791
  692MOL0     H91294   6.791   8.483  12.113 -1.1277 -0.1805 -0.5544
  692MOL0     H91295   6.852   8.720  12.295  0.1678 -1.6648  1.3957
  692MOL0     H91296   6.881   8.697  12.119 -2.4411 -2.1379 -1.2376
  692MOL0     H91297   7.073   8.534  12.039 -1.1914  2.6825  0.2302
  692MOL0     H91298   7.326   8.345  12.200 -0.1195 -0.9491 -2.0097
  692MOL0     H91299   7.390   8.518  12.225 -0.5844  0.6763 -0.4920
  692MOL0     H91300   7.357   8.564  11.993 -2.7509  1.3886  2.0688
  692MOL0     H91301   7.248   8.417  11.968 -0.4930 -0.1663  0.0726
  692MOL0     H91302   7.467   8.281  11.999  2.9506 -0.0014  1.4090
  692MOL0     H91303   7.448   8.388  11.856  0.0021 -0.5112 -0.9387
  692MOL0     H91304   7.587   8.452  12.119 -0.0249  4.0250  0.7897
  692MOL0     H91305   7.593   8.561  11.978 -1.7277  0.6092 -0.0071
  692MOL0     H91306   7.786   8.568  12.141 -0.0438  2.2412 -0.8536
  692MOL0     H91307   8.029   8.585  12.204  1.2934  0.7980 -0.6764
  692MOL0     H91308   8.497   8.679  11.891 -1.8392 -1.4209  0.8001
  692MOL0     H91309   8.732   8.701  11.943 -0.7437  0.2107 -0.4149
  692MOL0     H91310   8.948   8.653  11.961  0.9809 -0.2114 -0.2558
  692MOL0     H91311   9.073   8.625  12.085  0.9098  2.6605  2.3470
  692MOL0     H91312   8.834   8.789  12.166 -0.4310 -1.6912  2.0410
  692MOL0     H91313   8.958   8.868  12.072 -0.5634  0.2014  1.1402
  692MOL0     H91314   9.014   8.908  12.296 -1.3232  1.4400 -3.3269
  692MOL0     H91315   9.140   8.807  12.222 -0.5473  1.8795 -2.5679
  692MOL0     H91316   8.921   8.722  12.421 -0.0548 -0.2479  1.0019
  692MOL0     H91317   9.027   8.609  12.329 -0.1922 -0.9579  0.9230
  692MOL0     H91318   9.223   8.687  12.449  0.8195 -1.3677  1.7897
  692MOL0     H91319   9.096   8.646  12.576 -3.2544 -2.5706 -2.4056
  692MOL0     H91320   9.039   8.902  12.569  1.6480  3.3020  0.5358
  692MOL0     H91321   9.156   8.917  12.452  2.3836 -1.8314 -0.6372
  692MOL0     H91322   9.200   8.922  12.745  0.2396  2.7579  0.1978
  692MOL0     H91323   9.300   8.813  12.676  0.8446 -0.8472 -2.4340
  692MOL0     H91324   9.270   9.095  12.559  0.0203 -0.4220 -0.0661
  692MOL0     H91325   9.397   8.982  12.519  2.0610  1.9463  0.7609
  692MOL0     H91326   8.697   8.357  12.211  0.5197  1.0096  0.3658
  692MOL0     H91327   8.465   8.357  12.164 -0.5344  1.2943  1.4308
  692MOL0     H91328   8.126   8.359  11.855 -1.2428 -3.2652  0.9248
  692MOL0     H91329   7.903   8.284  11.835 -0.0694 -1.8701  1.2048
  692MOL0     H91330   6.340   8.353  11.532  0.3389  1.2475  4.9603
  692MOL0     H91331   6.254   8.378  11.304 -1.0227  0.8129 -0.4292
  692MOL0     H91332   5.890   8.686  11.093  2.0870  1.4839  0.1510
  692MOL0     H91333   5.754   8.702  10.871  0.4559  0.7787  1.0834
  692MOL0     H91334   5.798   8.638  10.446 -0.1427  0.0734 -1.7487
  692MOL0     H91335   5.975   8.644  10.489 -2.0169 -2.2449 -2.1838
  692MOL0     H91336   5.779   8.870  10.454  0.2371  2.4170 -0.5886
  692MOL0     H91337   5.910   8.890  10.572  0.8911 -0.7380  0.3976
  692MOL0     H91338   6.060   8.805  10.371 -0.4523 -0.2651  2.4529
  692MOL0     H91339   6.021   8.973  10.404  0.1837 -0.5169  2.3293
  692MOL0     H91340   5.998   8.907  10.162 -1.1316 -1.8748 -1.7848
  692MOL0     H91341   5.859   8.813  10.201  2.7173 -1.3100 -1.7338
  692MOL0     H91342   5.675   9.179  10.243 -0.1505  0.6733  3.6990
  692MOL0     H91343   6.108   8.620  10.656 -3.9882 -0.5829 -2.9112
  692MOL0     H91344   6.238   8.601  10.835  1.2482  1.9099 -1.0101
  693MOL0     O91345  11.208   8.330   0.605  0.2124  0.1078  0.4959
  693MOL0     C91346  11.147   8.418   0.549 -0.1805 -0.4254  0.4370
  693MOL0     O91347  11.020   8.413   0.502  0.1566 -0.3473  0.2376
  693MOL0     C91348  10.935   8.308   0.514  0.6687  0.3060  0.5621
  693MOL0     C91349  10.927   8.232   0.631  0.1048  0.2704  0.6896
  693MOL0     C91350  10.816   8.139   0.656 -0.0007 -0.3120 -0.7644
  693MOL0     C91351  10.722   8.112   0.552  0.1059 -0.5006 -0.2629
  693MOL0     O91352  10.607   8.034   0.561 -0.7937  1.1417  0.7391
  693MOL0     C91353  10.599   7.955   0.683  0.4826 -0.4745 -0.0719
  693MOL0     C91354  10.524   7.822   0.644 -1.0750  1.0536  0.1403
  693MOL0     C91355  10.480   7.737   0.764 -0.0943 -0.1195 -0.0879
  693MOL0     C91356  10.369   7.797   0.860 -0.4739  0.0131 -0.1422
  693MOL0     C91357  10.237   7.847   0.801 -0.1889  0.1286 -0.3592
  693MOL0     C91358  10.146   7.737   0.743  0.0002 -0.0824 -0.9570
  693MOL0     C91359  10.154   7.726   0.586  1.3912 -0.2914 -0.1260
  693MOL0     C91360  10.038   7.643   0.517  0.5092 -0.1478 -0.3597
  693MOL0     N91361  10.056   7.497   0.529 -0.2389  0.2153 -0.2471
  693MOL0     C91362  10.103   7.429   0.423 -0.3547 -0.1438  1.0209
  693MOL0     C91363  10.137   7.308   0.459 -0.5719  0.7503  0.6371
  693MOL0     C91364  10.192   7.201   0.370 -0.4685 -0.5990 -0.2900
  693MOL0     C91365  10.086   7.105   0.307 -0.8878  0.3057  0.5829
  693MOL0     C91366   9.979   7.066   0.410 -0.6442  0.5555 -0.0199
  693MOL0     C91367   9.879   6.963   0.354 -0.2206  0.5825  0.4581
  693MOL0     O91368   9.824   7.009   0.228 -0.4061 -0.2388  0.2063
  693MOL0     C91369   9.701   6.948   0.186  0.4903  0.5569 -0.7381
  693MOL0     C91370   9.637   6.837   0.256  0.2475  0.0713  0.6480
  693MOL0     C91371   9.521   6.779   0.197 -0.1805 -0.7150  0.4616
  693MOL0     C91372   9.470   6.834   0.083  0.0488  0.6706  1.1584
  693MOL0     C91373   9.358   6.770   0.006  0.6338 -1.0102 -0.5055
  693MOL0     O91374   9.293   6.853  -0.085 -0.4849  0.2401 -0.3491
  693MOL0     C91375   9.166   6.815  -0.126  0.3723 -0.7442  0.5792
  693MOL0     C91376   9.067   6.791  -0.036  0.2385  1.1053  0.2273
  693MOL0     C91377   8.942   6.760  -0.087  0.1952  1.0529 -0.8992
  693MOL0     C91378   8.922   6.743  -0.227 -0.0590  0.2895 -0.9285
  693MOL0     O91379   8.799   6.729  -0.294  0.0229  0.2025  0.8026
  693MOL0     C91380   8.680   6.786  -0.242 -0.7791  0.0710 -0.3857
  693MOL0     C91381   8.552   6.699  -0.253 -0.5094  0.3106 -0.3795
  693MOL0     C91382   8.562   6.602  -0.142 -0.3734 -0.1278 -0.7270
  693MOL0     C91383   8.469   6.483  -0.164 -0.5564  0.3683 -0.1335
  693MOL0     C91384   8.324   6.527  -0.162 -0.0914 -0.1615  0.2372
  693MOL0     C91385   8.217   6.410  -0.166  0.0300  0.1066  0.5331
  693MOL0     C91386   8.234   6.338  -0.304 -0.7494 -0.0996  0.0063
  693MOL0     C91387   8.163   6.202  -0.298  0.2048  0.0847 -0.2047
  693MOL0    Cl91388   7.990   6.214  -0.271  0.1181 -0.6741 -0.3771
  693MOL0     C91389   9.020   6.783  -0.308 -0.1257 -1.1015  0.2834
  693MOL0     C91390   9.147   6.824  -0.259  1.4175  0.3193  0.3682
  693MOL0     O91391   9.332   6.650   0.038  0.2081 -0.1075  0.5492
  693MOL0     C91392   9.527   6.944   0.018 -0.2792  0.7399  0.0678
  693MOL0     C91393   9.644   7.000   0.067 -0.0768 -0.2046 -0.2745
  693MOL0     N91394  10.131   7.302   0.595  0.4874 -0.0737 -0.4626
  693MOL0     N91395  10.080   7.418   0.638 -0.2478  0.7124  0.9244
  693MOL0     C91396  10.741   8.188   0.436 -0.0308  1.1315 -0.0589
  693MOL0     C91397  10.833   8.288   0.420  1.1936 -0.4597 -0.0046
  693MOL0     C91398  11.232   8.538   0.523  0.2679  0.2600  1.4592
  693MOL0     C91399  11.169   8.655   0.468  0.6012 -0.2728 -0.4933
  693MOL0     C91400  11.248   8.769   0.472  0.1754  0.6817 -0.5102
  693MOL0     C91401  11.366   8.785   0.539 -0.6384 -0.1389 -0.9428
  693MOL0     O91402  11.429   8.903   0.541  0.1563 -0.9084  0.0919
  693MOL0     C91403  11.568   8.909   0.582 -1.2725 -0.1537  0.2528
  693MOL0     C91404  11.589   9.056   0.602  0.0189 -1.0446 -0.9251
  693MOL0     C91405  11.722   9.078   0.666 -0.4205  0.6722  0.4912
  693MOL0     C91406  11.766   9.225   0.649  0.2443  0.4372  0.0412
  693MOL0     C91407  11.904   9.246   0.695  1.3893 -0.9121  1.0815
  693MOL0     C91408  12.008   9.285   0.734 -0.6531 -0.2490 -0.4387
  693MOL0     C91409  11.420   8.664   0.593 -1.5016 -0.2989  0.1920
  693MOL0     C91410  11.362   8.538   0.582 -0.4160 -0.2438  0.2050
  693MOL0     H91411  10.994   8.257   0.712 -1.0907  1.9066  1.2293
  693MOL0     H91412  10.815   8.111   0.761  0.3253 -2.4476 -1.2829
  693MOL0     H91413  10.529   7.992   0.758 -2.5252 -3.1443 -1.3283
  693MOL0     H91414  10.700   7.936   0.721  0.3999  1.7110  1.3898
  693MOL0     H91415  10.580   7.755   0.578 -2.2478  2.8049 -2.7982
  693MOL0     H91416  10.442   7.837   0.574 -2.9152  1.2585  2.2110
  693MOL0     H91417  10.571   7.727   0.824 -0.2560 -0.1202  0.1598
  693MOL0     H91418  10.455   7.635   0.731 -0.5062 -0.2464  0.5931
  693MOL0     H91419  10.340   7.711   0.922 -1.3323 -1.5409 -2.5205
  693MOL0     H91420  10.418   7.869   0.926 -1.9858  1.0304 -0.0676
  693MOL0     H91421  10.262   7.916   0.720  1.5621 -1.2894 -1.0586
  693MOL0     H91422  10.178   7.899   0.878 -2.2602 -1.1271 -0.9972
  693MOL0     H91423  10.046   7.771   0.771  0.4281 -0.2818  0.9111
  693MOL0     H91424  10.172   7.640   0.787  1.5879  1.6369  2.2149
  693MOL0     H91425  10.140   7.824   0.541  0.6857 -0.1559  0.3570
  693MOL0     H91426  10.252   7.691   0.552  0.8345 -1.7344 -0.3512
  693MOL0     H91427  10.042   7.659   0.409  0.9471 -1.4402 -0.5471
  693MOL0     H91428   9.937   7.664   0.555 -0.8077 -2.1450 -2.4989
  693MOL0     H91429  10.097   7.449   0.316 -2.6722  0.0784  1.1439
  693MOL0     H91430  10.248   7.124   0.424  0.1548 -0.6371 -0.9794
  693MOL0     H91431  10.257   7.239   0.291  0.4028  0.6013  0.9703
  693MOL0     H91432  10.129   7.017   0.259 -2.6602 -0.7833  0.9002
  693MOL0     H91433  10.047   7.156   0.218 -1.2907 -0.2560  0.4316
  693MOL0     H91434  10.037   7.022   0.492  1.2983  1.8644 -0.6140
  693MOL0     H91435   9.919   7.151   0.443  1.1957  1.7693  0.3205
  693MOL0     H91436   9.800   6.948   0.428  0.7768  3.4215  2.2336
  693MOL0     H91437   9.922   6.863   0.339 -1.3064 -0.2523  2.4865
  693MOL0     H91438   9.679   6.782   0.339  0.4905 -2.8493 -1.2711
  693MOL0     H91439   9.498   6.682   0.238 -0.4873 -0.7901  0.1174
  693MOL0     H91440   9.077   6.774   0.071  0.5961 -2.1677 -0.1973
  693MOL0     H91441   8.871   6.737  -0.008  0.1504  3.1940 -0.2318
  693MOL0     H91442   8.666   6.889  -0.278  1.1189  1.9787  3.7363
  693MOL0     H91443   8.693   6.790  -0.134 -2.3518  0.1463 -0.1821
  693MOL0     H91444   8.550   6.648  -0.350  1.0987 -1.6010  0.5192
  693MOL0     H91445   8.470   6.770  -0.235  0.5623  1.7259 -0.8928
  693MOL0     H91446   8.549   6.658  -0.048  2.4579  0.2197 -0.4493
  693MOL0     H91447   8.664   6.563  -0.135 -0.3980 -0.1474 -0.4424
  693MOL0     H91448   8.493   6.438  -0.261 -0.9265  1.4289 -0.7370
  693MOL0     H91449   8.494   6.414  -0.083  2.8297  0.9640 -0.5001
  693MOL0     H91450   8.305   6.600  -0.241 -0.0415  1.6005  1.7867
  693MOL0     H91451   8.309   6.579  -0.067 -1.1877 -2.4476  1.4008
  693MOL0     H91452   8.115   6.449  -0.157 -0.6302 -0.9112 -1.7496
  693MOL0     H91453   8.236   6.331  -0.094  2.9447  1.2189  1.1125
  693MOL0     H91454   8.180   6.400  -0.376 -0.0548  1.5795  0.9018
  693MOL0     H91455   8.338   6.322  -0.335 -0.4119  0.4604  0.8150
  693MOL0     H91456   8.208   6.137  -0.223 -0.2470 -0.4552 -0.3914
  693MOL0     H91457   8.179   6.142  -0.388  0.5484  2.0708 -1.5215
  693MOL0     H91458   9.001   6.786  -0.415 -0.2997 -2.7958  0.2293
  693MOL0     H91459   9.232   6.858  -0.318  0.1508  0.3368 -1.5466
  693MOL0     H91460   9.491   6.993  -0.072 -0.2592 -0.3260 -0.5317
  693MOL0     H91461   9.707   7.078   0.026 -0.7720  0.6459  0.2404
  693MOL0     H91462  10.679   8.173   0.348  0.6125 -3.2870 -0.0112
  693MOL0     H91463  10.836   8.351   0.331  0.3764  2.8508  2.1349
  693MOL0     H91464  11.068   8.664   0.431  0.3105  0.6662  0.5033
  693MOL0     H91465  11.215   8.868   0.442  3.1199  2.1069  0.5186
  693MOL0     H91466  11.642   8.879   0.507  0.6633 -0.6679  2.2702
  693MOL0     H91467  11.583   8.852   0.674 -4.0540  3.0550  2.9289
  693MOL0     H91468  11.572   9.113   0.511  1.3016  3.3564  1.2861
  693MOL0     H91469  11.518   9.097   0.675  2.1675 -2.6254  2.3086
  693MOL0     H91470  11.789   9.016   0.606  0.4344  2.7324 -0.8188
  693MOL0     H91471  11.723   9.045   0.770  2.8747 -1.3011 -0.0501
  693MOL0     H91472  11.760   9.255   0.544 -0.8339  0.2752  0.0502
  693MOL0     H91473  11.696   9.280   0.711  2.6196  0.3714  2.9698
  693MOL0     H91474  12.093   9.338   0.771 -1.0447  2.1859 -2.7363
  693MOL0     H91475  11.513   8.662   0.650  0.1217 -0.7816 -2.3068
  693MOL0     H91476  11.403   8.442   0.614  1.3478  0.6124  0.6610
  694MOL0     O91477   3.119  10.518   4.262  0.9188 -0.1699 -0.1909
  694MOL0     C91478   3.029  10.473   4.325 -0.2616  0.9674 -0.0424
  694MOL0     O91479   3.033  10.366   4.412  0.6019  0.3929  0.0562
  694MOL0     C91480   3.125  10.272   4.391 -0.4329 -0.2686 -0.3265
  694MOL0     C91481   3.083  10.150   4.344 -0.4422 -0.2351 -0.1370
  694MOL0     C91482   3.170  10.040   4.332  0.5299  0.1327  0.0746
  694MOL0     C91483   3.307  10.061   4.358 -0.0437 -0.5189  0.1863
  694MOL0     O91484   3.404   9.972   4.351 -0.3004  0.2195  0.1097
  694MOL0     C91485   3.377   9.836   4.324 -0.3728 -0.1090  0.0705
  694MOL0     C91486   3.500   9.750   4.321 -0.1567  0.2031 -0.0888
  694MOL0     C91487   3.463   9.609   4.368  0.2343 -0.5463 -0.2012
  694MOL0     C91488   3.389   9.505   4.279  0.7688 -0.9279 -0.0001
  694MOL0     C91489   3.317   9.400   4.362  0.0238  0.1973 -0.2192
  694MOL0     C91490   3.193   9.352   4.298 -0.4982  0.4504  0.5164
  694MOL0     C91491   3.146   9.225   4.371  0.0995 -0.7792  0.3018
  694MOL0     C91492   2.997   9.215   4.342  0.7302 -0.7098 -0.0883
  694MOL0     N91493   2.971   9.157   4.206  0.0165 -0.6788 -1.1922
  694MOL0     C91494   2.985   9.027   4.168 -0.5960 -0.5227 -0.6748
  694MOL0     C91495   2.933   9.028   4.043  1.2078  0.0965  0.1997
  694MOL0     C91496   2.915   8.904   3.959  0.3257  0.6578  0.2851
  694MOL0     C91497   2.774   8.865   3.910 -0.7982 -1.0989  0.3731
  694MOL0     C91498   2.703   8.806   4.036  0.0904 -0.1546  0.2157
  694MOL0     C91499   2.571   8.740   4.004  0.2907 -0.9943  0.1678
  694MOL0     O91500   2.468   8.843   4.017  0.5128  0.5336 -0.4232
  694MOL0     C91501   2.344   8.790   4.032 -0.2275 -0.7650 -0.9004
  694MOL0     C91502   2.254   8.874   4.104 -0.7881  0.2337 -0.0042
  694MOL0     C91503   2.121   8.833   4.125 -0.0035  0.0577 -0.1873
  694MOL0     C91504   2.069   8.717   4.052  0.3613 -0.6178 -0.7628
  694MOL0     C91505   1.927   8.685   4.073  0.3631  0.4957 -0.0871
  694MOL0     O91506   1.872   8.591   3.994 -0.9284 -1.0179  0.3905
  694MOL0     C91507   1.737   8.558   3.994 -0.4502 -0.7694  0.6793
  694MOL0     C91508   1.640   8.654   3.983  0.5524  0.0226 -0.1362
  694MOL0     C91509   1.504   8.616   3.988  0.8497 -0.2908 -0.0999
  694MOL0     C91510   1.468   8.486   4.001  0.6954  0.2232  0.3912
  694MOL0     O91511   1.334   8.455   3.989 -0.8073  0.0893 -0.8238
  694MOL0     C91512   1.285   8.322   4.003 -0.3237  0.3442 -1.2636
  694MOL0     C91513   1.134   8.337   4.031 -0.2652  0.1111  0.3814
  694MOL0     C91514   1.090   8.430   4.150 -0.1278  0.2395  0.1389
  694MOL0     C91515   1.166   8.391   4.277 -0.3578 -1.1892  0.4878
  694MOL0     C91516   1.104   8.478   4.391  0.1146  0.0749  0.0785
  694MOL0     C91517   1.139   8.632   4.369 -0.8916  0.5921 -0.8076
  694MOL0     C91518   1.287   8.653   4.346  0.5813 -1.3682 -0.1715
  694MOL0     C91519   1.316   8.801   4.361  0.0281 -0.5019  0.8330
  694MOL0    Cl91520   1.452   8.862   4.246 -0.1738  0.1566 -0.1449
  694MOL0     C91521   1.571   8.384   4.007 -0.4091 -0.0640 -0.5243
  694MOL0     C91522   1.705   8.426   4.013 -0.3238  0.7395  0.0966
  694MOL0     O91523   1.870   8.753   4.157  0.0610  0.4112  0.4251
  694MOL0     C91524   2.155   8.636   3.973 -0.6993 -0.1708 -0.7528
  694MOL0     C91525   2.292   8.677   3.962 -0.0109  0.2167  0.4129
  694MOL0     N91526   2.880   9.147   4.015 -0.1469  0.6309 -0.3147
  694MOL0     N91527   2.911   9.225   4.104 -0.2920 -0.2180 -0.0380
  694MOL0     C91528   3.353  10.195   4.385 -0.1715  0.6750 -0.2373
  694MOL0     C91529   3.265  10.303   4.412 -0.1512  0.5898 -0.2437
  694MOL0     C91530   2.891  10.535   4.302 -0.2360  0.0095 -0.8889
  694MOL0     C91531   2.778  10.483   4.352 -0.1705  0.1657  0.0319
  694MOL0     C91532   2.658  10.541   4.342 -0.5062  0.8431  0.2863
  694MOL0     C91533   2.640  10.651   4.263  0.4252  0.9391  0.1095
  694MOL0     O91534   2.524  10.720   4.259 -0.6456 -0.2887  0.7930
  694MOL0     C91535   2.416  10.682   4.350  0.0725 -0.0802  0.0437
  694MOL0     C91536   2.319  10.793   4.364  0.6961  0.3378 -0.7041
  694MOL0     C91537   2.219  10.815   4.248  0.6214 -0.3993  0.0721
  694MOL0     C91538   2.116  10.919   4.291 -0.5127 -0.0277  0.3063
  694MOL0     C91539   2.030  10.947   4.182 -0.6310  0.5330  1.2867
  694MOL0     C91540   1.948  10.955   4.090 -0.3623 -0.4113 -0.0027
  694MOL0     C91541   2.752  10.702   4.200 -0.5263 -1.0025 -0.7205
  694MOL0     C91542   2.883  10.648   4.222 -0.6014  0.7065 -0.8359
  694MOL0     H91543   2.975  10.137   4.342 -0.7302 -0.1169  4.5736
  694MOL0     H91544   3.122   9.945   4.308  0.1367  0.7441 -1.6858
  694MOL0     H91545   3.315   9.819   4.235 -1.4111 -1.5969  1.0161
  694MOL0     H91546   3.314   9.808   4.409 -3.5539  2.2526 -1.2959
  694MOL0     H91547   3.579   9.785   4.389  1.0574 -1.7978 -0.3743
  694MOL0     H91548   3.536   9.752   4.218 -1.1086  0.5422 -0.4208
  694MOL0     H91549   3.406   9.615   4.461  0.5925 -1.5440  0.0954
  694MOL0     H91550   3.553   9.558   4.405  0.8867  2.9260  3.8521
  694MOL0     H91551   3.320   9.572   4.227  2.3428  0.6644 -0.1445
  694MOL0     H91552   3.444   9.475   4.189  3.1797  3.1785 -0.1600
  694MOL0     H91553   3.294   9.436   4.463  1.1344  1.9458 -0.5407
  694MOL0     H91554   3.388   9.319   4.379  0.7262  0.3379 -2.2685
  694MOL0     H91555   3.207   9.326   4.193  0.4508  2.8446 -0.0088
  694MOL0     H91556   3.114   9.428   4.304 -2.3023 -1.3873  1.5232
  694MOL0     H91557   3.201   9.141   4.327  0.7131 -0.2102 -0.0337
  694MOL0     H91558   3.178   9.230   4.475 -1.0969  2.5986  0.6201
  694MOL0     H91559   2.949   9.311   4.367  3.3459 -0.3652  4.7698
  694MOL0     H91560   2.961   9.150   4.422  1.8144  1.2293  2.0979
  694MOL0     H91561   3.023   8.942   4.224 -0.6245  0.8616  1.5470
  694MOL0     H91562   2.967   8.818   4.004 -1.6069 -0.0783  1.2322
  694MOL0     H91563   2.974   8.921   3.869 -0.5524  0.4615 -0.3384
  694MOL0     H91564   2.779   8.792   3.829  2.3255  2.3009 -2.8384
  694MOL0     H91565   2.730   8.956   3.869  0.2451 -1.6086 -2.0044
  694MOL0     H91566   2.769   8.724   4.066  0.0535 -0.9226 -1.6634
  694MOL0     H91567   2.683   8.887   4.108  2.3917  1.2602 -0.6184
  694MOL0     H91568   2.558   8.663   4.081  0.5250 -3.7552 -2.3962
  694MOL0     H91569   2.559   8.704   3.902  0.8607 -0.0280 -0.2547
  694MOL0     H91570   2.288   8.961   4.158  0.4969 -0.1052 -0.2290
  694MOL0     H91571   2.067   8.881   4.205  1.8135  2.6629 -0.4168
  694MOL0     H91572   1.673   8.757   3.969 -0.2493  0.3902  0.5836
  694MOL0     H91573   1.421   8.684   3.978 -0.6512 -2.0367  0.0848
  694MOL0     H91574   1.329   8.268   4.088 -3.1440  1.6430  1.2167
  694MOL0     H91575   1.309   8.277   3.907 -0.5507  0.0841 -1.1981
  694MOL0     H91576   1.109   8.232   4.043  0.7447 -0.3522 -1.2090
  694MOL0     H91577   1.098   8.379   3.936  2.5509  0.9652 -0.4207
  694MOL0     H91578   0.981   8.430   4.164 -0.1216  1.0533  0.2351
  694MOL0     H91579   1.124   8.532   4.128  2.9493 -0.7455 -0.0425
  694MOL0     H91580   1.164   8.285   4.304  4.3156 -1.5934  0.1770
  694MOL0     H91581   1.272   8.419   4.279 -0.7676  1.0573 -2.3300
  694MOL0     H91582   1.140   8.448   4.489  1.1992 -1.4972 -0.7538
  694MOL0     H91583   0.995   8.473   4.391  0.0372  1.1305  1.7064
  694MOL0     H91584   1.095   8.682   4.456  0.0586  0.7055 -0.3734
  694MOL0     H91585   1.095   8.668   4.276  1.4665  2.4441 -1.3182
  694MOL0     H91586   1.348   8.600   4.418  1.9600  1.4158  0.8668
  694MOL0     H91587   1.313   8.633   4.242  2.9521  0.3611  0.0205
  694MOL0     H91588   1.361   8.821   4.458  2.2079 -2.5143  0.3294
  694MOL0     H91589   1.224   8.860   4.353  0.3247 -0.0114  0.9804
  694MOL0     H91590   1.541   8.281   4.024  0.5966 -0.1290  0.9636
  694MOL0     H91591   1.767   8.343   4.045  0.0566 -0.0492 -2.4075
  694MOL0     H91592   2.119   8.544   3.928 -0.9906 -0.7776  0.6815
  694MOL0     H91593   2.359   8.609   3.912  0.0549  0.5529  0.0312
  694MOL0     H91594   3.458  10.214   4.405 -0.2915  1.3206 -0.2165
  694MOL0     H91595   3.303  10.394   4.456  2.6787 -0.5325 -0.1426
  694MOL0     H91596   2.789  10.393   4.411  0.2336 -1.7793 -2.8097
  694MOL0     H91597   2.573  10.505   4.399  0.5122 -3.0144 -0.3064
  694MOL0     H91598   2.456  10.674   4.451 -0.4888  0.3358  0.3006
  694MOL0     H91599   2.374  10.592   4.302  0.3389 -0.3659  0.3387
  694MOL0     H91600   2.257  10.785   4.454  4.0832 -2.2630  1.7032
  694MOL0     H91601   2.372  10.889   4.372  1.9089 -0.0951 -2.6703
  694MOL0     H91602   2.184  10.715   4.224  1.6973 -1.2046  1.7392
  694MOL0     H91603   2.263  10.860   4.158 -1.1547  1.5900  0.1055
  694MOL0     H91604   2.060  10.874   4.374  1.0271 -2.1455  0.2823
  694MOL0     H91605   2.170  11.008   4.325  0.1341 -0.4364  0.3756
  694MOL0     H91606   1.902  10.954   3.993 -2.1285  2.6953  0.6671
  694MOL0     H91607   2.741  10.798   4.150 -1.6485 -1.1505 -0.7931
  694MOL0     H91608   2.971  10.694   4.178  1.4505 -1.3481  0.8425
  695MOL0     O91609   3.583   2.953   2.313  0.1975 -0.1760 -1.2503
  695MOL0     C91610   3.661   2.916   2.227 -0.0540  0.7351 -0.3395
  695MOL0     O91611   3.697   2.785   2.217 -0.0002 -0.5901 -0.6900
  695MOL0     C91612   3.612   2.693   2.275  0.3183 -0.1804  0.5596
  695MOL0     C91613   3.586   2.591   2.184  0.3654  0.3455  0.6146
  695MOL0     C91614   3.508   2.476   2.215  0.4753 -0.4304  0.3406
  695MOL0     C91615   3.474   2.459   2.348  0.6168 -0.6945 -0.1192
  695MOL0     O91616   3.377   2.367   2.395 -0.1654  0.0231 -0.1912
  695MOL0     C91617   3.251   2.377   2.337 -0.4082  1.3178 -0.6457
  695MOL0     C91618   3.158   2.260   2.381  0.4136  0.8132  0.8402
  695MOL0     C91619   3.210   2.136   2.314  0.2382  0.8850  0.8151
  695MOL0     C91620   3.104   2.030   2.324  0.0162  1.3873  0.7475
  695MOL0     C91621   3.164   1.893   2.374  0.0798 -0.2591 -0.4607
  695MOL0     C91622   3.055   1.803   2.422 -0.0643 -0.0334 -0.3619
  695MOL0     C91623   3.118   1.663   2.452 -0.6780  0.7518 -0.0589
  695MOL0     C91624   3.153   1.586   2.320 -0.5823  1.1613 -0.4296
  695MOL0     N91625   3.180   1.440   2.352 -0.8702 -0.7735  0.5184
  695MOL0     C91626   3.085   1.343   2.374  0.3414  0.5723 -0.5776
  695MOL0     C91627   3.157   1.241   2.432 -0.4116 -0.3516  0.1990
  695MOL0     C91628   3.100   1.113   2.484 -0.8158 -0.3859 -0.6665
  695MOL0     C91629   3.027   1.125   2.620  0.0874  0.4603 -0.0852
  695MOL0     C91630   3.123   1.159   2.732  0.9127  0.1154 -0.1812
  695MOL0     C91631   3.209   1.039   2.768  1.6458 -0.6251 -0.0017
  695MOL0     O91632   3.134   0.918   2.778  1.0107  0.1568  0.3677
  695MOL0     C91633   3.171   0.854   2.893  0.4211  0.6341 -0.0266
  695MOL0     C91634   3.290   0.781   2.900  0.6099 -0.1778 -0.4867
  695MOL0     C91635   3.309   0.705   3.013  0.7404 -0.2372 -0.3386
  695MOL0     C91636   3.218   0.699   3.114 -0.4662  0.9977 -0.6601
  695MOL0     C91637   3.234   0.597   3.227 -0.4012  0.6649  0.5305
  695MOL0     O91638   3.145   0.606   3.337  0.3986  0.7373  0.1150
  695MOL0     C91639   3.166   0.552   3.466 -1.0535 -0.3620  0.5937
  695MOL0     C91640   3.298   0.524   3.510 -0.9419 -0.0059 -0.3856
  695MOL0     C91641   3.329   0.485   3.641 -0.6285  0.9451  1.3972
  695MOL0     C91642   3.232   0.470   3.734 -0.1610 -1.2123 -0.5095
  695MOL0     O91643   3.261   0.434   3.864  0.0796 -0.4718 -0.5317
  695MOL0     C91644   3.155   0.383   3.947  0.0966 -0.6837  0.3646
  695MOL0     C91645   3.239   0.318   4.072 -0.1389  0.1228  0.4116
  695MOL0     C91646   3.164   0.206   4.154  0.7247 -0.0869 -0.2499
  695MOL0     C91647   3.246   0.109   4.225  1.1569 -0.0959 -0.0589
  695MOL0     C91648   3.162  -0.001   4.280 -0.0666 -0.4195 -0.0771
  695MOL0     C91649   3.219  -0.105   4.369 -0.3167  1.2940 -0.4163
  695MOL0     C91650   3.106  -0.213   4.404  0.3196  0.4329  0.2034
  695MOL0     C91651   3.120  -0.306   4.517  0.4829  0.6234  0.1860
  695MOL0    Cl91652   3.124  -0.228   4.673  0.0119  0.3739  0.3345
  695MOL0     C91653   3.101   0.494   3.688 -0.4218 -0.7595 -0.6864
  695MOL0     C91654   3.068   0.530   3.560  0.4534  0.6580  0.6926
  695MOL0     O91655   3.322   0.517   3.221 -0.3553 -0.4567 -0.7173
  695MOL0     C91656   3.102   0.781   3.107  0.3850 -0.4013 -0.9974
  695MOL0     C91657   3.077   0.860   2.993 -0.7727  0.1947 -0.2533
  695MOL0     N91658   3.290   1.274   2.449  0.1104 -0.1271 -0.3430
  695MOL0     N91659   3.301   1.397   2.404  0.2016  0.2735 -0.2325
  695MOL0     C91660   3.502   2.561   2.445 -0.9423  0.0114 -0.1757
  695MOL0     C91661   3.578   2.674   2.405 -0.6262  1.2504 -0.3511
  695MOL0     C91662   3.729   3.013   2.137  0.7618  0.2502 -0.4874
  695MOL0     C91663   3.691   3.149   2.142 -0.1953  0.0702 -0.3264
  695MOL0     C91664   3.745   3.242   2.052 -0.0739  0.0645  0.0863
  695MOL0     C91665   3.816   3.194   1.942  0.5985  0.0835 -0.6886
  695MOL0     O91666   3.860   3.272   1.834 -0.4286  0.0373  0.0983
  695MOL0     C91667   3.830   3.412   1.833  0.0764 -0.2309  0.4386
  695MOL0     C91668   3.878   3.478   1.698 -0.1084 -0.3773  0.5518
  695MOL0     C91669   3.893   3.637   1.702 -0.3081 -0.3302  0.1180
  695MOL0     C91670   4.013   3.683   1.791 -0.5874  0.3279 -0.7528
  695MOL0     C91671   3.983   3.680   1.929  0.7870  0.9809 -0.0987
  695MOL0     C91672   3.964   3.698   2.050  0.2574  1.0100 -0.3704
  695MOL0     C91673   3.866   3.063   1.952  0.2960  0.2254 -0.0751
  695MOL0     C91674   3.825   2.976   2.045  1.2866  0.4640 -0.9026
  695MOL0     H91675   3.622   2.602   2.082  0.0013  1.1187  0.5583
  695MOL0     H91676   3.473   2.397   2.149 -1.8269 -0.4745  1.5305
  695MOL0     H91677   3.267   2.378   2.229 -0.4529  1.5405 -0.6515
  695MOL0     H91678   3.207   2.472   2.369  0.1131  1.4283 -0.2382
  695MOL0     H91679   3.053   2.279   2.355  0.7708  0.4426 -1.0421
  695MOL0     H91680   3.154   2.252   2.490 -0.5630  1.3999  0.8591
  695MOL0     H91681   3.298   2.105   2.371  1.0986 -2.8456 -2.1534
  695MOL0     H91682   3.241   2.145   2.209  0.7602 -2.5869  0.5710
  695MOL0     H91683   3.019   2.054   2.389 -3.4075  3.2094 -3.8219
  695MOL0     H91684   3.061   2.017   2.224  2.9363  0.8913 -0.5286
  695MOL0     H91685   3.250   1.889   2.441  0.2327 -1.5809 -0.7123
  695MOL0     H91686   3.211   1.841   2.291 -0.4034 -1.7155  0.1354
  695MOL0     H91687   2.977   1.785   2.348 -2.4352 -2.7535  2.5284
  695MOL0     H91688   3.001   1.843   2.509 -0.7156 -0.8764 -0.3728
  695MOL0     H91689   3.202   1.676   2.521 -0.4589  0.4930 -0.2746
  695MOL0     H91690   3.046   1.599   2.503  0.4043 -0.7975 -0.4042
  695MOL0     H91691   3.238   1.638   2.277  1.4764  0.6923  2.7261
  695MOL0     H91692   3.072   1.593   2.247 -2.5023  0.0373  1.4896
  695MOL0     H91693   2.977   1.340   2.358  0.0380  0.0200  1.3440
  695MOL0     H91694   3.162   1.023   2.485 -0.3977 -0.2753  3.5137
  695MOL0     H91695   3.011   1.097   2.423 -1.1172 -0.1793 -0.2897
  695MOL0     H91696   2.978   1.027   2.629  0.1998  0.0687 -2.7647
  695MOL0     H91697   2.952   1.202   2.606 -0.5226 -0.4570 -2.2599
  695MOL0     H91698   3.181   1.250   2.714  2.7309 -0.8303  0.6526
  695MOL0     H91699   3.060   1.192   2.815  1.7192 -0.0340  0.4974
  695MOL0     H91700   3.267   1.071   2.855  1.9750  0.6159 -0.6525
  695MOL0     H91701   3.288   1.021   2.695  1.5763 -0.6712 -0.0653
  695MOL0     H91702   3.361   0.781   2.818  2.0979 -1.3457  0.7399
  695MOL0     H91703   3.394   0.640   2.993  1.2173  1.0609 -3.0902
  695MOL0     H91704   3.391   0.533   3.455 -0.4130  2.3414  0.7694
  695MOL0     H91705   3.434   0.475   3.668  0.1079 -3.9795 -1.8815
  695MOL0     H91706   3.095   0.311   3.892 -2.1148  1.0126  0.4229
  695MOL0     H91707   3.097   0.468   3.983  2.4670  0.4985  1.6369
  695MOL0     H91708   3.270   0.393   4.145  0.2758 -1.3009  1.7695
  695MOL0     H91709   3.325   0.273   4.021  0.9865  2.5730  0.0137
  695MOL0     H91710   3.097   0.157   4.082 -0.1775 -0.6536  0.9449
  695MOL0     H91711   3.095   0.257   4.221 -2.0870 -0.1883 -2.8699
  695MOL0     H91712   3.314   0.051   4.161 -2.2085 -1.6747 -2.5092
  695MOL0     H91713   3.283   0.160   4.315  1.9334  2.0972 -1.5367
  695MOL0     H91714   3.127  -0.046   4.187 -0.0163 -0.2385 -0.1849
  695MOL0     H91715   3.083   0.052   4.334  0.2060 -0.6524  0.5589
  695MOL0     H91716   3.261  -0.058   4.458  2.9081  1.6244 -1.9943
  695MOL0     H91717   3.300  -0.160   4.321 -1.3740 -0.3505 -0.4058
  695MOL0     H91718   3.016  -0.151   4.418 -0.0572  0.2675 -1.3620
  695MOL0     H91719   3.084  -0.272   4.315 -1.5133 -0.2079  1.0247
  695MOL0     H91720   3.210  -0.367   4.509  1.9040  2.2313  2.6470
  695MOL0     H91721   3.047  -0.386   4.501 -0.5056  1.5757 -0.2262
  695MOL0     H91722   3.023   0.496   3.763  1.3983  1.1070  1.2701
  695MOL0     H91723   2.963   0.551   3.538 -1.2168 -5.4995  1.0143
  695MOL0     H91724   3.030   0.794   3.187 -0.0145 -0.3211 -1.3672
  695MOL0     H91725   3.004   0.940   2.983  1.0710  1.7508 -2.0990
  695MOL0     H91726   3.468   2.529   2.543 -0.5660  1.7554  0.5641
  695MOL0     H91727   3.617   2.744   2.478  1.9485  0.9892 -1.3585
  695MOL0     H91728   3.624   3.179   2.223 -1.4406  1.0584 -1.6571
  695MOL0     H91729   3.718   3.346   2.066  0.8713  0.4071 -0.6096
  695MOL0     H91730   3.878   3.454   1.922  1.7650 -1.8202  0.3363
  695MOL0     H91731   3.725   3.440   1.845  0.6569  2.4345  0.0214
  695MOL0     H91732   3.977   3.445   1.664  0.0434  3.3729 -3.6760
  695MOL0     H91733   3.811   3.457   1.614 -0.4007 -0.4609  0.8042
  695MOL0     H91734   3.796   3.684   1.723  0.3821  0.4868  1.6499
  695MOL0     H91735   3.907   3.675   1.600  1.3225 -0.4163  0.2941
  695MOL0     H91736   4.095   3.614   1.766 -1.0964 -0.8849  0.7480
  695MOL0     H91737   4.057   3.781   1.771  1.6307 -0.6197 -0.8054
  695MOL0     H91738   3.951   3.724   2.154  3.8881  0.3004  0.3726
  695MOL0     H91739   3.924   3.022   1.870  1.3333  3.7176 -1.2537
  695MOL0     H91740   3.868   2.877   2.039  3.5957  1.3975 -1.0300
  696MOL0     O91741   1.207   3.077   7.630  0.2655 -0.6810  0.0652
  696MOL0     C91742   1.252   3.026   7.524  0.1778  0.5217 -1.1786
  696MOL0     O91743   1.215   3.059   7.396 -0.4050  0.4200 -0.6593
  696MOL0     C91744   1.114   3.153   7.386 -0.4570 -0.9462 -0.3000
  696MOL0     C91745   1.146   3.271   7.319  0.2657 -0.7775 -0.1537
  696MOL0     C91746   1.056   3.376   7.302  0.5613 -0.6229  1.4324
  696MOL0     C91747   0.924   3.365   7.356 -0.2521  0.5050  0.7606
  696MOL0     O91748   0.824   3.456   7.363 -0.2550  0.8236  0.3310
  696MOL0     C91749   0.867   3.596   7.341 -0.6493  0.6955  0.6550
  696MOL0     C91750   0.783   3.664   7.442 -0.2396 -0.8761 -0.2345
  696MOL0     C91751   0.635   3.618   7.446 -0.2415  0.8486 -0.3458
  696MOL0     C91752   0.562   3.705   7.542  0.0560 -0.5341 -0.0850
  696MOL0     C91753   0.411   3.667   7.567 -0.4912  0.4446  0.6696
  696MOL0     C91754   0.345   3.724   7.690  1.3574 -0.0207 -0.2186
  696MOL0     C91755   0.200   3.682   7.693  0.0993 -0.0606 -0.1976
  696MOL0     C91756   0.143   3.717   7.832  0.2389  0.4853 -0.2792
  696MOL0     N91757  -0.004   3.704   7.832 -0.2054 -0.9704  0.1649
  696MOL0     C91758  -0.068   3.595   7.796  0.6596  0.7724  0.3913
  696MOL0     C91759  -0.182   3.639   7.744 -0.0235 -0.9300  0.9889
  696MOL0     C91760  -0.273   3.574   7.642  0.6556  0.7954 -0.1506
  696MOL0     C91761  -0.392   3.515   7.720  0.4444 -0.1485 -0.1695
  696MOL0     C91762  -0.493   3.452   7.620 -0.2695  0.3474  1.2048
  696MOL0     C91763  -0.612   3.387   7.710 -0.8065  1.1379  1.2354
  696MOL0     O91764  -0.715   3.480   7.720 -0.3969  0.0688 -0.1396
  696MOL0     C91765  -0.824   3.477   7.634 -0.4699 -0.5336 -0.7796
  696MOL0     C91766  -0.842   3.387   7.532  0.0679 -0.0277  0.6112
  696MOL0     C91767  -0.956   3.363   7.473 -0.0005  0.4814  0.4421
  696MOL0     C91768  -1.077   3.414   7.524  0.9633 -1.0812  0.1995
  696MOL0     C91769  -1.202   3.391   7.442  0.3874  0.2294 -0.0515
  696MOL0     O91770  -1.194   3.287   7.344 -0.3492  0.6529 -0.3568
  696MOL0     C91771  -1.306   3.226   7.299  0.2717 -0.1035 -0.3770
  696MOL0     C91772  -1.406   3.312   7.246 -0.3479 -0.3708 -0.3530
  696MOL0     C91773  -1.521   3.253   7.196 -0.2228 -0.9133  0.8145
  696MOL0     C91774  -1.538   3.111   7.186  0.5326 -0.8047 -0.1188
  696MOL0     O91775  -1.665   3.057   7.141 -0.9000 -0.0088 -0.4971
  696MOL0     C91776  -1.707   3.086   7.007 -0.2609 -0.7583  0.3046
  696MOL0     C91777  -1.824   2.991   6.973 -0.3202 -0.2756 -0.3589
  696MOL0     C91778  -1.911   3.021   6.843 -0.2374 -0.1494  0.3174
  696MOL0     C91779  -2.010   3.136   6.859  0.0301 -0.0196 -0.2797
  696MOL0     C91780  -2.137   3.125   6.772 -0.7288 -0.7034 -0.3150
  696MOL0     C91781  -2.243   3.046   6.845  0.8425 -0.4831  0.3983
  696MOL0     C91782  -2.297   3.125   6.968  0.5624  0.5331 -0.9539
  696MOL0     C91783  -2.413   3.034   7.022  0.6033 -0.5575 -0.2457
  696MOL0    Cl91784  -2.525   2.973   6.904  0.2922  0.2133 -0.6569
  696MOL0     C91785  -1.438   3.031   7.231 -0.4811  0.5910  0.2967
  696MOL0     C91786  -1.323   3.086   7.289  0.3641 -0.6147  0.4836
  696MOL0     O91787  -1.306   3.451   7.472  0.2822  0.5940 -0.6612
  696MOL0     C91788  -1.065   3.512   7.626 -0.6449 -0.0300 -1.1032
  696MOL0     C91789  -0.937   3.536   7.685  0.2198  0.4137 -0.0971
  696MOL0     N91790  -0.189   3.778   7.760 -0.1640  0.5761  0.6452
  696MOL0     N91791  -0.080   3.819   7.817  0.0494  0.3459  0.4845
  696MOL0     C91792   0.897   3.239   7.418 -0.3364 -0.4474 -0.3282
  696MOL0     C91793   0.987   3.132   7.435 -0.5174  0.1714  0.8063
  696MOL0     C91794   1.337   2.904   7.541 -0.3597  0.2019  0.7877
  696MOL0     C91795   1.369   2.853   7.673  1.1198 -1.0764  0.3217
  696MOL0     C91796   1.447   2.744   7.673  0.5867  1.6189  0.3067
  696MOL0     C91797   1.498   2.683   7.566 -0.7198 -0.6360  0.3023
  696MOL0     O91798   1.579   2.577   7.586  0.6870  0.2164  0.8135
  696MOL0     C91799   1.662   2.516   7.486 -0.1462 -0.1712 -0.3430
  696MOL0     C91800   1.783   2.605   7.454  1.0294 -0.1287  0.6291
  696MOL0     C91801   1.909   2.567   7.536 -0.0679  0.1676  0.0277
  696MOL0     C91802   1.897   2.527   7.680  0.0862  0.0450  0.5598
  696MOL0     C91803   1.845   2.646   7.758 -0.2343 -0.0678  0.8123
  696MOL0     C91804   1.792   2.736   7.812 -0.6265  0.2896  0.3764
  696MOL0     C91805   1.471   2.736   7.433 -0.3505  0.6618 -0.2985
  696MOL0     C91806   1.392   2.851   7.421  0.5074 -1.2929  0.2883
  696MOL0     H91807   1.244   3.273   7.273  1.3896 -0.5490  2.0809
  696MOL0     H91808   1.085   3.465   7.247  0.1660  0.2526  2.5860
  696MOL0     H91809   0.843   3.628   7.239  1.3610 -1.1220 -0.4623
  696MOL0     H91810   0.971   3.624   7.359  0.0721 -0.7087 -1.0794
  696MOL0     H91811   0.787   3.772   7.429 -0.1212 -0.6758  1.2826
  696MOL0     H91812   0.822   3.650   7.543  2.5609  0.6048 -1.0089
  696MOL0     H91813   0.626   3.515   7.483  1.1048  0.4865 -0.9734
  696MOL0     H91814   0.590   3.624   7.347  2.0102 -1.9090 -1.6617
  696MOL0     H91815   0.611   3.708   7.640 -3.1434 -2.1590  1.7181
  696MOL0     H91816   0.564   3.811   7.516  1.3423 -0.0066  1.9265
  696MOL0     H91817   0.409   3.558   7.563  0.3302  0.3310  2.5996
  696MOL0     H91818   0.363   3.703   7.475  2.9394 -0.8018 -1.8146
  696MOL0     H91819   0.327   3.832   7.681 -2.0483 -0.2087  2.3221
  696MOL0     H91820   0.391   3.700   7.786 -2.4607  0.6727  2.0106
  696MOL0     H91821   0.141   3.735   7.618 -0.0228 -1.1945 -0.9153
  696MOL0     H91822   0.187   3.574   7.688 -0.1156 -0.1556  1.5162
  696MOL0     H91823   0.167   3.823   7.848  3.2932 -0.2589  0.7004
  696MOL0     H91824   0.197   3.657   7.906 -0.6628  1.5936  1.3570
  696MOL0     H91825  -0.024   3.496   7.788 -2.4796 -0.8804  1.7258
  696MOL0     H91826  -0.218   3.503   7.579  0.2478  0.9068 -0.6410
  696MOL0     H91827  -0.308   3.634   7.558 -1.1695 -1.5467 -1.2099
  696MOL0     H91828  -0.446   3.594   7.773 -2.2694 -2.2486  0.4357
  696MOL0     H91829  -0.351   3.448   7.797  1.6887 -0.4649 -1.0720
  696MOL0     H91830  -0.532   3.520   7.544  0.6784 -2.2165 -1.7861
  696MOL0     H91831  -0.446   3.375   7.557  2.8816  2.9335  0.1199
  696MOL0     H91832  -0.573   3.369   7.810 -1.3438 -1.4592  1.0486
  696MOL0     H91833  -0.628   3.286   7.671  2.9193  1.2839 -1.2386
  696MOL0     H91834  -0.754   3.348   7.482 -0.4491  0.6163 -0.8554
  696MOL0     H91835  -0.964   3.295   7.389 -1.3252  0.0051  0.9284
  696MOL0     H91836  -1.392   3.420   7.246  2.1446 -0.6429  0.3826
  696MOL0     H91837  -1.601   3.319   7.166 -0.4494 -1.8956 -0.8658
  696MOL0     H91838  -1.621   3.067   6.942 -1.2826  0.5138 -1.5198
  696MOL0     H91839  -1.740   3.190   7.001 -1.0306 -1.0865 -2.4746
  696MOL0     H91840  -1.880   2.995   7.067 -0.3951 -1.5789 -0.3416
  696MOL0     H91841  -1.780   2.892   6.964  2.0543  0.5275  1.2303
  696MOL0     H91842  -1.973   2.932   6.830 -2.1634  1.4120 -1.9786
  696MOL0     H91843  -1.854   3.038   6.751  0.4000  0.4229  0.8043
  696MOL0     H91844  -2.039   3.147   6.964  1.7789  3.3068 -0.0177
  696MOL0     H91845  -1.959   3.231   6.839  0.8174 -0.0498  1.4442
  696MOL0     H91846  -2.103   3.082   6.677  2.3567 -1.1586  0.8874
  696MOL0     H91847  -2.183   3.223   6.756 -1.2059 -1.0440 -1.1210
  696MOL0     H91848  -2.215   2.943   6.870 -0.4522 -0.9975 -0.1364
  696MOL0     H91849  -2.326   3.037   6.774  1.5908 -1.1092 -0.4381
  696MOL0     H91850  -2.220   3.136   7.045 -1.7611  1.8684  1.3392
  696MOL0     H91851  -2.331   3.226   6.942  3.1517  1.1470 -2.2718
  696MOL0     H91852  -2.474   3.094   7.091  1.3580 -0.4112  0.3187
  696MOL0     H91853  -2.374   2.941   7.066 -1.4677 -0.8452  1.1341
  696MOL0     H91854  -1.455   2.924   7.227 -0.8438  0.5690  1.9129
  696MOL0     H91855  -1.249   3.018   7.331 -1.6076 -1.6956  2.4041
  696MOL0     H91856  -1.152   3.570   7.656  0.2715  0.2427  1.2247
  696MOL0     H91857  -0.939   3.596   7.775 -1.8552  1.6427 -0.8962
  696MOL0     H91858   0.799   3.236   7.466 -1.9940 -0.7270 -3.4716
  696MOL0     H91859   0.949   3.040   7.478 -4.7135  2.4426  2.5871
  696MOL0     H91860   1.321   2.884   7.766  2.4079  0.1549  0.6089
  696MOL0     H91861   1.462   2.695   7.769 -0.1504 -0.2549 -0.4830
  696MOL0     H91862   1.618   2.492   7.389 -0.3893 -0.2779 -0.2085
  696MOL0     H91863   1.696   2.417   7.519  0.2841 -0.1662 -0.7641
  696MOL0     H91864   1.809   2.595   7.348 -2.0409  1.4628 -0.3864
  696MOL0     H91865   1.756   2.710   7.470  2.1041  0.2120  0.3038
  696MOL0     H91866   1.977   2.653   7.531  1.1750 -0.8663 -1.7566
  696MOL0     H91867   1.952   2.483   7.482  0.9538 -0.6970  2.0948
  696MOL0     H91868   1.857   2.427   7.695  0.0721  0.0349  0.4569
  696MOL0     H91869   2.001   2.515   7.712  0.5663  1.8634 -0.1814
  696MOL0     H91870   1.745   2.819   7.860 -1.1488 -0.1689  0.6682
  696MOL0     H91871   1.506   2.683   7.345 -0.2700 -0.2456  0.2694
  696MOL0     H91872   1.361   2.897   7.328  1.1736 -0.5721  0.4184
  697MOL0     O91873  10.840   3.127   1.442 -0.2501  0.4323 -0.2232
  697MOL0     C91874  10.798   3.101   1.552  0.4513  0.2059  1.0186
  697MOL0     O91875  10.839   3.159   1.666 -0.8836  0.3496 -0.1890
  697MOL0     C91876  10.975   3.187   1.692  0.2313 -0.2245 -0.3750
  697MOL0     C91877  11.008   3.250   1.819  1.5129  0.5932  0.1141
  697MOL0     C91878  11.140   3.271   1.852 -0.1067  0.0138 -0.3380
  697MOL0     C91879  11.245   3.257   1.765  1.0464  0.8856  0.0044
  697MOL0     O91880  11.373   3.289   1.810 -0.5267  0.5957  0.2961
  697MOL0     C91881  11.459   3.349   1.711  0.5080 -0.5918 -0.1207
  697MOL0     C91882  11.597   3.389   1.769 -0.0508  0.2618  0.6788
  697MOL0     C91883  11.597   3.527   1.831  0.3458  0.0764 -0.2348
  697MOL0     C91884  11.734   3.548   1.891  0.4070 -0.4197  0.6919
  697MOL0     C91885  11.757   3.687   1.946 -0.7469 -0.5506 -0.0072
  697MOL0     C91886  11.905   3.693   1.989 -0.0357 -1.0544  0.1891
  697MOL0     C91887  11.935   3.625   2.116 -0.0204  0.0470 -0.5337
  697MOL0     C91888  12.081   3.593   2.148  0.1822  0.2760  0.4747
  697MOL0     N91889  12.161   3.708   2.135  0.4668 -0.3129 -1.0272
  697MOL0     C91890  12.160   3.821   2.215 -0.0441 -0.3198 -0.0245
  697MOL0     C91891  12.264   3.898   2.165 -0.3280 -0.2974  1.1720
  697MOL0     C91892  12.307   4.032   2.204  0.0498 -0.0388  0.6809
  697MOL0     C91893  12.219   4.148   2.156 -0.2652  0.1652  0.2271
  697MOL0     C91894  12.068   4.134   2.172 -0.4503  0.2998 -0.2309
  697MOL0     C91895  12.008   4.151   2.310 -0.5358  0.2860  0.1298
  697MOL0     O91896  11.866   4.136   2.296 -0.2830  0.5726 -0.0622
  697MOL0     C91897  11.807   4.026   2.355 -0.4973  0.6248 -0.2112
  697MOL0     C91898  11.771   3.922   2.268 -0.4886 -0.2114 -0.3709
  697MOL0     C91899  11.679   3.817   2.302  0.4773 -0.2187  0.9498
  697MOL0     C91900  11.622   3.823   2.432 -0.0334  0.7364  0.2503
  697MOL0     C91901  11.524   3.726   2.475  0.4759  0.5874 -0.1310
  697MOL0     O91902  11.480   3.736   2.609  0.3357 -0.0152 -0.1680
  697MOL0     C91903  11.353   3.691   2.630 -0.4448 -0.4098  0.2269
  697MOL0     C91904  11.312   3.560   2.636 -1.3429 -0.2910  0.1346
  697MOL0     C91905  11.173   3.530   2.671 -0.0199 -1.0517  0.0193
  697MOL0     C91906  11.081   3.630   2.690 -0.1674 -0.4554 -0.5619
  697MOL0     O91907  10.955   3.587   2.721  0.0520  0.0010  0.2281
  697MOL0     C91908  10.874   3.670   2.811 -0.1898 -0.2220  0.4509
  697MOL0     C91909  10.737   3.677   2.750 -0.1125 -0.2137  0.0207
  697MOL0     C91910  10.728   3.777   2.630  0.2090 -0.3265 -0.1143
  697MOL0     C91911  10.584   3.804   2.593 -0.1252  0.8315  0.5011
  697MOL0     C91912  10.507   3.684   2.527  0.2622  0.2217 -0.1865
  697MOL0     C91913  10.357   3.705   2.545  0.0787  0.6441 -0.7093
  697MOL0     C91914  10.287   3.609   2.455  0.1802 -0.0378  0.4067
  697MOL0     C91915  10.144   3.634   2.474  0.5976  0.9580  0.3728
  697MOL0    Cl91916  10.084   3.790   2.418  0.5565  0.0744 -0.4311
  697MOL0     C91917  11.128   3.762   2.689 -0.0528  0.5884 -0.3878
  697MOL0     C91918  11.266   3.794   2.665 -0.9146 -0.3387  0.2114
  697MOL0     O91919  11.471   3.643   2.395 -0.6888  0.6084 -0.2936
  697MOL0     C91920  11.677   3.917   2.526  0.5261 -0.3760  0.0201
  697MOL0     C91921  11.763   4.025   2.488 -0.0870  0.9249 -0.0289
  697MOL0     N91922  12.321   3.832   2.070 -0.5602 -0.1586  1.0811
  697MOL0     N91923  12.256   3.719   2.045  0.3170  0.0669  0.3624
  697MOL0     C91924  11.217   3.185   1.644  0.3774 -0.2176  0.0343
  697MOL0     C91925  11.086   3.151   1.612  0.2094 -0.3429 -1.3548
  697MOL0     C91926  10.687   3.009   1.565  0.9201  0.3340 -0.3663
  697MOL0     C91927  10.660   2.908   1.466 -1.0671  0.7779  0.0443
  697MOL0     C91928  10.550   2.833   1.485 -0.3932  0.4498  0.3071
  697MOL0     C91929  10.463   2.828   1.596 -0.9687  0.5789  0.0411
  697MOL0     O91930  10.349   2.749   1.585  0.1204 -0.1014 -0.0402
  697MOL0     C91931  10.246   2.769   1.690 -0.4218 -0.0004 -0.0579
  697MOL0     C91932  10.152   2.653   1.699  1.0687 -0.8180  0.6959
  697MOL0     C91933  10.074   2.630   1.564  0.9441  0.0694  0.2225
  697MOL0     C91934   9.933   2.595   1.601  0.1752 -0.1996  0.0580
  697MOL0     C91935   9.915   2.449   1.580  0.3301 -0.2083  0.6295
  697MOL0     C91936   9.899   2.338   1.548 -0.3728  0.6225 -0.2665
  697MOL0     C91937  10.493   2.922   1.694 -0.5879  0.1881 -0.1880
  697MOL0     C91938  10.605   3.006   1.670 -0.5656  0.1262 -0.2683
  697MOL0     H91939  10.939   3.256   1.902  0.3835  2.0241 -0.8922
  697MOL0     H91940  11.163   3.308   1.952 -1.8929 -3.3552  1.5384
  697MOL0     H91941  11.410   3.440   1.678  1.9914  0.5018  0.5427
  697MOL0     H91942  11.479   3.278   1.630  1.2196  0.6985 -1.1115
  697MOL0     H91943  11.668   3.388   1.686 -0.2506  0.2772  0.5073
  697MOL0     H91944  11.620   3.314   1.845  0.9403  0.9237  1.0492
  697MOL0     H91945  11.513   3.525   1.902  0.3490 -1.9547 -0.2364
  697MOL0     H91946  11.561   3.615   1.776  2.8138  0.3515 -1.5578
  697MOL0     H91947  11.760   3.474   1.968  1.2835  2.2389  3.1468
  697MOL0     H91948  11.806   3.541   1.809 -0.9537 -3.0171 -0.3835
  697MOL0     H91949  11.682   3.706   2.024  0.2098  1.2647  0.5117
  697MOL0     H91950  11.752   3.760   1.864  0.3480 -2.1929 -1.6093
  697MOL0     H91951  11.928   3.799   2.006  0.4102 -1.4826  2.5855
  697MOL0     H91952  11.969   3.652   1.912 -0.4842  0.0249 -0.7973
  697MOL0     H91953  11.898   3.686   2.199  0.9550 -1.1833  0.8284
  697MOL0     H91954  11.884   3.529   2.124  1.1455 -0.4244  1.9437
  697MOL0     H91955  12.118   3.518   2.077  0.1898 -0.8672  1.6541
  697MOL0     H91956  12.088   3.536   2.241  1.0107 -0.3414  0.0512
  697MOL0     H91957  12.098   3.841   2.302  2.2780 -1.9033  2.1056
  697MOL0     H91958  12.405   4.058   2.164  0.8783 -0.3435  2.4184
  697MOL0     H91959  12.313   4.040   2.313  0.4863 -0.3930  0.6878
  697MOL0     H91960  12.227   4.154   2.047 -1.1816  2.8723  0.2473
  697MOL0     H91961  12.264   4.240   2.194  1.5802 -1.2770  1.7509
  697MOL0     H91962  12.033   4.223   2.118  0.1234  3.1545  3.6722
  697MOL0     H91963  12.025   4.047   2.121 -0.3287 -0.2724  0.6228
  697MOL0     H91964  12.024   4.249   2.356  0.7049 -0.8155  2.2366
  697MOL0     H91965  12.039   4.072   2.380  1.7002  1.0709  0.0942
  697MOL0     H91966  11.801   3.918   2.164 -3.2060 -0.7651 -1.2043
  697MOL0     H91967  11.647   3.750   2.223  1.0130 -0.3072  0.8037
  697MOL0     H91968  11.386   3.485   2.607 -0.8287 -0.1117  0.9779
  697MOL0     H91969  11.157   3.424   2.683  0.3433 -1.1372 -0.2424
  697MOL0     H91970  10.921   3.767   2.830 -0.4256  0.0874 -0.5038
  697MOL0     H91971  10.853   3.615   2.903 -0.0501 -1.7381 -0.3821
  697MOL0     H91972  10.679   3.723   2.831 -1.6308  2.0357 -2.1650
  697MOL0     H91973  10.688   3.582   2.727 -1.1199  0.6553 -1.6203
  697MOL0     H91974  10.767   3.732   2.538  2.3994  2.8221 -0.9025
  697MOL0     H91975  10.792   3.866   2.633  1.5677 -1.3028  1.9577
  697MOL0     H91976  10.536   3.827   2.688  2.5071  3.0071  1.4527
  697MOL0     H91977  10.562   3.889   2.527 -1.1424 -1.2284 -1.9828
  697MOL0     H91978  10.538   3.586   2.563  4.7771  0.7449 -1.9856
  697MOL0     H91979  10.524   3.698   2.420 -4.8283  2.2756 -1.0471
  697MOL0     H91980  10.329   3.809   2.527  1.2094  0.6562 -2.7303
  697MOL0     H91981  10.342   3.684   2.651  3.8808  2.7687  0.4238
  697MOL0     H91982  10.307   3.632   2.350 -0.5311  4.1385  1.0236
  697MOL0     H91983  10.301   3.503   2.476  1.4854 -0.1983 -1.0938
  697MOL0     H91984  10.122   3.629   2.581 -2.4706  1.1126 -0.1623
  697MOL0     H91985  10.079   3.562   2.423 -0.1652  2.4852 -0.8742
  697MOL0     H91986  11.053   3.838   2.711 -1.9082 -1.5876  1.3377
  697MOL0     H91987  11.308   3.894   2.664 -0.0873 -0.6776 -1.0246
  697MOL0     H91988  11.625   3.920   2.621 -1.7170 -0.6973 -1.1114
  697MOL0     H91989  11.791   4.115   2.541  2.0503  2.0094 -2.7275
  697MOL0     H91990  11.302   3.169   1.578  0.6341  0.6732  0.1391
  697MOL0     H91991  11.077   3.100   1.517 -0.2178  1.6327 -2.4168
  697MOL0     H91992  10.718   2.895   1.375  1.2316  0.1138  1.5144
  697MOL0     H91993  10.547   2.769   1.397  2.5811  2.7872 -1.7280
  697MOL0     H91994  10.191   2.861   1.672 -1.2090 -0.2795  0.8557
  697MOL0     H91995  10.286   2.783   1.791  1.1908  1.1755 -0.8123
  697MOL0     H91996  10.205   2.561   1.726 -3.6623 -3.7530  1.2611
  697MOL0     H91997  10.087   2.676   1.784  0.4020  0.8834 -0.2358
  697MOL0     H91998  10.130   2.557   1.506 -2.3824 -2.6933  0.1980
  697MOL0     H91999  10.060   2.724   1.510  0.4558  0.2297  0.6106
  697MOL0     H92000   9.906   2.604   1.707 -0.5006 -1.5589  0.0298
  697MOL0     H92001   9.860   2.654   1.546  0.4670 -0.9118 -1.1467
  697MOL0     H92002   9.886   2.238   1.512  0.1327  1.5460 -3.2535
  697MOL0     H92003  10.427   2.944   1.778  0.8391 -0.2466  1.0768
  697MOL0     H92004  10.626   3.072   1.754 -0.4935  2.7775 -2.2462
  698MOL0     O92005   9.882   8.939   0.754 -0.1594 -0.2514  0.4886
  698MOL0     C92006   9.864   8.985   0.860 -0.2303  0.0142  0.6361
  698MOL0     O92007   9.770   8.938   0.948 -0.3741  0.0548 -0.0400
  698MOL0     C92008   9.697   8.827   0.913 -0.2769  0.5572 -0.0310
  698MOL0     C92009   9.701   8.712   0.999  0.4340 -0.4842 -0.4401
  698MOL0     C92010   9.646   8.598   0.951  0.0986 -0.3102  0.8048
  698MOL0     C92011   9.550   8.599   0.847  0.2098 -0.0750 -0.6632
  698MOL0     O92012   9.491   8.475   0.815  0.5437 -0.8328  0.3926
  698MOL0     C92013   9.376   8.451   0.894  0.4153  0.6138 -0.9208
  698MOL0     C92014   9.282   8.337   0.857 -0.3399 -0.4601  0.0403
  698MOL0     C92015   9.376   8.214   0.840  0.2204  0.0126 -0.3179
  698MOL0     C92016   9.312   8.110   0.755 -0.0984  0.6049 -0.7804
  698MOL0     C92017   9.403   7.994   0.736  0.0084 -0.1689  0.1956
  698MOL0     C92018   9.535   8.004   0.660 -0.4854  0.3623  0.3998
  698MOL0     C92019   9.539   7.905   0.543 -1.0848  0.2423  0.5543
  698MOL0     C92020   9.599   7.763   0.575 -0.0377 -0.4185 -0.1906
  698MOL0     N92021   9.502   7.645   0.582  0.1841  0.5413 -0.1930
  698MOL0     C92022   9.410   7.614   0.681 -0.7810  0.3558  0.2753
  698MOL0     C92023   9.338   7.517   0.630  0.7033 -0.2820 -0.0191
  698MOL0     C92024   9.225   7.440   0.689  0.5172  0.1489  0.5884
  698MOL0     C92025   9.085   7.477   0.636  0.0188  0.3630  0.6020
  698MOL0     C92026   9.036   7.612   0.681  0.3266 -0.3949 -0.3315
  698MOL0     C92027   8.883   7.614   0.681 -0.5807  0.0880 -0.8194
  698MOL0     O92028   8.845   7.577   0.544  0.8570 -0.1790 -0.1653
  698MOL0     C92029   8.712   7.612   0.518 -0.9973 -0.9055 -0.1710
  698MOL0     C92030   8.615   7.519   0.545  0.9595 -0.2195  0.2156
  698MOL0     C92031   8.479   7.540   0.512 -0.7264  0.0134 -0.0794
  698MOL0     C92032   8.447   7.662   0.457 -0.5307 -0.3496  0.9736
  698MOL0     C92033   8.309   7.686   0.413  0.7110 -0.6359 -0.6555
  698MOL0     O92034   8.225   7.572   0.410 -0.0827  0.1705  1.1378
  698MOL0     C92035   8.084   7.584   0.385 -0.3483 -0.1022 -0.0352
  698MOL0     C92036   8.032   7.505   0.279  0.1919  1.2362 -0.7020
  698MOL0     C92037   7.886   7.489   0.259 -0.3331 -0.9530 -0.0223
  698MOL0     C92038   7.811   7.573   0.331  0.5465  0.1144 -0.5679
  698MOL0     O92039   7.673   7.564   0.331 -0.3340  0.1955 -0.1772
  698MOL0     C92040   7.619   7.429   0.324  0.2572 -0.7625  0.5544
  698MOL0     C92041   7.473   7.436   0.343  0.0149  0.6441  0.4039
  698MOL0     C92042   7.427   7.475   0.481 -0.1983  0.1136 -0.0856
  698MOL0     C92043   7.272   7.510   0.476 -0.3158  0.5326 -0.1035
  698MOL0     C92044   7.187   7.467   0.603 -0.6259 -0.6436 -0.0325
  698MOL0     C92045   7.183   7.311   0.647  0.0925  0.0545 -0.5397
  698MOL0     C92046   7.100   7.224   0.549 -0.0697 -0.4812  0.1002
  698MOL0     C92047   7.110   7.079   0.582 -0.2575 -0.0321  0.1816
  698MOL0    Cl92048   7.037   7.031   0.731 -0.9916 -0.5956  0.1167
  698MOL0     C92049   7.864   7.671   0.422  0.1025 -0.4250  0.9167
  698MOL0     C92050   7.998   7.674   0.446 -0.2609 -0.0556 -0.8757
  698MOL0     O92051   8.272   7.808   0.396 -0.3528  0.0198  0.3355
  698MOL0     C92052   8.544   7.757   0.435 -0.3559  0.0609 -0.1160
  698MOL0     C92053   8.675   7.742   0.464  1.6256 -0.6313 -0.3249
  698MOL0     N92054   9.387   7.480   0.510 -0.9102  0.1171  0.0923
  698MOL0     N92055   9.483   7.562   0.480  0.2971 -0.7251  0.3603
  698MOL0     C92056   9.535   8.718   0.776  0.7000  0.3559 -0.5988
  698MOL0     C92057   9.619   8.829   0.798  0.0833  0.4375  1.0262
  698MOL0     C92058   9.949   9.110   0.899 -0.4625 -0.6797 -0.7122
  698MOL0     C92059  10.050   9.162   0.825  0.3017 -1.0288 -0.4057
  698MOL0     C92060  10.140   9.256   0.879 -0.6179  0.1043  0.5691
  698MOL0     C92061  10.108   9.324   0.996  1.1018 -0.3645 -0.6633
  698MOL0     O92062  10.191   9.419   1.047 -0.4090 -0.6853  0.4983
  698MOL0     C92063  10.232   9.529   0.956  0.6670  0.5233 -0.2489
  698MOL0     C92064  10.157   9.646   1.000  0.1403  0.3671 -0.0398
  698MOL0     C92065  10.203   9.780   0.940  0.3445  0.8013  0.3050
  698MOL0     C92066  10.280   9.787   0.812 -0.5507  0.1888 -0.9595
  698MOL0     C92067  10.428   9.790   0.843  0.7094 -0.4030 -0.7558
  698MOL0     C92068  10.543   9.788   0.888 -0.6708  0.8328 -0.4602
  698MOL0     C92069  10.000   9.282   1.082 -0.0629  0.8362  0.3973
  698MOL0     C92070   9.921   9.179   1.021  0.5912  1.5717  1.0392
  698MOL0     H92071   9.775   8.702   1.078  1.0968 -2.0293 -1.2062
  698MOL0     H92072   9.674   8.510   1.008  0.8392 -0.6575 -0.0739
  698MOL0     H92073   9.317   8.540   0.913 -0.0279  0.0545  0.4275
  698MOL0     H92074   9.412   8.424   0.994 -1.9276 -1.9542 -0.6576
  698MOL0     H92075   9.226   8.370   0.770 -0.3782  1.1986  0.6661
  698MOL0     H92076   9.222   8.325   0.947 -0.5702  1.7430  0.2152
  698MOL0     H92077   9.404   8.166   0.935 -0.6702 -0.4558 -0.2775
  698MOL0     H92078   9.468   8.250   0.793 -0.0355 -1.6230 -2.2121
  698MOL0     H92079   9.229   8.062   0.807  0.6292  0.4950  0.3028
  698MOL0     H92080   9.286   8.135   0.651  1.0239 -0.7554 -1.4305
  698MOL0     H92081   9.340   7.915   0.692 -0.5584  0.6085 -0.4125
  698MOL0     H92082   9.425   7.953   0.835 -0.7793 -0.4343  0.2705
  698MOL0     H92083   9.622   7.980   0.722 -0.8595  2.4869  1.8510
  698MOL0     H92084   9.559   8.095   0.604 -0.6258  0.4718  0.5176
  698MOL0     H92085   9.444   7.885   0.492  0.4768 -1.5393 -1.8759
  698MOL0     H92086   9.610   7.944   0.470 -0.0811 -3.2610 -0.5424
  698MOL0     H92087   9.659   7.764   0.666  1.1288  0.8594 -0.9349
  698MOL0     H92088   9.675   7.739   0.499  0.1818 -2.8250  0.6876
  698MOL0     H92089   9.382   7.677   0.764 -3.8218  4.6981 -3.4874
  698MOL0     H92090   9.223   7.441   0.798 -1.7288  0.3483  0.6038
  698MOL0     H92091   9.241   7.339   0.651 -1.3566 -0.6001  1.6634
  698MOL0     H92092   8.997   7.415   0.658 -0.0314  0.4000  0.5082
  698MOL0     H92093   9.094   7.486   0.527 -1.5741  3.4297  0.6241
  698MOL0     H92094   9.071   7.641   0.780 -3.2586 -3.4789  2.1041
  698MOL0     H92095   9.078   7.681   0.606  1.8344 -3.0959 -2.1437
  698MOL0     H92096   8.842   7.711   0.711 -1.1502  0.0306 -1.3956
  698MOL0     H92097   8.841   7.548   0.758 -1.2665  1.6622  0.1891
  698MOL0     H92098   8.633   7.425   0.596  1.2937 -0.2488  0.0441
  698MOL0     H92099   8.407   7.459   0.519  0.5282 -1.1617 -0.4372
  698MOL0     H92100   8.109   7.444   0.235  2.5208  2.6752  1.1215
  698MOL0     H92101   7.846   7.406   0.202 -0.1037 -1.8688  1.1110
  698MOL0     H92102   7.657   7.359   0.399  3.5573 -0.3043 -0.5244
  698MOL0     H92103   7.634   7.400   0.219 -1.2707  2.1003 -0.5866
  698MOL0     H92104   7.423   7.357   0.286  0.5154  1.8585 -1.8670
  698MOL0     H92105   7.450   7.524   0.281  1.1730  2.1933  2.0591
  698MOL0     H92106   7.481   7.568   0.504  0.1037 -0.0096 -0.2892
  698MOL0     H92107   7.442   7.392   0.550 -0.4584  0.0055 -0.1565
  698MOL0     H92108   7.256   7.616   0.459  0.2661  0.7760  0.7888
  698MOL0     H92109   7.230   7.451   0.394 -2.9881 -2.2200  2.9718
  698MOL0     H92110   7.086   7.509   0.599 -0.8774 -1.3360 -2.3514
  698MOL0     H92111   7.242   7.510   0.687  1.5509 -3.3234  0.0500
  698MOL0     H92112   7.131   7.299   0.743  1.9401 -5.2282  0.1523
  698MOL0     H92113   7.287   7.278   0.652 -0.7322 -3.0350 -1.8026
  698MOL0     H92114   6.996   7.254   0.555 -1.3587 -4.0016 -1.6786
  698MOL0     H92115   7.127   7.238   0.444 -3.6117 -1.3036 -1.0286
  698MOL0     H92116   7.213   7.044   0.593 -0.0067  0.6615  0.0495
  698MOL0     H92117   7.066   7.022   0.500 -1.0654 -0.0413  0.6126
  698MOL0     H92118   7.783   7.731   0.463 -1.3327 -0.9970 -0.9707
  698MOL0     H92119   8.047   7.750   0.507  2.3749 -0.0825 -2.7854
  698MOL0     H92120   8.514   7.853   0.395 -0.1371 -0.1317 -0.7483
  698MOL0     H92121   8.746   7.822   0.446 -0.8559  1.8203  0.1384
  698MOL0     H92122   9.469   8.716   0.689  1.4293  3.8590 -1.3493
  698MOL0     H92123   9.627   8.926   0.751  1.0123  1.7808  3.7098
  698MOL0     H92124  10.062   9.117   0.727 -0.0170  0.4572 -1.1536
  698MOL0     H92125  10.225   9.296   0.826  0.6960 -0.0778  2.4597
  698MOL0     H92126  10.215   9.505   0.850  0.4387 -4.0728  0.6061
  698MOL0     H92127  10.339   9.543   0.969  1.0142  1.3759 -3.2508
  698MOL0     H92128  10.051   9.621   0.988  0.8153 -2.6242 -0.6202
  698MOL0     H92129  10.180   9.654   1.107 -0.9181  2.4704  0.0825
  698MOL0     H92130  10.249   9.847   1.013  0.6888 -0.6866  1.5020
  698MOL0     H92131  10.114   9.840   0.917  0.4345  0.9563  0.3521
  698MOL0     H92132  10.254   9.706   0.743 -0.7624  0.1460 -0.8318
  698MOL0     H92133  10.260   9.875   0.750 -0.6621 -0.5883 -2.0570
  698MOL0     H92134  10.637   9.776   0.938 -1.9602 -2.9967  1.4579
  698MOL0     H92135   9.986   9.330   1.178  0.2765  1.6943  0.0368
  698MOL0     H92136   9.836   9.145   1.080 -2.9418  0.4889 -3.9930
  699MOL0     O92137   6.534  10.570   0.221  0.6410  0.3550 -0.5246
  699MOL0     C92138   6.547  10.497   0.128  0.3759  0.8506  0.5118
  699MOL0     O92139   6.454  10.483   0.023 -0.9340 -0.7561 -0.4278
  699MOL0     C92140   6.338  10.547   0.048 -0.0403 -0.2869  0.4001
  699MOL0     C92141   6.256  10.533   0.162 -0.7558 -0.1798  0.2732
  699MOL0     C92142   6.126  10.592   0.158  0.2247 -0.1897 -0.4471
  699MOL0     C92143   6.066  10.644   0.052  0.8747 -0.1969  1.5775
  699MOL0     O92144   5.933  10.680   0.064 -0.8486  0.2335  0.3152
  699MOL0     C92145   5.914  10.812   0.124 -0.3140 -0.1442 -0.0925
  699MOL0     C92146   5.794  10.820   0.219 -0.2112  0.8582 -0.1252
  699MOL0     C92147   5.693  10.922   0.166 -0.8846  0.2452  0.2052
  699MOL0     C92148   5.580  10.923   0.262  0.1239 -0.5697 -0.0006
  699MOL0     C92149   5.469  11.021   0.228  0.3498  0.4737 -0.1133
  699MOL0     C92150   5.528  11.157   0.204  0.1762  0.2445 -0.4507
  699MOL0     C92151   5.419  11.273   0.198 -0.8617 -0.3690 -0.8000
  699MOL0     C92152   5.362  11.309   0.339 -0.2287  0.9918  0.4084
  699MOL0     N92153   5.258  11.410   0.339  0.3129  1.0666 -0.5371
  699MOL0     C92154   5.208  11.491   0.238 -0.3452  0.3092 -0.8617
  699MOL0     C92155   5.106  11.559   0.303  0.0037 -0.1222  0.1680
  699MOL0     C92156   5.005  11.658   0.255 -0.1259  0.1617  0.0113
  699MOL0     C92157   5.035  11.715   0.120 -0.6994 -0.2805  0.6499
  699MOL0     C92158   4.943  11.818   0.066 -0.0049  0.7926 -0.3426
  699MOL0     C92159   4.838  11.758  -0.030  0.3015  0.0430  0.4616
  699MOL0     O92160   4.754  11.869  -0.051 -0.7464  0.4020  0.4229
  699MOL0     C92161   4.685  11.852  -0.166  0.2907  0.0537  0.8050
  699MOL0     C92162   4.678  11.965  -0.251  0.3881  0.7309 -0.9206
  699MOL0     C92163   4.601  11.956  -0.369  0.0021  0.8985 -0.4020
  699MOL0     C92164   4.516  11.849  -0.386  0.2704  1.2304 -0.1481
  699MOL0     C92165   4.401  11.863  -0.485  0.9280  0.3854  0.0222
  699MOL0     O92166   4.402  11.959  -0.583  0.3511 -0.4140  0.4805
  699MOL0     C92167   4.308  11.962  -0.679  1.0736 -0.4560  0.5469
  699MOL0     C92168   4.260  12.082  -0.730 -0.2622 -0.2750  0.9115
  699MOL0     C92169   4.176  12.082  -0.840 -0.0524 -0.6809 -0.0334
  699MOL0     C92170   4.131  11.967  -0.894  0.0246  0.0044 -0.1740
  699MOL0     O92171   4.039  11.956  -0.985  0.7839  0.5718  0.5737
  699MOL0     C92172   3.956  12.069  -1.020  0.1761  0.6560 -0.6027
  699MOL0     C92173   3.840  12.020  -1.098 -0.2105  0.6152 -0.3166
  699MOL0     C92174   3.729  12.126  -1.099  0.2507 -0.7500  0.2351
  699MOL0     C92175   3.625  12.064  -1.179  0.0544  0.4719  0.1401
  699MOL0     C92176   3.547  12.181  -1.243  0.6351  0.2622  0.3790
  699MOL0     C92177   3.475  12.128  -1.370 -0.1147 -0.3077 -0.6649
  699MOL0     C92178   3.384  12.009  -1.345 -0.4159 -0.4820 -0.2158
  699MOL0     C92179   3.262  12.040  -1.255  0.2252 -0.4862 -0.3971
  699MOL0    Cl92180   3.203  11.910  -1.147  0.2374 -0.2141 -0.1396
  699MOL0     C92181   4.171  11.845  -0.839 -0.3059 -1.7276  0.4860
  699MOL0     C92182   4.261  11.849  -0.738 -0.2508  0.6756 -0.3627
  699MOL0     O92183   4.307  11.785  -0.466 -0.5246  0.0945 -0.6158
  699MOL0     C92184   4.518  11.742  -0.293 -0.1298  0.7184  0.3219
  699MOL0     C92185   4.611  11.734  -0.194 -0.0120  0.0951  0.5680
  699MOL0     N92186   5.109  11.526   0.441  0.3149  0.0600  0.5006
  699MOL0     N92187   5.198  11.436   0.460 -0.0689  0.3078 -0.6083
  699MOL0     C92188   6.138  10.644  -0.067 -0.1132  0.3481 -0.4150
  699MOL0     C92189   6.277  10.603  -0.067  0.3294 -0.3217 -1.1292
  699MOL0     C92190   6.688  10.451   0.097 -0.4449 -0.0297 -0.0297
  699MOL0     C92191   6.721  10.401  -0.031  0.8469  0.4858 -0.9906
  699MOL0     C92192   6.856  10.372  -0.067  0.0461 -1.1279  0.0308
  699MOL0     C92193   6.961  10.382   0.028  0.0886 -0.5318 -0.5564
  699MOL0     O92194   7.093  10.370   0.009 -0.8400 -0.3799 -1.5159
  699MOL0     C92195   7.141  10.314  -0.112 -0.5305 -0.5335 -0.0201
  699MOL0     C92196   7.282  10.252  -0.112 -0.3235 -1.3953 -0.8025
  699MOL0     C92197   7.329  10.216  -0.254  0.3271 -0.0822  0.1412
  699MOL0     C92198   7.435  10.104  -0.259  0.5270  0.1766 -0.5149
  699MOL0     C92199   7.417   9.993  -0.170 -0.2353  0.3512 -0.1234
  699MOL0     C92200   7.423   9.888  -0.108  0.6083  0.3743 -0.1716
  699MOL0     C92201   6.924  10.414   0.153  0.4772 -0.2650 -0.7472
  699MOL0     C92202   6.797  10.455   0.187  0.1306 -0.4709 -0.8756
  699MOL0     H92203   6.283  10.470   0.246 -1.5586  0.1532  0.7982
  699MOL0     H92204   6.065  10.574   0.246 -0.3399  1.7888 -0.3802
  699MOL0     H92205   5.902  10.892   0.051 -0.5707  0.0479  0.1558
  699MOL0     H92206   5.997  10.837   0.191  0.9425 -2.7589 -0.5298
  699MOL0     H92207   5.835  10.860   0.312 -2.0940  1.3888  0.5254
  699MOL0     H92208   5.738  10.731   0.247 -4.1374  3.4091  1.0635
  699MOL0     H92209   5.667  10.877   0.070 -0.4231 -1.1588  0.7150
  699MOL0     H92210   5.746  11.018   0.159 -0.9598  0.4042  1.5350
  699MOL0     H92211   5.540  10.821   0.269 -3.0103  0.5047 -0.7073
  699MOL0     H92212   5.620  10.947   0.361  1.7805 -1.9994 -0.2485
  699MOL0     H92213   5.420  11.021   0.326  2.5775  1.1613  1.0800
  699MOL0     H92214   5.399  10.988   0.151 -1.1193 -0.4527  1.5268
  699MOL0     H92215   5.569  11.157   0.103  0.7677 -1.3005 -0.2299
  699MOL0     H92216   5.613  11.182   0.269  0.4144 -3.0639  0.6704
  699MOL0     H92217   5.477  11.361   0.168  0.4124 -0.7308  0.4650
  699MOL0     H92218   5.344  11.251   0.123 -0.2876 -0.9728 -1.2022
  699MOL0     H92219   5.434  11.331   0.419 -1.2072  1.0781  1.2898
  699MOL0     H92220   5.315  11.218   0.377  0.6964  0.3389  0.0326
  699MOL0     H92221   5.217  11.492   0.130  1.4781  1.2454 -0.7493
  699MOL0     H92222   5.000  11.741   0.326  0.8844  0.6243 -0.4334
  699MOL0     H92223   4.906  11.612   0.262  0.7309 -2.4047 -2.5624
  699MOL0     H92224   5.030  11.627   0.055 -2.2523  0.8961 -0.8968
  699MOL0     H92225   5.133  11.761   0.101 -0.8667  1.7889  3.9888
  699MOL0     H92226   4.904  11.864   0.158  0.3102 -3.4139  2.1423
  699MOL0     H92227   4.990  11.899   0.009 -0.2287  0.8091 -0.5071
  699MOL0     H92228   4.786  11.679   0.024 -0.1763  0.3900  0.5137
  699MOL0     H92229   4.887  11.717  -0.119 -2.1140  1.5742 -1.7047
  699MOL0     H92230   4.746  12.044  -0.222  0.3137 -0.3919  2.8976
  699MOL0     H92231   4.597  12.045  -0.431  0.9955  2.0459  1.1009
  699MOL0     H92232   4.288  12.183  -0.699 -3.0086  1.0925 -0.6601
  699MOL0     H92233   4.136  12.175  -0.879 -1.6102 -0.9982  0.7435
  699MOL0     H92234   4.007  12.137  -1.088  0.0273  1.8933  0.4840
  699MOL0     H92235   3.925  12.124  -0.930  2.4029 -1.3410  1.5550
  699MOL0     H92236   3.813  11.928  -1.045  3.6396 -0.6540 -0.2905
  699MOL0     H92237   3.873  11.999  -1.200 -0.1683 -1.9108  0.1576
  699MOL0     H92238   3.778  12.218  -1.131  0.5009 -0.2162  2.0577
  699MOL0     H92239   3.695  12.143  -0.996 -2.5722 -0.2677 -0.6762
  699MOL0     H92240   3.658  11.997  -1.258 -0.5629  1.7263 -1.2313
  699MOL0     H92241   3.559  12.010  -1.110  2.3169 -0.3067  1.8117
  699MOL0     H92242   3.612  12.267  -1.261 -3.3157  3.6168  0.7884
  699MOL0     H92243   3.473  12.228  -1.178  0.4666  1.3051 -0.5345
  699MOL0     H92244   3.546  12.094  -1.446  2.4573 -2.7611  2.5328
  699MOL0     H92245   3.417  12.206  -1.422 -0.8030 -0.9458 -0.8759
  699MOL0     H92246   3.336  11.994  -1.442 -2.3562 -1.2336  0.8004
  699MOL0     H92247   3.439  11.921  -1.310  1.2691 -0.1305 -1.8230
  699MOL0     H92248   3.174  12.054  -1.318 -1.0986  2.5138  1.8869
  699MOL0     H92249   3.270  12.139  -1.209 -3.4354 -0.2128 -0.0700
  699MOL0     H92250   4.134  11.753  -0.882 -2.5834 -1.2218  1.2414
  699MOL0     H92251   4.297  11.752  -0.706  2.1647  1.3524 -0.8107
  699MOL0     H92252   4.439  11.670  -0.309  0.1637  0.5051 -0.1836
  699MOL0     H92253   4.617  11.645  -0.133  1.8098  1.3809  2.4000
  699MOL0     H92254   6.096  10.672  -0.164 -0.7632 -0.7702 -0.4725
  699MOL0     H92255   6.329  10.613  -0.162  1.6333 -3.8639 -0.9511
  699MOL0     H92256   6.639  10.382  -0.101 -1.5164 -1.1787  1.9896
  699MOL0     H92257   6.859  10.346  -0.172 -1.4017 -1.6734  0.0941
  699MOL0     H92258   7.150  10.400  -0.180  1.6105 -0.6412  0.0586
  699MOL0     H92259   7.071  10.241  -0.152  1.6765 -4.4511  2.6105
  699MOL0     H92260   7.353  10.319  -0.065 -0.5940 -2.6968  1.6234
  699MOL0     H92261   7.272  10.164  -0.048  0.4791 -0.5977  0.4577
  699MOL0     H92262   7.355  10.311  -0.300  0.1221 -0.5759 -1.0205
  699MOL0     H92263   7.245  10.176  -0.312  0.5877 -1.3472  0.5875
  699MOL0     H92264   7.431  10.060  -0.359  1.5064 -0.3073 -0.3598
  699MOL0     H92265   7.535  10.149  -0.250 -0.5086  2.1340  2.6312
  699MOL0     H92266   7.435   9.790  -0.067 -1.1947  0.1848 -0.0184
  699MOL0     H92267   6.989  10.418   0.241  1.0671 -1.1441 -1.1308
  699MOL0     H92268   6.778  10.491   0.287  2.4462 -2.0671  0.2090
  700MOL0     O92269  10.410   2.160  10.703 -0.2298  0.7079 -0.5434
  700MOL0     C92270  10.396   2.108  10.594 -0.2145 -0.3805  0.2687
  700MOL0     O92271  10.284   2.047  10.542 -0.5679 -0.2526 -0.5661
  700MOL0     C92272  10.162   2.051  10.600 -0.2489  0.0142  0.0935
  700MOL0     C92273  10.113   2.114  10.723  0.3999 -0.3291  0.3481
  700MOL0     C92274   9.983   2.093  10.770 -0.5850 -0.1725  0.0195
  700MOL0     C92275   9.895   2.008  10.699  0.0926  0.0292  0.8559
  700MOL0     O92276   9.775   1.989  10.748  0.7833 -0.7205 -0.3300
  700MOL0     C92277   9.680   2.096  10.741  0.8920  0.1450  0.3363
  700MOL0     C92278   9.597   2.086  10.603 -0.0525 -0.3124  0.3112
  700MOL0     C92279   9.476   2.177  10.619 -0.8900 -0.1909 -0.5981
  700MOL0     C92280   9.381   2.163  10.512  0.3835 -0.6581  0.4561
  700MOL0     C92281   9.267   2.263  10.521 -0.5354  0.1423 -0.9696
  700MOL0     C92282   9.148   2.238  10.418  0.3714  0.1727  0.5882
  700MOL0     C92283   9.174   2.225  10.273  0.0695  0.0166  0.2757
  700MOL0     C92284   9.277   2.332  10.225 -0.2985 -0.6020 -0.6716
  700MOL0     N92285   9.223   2.469  10.222  0.4106 -1.2533  0.3120
  700MOL0     C92286   9.115   2.525  10.151  0.2297 -0.3831 -0.5657
  700MOL0     C92287   9.106   2.651  10.193  0.1065  0.0703  0.1735
  700MOL0     C92288   9.009   2.755  10.138 -0.0342  0.2877 -1.0021
  700MOL0     C92289   8.889   2.763  10.235 -0.5479  0.1491  0.4371
  700MOL0     C92290   8.789   2.860  10.163 -0.2798 -0.0216 -0.0902
  700MOL0     C92291   8.711   2.784  10.053  0.2169  1.6009 -0.7911
  700MOL0     O92292   8.609   2.703  10.116 -0.2215  0.3542  1.5897
  700MOL0     C92293   8.488   2.755  10.148 -1.0435  0.2850 -1.0227
  700MOL0     C92294   8.453   2.779  10.282  0.0282 -0.2761  0.1608
  700MOL0     C92295   8.330   2.813  10.331 -0.4194 -0.8747  0.0963
  700MOL0     C92296   8.221   2.814  10.238 -0.2443 -0.3844  0.5251
  700MOL0     C92297   8.073   2.867  10.278  0.5332  0.0263  0.1322
  700MOL0     O92298   8.045   2.886  10.413  0.5072 -0.8244  0.9177
  700MOL0     C92299   7.917   2.902  10.439  0.3685 -0.1909  0.0726
  700MOL0     C92300   7.887   3.017  10.514  0.5140  0.2305  0.4167
  700MOL0     C92301   7.757   3.040  10.552 -0.3418 -0.2027  0.9210
  700MOL0     C92302   7.650   2.951  10.515 -0.5126  0.5306  0.3351
  700MOL0     O92303   7.519   2.970  10.560  0.9191  0.8929  0.0737
  700MOL0     C92304   7.503   3.046  10.680  0.3442 -0.5291 -0.3060
  700MOL0     C92305   7.371   3.001  10.746 -0.4937  0.5741 -0.1514
  700MOL0     C92306   7.383   3.045  10.901  0.4552 -0.0405  1.2683
  700MOL0     C92307   7.249   3.051  10.980 -1.1444 -0.2522  0.5131
  700MOL0     C92308   7.167   3.188  10.977  1.0714 -0.9578 -1.0663
  700MOL0     C92309   7.142   3.254  10.845  0.1679 -0.2886  0.3114
  700MOL0     C92310   7.045   3.378  10.873 -0.7115  0.9659  0.5779
  700MOL0     C92311   6.894   3.337  10.877  0.1670 -0.1537  0.2244
  700MOL0    Cl92312   6.813   3.503  10.842  0.0060 -0.3379 -0.5211
  700MOL0     C92313   7.682   2.841  10.439 -0.5348 -0.3293  0.1721
  700MOL0     C92314   7.815   2.811  10.406 -0.3317 -0.4660  0.5579
  700MOL0     O92315   8.004   2.911  10.186 -0.6132 -0.3712 -0.0387
  700MOL0     C92316   8.250   2.784  10.099 -1.2162  0.3368  0.1357
  700MOL0     C92317   8.383   2.749  10.060  0.0476 -0.7710  0.7779
  700MOL0     N92318   9.192   2.669  10.297  0.7190  0.3521  0.3952
  700MOL0     N92319   9.264   2.567  10.310  0.4816  0.5846 -0.1475
  700MOL0     C92320   9.939   1.948  10.577 -0.2449 -0.2866 -0.2040
  700MOL0     C92321  10.072   1.973  10.527  0.3321 -0.4995  0.2472
  700MOL0     C92322  10.515   2.104  10.505 -0.8522  0.3388 -0.8319
  700MOL0     C92323  10.504   2.063  10.370 -0.0675  0.5480 -0.4894
  700MOL0     C92324  10.610   2.078  10.282  1.0271 -1.0240  0.0864
  700MOL0     C92325  10.721   2.143  10.327 -0.6558  0.2403  0.2191
  700MOL0     O92326  10.818   2.155  10.229 -0.2412  0.2138 -0.1064
  700MOL0     C92327  10.958   2.138  10.272 -0.6084 -0.5437  0.2366
  700MOL0     C92328  11.037   2.176  10.149 -0.0718  0.1449  0.1967
  700MOL0     C92329  11.060   2.326  10.123 -1.3719 -0.6971  0.8176
  700MOL0     C92330  11.161   2.352  10.003 -0.2437  0.1703  0.0115
  700MOL0     C92331  11.100   2.305   9.882 -0.5964 -0.8271  0.5224
  700MOL0     C92332  11.058   2.283   9.772  0.5415  0.5724  0.0183
  700MOL0     C92333  10.732   2.177  10.459 -0.1136  0.5324  0.4555
  700MOL0     C92334  10.636   2.151  10.554 -0.9417  0.1469  0.0509
  700MOL0     H92335  10.175   2.180  10.783  0.2768 -2.7627  3.4017
  700MOL0     H92336   9.956   2.148  10.859 -0.3966  4.2994 -2.4291
  700MOL0     H92337   9.726   2.195  10.755  1.4635 -0.2007  0.9400
  700MOL0     H92338   9.618   2.081  10.829 -0.0769 -1.6218 -0.5911
  700MOL0     H92339   9.564   1.983  10.582  1.7914 -0.9635  0.4341
  700MOL0     H92340   9.662   2.124  10.524 -0.8809  0.3792 -0.0493
  700MOL0     H92341   9.509   2.281  10.614 -3.0270  0.5276 -0.6769
  700MOL0     H92342   9.424   2.165  10.715 -0.8135  2.6177 -0.1039
  700MOL0     H92343   9.432   2.176  10.416 -0.7641  2.5676  0.1705
  700MOL0     H92344   9.342   2.061  10.520  0.4371 -0.8042 -0.9271
  700MOL0     H92345   9.313   2.361  10.507 -1.2784  0.7496  0.6384
  700MOL0     H92346   9.237   2.248  10.625 -0.9589 -1.0586 -1.2419
  700MOL0     H92347   9.077   2.319  10.437 -0.0063 -0.1473  0.5593
  700MOL0     H92348   9.100   2.142  10.442  0.2133 -0.2508 -1.2883
  700MOL0     H92349   9.227   2.130  10.265 -0.7592 -0.5757  1.6527
  700MOL0     H92350   9.076   2.221  10.224 -0.8815 -0.6081  2.1498
  700MOL0     H92351   9.321   2.314  10.127  1.3599 -2.6273  0.3855
  700MOL0     H92352   9.363   2.328  10.292 -0.2744  1.2036 -0.5544
  700MOL0     H92353   9.041   2.471  10.094  1.2655 -2.6620  0.1129
  700MOL0     H92354   8.984   2.731  10.034 -1.4316 -0.6338 -0.4774
  700MOL0     H92355   9.050   2.856  10.131 -2.0241  1.0588 -2.0860
  700MOL0     H92356   8.913   2.798  10.336 -2.2639  0.3136  0.8073
  700MOL0     H92357   8.841   2.666  10.247  1.8274 -1.1375  0.1946
  700MOL0     H92358   8.722   2.908  10.234 -0.2985  2.0448 -1.4064
  700MOL0     H92359   8.839   2.946  10.117 -0.0423  0.0814  0.3507
  700MOL0     H92360   8.768   2.726   9.980  0.2592 -3.4141  2.7351
  700MOL0     H92361   8.653   2.854   9.991 -2.7556  0.4803  0.5262
  700MOL0     H92362   8.529   2.768  10.358  0.7176 -1.5074 -0.6769
  700MOL0     H92363   8.336   2.843  10.435  1.6111  1.9702 -0.7337
  700MOL0     H92364   7.973   3.078  10.537  1.2483 -1.2145  1.6546
  700MOL0     H92365   7.728   3.125  10.613 -0.3657  1.2508 -1.0175
  700MOL0     H92366   7.500   3.151  10.647  1.7322 -0.5412 -0.5029
  700MOL0     H92367   7.588   3.041  10.748  0.6163  0.7607 -0.5266
  700MOL0     H92368   7.355   2.893  10.742  0.5322  0.4228 -3.8230
  700MOL0     H92369   7.290   3.051  10.692 -0.6342  2.2240  1.4721
  700MOL0     H92370   7.428   3.145  10.898  2.1192 -0.7706  0.1298
  700MOL0     H92371   7.453   2.975  10.947  2.4965 -1.0172 -2.7793
  700MOL0     H92372   7.185   2.974  10.936 -1.5139 -0.2510  1.0498
  700MOL0     H92373   7.277   3.024  11.082  2.0224 -0.1976 -0.2196
  700MOL0     H92374   7.231   3.254  11.038 -1.4942  0.7345 -0.0169
  700MOL0     H92375   7.080   3.179  11.042  1.4699  2.3859  0.1694
  700MOL0     H92376   7.092   3.187  10.775 -2.6896  1.3396  0.6212
  700MOL0     H92377   7.235   3.289  10.799  0.1268 -0.9140 -0.2515
  700MOL0     H92378   7.079   3.429  10.963  0.8320  0.5254  0.2682
  700MOL0     H92379   7.053   3.449  10.790  0.7902  1.4458  1.1134
  700MOL0     H92380   6.885   3.295  10.978  1.3620  2.8890  1.7400
  700MOL0     H92381   6.862   3.262  10.805  3.5588 -1.6535  0.0827
  700MOL0     H92382   7.612   2.762  10.418 -0.4929  0.0311 -1.4666
  700MOL0     H92383   7.833   2.720  10.351  3.7217  0.3723  0.2150
  700MOL0     H92384   8.165   2.793  10.031 -1.2717  0.0872  0.1691
  700MOL0     H92385   8.398   2.718   9.957 -1.5764 -1.5778  0.7550
  700MOL0     H92386   9.870   1.883  10.525  3.2026 -1.8724 -3.2691
  700MOL0     H92387  10.104   1.933  10.432 -0.1545  1.5389 -0.8280
  700MOL0     H92388  10.417   2.017  10.324 -0.3930 -1.7442  2.0928
  700MOL0     H92389  10.604   2.045  10.179  0.0013  2.9675 -1.3399
  700MOL0     H92390  10.984   2.032  10.277 -0.3208 -0.5033 -0.2730
  700MOL0     H92391  10.982   2.184  10.368  3.0771  0.5634 -1.0416
  700MOL0     H92392  11.135   2.128  10.154  0.1744  0.7494  2.1169
  700MOL0     H92393  10.990   2.134  10.060  2.9322 -1.6605 -0.6655
  700MOL0     H92394  11.107   2.378  10.207  0.7162  0.8785 -1.1804
  700MOL0     H92395  10.965   2.372  10.096 -1.2948 -1.4316 -0.8352
  700MOL0     H92396  11.184   2.459  10.007 -2.5042  0.7400  4.9087
  700MOL0     H92397  11.256   2.299  10.005 -0.5934 -0.7285 -2.6724
  700MOL0     H92398  10.997   2.265   9.685 -2.0726  3.3322  1.0805
  700MOL0     H92399  10.807   2.237  10.510  0.7766  0.8005 -1.1161
  700MOL0     H92400  10.648   2.187  10.656 -1.1771 -0.4255  0.2862
  701MOL0     O92401   8.002  10.949   7.144  0.0792  0.4520  0.2585
  701MOL0     C92402   8.078  10.860   7.108 -0.3595 -0.6303 -0.7554
  701MOL0     O92403   8.170  10.875   7.010  0.6303  0.1527  0.5085
  701MOL0     C92404   8.191  11.000   6.961  0.4538  0.2234  0.9066
  701MOL0     C92405   8.284  11.089   7.010 -0.7406  0.6311 -1.0143
  701MOL0     C92406   8.295  11.219   6.949  0.2649  1.0606  0.0023
  701MOL0     C92407   8.219  11.249   6.827 -0.7146  0.5715 -0.0946
  701MOL0     O92408   8.236  11.366   6.764  0.1773 -0.8645  0.7916
  701MOL0     C92409   8.198  11.486   6.834  0.9449  0.3120  0.0175
  701MOL0     C92410   8.050  11.495   6.867 -0.8881 -0.3190 -0.4449
  701MOL0     C92411   8.038  11.451   7.019 -0.0238  0.0512 -0.2811
  701MOL0     C92412   7.904  11.479   7.084  0.5817  0.8528  1.1323
  701MOL0     C92413   7.792  11.382   7.047 -0.0955 -0.2090  0.6891
  701MOL0     C92414   7.811  11.245   7.092 -0.0591  0.0608  0.2272
  701MOL0     C92415   7.802  11.220   7.245 -0.4815 -0.4608 -0.3027
  701MOL0     C92416   7.708  11.099   7.289 -0.5109 -0.2259  0.1077
  701MOL0     N92417   7.725  11.060   7.429 -0.1482 -0.2074 -0.6283
  701MOL0     C92418   7.691  11.145   7.528  0.1294 -0.6447 -0.2010
  701MOL0     C92419   7.724  11.074   7.640  0.1501 -1.5520  0.2919
  701MOL0     C92420   7.713  11.121   7.785 -0.4610  0.5292  0.2874
  701MOL0     C92421   7.631  11.255   7.801  0.0357 -0.2674 -0.4235
  701MOL0     C92422   7.497  11.237   7.893  0.2321  0.3700  0.7907
  701MOL0     C92423   7.535  11.212   8.043 -0.1756  0.1553  0.6351
  701MOL0     O92424   7.466  11.309   8.119  0.7944 -0.9842  0.1943
  701MOL0     C92425   7.337  11.272   8.157 -0.1201  0.9711  0.1162
  701MOL0     C92426   7.234  11.345   8.112  0.1542 -0.2518  0.3269
  701MOL0     C92427   7.100  11.304   8.137 -0.1499 -0.1311 -0.8543
  701MOL0     C92428   7.078  11.204   8.226  1.0765  0.7921 -0.0940
  701MOL0     C92429   6.934  11.164   8.256  0.2946 -0.3896 -0.2080
  701MOL0     O92430   6.840  11.238   8.192  0.4440 -0.4254 -0.1596
  701MOL0     C92431   6.721  11.173   8.163 -0.7964 -0.5041  0.2313
  701MOL0     C92432   6.694  11.033   8.162  0.3410  0.1843 -0.7209
  701MOL0     C92433   6.591  10.980   8.085 -0.3318  0.1151  0.3719
  701MOL0     C92434   6.491  11.057   8.026 -0.7262  0.6223  0.5040
  701MOL0     O92435   6.391  10.990   7.963  0.2256  0.2552 -0.0046
  701MOL0     C92436   6.264  11.063   7.925 -0.2190 -0.9614 -0.9345
  701MOL0     C92437   6.183  11.113   8.052 -0.1005  0.8462  0.4207
  701MOL0     C92438   6.049  11.178   8.011  0.8094  1.2811 -0.7703
  701MOL0     C92439   5.973  11.221   8.142 -0.6119 -0.4730 -0.6423
  701MOL0     C92440   5.822  11.222   8.123 -0.3498 -0.4107  0.0379
  701MOL0     C92441   5.736  11.280   8.235 -0.2765  0.0966 -0.0306
  701MOL0     C92442   5.591  11.298   8.186  0.8630 -0.0760 -0.2136
  701MOL0     C92443   5.495  11.322   8.297 -1.1883  0.0911 -0.8116
  701MOL0    Cl92444   5.332  11.374   8.240  0.4377  0.0525  0.2188
  701MOL0     C92445   6.501  11.193   8.053  0.3110 -0.2960 -0.6475
  701MOL0     C92446   6.612  11.251   8.115  0.2848  0.7541 -0.6751
  701MOL0     O92447   6.909  11.070   8.340  0.2971 -0.2167 -0.0055
  701MOL0     C92448   7.186  11.139   8.279 -0.0472  0.3222 -1.0257
  701MOL0     C92449   7.317  11.176   8.248 -0.6947  0.0628  0.5401
  701MOL0     N92450   7.747  10.946   7.608  0.1480  0.4187  0.1534
  701MOL0     N92451   7.755  10.941   7.476  0.2809 -1.0627  0.2223
  701MOL0     C92452   8.131  11.150   6.774  0.9169  0.0295  0.2076
  701MOL0     C92453   8.125  11.029   6.841 -0.0644 -0.2461  0.1142
  701MOL0     C92454   8.074  10.732   7.182 -0.6958  0.2697  0.0526
  701MOL0     C92455   7.969  10.709   7.269  0.3219  0.1431 -0.9730
  701MOL0     C92456   7.971  10.589   7.340 -0.0826  0.2443 -0.2441
  701MOL0     C92457   8.076  10.496   7.332 -0.1332  0.4893 -0.0545
  701MOL0     O92458   8.058  10.378   7.410 -0.5263 -0.1652 -0.5051
  701MOL0     C92459   8.172  10.299   7.417 -0.5027  0.1020  0.7909
  701MOL0     C92460   8.160  10.205   7.536 -0.3476 -0.1552  0.8514
  701MOL0     C92461   8.037  10.111   7.517 -0.2593  0.4278 -0.1162
  701MOL0     C92462   7.941  10.111   7.629  0.3323  0.4454  0.4571
  701MOL0     C92463   7.865   9.986   7.642  0.2584 -0.9909  0.4792
  701MOL0     C92464   7.788   9.897   7.672 -0.4369  0.1855  0.2344
  701MOL0     C92465   8.186  10.530   7.249 -0.2130 -0.0908 -0.0589
  701MOL0     C92466   8.185  10.643   7.171 -0.5486 -0.0873 -0.0854
  701MOL0     H92467   8.331  11.059   7.103  1.2116  0.2041 -2.0945
  701MOL0     H92468   8.355  11.292   7.003 -0.3880  0.7736  1.1536
  701MOL0     H92469   8.210  11.569   6.764 -0.6766  0.6712  0.1336
  701MOL0     H92470   8.267  11.491   6.919  1.8495 -2.6090 -0.4206
  701MOL0     H92471   7.989  11.430   6.805 -1.0440  0.1432 -0.7770
  701MOL0     H92472   8.025  11.601   6.857  2.0693  0.4267 -0.9848
  701MOL0     H92473   8.112  11.507   7.076  0.8476  0.0689 -1.3771
  701MOL0     H92474   8.059  11.344   7.025  1.3754  0.0579 -3.0779
  701MOL0     H92475   7.909  11.489   7.193 -3.2153  0.1828  1.5089
  701MOL0     H92476   7.877  11.576   7.039  2.9258  0.2617 -1.8516
  701MOL0     H92477   7.783  11.376   6.938 -3.1884 -0.1940  0.8469
  701MOL0     H92478   7.699  11.422   7.089 -0.2289 -0.8817  1.0379
  701MOL0     H92479   7.904  11.202   7.056  0.7503  2.9006 -1.3787
  701MOL0     H92480   7.726  11.183   7.062  0.8753 -2.7796  2.8559
  701MOL0     H92481   7.903  11.204   7.284  0.0359  1.5370 -0.7263
  701MOL0     H92482   7.759  11.315   7.277  2.0301  0.5473  0.3071
  701MOL0     H92483   7.755  11.020   7.229  1.9289  2.1969 -1.4146
  701MOL0     H92484   7.602  11.113   7.267 -0.2845  2.8198  0.6507
  701MOL0     H92485   7.644  11.243   7.523 -0.2364 -0.7763  0.5210
  701MOL0     H92486   7.812  11.127   7.832 -1.0771  2.2924  1.4817
  701MOL0     H92487   7.667  11.043   7.847 -1.7748  0.6055 -0.5523
  701MOL0     H92488   7.592  11.300   7.709 -2.1699 -0.2964  0.4502
  701MOL0     H92489   7.691  11.325   7.860  0.5109 -2.2138  1.4874
  701MOL0     H92490   7.447  11.335   7.890  1.2479  0.9014  0.7127
  701MOL0     H92491   7.439  11.156   7.848  3.1418 -0.5313 -1.6808
  701MOL0     H92492   7.642  11.228   8.052 -0.3251  0.9662  1.0467
  701MOL0     H92493   7.514  11.112   8.084  0.1088  0.5748  1.8420
  701MOL0     H92494   7.249  11.431   8.048 -1.2873  0.1037  0.4267
  701MOL0     H92495   7.021  11.346   8.075 -0.1363 -1.7317 -2.0156
  701MOL0     H92496   6.770  10.958   8.184 -0.6382 -0.3271  1.0879
  701MOL0     H92497   6.580  10.875   8.060  1.5222 -0.4751  1.7496
  701MOL0     H92498   6.199  10.992   7.874  1.2453 -1.5638 -2.0427
  701MOL0     H92499   6.287  11.148   7.860  1.2495  0.4951  1.3054
  701MOL0     H92500   6.241  11.180   8.116  2.1213  3.1530 -3.5770
  701MOL0     H92501   6.156  11.025   8.110 -1.9608 -2.2364 -4.5227
  701MOL0     H92502   5.990  11.096   7.969  1.7807 -2.3580  3.9907
  701MOL0     H92503   6.058  11.258   7.938 -2.6891  0.9064 -1.8104
  701MOL0     H92504   5.983  11.141   8.215 -2.6284 -1.8293 -1.7676
  701MOL0     H92505   6.023  11.314   8.171 -2.6616  1.1524 -2.0392
  701MOL0     H92506   5.802  11.115   8.108 -0.5132 -0.4318  0.4076
  701MOL0     H92507   5.798  11.274   8.030 -1.8758  0.6513  0.9801
  701MOL0     H92508   5.779  11.372   8.277 -2.4589  1.2929 -0.2580
  701MOL0     H92509   5.756  11.213   8.320  3.7666  0.5192 -0.4198
  701MOL0     H92510   5.592  11.385   8.120  0.7264  1.1461  1.3350
  701MOL0     H92511   5.565  11.210   8.127 -0.5943 -0.0302  0.3167
  701MOL0     H92512   5.536  11.402   8.360  1.2625 -2.2105  0.7974
  701MOL0     H92513   5.485  11.226   8.350 -0.8902  0.7464  0.4860
  701MOL0     H92514   6.438  11.269   8.008  0.7197 -0.6242 -1.8112
  701MOL0     H92515   6.620  11.359   8.131 -1.2395  0.8455 -0.3746
  701MOL0     H92516   7.169  11.075   8.365  2.9527  2.6816  1.5597
  701MOL0     H92517   7.399  11.127   8.300 -0.6083 -1.2360 -0.7668
  701MOL0     H92518   8.079  11.173   6.682 -1.9998 -1.6660  1.3023
  701MOL0     H92519   8.058  10.960   6.790  1.6052  0.0341 -2.6124
  701MOL0     H92520   7.878  10.766   7.288  0.1959 -1.0513  2.7838
  701MOL0     H92521   7.893  10.562   7.411 -1.1958  3.1678 -0.2108
  701MOL0     H92522   8.263  10.361   7.422  0.2531 -0.5867 -2.2956
  701MOL0     H92523   8.181  10.244   7.323  2.6858  0.9161  0.5033
  701MOL0     H92524   8.251  10.145   7.542  0.6143  1.4050  3.8838
  701MOL0     H92525   8.153  10.269   7.625 -2.9047  0.6990  0.1177
  701MOL0     H92526   8.093  10.018   7.500  2.1631  1.9346 -1.0641
  701MOL0     H92527   7.973  10.129   7.431 -1.1358  0.8980  0.6230
  701MOL0     H92528   8.001  10.113   7.721  1.3221 -4.2636  0.1964
  701MOL0     H92529   7.864  10.188   7.631  0.7975  0.9317  0.0520
  701MOL0     H92530   7.735   9.805   7.685  1.3850 -0.9151  0.2014
  701MOL0     H92531   8.279  10.475   7.241 -1.7895 -3.3794  1.8845
  701MOL0     H92532   8.267  10.648   7.101 -2.2121  2.4013 -2.0593
  702MOL0     O92533   1.828   7.851   4.834  0.5001 -0.1349 -0.3123
  702MOL0     C92534   1.753   7.790   4.760 -0.3275  0.8770 -0.0601
  702MOL0     O92535   1.744   7.811   4.628 -0.2089  0.0113 -0.0971
  702MOL0     C92536   1.821   7.899   4.562 -0.0975  1.0628 -0.5697
  702MOL0     C92537   1.760   7.963   4.449  0.3534 -0.0113  0.1447
  702MOL0     C92538   1.831   8.056   4.376 -0.3110  0.7203 -0.3177
  702MOL0     C92539   1.953   8.104   4.413  0.1127 -0.4853  0.0312
  702MOL0     O92540   2.005   8.205   4.337  0.0512 -0.0101  0.1474
  702MOL0     C92541   2.124   8.274   4.368 -0.2330  1.0818  0.2685
  702MOL0     C92542   2.107   8.415   4.395 -0.2232  0.0458 -0.6773
  702MOL0     C92543   2.229   8.485   4.345 -0.3474 -0.7174 -0.8130
  702MOL0     C92544   2.367   8.436   4.415  0.0873 -0.1918  0.1246
  702MOL0     C92545   2.495   8.514   4.374  0.3026  0.2405  0.6550
  702MOL0     C92546   2.615   8.472   4.457 -1.4387  0.0969 -0.3800
  702MOL0     C92547   2.741   8.551   4.438 -0.3607  0.3812 -0.1455
  702MOL0     C92548   2.835   8.478   4.335 -0.2514 -0.0658 -0.9960
  702MOL0     N92549   2.968   8.543   4.322 -0.8759 -0.2216  0.3350
  702MOL0     C92550   3.077   8.558   4.411  0.4117  0.2106 -0.6146
  702MOL0     C92551   3.158   8.649   4.345 -0.6828 -0.4167  0.5935
  702MOL0     C92552   3.287   8.700   4.397 -0.3424 -0.1814  0.2359
  702MOL0     C92553   3.403   8.602   4.384 -0.9397  0.5400 -0.5539
  702MOL0     C92554   3.523   8.664   4.444 -0.1984  0.1508 -0.1808
  702MOL0     C92555   3.656   8.570   4.449 -1.1306  0.9802 -0.5569
  702MOL0     O92556   3.765   8.643   4.511 -0.3743  0.0059  0.0555
  702MOL0     C92557   3.890   8.662   4.456 -0.1019  0.2169 -0.3808
  702MOL0     C92558   3.924   8.602   4.330  0.4229  0.6775 -0.0707
  702MOL0     C92559   4.060   8.635   4.283 -0.4736 -0.4947  0.0174
  702MOL0     C92560   4.160   8.704   4.359  0.6018 -0.4527 -0.2633
  702MOL0     C92561   4.307   8.722   4.320  0.8892  1.1005  0.8268
  702MOL0     O92562   4.397   8.785   4.403  0.6701 -0.0494 -0.4607
  702MOL0     C92563   4.516   8.828   4.351  0.3967  0.0499  0.4315
  702MOL0     C92564   4.636   8.755   4.366  0.6449 -0.3951  0.4484
  702MOL0     C92565   4.757   8.792   4.303  0.4482 -0.1406 -0.2226
  702MOL0     C92566   4.766   8.922   4.247 -0.5343  0.4969 -1.2857
  702MOL0     O92567   4.890   8.958   4.180  1.3106 -0.2961  0.6568
  702MOL0     C92568   4.896   9.087   4.117  0.1813 -0.3363 -0.0211
  702MOL0     C92569   4.845   9.061   3.973 -0.4320  0.4023 -0.1838
  702MOL0     C92570   4.833   9.191   3.892 -0.4531 -0.1719 -0.8045
  702MOL0     C92571   4.953   9.274   3.884 -1.0501  0.1814 -0.2603
  702MOL0     C92572   4.932   9.396   3.783 -0.5439 -0.3294  0.1001
  702MOL0     C92573   5.063   9.463   3.734  0.1597  0.0305  1.0141
  702MOL0     C92574   5.021   9.580   3.654 -0.1600 -0.0726 -0.6986
  702MOL0     C92575   4.999   9.546   3.500  0.0542  0.1752 -0.4427
  702MOL0    Cl92576   4.934   9.670   3.395 -0.0836 -0.4572  0.2734
  702MOL0     C92577   4.650   9.001   4.243 -0.5536  0.3904  0.0318
  702MOL0     C92578   4.523   8.957   4.288 -0.5792  0.4620 -0.2566
  702MOL0     O92579   4.313   8.690   4.200 -0.1571  0.3629  0.0005
  702MOL0     C92580   4.109   8.764   4.475  0.0599  0.2897 -0.2629
  702MOL0     C92581   3.978   8.743   4.525  0.0293 -0.6094  0.2258
  702MOL0     N92582   3.102   8.665   4.211  0.3885 -0.6437 -0.6229
  702MOL0     N92583   2.991   8.616   4.209  0.1425  0.2720  0.0026
  702MOL0     C92584   2.010   8.045   4.519 -0.0960 -0.1640  0.0652
  702MOL0     C92585   1.952   7.940   4.590  0.2660  0.2791  0.0764
  702MOL0     C92586   1.660   7.704   4.831  0.5378 -0.1880  0.0231
  702MOL0     C92587   1.690   7.654   4.961 -0.5803  0.1678  0.0351
  702MOL0     C92588   1.598   7.569   5.027  0.1213 -0.3962  0.0508
  702MOL0     C92589   1.484   7.527   4.967  0.5904 -1.1172 -0.4912
  702MOL0     O92590   1.415   7.420   5.006  0.0538  0.4134 -0.8590
  702MOL0     C92591   1.324   7.438   5.115  0.1338 -1.0871  0.3603
  702MOL0     C92592   1.182   7.467   5.077 -0.0773  0.1611 -0.3701
  702MOL0     C92593   1.073   7.442   5.190  0.5240 -0.2734 -0.0533
  702MOL0     C92594   1.124   7.507   5.326  0.3767 -0.4438  0.2090
  702MOL0     C92595   1.120   7.651   5.296 -0.1999  0.4256  0.7289
  702MOL0     C92596   1.121   7.773   5.293 -0.0256  0.1631 -0.2481
  702MOL0     C92597   1.459   7.573   4.837  0.3014 -0.7101  0.0389
  702MOL0     C92598   1.547   7.660   4.765  0.3659 -0.2115  0.3702
  702MOL0     H92599   1.660   7.939   4.415 -0.9460  4.0157  0.6293
  702MOL0     H92600   1.777   8.097   4.291 -2.1022  0.0467  0.4343
  702MOL0     H92601   2.175   8.272   4.272 -4.4296 -0.9388 -2.2388
  702MOL0     H92602   2.188   8.224   4.441 -0.3354  2.0725  1.0732
  702MOL0     H92603   2.094   8.435   4.501  1.3345  0.1812 -0.4797
  702MOL0     H92604   2.021   8.457   4.342  1.1124  2.5212 -1.0623
  702MOL0     H92605   2.210   8.590   4.370 -5.0969 -0.3459 -4.3613
  702MOL0     H92606   2.241   8.489   4.236  3.3071  0.9071 -0.4928
  702MOL0     H92607   2.342   8.435   4.522 -2.6235 -1.0393 -0.4277
  702MOL0     H92608   2.394   8.330   4.410 -0.9066 -0.8461  4.4613
  702MOL0     H92609   2.481   8.622   4.378  2.1916  0.4818  2.1586
  702MOL0     H92610   2.524   8.488   4.271 -1.6779 -4.2673  0.9744
  702MOL0     H92611   2.641   8.367   4.438 -0.7680  0.8560 -4.8578
  702MOL0     H92612   2.579   8.484   4.559  0.5021 -0.4418  0.4231
  702MOL0     H92613   2.719   8.652   4.403  0.3803  0.1888 -1.2199
  702MOL0     H92614   2.792   8.560   4.534  1.8527 -0.8468 -1.1250
  702MOL0     H92615   2.795   8.460   4.235 -0.3735  0.8036 -1.1149
  702MOL0     H92616   2.858   8.390   4.395 -1.7417  1.3722  1.8720
  702MOL0     H92617   3.110   8.518   4.506  2.1086 -0.6227 -1.5132
  702MOL0     H92618   3.273   8.726   4.503  3.6933 -0.3484  0.9744
  702MOL0     H92619   3.321   8.783   4.334 -1.5704  0.7345  0.7250
  702MOL0     H92620   3.417   8.572   4.280 -3.7181 -0.1773 -0.8024
  702MOL0     H92621   3.391   8.511   4.444  1.4857  0.7609  0.3696
  702MOL0     H92622   3.558   8.741   4.374  1.9132 -0.0912  0.5246
  702MOL0     H92623   3.509   8.715   4.540  3.4139 -1.6592  1.5325
  702MOL0     H92624   3.679   8.516   4.357  0.3497 -0.1811  0.4403
  702MOL0     H92625   3.629   8.483   4.511 -1.6671  0.0287 -2.0641
  702MOL0     H92626   3.856   8.542   4.269  0.7894  0.5506 -0.3594
  702MOL0     H92627   4.098   8.597   4.188 -2.7997  1.5741 -1.8508
  702MOL0     H92628   4.641   8.668   4.431 -2.7657 -0.2442  1.0919
  702MOL0     H92629   4.851   8.740   4.308 -0.4699 -1.9100 -0.5853
  702MOL0     H92630   5.001   9.119   4.126 -0.3198  1.4426 -0.0726
  702MOL0     H92631   4.830   9.160   4.166  2.3447  1.4987  0.3448
  702MOL0     H92632   4.753   9.003   3.963 -0.3610  0.2173  0.2453
  702MOL0     H92633   4.923   8.997   3.931 -0.4030 -0.2333  0.8245
  702MOL0     H92634   4.754   9.249   3.940 -1.1023 -0.6632 -1.2672
  702MOL0     H92635   4.791   9.161   3.796 -2.8066  1.6840 -0.4676
  702MOL0     H92636   4.980   9.312   3.984 -4.1046  4.9625 -0.9242
  702MOL0     H92637   5.037   9.214   3.848  0.2322  2.7763 -1.8740
  702MOL0     H92638   4.890   9.475   3.846  0.1397 -1.4146  1.9931
  702MOL0     H92639   4.867   9.374   3.698  1.1843  0.1779 -1.4130
  702MOL0     H92640   5.121   9.394   3.673  1.2465 -0.5491  2.6376
  702MOL0     H92641   5.114   9.470   3.830  1.6064 -6.1006  1.1260
  702MOL0     H92642   4.939   9.637   3.698  1.2882  3.3009 -2.0259
  702MOL0     H92643   5.097   9.658   3.664  0.5979 -0.6443 -1.8011
  702MOL0     H92644   4.923   9.467   3.504  2.4861 -2.2916 -0.3408
  702MOL0     H92645   5.093   9.502   3.466 -0.5947  0.3810 -2.6430
  702MOL0     H92646   4.642   9.106   4.216 -1.2374  1.1066  2.6684
  702MOL0     H92647   4.426   9.004   4.275  0.1451  1.9234 -0.6439
  702MOL0     H92648   4.167   8.835   4.534 -0.1835  1.1380 -1.0230
  702MOL0     H92649   3.931   8.782   4.615  0.4572 -2.8824  1.5093
  702MOL0     H92650   2.112   8.067   4.548 -0.0619 -0.1528 -0.0588
  702MOL0     H92651   2.009   7.881   4.660 -2.3994 -2.5453  0.1115
  702MOL0     H92652   1.781   7.688   5.008 -0.5944  0.0626  0.1388
  702MOL0     H92653   1.614   7.522   5.124 -0.7729  0.8120  0.8143
  702MOL0     H92654   1.359   7.523   5.175 -1.1646  1.2952 -2.0706
  702MOL0     H92655   1.329   7.346   5.175  2.5980 -0.7974  0.6995
  702MOL0     H92656   1.177   7.572   5.047 -0.5744  0.4967  0.8350
  702MOL0     H92657   1.169   7.400   4.992  1.5918 -0.6891  0.0082
  702MOL0     H92658   1.056   7.335   5.203 -1.9233 -0.0374 -0.8310
  702MOL0     H92659   0.974   7.471   5.155  1.5185  1.8510 -1.3006
  702MOL0     H92660   1.038   7.479   5.387 -1.6073  0.3638 -2.0611
  702MOL0     H92661   1.211   7.468   5.380  0.0019 -1.4960  0.0732
  702MOL0     H92662   1.107   7.879   5.300 -0.6781  0.3654 -3.1257
  702MOL0     H92663   1.370   7.534   4.789  2.1179 -0.5349 -3.8996
  702MOL0     H92664   1.537   7.680   4.659  3.6524 -1.0017 -0.1700
  703MOL0     O92665   9.985   3.819   7.612 -0.4880 -0.2370  0.2595
  703MOL0     C92666  10.048   3.794   7.513 -0.4178  0.9564 -0.4128
  703MOL0     O92667  10.005   3.751   7.396  0.1928  0.0116  0.8507
  703MOL0     C92668   9.882   3.691   7.368 -0.1009 -0.0426 -0.5381
  703MOL0     C92669   9.843   3.594   7.455 -0.4397  0.5844 -0.3415
  703MOL0     C92670   9.734   3.511   7.423  0.3402  0.2234 -0.1998
  703MOL0     C92671   9.663   3.540   7.307 -0.8970 -0.6077 -0.4111
  703MOL0     O92672   9.569   3.458   7.262  0.5335 -0.8044  0.5057
  703MOL0     C92673   9.492   3.385   7.352  0.1723 -0.0799  0.4021
  703MOL0     C92674   9.362   3.354   7.288 -0.0639 -0.1088  0.2480
  703MOL0     C92675   9.279   3.273   7.383  0.4894 -0.5831  0.2118
  703MOL0     C92676   9.246   3.350   7.512 -0.6028  0.1058  0.3664
  703MOL0     C92677   9.143   3.275   7.602  0.1879 -0.8228 -0.3390
  703MOL0     C92678   9.095   3.360   7.714 -0.1381  0.1090 -0.0405
  703MOL0     C92679   8.988   3.293   7.797  0.0137  0.4811  0.2902
  703MOL0     C92680   9.042   3.213   7.913 -1.1353  0.9161  0.2179
  703MOL0     N92681   8.931   3.153   8.003 -0.8946 -0.3555 -0.6011
  703MOL0     C92682   8.955   3.060   8.098  1.0049 -0.3076 -0.9677
  703MOL0     C92683   8.837   3.043   8.150  0.0369 -0.2537 -0.4315
  703MOL0     C92684   8.801   2.948   8.262  0.9586  0.6159  0.3963
  703MOL0     C92685   8.731   2.820   8.214  0.0423 -0.5325 -0.0116
  703MOL0     C92686   8.626   2.766   8.321 -0.3615 -0.2425  0.0045
  703MOL0     C92687   8.552   2.639   8.280  0.3886 -0.8666  0.3992
  703MOL0     O92688   8.480   2.589   8.394 -1.0022  0.3898 -0.3166
  703MOL0     C92689   8.348   2.618   8.405  0.6097 -0.0526 -1.0178
  703MOL0     C92690   8.304   2.735   8.464  0.5821  0.0477  0.9166
  703MOL0     C92691   8.166   2.760   8.480  0.5330 -0.1060  0.0328
  703MOL0     C92692   8.070   2.653   8.449 -0.2958  0.2706 -0.1331
  703MOL0     C92693   7.927   2.667   8.505 -0.1974 -0.0311  0.2055
  703MOL0     O92694   7.864   2.554   8.528 -0.8721  0.5029 -0.0713
  703MOL0     C92695   7.756   2.552   8.609  0.2808  0.5224 -0.2563
  703MOL0     C92696   7.638   2.516   8.552  0.0352 -0.4714  0.3812
  703MOL0     C92697   7.518   2.530   8.623  0.2737  1.0618  0.3154
  703MOL0     C92698   7.522   2.582   8.754 -0.3588  0.2827 -0.4586
  703MOL0     O92699   7.411   2.553   8.838  0.5283 -0.4460  0.4281
  703MOL0     C92700   7.433   2.436   8.920  0.7032 -0.3259 -0.3714
  703MOL0     C92701   7.335   2.426   9.042  0.2988 -0.5960  0.4914
  703MOL0     C92702   7.347   2.290   9.113 -0.6781  0.8469 -0.1961
  703MOL0     C92703   7.268   2.289   9.253 -0.4810  0.0542  0.0074
  703MOL0     C92704   7.117   2.287   9.257 -1.1475  0.2180 -0.6535
  703MOL0     C92705   7.060   2.182   9.174  0.0459  0.1635  0.4177
  703MOL0     C92706   6.928   2.209   9.118 -0.0644 -0.8555  0.7441
  703MOL0     C92707   6.830   2.221   9.234  0.7516  0.2119 -0.2854
  703MOL0    Cl92708   6.774   2.058   9.291  0.2513  0.1738  0.0522
  703MOL0     C92709   7.643   2.618   8.806 -0.5563  0.5353  0.0341
  703MOL0     C92710   7.770   2.604   8.735  0.2830  0.9279 -0.3684
  703MOL0     O92711   7.881   2.781   8.532 -0.3770  0.5413 -0.0399
  703MOL0     C92712   8.117   2.522   8.417 -1.0864 -0.2281  0.2200
  703MOL0     C92713   8.253   2.510   8.387  0.0314  0.4509 -0.2771
  703MOL0     N92714   8.748   3.128   8.091  0.4396  0.1622 -0.1915
  703MOL0     N92715   8.807   3.188   7.997 -0.3845  1.0862  0.3730
  703MOL0     C92716   9.710   3.645   7.217 -0.1907 -0.6312  0.1309
  703MOL0     C92717   9.820   3.717   7.249 -0.7637  0.2801  0.2539
  703MOL0     C92718  10.193   3.823   7.504  0.3506 -0.8285 -0.5447
  703MOL0     C92719  10.274   3.733   7.429  0.4503  0.6893 -0.6049
  703MOL0     C92720  10.417   3.756   7.418  0.4516 -0.3021  0.3536
  703MOL0     C92721  10.471   3.871   7.477  0.6442 -0.1120 -0.2930
  703MOL0     O92722  10.606   3.884   7.471 -0.1730 -0.5467  0.2366
  703MOL0     C92723  10.678   3.944   7.573 -0.1396  0.1010  0.1972
  703MOL0     C92724  10.714   3.856   7.689 -0.3080 -0.2543  0.7325
  703MOL0     C92725  10.785   3.920   7.809  0.5918 -0.0579  0.7194
  703MOL0     C92726  10.807   3.833   7.930  1.2392 -0.0725  0.8036
  703MOL0     C92727  10.678   3.796   7.991  0.1573 -0.2092  0.5860
  703MOL0     C92728  10.575   3.739   8.028  0.2721  0.7111 -0.1449
  703MOL0     C92729  10.392   3.957   7.546  0.7165 -0.3712  0.3388
  703MOL0     C92730  10.254   3.930   7.571  0.1930 -0.1280  0.5421
  703MOL0     H92731   9.906   3.587   7.543 -1.8968  1.4690  0.8149
  703MOL0     H92732   9.709   3.427   7.486  1.5616 -1.7436 -2.2028
  703MOL0     H92733   9.469   3.449   7.438 -1.6110 -0.0565 -0.0484
  703MOL0     H92734   9.541   3.293   7.386 -3.7265 -1.1086  4.0620
  703MOL0     H92735   9.389   3.282   7.211  1.5688 -0.1828  0.8359
  703MOL0     H92736   9.312   3.444   7.252  3.1517  2.9311  2.6242
  703MOL0     H92737   9.326   3.177   7.408  3.2198  0.5164 -0.3659
  703MOL0     H92738   9.184   3.256   7.331  0.6303  1.4553 -0.8242
  703MOL0     H92739   9.338   3.360   7.570 -0.2958 -0.7271  0.0447
  703MOL0     H92740   9.202   3.447   7.489 -0.8479  0.4438  2.1560
  703MOL0     H92741   9.180   3.184   7.649 -1.3659 -1.8598 -1.0143
  703MOL0     H92742   9.055   3.255   7.540 -1.0824  1.5986  0.5431
  703MOL0     H92743   9.055   3.445   7.659  0.2936 -0.5917 -1.4897
  703MOL0     H92744   9.181   3.398   7.771 -0.2035  0.1482  0.0311
  703MOL0     H92745   8.914   3.366   7.832  1.9671  2.6034  0.2092
  703MOL0     H92746   8.946   3.221   7.726  0.5626 -0.8110  1.2343
  703MOL0     H92747   9.097   3.273   7.986  1.4948  0.4715 -1.2971
  703MOL0     H92748   9.121   3.144   7.881 -0.4532  2.3072 -1.1803
  703MOL0     H92749   9.038   2.991   8.112  1.4436 -0.3741 -3.4305
  703MOL0     H92750   8.733   3.000   8.329 -0.5715  1.7127 -1.8915
  703MOL0     H92751   8.885   2.926   8.329  0.8444 -0.9340  0.0782
  703MOL0     H92752   8.799   2.740   8.188  1.3308  0.5692 -0.1444
  703MOL0     H92753   8.682   2.849   8.121  0.6629 -0.0171 -0.1838
  703MOL0     H92754   8.695   2.741   8.402  1.1005  0.6952 -0.9073
  703MOL0     H92755   8.558   2.845   8.352  0.7269  0.5715  0.4096
  703MOL0     H92756   8.618   2.563   8.237  0.2887 -1.5081  1.3724
  703MOL0     H92757   8.484   2.677   8.202 -0.6951 -0.0545  1.6806
  703MOL0     H92758   8.378   2.805   8.501  1.5724 -0.9694  0.9147
  703MOL0     H92759   8.134   2.849   8.532  0.3743 -0.7641  1.1004
  703MOL0     H92760   7.635   2.479   8.451  0.7986  1.3445 -0.3443
  703MOL0     H92761   7.428   2.492   8.577 -0.0525 -2.0994  3.1461
  703MOL0     H92762   7.532   2.450   8.963 -0.4456  2.3504  1.6740
  703MOL0     H92763   7.426   2.343   8.863 -0.3654  0.6878 -1.9697
  703MOL0     H92764   7.234   2.441   9.001  1.5885  0.9898 -2.4209
  703MOL0     H92765   7.353   2.513   9.105 -1.0893  0.3182 -0.3084
  703MOL0     H92766   7.452   2.265   9.130 -0.8950 -3.4774 -3.4484
  703MOL0     H92767   7.311   2.209   9.049 -1.0562  1.5627 -0.9011
  703MOL0     H92768   7.294   2.196   9.304 -3.2628 -0.6081  0.4011
  703MOL0     H92769   7.302   2.378   9.306  0.4612  0.3509 -1.0610
  703MOL0     H92770   7.081   2.381   9.215 -1.0511  1.6784  2.2827
  703MOL0     H92771   7.077   2.279   9.358 -0.3347  0.8760 -0.2682
  703MOL0     H92772   7.050   2.093   9.237  2.6983  0.4966  1.4453
  703MOL0     H92773   7.132   2.168   9.094  1.3603  0.6410  1.4796
  703MOL0     H92774   6.924   2.278   9.034  1.9112 -1.0908  0.4182
  703MOL0     H92775   6.912   2.115   9.064 -2.6901  2.3708 -5.0056
  703MOL0     H92776   6.740   2.280   9.212  1.2478  1.0361 -0.1623
  703MOL0     H92777   6.871   2.272   9.322 -2.4151  0.9405  0.8948
  703MOL0     H92778   7.646   2.643   8.911  1.1322 -2.5325  0.8223
  703MOL0     H92779   7.864   2.630   8.781 -0.7773  0.3245  2.3138
  703MOL0     H92780   8.057   2.432   8.408 -0.4440 -0.9004  2.1542
  703MOL0     H92781   8.290   2.413   8.356 -1.9952 -0.2062 -0.7506
  703MOL0     H92782   9.650   3.658   7.128 -2.4866  2.3675  1.9408
  703MOL0     H92783   9.864   3.788   7.179  1.3511  0.9398  2.1526
  703MOL0     H92784  10.242   3.648   7.370 -0.9897  2.4141 -2.4510
  703MOL0     H92785  10.484   3.690   7.364  0.8795  1.2380 -1.0929
  703MOL0     H92786  10.627   4.028   7.620 -0.0140 -0.1387  0.7655
  703MOL0     H92787  10.770   3.974   7.522 -0.6361 -0.7364 -1.2483
  703MOL0     H92788  10.617   3.813   7.717  0.8575 -2.5492  1.4614
  703MOL0     H92789  10.782   3.775   7.666  2.7433  2.1547  0.6664
  703MOL0     H92790  10.729   4.011   7.832  0.5024 -0.3714  1.8095
  703MOL0     H92791  10.886   3.947   7.777 -0.7724  1.7343 -2.5004
  703MOL0     H92792  10.857   3.741   7.900 -1.4046 -2.3530  2.8169
  703MOL0     H92793  10.859   3.868   8.020 -1.0860  0.1932  2.1363
  703MOL0     H92794  10.490   3.682   8.061  0.7244 -0.4707 -0.9492
  703MOL0     H92795  10.441   4.042   7.593 -0.4746 -0.0221  0.9649
  703MOL0     H92796  10.189   4.003   7.618  0.3279  0.5670 -0.3203
  704MOL0     O92797   3.517  10.091   8.406  0.2703 -0.5393  0.4214
  704MOL0     C92798   3.427  10.165   8.448 -0.9647  0.6045  0.8149
  704MOL0     O92799   3.431  10.231   8.569 -0.9842 -0.2863 -0.2408
  704MOL0     C92800   3.564  10.231   8.635  0.8394 -0.0924  0.5365
  704MOL0     C92801   3.598  10.150   8.743  0.6967 -0.1834  0.0510
  704MOL0     C92802   3.726  10.145   8.802  0.3236 -0.1245 -0.9806
  704MOL0     C92803   3.822  10.224   8.753 -0.9213  0.3416  0.2830
  704MOL0     O92804   3.956  10.205   8.793 -0.3516 -0.0601  0.1716
  704MOL0     C92805   3.989  10.157   8.921  0.6689  0.0597  0.4749
  704MOL0     C92806   3.950  10.263   9.028 -1.1043  0.3656  0.7699
  704MOL0     C92807   3.852  10.212   9.134  0.0818 -0.6844  0.1388
  704MOL0     C92808   3.800  10.326   9.219  0.0890 -0.1937  0.2893
  704MOL0     C92809   3.715  10.280   9.331 -0.2027  0.1721  0.9573
  704MOL0     C92810   3.573  10.238   9.277 -0.3980  0.3598  0.3668
  704MOL0     C92811   3.502  10.377   9.247  0.0469 -0.3953 -0.4616
  704MOL0     C92812   3.352  10.351   9.219  0.4354  0.0053 -0.5389
  704MOL0     N92813   3.291  10.263   9.323  0.6905 -0.6770  0.0966
  704MOL0     C92814   3.232  10.309   9.442  0.2503  1.1282 -0.1094
  704MOL0     C92815   3.171  10.193   9.483 -0.2292  0.8499  0.0489
  704MOL0     C92816   3.097  10.174   9.607 -0.2932 -0.3822 -0.0926
  704MOL0     C92817   3.196  10.128   9.715 -0.1581  0.4081 -0.5308
  704MOL0     C92818   3.268   9.990   9.695 -0.4464 -0.2606 -0.1823
  704MOL0     C92819   3.419  10.007   9.706 -0.4927  0.5493  0.4272
  704MOL0     O92820   3.462  10.028   9.834 -0.5851 -0.2719  0.4031
  704MOL0     C92821   3.595  10.069   9.842  0.6606 -0.3446  0.2719
  704MOL0     C92822   3.643  10.055   9.978  0.1547 -0.4802 -0.5576
  704MOL0     C92823   3.777  10.091  10.003  0.2172  0.4781  0.2230
  704MOL0     C92824   3.866  10.144   9.909  0.4732  0.1463 -1.2263
  704MOL0     C92825   3.997  10.184   9.949 -0.3764 -0.0838  0.7146
  704MOL0     O92826   4.088  10.209   9.848  0.0708  1.1028 -0.0625
  704MOL0     C92827   4.210  10.266   9.881  0.1672 -0.0840 -0.3193
  704MOL0     C92828   4.225  10.406   9.857  0.2950  1.3309 -0.2101
  704MOL0     C92829   4.346  10.449   9.861  0.1638 -1.5867  0.3381
  704MOL0     C92830   4.460  10.377   9.890  0.1097  0.9121 -1.1031
  704MOL0     O92831   4.571  10.447   9.882  0.6334 -0.3856 -0.2140
  704MOL0     C92832   4.687  10.384   9.842 -0.7528  0.0942 -1.0504
  704MOL0     C92833   4.807  10.486   9.848  0.1694  0.8709 -0.0346
  704MOL0     C92834   4.933  10.417   9.807 -0.1276 -1.2530 -0.4227
  704MOL0     C92835   5.001  10.320   9.906  0.6646 -0.0484 -0.6251
  704MOL0     C92836   5.058  10.404  10.024 -0.0221 -0.3602  0.1655
  704MOL0     C92837   5.168  10.324  10.097 -1.0783 -0.9467 -0.5411
  704MOL0     C92838   5.188  10.374  10.237  0.3885 -0.6511 -0.1665
  704MOL0     C92839   5.266  10.509  10.258 -0.4468 -0.2826  0.5464
  704MOL0    Cl92840   5.399  10.555  10.142  0.2590 -0.2752 -0.5827
  704MOL0     C92841   4.446  10.240   9.886  0.9555 -0.1803 -0.3601
  704MOL0     C92842   4.322  10.179   9.889 -0.1067 -0.5608 -0.1574
  704MOL0     O92843   4.021  10.208  10.062  0.0014  0.2587  0.4657
  704MOL0     C92844   3.825  10.146   9.774  0.3285  0.4518  0.1314
  704MOL0     C92845   3.695  10.099   9.745 -0.1807  0.2930 -0.0135
  704MOL0     N92846   3.215  10.085   9.403 -0.1721 -0.4830  0.6707
  704MOL0     N92847   3.271  10.139   9.302  0.2913  0.3547 -0.0350
  704MOL0     C92848   3.801  10.301   8.641  0.4757  0.2828  0.3090
  704MOL0     C92849   3.668  10.317   8.592 -0.4459  0.1395 -0.2018
  704MOL0     C92850   3.300  10.163   8.378  0.3755 -0.2003  0.1221
  704MOL0     C92851   3.261  10.054   8.283  0.9257  1.2481 -0.2586
  704MOL0     C92852   3.139  10.074   8.213 -0.5793 -0.5699  0.7624
  704MOL0     C92853   3.050  10.184   8.244  1.1808 -0.0167  0.1525
  704MOL0     O92854   2.921  10.195   8.200  0.0798  1.0169 -0.3660
  704MOL0     C92855   2.882  10.120   8.079  0.0368 -0.8269 -0.4663
  704MOL0     C92856   2.724  10.119   8.088  0.7599  0.2817  0.7035
  704MOL0     C92857   2.668  10.126   7.942 -0.0696  0.2203  1.1925
  704MOL0     C92858   2.524  10.095   7.930  1.0782  0.0260 -0.7440
  704MOL0     C92859   2.521  10.034   7.797 -0.1753  0.6699  0.7178
  704MOL0     C92860   2.516   9.983   7.683 -0.5007 -0.2108  0.1764
  704MOL0     C92861   3.100  10.281   8.335 -0.2656 -0.7336 -0.9175
  704MOL0     C92862   3.218  10.275   8.404  0.2175  0.0132 -0.2871
  704MOL0     H92863   3.522  10.087   8.787 -1.7286  1.0680 -2.0881
  704MOL0     H92864   3.732  10.082   8.890 -2.0848 -0.6010 -1.0850
  704MOL0     H92865   4.097  10.142   8.915  0.9255  1.2415  1.6996
  704MOL0     H92866   3.938  10.062   8.941  0.2780  0.4334  1.3262
  704MOL0     H92867   3.898  10.339   8.969 -4.6349 -2.6700 -0.4385
  704MOL0     H92868   4.036  10.303   9.082 -0.5326  0.4703 -0.1771
  704MOL0     H92869   3.903  10.148   9.206  0.9290  0.0443  0.2160
  704MOL0     H92870   3.764  10.159   9.095  0.1314  0.0069 -0.9681
  704MOL0     H92871   3.885  10.384   9.256  0.1035  0.4838 -0.7682
  704MOL0     H92872   3.749  10.397   9.153  0.3160  0.6721  1.0132
  704MOL0     H92873   3.704  10.375   9.384  0.4160  2.2593 -2.3475
  704MOL0     H92874   3.761  10.203   9.394  1.1544  0.5523  0.4577
  704MOL0     H92875   3.522  10.184   9.357  2.6076 -0.0030  2.2203
  704MOL0     H92876   3.568  10.164   9.197  1.1751  0.4280  0.1784
  704MOL0     H92877   3.518  10.447   9.329  2.0401  0.2106 -1.2984
  704MOL0     H92878   3.548  10.428   9.161 -0.2288 -0.5092 -0.6783
  704MOL0     H92879   3.346  10.309   9.118  2.5654  0.8700 -1.1034
  704MOL0     H92880   3.301  10.448   9.212 -2.0109 -1.1045  0.8648
  704MOL0     H92881   3.220  10.408   9.483 -0.7880  1.4888 -1.2272
  704MOL0     H92882   3.023  10.096   9.590 -1.1106  0.4001 -0.2303
  704MOL0     H92883   3.034  10.259   9.637 -0.8445 -1.7782  3.2323
  704MOL0     H92884   3.148  10.120   9.813 -0.7149 -1.1668 -0.9059
  704MOL0     H92885   3.276  10.202   9.720  0.7913 -0.1817 -4.1890
  704MOL0     H92886   3.230   9.924   9.773 -1.6154  1.1412  0.4836
  704MOL0     H92887   3.247   9.946   9.596 -0.4526  1.4700 -0.9868
  704MOL0     H92888   3.442  10.085   9.632  3.3846 -0.4138  0.3978
  704MOL0     H92889   3.467   9.914   9.674 -0.8407  0.4962  0.0431
  704MOL0     H92890   3.575  10.012  10.051 -2.1132 -2.3229 -3.5215
  704MOL0     H92891   3.822  10.068  10.099 -0.0674  0.7772  0.4314
  704MOL0     H92892   4.143  10.475   9.843 -0.2450  1.0236  1.2167
  704MOL0     H92893   4.368  10.554   9.841  0.9714 -1.2388  2.7039
  704MOL0     H92894   4.682  10.343   9.741  1.1584  1.9437 -1.9739
  704MOL0     H92895   4.703  10.308   9.919  0.6236 -0.1539 -1.5605
  704MOL0     H92896   4.818  10.528   9.948 -1.9466 -0.7396  0.9506
  704MOL0     H92897   4.779  10.560   9.773 -1.5951  0.5349  0.2431
  704MOL0     H92898   5.000  10.500   9.782 -2.7923  1.0958 -0.1504
  704MOL0     H92899   4.916  10.373   9.708 -0.8922 -3.3920  0.5939
  704MOL0     H92900   4.923  10.253   9.942 -0.6759  2.3752  1.2658
  704MOL0     H92901   5.084  10.267   9.859 -0.7399 -2.5388 -0.4972
  704MOL0     H92902   4.975  10.435  10.088  1.9335  2.9641  1.4007
  704MOL0     H92903   5.094  10.504   9.995  1.0625 -0.8543 -0.2615
  704MOL0     H92904   5.255  10.336  10.032 -0.1605  1.3273  0.9536
  704MOL0     H92905   5.124  10.225  10.103  1.5134 -2.2278 -1.3508
  704MOL0     H92906   5.094  10.394  10.290  1.3361  1.4799  0.8411
  704MOL0     H92907   5.234  10.297  10.300  0.1495 -1.5321 -1.0521
  704MOL0     H92908   5.309  10.519  10.358  4.0738  2.1753 -1.3499
  704MOL0     H92909   5.197  10.594  10.252  3.0421  2.9420  1.9255
  704MOL0     H92910   4.527  10.168   9.888  0.0167 -1.2765 -0.7548
  704MOL0     H92911   4.325  10.070   9.893 -0.3859 -0.5352  1.6938
  704MOL0     H92912   3.891  10.164   9.690  0.6118  1.1747  0.5059
  704MOL0     H92913   3.675  10.082   9.640  2.5972  2.3460 -1.0012
  704MOL0     H92914   3.891  10.331   8.587  0.6591 -0.9557 -0.0989
  704MOL0     H92915   3.648  10.379   8.505 -0.7277  0.2078 -0.0900
  704MOL0     H92916   3.331   9.976   8.254 -0.7372  0.0673 -1.2136
  704MOL0     H92917   3.115   9.997   8.140  2.9091 -2.2729  1.2049
  704MOL0     H92918   2.916  10.016   8.087 -0.7319 -0.9701  1.6516
  704MOL0     H92919   2.921  10.168   7.989 -0.8515 -0.6394 -0.7629
  704MOL0     H92920   2.698  10.025   8.137  2.3112  0.0040  1.0232
  704MOL0     H92921   2.695  10.207   8.147 -2.5154  0.1191 -0.4354
  704MOL0     H92922   2.727  10.048   7.892 -1.5510  1.2658 -2.5942
  704MOL0     H92923   2.676  10.220   7.886  3.3123  0.7862  2.4307
  704MOL0     H92924   2.502  10.014   8.000  2.7044  0.0134 -0.1983
  704MOL0     H92925   2.458  10.181   7.940  0.9351  0.2333 -3.0481
  704MOL0     H92926   2.521   9.948   7.582 -0.0021  2.6162 -0.8681
  704MOL0     H92927   3.027  10.356   8.363 -1.1477 -1.6477 -0.7272
  704MOL0     H92928   3.240  10.354   8.476 -0.0471  1.0458 -1.3101
  705MOL0     O92929   6.459   4.754   3.763  0.6856  0.9275  0.0081
  705MOL0     C92930   6.393   4.651   3.771 -0.0746  0.0995 -0.4492
  705MOL0     O92931   6.395   4.554   3.870 -0.0705 -0.0671 -0.2576
  705MOL0     C92932   6.517   4.541   3.947  0.3983 -0.8309  0.5325
  705MOL0     C92933   6.639   4.566   3.902 -0.0670  0.1144 -0.3423
  705MOL0     C92934   6.759   4.555   3.980  0.5301  0.7776  0.6222
  705MOL0     C92935   6.745   4.515   4.107  0.2339  1.0915 -0.5128
  705MOL0     O92936   6.846   4.506   4.200 -0.0676 -0.4764 -0.2380
  705MOL0     C92937   6.848   4.384   4.282  0.0088  0.6014  0.1127
  705MOL0     C92938   6.883   4.419   4.430 -0.1434  0.2848  0.7618
  705MOL0     C92939   6.762   4.468   4.512  0.4005 -0.0358  0.4783
  705MOL0     C92940   6.795   4.477   4.662  0.8115 -0.6601 -0.0230
  705MOL0     C92941   6.664   4.521   4.734  0.3819 -0.2016 -0.1589
  705MOL0     C92942   6.692   4.614   4.857 -0.1461  0.1557  0.5438
  705MOL0     C92943   6.572   4.672   4.922  0.4024 -0.7105  0.0550
  705MOL0     C92944   6.476   4.566   4.984 -0.9894 -0.4571 -0.0511
  705MOL0     N92945   6.379   4.617   5.086  0.3714 -0.5811  0.2401
  705MOL0     C92946   6.305   4.518   5.137  1.1006 -0.5418 -0.1479
  705MOL0     C92947   6.199   4.587   5.188 -0.8169 -0.4748 -0.0096
  705MOL0     C92948   6.092   4.536   5.272 -0.1516 -0.5522  0.7034
  705MOL0     C92949   5.991   4.458   5.185  0.5273 -0.3604  0.7972
  705MOL0     C92950   5.922   4.537   5.062  0.4111 -0.2604  0.5894
  705MOL0     C92951   6.013   4.527   4.930 -0.2302  1.0483  0.2210
  705MOL0     O92952   6.017   4.396   4.876 -0.0271  0.4837 -0.0134
  705MOL0     C92953   6.103   4.388   4.774  0.3615 -0.0117  0.3620
  705MOL0     C92954   6.159   4.499   4.699  0.3338 -0.0835 -0.2125
  705MOL0     C92955   6.262   4.469   4.604 -0.3622  0.3427 -0.3929
  705MOL0     C92956   6.304   4.340   4.574 -0.7616  0.6495 -0.0128
  705MOL0     C92957   6.398   4.318   4.472 -0.2407  0.2710  0.7034
  705MOL0     O92958   6.486   4.217   4.503 -0.3491  0.1536 -0.6053
  705MOL0     C92959   6.557   4.149   4.403  0.6620 -0.8559  0.1769
  705MOL0     C92960   6.669   4.070   4.449  0.0744  0.4170 -0.3732
  705MOL0     C92961   6.752   4.004   4.350 -0.7718  0.5395 -0.2772
  705MOL0     C92962   6.730   4.026   4.219  0.5614  0.9248 -0.0229
  705MOL0     O92963   6.827   3.988   4.129 -0.1052 -0.9523  1.0468
  705MOL0     C92964   6.813   4.014   3.988 -0.5427 -0.0029  0.7522
  705MOL0     C92965   6.839   4.167   3.954 -0.8703 -0.0023  0.0322
  705MOL0     C92966   6.837   4.180   3.799 -0.5797  0.5529 -0.5534
  705MOL0     C92967   6.956   4.100   3.738 -0.4499  1.0464 -0.5052
  705MOL0     C92968   7.006   4.175   3.608 -0.1649 -0.3226 -0.6716
  705MOL0     C92969   7.096   4.082   3.526 -0.1522  0.4303  0.2117
  705MOL0     C92970   7.211   4.165   3.475 -0.3117 -0.1569  0.1637
  705MOL0     C92971   7.309   4.070   3.401 -0.2065  0.9765 -0.0140
  705MOL0    Cl92972   7.410   4.175   3.294 -0.3981  0.0753  0.2031
  705MOL0     C92973   6.615   4.085   4.170 -0.1036 -0.0522 -0.3325
  705MOL0     C92974   6.530   4.145   4.267  0.5480  0.0693  0.3717
  705MOL0     O92975   6.393   4.377   4.368 -0.4597 -0.0816  0.1850
  705MOL0     C92976   6.239   4.237   4.638 -0.2704  0.3356 -0.2570
  705MOL0     C92977   6.145   4.256   4.740  0.8612 -0.0487  0.5424
  705MOL0     N92978   6.204   4.725   5.153 -0.9100  0.0524  0.8693
  705MOL0     N92979   6.322   4.733   5.089  0.7505 -0.1994  0.5145
  705MOL0     C92980   6.619   4.493   4.165  0.0546  0.0491 -0.8518
  705MOL0     C92981   6.506   4.503   4.081 -0.2622 -0.0491 -0.8573
  705MOL0     C92982   6.289   4.640   3.668 -0.6385  0.5405  1.2498
  705MOL0     C92983   6.304   4.702   3.541 -1.0945 -0.3561 -0.3224
  705MOL0     C92984   6.207   4.684   3.441  0.2170  0.3997 -0.3740
  705MOL0     C92985   6.085   4.622   3.468  0.1141 -0.0040 -0.4271
  705MOL0     O92986   5.984   4.613   3.374  0.4502  0.1761  0.0640
  705MOL0     C92987   5.847   4.584   3.408  0.1394 -0.0802 -0.1415
  705MOL0     C92988   5.760   4.599   3.287  0.1241 -0.7848 -0.9239
  705MOL0     C92989   5.756   4.748   3.251 -1.0931 -1.9075  0.0001
  705MOL0     C92990   5.624   4.773   3.174  0.0028 -1.2201  0.1074
  705MOL0     C92991   5.630   4.687   3.050 -0.1405 -0.2585 -0.1271
  705MOL0     C92992   5.635   4.615   2.953  0.8762  0.2609  0.5786
  705MOL0     C92993   6.063   4.567   3.599 -0.2222  0.2006 -0.6824
  705MOL0     C92994   6.168   4.576   3.696  0.4789 -0.4592 -0.8105
  705MOL0     H92995   6.653   4.601   3.800  1.5684  1.4274  0.2892
  705MOL0     H92996   6.857   4.576   3.939 -0.1409 -0.2169 -1.6043
  705MOL0     H92997   6.931   4.320   4.248 -0.5977  0.0476 -0.3570
  705MOL0     H92998   6.763   4.315   4.277  0.5249 -0.0858  0.6248
  705MOL0     H92999   6.964   4.492   4.437 -0.4879  0.9405 -1.4360
  705MOL0     H93000   6.918   4.322   4.465 -0.4520 -0.3429 -0.6042
  705MOL0     H93001   6.684   4.392   4.499  0.7661 -0.4900  0.9088
  705MOL0     H93002   6.737   4.568   4.474 -2.5535  0.6012  3.6112
  705MOL0     H93003   6.814   4.376   4.701 -1.7777 -0.8457  0.9472
  705MOL0     H93004   6.873   4.547   4.692 -0.1039  0.9214 -1.2040
  705MOL0     H93005   6.608   4.432   4.762 -0.9198  0.2772 -1.1400
  705MOL0     H93006   6.593   4.568   4.664  0.2342  0.2701  0.3031
  705MOL0     H93007   6.755   4.693   4.815  0.0882  0.3274  1.2177
  705MOL0     H93008   6.739   4.569   4.944 -2.9405  0.9022  2.5793
  705MOL0     H93009   6.617   4.734   5.000  0.8877  4.2197 -3.6414
  705MOL0     H93010   6.521   4.733   4.848  0.8348 -0.1853  0.1826
  705MOL0     H93011   6.544   4.497   5.034 -0.7046  0.8425  1.4315
  705MOL0     H93012   6.421   4.522   4.900 -0.0421  3.3999 -2.9885
  705MOL0     H93013   6.318   4.410   5.140  0.9138 -0.6381 -1.6516
  705MOL0     H93014   6.050   4.619   5.329 -0.3424 -0.8799  1.0408
  705MOL0     H93015   6.129   4.470   5.350 -0.4846  1.3956  2.5961
  705MOL0     H93016   5.916   4.421   5.255 -0.5036  0.6227  0.2339
  705MOL0     H93017   6.028   4.358   5.159 -1.0408 -0.3021 -2.0315
  705MOL0     H93018   5.828   4.488   5.034 -0.5944  2.7884 -1.8717
  705MOL0     H93019   5.903   4.644   5.062 -1.5938 -0.5290 -1.5995
  705MOL0     H93020   6.114   4.568   4.933  0.1202  0.3306 -1.0681
  705MOL0     H93021   5.968   4.590   4.853 -2.1802 -2.4890 -1.7705
  705MOL0     H93022   6.139   4.605   4.710  1.8344  0.6085 -3.1762
  705MOL0     H93023   6.305   4.554   4.553 -3.7953  1.2218 -2.1371
  705MOL0     H93024   6.714   4.055   4.547  0.8496 -3.0684 -1.1452
  705MOL0     H93025   6.827   3.932   4.383 -1.9982  0.7725  3.5378
  705MOL0     H93026   6.728   3.975   3.932  0.9092 -0.9712 -0.8982
  705MOL0     H93027   6.891   3.953   3.940 -1.4543 -3.3953  3.2262
  705MOL0     H93028   6.928   4.212   3.998 -1.0955  1.3726 -0.8681
  705MOL0     H93029   6.758   4.221   4.003 -0.7801 -0.6746  0.9449
  705MOL0     H93030   6.854   4.286   3.779  6.2385  0.0043 -0.0195
  705MOL0     H93031   6.736   4.155   3.765 -1.0162  2.0402 -0.4030
  705MOL0     H93032   7.038   4.076   3.806 -0.7020  0.2836 -0.4668
  705MOL0     H93033   6.917   4.005   3.701  4.1258 -2.0207  1.6262
  705MOL0     H93034   7.069   4.258   3.642  2.2969 -1.5004 -2.1250
  705MOL0     H93035   6.920   4.214   3.553  0.6915 -0.3967 -2.1063
  705MOL0     H93036   7.034   4.044   3.445  1.5589  2.0809 -2.0132
  705MOL0     H93037   7.129   3.995   3.584 -3.9268  0.4418  2.6511
  705MOL0     H93038   7.173   4.229   3.395  2.3030 -1.2096 -2.0634
  705MOL0     H93039   7.252   4.230   3.552 -0.0206  0.2190 -0.3035
  705MOL0     H93040   7.246   3.997   3.349 -0.7347  1.9221 -0.7377
  705MOL0     H93041   7.370   4.017   3.475 -0.2243  1.1675  0.1384
  705MOL0     H93042   6.586   4.093   4.066 -0.4186 -0.1504 -0.2558
  705MOL0     H93043   6.437   4.196   4.243 -0.0279 -0.2728  1.7338
  705MOL0     H93044   6.271   4.144   4.593 -0.5709 -0.4118  1.0215
  705MOL0     H93045   6.108   4.169   4.794  3.0118 -1.7090 -0.5165
  705MOL0     H93046   6.616   4.468   4.270 -1.1538 -0.2934 -0.9602
  705MOL0     H93047   6.407   4.482   4.119  0.5617 -0.3068  1.3506
  705MOL0     H93048   6.399   4.752   3.525 -2.4125  2.7989  0.7903
  705MOL0     H93049   6.207   4.741   3.348  0.3630  1.1096  0.0518
  705MOL0     H93050   5.809   4.641   3.493 -0.4430  0.2898 -0.6436
  705MOL0     H93051   5.851   4.481   3.444  0.5097 -0.0527 -0.0957
  705MOL0     H93052   5.798   4.533   3.209  2.4667  0.1964 -0.6937
  705MOL0     H93053   5.659   4.572   3.321  0.2058 -0.1254 -0.1131
  705MOL0     H93054   5.848   4.770   3.197 -0.6337 -1.5656  0.9019
  705MOL0     H93055   5.756   4.813   3.339  1.6561 -2.2532  0.3196
  705MOL0     H93056   5.538   4.739   3.233 -3.8885  1.4165 -3.4291
  705MOL0     H93057   5.615   4.882   3.168 -2.2802 -1.2256  1.8775
  705MOL0     H93058   5.619   4.559   2.864 -1.4538 -2.0973  2.3014
  705MOL0     H93059   5.972   4.510   3.610 -0.6211  0.7152 -1.2487
  705MOL0     H93060   6.141   4.532   3.792 -0.4266 -2.1167 -1.7841
  706MOL0     O93061  10.783   6.981   2.954 -0.5240  0.9680 -1.0214
  706MOL0     C93062  10.869   6.996   2.871  1.0293 -0.4207 -0.0450
  706MOL0     O93063  10.868   6.921   2.750 -0.2723 -0.6899 -0.0905
  706MOL0     C93064  10.767   6.842   2.713  0.9188 -0.8909 -0.2852
  706MOL0     C93065  10.773   6.708   2.743 -0.2933  0.0729 -0.1695
  706MOL0     C93066  10.677   6.623   2.685 -1.3487  0.3161 -0.4274
  706MOL0     C93067  10.575   6.671   2.604  0.4170 -0.1770 -0.0594
  706MOL0     O93068  10.482   6.593   2.543  0.4383  0.3755  0.2106
  706MOL0     C93069  10.464   6.456   2.592  0.3223  0.7844  0.7586
  706MOL0     C93070  10.325   6.423   2.548  0.9730  0.2693 -0.1627
  706MOL0     C93071  10.292   6.279   2.601  0.5254  0.5538 -0.2964
  706MOL0     C93072  10.145   6.246   2.550  0.5247 -0.2795 -1.1606
  706MOL0     C93073  10.103   6.097   2.581 -0.6048  0.2787 -0.0467
  706MOL0     C93074  10.054   6.099   2.728 -0.9158 -0.1358 -0.1507
  706MOL0     C93075  10.049   5.958   2.791  0.0745 -0.2166 -0.3826
  706MOL0     C93076   9.942   5.873   2.712 -0.0368 -0.8058 -0.6872
  706MOL0     N93077   9.918   5.750   2.799  0.5402  0.0166  0.1531
  706MOL0     C93078  10.000   5.640   2.803  0.7312  0.0111  1.5580
  706MOL0     C93079   9.932   5.548   2.877  0.5102 -0.6444 -0.7416
  706MOL0     C93080   9.983   5.411   2.900  0.2133 -0.3169  0.2480
  706MOL0     C93081   9.951   5.309   2.785  0.2633  0.2968 -0.3571
  706MOL0     C93082   9.806   5.279   2.769  0.6399  0.0882 -0.1602
  706MOL0     C93083   9.753   5.198   2.896  0.5284 -0.4073 -0.4009
  706MOL0     O93084   9.638   5.127   2.880 -0.1493  0.4077  0.7228
  706MOL0     C93085   9.516   5.199   2.885 -0.9480 -0.1067  0.1207
  706MOL0     C93086   9.502   5.336   2.913 -0.1504  0.0421  0.2877
  706MOL0     C93087   9.388   5.408   2.905 -0.3131 -0.3553  0.6321
  706MOL0     C93088   9.270   5.336   2.875  0.0652 -0.0802  1.6474
  706MOL0     C93089   9.135   5.403   2.861  0.3116 -0.4430 -0.7865
  706MOL0     O93090   9.025   5.335   2.805 -0.0916 -0.5064  0.5722
  706MOL0     C93091   8.911   5.406   2.774 -0.9343 -0.4818  0.9894
  706MOL0     C93092   8.811   5.332   2.708 -0.0436  0.1324 -0.6258
  706MOL0     C93093   8.692   5.387   2.673 -1.7123 -0.4125  0.3649
  706MOL0     C93094   8.664   5.519   2.696  0.0691  0.2700  1.2182
  706MOL0     O93095   8.540   5.571   2.672  0.0858 -0.2911  0.1953
  706MOL0     C93096   8.423   5.501   2.634 -0.0860  0.4149  0.1567
  706MOL0     C93097   8.319   5.607   2.616  0.4323 -0.0419 -0.1495
  706MOL0     C93098   8.278   5.656   2.756  0.0081  0.4690 -0.5874
  706MOL0     C93099   8.140   5.732   2.746  0.0178 -0.2634  0.4497
  706MOL0     C93100   8.025   5.627   2.736  0.8115  0.7899  0.5231
  706MOL0     C93101   7.885   5.667   2.783  0.6759  0.0757  1.0329
  706MOL0     C93102   7.771   5.678   2.686 -0.1220 -0.4201 -0.0526
  706MOL0     C93103   7.780   5.796   2.587  0.1713 -0.0468 -0.1650
  706MOL0    Cl93104   7.697   5.921   2.673  0.0293 -0.1744  0.6369
  706MOL0     C93105   8.774   5.594   2.744 -0.2683 -0.6792  0.5575
  706MOL0     C93106   8.895   5.541   2.778 -0.4917 -0.3799 -0.4197
  706MOL0     O93107   9.135   5.506   2.931  0.0388  0.6317  0.5014
  706MOL0     C93108   9.280   5.193   2.849 -0.7083 -0.0074 -0.1445
  706MOL0     C93109   9.401   5.134   2.849 -1.4518  0.9139  0.0672
  706MOL0     N93110   9.814   5.607   2.919  0.1776 -0.1503 -0.3952
  706MOL0     N93111   9.810   5.727   2.877  0.6404 -0.1001 -0.8339
  706MOL0     C93112  10.578   6.805   2.576 -0.5343 -0.3077 -0.3617
  706MOL0     C93113  10.672   6.897   2.628 -0.1860  0.2603  0.7980
  706MOL0     C93114  10.990   7.077   2.891  0.3905  0.2902  0.6100
  706MOL0     C93115  11.056   7.116   2.773 -0.3796  0.4708  0.0468
  706MOL0     C93116  11.172   7.199   2.795 -0.0712 -0.1865  0.0815
  706MOL0     C93117  11.224   7.231   2.927 -0.5353 -0.3746  0.8862
  706MOL0     O93118  11.340   7.289   2.949  0.3550 -1.0805  0.1979
  706MOL0     C93119  11.425   7.339   2.849 -1.0564 -0.1145  0.1968
  706MOL0     C93120  11.544   7.409   2.897 -0.0538  0.3711  0.2922
  706MOL0     C93121  11.588   7.512   2.800 -0.1951  0.0664  0.8090
  706MOL0     C93122  11.710   7.592   2.864  0.7967 -0.7093 -0.4717
  706MOL0     C93123  11.832   7.553   2.793 -0.5298 -0.1224 -0.3558
  706MOL0     C93124  11.933   7.524   2.726  0.9910  0.0221 -1.2052
  706MOL0     C93125  11.153   7.192   3.031 -0.0027  0.2726  1.1008
  706MOL0     C93126  11.040   7.119   3.018  0.4902  0.0362  0.0735
  706MOL0     H93127  10.848   6.670   2.812 -0.1311  0.4782 -0.1175
  706MOL0     H93128  10.705   6.518   2.691  1.0832  0.9284  0.0091
  706MOL0     H93129  10.468   6.455   2.702 -1.3873  0.7181  0.8416
  706MOL0     H93130  10.535   6.386   2.547 -1.0308  0.1720 -0.4822
  706MOL0     H93131  10.321   6.418   2.439 -0.1183 -1.3102 -0.0902
  706MOL0     H93132  10.252   6.495   2.588 -2.4363 -2.2078 -1.3951
  706MOL0     H93133  10.302   6.274   2.710  3.0983 -1.4101 -0.5444
  706MOL0     H93134  10.362   6.206   2.560 -0.4129 -0.8958  0.6083
  706MOL0     H93135  10.069   6.310   2.595  1.3974  0.7441 -1.0900
  706MOL0     H93136  10.126   6.268   2.444 -2.6661 -1.2856 -0.8819
  706MOL0     H93137  10.184   6.025   2.569  0.3694  0.4017  4.1098
  706MOL0     H93138  10.017   6.058   2.526  0.3496 -2.2122  0.1181
  706MOL0     H93139   9.962   6.155   2.745 -0.8630 -0.5836  1.8490
  706MOL0     H93140  10.127   6.155   2.786  1.1112  0.1484 -2.7683
  706MOL0     H93141  10.149   5.913   2.791  0.5754  0.6332  2.9256
  706MOL0     H93142  10.027   5.972   2.897 -0.4417  2.1798 -0.7435
  706MOL0     H93143   9.971   5.841   2.611 -0.4811 -0.5837 -0.8873
  706MOL0     H93144   9.850   5.929   2.697  0.5260 -0.5370 -3.8544
  706MOL0     H93145  10.092   5.631   2.747  0.4770  0.8752  0.9779
  706MOL0     H93146   9.933   5.365   2.985  1.3622  0.3914  1.3487
  706MOL0     H93147  10.091   5.417   2.917  0.4603 -3.7809  0.5206
  706MOL0     H93148  10.005   5.215   2.802 -2.7541 -1.4296  0.5085
  706MOL0     H93149   9.976   5.354   2.689  0.4629 -0.4348 -0.6518
  706MOL0     H93150   9.754   5.375   2.761  1.6511  0.5272 -2.5347
  706MOL0     H93151   9.780   5.213   2.685 -0.5265 -1.3278  1.2358
  706MOL0     H93152   9.749   5.264   2.984  2.4635  0.3144 -0.8036
  706MOL0     H93153   9.832   5.125   2.916  2.2489  1.5961  0.6518
  706MOL0     H93154   9.589   5.388   2.952 -0.8911  2.3184 -0.8721
  706MOL0     H93155   9.370   5.510   2.937  1.2308  0.5940 -1.3269
  706MOL0     H93156   8.834   5.228   2.684  1.4187  0.4114 -0.5115
  706MOL0     H93157   8.609   5.323   2.642 -0.2161 -2.9831  1.3966
  706MOL0     H93158   8.388   5.424   2.703 -1.1634 -0.3179 -1.1594
  706MOL0     H93159   8.427   5.457   2.534  0.6936  0.7356  0.0428
  706MOL0     H93160   8.232   5.579   2.555  0.5030  2.1058 -1.3449
  706MOL0     H93161   8.363   5.689   2.559 -0.3109  0.8044  0.4629
  706MOL0     H93162   8.360   5.713   2.801 -0.5501  1.0268 -0.2613
  706MOL0     H93163   8.265   5.570   2.823 -1.0083  1.2535  0.2533
  706MOL0     H93164   8.131   5.797   2.833 -1.8674  1.0771 -0.6572
  706MOL0     H93165   8.147   5.794   2.655  0.9862 -1.2796 -0.1897
  706MOL0     H93166   8.064   5.553   2.806  2.7778 -0.2048 -1.4602
  706MOL0     H93167   8.014   5.571   2.642 -0.5794  0.5455  0.8110
  706MOL0     H93168   7.885   5.766   2.830 -0.6268  0.7722 -0.3694
  706MOL0     H93169   7.850   5.592   2.854 -3.4259  1.5626  0.8265
  706MOL0     H93170   7.771   5.584   2.629 -1.0411 -0.7669  0.4947
  706MOL0     H93171   7.681   5.676   2.749  1.5535 -0.4006  2.5276
  706MOL0     H93172   7.737   5.770   2.490  0.8078  0.7204 -0.6634
  706MOL0     H93173   7.879   5.833   2.558  0.8501 -3.0626 -2.2831
  706MOL0     H93174   8.756   5.699   2.764  0.5672 -0.8581  2.4983
  706MOL0     H93175   8.957   5.624   2.810 -2.3409  0.4907  1.0925
  706MOL0     H93176   9.196   5.127   2.828 -0.7538  0.0783 -0.2353
  706MOL0     H93177   9.407   5.028   2.826  0.2516  1.3053 -1.5617
  706MOL0     H93178  10.497   6.851   2.520  1.6441  0.8217 -2.8054
  706MOL0     H93179  10.672   6.998   2.588 -2.1079  0.2828  0.7513
  706MOL0     H93180  11.024   7.082   2.675 -0.0153  2.6235 -0.8657
  706MOL0     H93181  11.220   7.238   2.707 -0.5359 -1.2801 -0.6756
  706MOL0     H93182  11.376   7.413   2.785  0.0859 -2.0121 -3.1356
  706MOL0     H93183  11.467   7.262   2.784 -2.6363  0.0758 -1.1101
  706MOL0     H93184  11.510   7.471   2.980 -3.4106 -1.7175  0.6432
  706MOL0     H93185  11.631   7.348   2.922  0.6254  1.2454  0.1091
  706MOL0     H93186  11.506   7.576   2.767  2.0925  1.5691 -2.5151
  706MOL0     H93187  11.609   7.456   2.708 -1.7535 -0.4432  0.7314
  706MOL0     H93188  11.691   7.699   2.851  0.7233 -0.4517  1.4577
  706MOL0     H93189  11.722   7.576   2.971  2.9132  0.8296 -0.4095
  706MOL0     H93190  12.011   7.476   2.670  0.6698 -1.3003 -0.5379
  706MOL0     H93191  11.188   7.230   3.127  1.5444 -2.1724  1.5899
  706MOL0     H93192  10.991   7.073   3.104 -2.3153  1.4739 -0.6297
  707MOL0     O93193   4.034   8.177   9.549  0.5169  0.6363 -0.4806
  707MOL0     C93194   4.022   8.217   9.436 -0.1734 -0.1870  0.8083
  707MOL0     O93195   4.125   8.259   9.349  0.7403  0.0173  0.1250
  707MOL0     C93196   4.249   8.255   9.386 -0.3788 -0.6051 -0.4844
  707MOL0     C93197   4.309   8.134   9.420  1.0307  0.8789 -0.3238
  707MOL0     C93198   4.432   8.123   9.476  0.5111  0.7284  0.1848
  707MOL0     C93199   4.513   8.235   9.473 -0.3700 -0.0824  0.6732
  707MOL0     O93200   4.639   8.229   9.520  0.1254 -0.1639  0.2494
  707MOL0     C93201   4.722   8.128   9.460 -1.2694  0.9574  0.0131
  707MOL0     C93202   4.847   8.190   9.402 -0.0059  0.1713  1.1121
  707MOL0     C93203   4.961   8.221   9.500  0.0601 -0.2679  0.2826
  707MOL0     C93204   5.087   8.256   9.426  0.5592 -0.6689 -0.0741
  707MOL0     C93205   5.220   8.249   9.505  0.1223  0.2087 -0.3562
  707MOL0     C93206   5.266   8.099   9.506  0.9880  0.0450 -0.1152
  707MOL0     C93207   5.366   8.084   9.625 -0.0590  0.3575 -0.5859
  707MOL0     C93208   5.492   8.170   9.603 -0.1066  0.0348 -0.8597
  707MOL0     N93209   5.617   8.101   9.647 -0.5213  0.0284 -0.7995
  707MOL0     C93210   5.698   8.014   9.579  0.1627  0.4841  0.4386
  707MOL0     C93211   5.815   7.995   9.651  0.6907  0.1703  0.5017
  707MOL0     C93212   5.929   7.906   9.623  0.7029 -1.4955  0.5415
  707MOL0     C93213   5.906   7.784   9.533  0.1687 -0.5524  0.0891
  707MOL0     C93214   5.809   7.674   9.600  0.4006 -0.2639 -0.5680
  707MOL0     C93215   5.823   7.543   9.527 -0.5256 -0.6813 -0.2457
  707MOL0     O93216   5.715   7.467   9.573  0.3533  0.4358 -1.1080
  707MOL0     C93217   5.665   7.382   9.478  0.1694 -0.0908  0.7876
  707MOL0     C93218   5.651   7.251   9.514 -0.7020 -0.1962 -0.0263
  707MOL0     C93219   5.572   7.171   9.426 -0.4684 -0.3393  0.2131
  707MOL0     C93220   5.499   7.220   9.320  0.1381 -0.3785  0.4338
  707MOL0     C93221   5.415   7.129   9.231  0.0691  0.1914  0.6852
  707MOL0     O93222   5.376   7.004   9.266  0.3267 -0.3613  0.6673
  707MOL0     C93223   5.316   6.931   9.177 -0.0840  0.4903 -0.9217
  707MOL0     C93224   5.355   6.791   9.185  0.0913  0.0636  0.3013
  707MOL0     C93225   5.309   6.700   9.085 -0.0487  0.8365 -0.0404
  707MOL0     C93226   5.234   6.744   8.976  0.2574  0.1824  0.2382
  707MOL0     O93227   5.197   6.654   8.872  0.7554  0.3756 -0.5410
  707MOL0     C93228   5.067   6.605   8.888 -0.4606 -0.3085 -0.5180
  707MOL0     C93229   5.056   6.486   8.789  0.0202 -0.3269 -0.2958
  707MOL0     C93230   4.912   6.423   8.819  0.2205  0.3504 -0.0916
  707MOL0     C93231   4.800   6.518   8.770 -0.9248  1.6007 -0.0444
  707MOL0     C93232   4.685   6.445   8.700  0.7773 -0.1685  0.2990
  707MOL0     C93233   4.626   6.350   8.804 -0.4533 -0.6439  0.4670
  707MOL0     C93234   4.505   6.285   8.752  0.1519 -0.6687 -0.3591
  707MOL0     C93235   4.457   6.166   8.832  0.2296  0.8045 -0.7139
  707MOL0    Cl93236   4.299   6.112   8.769  0.0008 -0.1846  0.3011
  707MOL0     C93237   5.196   6.878   8.971  0.3686 -1.0499 -0.7261
  707MOL0     C93238   5.226   6.972   9.081 -1.4345  0.6484 -0.4876
  707MOL0     O93239   5.409   7.172   9.112 -0.4770  0.8284  0.4588
  707MOL0     C93240   5.525   7.349   9.280  0.0510 -0.0796  0.6325
  707MOL0     C93241   5.590   7.433   9.363 -0.4142  0.5099 -0.1300
  707MOL0     N93242   5.800   8.081   9.755 -0.4043 -0.7303  0.1717
  707MOL0     N93243   5.685   8.137   9.756 -0.0482 -0.0926 -0.2344
  707MOL0     C93244   4.468   8.349   9.416 -0.1097  0.4652  0.2368
  707MOL0     C93245   4.334   8.361   9.378 -0.7111  0.4402 -0.4516
  707MOL0     C93246   3.889   8.203   9.367  0.1845 -0.3142 -0.6580
  707MOL0     C93247   3.778   8.157   9.442 -0.5332 -0.2782 -0.0020
  707MOL0     C93248   3.653   8.135   9.376 -0.5860  0.5883  0.0104
  707MOL0     C93249   3.628   8.186   9.245 -1.7857  0.8007 -0.3627
  707MOL0     O93250   3.493   8.178   9.211  0.2658 -0.3935 -0.2916
  707MOL0     C93251   3.438   8.182   9.078 -0.0434  0.9341  0.6937
  707MOL0     C93252   3.485   8.071   8.992  0.7404  0.2846  1.1048
  707MOL0     C93253   3.395   8.063   8.862  0.3673  0.7574  0.4216
  707MOL0     C93254   3.456   7.970   8.759 -0.2145  0.1576 -1.3255
  707MOL0     C93255   3.566   8.042   8.690  0.1519 -0.0996 -0.2387
  707MOL0     C93256   3.657   8.096   8.632  0.3938  0.1769  1.0486
  707MOL0     C93257   3.741   8.238   9.170 -0.6612 -0.0433 -1.1477
  707MOL0     C93258   3.871   8.234   9.228  0.0130 -0.1251 -0.7030
  707MOL0     H93259   4.260   8.038   9.417  3.7582 -0.5937 -1.4660
  707MOL0     H93260   4.460   8.022   9.505  0.3004 -0.1807 -2.5148
  707MOL0     H93261   4.673   8.069   9.382 -2.2317 -1.4226  2.2397
  707MOL0     H93262   4.751   8.054   9.535 -0.5945  1.1528 -0.0554
  707MOL0     H93263   4.813   8.286   9.360 -0.8349  0.1124  1.6261
  707MOL0     H93264   4.887   8.122   9.327 -1.1804  0.7568 -0.1014
  707MOL0     H93265   4.977   8.132   9.562  2.2882 -0.8764 -1.0303
  707MOL0     H93266   4.941   8.305   9.567 -0.8170  1.6492 -2.2199
  707MOL0     H93267   5.104   8.192   9.338 -0.2352 -2.1656  0.8182
  707MOL0     H93268   5.075   8.353   9.377 -1.3022 -0.1962  1.2139
  707MOL0     H93269   5.198   8.285   9.605  2.8630 -0.2430  0.4913
  707MOL0     H93270   5.305   8.298   9.457 -0.2275  0.0719 -1.1420
  707MOL0     H93271   5.309   8.076   9.408  2.9311 -0.9156  0.8943
  707MOL0     H93272   5.179   8.032   9.513  2.4141 -2.2154 -2.2716
  707MOL0     H93273   5.325   8.106   9.724 -3.9487 -0.6969 -1.8034
  707MOL0     H93274   5.392   7.978   9.621  0.8279  0.5604 -0.6478
  707MOL0     H93275   5.474   8.265   9.654 -1.8550  0.7743 -2.7053
  707MOL0     H93276   5.508   8.203   9.500  1.7389  0.7079 -0.3926
  707MOL0     H93277   5.672   7.967   9.485  0.1180 -2.2067  1.6942
  707MOL0     H93278   5.971   7.880   9.721  2.0438  3.7602  1.6766
  707MOL0     H93279   6.007   7.971   9.583  1.0275 -0.7788  2.2138
  707MOL0     H93280   6.003   7.732   9.522 -0.1051 -0.5348 -4.2120
  707MOL0     H93281   5.870   7.808   9.433  0.4679 -0.6402 -0.0430
  707MOL0     H93282   5.825   7.654   9.706 -3.6704 -1.4144 -0.0048
  707MOL0     H93283   5.708   7.713   9.585 -0.7404 -3.0623 -0.8314
  707MOL0     H93284   5.917   7.491   9.545  1.0632  1.5061 -1.6796
  707MOL0     H93285   5.822   7.555   9.418  0.9655 -1.6082 -0.3892
  707MOL0     H93286   5.701   7.216   9.604  0.6116 -2.0839 -1.4122
  707MOL0     H93287   5.560   7.068   9.458 -1.4554 -0.0361  0.8756
  707MOL0     H93288   5.408   6.752   9.271 -0.4461 -2.8295 -0.5649
  707MOL0     H93289   5.337   6.596   9.104 -0.4922  0.9656  1.5046
  707MOL0     H93290   4.991   6.679   8.859 -0.8025 -0.5384 -0.2053
  707MOL0     H93291   5.055   6.575   8.992 -1.1747 -1.0092 -0.7959
  707MOL0     H93292   5.131   6.409   8.811 -1.9668 -2.5497 -0.8250
  707MOL0     H93293   5.074   6.508   8.683  1.6819  2.2304  0.4462
  707MOL0     H93294   4.904   6.399   8.926  1.2523 -1.7245 -0.4236
  707MOL0     H93295   4.908   6.323   8.774 -1.9022 -0.3803  1.5294
  707MOL0     H93296   4.771   6.561   8.866 -3.0680  0.7196 -0.2362
  707MOL0     H93297   4.847   6.592   8.704  0.8741 -0.9057 -1.7614
  707MOL0     H93298   4.714   6.397   8.607 -0.6400 -0.0363 -0.2335
  707MOL0     H93299   4.613   6.526   8.686  1.0041  0.7966  3.6834
  707MOL0     H93300   4.588   6.410   8.887  1.3186  0.2297  0.6843
  707MOL0     H93301   4.696   6.275   8.841 -0.8014 -1.8030 -1.0765
  707MOL0     H93302   4.423   6.356   8.745 -0.8977 -1.8918 -0.8193
  707MOL0     H93303   4.525   6.244   8.653 -0.6383 -0.5845 -0.5534
  707MOL0     H93304   4.441   6.180   8.939  3.4880 -2.3212  0.3934
  707MOL0     H93305   4.535   6.092   8.814  0.4497  0.6614  0.7583
  707MOL0     H93306   5.147   6.922   8.885 -0.2642  1.3014  0.7284
  707MOL0     H93307   5.179   7.070   9.090 -2.4223  0.0997  0.7451
  707MOL0     H93308   5.481   7.384   9.188  0.6710 -0.7800  0.0575
  707MOL0     H93309   5.587   7.540   9.347 -3.1338  0.3708 -1.0919
  707MOL0     H93310   4.517   8.444   9.435 -0.1667  0.2491  1.5873
  707MOL0     H93311   4.306   8.464   9.360  4.3488  1.9634 -1.0959
  707MOL0     H93312   3.788   8.144   9.550 -0.4738  2.4782  0.3983
  707MOL0     H93313   3.579   8.100   9.447  0.8916 -2.3351  0.2846
  707MOL0     H93314   3.470   8.279   9.040  2.2017  0.8863  2.2861
  707MOL0     H93315   3.329   8.179   9.086 -0.1229 -1.2966 -0.4721
  707MOL0     H93316   3.594   8.079   8.980  0.4741  3.3497 -0.2222
  707MOL0     H93317   3.464   7.978   9.046 -0.9541 -0.6806 -1.0751
  707MOL0     H93318   3.361   8.162   8.832 -3.0741  0.1260  1.7923
  707MOL0     H93319   3.300   8.011   8.880  0.2456  0.1648 -1.6407
  707MOL0     H93320   3.498   7.875   8.793 -0.8165 -0.3901 -2.0759
  707MOL0     H93321   3.381   7.939   8.686 -0.8723  2.4701 -1.7280
  707MOL0     H93322   3.744   8.124   8.576 -0.4599 -0.3415 -0.6146
  707MOL0     H93323   3.732   8.265   9.066  2.8088  2.5656 -0.9547
  707MOL0     H93324   3.949   8.287   9.173 -2.4127  2.4183 -1.9547
  708MOL0     O93325   3.174   1.273   6.698 -0.0930  0.1559  1.2354
  708MOL0     C93326   3.059   1.234   6.697  0.2860 -0.8121 -0.6115
  708MOL0     O93327   2.977   1.252   6.811 -0.3386 -0.1107  0.8316
  708MOL0     C93328   3.036   1.284   6.927 -0.4956 -0.3220 -0.3283
  708MOL0     C93329   3.027   1.195   7.039  0.3564  0.0768 -0.2942
  708MOL0     C93330   3.095   1.208   7.160 -0.2670 -0.0304  0.1472
  708MOL0     C93331   3.158   1.328   7.186 -0.3104 -0.8202  0.4713
  708MOL0     O93332   3.216   1.359   7.312  0.0394  1.0156  0.4083
  708MOL0     C93333   3.329   1.452   7.322 -0.0799 -0.4329  0.0353
  708MOL0     C93334   3.412   1.439   7.458 -0.8756  0.1366  0.2643
  708MOL0     C93335   3.563   1.421   7.419 -0.8109  1.0849  0.1569
  708MOL0     C93336   3.600   1.270   7.396  1.2299  0.5368  0.8854
  708MOL0     C93337   3.751   1.253   7.375 -0.3508 -0.0955 -0.1906
  708MOL0     C93338   3.781   1.103   7.357 -0.0510 -0.2823  0.3100
  708MOL0     C93339   3.934   1.069   7.351  0.5748 -0.2685  0.5263
  708MOL0     C93340   3.969   0.913   7.355  1.0007 -0.1178  0.1129
  708MOL0     N93341   3.953   0.848   7.229  0.4359 -0.1337 -0.3695
  708MOL0     C93342   3.853   0.862   7.140 -0.3505 -0.1481  0.0456
  708MOL0     C93343   3.884   0.779   7.038 -0.6610  0.0076 -0.6373
  708MOL0     C93344   3.797   0.734   6.928  1.0581 -0.1184  0.7527
  708MOL0     C93345   3.734   0.593   6.966 -0.0785  0.3637 -0.6282
  708MOL0     C93346   3.640   0.528   6.877  0.4749 -0.1147  0.0572
  708MOL0     C93347   3.704   0.446   6.773 -1.0170  0.1019  0.6434
  708MOL0     O93348   3.604   0.415   6.674 -0.4057  0.2022  0.0255
  708MOL0     C93349   3.637   0.306   6.594  0.1190 -0.2779  0.1210
  708MOL0     C93350   3.694   0.310   6.470 -0.5044 -0.1032  0.1560
  708MOL0     C93351   3.755   0.193   6.412  0.5470 -0.1346 -0.0647
  708MOL0     C93352   3.734   0.070   6.470 -0.4818  0.6430  0.5952
  708MOL0     C93353   3.785  -0.051   6.403 -0.1716  0.5904 -0.6548
  708MOL0     O93354   3.744  -0.178   6.445 -0.0810 -0.0569  0.5215
  708MOL0     C93355   3.790  -0.294   6.386 -0.1291 -0.1148 -1.1433
  708MOL0     C93356   3.782  -0.326   6.254 -0.1342 -0.4191  0.2307
  708MOL0     C93357   3.824  -0.453   6.204  0.3600  0.1484 -0.6741
  708MOL0     C93358   3.880  -0.548   6.297  0.1828  0.5100  0.1801
  708MOL0     O93359   3.925  -0.667   6.242  0.0345  0.6160  0.2185
  708MOL0     C93360   3.920  -0.792   6.309  0.3953 -0.1738  0.8183
  708MOL0     C93361   4.015  -0.901   6.260  0.6962  0.3239  0.4088
  708MOL0     C93362   4.167  -0.862   6.246 -0.5804 -0.1136  0.2799
  708MOL0     C93363   4.224  -0.799   6.373  0.4096 -0.2193 -0.9389
  708MOL0     C93364   4.375  -0.772   6.365  0.6156 -0.9377  0.1042
  708MOL0     C93365   4.397  -0.687   6.245 -0.7819 -0.8064 -0.6174
  708MOL0     C93366   4.535  -0.607   6.224  0.4931  0.4611 -0.2303
  708MOL0     C93367   4.659  -0.699   6.224  0.3877 -0.1644 -0.9985
  708MOL0    Cl93368   4.658  -0.796   6.080 -0.5673 -0.1802 -0.2016
  708MOL0     C93369   3.891  -0.510   6.438 -0.4535  0.4798 -0.4551
  708MOL0     C93370   3.840  -0.390   6.474  0.2837  0.6854 -0.5024
  708MOL0     O93371   3.870  -0.031   6.312  0.5432 -0.3464 -0.2232
  708MOL0     C93372   3.651   0.056   6.586  0.0618  0.2501 -0.4999
  708MOL0     C93373   3.621   0.176   6.658  0.1381 -0.5893  0.1141
  708MOL0     N93374   4.001   0.723   7.060  0.7157  0.0242 -0.0997
  708MOL0     N93375   4.047   0.768   7.169 -0.1138  1.0971 -0.9640
  708MOL0     C93376   3.168   1.423   7.083  0.0255 -0.0281 -0.2491
  708MOL0     C93377   3.113   1.399   6.956 -0.7438 -0.0264 -0.3520
  708MOL0     C93378   3.001   1.158   6.590  0.1383  0.2656  0.5170
  708MOL0     C93379   2.869   1.110   6.590 -0.3846 -0.4852 -0.2944
  708MOL0     C93380   2.824   1.032   6.488  0.0328  0.5049  0.0996
  708MOL0     C93381   2.911   0.999   6.385 -0.3964 -0.6743 -0.3169
  708MOL0     O93382   2.881   0.918   6.276  0.8299  0.3467 -0.6824
  708MOL0     C93383   2.752   0.939   6.206 -0.1317  0.0800 -1.2229
  708MOL0     C93384   2.770   0.923   6.061  0.4959 -0.0268 -0.0059
  708MOL0     C93385   2.645   0.960   5.991  0.5037  0.1302 -0.2573
  708MOL0     C93386   2.658   0.940   5.841 -0.2585  0.0939 -0.4194
  708MOL0     C93387   2.653   0.796   5.810  0.9255  0.3269 -0.0025
  708MOL0     C93388   2.657   0.673   5.811  0.8214 -0.2864 -0.5965
  708MOL0     C93389   3.038   1.052   6.385  0.0281  0.3107 -0.7733
  708MOL0     C93390   3.081   1.124   6.490 -0.8706 -0.4123  0.0667
  708MOL0     H93391   2.958   1.111   7.032 -0.4628  0.6246  0.8712
  708MOL0     H93392   3.101   1.135   7.240  1.5306 -2.0406 -1.6721
  708MOL0     H93393   3.285   1.552   7.316 -0.4492 -0.5229  1.0052
  708MOL0     H93394   3.396   1.441   7.236  1.2598  0.0606  0.9794
  708MOL0     H93395   3.367   1.358   7.516 -1.6839  0.0583 -0.4450
  708MOL0     H93396   3.401   1.524   7.524 -0.7562  1.2444 -1.0891
  708MOL0     H93397   3.623   1.458   7.502 -0.0239 -0.3160  0.2293
  708MOL0     H93398   3.595   1.475   7.329 -0.0140 -2.5472 -1.9404
  708MOL0     H93399   3.581   1.204   7.482 -0.4493 -1.8395 -1.1681
  708MOL0     H93400   3.537   1.235   7.314 -2.1906  4.1080  1.6774
  708MOL0     H93401   3.802   1.298   7.461 -2.3785  1.5268  0.2278
  708MOL0     H93402   3.784   1.298   7.281  1.0024  1.4632  0.9674
  708MOL0     H93403   3.724   1.076   7.268 -0.5140 -0.6438  0.7036
  708MOL0     H93404   3.729   1.053   7.440 -0.7750  3.5621  2.4190
  708MOL0     H93405   3.985   1.107   7.262  1.6595  2.0552  2.0481
  708MOL0     H93406   3.974   1.117   7.440  0.5290 -1.8203  1.4247
  708MOL0     H93407   3.912   0.865   7.435  1.2096 -0.0020  0.3321
  708MOL0     H93408   4.075   0.908   7.381  1.1985  0.6811 -0.5118
  708MOL0     H93409   3.756   0.908   7.154  0.4409  1.0712  1.8700
  708MOL0     H93410   3.865   0.723   6.842  0.2809 -0.2996  0.1528
  708MOL0     H93411   3.722   0.806   6.897 -1.0397 -2.6258 -0.3944
  708MOL0     H93412   3.686   0.599   7.064 -0.7140  1.6752 -0.9992
  708MOL0     H93413   3.813   0.518   6.978 -1.4498 -0.7980  2.0615
  708MOL0     H93414   3.569   0.467   6.934  0.6317  1.3838  1.9400
  708MOL0     H93415   3.583   0.608   6.828 -0.9574 -1.1655 -0.0665
  708MOL0     H93416   3.760   0.359   6.807  0.9117 -0.0120 -2.3767
  708MOL0     H93417   3.783   0.503   6.723 -1.3719 -1.0639 -1.3823
  708MOL0     H93418   3.700   0.395   6.403 -1.6442 -2.5399 -3.3340
  708MOL0     H93419   3.801   0.224   6.319 -0.4087 -0.1602 -0.5578
  708MOL0     H93420   3.745  -0.254   6.181 -0.9306 -1.8183 -0.7934
  708MOL0     H93421   3.803  -0.475   6.100 -2.2583 -1.1318  0.0553
  708MOL0     H93422   3.818  -0.834   6.310  1.5465 -3.2608  1.5676
  708MOL0     H93423   3.950  -0.768   6.411 -1.8986 -0.6997  1.6825
  708MOL0     H93424   3.975  -0.940   6.166 -1.8358 -1.8193  2.2298
  708MOL0     H93425   4.007  -0.986   6.328 -2.3052  0.6079  0.5334
  708MOL0     H93426   4.173  -0.789   6.165  2.7194  2.2545  2.3996
  708MOL0     H93427   4.210  -0.960   6.226 -1.4550 -0.9261  2.2120
  708MOL0     H93428   4.183  -0.699   6.394  0.5886  0.2734 -2.7518
  708MOL0     H93429   4.190  -0.860   6.457 -1.7546  0.5454 -1.1988
  708MOL0     H93430   4.438  -0.861   6.372  3.3058  0.8936  0.5277
  708MOL0     H93431   4.411  -0.713   6.450  1.6352 -0.0264 -0.9218
  708MOL0     H93432   4.327  -0.603   6.242 -1.2157 -1.0336  1.5504
  708MOL0     H93433   4.378  -0.748   6.157 -1.1643 -1.1171 -0.3211
  708MOL0     H93434   4.535  -0.548   6.132  1.2329  1.1160  0.1687
  708MOL0     H93435   4.541  -0.524   6.296  0.2748  0.9688 -0.7880
  708MOL0     H93436   4.659  -0.752   6.319 -1.3938 -1.2552 -1.5676
  708MOL0     H93437   4.737  -0.622   6.223 -0.0945  0.3486 -0.3372
  708MOL0     H93438   3.933  -0.572   6.517 -0.8916  0.4609 -0.2343
  708MOL0     H93439   3.853  -0.367   6.579 -0.5705  1.1572 -0.4929
  708MOL0     H93440   3.631  -0.044   6.623 -0.3443  1.1627  1.9176
  708MOL0     H93441   3.574   0.162   6.755  1.8554 -0.9954  0.9429
  708MOL0     H93442   3.231   1.510   7.098 -2.2799  2.0632 -1.7648
  708MOL0     H93443   3.125   1.476   6.879 -1.8348  0.9970  0.4628
  708MOL0     H93444   2.807   1.141   6.674  1.2737 -0.1939  0.8854
  708MOL0     H93445   2.718   1.011   6.484  0.0115  0.7760 -2.7441
  708MOL0     H93446   2.714   1.037   6.237  2.6935  1.5819 -2.1590
  708MOL0     H93447   2.683   0.868   6.252  1.1633  1.3904  3.3775
  708MOL0     H93448   2.861   0.977   6.031  2.5887 -2.0940  2.1947
  708MOL0     H93449   2.786   0.822   6.024 -4.1367 -0.3704 -1.6571
  708MOL0     H93450   2.624   1.066   6.010  3.2231  0.8828 -1.0732
  708MOL0     H93451   2.563   0.905   6.038  3.6604 -1.8103  3.6359
  708MOL0     H93452   2.587   1.003   5.786 -0.5138 -2.0055 -2.6979
  708MOL0     H93453   2.760   0.974   5.820  0.1277  0.1081  1.3756
  708MOL0     H93454   2.650   0.567   5.809 -0.1771 -0.3594 -5.4891
  708MOL0     H93455   3.098   1.018   6.301 -0.8134 -2.1058 -0.4645
  708MOL0     H93456   3.186   1.150   6.482 -0.3834 -2.7944 -3.2942
  709MOL0     O93457   8.154   2.846   4.496  0.9494  0.0415 -0.1807
  709MOL0     C93458   8.077   2.759   4.539 -0.8857  0.4587  0.3725
  709MOL0     O93459   8.109   2.667   4.630  0.1889 -0.3228  0.3293
  709MOL0     C93460   8.236   2.677   4.681 -0.2993  0.3841  0.6090
  709MOL0     C93461   8.254   2.723   4.818 -0.0085  0.1459  0.0171
  709MOL0     C93462   8.383   2.716   4.865 -0.0452 -0.1331  0.1586
  709MOL0     C93463   8.492   2.663   4.789 -0.0049  0.2738  0.2394
  709MOL0     O93464   8.606   2.665   4.859  0.0075  0.1747  0.3298
  709MOL0     C93465   8.715   2.594   4.801 -1.3545  0.3554 -0.5675
  709MOL0     C93466   8.817   2.562   4.917 -0.0450 -0.3072 -0.5756
  709MOL0     C93467   8.932   2.489   4.867 -0.0359 -0.9886 -0.2769
  709MOL0     C93468   9.028   2.571   4.776  0.9268 -0.6990  0.4230
  709MOL0     C93469   9.151   2.487   4.762  0.4402 -0.8640  1.3822
  709MOL0     C93470   9.254   2.580   4.669  0.1954  0.2286 -0.5564
  709MOL0     C93471   9.213   2.586   4.523  0.3356 -0.1244 -0.5075
  709MOL0     C93472   9.334   2.624   4.434 -0.4323  0.4588  0.5841
  709MOL0     N93473   9.412   2.745   4.456  0.1915 -0.3666  0.4669
  709MOL0     C93474   9.547   2.758   4.458 -0.7064  1.5169  0.4039
  709MOL0     C93475   9.566   2.892   4.473 -0.1742 -0.7259  0.0851
  709MOL0     C93476   9.697   2.959   4.473  0.3001 -0.9547 -0.2791
  709MOL0     C93477   9.739   3.005   4.615  0.6311  0.4421 -0.1148
  709MOL0     C93478   9.743   2.892   4.722  0.1505  0.0471  0.0489
  709MOL0     C93479   9.788   2.958   4.850  0.0569  0.2364 -1.0796
  709MOL0     O93480   9.921   2.995   4.839 -0.5397 -0.6231  0.6548
  709MOL0     C93481  10.011   2.977   4.943  0.0668 -0.2198 -0.5295
  709MOL0     C93482  10.118   2.895   4.922 -0.0527 -0.0575  0.6824
  709MOL0     C93483  10.207   2.863   5.020 -0.1499  0.6179  0.3868
  709MOL0     C93484  10.205   2.922   5.142  0.3720  0.0393  1.0409
  709MOL0     C93485  10.320   2.895   5.229 -0.5732  0.1696 -0.5727
  709MOL0     O93486  10.329   2.981   5.341 -0.0458  0.3311 -0.3003
  709MOL0     C93487  10.430   2.970   5.439  0.3428 -0.2573  0.7507
  709MOL0     C93488  10.511   3.076   5.461 -0.8321 -0.3692 -0.3122
  709MOL0     C93489  10.609   3.076   5.563  0.0631  0.3667  0.1985
  709MOL0     C93490  10.635   2.954   5.628  0.0962  0.0711 -0.0623
  709MOL0     O93491  10.749   2.951   5.702  0.1583  0.2772 -0.1799
  709MOL0     C93492  10.738   2.876   5.826 -1.3185 -0.5782 -0.2511
  709MOL0     C93493  10.847   2.909   5.941  0.3268  0.0335  0.1344
  709MOL0     C93494  10.862   3.057   5.972  0.0591 -0.9539 -0.0358
  709MOL0     C93495  10.960   3.061   6.087  0.2761 -0.7073 -0.2896
  709MOL0     C93496  11.024   3.201   6.096 -0.5585  0.9488 -0.4777
  709MOL0     C93497  11.111   3.226   6.210 -1.0282 -0.2775 -0.4335
  709MOL0     C93498  11.240   3.144   6.211  0.7421 -0.4371  0.2421
  709MOL0     C93499  11.327   3.162   6.338 -0.3590 -0.3349 -0.2596
  709MOL0    Cl93500  11.393   3.327   6.343 -0.3383 -0.1884  0.0307
  709MOL0     C93501  10.547   2.843   5.608  0.3708 -0.3052  1.2041
  709MOL0     C93502  10.444   2.848   5.513 -0.4198 -0.4887  0.5507
  709MOL0     O93503  10.404   2.807   5.201 -0.5832 -1.0960 -1.3703
  709MOL0     C93504  10.104   3.013   5.168  1.2218  0.2369 -0.1585
  709MOL0     C93505  10.010   3.029   5.070 -0.7584  0.1391  0.8340
  709MOL0     N93506   9.441   2.946   4.479 -0.8719 -0.2185  0.1918
  709MOL0     N93507   9.350   2.862   4.471  0.0331  0.0390  0.5665
  709MOL0     C93508   8.470   2.630   4.653  0.7442 -0.8872  0.4876
  709MOL0     C93509   8.340   2.631   4.598  0.7639  0.8645 -0.8269
  709MOL0     C93510   7.932   2.769   4.507  0.7801  0.5373 -0.6473
  709MOL0     C93511   7.834   2.685   4.578 -1.4993  0.2025  0.0989
  709MOL0     C93512   7.696   2.695   4.550 -0.3900 -0.3997  0.5230
  709MOL0     C93513   7.648   2.789   4.460 -0.2047  0.1800  0.1199
  709MOL0     O93514   7.512   2.812   4.434  0.8917 -0.1365 -0.3545
  709MOL0     C93515   7.457   2.904   4.524  0.2864 -0.1221 -0.3837
  709MOL0     C93516   7.403   2.826   4.649 -0.3106  0.3270  0.2170
  709MOL0     C93517   7.306   2.913   4.725 -0.5386 -0.0078  0.4959
  709MOL0     C93518   7.261   2.849   4.845  0.5455  0.2444 -0.0941
  709MOL0     C93519   7.140   2.913   4.901  0.1154  1.4824 -0.8316
  709MOL0     C93520   7.054   2.981   4.963 -0.2796  0.1282 -0.0013
  709MOL0     C93521   7.737   2.851   4.371 -0.1176 -0.7890 -0.1109
  709MOL0     C93522   7.882   2.854   4.400  0.6713 -0.6672 -1.0426
  709MOL0     H93523   8.176   2.776   4.871 -0.1001  0.2995 -0.2670
  709MOL0     H93524   8.400   2.755   4.965  1.0778  3.2588 -1.2010
  709MOL0     H93525   8.755   2.661   4.724 -4.3383  0.5470 -2.0755
  709MOL0     H93526   8.681   2.501   4.755  0.3517 -0.5327 -0.1281
  709MOL0     H93527   8.768   2.502   4.994  3.0204  0.2855  2.0476
  709MOL0     H93528   8.854   2.650   4.970 -0.0940  0.1423 -1.2624
  709MOL0     H93529   8.906   2.391   4.828 -2.5508 -0.4620 -0.0999
  709MOL0     H93530   8.991   2.477   4.959  1.0678  2.5881 -0.3569
  709MOL0     H93531   8.984   2.582   4.677  1.1366  1.9499  0.5444
  709MOL0     H93532   9.043   2.670   4.820 -2.9875  0.8155 -1.2020
  709MOL0     H93533   9.127   2.393   4.710 -1.5462 -0.7074  1.9677
  709MOL0     H93534   9.196   2.468   4.860  0.4005  2.4705  2.1612
  709MOL0     H93535   9.357   2.543   4.675 -0.5175 -1.6267  1.3831
  709MOL0     H93536   9.247   2.683   4.705  1.4347 -0.1590  0.8918
  709MOL0     H93537   9.171   2.490   4.493  2.0208 -0.4738 -1.8947
  709MOL0     H93538   9.134   2.661   4.508  0.5248  0.0754 -0.5097
  709MOL0     H93539   9.306   2.633   4.329 -1.2237  1.8059  0.8882
  709MOL0     H93540   9.405   2.541   4.443 -0.5871  0.3674  1.0106
  709MOL0     H93541   9.616   2.676   4.441  1.8595  3.6139  0.2185
  709MOL0     H93542   9.694   3.053   4.417  1.7006  1.2213  2.9885
  709MOL0     H93543   9.762   2.886   4.423  0.3973  0.4353 -2.3336
  709MOL0     H93544   9.676   3.088   4.648  1.4951  1.0538  0.0255
  709MOL0     H93545   9.839   3.048   4.609  0.4826  1.2264  2.2420
  709MOL0     H93546   9.643   2.850   4.734 -0.6618  1.7472 -0.4814
  709MOL0     H93547   9.813   2.814   4.689 -0.4258  0.7803 -3.3216
  709MOL0     H93548   9.777   2.897   4.940 -1.9233  0.8479 -0.8585
  709MOL0     H93549   9.734   3.051   4.870 -0.1373 -0.5664  2.9433
  709MOL0     H93550  10.124   2.838   4.830  0.2569 -0.9478  1.2502
  709MOL0     H93551  10.279   2.791   4.984 -0.5129  0.5107 -0.1435
  709MOL0     H93552  10.494   3.163   5.398  0.2707  0.8535  1.0190
  709MOL0     H93553  10.671   3.162   5.588 -0.0193  0.9790 -1.5537
  709MOL0     H93554  10.741   2.770   5.799 -0.1653 -0.4674 -0.6060
  709MOL0     H93555  10.635   2.896   5.857 -2.6575 -0.6908 -4.1149
  709MOL0     H93556  10.934   2.859   5.897  0.9593  1.2579 -0.0593
  709MOL0     H93557  10.814   2.864   6.035  0.2571  0.9196  0.5400
  709MOL0     H93558  10.781   3.123   6.006  0.5744 -0.3218 -0.0196
  709MOL0     H93559  10.891   3.109   5.880 -0.9312 -0.8104 -0.2857
  709MOL0     H93560  10.903   3.039   6.178 -2.3707  0.9855 -1.4264
  709MOL0     H93561  11.043   2.993   6.066  0.6047  0.2055 -2.1704
  709MOL0     H93562  10.942   3.274   6.096 -1.2896  0.2000  1.5433
  709MOL0     H93563  11.080   3.205   6.002 -0.8770  2.2462 -0.6337
  709MOL0     H93564  11.053   3.206   6.300  1.3744 -0.8342  1.0741
  709MOL0     H93565  11.145   3.330   6.200  3.4900 -1.4196  0.8726
  709MOL0     H93566  11.201   3.042   6.199  0.5805 -0.6710  2.3604
  709MOL0     H93567  11.302   3.170   6.125 -0.8884 -0.8413 -1.1188
  709MOL0     H93568  11.409   3.090   6.332 -0.1908 -0.0025 -2.9867
  709MOL0     H93569  11.284   3.126   6.432  0.1262  0.6998  0.3712
  709MOL0     H93570  10.561   2.744   5.650  4.8188 -1.1602 -1.5251
  709MOL0     H93571  10.381   2.761   5.494 -2.8256  0.5348  3.1065
  709MOL0     H93572  10.105   3.056   5.268  4.6712  0.6463 -0.2579
  709MOL0     H93573   9.936   3.105   5.096  0.7364  2.0905 -0.3603
  709MOL0     H93574   8.553   2.610   4.586  0.9777  0.9610  0.1831
  709MOL0     H93575   8.332   2.611   4.492  1.6263  1.3087 -0.9902
  709MOL0     H93576   7.868   2.613   4.651  0.8376  0.0839 -1.0186
  709MOL0     H93577   7.624   2.636   4.605  1.5245 -1.7372  1.7369
  709MOL0     H93578   7.373   2.951   4.471  0.7123 -1.9239 -2.8342
  709MOL0     H93579   7.519   2.982   4.568 -0.4461 -0.7109  1.8426
  709MOL0     H93580   7.360   2.733   4.612 -2.0054  1.2941 -0.4023
  709MOL0     H93581   7.495   2.817   4.707  2.1163  2.2722 -3.0123
  709MOL0     H93582   7.230   2.947   4.653 -0.2001 -0.3922 -0.0529
  709MOL0     H93583   7.357   3.008   4.743 -2.1341  1.1971 -0.9197
  709MOL0     H93584   7.230   2.745   4.834 -3.0927  1.1543  0.3528
  709MOL0     H93585   7.342   2.844   4.919  1.8452 -0.1880 -1.5036
  709MOL0     H93586   6.989   3.045   5.019  0.4676 -1.8056  3.3581
  709MOL0     H93587   7.709   2.907   4.282  3.0692  1.5253  0.2121
  709MOL0     H93588   7.950   2.907   4.334 -1.9694 -0.6236 -3.9534
  710MOL0     O93589  10.292   1.519   8.079  0.2660  1.0759 -0.4368
  710MOL0     C93590  10.197   1.590   8.058  0.2965 -0.3202  0.9864
  710MOL0     O93591  10.068   1.563   8.088 -0.0123 -0.7980  0.1490
  710MOL0     C93592  10.012   1.452   8.133  0.1679  1.0546  1.2571
  710MOL0     C93593  10.077   1.338   8.168  0.5334  0.8457 -0.3484
  710MOL0     C93594   9.999   1.240   8.229  0.5451  0.4341 -0.4835
  710MOL0     C93595   9.859   1.250   8.240  0.2916 -0.0465  0.0397
  710MOL0     O93596   9.788   1.150   8.298 -0.3044  0.0281 -0.4359
  710MOL0     C93597   9.828   1.142   8.442  1.1793  1.1661 -1.0671
  710MOL0     C93598   9.754   1.012   8.501  0.8012 -0.8964  0.8203
  710MOL0     C93599   9.784   0.880   8.432 -1.3044 -0.8787  0.5640
  710MOL0     C93600   9.660   0.792   8.427  0.3930 -0.4376  0.0798
  710MOL0     C93601   9.624   0.748   8.569 -1.0964  0.9273  0.8155
  710MOL0     C93602   9.509   0.650   8.553  0.1221  0.1082  0.5552
  710MOL0     C93603   9.469   0.590   8.689 -0.4035 -0.6156  0.6679
  710MOL0     C93604   9.565   0.469   8.716  0.1072  1.0794 -0.4661
  710MOL0     N93605   9.511   0.363   8.807 -0.1299  0.2756 -0.2064
  710MOL0     C93606   9.480   0.233   8.785 -0.3579  0.9633  0.7017
  710MOL0     C93607   9.486   0.167   8.899  0.2385  0.2385  0.7554
  710MOL0     C93608   9.455   0.023   8.923 -0.1526  0.5021  0.2451
  710MOL0     C93609   9.584  -0.047   8.927  0.0511 -0.1013 -0.2551
  710MOL0     C93610   9.574  -0.204   8.945  0.3978  0.1856  0.4956
  710MOL0     C93611   9.715  -0.264   8.911  1.4650 -0.7737  0.1727
  710MOL0     O93612   9.807  -0.247   9.020  0.1868  0.0686  0.2804
  710MOL0     C93613   9.938  -0.278   9.007 -0.3132  0.1512  0.5734
  710MOL0     C93614  10.008  -0.332   9.117  1.1241 -0.3769  0.0611
  710MOL0     C93615  10.148  -0.359   9.108  1.3329  0.1382 -0.7020
  710MOL0     C93616  10.222  -0.305   9.000  0.0351  0.9913 -1.1561
  710MOL0     C93617  10.370  -0.322   9.005 -0.4078 -0.7941 -0.0032
  710MOL0     O93618  10.441  -0.259   8.900 -0.0305  0.9638  0.2775
  710MOL0     C93619  10.584  -0.286   8.888  0.1092  0.3689  0.1329
  710MOL0     C93620  10.658  -0.403   8.929  0.4459 -0.6741  0.0699
  710MOL0     C93621  10.797  -0.407   8.910  0.4469  0.3276  0.6451
  710MOL0     C93622  10.865  -0.302   8.845  0.0678 -0.5095  0.2865
  710MOL0     O93623  11.002  -0.293   8.829  0.4745  0.0139  0.1235
  710MOL0     C93624  11.085  -0.357   8.932 -0.6564  0.3216 -0.2276
  710MOL0     C93625  11.139  -0.477   8.863 -0.8748 -0.0819  0.2668
  710MOL0     C93626  11.259  -0.526   8.947 -0.2090  0.1166 -1.0047
  710MOL0     C93627  11.387  -0.428   8.958 -0.3551 -0.1054 -0.4575
  710MOL0     C93628  11.518  -0.505   8.980  0.4016  0.5552  0.7756
  710MOL0     C93629  11.634  -0.413   9.004 -0.1594 -0.8358  0.7505
  710MOL0     C93630  11.634  -0.365   9.145  0.2668 -0.3875 -0.4946
  710MOL0     C93631  11.738  -0.260   9.151  0.2030 -1.1710  0.0700
  710MOL0    Cl93632  11.901  -0.333   9.111 -0.2341  0.2244 -0.3009
  710MOL0     C93633  10.791  -0.194   8.791 -0.8997 -0.8092 -0.5991
  710MOL0     C93634  10.652  -0.185   8.810  0.1240  0.2133 -1.1076
  710MOL0     O93635  10.416  -0.405   9.091  0.4677 -0.5825 -0.4262
  710MOL0     C93636  10.153  -0.254   8.886 -0.3643  0.0890  0.6798
  710MOL0     C93637  10.014  -0.244   8.886  0.5146  0.5439 -0.8603
  710MOL0     N93638   9.503   0.249   8.997 -0.3718 -0.4229 -0.1609
  710MOL0     N93639   9.525   0.369   8.942 -0.5760  0.4826 -0.2763
  710MOL0     C93640   9.791   1.355   8.186 -0.0875 -0.8424 -0.1748
  710MOL0     C93641   9.869   1.453   8.131 -0.1369 -0.3385 -0.3185
  710MOL0     C93642  10.232   1.708   7.979 -0.7777  0.2107 -0.3171
  710MOL0     C93643  10.368   1.770   7.987  0.3007 -0.9287  0.4216
  710MOL0     C93644  10.385   1.889   7.918 -0.2851  0.7303  0.2785
  710MOL0     C93645  10.279   1.945   7.843 -0.3257  0.4640 -0.6963
  710MOL0     O93646  10.313   2.065   7.792 -0.2111  0.0536 -0.7349
  710MOL0     C93647  10.240   2.126   7.687  0.8647  0.2078  0.6494
  710MOL0     C93648  10.289   2.276   7.692  0.0557 -0.2089  0.7044
  710MOL0     C93649  10.444   2.273   7.659  0.3185  0.3816  0.0263
  710MOL0     C93650  10.508   2.412   7.635 -0.1918 -0.6622 -0.6337
  710MOL0     C93651  10.450   2.516   7.717 -0.2443  0.5167  0.0820
  710MOL0     C93652  10.385   2.580   7.796 -1.4505  0.0751  1.4037
  710MOL0     C93653  10.158   1.889   7.839 -0.0563  0.2965 -1.1419
  710MOL0     C93654  10.131   1.771   7.907 -0.3189 -0.7660 -0.2261
  710MOL0     H93655  10.184   1.341   8.150  0.1349  3.1243 -3.0275
  710MOL0     H93656  10.054   1.155   8.268 -0.2642 -1.0924 -2.4964
  710MOL0     H93657   9.799   1.238   8.486  0.9679 -0.4188  2.6855
  710MOL0     H93658   9.936   1.128   8.449  0.8500 -1.0852  1.5611
  710MOL0     H93659   9.647   1.031   8.496  0.5965 -0.6102  4.1989
  710MOL0     H93660   9.787   1.011   8.605  0.4033  0.3922  0.9802
  710MOL0     H93661   9.868   0.841   8.490 -0.3885  2.9263  2.0455
  710MOL0     H93662   9.810   0.899   8.327 -0.7837 -0.1443  0.8214
  710MOL0     H93663   9.574   0.836   8.375  1.0767  1.5373  0.5396
  710MOL0     H93664   9.697   0.712   8.362  1.6531  2.0637 -2.4986
  710MOL0     H93665   9.587   0.833   8.627 -0.9877  2.3337 -1.0747
  710MOL0     H93666   9.705   0.698   8.622 -1.0677 -0.4750 -0.4968
  710MOL0     H93667   9.536   0.578   8.476 -1.3799 -2.5062  2.3279
  710MOL0     H93668   9.424   0.691   8.498 -0.0419 -1.8652 -0.7480
  710MOL0     H93669   9.479   0.664   8.770 -0.4311 -0.4768  0.5447
  710MOL0     H93670   9.367   0.551   8.684 -1.1017  1.1914  0.0148
  710MOL0     H93671   9.660   0.501   8.759 -0.2828  0.5123  0.8973
  710MOL0     H93672   9.582   0.421   8.619 -1.9032 -2.5983  0.7900
  710MOL0     H93673   9.478   0.187   8.687  1.2258  0.3319  0.9393
  710MOL0     H93674   9.385  -0.019   8.851 -0.8328  2.0684 -0.0446
  710MOL0     H93675   9.407   0.017   9.021 -0.7912  0.9750 -0.0368
  710MOL0     H93676   9.631  -0.003   9.016 -1.3519  3.2307 -0.9966
  710MOL0     H93677   9.643  -0.014   8.842  1.0576 -1.1062  0.0282
  710MOL0     H93678   9.520  -0.242   9.033  1.4380  0.1895  1.1493
  710MOL0     H93679   9.513  -0.241   8.862 -0.3851 -2.3210  2.0441
  710MOL0     H93680   9.754  -0.219   8.819  2.2071 -1.3029  0.2159
  710MOL0     H93681   9.704  -0.371   8.895 -0.3263 -0.7532  1.0445
  710MOL0     H93682   9.947  -0.365   9.201 -1.2733 -1.2057 -1.8739
  710MOL0     H93683  10.188  -0.420   9.189  0.6488  1.0021  0.3115
  710MOL0     H93684  10.608  -0.489   8.974 -0.4264  0.7637  2.0189
  710MOL0     H93685  10.841  -0.498   8.950  1.2064  0.9607  1.2629
  710MOL0     H93686  11.028  -0.390   9.019  0.4330 -0.6935  0.1276
  710MOL0     H93687  11.170  -0.292   8.953 -0.8888  1.0074 -1.3110
  710MOL0     H93688  11.178  -0.444   8.766  0.4960  0.5921  1.0266
  710MOL0     H93689  11.069  -0.561   8.855  0.2651 -1.0136 -0.3064
  710MOL0     H93690  11.291  -0.615   8.893  0.0171  0.3220 -1.2151
  710MOL0     H93691  11.237  -0.568   9.045 -0.7795  0.0165 -1.1727
  710MOL0     H93692  11.396  -0.362   8.871  0.7317 -1.0354 -1.0815
  710MOL0     H93693  11.369  -0.362   9.043 -1.0437 -3.9037  2.6500
  710MOL0     H93694  11.555  -0.541   8.884  0.9519  1.3628  0.6806
  710MOL0     H93695  11.520  -0.583   9.056  3.4960 -1.1171 -0.8399
  710MOL0     H93696  11.642  -0.329   8.935 -4.0654 -0.4752  0.5179
  710MOL0     H93697  11.724  -0.473   8.990  0.0729 -0.1249 -1.0489
  710MOL0     H93698  11.533  -0.340   9.177 -1.1070 -3.9287 -1.5504
  710MOL0     H93699  11.660  -0.445   9.216  0.7686  1.5203  1.5720
  710MOL0     H93700  11.739  -0.228   9.256 -3.1799 -3.5113  0.9811
  710MOL0     H93701  11.709  -0.177   9.086  0.0344 -1.7482 -0.6021
  710MOL0     H93702  10.849  -0.121   8.735  2.4248 -0.3206  3.0230
  710MOL0     H93703  10.596  -0.095   8.785  1.4499  1.1595 -0.7923
  710MOL0     H93704  10.214  -0.228   8.800 -1.6689  0.0487 -0.2886
  710MOL0     H93705   9.967  -0.194   8.802  0.1420 -1.2872 -1.7780
  710MOL0     H93706   9.683   1.365   8.177  0.1894  1.0964 -2.1097
  710MOL0     H93707   9.814   1.535   8.085  0.0191 -0.9667 -1.6670
  710MOL0     H93708  10.451   1.720   8.036  0.6395 -3.0013 -2.0638
  710MOL0     H93709  10.480   1.941   7.913 -0.5079  1.7666  3.7959
  710MOL0     H93710  10.130   2.127   7.693  0.5378  0.6918 -2.8614
  710MOL0     H93711  10.263   2.073   7.594  3.0507  1.2485  0.5602
  710MOL0     H93712  10.235   2.340   7.621 -0.3878 -0.6003  0.6838
  710MOL0     H93713  10.277   2.328   7.787  3.1779  0.3743  0.8744
  710MOL0     H93714  10.449   2.208   7.571  1.9675  1.7433 -0.9346
  710MOL0     H93715  10.491   2.221   7.743  0.3870 -0.5978 -0.6109
  710MOL0     H93716  10.614   2.394   7.655  0.2298  1.2396 -1.0148
  710MOL0     H93717  10.478   2.439   7.533 -0.2124  1.8592 -0.0303
  710MOL0     H93718  10.328   2.641   7.864  0.7010 -0.2645  3.6380
  710MOL0     H93719  10.073   1.926   7.783 -0.7679 -1.8332 -1.5399
  710MOL0     H93720  10.024   1.752   7.909 -1.3864  3.9630  0.0424
  711MOL0     O93721   4.102   6.546   1.848 -0.2559  0.0676 -0.1355
  711MOL0     C93722   4.019   6.509   1.931  0.5629 -0.0619  0.0807
  711MOL0     O93723   3.933   6.584   1.993 -0.0340 -0.3892 -0.3718
  711MOL0     C93724   3.933   6.716   1.956  0.6772  0.0432  0.2572
  711MOL0     C93725   3.860   6.755   1.838  0.0281  0.1803 -0.1135
  711MOL0     C93726   3.841   6.894   1.812 -0.1934  0.1226 -0.5424
  711MOL0     C93727   3.898   6.988   1.895  0.5458 -0.1730  0.4500
  711MOL0     O93728   3.887   7.125   1.883 -0.2210  0.5680  0.7622
  711MOL0     C93729   3.855   7.191   1.759 -0.0519  0.3315 -0.1903
  711MOL0     C93730   3.972   7.167   1.665 -0.0262  0.7638  0.3097
  711MOL0     C93731   4.097   7.264   1.680  0.4462  0.6167 -0.0837
  711MOL0     C93732   4.205   7.219   1.591  0.9426 -0.5017 -0.2494
  711MOL0     C93733   4.309   7.318   1.538 -0.4551 -0.4086  0.7125
  711MOL0     C93734   4.415   7.362   1.645  0.1228  0.0375 -0.0569
  711MOL0     C93735   4.455   7.510   1.622 -0.2279  0.5062  0.6502
  711MOL0     C93736   4.543   7.569   1.743 -0.5615  0.8173 -0.5634
  711MOL0     N93737   4.613   7.471   1.837  1.0692 -0.4929  0.5103
  711MOL0     C93738   4.731   7.412   1.815 -0.3259  0.0971 -0.2380
  711MOL0     C93739   4.773   7.368   1.937  0.2706 -1.2415 -0.5539
  711MOL0     C93740   4.902   7.281   1.973 -0.2347 -0.6083 -0.0057
  711MOL0     C93741   5.014   7.294   1.858  0.9292 -0.0664 -2.1503
  711MOL0     C93742   5.139   7.215   1.896  0.5433 -0.1475  0.0756
  711MOL0     C93743   5.259   7.266   1.812  0.7495  0.1703 -0.0160
  711MOL0     O93744   5.349   7.160   1.783  0.7836  0.1416  1.0441
  711MOL0     C93745   5.467   7.153   1.850 -0.8339  0.4850  0.4809
  711MOL0     C93746   5.472   7.170   1.990  0.6750  0.0699  0.7266
  711MOL0     C93747   5.595   7.157   2.063 -0.1051 -0.4277  0.1141
  711MOL0     C93748   5.715   7.138   1.992  0.8539  0.2390  0.6247
  711MOL0     C93749   5.843   7.130   2.068 -0.4821 -0.0095 -0.2347
  711MOL0     O93750   5.958   7.122   1.993 -0.6701 -0.4146  0.3880
  711MOL0     C93751   6.079   7.132   2.058  0.3475  0.2939 -0.2690
  711MOL0     C93752   6.119   7.073   2.182  1.4287  1.1183 -0.2078
  711MOL0     C93753   6.250   7.098   2.236  0.0863 -0.1344 -0.2963
  711MOL0     C93754   6.352   7.161   2.164 -0.7746 -0.5429 -0.2105
  711MOL0     O93755   6.478   7.151   2.217  0.0750  0.0780  0.3989
  711MOL0     C93756   6.577   7.238   2.149 -0.0909 -0.0882 -0.2613
  711MOL0     C93757   6.553   7.387   2.183 -0.2753  0.4220 -0.0509
  711MOL0     C93758   6.683   7.468   2.169 -0.3895  0.0724 -0.0115
  711MOL0     C93759   6.645   7.616   2.181 -0.0631 -0.5246  0.1478
  711MOL0     C93760   6.567   7.679   2.059 -0.2223 -0.4570  0.4557
  711MOL0     C93761   6.545   7.825   2.050 -0.2806 -1.3574  0.3856
  711MOL0     C93762   6.455   7.900   2.161  0.3127  0.1087 -0.1971
  711MOL0     C93763   6.312   7.926   2.123 -0.1389 -0.8625 -0.3527
  711MOL0    Cl93764   6.246   8.057   2.231 -0.2575  0.2086  0.0383
  711MOL0     C93765   6.318   7.218   2.044 -0.5847  0.5935 -0.5742
  711MOL0     C93766   6.186   7.205   1.996  0.4330 -0.8753  0.2546
  711MOL0     O93767   5.835   7.135   2.191  0.4429 -0.4053 -0.1941
  711MOL0     C93768   5.715   7.137   1.847  0.7092 -0.6325 -0.4991
  711MOL0     C93769   5.594   7.136   1.778  1.0396 -0.2898 -0.0076
  711MOL0     N93770   4.681   7.419   2.030 -0.1350 -0.2774  0.2912
  711MOL0     N93771   4.583   7.468   1.971 -0.4931 -0.1303  0.0578
  711MOL0     C93772   3.969   6.948   2.003  0.1740 -0.6118 -0.2877
  711MOL0     C93773   3.985   6.813   2.033 -0.1820 -0.8243 -0.5707
  711MOL0     C93774   4.027   6.370   1.973 -0.4262 -0.7187  0.0679
  711MOL0     C93775   3.932   6.313   2.058  0.6299  0.0854  0.0421
  711MOL0     C93776   3.942   6.172   2.093  0.1195 -0.6780  0.0465
  711MOL0     C93777   4.047   6.097   2.042 -1.0582 -0.5886  0.8760
  711MOL0     O93778   4.070   5.956   2.062 -0.8305  0.6941  1.1524
  711MOL0     C93779   3.990   5.892   2.156 -0.5587 -0.8663 -0.0753
  711MOL0     C93780   3.998   5.736   2.165 -0.1024 -0.8487 -0.6388
  711MOL0     C93781   3.961   5.679   2.027  0.6213  0.2490 -0.0562
  711MOL0     C93782   3.997   5.531   2.014  0.3377  1.0739 -0.6048
  711MOL0     C93783   3.951   5.473   1.891  0.0914 -0.0472 -0.0149
  711MOL0     C93784   3.893   5.419   1.797  0.1097 -0.0456 -0.5919
  711MOL0     C93785   4.139   6.159   1.957  0.0850 -0.1961 -0.5829
  711MOL0     C93786   4.139   6.294   1.931 -0.7009  0.0717 -1.3575
  711MOL0     H93787   3.811   6.675   1.784 -2.5377  1.3151  0.4038
  711MOL0     H93788   3.768   6.938   1.744 -0.8583 -2.2764 -1.4735
  711MOL0     H93789   3.841   7.296   1.787 -0.2001 -0.6126  3.8800
  711MOL0     H93790   3.756   7.158   1.724  0.1200 -3.0004  2.0947
  711MOL0     H93791   3.936   7.173   1.562  0.9682  0.4134 -0.0630
  711MOL0     H93792   4.002   7.064   1.690 -1.4479 -0.5798 -2.8911
  711MOL0     H93793   4.139   7.276   1.781 -0.2543 -1.4569  0.5149
  711MOL0     H93794   4.052   7.359   1.650 -0.5364  0.3800  0.5493
  711MOL0     H93795   4.253   7.131   1.635  0.4655 -1.5222 -1.6897
  711MOL0     H93796   4.150   7.181   1.504 -1.7829  1.0473  0.6759
  711MOL0     H93797   4.263   7.409   1.500  0.1459 -0.9179 -1.3535
  711MOL0     H93798   4.366   7.271   1.458  0.7836 -2.7008  2.8093
  711MOL0     H93799   4.503   7.299   1.640  0.0260 -0.1367  0.3386
  711MOL0     H93800   4.365   7.346   1.742 -2.3578 -2.3250 -1.5749
  711MOL0     H93801   4.490   7.532   1.521 -2.1962  1.1847  0.0865
  711MOL0     H93802   4.360   7.563   1.623 -1.4679 -1.5527 -0.3739
  711MOL0     H93803   4.487   7.641   1.803  1.5881  3.2452 -1.2677
  711MOL0     H93804   4.620   7.631   1.696  0.1006 -0.8293 -1.7702
  711MOL0     H93805   4.778   7.390   1.720 -2.2541  0.3551 -1.3117
  711MOL0     H93806   4.877   7.175   1.985  4.3373 -1.9437 -0.3761
  711MOL0     H93807   4.953   7.302   2.067  2.8544 -0.7553 -1.5050
  711MOL0     H93808   5.031   7.399   1.832  3.4407 -1.0065 -4.8538
  711MOL0     H93809   4.972   7.244   1.770 -0.3247 -1.5366 -0.7634
  711MOL0     H93810   5.167   7.224   2.002  2.5336  2.4769 -0.5757
  711MOL0     H93811   5.117   7.110   1.871  2.3821 -1.3535  2.9644
  711MOL0     H93812   5.304   7.349   1.866 -0.9834  1.4791 -0.4879
  711MOL0     H93813   5.224   7.308   1.717 -1.3584 -0.4349  0.4392
  711MOL0     H93814   5.377   7.181   2.042  0.3253  0.1454  0.0916
  711MOL0     H93815   5.590   7.127   2.167  0.7083 -0.6583  0.0951
  711MOL0     H93816   6.041   7.027   2.241  2.8316  0.7152  1.4113
  711MOL0     H93817   6.270   7.057   2.335  0.9522 -1.4388 -0.9864
  711MOL0     H93818   6.576   7.223   2.041  0.9351  0.3107 -0.3424
  711MOL0     H93819   6.676   7.222   2.193 -0.6159  0.1561  1.0613
  711MOL0     H93820   6.522   7.395   2.287 -0.6173  2.7161 -0.2651
  711MOL0     H93821   6.484   7.437   2.114  1.9896 -0.3366 -3.0910
  711MOL0     H93822   6.720   7.466   2.066 -0.8564  0.0759 -0.1823
  711MOL0     H93823   6.748   7.439   2.253  0.4610  0.5808 -0.4808
  711MOL0     H93824   6.584   7.622   2.271  1.6160 -3.9387  1.7383
  711MOL0     H93825   6.744   7.660   2.197  1.2799 -0.9858 -4.9368
  711MOL0     H93826   6.468   7.638   2.038 -0.1602  0.8758 -3.0691
  711MOL0     H93827   6.615   7.660   1.962 -1.9870  0.6503 -0.7005
  711MOL0     H93828   6.502   7.846   1.952 -0.5453 -2.3271  0.2752
  711MOL0     H93829   6.648   7.859   2.059 -0.4834 -0.7779  0.5200
  711MOL0     H93830   6.452   7.839   2.252 -0.3320  0.8477  0.2820
  711MOL0     H93831   6.492   7.997   2.194 -0.7856 -0.1007  1.7874
  711MOL0     H93832   6.258   7.831   2.130 -1.3497 -0.1135  0.7291
  711MOL0     H93833   6.308   7.965   2.021 -0.7658  2.3212  0.7960
  711MOL0     H93834   6.387   7.259   1.972  2.0834 -1.8130  0.3979
  711MOL0     H93835   6.152   7.261   1.910 -1.1357 -2.3084 -0.1043
  711MOL0     H93836   5.806   7.137   1.788  0.0465  1.5974 -1.6503
  711MOL0     H93837   5.592   7.130   1.670 -0.8709  2.6423 -0.2489
  711MOL0     H93838   4.022   7.028   2.055  1.5855 -2.0804  0.6434
  711MOL0     H93839   4.027   6.796   2.132 -3.7203  2.1249  1.7039
  711MOL0     H93840   3.853   6.369   2.106  1.5714  0.5458  1.0799
  711MOL0     H93841   3.887   6.136   2.179  2.4127 -3.2350  0.5930
  711MOL0     H93842   3.885   5.914   2.135 -0.8388 -1.8915  0.1731
  711MOL0     H93843   4.021   5.934   2.252 -0.6750  0.8119 -0.7346
  711MOL0     H93844   4.103   5.713   2.181  0.5440  1.0542 -1.7827
  711MOL0     H93845   3.947   5.698   2.254 -0.6773  2.3366  0.5585
  711MOL0     H93846   4.024   5.724   1.950 -0.5024  0.4211 -0.9109
  711MOL0     H93847   3.854   5.689   2.003  1.1521  2.0642 -1.9642
  711MOL0     H93848   4.106   5.531   2.012  0.3557 -0.3642 -1.1961
  711MOL0     H93849   3.956   5.471   2.096  0.9539  0.6206 -0.6185
  711MOL0     H93850   3.833   5.369   1.723 -1.4111  0.8334 -0.0134
  711MOL0     H93851   4.220   6.104   1.911  1.8379  1.4909  0.3353
  711MOL0     H93852   4.220   6.332   1.869  2.1064 -2.0198  0.7670
  712MOL0     O93853   3.501  10.311   0.296  0.9130 -0.4683  0.0243
  712MOL0     C93854   3.503  10.238   0.198 -0.4862 -0.2872 -0.6415
  712MOL0     O93855   3.396  10.168   0.144  0.6168  0.2878  0.0986
  712MOL0     C93856   3.273  10.190   0.197  0.4341 -0.2988 -0.3892
  712MOL0     C93857   3.200  10.308   0.160  0.1571 -0.2793 -0.0235
  712MOL0     C93858   3.073  10.333   0.210  0.6785  0.4411 -0.4311
  712MOL0     C93859   2.996  10.227   0.266  0.1233 -0.1158  0.3136
  712MOL0     O93860   2.861  10.244   0.292 -0.2148  0.1933 -0.5336
  712MOL0     C93861   2.790  10.355   0.234 -0.2615 -0.0452  0.1436
  712MOL0     C93862   2.653  10.347   0.302 -0.7437 -0.1545 -0.5144
  712MOL0     C93863   2.548  10.435   0.242 -0.0339  0.0030 -0.5774
  712MOL0     C93864   2.430  10.445   0.336  0.8690 -0.6562 -0.7080
  712MOL0     C93865   2.310  10.353   0.332  0.2693 -1.2861  0.5255
  712MOL0     C93866   2.257  10.329   0.185  0.0518 -0.0726 -0.3109
  712MOL0     C93867   2.123  10.255   0.165  0.4561  1.2336 -0.3456
  712MOL0     C93868   2.099  10.134   0.255  0.4888  0.0180  0.5168
  712MOL0     N93869   1.987  10.047   0.212  0.2814 -0.4504 -0.0364
  712MOL0     C93870   1.983   9.961   0.101 -0.6650  0.3639 -0.0842
  712MOL0     C93871   1.863   9.897   0.111  0.4419  0.6625  0.2903
  712MOL0     C93872   1.816   9.779   0.029  0.0899  0.1722 -0.3222
  712MOL0     C93873   1.671   9.732   0.069 -0.1821 -0.7550  0.1267
  712MOL0     C93874   1.653   9.590   0.001 -0.1589 -0.3283  0.4926
  712MOL0     C93875   1.520   9.527   0.036 -0.7089 -0.9145  0.1979
  712MOL0     O93876   1.524   9.388   0.006  0.2108  0.1189 -0.2151
  712MOL0     C93877   1.428   9.304   0.069 -0.3157 -0.3011  0.0241
  712MOL0     C93878   1.326   9.351   0.159 -0.2893 -0.2266  0.6807
  712MOL0     C93879   1.227   9.269   0.208 -0.1107  0.8658 -0.5268
  712MOL0     C93880   1.225   9.127   0.170  1.5499  0.3489 -1.0203
  712MOL0     C93881   1.116   9.042   0.224 -0.0541 -0.1732 -0.7092
  712MOL0     O93882   1.141   8.904   0.211  1.1811  0.1772  0.5999
  712MOL0     C93883   1.049   8.805   0.240  0.1641 -1.0368 -0.1710
  712MOL0     C93884   0.921   8.810   0.191 -0.6287  0.5722  0.9186
  712MOL0     C93885   0.828   8.699   0.202 -0.1386  0.8168  0.0048
  712MOL0     C93886   0.864   8.583   0.271 -0.7113 -0.5679  0.0338
  712MOL0     O93887   0.779   8.486   0.299 -0.3759  0.4699 -0.1721
  712MOL0     C93888   0.833   8.360   0.339  0.6981  0.5790 -0.0223
  712MOL0     C93889   0.747   8.244   0.291  0.3713 -0.4189 -0.0096
  712MOL0     C93890   0.742   8.234   0.137 -0.7306 -0.2805 -0.5038
  712MOL0     C93891   0.671   8.114   0.084  0.1982 -1.2803  0.7808
  712MOL0     C93892   0.649   8.120  -0.066 -0.6604 -0.0371  0.4153
  712MOL0     C93893   0.568   8.241  -0.097 -0.3276  0.6624 -0.3254
  712MOL0     C93894   0.431   8.267  -0.029 -0.1610  0.4120 -0.6742
  712MOL0     C93895   0.346   8.138  -0.053 -0.7280 -0.1467  0.7224
  712MOL0    Cl93896   0.304   8.123  -0.228  0.2795 -0.0802  0.6488
  712MOL0     C93897   0.996   8.581   0.328 -0.1535  0.1486 -0.4572
  712MOL0     C93898   1.082   8.691   0.311  0.5109  0.0254  0.1644
  712MOL0     O93899   1.009   9.091   0.276 -0.2947  0.1370 -0.3232
  712MOL0     C93900   1.327   9.082   0.093  0.1921 -0.1622  0.6485
  712MOL0     C93901   1.418   9.177   0.045 -0.1605 -0.0532 -0.2818
  712MOL0     N93902   1.803   9.936   0.232 -0.8844  1.1371  0.1485
  712MOL0     N93903   1.880  10.025   0.292  0.2304 -0.1312  0.0343
  712MOL0     C93904   3.071  10.115   0.316 -0.0377 -0.3652 -0.0998
  712MOL0     C93905   3.205  10.091   0.272  0.4198  0.2183  0.1417
  712MOL0     C93906   3.638  10.204   0.133  0.9593  0.1157  0.4112
  712MOL0     C93907   3.644  10.163  -0.002  0.3262 -0.2269  1.0506
  712MOL0     C93908   3.769  10.152  -0.064 -0.9983 -0.4056  0.3151
  712MOL0     C93909   3.890  10.169  -0.000 -0.1653 -0.8408 -0.3034
  712MOL0     O93910   4.016  10.151  -0.049  0.1991 -0.8625 -0.8484
  712MOL0     C93911   4.037  10.105  -0.186 -0.8927  0.0652  0.3811
  712MOL0     C93912   4.190  10.091  -0.208  0.4091 -0.7198  0.3368
  712MOL0     C93913   4.239  10.231  -0.239 -0.4275 -0.0118 -0.4583
  712MOL0     C93914   4.383  10.224  -0.263  0.3834 -0.0713 -0.0920
  712MOL0     C93915   4.416  10.354  -0.279 -0.1273 -0.2380  0.0799
  712MOL0     C93916   4.454  10.470  -0.295 -0.3723  0.1909 -0.0841
  712MOL0     C93917   3.880  10.225   0.130  0.3979  0.2073  0.5328
  712MOL0     C93918   3.758  10.244   0.190  0.6142 -0.3806  0.2893
  712MOL0     H93919   3.252  10.388   0.109  1.0448  1.5835  3.5303
  712MOL0     H93920   3.037  10.429   0.175  0.3960  0.8910  1.0195
  712MOL0     H93921   2.790  10.348   0.124 -2.3275 -0.3436  0.1152
  712MOL0     H93922   2.830  10.456   0.250  2.9320 -1.2399  0.3292
  712MOL0     H93923   2.656  10.352   0.412 -1.0293 -1.1843 -0.4485
  712MOL0     H93924   2.608  10.250   0.281  0.0959 -0.6872  0.0684
  712MOL0     H93925   2.516  10.397   0.145  3.5931 -0.9734 -1.5283
  712MOL0     H93926   2.592  10.535   0.233  1.2259 -0.3905  0.8641
  712MOL0     H93927   2.458  10.453   0.442  3.0356  2.4153 -1.3805
  712MOL0     H93928   2.383  10.542   0.323  0.4479 -0.4270  1.9132
  712MOL0     H93929   2.221  10.405   0.369 -1.1705 -1.0655 -2.8641
  712MOL0     H93930   2.324  10.266   0.396  2.4255 -1.6610 -0.3514
  712MOL0     H93931   2.335  10.271   0.135  0.2729 -3.9216  3.8511
  712MOL0     H93932   2.240  10.430   0.147  1.9807 -0.2163 -1.7081
  712MOL0     H93933   2.030  10.314   0.167  0.2874  1.1129 -2.1636
  712MOL0     H93934   2.121  10.213   0.064  0.7285  2.3177 -0.8163
  712MOL0     H93935   2.066  10.167   0.354 -3.9202  0.8835 -1.0379
  712MOL0     H93936   2.187  10.070   0.262  0.7401  0.4573  1.5362
  712MOL0     H93937   2.067   9.948   0.034 -1.0604  2.5665 -1.0932
  712MOL0     H93938   1.894   9.703   0.029  0.5234  0.4959 -3.2664
  712MOL0     H93939   1.814   9.824  -0.070 -0.0348  2.3683  0.6229
  712MOL0     H93940   1.595   9.796   0.023  0.1083 -0.9226 -0.5927
  712MOL0     H93941   1.645   9.738   0.175 -4.1174  0.9934 -0.7288
  712MOL0     H93942   1.675   9.595  -0.106  1.7062  0.2727  0.8788
  712MOL0     H93943   1.726   9.522   0.044  1.2464  1.0101  0.2939
  712MOL0     H93944   1.448   9.579  -0.028  2.2317 -0.2658 -2.8547
  712MOL0     H93945   1.510   9.525   0.145  0.4652 -3.3747  0.3211
  712MOL0     H93946   1.319   9.443   0.216  1.4869 -0.3818  1.2379
  712MOL0     H93947   1.150   9.316   0.268  0.9046  2.2162 -0.2391
  712MOL0     H93948   0.890   8.903   0.144 -1.3285 -0.4880 -0.8210
  712MOL0     H93949   0.731   8.704   0.153  0.7299  0.0184 -1.8937
  712MOL0     H93950   0.824   8.352   0.448 -2.0016 -3.9122 -0.2966
  712MOL0     H93951   0.936   8.333   0.315 -0.0426  0.5654 -3.7175
  712MOL0     H93952   0.643   8.254   0.324  0.6498  0.0264  0.7604
  712MOL0     H93953   0.777   8.146   0.329  0.8318  0.6749  2.6432
  712MOL0     H93954   0.848   8.226   0.113 -0.5027 -0.7901  0.6357
  712MOL0     H93955   0.702   8.324   0.089 -1.6636 -2.0144 -3.2512
  712MOL0     H93956   0.722   8.018   0.100  2.6990 -0.2376 -0.3615
  712MOL0     H93957   0.577   8.112   0.140 -0.7106 -0.7679 -0.6737
  712MOL0     H93958   0.604   8.023  -0.088 -0.9874 -0.0781  1.2245
  712MOL0     H93959   0.741   8.119  -0.125 -1.5743 -2.3240 -1.0801
  712MOL0     H93960   0.539   8.230  -0.202  0.4323 -0.7862 -0.4021
  712MOL0     H93961   0.631   8.330  -0.090  0.3347  0.0763  2.2702
  712MOL0     H93962   0.438   8.290   0.077  1.9702 -2.4034 -0.0748
  712MOL0     H93963   0.387   8.357  -0.074 -2.0847  0.2183  0.6796
  712MOL0     H93964   0.253   8.143   0.005 -1.8396  1.6881 -1.0943
  712MOL0     H93965   0.399   8.044  -0.036  2.5065  1.4485  0.2507
  712MOL0     H93966   1.035   8.500   0.388  0.5898  0.3142 -0.7022
  712MOL0     H93967   1.182   8.697   0.354 -0.3060 -0.4706  2.2482
  712MOL0     H93968   1.332   8.982   0.052 -1.0095 -0.9578  2.3199
  712MOL0     H93969   1.482   9.139  -0.035  0.3091 -0.0491  0.0902
  712MOL0     H93970   3.010  10.049   0.377 -1.0955 -0.0924 -0.8338
  712MOL0     H93971   3.262  10.003   0.299 -0.6545 -1.1035 -1.7378
  712MOL0     H93972   3.552  10.146  -0.056  1.6369  1.4448 -1.9405
  712MOL0     H93973   3.776  10.132  -0.170  1.6542 -0.3003  0.4115
  712MOL0     H93974   3.980  10.166  -0.257  0.5732 -0.4361 -1.3127
  712MOL0     H93975   3.987  10.008  -0.196 -2.6159  0.8627  0.9419
  712MOL0     H93976   4.243  10.048  -0.122  1.3791  0.5556  0.4137
  712MOL0     H93977   4.211  10.025  -0.292 -0.3154  2.1391 -2.2518
  712MOL0     H93978   4.225  10.280  -0.142  0.7433 -1.6697  0.6163
  712MOL0     H93979   4.186  10.281  -0.320 -1.3319  0.1362  0.2078
  712MOL0     H93980   4.443  10.189  -0.179 -1.1970 -1.4470  0.5150
  712MOL0     H93981   4.400  10.164  -0.353  0.3636 -0.4126  0.1313
  712MOL0     H93982   4.482  10.573  -0.307 -0.6410  0.7538  3.1121
  712MOL0     H93983   3.976  10.249   0.173  0.9482 -1.0133  0.0474
  712MOL0     H93984   3.757  10.296   0.286  1.5101 -1.9920  1.2230
  713MOL0     O93985   3.905   9.608   8.091 -0.3454 -0.6466  0.5636
  713MOL0     C93986   3.978   9.575   7.993 -1.3013 -0.3390 -0.5260
  713MOL0     O93987   3.941   9.549   7.863  0.1250  0.8794  0.7092
  713MOL0     C93988   3.813   9.568   7.820  1.0801 -0.3982  0.0537
  713MOL0     C93989   3.714   9.654   7.885 -1.2888  0.2442 -0.1162
  713MOL0     C93990   3.584   9.677   7.834  0.4527  1.4085  0.3416
  713MOL0     C93991   3.557   9.635   7.704 -1.5586 -0.0095  0.2252
  713MOL0     O93992   3.442   9.677   7.661 -0.2249 -0.3214  0.0024
  713MOL0     C93993   3.403   9.652   7.527 -0.2158  0.4416 -0.1500
  713MOL0     C93994   3.275   9.720   7.496 -0.6045 -0.9349  0.2429
  713MOL0     C93995   3.245   9.700   7.351  1.1093 -0.8863 -0.1152
  713MOL0     C93996   3.106   9.758   7.323  0.2505  0.2934  0.6953
  713MOL0     C93997   3.088   9.735   7.169  0.8055  0.0652 -0.5454
  713MOL0     C93998   2.965   9.815   7.116 -0.1696 -0.0347 -0.0774
  713MOL0     C93999   2.974   9.959   7.143  0.0279  0.2101 -0.5311
  713MOL0     C94000   2.867  10.050   7.077 -0.5906  0.8827  0.4863
  713MOL0     N94001   2.866  10.189   7.139  0.5556  1.2669  0.0529
  713MOL0     C94002   2.956  10.285   7.099  0.2199  0.0047  0.3024
  713MOL0     C94003   2.893  10.402   7.135  0.0552  0.3887  1.2516
  713MOL0     C94004   2.939  10.541   7.126  0.2937 -1.0547  0.9853
  713MOL0     C94005   2.841  10.637   7.046 -0.1739  1.0643 -0.4595
  713MOL0     C94006   2.781  10.589   6.911  0.3264 -0.4287 -0.5078
  713MOL0     C94007   2.890  10.528   6.823 -0.0354  0.9973 -0.0330
  713MOL0     O94008   2.842  10.498   6.689 -0.1230  0.3399  0.4577
  713MOL0     C94009   2.718  10.433   6.664 -0.4365 -0.6317 -0.6794
  713MOL0     C94010   2.639  10.465   6.553  0.2431  0.3213  1.3635
  713MOL0     C94011   2.518  10.401   6.514 -0.4643 -0.0356  1.0398
  713MOL0     C94012   2.485  10.294   6.594  0.8719 -0.9694  0.9504
  713MOL0     C94013   2.369  10.213   6.541 -0.5545 -0.1975 -0.9170
  713MOL0     O94014   2.266  10.253   6.453 -0.2464  0.0296  0.4577
  713MOL0     C94015   2.149  10.178   6.424 -0.6214  0.0307 -0.2420
  713MOL0     C94016   2.123  10.047   6.440 -0.3197 -0.0950  0.0230
  713MOL0     C94017   1.994   9.995   6.401  0.5092  0.3555  0.1930
  713MOL0     C94018   1.894  10.067   6.340  0.2805 -0.2449 -0.1855
  713MOL0     O94019   1.779  10.005   6.295  0.1504  0.3361 -0.5167
  713MOL0     C94020   1.690  10.085   6.215 -1.1633 -0.1321  0.5809
  713MOL0     C94021   1.565  10.014   6.143  0.1710 -0.4864 -0.0121
  713MOL0     C94022   1.600   9.910   6.042  0.3103  0.3092  1.3018
  713MOL0     C94023   1.470   9.867   5.954 -0.9095 -0.1097  0.5127
  713MOL0     C94024   1.493   9.744   5.857 -0.3723  0.8901  0.3825
  713MOL0     C94025   1.370   9.700   5.794 -0.2350  0.7230  0.4990
  713MOL0     C94026   1.319   9.804   5.688  0.8533 -0.2676  0.3152
  713MOL0     C94027   1.231   9.729   5.596 -0.4745  0.1497 -0.5968
  713MOL0    Cl94028   1.318   9.592   5.507 -0.3864 -0.4221  0.0226
  713MOL0     C94029   1.930  10.205   6.322 -0.8306 -1.1733  0.1477
  713MOL0     C94030   2.056  10.261   6.357 -0.0340 -0.3866  1.2369
  713MOL0     O94031   2.371  10.093   6.579  0.2346 -0.6743  0.2138
  713MOL0     C94032   2.556  10.256   6.710  0.7278  0.8393 -0.2114
  713MOL0     C94033   2.669  10.328   6.743 -0.3653  0.2059  0.4358
  713MOL0     N94034   2.763  10.376   7.182 -0.1047  0.0362 -0.1147
  713MOL0     N94035   2.747  10.241   7.179 -0.4074 -0.3004 -0.1699
  713MOL0     C94036   3.646   9.551   7.634  0.0746 -0.3660  0.4127
  713MOL0     C94037   3.769   9.517   7.697 -0.2678  0.0593  0.3129
  713MOL0     C94038   4.127   9.550   8.031  1.6609  0.0627 -0.4839
  713MOL0     C94039   4.185   9.633   8.122  0.9648 -0.4625  0.1496
  713MOL0     C94040   4.321   9.626   8.158 -0.0416 -0.2473 -0.0365
  713MOL0     C94041   4.398   9.529   8.094 -0.5562  0.4974  0.5824
  713MOL0     O94042   4.539   9.532   8.113  0.8674 -0.7104  0.6519
  713MOL0     C94043   4.599   9.407   8.116  0.9151  0.8059 -0.6465
  713MOL0     C94044   4.537   9.305   8.226 -1.5158  0.0199 -0.6153
  713MOL0     C94045   4.486   9.380   8.348 -0.0144 -0.0752  0.2746
  713MOL0     C94046   4.485   9.273   8.463 -0.6175  0.0717 -0.4206
  713MOL0     C94047   4.360   9.204   8.447  0.1063  0.9559  0.1802
  713MOL0     C94048   4.249   9.158   8.413  0.1294 -0.0603 -0.7562
  713MOL0     C94049   4.334   9.434   8.014  0.4673  0.3774  0.3724
  713MOL0     C94050   4.196   9.442   7.982  0.2861  0.7677  0.1116
  713MOL0     H94051   3.741   9.710   7.973 -3.2039  0.0079  0.6649
  713MOL0     H94052   3.510   9.735   7.888 -0.0509  0.8524  0.2584
  713MOL0     H94053   3.407   9.543   7.520 -0.1427  0.3009  1.5797
  713MOL0     H94054   3.476   9.694   7.456  0.7430 -0.7749  0.0697
  713MOL0     H94055   3.290   9.827   7.507 -3.9315  0.2130 -3.6582
  713MOL0     H94056   3.192   9.699   7.565 -1.5190  1.6856  0.0639
  713MOL0     H94057   3.246   9.594   7.322 -0.0647 -0.7022 -0.9033
  713MOL0     H94058   3.317   9.754   7.289  0.7629 -0.2168  0.0649
  713MOL0     H94059   3.032   9.704   7.384 -1.4618 -1.1868 -2.4350
  713MOL0     H94060   3.117   9.863   7.350  2.5964  0.1043  0.6804
  713MOL0     H94061   3.068   9.628   7.160 -1.9328  0.2885  1.4753
  713MOL0     H94062   3.173   9.766   7.109 -0.5196  1.4802 -1.7786
  713MOL0     H94063   2.869   9.786   7.159 -0.4579  0.9073 -0.0487
  713MOL0     H94064   2.949   9.806   7.008 -1.1695  0.2629  0.0324
  713MOL0     H94065   2.958   9.961   7.251 -1.4295 -1.4194 -0.6533
  713MOL0     H94066   3.071  10.002   7.117  0.0921  1.4721  1.5870
  713MOL0     H94067   2.772   9.999   7.096 -0.7756  1.5358  1.3994
  713MOL0     H94068   2.899  10.048   6.973  0.1994  0.7767  0.7222
  713MOL0     H94069   3.056  10.273   7.057  0.3775 -1.0533  0.9570
  713MOL0     H94070   3.037  10.527   7.079  0.1949 -0.7185  0.6786
  713MOL0     H94071   2.950  10.580   7.228  1.0726 -2.7181  1.5755
  713MOL0     H94072   2.887  10.736   7.035 -2.9008  2.5447  0.5784
  713MOL0     H94073   2.755  10.652   7.112 -1.0522  0.4774 -1.4479
  713MOL0     H94074   2.697  10.520   6.922  0.3846 -0.3633  0.3743
  713MOL0     H94075   2.727  10.669   6.859 -0.6994 -0.0082  1.1352
  713MOL0     H94076   2.922  10.430   6.859 -1.9821 -0.1705 -1.3007
  713MOL0     H94077   2.979  10.593   6.820 -0.9329  2.4422  2.0785
  713MOL0     H94078   2.684  10.542   6.491  0.6204  1.0102  2.4693
  713MOL0     H94079   2.466  10.421   6.421  0.1929  0.1908  0.7066
  713MOL0     H94080   2.196   9.978   6.483 -0.2971  0.3614  0.7336
  713MOL0     H94081   1.980   9.892   6.432 -1.0195  0.0098 -1.5013
  713MOL0     H94082   1.745  10.139   6.137 -1.3587 -1.9514 -0.8977
  713MOL0     H94083   1.638  10.148   6.287  0.4333  0.0890  1.5713
  713MOL0     H94084   1.504  10.093   6.097 -3.1718 -2.5059  0.5897
  713MOL0     H94085   1.496   9.967   6.214  0.4192 -1.0577 -0.1425
  713MOL0     H94086   1.651   9.831   6.098  0.1847  0.1390  1.1782
  713MOL0     H94087   1.668   9.947   5.966  2.0198 -2.2233  1.4969
  713MOL0     H94088   1.396   9.829   6.025 -0.7587 -4.9047 -1.5548
  713MOL0     H94089   1.431   9.951   5.896  1.6484 -1.3275 -3.3345
  713MOL0     H94090   1.524   9.654   5.911 -2.3405 -1.4731 -2.1120
  713MOL0     H94091   1.566   9.763   5.778 -0.0299 -0.5961  0.3205
  713MOL0     H94092   1.293   9.691   5.871 -0.5625  0.4176  0.1356
  713MOL0     H94093   1.415   9.612   5.748  2.0270  0.1381  3.5045
  713MOL0     H94094   1.275   9.890   5.739 -0.2579 -2.3918  3.1802
  713MOL0     H94095   1.399   9.841   5.622  0.9817  0.6804  0.9816
  713MOL0     H94096   1.184   9.786   5.515  1.5191  0.5105 -1.5523
  713MOL0     H94097   1.151   9.684   5.655 -0.1840  0.9038  0.4094
  713MOL0     H94098   1.865  10.269   6.265 -1.3437 -1.6765  0.1628
  713MOL0     H94099   2.070  10.366   6.333 -0.1634 -1.1880 -3.3148
  713MOL0     H94100   2.507  10.172   6.759 -2.2571  0.6711 -3.1508
  713MOL0     H94101   2.716  10.304   6.838 -0.4783  3.7764  1.5678
  713MOL0     H94102   3.614   9.512   7.539 -5.7591  3.7344  0.1580
  713MOL0     H94103   3.841   9.445   7.658  1.7967  0.2079  3.4972
  713MOL0     H94104   4.122   9.715   8.155  0.2501 -0.0152 -2.1461
  713MOL0     H94105   4.366   9.699   8.226  0.7752  0.7076 -1.5427
  713MOL0     H94106   4.705   9.420   8.140  1.7971 -1.2264 -3.0543
  713MOL0     H94107   4.593   9.358   8.019  0.6361 -0.9983  0.2436
  713MOL0     H94108   4.454   9.244   8.191 -2.1101 -0.4306  1.5009
  713MOL0     H94109   4.616   9.232   8.246 -1.9378 -0.8074 -1.8639
  713MOL0     H94110   4.393   9.435   8.334  0.2666  0.9314  2.0660
  713MOL0     H94111   4.555   9.456   8.386 -1.1953  1.5218 -0.6594
  713MOL0     H94112   4.566   9.200   8.452 -1.6956 -0.8078 -3.6378
  713MOL0     H94113   4.482   9.308   8.566 -0.4802 -1.0732 -0.0088
  713MOL0     H94114   4.145   9.140   8.396 -0.0983 -0.3229  0.7511
  713MOL0     H94115   4.383   9.358   7.955 -1.3952 -1.2742  0.8574
  713MOL0     H94116   4.161   9.372   7.907  1.5017 -0.7379  0.8901
  714MOL0     O94117   4.800   7.022   0.092 -1.0984 -0.7167  0.2925
  714MOL0     C94118   4.777   7.115   0.166 -0.8559  0.2853 -0.0863
  714MOL0     O94119   4.839   7.138   0.283 -0.7591  0.0788  0.1431
  714MOL0     C94120   4.925   7.049   0.342 -0.1538 -0.3416  0.4608
  714MOL0     C94121   5.046   7.095   0.397  1.5413  0.5793 -0.7253
  714MOL0     C94122   5.128   7.004   0.473  0.7513  0.1813  0.2062
  714MOL0     C94123   5.092   6.867   0.471  1.0153 -0.4813  0.3991
  714MOL0     O94124   5.161   6.769   0.537  0.4711 -0.3904 -0.0033
  714MOL0     C94125   5.292   6.802   0.592  0.0062  0.6662 -0.2686
  714MOL0     C94126   5.340   6.669   0.643  0.1449  0.2935 -0.0626
  714MOL0     C94127   5.269   6.538   0.589 -0.1926 -0.3834  0.4376
  714MOL0     C94128   5.354   6.413   0.605  0.9369  0.8495  0.3028
  714MOL0     C94129   5.304   6.279   0.540  0.0317  0.0420  0.7680
  714MOL0     C94130   5.364   6.158   0.624 -0.4909  0.4710  0.0199
  714MOL0     C94131   5.503   6.141   0.572  0.5800  0.3334  0.7631
  714MOL0     C94132   5.586   6.082   0.675 -0.5921  0.0575  0.9892
  714MOL0     N94133   5.730   6.079   0.634 -0.1769  0.5569  0.1601
  714MOL0     C94134   5.775   5.992   0.541 -0.6495  0.3791 -0.4288
  714MOL0     C94135   5.905   6.031   0.521  0.7313 -0.3853 -0.2051
  714MOL0     C94136   6.000   5.986   0.409  0.6142 -0.1580  0.5912
  714MOL0     C94137   6.089   5.870   0.445  0.0347 -0.1401 -0.2355
  714MOL0     C94138   6.150   5.810   0.311  0.1227  0.2958 -0.2170
  714MOL0     C94139   6.240   5.909   0.250  0.2938  0.0028  0.1567
  714MOL0     O94140   6.310   5.835   0.140 -0.7347  0.0346 -0.0087
  714MOL0     C94141   6.438   5.887   0.110 -0.4352  0.2773 -0.3454
  714MOL0     C94142   6.542   5.796   0.070  0.7748  0.5039  0.1967
  714MOL0     C94143   6.670   5.847   0.037 -0.2777  1.0507 -0.3727
  714MOL0     C94144   6.699   5.982   0.029  0.0624 -1.0005 -0.3725
  714MOL0     C94145   6.821   6.042  -0.030  0.5783 -1.0505 -0.4735
  714MOL0     O94146   6.835   6.170  -0.001  0.4206  0.5160 -0.0582
  714MOL0     C94147   6.941   6.248  -0.038 -0.0355  0.7127 -0.1349
  714MOL0     C94148   7.039   6.221  -0.123  0.4803  0.5361 -0.7129
  714MOL0     C94149   7.137   6.312  -0.153  0.2580 -0.5867 -0.3096
  714MOL0     C94150   7.141   6.441  -0.092 -0.5701  0.7769  0.8644
  714MOL0     O94151   7.245   6.525  -0.124  0.9200 -0.5344  0.5022
  714MOL0     C94152   7.222   6.663  -0.095  0.0192 -0.3783  0.7293
  714MOL0     C94153   7.328   6.744  -0.185  0.3486 -1.1251 -0.1176
  714MOL0     C94154   7.469   6.683  -0.176  0.1411 -0.3353  0.2845
  714MOL0     C94155   7.568   6.774  -0.262  0.2225 -0.0432 -0.9713
  714MOL0     C94156   7.714   6.729  -0.269 -0.1609  0.2635 -0.0882
  714MOL0     C94157   7.734   6.586  -0.330  0.3916  0.0301  1.0105
  714MOL0     C94158   7.869   6.589  -0.398  0.4110 -0.0423  0.7222
  714MOL0     C94159   7.884   6.484  -0.504  0.4545  1.0689 -0.2832
  714MOL0    Cl94160   8.035   6.504  -0.585 -0.4975 -0.1054 -0.0449
  714MOL0     C94161   7.043   6.467   0.009 -0.4734  0.1799 -0.1477
  714MOL0     C94162   6.943   6.372   0.029  0.5138 -0.3756  0.7544
  714MOL0     O94163   6.904   5.978  -0.086 -0.3087 -0.1015  0.5157
  714MOL0     C94164   6.591   6.072   0.066 -0.8856 -0.5209 -0.4325
  714MOL0     C94165   6.468   6.024   0.108 -0.4228 -0.0511 -0.3473
  714MOL0     N94166   5.933   6.119   0.616  0.3381 -1.1223 -0.0145
  714MOL0     N94167   5.829   6.151   0.684 -0.1615 -0.7393  0.3559
  714MOL0     C94168   4.969   6.833   0.412  0.4599  0.5795 -0.4546
  714MOL0     C94169   4.879   6.922   0.349  0.2334  0.5463 -1.3166
  714MOL0     C94170   4.702   7.227   0.108  0.7475 -0.3272 -0.3716
  714MOL0     C94171   4.686   7.243  -0.031 -0.8973  0.3944 -0.4755
  714MOL0     C94172   4.615   7.344  -0.093  0.0724 -0.2674  0.4468
  714MOL0     C94173   4.552   7.444  -0.019  0.5736 -0.1453  0.5324
  714MOL0     O94174   4.476   7.545  -0.068 -0.1205  0.0743 -0.3954
  714MOL0     C94175   4.535   7.615  -0.174  0.2382  0.6686 -0.1334
  714MOL0     C94176   4.667   7.670  -0.138 -1.0766 -0.0675 -0.5316
  714MOL0     C94177   4.660   7.757  -0.016  0.4871  0.8492  0.1452
  714MOL0     C94178   4.810   7.807   0.001 -0.5326  0.0254 -0.5429
  714MOL0     C94179   4.906   7.702   0.051 -0.2848  0.3345  0.0847
  714MOL0     C94180   4.993   7.624   0.094  0.2467 -0.4363  0.1572
  714MOL0     C94181   4.558   7.430   0.121 -0.9463  0.0791  0.5952
  714MOL0     C94182   4.636   7.330   0.186  0.6718 -0.5037 -0.2253
  714MOL0     H94183   5.079   7.196   0.375 -0.4084  1.6968  1.1039
  714MOL0     H94184   5.220   7.035   0.523  1.2529 -2.2787  0.9468
  714MOL0     H94185   5.286   6.874   0.674 -0.3830  3.6543 -2.7375
  714MOL0     H94186   5.358   6.851   0.520 -2.3535  1.8415 -1.7924
  714MOL0     H94187   5.319   6.670   0.751  1.1810  1.3620  0.1455
  714MOL0     H94188   5.447   6.661   0.625  0.1457  2.6428 -1.4427
  714MOL0     H94189   5.250   6.551   0.482 -0.8964  1.9934  0.7782
  714MOL0     H94190   5.170   6.528   0.634  0.1000 -0.5938  1.0559
  714MOL0     H94191   5.455   6.440   0.572 -0.2115  1.3860 -3.2165
  714MOL0     H94192   5.363   6.395   0.713 -0.3863 -0.4061  0.2324
  714MOL0     H94193   5.324   6.284   0.433 -1.1516  1.4543  0.5849
  714MOL0     H94194   5.195   6.266   0.537  0.0396  0.1632 -0.8308
  714MOL0     H94195   5.310   6.065   0.602  1.5485 -2.0424  4.4500
  714MOL0     H94196   5.355   6.167   0.732  2.2322 -1.8734  0.5511
  714MOL0     H94197   5.501   6.070   0.489  1.3099  0.1928  0.8560
  714MOL0     H94198   5.543   6.235   0.532  1.9678  0.5536  2.5515
  714MOL0     H94199   5.551   5.979   0.691 -2.8544  0.3554 -1.3988
  714MOL0     H94200   5.577   6.123   0.776  1.3599 -0.6659  1.5020
  714MOL0     H94201   5.725   5.905   0.499 -3.2763  1.2537  0.6732
  714MOL0     H94202   6.059   6.068   0.368  0.6241  0.0136  0.9431
  714MOL0     H94203   5.927   5.959   0.332 -1.2931 -1.9799  2.8584
  714MOL0     H94204   6.032   5.794   0.498  0.5524 -0.1290  0.3581
  714MOL0     H94205   6.170   5.894   0.515  1.2348  1.1723 -1.9782
  714MOL0     H94206   6.209   5.719   0.327  1.6914  0.9201 -2.0572
  714MOL0     H94207   6.070   5.783   0.242 -3.1754  1.2743  2.9407
  714MOL0     H94208   6.310   5.936   0.330  1.4619  2.0949 -1.4752
  714MOL0     H94209   6.181   5.995   0.217 -1.5443 -0.6389  1.5819
  714MOL0     H94210   6.516   5.690   0.072  0.2644  0.5099 -2.2325
  714MOL0     H94211   6.749   5.777   0.016 -1.1424 -1.2448  3.1200
  714MOL0     H94212   7.064   6.122  -0.161 -1.3980 -0.0732 -0.4764
  714MOL0     H94213   7.212   6.280  -0.225  1.3983 -1.1265  1.0802
  714MOL0     H94214   7.227   6.670   0.014 -2.9625  0.6042  0.8999
  714MOL0     H94215   7.120   6.693  -0.121 -0.0299 -0.9938  0.1884
  714MOL0     H94216   7.318   6.848  -0.154 -0.3234 -1.0757 -0.4870
  714MOL0     H94217   7.306   6.742  -0.292 -2.5836  3.0511  0.1647
  714MOL0     H94218   7.468   6.585  -0.224  2.1280 -0.5753  0.6844
  714MOL0     H94219   7.501   6.657  -0.075  0.1932 -0.1375  0.3212
  714MOL0     H94220   7.520   6.784  -0.360  2.2022  0.8760 -1.8924
  714MOL0     H94221   7.571   6.873  -0.216 -0.1302 -0.2111 -0.5866
  714MOL0     H94222   7.757   6.725  -0.168  1.2902  0.9309 -0.6602
  714MOL0     H94223   7.777   6.799  -0.324  2.7149 -3.6374 -2.2712
  714MOL0     H94224   7.654   6.567  -0.402 -0.3245  0.4681  1.6730
  714MOL0     H94225   7.735   6.519  -0.244  1.2187 -0.4087  0.6761
  714MOL0     H94226   7.888   6.685  -0.446 -1.5720  0.0871  0.0937
  714MOL0     H94227   7.950   6.582  -0.326  3.0925  2.4053 -1.8119
  714MOL0     H94228   7.816   6.487  -0.590  0.9316 -2.4430 -0.9218
  714MOL0     H94229   7.882   6.384  -0.459  3.7016 -0.6650 -3.5328
  714MOL0     H94230   7.041   6.554   0.073 -4.9937 -1.3521  2.2913
  714MOL0     H94231   6.863   6.388   0.101  0.2793 -1.8641  0.8674
  714MOL0     H94232   6.611   6.178   0.076 -0.9578 -0.7155  3.1797
  714MOL0     H94233   6.395   6.087   0.158 -0.6938 -0.7942  0.2117
  714MOL0     H94234   4.933   6.733   0.435 -0.6400  1.3685  1.5580
  714MOL0     H94235   4.793   6.887   0.293  0.0519 -1.5469  0.1430
  714MOL0     H94236   4.734   7.167  -0.093 -2.2612 -2.1346  1.3668
  714MOL0     H94237   4.615   7.334  -0.201 -2.3593 -0.8838  0.4480
  714MOL0     H94238   4.470   7.701  -0.194  2.1758  2.8813  2.3596
  714MOL0     H94239   4.556   7.543  -0.254  3.4280 -0.5899  1.6584
  714MOL0     H94240   4.736   7.585  -0.133  0.3705  0.9705 -1.8366
  714MOL0     H94241   4.712   7.724  -0.223 -2.3076  2.2048  0.1877
  714MOL0     H94242   4.622   7.712   0.076 -0.5101 -2.0765 -1.5621
  714MOL0     H94243   4.594   7.838  -0.048 -1.0417  1.2095  3.6795
  714MOL0     H94244   4.844   7.859  -0.089  0.8018 -2.5476 -1.6206
  714MOL0     H94245   4.817   7.885   0.078  0.4605  1.6027 -2.1619
  714MOL0     H94246   5.074   7.563   0.127  2.1701  1.2511 -1.2084
  714MOL0     H94247   4.508   7.508   0.177 -0.3132  0.1968  1.0185
  714MOL0     H94248   4.633   7.317   0.293  2.1831 -0.7290 -0.1846
  715MOL0     O94249   4.351  10.361   4.448 -0.2402 -0.0240  1.2563
  715MOL0     C94250   4.392  10.384   4.336  0.1644  1.0628 -0.1277
  715MOL0     O94251   4.417  10.293   4.242 -0.7009 -0.0151  0.3914
  715MOL0     C94252   4.372  10.166   4.265  0.1558 -0.0698  0.4489
  715MOL0     C94253   4.469  10.069   4.257  0.1063 -0.8487 -0.1406
  715MOL0     C94254   4.430   9.940   4.282  0.3614 -0.9320  1.0394
  715MOL0     C94255   4.297   9.908   4.295 -0.0365  0.2594 -0.1219
  715MOL0     O94256   4.254   9.778   4.305  0.6097 -0.1347  0.7260
  715MOL0     C94257   4.330   9.667   4.250  0.9719 -0.0564 -0.6230
  715MOL0     C94258   4.237   9.547   4.277  0.6325  0.3440  0.7086
  715MOL0     C94259   4.263   9.423   4.191  0.3946 -0.7500 -0.4798
  715MOL0     C94260   4.150   9.320   4.210 -1.4217 -0.0877  0.6489
  715MOL0     C94261   4.201   9.176   4.208  0.4840  0.4346 -0.2530
  715MOL0     C94262   4.107   9.069   4.272  0.2896 -0.3872  1.3748
  715MOL0     C94263   3.982   9.043   4.172 -0.6089  0.1439  0.2740
  715MOL0     C94264   3.884   8.939   4.234 -1.1147  0.2146  0.0001
  715MOL0     N94265   3.767   8.935   4.143  0.1336 -0.0566 -0.2919
  715MOL0     C94266   3.737   8.841   4.046 -0.5057  0.9323 -0.7812
  715MOL0     C94267   3.603   8.848   4.026 -0.4309  0.0626  0.3224
  715MOL0     C94268   3.507   8.783   3.925  0.1824 -0.5859  0.3500
  715MOL0     C94269   3.356   8.790   3.954  0.5508  0.3445  0.4918
  715MOL0     C94270   3.275   8.746   3.833  0.4113  0.6098 -0.1894
  715MOL0     C94271   3.287   8.590   3.809  0.3714  0.4381  0.5577
  715MOL0     O94272   3.188   8.551   3.716 -0.0247 -0.0741  0.5845
  715MOL0     C94273   3.063   8.505   3.763 -0.1000  0.0335 -0.5152
  715MOL0     C94274   2.990   8.424   3.678 -1.1538 -0.1721 -1.5153
  715MOL0     C94275   2.860   8.396   3.715 -0.1877 -0.1081  0.1821
  715MOL0     C94276   2.801   8.438   3.836 -0.1795 -0.5190 -0.5011
  715MOL0     C94277   2.651   8.411   3.859 -0.8514 -0.4877 -1.8110
  715MOL0     O94278   2.580   8.337   3.763 -0.2403 -0.7206  0.8628
  715MOL0     C94279   2.457   8.310   3.798  0.3689 -0.2493 -0.4087
  715MOL0     C94280   2.350   8.368   3.723  0.1128  0.5777 -0.0778
  715MOL0     C94281   2.216   8.332   3.750  0.0388  0.8462  0.7404
  715MOL0     C94282   2.189   8.250   3.866 -0.8265  0.4828  0.2345
  715MOL0     O94283   2.058   8.235   3.881 -0.2269 -0.3011 -0.1493
  715MOL0     C94284   2.002   8.184   3.996  0.9084  0.1638 -0.6616
  715MOL0     C94285   1.874   8.109   3.970 -0.8935  0.3388  0.1344
  715MOL0     C94286   1.818   8.106   3.829  0.4683  0.0914 -0.4062
  715MOL0     C94287   1.687   8.029   3.835 -0.9998  0.0268 -0.4320
  715MOL0     C94288   1.604   8.019   3.703 -1.0571  0.4161 -0.5747
  715MOL0     C94289   1.467   7.959   3.734 -0.8920  0.3492 -0.0603
  715MOL0     C94290   1.368   7.958   3.616 -0.2839  0.1017 -0.9523
  715MOL0     C94291   1.276   7.841   3.598 -0.7452  0.1196 -0.0587
  715MOL0    Cl94292   1.360   7.680   3.638 -0.0698 -0.4949 -0.4086
  715MOL0     C94293   2.301   8.197   3.944  0.2245  0.8332  0.0721
  715MOL0     C94294   2.432   8.223   3.904  0.0635 -0.4720  0.2562
  715MOL0     O94295   2.605   8.447   3.966  0.0489 -0.2553 -1.3219
  715MOL0     C94296   2.885   8.506   3.925 -0.0327 -0.2794  0.4963
  715MOL0     C94297   3.013   8.546   3.890  0.2123  0.1195  0.5873
  715MOL0     N94298   3.563   8.951   4.111  0.2805 -1.0229 -0.8750
  715MOL0     N94299   3.652   9.003   4.179 -0.6217  0.1014 -0.0762
  715MOL0     C94300   4.203  10.010   4.313 -0.1449  0.2215  0.5353
  715MOL0     C94301   4.237  10.144   4.299  0.6510 -0.0270 -1.1477
  715MOL0     C94302   4.424  10.524   4.301  0.4097 -0.2012  0.0312
  715MOL0     C94303   4.504  10.550   4.189 -0.0881 -0.0478 -0.3439
  715MOL0     C94304   4.527  10.680   4.155  0.1447 -0.1844 -0.2223
  715MOL0     C94305   4.459  10.783   4.212  0.5112 -0.8393 -0.3232
  715MOL0     O94306   4.476  10.906   4.156  0.4039 -0.6238  0.0295
  715MOL0     C94307   4.428  10.930   4.025  0.7792 -0.9069 -0.6072
  715MOL0     C94308   4.442  11.078   3.992 -0.4420  0.6937  0.3938
  715MOL0     C94309   4.471  11.087   3.842  0.6569 -0.0346  0.3781
  715MOL0     C94310   4.445  11.228   3.792 -0.0249  0.0074 -0.6708
  715MOL0     C94311   4.304  11.249   3.800 -0.8280 -0.3139  1.4889
  715MOL0     C94312   4.183  11.258   3.794  1.3857  0.2677 -0.1197
  715MOL0     C94313   4.376  10.756   4.321 -0.2849 -0.4783 -0.0748
  715MOL0     C94314   4.363  10.631   4.369 -0.7048 -0.2883 -0.1359
  715MOL0     H94315   4.570  10.106   4.242 -0.8814  1.6379 -1.1071
  715MOL0     H94316   4.502   9.859   4.271 -2.2892 -3.0960 -3.3770
  715MOL0     H94317   4.423   9.661   4.307 -0.3533  1.7948  1.9168
  715MOL0     H94318   4.337   9.680   4.141  0.0667 -1.6179 -0.9003
  715MOL0     H94319   4.134   9.582   4.267 -0.4664 -0.8064  5.4801
  715MOL0     H94320   4.248   9.511   4.380 -1.0642 -0.9159  0.5046
  715MOL0     H94321   4.358   9.386   4.230 -0.4547 -2.6930 -0.1445
  715MOL0     H94322   4.270   9.440   4.083  2.1147  4.0069  0.1373
  715MOL0     H94323   4.102   9.346   4.304 -1.2117  1.1633  0.4208
  715MOL0     H94324   4.074   9.346   4.136 -1.5020 -2.1919 -0.0976
  715MOL0     H94325   4.294   9.165   4.264  0.8233  1.7134 -0.5420
  715MOL0     H94326   4.217   9.150   4.102  1.5932 -0.1762  0.0514
  715MOL0     H94327   4.064   9.107   4.365  0.8619  3.8090  0.1254
  715MOL0     H94328   4.158   8.972   4.270 -2.4045 -1.8869  0.9883
  715MOL0     H94329   3.931   9.137   4.149  3.0936  2.5470  0.9620
  715MOL0     H94330   4.012   9.000   4.076  1.3440  1.5784  0.1750
  715MOL0     H94331   3.859   8.976   4.334 -0.7035  1.0213 -0.1872
  715MOL0     H94332   3.954   8.855   4.242 -0.9594 -0.2036 -3.7864
  715MOL0     H94333   3.798   8.771   3.990 -1.3742  1.6009 -2.6640
  715MOL0     H94334   3.546   8.682   3.913  1.6248 -0.0498  0.3761
  715MOL0     H94335   3.519   8.831   3.828 -1.7702  2.7565  1.6072
  715MOL0     H94336   3.326   8.894   3.965 -1.1111 -0.1636  1.0833
  715MOL0     H94337   3.319   8.738   4.043 -1.1775  0.8610  0.1039
  715MOL0     H94338   3.174   8.781   3.852  1.6736  3.0593  2.9080
  715MOL0     H94339   3.308   8.790   3.738  0.4468 -1.8873 -1.4071
  715MOL0     H94340   3.284   8.543   3.908  1.1141  0.4719  0.6003
  715MOL0     H94341   3.383   8.567   3.762 -1.6203 -3.0059 -2.3415
  715MOL0     H94342   3.028   8.398   3.580  2.6350  3.1643 -1.1767
  715MOL0     H94343   2.801   8.333   3.648 -0.5091  0.9709 -0.5776
  715MOL0     H94344   2.364   8.436   3.640  0.6305  1.4215  0.6853
  715MOL0     H94345   2.136   8.375   3.690  1.6463  1.1193 -1.3219
  715MOL0     H94346   1.984   8.272   4.057 -1.1544  0.2855 -1.3828
  715MOL0     H94347   2.072   8.119   4.050  1.8920  0.8110 -1.1137
  715MOL0     H94348   1.803   8.142   4.046 -1.3260 -3.8844  1.8626
  715MOL0     H94349   1.884   8.004   4.000  1.4122 -0.0388 -1.6952
  715MOL0     H94350   1.893   8.069   3.757 -0.4336  2.4138 -2.6987
  715MOL0     H94351   1.788   8.208   3.804  0.3945  0.1412 -0.1195
  715MOL0     H94352   1.714   7.926   3.860  1.8409  0.9486  0.6430
  715MOL0     H94353   1.631   8.076   3.916  0.5194  2.4672 -0.6899
  715MOL0     H94354   1.651   7.962   3.622 -1.1569 -0.0083 -0.3352
  715MOL0     H94355   1.592   8.123   3.672  0.2551  1.1550  1.2285
  715MOL0     H94356   1.416   8.007   3.817  2.7485 -1.4316  3.5770
  715MOL0     H94357   1.477   7.857   3.773 -0.6999  0.0703 -0.8148
  715MOL0     H94358   1.295   8.039   3.627 -2.1273 -1.7533  1.3195
  715MOL0     H94359   1.446   7.967   3.540  1.5160 -0.9975  0.6869
  715MOL0     H94360   1.228   7.836   3.500  0.3659  1.4328 -0.6957
  715MOL0     H94361   1.199   7.856   3.674 -2.0880  0.6548 -1.4719
  715MOL0     H94362   2.268   8.136   4.027 -5.4252  0.0200 -2.3072
  715MOL0     H94363   2.515   8.186   3.963  2.1572  0.2008 -2.1187
  715MOL0     H94364   2.851   8.534   4.024  2.7548  1.2548  1.1289
  715MOL0     H94365   3.079   8.610   3.948  0.4007 -0.4265  0.9937
  715MOL0     H94366   4.101   9.980   4.334  0.2094 -0.5915  1.1304
  715MOL0     H94367   4.153  10.212   4.306 -1.1207 -2.0385 -1.6426
  715MOL0     H94368   4.556  10.471   4.137  0.7462  0.7837 -0.7835
  715MOL0     H94369   4.587  10.705   4.069 -1.9507 -1.4406 -2.1805
  715MOL0     H94370   4.324  10.900   4.013  0.2858 -0.5173  2.0044
  715MOL0     H94371   4.498  10.872   3.964  1.8748  3.7136 -4.3151
  715MOL0     H94372   4.345  11.128   4.008 -0.8234 -0.5811  2.4149
  715MOL0     H94373   4.517  11.120   4.060  0.0771 -1.6921  1.3735
  715MOL0     H94374   4.405  11.027   3.779 -2.7461  0.6298  3.0225
  715MOL0     H94375   4.576  11.067   3.816  0.1240 -1.4314 -0.8815
  715MOL0     H94376   4.493  11.305   3.854  0.0173  1.1176 -2.0372
  715MOL0     H94377   4.499  11.233   3.698  0.9102 -1.0305 -0.2066
  715MOL0     H94378   4.076  11.249   3.800  1.3016  2.0147  2.6792
  715MOL0     H94379   4.329  10.840   4.372  1.6667 -0.9044  2.6317
  715MOL0     H94380   4.306  10.624   4.462 -0.1294 -1.7791  0.1397
  716MOL0     O94381   4.847   9.259   8.987 -0.0989  0.2093  0.3876
  716MOL0     C94382   4.879   9.154   9.030  0.2405  0.7626  0.0626
  716MOL0     O94383   5.007   9.111   9.073  0.4464 -0.5801  0.3580
  716MOL0     C94384   5.111   9.202   9.051 -0.2861  0.0830 -0.0014
  716MOL0     C94385   5.212   9.149   8.974  0.6053  1.5352  0.6064
  716MOL0     C94386   5.320   9.223   8.927  1.2992  0.3124  0.1952
  716MOL0     C94387   5.330   9.362   8.961 -0.2938  0.1778 -0.9240
  716MOL0     O94388   5.434   9.457   8.936  0.2559  0.1204  0.0827
  716MOL0     C94389   5.522   9.418   8.830 -0.4911  0.3073 -0.1395
  716MOL0     C94390   5.557   9.546   8.747 -0.0100  1.1049  0.2742
  716MOL0     C94391   5.610   9.522   8.601  0.0588  0.0340  0.1351
  716MOL0     C94392   5.644   9.659   8.534  0.1700  0.5319  0.0086
  716MOL0     C94393   5.759   9.640   8.424  0.0046  0.0608  0.0994
  716MOL0     C94394   5.728   9.549   8.299  0.8180 -0.4521  0.8072
  716MOL0     C94395   5.616   9.618   8.207  0.4200  0.0858  1.0807
  716MOL0     C94396   5.574   9.524   8.094  0.2408 -0.2064  0.0182
  716MOL0     N94397   5.485   9.419   8.151 -0.2060  0.6851  0.3014
  716MOL0     C94398   5.371   9.443   8.233  0.0990 -0.2409  1.5199
  716MOL0     C94399   5.348   9.329   8.296  0.2826  0.3793 -0.0014
  716MOL0     C94400   5.230   9.322   8.397  0.4714  0.2936 -0.1116
  716MOL0     C94401   5.223   9.204   8.479  0.1812 -0.1527 -0.2839
  716MOL0     C94402   5.151   9.222   8.616  0.5437 -0.1155 -0.4243
  716MOL0     C94403   5.003   9.264   8.608  0.6673  0.0611  0.5086
  716MOL0     O94404   4.931   9.177   8.525 -1.3889 -0.6076 -0.0150
  716MOL0     C94405   4.905   9.044   8.573  0.1525 -0.0054  0.5516
  716MOL0     C94406   4.926   9.012   8.707  0.0869  0.5201  0.3973
  716MOL0     C94407   4.919   8.870   8.740 -0.3661  0.0076 -0.0797
  716MOL0     C94408   4.896   8.770   8.639 -0.3653 -0.9923 -0.6720
  716MOL0     C94409   4.885   8.630   8.689 -0.3830 -1.5259  1.2081
  716MOL0     O94410   4.856   8.602   8.821 -0.1597 -0.4299 -0.0802
  716MOL0     C94411   4.784   8.488   8.854 -0.7479  0.9397 -0.1753
  716MOL0     C94412   4.701   8.419   8.777  0.2482  0.0433  0.1676
  716MOL0     C94413   4.636   8.298   8.807  0.7444 -0.2123  0.8607
  716MOL0     C94414   4.642   8.263   8.943 -0.1626  0.3715 -1.2145
  716MOL0     O94415   4.578   8.149   8.982 -0.6892 -0.3731 -0.4173
  716MOL0     C94416   4.554   8.135   9.122  0.1580  0.3400 -0.2627
  716MOL0     C94417   4.468   8.005   9.137  0.8889 -0.4685 -0.4880
  716MOL0     C94418   4.322   8.042   9.097  0.7107  0.0560 -0.0643
  716MOL0     C94419   4.225   7.926   9.119  0.2407  0.7151  0.8633
  716MOL0     C94420   4.080   7.946   9.066 -0.4025  0.4080 -0.5891
  716MOL0     C94421   4.075   7.940   8.919 -0.5033 -0.9268  0.0809
  716MOL0     C94422   3.953   7.867   8.861 -0.7977  1.2516  0.1041
  716MOL0     C94423   3.953   7.851   8.710 -0.4490  0.1386  0.2902
  716MOL0    Cl94424   3.812   7.764   8.647 -0.2601 -0.0082 -0.0960
  716MOL0     C94425   4.735   8.334   9.030 -0.4714  0.3988 -0.7418
  716MOL0     C94426   4.807   8.438   8.978  0.2175 -0.1657  0.0239
  716MOL0     O94427   4.890   8.545   8.602 -0.7554  0.2916  0.6015
  716MOL0     C94428   4.898   8.808   8.507 -0.2872 -0.2369  0.4133
  716MOL0     C94429   4.889   8.944   8.476  0.3553  0.3446 -0.2578
  716MOL0     N94430   5.448   9.231   8.254 -0.4350 -0.1278 -0.4019
  716MOL0     N94431   5.523   9.291   8.161  1.1223  0.0105 -0.3714
  716MOL0     C94432   5.219   9.409   9.033  0.1416 -0.4401  0.5044
  716MOL0     C94433   5.116   9.338   9.083  0.0743 -0.9024  0.2430
  716MOL0     C94434   4.773   9.054   9.055 -0.0731  0.3098  0.7869
  716MOL0     C94435   4.774   8.961   9.162  0.4249 -0.6472 -0.3697
  716MOL0     C94436   4.692   8.849   9.158  0.3074 -1.3101 -0.2849
  716MOL0     C94437   4.614   8.824   9.047 -0.9405  0.2644  0.0401
  716MOL0     O94438   4.547   8.704   9.046 -0.4876 -0.4249 -0.1567
  716MOL0     C94439   4.428   8.686   8.978  0.1699 -0.0877 -0.0277
  716MOL0     C94440   4.387   8.536   8.991  0.2094  0.5414  0.1183
  716MOL0     C94441   4.292   8.502   8.877 -0.6384  1.2008 -0.5715
  716MOL0     C94442   4.245   8.359   8.877  0.2598  0.5744 -0.3422
  716MOL0     C94443   4.180   8.317   8.752  0.2514  0.6334  0.1619
  716MOL0     C94444   4.146   8.269   8.639 -0.9051  0.5771 -0.1719
  716MOL0     C94445   4.606   8.915   8.945  0.5279 -0.5005  0.2385
  716MOL0     C94446   4.680   9.030   8.950  0.2093  0.2035 -0.6637
  716MOL0     H94447   5.204   9.045   8.947 -0.8685  2.0007 -0.8982
  716MOL0     H94448   5.405   9.174   8.879  2.6917  1.2563  1.6016
  716MOL0     H94449   5.482   9.346   8.757  0.7413 -1.4979  0.8761
  716MOL0     H94450   5.610   9.383   8.884  1.3342  0.9252 -2.5392
  716MOL0     H94451   5.624   9.614   8.800 -1.4666  2.4979  0.4313
  716MOL0     H94452   5.464   9.603   8.741 -1.1958 -0.7327  0.3427
  716MOL0     H94453   5.545   9.470   8.530 -2.5412  4.6674 -1.3007
  716MOL0     H94454   5.704   9.467   8.606  1.2505  1.6953 -2.3339
  716MOL0     H94455   5.555   9.692   8.480  0.1450 -2.1658 -1.8297
  716MOL0     H94456   5.671   9.736   8.607  2.2953 -0.5105  0.4092
  716MOL0     H94457   5.850   9.621   8.482 -0.0934  0.4804  0.3957
  716MOL0     H94458   5.768   9.744   8.392 -2.5179  0.7442  1.3280
  716MOL0     H94459   5.702   9.449   8.335  2.4660 -0.1736  2.9751
  716MOL0     H94460   5.821   9.536   8.243  0.7347  3.4199 -0.5595
  716MOL0     H94461   5.526   9.652   8.258  1.7518  4.7872  0.7650
  716MOL0     H94462   5.648   9.707   8.151  0.5983 -0.1014  0.8848
  716MOL0     H94463   5.669   9.485   8.056  1.5614 -0.8069  3.5488
  716MOL0     H94464   5.520   9.577   8.015 -0.4342 -0.9454 -0.0371
  716MOL0     H94465   5.319   9.538   8.239  2.2183  1.1996 -1.0238
  716MOL0     H94466   5.135   9.349   8.350 -0.8146  0.0413  2.1700
  716MOL0     H94467   5.242   9.409   8.462  1.9769  2.0383 -2.5547
  716MOL0     H94468   5.326   9.177   8.506 -0.2153  1.0106  2.8381
  716MOL0     H94469   5.190   9.112   8.429 -0.2938  0.4464 -1.0947
  716MOL0     H94470   5.150   9.127   8.671 -1.0497 -0.4327 -0.9284
  716MOL0     H94471   5.204   9.285   8.688 -0.8902  0.6462 -0.0003
  716MOL0     H94472   5.000   9.357   8.551 -2.3187 -0.7159 -0.8103
  716MOL0     H94473   4.961   9.275   8.708 -3.0224  2.9546 -1.1306
  716MOL0     H94474   4.939   9.086   8.786 -1.0294 -0.3272  1.4072
  716MOL0     H94475   4.916   8.854   8.847  1.1913 -1.9065 -0.2687
  716MOL0     H94476   4.676   8.455   8.677 -2.6020  4.2894  2.1245
  716MOL0     H94477   4.568   8.254   8.735  0.7351 -3.4116  2.6296
  716MOL0     H94478   4.500   8.223   9.156 -2.3381 -0.8615 -0.9084
  716MOL0     H94479   4.647   8.132   9.180  1.9157 -2.0704 -2.8883
  716MOL0     H94480   4.474   7.965   9.239 -1.1903 -0.2728 -0.2279
  716MOL0     H94481   4.504   7.926   9.071 -0.8729 -1.1566 -0.6831
  716MOL0     H94482   4.311   8.071   8.992  2.6495 -0.6594 -0.5085
  716MOL0     H94483   4.306   8.133   9.154 -0.2695  1.2406 -2.1004
  716MOL0     H94484   4.254   7.838   9.061 -2.5761 -0.3470  0.9196
  716MOL0     H94485   4.223   7.893   9.223 -3.5713  0.3461  0.8026
  716MOL0     H94486   4.036   8.039   9.103  1.7296  0.5100  2.0115
  716MOL0     H94487   4.018   7.862   9.101  0.7657 -0.7254 -1.1303
  716MOL0     H94488   4.166   7.898   8.875 -1.7022 -5.9981  1.7439
  716MOL0     H94489   4.057   8.046   8.899 -0.3281 -0.3809  2.5189
  716MOL0     H94490   3.950   7.771   8.913 -0.9985  2.0475  1.6389
  716MOL0     H94491   3.864   7.921   8.896 -2.1464 -0.1815 -0.9547
  716MOL0     H94492   4.041   7.791   8.685 -0.3056 -0.4322  2.0317
  716MOL0     H94493   3.956   7.945   8.654  1.7948 -0.2302 -0.3050
  716MOL0     H94494   4.743   8.303   9.133  1.2257 -1.0395 -1.2558
  716MOL0     H94495   4.879   8.481   9.047 -0.8493 -2.5598  2.8583
  716MOL0     H94496   4.894   8.735   8.427  0.1197 -1.5914  1.5967
  716MOL0     H94497   4.873   8.973   8.372 -2.0539  0.1102 -0.0072
  716MOL0     H94498   5.217   9.512   9.067  1.0196  0.0358 -0.8048
  716MOL0     H94499   5.043   9.391   9.144 -0.3676  1.4480 -2.1266
  716MOL0     H94500   4.832   8.986   9.251  2.6046 -0.8839 -1.6552
  716MOL0     H94501   4.693   8.771   9.233  2.5862 -2.8438 -1.7738
  716MOL0     H94502   4.448   8.702   8.871 -0.9964 -0.2684 -0.2916
  716MOL0     H94503   4.352   8.749   9.023 -1.8136 -1.8460 -0.7455
  716MOL0     H94504   4.474   8.469   8.995 -0.3936 -0.2408  0.3861
  716MOL0     H94505   4.332   8.514   9.083  0.5882  0.5761  0.3544
  716MOL0     H94506   4.346   8.516   8.783  0.3823  1.5660  0.0571
  716MOL0     H94507   4.202   8.562   8.886 -1.1871  0.1047  2.2307
  716MOL0     H94508   4.323   8.284   8.894 -1.9931 -1.7111  0.6716
  716MOL0     H94509   4.178   8.342   8.962  0.1543  0.7008 -0.3996
  716MOL0     H94510   4.127   8.208   8.553  0.7156  0.6488 -0.6150
  716MOL0     H94511   4.541   8.897   8.859 -0.6513 -0.9356  1.1933
  716MOL0     H94512   4.680   9.099   8.867  0.5738 -1.1032 -1.7992
  717MOL0     O94513   1.557   5.256   3.946 -0.5923 -0.2256  0.6379
  717MOL0     C94514   1.433   5.263   3.959 -0.6417 -0.0255 -0.1424
  717MOL0     O94515   1.361   5.369   3.931 -0.5988 -0.3406 -0.0132
  717MOL0     C94516   1.411   5.461   3.843  0.7569  0.9841  0.2584
  717MOL0     C94517   1.438   5.596   3.872  0.5669 -0.0393  0.0713
  717MOL0     C94518   1.493   5.673   3.776  0.4553  0.5129  0.5843
  717MOL0     C94519   1.499   5.635   3.641  0.4795  0.6959 -0.3650
  717MOL0     O94520   1.549   5.709   3.539 -0.6755 -0.5098  0.1375
  717MOL0     C94521   1.574   5.853   3.544 -0.1120 -0.6614 -0.2186
  717MOL0     C94522   1.596   5.918   3.402  0.1134 -0.7911  0.1065
  717MOL0     C94523   1.749   5.916   3.383 -0.2514 -0.6627  0.0531
  717MOL0     C94524   1.788   5.975   3.246  0.0371  0.2959  0.1494
  717MOL0     C94525   1.935   5.960   3.228 -0.4740  0.5944  0.8210
  717MOL0     C94526   1.977   5.826   3.174 -0.1944  0.5911  0.2689
  717MOL0     C94527   2.120   5.811   3.129  0.6369 -0.4672  0.2963
  717MOL0     C94528   2.141   5.892   3.006  0.9156 -0.5410  0.8286
  717MOL0     N94529   2.173   5.814   2.884  0.1043 -0.2451 -0.5070
  717MOL0     C94530   2.092   5.719   2.836  0.2061  0.3323  1.1499
  717MOL0     C94531   2.166   5.680   2.726  0.6049 -0.1518 -0.3691
  717MOL0     C94532   2.104   5.593   2.620  0.1073  0.2767 -0.4666
  717MOL0     C94533   2.165   5.620   2.479 -0.5416  0.8022  0.2338
  717MOL0     C94534   2.075   5.559   2.369  0.1773  0.5803  0.1328
  717MOL0     C94535   2.134   5.420   2.331  0.0086 -0.6063 -0.3666
  717MOL0     O94536   2.076   5.375   2.212  0.1232  0.1709  0.8082
  717MOL0     C94537   1.955   5.302   2.213 -0.3396  0.0291  0.8291
  717MOL0     C94538   1.888   5.245   2.321  0.9804 -0.0114 -0.3152
  717MOL0     C94539   1.764   5.176   2.298 -0.0900 -0.7624 -0.0956
  717MOL0     C94540   1.702   5.168   2.171  0.3889 -0.8143  0.5073
  717MOL0     C94541   1.594   5.078   2.142 -0.4635  0.1168 -0.1092
  717MOL0     O94542   1.549   5.072   2.014  0.1173  0.3375  0.5767
  717MOL0     C94543   1.419   5.032   1.999 -1.1515 -0.1100  0.8174
  717MOL0     C94544   1.318   5.112   2.047  0.8510  0.7391  1.4179
  717MOL0     C94545   1.189   5.076   2.041  0.1425  0.3875  0.4369
  717MOL0     C94546   1.152   4.964   1.956 -0.7503 -0.8234 -0.9723
  717MOL0     O94547   1.021   4.916   1.940  0.9246 -0.0033  0.0405
  717MOL0     C94548   0.921   4.984   2.012  0.6274 -0.2582 -0.2694
  717MOL0     C94549   0.782   4.916   1.970  0.1032  0.6059 -0.1823
  717MOL0     C94550   0.690   4.981   1.859 -0.3396  0.4454  0.7919
  717MOL0     C94551   0.556   4.911   1.880  0.7841 -0.0592  1.1584
  717MOL0     C94552   0.438   4.978   1.821  0.9979 -0.2020 -0.8484
  717MOL0     C94553   0.309   4.902   1.827  0.8232 -0.0885 -0.1512
  717MOL0     C94554   0.223   4.947   1.947  0.0671  0.5299  0.2008
  717MOL0     C94555   0.105   4.859   1.976  0.6967 -0.3341  0.4543
  717MOL0    Cl94556  -0.012   4.959   2.075  0.2188 -0.1150  0.4317
  717MOL0     C94557   1.253   4.878   1.911 -0.1486 -0.4349 -0.4739
  717MOL0     C94558   1.386   4.915   1.941  0.8808  0.8114  0.0947
  717MOL0     O94559   1.546   5.008   2.239  0.0883  0.2214 -0.0109
  717MOL0     C94560   1.778   5.227   2.065  0.3603  0.2281  0.6471
  717MOL0     C94561   1.891   5.294   2.084 -0.4675 -1.2884 -0.3032
  717MOL0     N94562   2.287   5.741   2.727 -0.0946  0.4670  0.4373
  717MOL0     N94563   2.291   5.829   2.813  0.9083 -0.2746  0.0108
  717MOL0     C94564   1.476   5.506   3.608  0.0678  0.1866 -0.4218
  717MOL0     C94565   1.433   5.411   3.707 -0.0201 -0.2800  0.2464
  717MOL0     C94566   1.351   5.152   4.025  0.0965  0.0897  0.0429
  717MOL0     C94567   1.228   5.165   4.087 -0.0461 -0.2469 -0.0261
  717MOL0     C94568   1.158   5.067   4.159 -0.5524 -0.7627 -0.1374
  717MOL0     C94569   1.227   4.941   4.180 -0.9836  0.0749 -0.1130
  717MOL0     O94570   1.164   4.851   4.253 -0.8859 -0.3085  0.2340
  717MOL0     C94571   1.246   4.792   4.357  0.5499 -0.6657 -0.1544
  717MOL0     C94572   1.301   4.909   4.448 -0.6965  0.3575 -0.1911
  717MOL0     C94573   1.398   4.833   4.547  1.2432 -0.1765  0.4135
  717MOL0     C94574   1.536   4.794   4.486  0.0491 -0.9156 -0.4848
  717MOL0     C94575   1.609   4.903   4.406  0.1186  0.1040 -0.6545
  717MOL0     C94576   1.661   5.001   4.351  0.7226  0.4494  0.0588
  717MOL0     C94577   1.348   4.914   4.116  0.4241 -0.4952  0.3133
  717MOL0     C94578   1.413   5.019   4.038  0.2216  0.5001 -0.6696
  717MOL0     H94579   1.415   5.611   3.977  1.8874 -2.0750  0.7097
  717MOL0     H94580   1.531   5.772   3.799  2.2654  0.5591 -2.1425
  717MOL0     H94581   1.651   5.879   3.617 -0.7885  1.0877 -0.0804
  717MOL0     H94582   1.486   5.904   3.584  2.1993  1.3059  2.7569
  717MOL0     H94583   1.551   6.018   3.394  1.5291 -0.2979 -3.2630
  717MOL0     H94584   1.543   5.867   3.321 -2.7680  0.6370  0.9640
  717MOL0     H94585   1.780   5.812   3.398 -2.3308 -1.3258  0.1443
  717MOL0     H94586   1.784   5.984   3.460 -0.6960  1.1091 -1.2297
  717MOL0     H94587   1.722   5.926   3.175 -2.9497  0.7054  2.4409
  717MOL0     H94588   1.769   6.083   3.244  0.2354  0.4776 -5.0121
  717MOL0     H94589   1.994   5.967   3.320  1.2344 -0.7717 -0.1173
  717MOL0     H94590   1.966   6.033   3.153  1.8650 -0.9615  0.1612
  717MOL0     H94591   1.917   5.804   3.085  1.5044  1.5099 -1.1671
  717MOL0     H94592   1.971   5.751   3.253  2.7364  2.4927  2.5490
  717MOL0     H94593   2.190   5.843   3.207  2.9291  0.8413 -2.1262
  717MOL0     H94594   2.137   5.705   3.109 -1.1053 -0.7643  0.2478
  717MOL0     H94595   2.228   5.957   3.022  0.9182  0.8608 -3.4976
  717MOL0     H94596   2.055   5.952   2.974  3.3534  1.9077 -1.7181
  717MOL0     H94597   1.986   5.697   2.849 -0.8229  3.5293 -0.7116
  717MOL0     H94598   1.997   5.616   2.618  0.7131  3.9070  0.7262
  717MOL0     H94599   2.127   5.487   2.631  2.5517  0.7659 -0.3900
  717MOL0     H94600   2.267   5.582   2.474 -0.8264  0.1449 -1.1309
  717MOL0     H94601   2.168   5.726   2.455  3.0350  0.3976 -1.7085
  717MOL0     H94602   1.975   5.555   2.412  1.3669  1.2180  3.2160
  717MOL0     H94603   2.087   5.620   2.279 -1.1715 -2.3145 -2.1767
  717MOL0     H94604   2.129   5.344   2.410  0.7396 -0.8056 -0.5122
  717MOL0     H94605   2.238   5.438   2.304 -0.5204  0.9196 -1.4848
  717MOL0     H94606   1.921   5.244   2.424 -0.6604  0.2191  0.2419
  717MOL0     H94607   1.717   5.123   2.379  0.2653  1.3101  1.5682
  717MOL0     H94608   1.358   5.193   2.107 -0.0455 -0.2924  3.5072
  717MOL0     H94609   1.112   5.131   2.094 -0.8186  0.4657 -0.9967
  717MOL0     H94610   0.905   5.088   1.982 -1.1544  0.0280  1.4252
  717MOL0     H94611   0.935   4.980   2.120 -2.6786  5.3073  0.7475
  717MOL0     H94612   0.731   4.902   2.066  0.8749 -2.6055 -0.1309
  717MOL0     H94613   0.801   4.816   1.930  0.2182  1.7996 -3.3443
  717MOL0     H94614   0.726   4.970   1.756  0.6151 -3.6730  1.4165
  717MOL0     H94615   0.677   5.087   1.881  4.1625  1.1546  1.0220
  717MOL0     H94616   0.555   4.810   1.838 -0.5682  0.9132 -1.3553
  717MOL0     H94617   0.536   4.889   1.985  1.3422 -1.1608  1.0474
  717MOL0     H94618   0.457   5.002   1.716 -1.2475  0.6045 -1.1289
  717MOL0     H94619   0.429   5.076   1.868  2.0185  0.0665 -1.1819
  717MOL0     H94620   0.329   4.795   1.840 -0.7285 -0.6953 -2.2901
  717MOL0     H94621   0.262   4.916   1.730  2.7184  0.1276 -1.0820
  717MOL0     H94622   0.290   4.939   2.033 -0.7968 -1.8437  0.7137
  717MOL0     H94623   0.195   5.052   1.941  1.1838  0.7926 -1.0631
  717MOL0     H94624   0.136   4.773   2.035  0.5678 -1.0824 -0.5472
  717MOL0     H94625   0.045   4.832   1.889 -1.9208  2.8996  1.0501
  717MOL0     H94626   1.245   4.776   1.875  0.6755 -1.6214  2.4498
  717MOL0     H94627   1.469   4.846   1.930  0.1406 -0.2265  0.8033
  717MOL0     H94628   1.735   5.202   1.969 -2.3241 -1.8300  2.2206
  717MOL0     H94629   1.945   5.337   1.999 -0.8113  3.9889  1.7636
  717MOL0     H94630   1.487   5.473   3.505 -2.4152 -0.1665 -0.6413
  717MOL0     H94631   1.401   5.310   3.683 -0.1720 -0.7079  2.0640
  717MOL0     H94632   1.182   5.263   4.096 -0.1337 -0.3141  0.2986
  717MOL0     H94633   1.066   5.092   4.210 -0.4461  0.0561 -0.3400
  717MOL0     H94634   1.327   4.731   4.317  4.2108  1.4307  3.3548
  717MOL0     H94635   1.188   4.725   4.420  1.4608 -0.9807  0.3645
  717MOL0     H94636   1.355   4.993   4.402  3.9895 -2.6561 -0.9430
  717MOL0     H94637   1.213   4.951   4.496 -0.8674  1.6273 -1.5311
  717MOL0     H94638   1.342   4.751   4.592 -2.0165  1.3872 -0.5345
  717MOL0     H94639   1.425   4.908   4.621 -1.5295 -0.3073  1.6466
  717MOL0     H94640   1.600   4.767   4.570  0.9585 -1.0981 -1.2271
  717MOL0     H94641   1.529   4.698   4.434  4.0806 -2.3211  1.1902
  717MOL0     H94642   1.712   5.075   4.292 -0.1815  0.8181 -0.2863
  717MOL0     H94643   1.402   4.821   4.133  1.4589 -0.5038 -2.5139
  717MOL0     H94644   1.513   4.994   4.003  1.1113  3.9058 -0.8620
  718MOL0     O94645   9.708  11.262   0.120  0.2483  0.6987  0.1602
  718MOL0     C94646   9.708  11.243  -0.002 -0.0017 -0.4319 -0.7357
  718MOL0     O94647   9.638  11.142  -0.068 -0.0676  0.1974  0.1601
  718MOL0     C94648   9.548  11.051  -0.016  0.3871 -0.2070 -0.2148
  718MOL0     C94649   9.547  11.009   0.121 -0.0250 -0.0004  0.6232
  718MOL0     C94650   9.447  10.922   0.151 -0.0638  0.0191 -0.1631
  718MOL0     C94651   9.361  10.865   0.056 -1.2086 -0.0332 -0.3703
  718MOL0     O94652   9.276  10.769   0.099  0.6586  0.0690 -0.6333
  718MOL0     C94653   9.290  10.646   0.027  0.8350  0.3360  0.2738
  718MOL0     C94654   9.162  10.584  -0.017 -0.4372 -0.7677 -0.3036
  718MOL0     C94655   9.086  10.552   0.116 -0.1650  0.0282  0.8560
  718MOL0     C94656   9.139  10.435   0.198  0.0633  0.1384  0.9540
  718MOL0     C94657   9.039  10.360   0.293 -0.3846  0.9031 -0.2501
  718MOL0     C94658   8.917  10.309   0.210 -0.8113  1.1340  0.0818
  718MOL0     C94659   8.842  10.203   0.292 -0.2520 -0.0336 -0.0191
  718MOL0     C94660   8.914  10.065   0.292  0.6465 -0.8208 -0.1318
  718MOL0     N94661   8.811   9.965   0.300  0.0526  0.1027 -0.2758
  718MOL0     C94662   8.814   9.831   0.350 -0.4735 -0.8394  0.2844
  718MOL0     C94663   8.698   9.774   0.321 -0.5919  0.5862 -0.0436
  718MOL0     C94664   8.672   9.626   0.348 -0.1916 -0.0363 -0.5033
  718MOL0     C94665   8.526   9.593   0.325 -0.3540  0.5070  0.2259
  718MOL0     C94666   8.505   9.444   0.289  0.3734  0.4854 -0.0779
  718MOL0     C94667   8.361   9.422   0.255  0.0783 -0.1327 -0.2627
  718MOL0     O94668   8.357   9.289   0.187 -0.4563 -0.5998 -0.6093
  718MOL0     C94669   8.253   9.206   0.216 -0.9698  0.2479  0.4018
  718MOL0     C94670   8.275   9.072   0.194  0.4231  0.1562  1.0924
  718MOL0     C94671   8.185   8.971   0.214 -0.0614  0.5611 -0.0442
  718MOL0     C94672   8.061   9.004   0.270 -0.1235  0.2369 -0.4931
  718MOL0     C94673   7.958   8.898   0.294 -0.2507  0.1538 -0.7164
  718MOL0     O94674   7.827   8.950   0.316 -0.5662 -0.4759 -0.5599
  718MOL0     C94675   7.707   8.880   0.290 -0.0299  0.1588  0.3028
  718MOL0     C94676   7.700   8.734   0.260 -0.1058  0.1481  0.2580
  718MOL0     C94677   7.575   8.682   0.255  0.7268  0.6529  0.1876
  718MOL0     C94678   7.460   8.753   0.260 -0.2662 -0.2193  0.7336
  718MOL0     O94679   7.341   8.690   0.261  0.9208 -0.3213 -0.1879
  718MOL0     C94680   7.248   8.704   0.151  0.2994  0.9385  0.5764
  718MOL0     C94681   7.179   8.569   0.126 -0.1587 -0.5639  0.5344
  718MOL0     C94682   7.065   8.548   0.212 -0.4655  0.7347 -0.3829
  718MOL0     C94683   7.014   8.407   0.177  0.3201 -0.5267 -0.8008
  718MOL0     C94684   6.893   8.361   0.255 -0.0713 -0.8306  0.2511
  718MOL0     C94685   6.779   8.461   0.258  0.3042  0.0311  0.3394
  718MOL0     C94686   6.734   8.512   0.123  0.9784  0.1741  0.0885
  718MOL0     C94687   6.628   8.411   0.077 -0.6283  0.7955  0.7403
  718MOL0    Cl94688   6.579   8.459  -0.095  0.1577 -0.0169  0.3123
  718MOL0     C94689   7.469   8.894   0.273 -0.4807  0.5179  0.3936
  718MOL0     C94690   7.592   8.960   0.300  0.2913  0.5903  0.4006
  718MOL0     O94691   7.988   8.776   0.293  1.2093 -0.6045 -0.4828
  718MOL0     C94692   8.034   9.141   0.299  0.0156 -0.3029 -0.2530
  718MOL0     C94693   8.128   9.243   0.272  0.5893 -0.7944 -0.4167
  718MOL0     N94694   8.623   9.869   0.241  0.1037  0.3546  1.0580
  718MOL0     N94695   8.687   9.977   0.239 -0.1157  0.2329 -0.0369
  718MOL0     C94696   9.358  10.909  -0.075 -0.1308 -0.3754  0.6431
  718MOL0     C94697   9.462  11.001  -0.107  0.4076  0.5568  1.7576
  718MOL0     C94698   9.811  11.327  -0.062 -0.7036 -0.1936  0.3199
  718MOL0     C94699   9.862  11.300  -0.194  1.5525  0.0656 -0.0681
  718MOL0     C94700   9.965  11.373  -0.254 -0.3688  0.1896 -0.1088
  718MOL0     C94701  10.026  11.473  -0.177 -0.4113 -0.4271  0.3720
  718MOL0     O94702  10.128  11.540  -0.248  0.7241 -0.3499 -1.3271
  718MOL0     C94703  10.221  11.619  -0.169 -0.2054  0.6836  1.1382
  718MOL0     C94704  10.337  11.651  -0.266 -0.1554  0.1635  0.7193
  718MOL0     C94705  10.447  11.737  -0.189  0.2216  0.3330  0.8744
  718MOL0     C94706  10.591  11.736  -0.260  1.2147  0.0276  0.1272
  718MOL0     C94707  10.677  11.807  -0.166  0.7495  0.8055 -0.9185
  718MOL0     C94708  10.766  11.853  -0.098  0.4032 -0.4782 -0.2452
  718MOL0     C94709   9.987  11.500  -0.053  0.2423 -0.1531 -0.4467
  718MOL0     C94710   9.886  11.424   0.007  0.7134 -0.4651 -0.0049
  718MOL0     H94711   9.613  11.063   0.188  0.5825 -0.2537  0.2353
  718MOL0     H94712   9.427  10.885   0.251 -0.1328 -4.3582 -1.5840
  718MOL0     H94713   9.360  10.579   0.079  1.0469  0.2869 -0.0717
  718MOL0     H94714   9.334  10.663  -0.072  0.3544  3.0159  0.4411
  718MOL0     H94715   9.176  10.493  -0.076  0.8417 -0.2249 -0.8828
  718MOL0     H94716   9.115  10.668  -0.069  1.5538  0.2445 -0.5540
  718MOL0     H94717   8.987  10.542   0.070  1.2003  0.8868 -2.6234
  718MOL0     H94718   9.083  10.638   0.183 -1.9958  0.5007  0.2273
  718MOL0     H94719   9.161  10.360   0.122  0.5269 -0.4228  1.6298
  718MOL0     H94720   9.232  10.465   0.247  0.7431 -0.5736  0.1291
  718MOL0     H94721   8.998  10.425   0.370  0.9338  2.3690 -0.7237
  718MOL0     H94722   9.090  10.282   0.350  2.3019  2.3874 -0.4700
  718MOL0     H94723   8.946  10.270   0.112  1.1190  0.3283  0.9136
  718MOL0     H94724   8.837  10.378   0.183 -2.1494 -0.2607  0.3609
  718MOL0     H94725   8.818  10.232   0.395  0.2174  3.3647 -0.7514
  718MOL0     H94726   8.748  10.204   0.237 -0.3066  2.1949  0.0192
  718MOL0     H94727   8.984  10.081   0.375  1.9345 -0.7040 -1.2073
  718MOL0     H94728   8.971  10.059   0.199  0.4039  3.5838 -0.7786
  718MOL0     H94729   8.891   9.791   0.415  0.0772 -1.8159 -0.9223
  718MOL0     H94730   8.700   9.599   0.450 -0.6447  1.0366 -0.0803
  718MOL0     H94731   8.727   9.559   0.281 -1.4062 -0.3979 -1.1479
  718MOL0     H94732   8.498   9.643   0.232  1.2623 -0.2920 -0.7525
  718MOL0     H94733   8.464   9.634   0.405  0.2921 -0.3931  1.2367
  718MOL0     H94734   8.561   9.421   0.198  1.3100  0.7146  0.4287
  718MOL0     H94735   8.541   9.376   0.366 -1.6412 -0.4476  0.1125
  718MOL0     H94736   8.334   9.510   0.195  1.2416 -0.7770 -1.8040
  718MOL0     H94737   8.303   9.423   0.348 -0.2997  1.7992 -0.4904
  718MOL0     H94738   8.365   9.041   0.142 -0.8098  1.7532 -2.2270
  718MOL0     H94739   8.212   8.867   0.198 -2.3388  0.1261 -1.4933
  718MOL0     H94740   7.784   8.666   0.254  0.3406  0.7008  0.2152
  718MOL0     H94741   7.558   8.575   0.246  0.2576  0.7546 -0.2095
  718MOL0     H94742   7.287   8.745   0.058 -3.0257 -0.7972 -1.7952
  718MOL0     H94743   7.172   8.779   0.175 -1.9286 -0.5983 -1.2259
  718MOL0     H94744   7.257   8.493   0.133  0.4945  0.1780  1.4622
  718MOL0     H94745   7.140   8.585   0.025 -1.3028  0.2974  1.0946
  718MOL0     H94746   6.991   8.625   0.189  0.9814  2.5702  0.7474
  718MOL0     H94747   7.092   8.549   0.318 -1.2272 -2.2004 -0.0774
  718MOL0     H94748   7.006   8.407   0.068  0.8485  3.5964 -1.0250
  718MOL0     H94749   7.088   8.331   0.206 -0.4099 -0.9918 -0.1339
  718MOL0     H94750   6.933   8.351   0.356  1.6252 -3.3105 -0.5802
  718MOL0     H94751   6.856   8.266   0.217  4.3517 -2.0348 -1.6567
  718MOL0     H94752   6.808   8.558   0.298 -0.5607  1.7433 -2.8563
  718MOL0     H94753   6.703   8.418   0.324 -0.7007  3.8653  1.9774
  718MOL0     H94754   6.674   8.603   0.132 -1.2079 -1.3200  1.7133
  718MOL0     H94755   6.816   8.523   0.051  1.2847  0.9815  0.5415
  718MOL0     H94756   6.542   8.415   0.145 -0.4169 -0.2477  1.0839
  718MOL0     H94757   6.666   8.309   0.071 -1.6553  0.4847 -1.3157
  718MOL0     H94758   7.377   8.951   0.267 -0.5593  0.4360  0.7405
  718MOL0     H94759   7.593   9.066   0.321  2.4836  0.5134  0.9003
  718MOL0     H94760   7.941   9.166   0.349  1.3916 -0.9695  2.8645
  718MOL0     H94761   8.097   9.344   0.297  0.6564 -0.4389 -1.7158
  718MOL0     H94762   9.276  10.880  -0.140 -0.6011  1.8772  0.1269
  718MOL0     H94763   9.465  11.038  -0.209 -2.3734 -1.1494  0.9741
  718MOL0     H94764   9.818  11.218  -0.249  3.0893 -0.8269 -0.0107
  718MOL0     H94765  10.005  11.364  -0.354 -1.1067 -0.8536 -0.3279
  718MOL0     H94766  10.260  11.574  -0.077 -0.0320  1.4976  1.4642
  718MOL0     H94767  10.170  11.711  -0.139 -1.8900 -0.3638  1.6543
  718MOL0     H94768  10.388  11.557  -0.289 -0.6653 -0.2278  1.1491
  718MOL0     H94769  10.310  11.686  -0.366  1.9006 -1.6395 -0.5339
  718MOL0     H94770  10.458  11.704  -0.085 -0.6403 -2.4006  0.1814
  718MOL0     H94771  10.404  11.836  -0.207  0.6425  0.0843 -2.0284
  718MOL0     H94772  10.629  11.637  -0.283 -0.5169 -1.1791  2.0933
  718MOL0     H94773  10.589  11.790  -0.355  0.6061  1.8324  1.1064
  718MOL0     H94774  10.841  11.904  -0.042 -0.8282  1.0747  0.0767
  718MOL0     H94775  10.015  11.579   0.016  0.8325 -1.7116  1.1785
  718MOL0     H94776   9.859  11.472   0.101 -0.8336  1.3816 -1.3247
  719MOL0     O94777   8.613   5.558   6.151 -0.3800  0.5365  0.7639
  719MOL0     C94778   8.651   5.646   6.225 -0.2409 -0.4028  0.8191
  719MOL0     O94779   8.727   5.754   6.191 -0.0945 -0.0105  0.6850
  719MOL0     C94780   8.797   5.763   6.076  0.0178 -0.3357  0.3902
  719MOL0     C94781   8.869   5.651   6.026  0.4293  0.5189  0.3144
  719MOL0     C94782   8.946   5.659   5.914 -0.3284  0.0239  0.7680
  719MOL0     C94783   8.947   5.773   5.829  0.8120 -0.0985  0.3986
  719MOL0     O94784   9.012   5.790   5.711  0.0033 -0.0252  0.8867
  719MOL0     C94785   9.129   5.870   5.722  0.3699 -0.3394 -0.3208
  719MOL0     C94786   9.183   5.893   5.582  0.1349 -0.4213  0.0401
  719MOL0     C94787   9.296   5.999   5.593 -0.2534  0.6972  0.1332
  719MOL0     C94788   9.357   6.013   5.455 -0.0740  0.6461  0.8410
  719MOL0     C94789   9.471   6.117   5.451  0.4069 -0.2275 -0.2523
  719MOL0     C94790   9.578   6.085   5.343  0.3492 -0.7447 -0.2522
  719MOL0     C94791   9.684   6.199   5.338  0.3854  0.6491 -0.7265
  719MOL0     C94792   9.792   6.155   5.245 -0.6057 -0.0728 -0.1916
  719MOL0     N94793   9.908   6.246   5.266  0.6525 -0.2328  0.9632
  719MOL0     C94794  10.042   6.215   5.290 -0.0110 -0.6570 -1.0259
  719MOL0     C94795  10.110   6.328   5.297 -0.6516  0.1164  0.0279
  719MOL0     C94796  10.265   6.344   5.314  1.2248  0.2620 -0.4006
  719MOL0     C94797  10.313   6.394   5.178 -0.1545 -0.0898  0.7713
  719MOL0     C94798  10.461   6.431   5.174  0.7480  0.0609  0.4522
  719MOL0     C94799  10.567   6.321   5.177  0.2509  0.2908  0.7817
  719MOL0     O94800  10.554   6.246   5.056  0.8381  0.4454 -0.2824
  719MOL0     C94801  10.484   6.133   5.046 -0.0694  0.2346  0.4048
  719MOL0     C94802  10.457   6.077   4.914 -0.2093 -0.4983  0.1465
  719MOL0     C94803  10.399   5.954   4.893 -0.9836  0.0989 -1.2771
  719MOL0     C94804  10.343   5.891   5.006  0.2547 -0.9562 -0.1665
  719MOL0     C94805  10.264   5.768   4.988 -0.1685  1.4158 -0.3221
  719MOL0     O94806  10.211   5.759   4.862  0.4347  0.4410 -1.0250
  719MOL0     C94807  10.108   5.668   4.845  0.0365  0.3260 -0.1837
  719MOL0     C94808  10.001   5.655   4.933  0.7084 -0.0204 -0.3165
  719MOL0     C94809   9.893   5.562   4.918 -0.8207  0.2259 -0.5323
  719MOL0     C94810   9.904   5.463   4.814  0.6871 -0.2868 -0.3225
  719MOL0     O94811   9.817   5.364   4.808 -0.0340  0.9424  0.3776
  719MOL0     C94812   9.672   5.410   4.798  0.7590 -0.1151  0.6067
  719MOL0     C94813   9.596   5.284   4.749  0.2985 -1.1087 -0.8821
  719MOL0     C94814   9.441   5.284   4.775 -0.4375  1.0155  0.2424
  719MOL0     C94815   9.362   5.380   4.678  0.0630 -0.2460 -0.2972
  719MOL0     C94816   9.293   5.312   4.559 -0.7428 -0.3297 -0.3676
  719MOL0     C94817   9.176   5.217   4.591 -0.3796 -0.8835  0.0096
  719MOL0     C94818   9.095   5.172   4.461 -0.3720 -0.5626 -0.2823
  719MOL0     C94819   9.004   5.285   4.409  0.8561  0.4164  0.1031
  719MOL0    Cl94820   9.075   5.406   4.285 -0.0790  0.6503  0.2731
  719MOL0     C94821  10.005   5.474   4.723 -0.8641  1.0894 -1.7604
  719MOL0     C94822  10.112   5.572   4.737  0.6855 -0.2308 -0.5430
  719MOL0     O94823  10.270   5.672   5.075  0.4424  0.4644  0.1595
  719MOL0     C94824  10.372   5.935   5.131 -0.5026 -0.8531 -0.1014
  719MOL0     C94825  10.438   6.055   5.149  0.0859  0.5289 -0.3795
  719MOL0     N94826  10.030   6.433   5.274 -0.0479  0.0040 -0.2072
  719MOL0     N94827   9.905   6.383   5.250 -0.3887  0.3394 -0.1438
  719MOL0     C94828   8.872   5.881   5.868 -1.0168 -0.2926 -0.7633
  719MOL0     C94829   8.795   5.882   5.989  0.9235  0.1408  0.1266
  719MOL0     C94830   8.609   5.642   6.366  0.7550 -0.0130  0.4130
  719MOL0     C94831   8.679   5.708   6.466 -0.8822 -0.5986  1.1560
  719MOL0     C94832   8.646   5.707   6.595  0.7619  0.0481 -0.0360
  719MOL0     C94833   8.534   5.634   6.639  0.9740 -0.2063 -0.1386
  719MOL0     O94834   8.503   5.611   6.769 -1.0041  0.5577 -0.1676
  719MOL0     C94835   8.592   5.654   6.866  0.1244  0.0651 -0.3494
  719MOL0     C94836   8.716   5.568   6.896 -0.2563 -0.1531  0.0368
  719MOL0     C94837   8.814   5.641   6.992  1.4129  0.3444 -0.3865
  719MOL0     C94838   8.943   5.575   7.031 -0.2221 -0.3167  0.8208
  719MOL0     C94839   9.018   5.545   6.911 -0.7521 -0.7097  0.6693
  719MOL0     C94840   9.078   5.528   6.811 -0.7718  0.4364  0.7447
  719MOL0     C94841   8.462   5.567   6.537 -0.7822  0.4319 -0.5785
  719MOL0     C94842   8.498   5.572   6.407  0.2604  0.4068 -0.4010
  719MOL0     H94843   8.867   5.553   6.072  2.6538 -0.9143 -2.3614
  719MOL0     H94844   9.003   5.575   5.877  0.7066  1.2525 -0.5044
  719MOL0     H94845   9.201   5.812   5.780  0.4159 -1.6852 -1.6604
  719MOL0     H94846   9.115   5.965   5.774  1.4521 -0.8400  0.9348
  719MOL0     H94847   9.101   5.921   5.515  0.6112  0.9017 -0.0183
  719MOL0     H94848   9.214   5.793   5.549  0.5679 -1.3373  2.9566
  719MOL0     H94849   9.371   5.962   5.664 -2.2496  0.7593  2.4069
  719MOL0     H94850   9.256   6.094   5.630 -2.4919 -0.3802  0.6447
  719MOL0     H94851   9.395   5.917   5.421 -0.6959  0.9074 -0.6527
  719MOL0     H94852   9.288   6.040   5.375 -0.1940  0.3590  0.8463
  719MOL0     H94853   9.519   6.112   5.549 -0.1273 -0.8240 -0.0133
  719MOL0     H94854   9.445   6.223   5.440  1.3988  0.0301 -0.1572
  719MOL0     H94855   9.524   6.071   5.248 -1.4436 -3.5106  1.0420
  719MOL0     H94856   9.626   5.988   5.362  1.6778 -0.1481 -0.4869
  719MOL0     H94857   9.647   6.298   5.311 -1.6480  0.9203  2.5183
  719MOL0     H94858   9.725   6.205   5.439  0.9511 -1.7777 -0.7382
  719MOL0     H94859   9.756   6.170   5.143  0.5678  0.4429 -0.5448
  719MOL0     H94860   9.819   6.050   5.258  5.2832  1.1141 -0.1124
  719MOL0     H94861  10.102   6.127   5.309  2.7678  0.1081 -5.0600
  719MOL0     H94862  10.301   6.243   5.334  2.0627  0.5247 -0.5488
  719MOL0     H94863  10.297   6.417   5.389  0.0518 -0.2294  0.6292
  719MOL0     H94864  10.266   6.492   5.161 -0.4694 -0.4466 -0.4894
  719MOL0     H94865  10.279   6.335   5.092  1.1147  3.2668 -2.2768
  719MOL0     H94866  10.475   6.491   5.083  0.3412  0.4411  0.6345
  719MOL0     H94867  10.470   6.493   5.263 -2.8975  0.2003  0.8631
  719MOL0     H94868  10.566   6.248   5.258  0.7915  0.6686  1.1356
  719MOL0     H94869  10.660   6.377   5.168 -0.9038  1.9846 -1.6607
  719MOL0     H94870  10.480   6.140   4.828 -0.6829  0.7556  0.9147
  719MOL0     H94871  10.394   5.917   4.791  2.1951 -1.7160 -0.8955
  719MOL0     H94872   9.995   5.733   5.008 -1.7939 -0.2278 -0.1892
  719MOL0     H94873   9.810   5.563   4.988 -1.6823 -0.6982 -1.5056
  719MOL0     H94874   9.654   5.483   4.719 -2.3065  0.4948  1.7513
  719MOL0     H94875   9.646   5.455   4.894  1.2128  2.8188 -0.5676
  719MOL0     H94876   9.638   5.198   4.803  2.1388  0.0495 -0.3808
  719MOL0     H94877   9.614   5.270   4.642  1.2637 -0.7826 -0.7787
  719MOL0     H94878   9.421   5.320   4.876 -1.8108 -2.7075  1.4718
  719MOL0     H94879   9.401   5.182   4.776 -0.2950  0.9589  1.1523
  719MOL0     H94880   9.276   5.417   4.735 -0.9356 -2.1805 -0.4488
  719MOL0     H94881   9.433   5.458   4.649  2.3238 -2.9071 -2.4864
  719MOL0     H94882   9.361   5.254   4.496 -0.4484 -1.4178  0.9140
  719MOL0     H94883   9.260   5.390   4.489  1.8177  2.2505  1.0698
  719MOL0     H94884   9.123   5.269   4.672  0.7684 -0.8308  0.7538
  719MOL0     H94885   9.198   5.118   4.631  1.0280  0.2161  2.1843
  719MOL0     H94886   9.161   5.139   4.380  1.3232  2.5218 -0.3157
  719MOL0     H94887   9.032   5.087   4.488 -4.3709  2.0870 -0.4554
  719MOL0     H94888   8.960   5.335   4.496  0.1883  0.0770 -0.0354
  719MOL0     H94889   8.926   5.222   4.366 -0.3005  1.3224  0.8192
  719MOL0     H94890  10.026   5.394   4.653 -0.4680 -0.6907  0.2800
  719MOL0     H94891  10.193   5.570   4.665  1.4731  4.3151 -0.1043
  719MOL0     H94892  10.334   5.882   5.218  1.0345 -0.3482  0.9266
  719MOL0     H94893  10.427   6.082   5.253 -0.0683  1.0712 -0.5298
  719MOL0     H94894   8.872   5.973   5.811  0.4336  0.9470  1.1122
  719MOL0     H94895   8.737   5.966   6.025  0.5422 -0.6933  1.5246
  719MOL0     H94896   8.763   5.771   6.439 -1.2138 -0.8779 -0.5950
  719MOL0     H94897   8.714   5.760   6.661  0.7420  2.0362 -1.5023
  719MOL0     H94898   8.542   5.668   6.962  2.5755 -0.2796  1.0565
  719MOL0     H94899   8.620   5.757   6.843 -1.2238  0.3628 -0.7576
  719MOL0     H94900   8.681   5.473   6.937  3.3884 -0.7470  2.1937
  719MOL0     H94901   8.770   5.536   6.807 -0.9248 -0.5882 -0.2267
  719MOL0     H94902   8.761   5.670   7.083  1.4664 -1.4587  0.2430
  719MOL0     H94903   8.838   5.736   6.942 -0.6202  0.6596 -0.8530
  719MOL0     H94904   8.993   5.641   7.102 -1.7056  0.1401  1.4748
  719MOL0     H94905   8.918   5.477   7.075 -0.2130 -1.2896 -1.2219
  719MOL0     H94906   9.124   5.505   6.717 -1.5089  2.2639 -0.0931
  719MOL0     H94907   8.380   5.501   6.562  0.4198 -0.5242  1.0038
  719MOL0     H94908   8.454   5.513   6.327  1.4425  0.7964 -1.3806
  720MOL0     O94909   3.791   4.596   6.848  0.6863 -0.5829 -0.6782
  720MOL0     C94910   3.830   4.486   6.820  0.3404  0.3914  0.2211
  720MOL0     O94911   3.765   4.400   6.727 -0.2282 -1.5756 -0.2496
  720MOL0     C94912   3.640   4.432   6.674  0.2195  0.1158 -1.1641
  720MOL0     C94913   3.535   4.509   6.733 -0.0194 -0.9543  0.9579
  720MOL0     C94914   3.403   4.509   6.685 -0.0074  0.0053  0.6247
  720MOL0     C94915   3.364   4.433   6.572  0.0299  0.0839 -1.1302
  720MOL0     O94916   3.236   4.443   6.522 -0.0775 -0.3960 -0.2074
  720MOL0     C94917   3.176   4.351   6.433  0.3977 -0.4236  0.2888
  720MOL0     C94918   3.044   4.308   6.492 -0.1659 -0.4829  0.2917
  720MOL0     C94919   2.953   4.225   6.404 -0.1005 -0.5252  0.3367
  720MOL0     C94920   2.816   4.235   6.462 -0.4737  1.1836 -0.4325
  720MOL0     C94921   2.702   4.180   6.379  0.3076 -0.1829 -0.3301
  720MOL0     C94922   2.677   4.037   6.407  0.8876 -0.5401 -0.2498
  720MOL0     C94923   2.570   4.011   6.511 -0.0912 -0.0563 -0.2763
  720MOL0     C94924   2.533   3.859   6.501  1.2214  0.7069 -0.2033
  720MOL0     N94925   2.403   3.824   6.569 -0.2233 -1.2090  0.5474
  720MOL0     C94926   2.370   3.744   6.681 -0.6899  0.6601  0.0641
  720MOL0     C94927   2.232   3.740   6.678 -0.9173  0.0795  0.4981
  720MOL0     C94928   2.128   3.661   6.754 -0.6357  0.3404  0.5287
  720MOL0     C94929   2.111   3.528   6.680 -0.2692 -0.5864 -0.1958
  720MOL0     C94930   2.244   3.438   6.661  0.5810  0.2139  0.3281
  720MOL0     C94931   2.215   3.291   6.648 -0.1021 -0.0548  0.1667
  720MOL0     O94932   2.340   3.226   6.627 -0.6136 -0.5374  0.6615
  720MOL0     C94933   2.344   3.092   6.652 -0.0232  0.2058 -0.3272
  720MOL0     C94934   2.440   3.038   6.736 -0.0062  0.6077  0.5427
  720MOL0     C94935   2.446   2.897   6.760  0.5026 -0.0735 -0.3057
  720MOL0     C94936   2.358   2.811   6.695  1.1181 -0.6134  1.1849
  720MOL0     C94937   2.359   2.659   6.705 -0.5466  0.1208 -0.6184
  720MOL0     O94938   2.425   2.606   6.809 -0.9632 -0.2536  0.0555
  720MOL0     C94939   2.431   2.472   6.833 -0.3244 -0.3066  0.8495
  720MOL0     C94940   2.469   2.441   6.958  0.4682 -0.1536  0.5029
  720MOL0     C94941   2.475   2.315   7.003  0.4087  0.4744  0.3298
  720MOL0     C94942   2.437   2.203   6.920  0.7543 -0.5355 -0.6950
  720MOL0     O94943   2.437   2.072   6.967 -0.1829 -0.4467  0.3746
  720MOL0     C94944   2.478   1.966   6.881  0.7574  0.3225 -0.2537
  720MOL0     C94945   2.512   1.835   6.968  0.4118  0.9023 -0.2759
  720MOL0     C94946   2.595   1.740   6.886 -0.1329  0.2574 -0.1793
  720MOL0     C94947   2.513   1.666   6.783 -0.2446  0.6346  0.4362
  720MOL0     C94948   2.596   1.620   6.659  0.3373  0.7813 -0.4304
  720MOL0     C94949   2.692   1.496   6.671 -0.8115 -0.9398 -0.5265
  720MOL0     C94950   2.755   1.465   6.529 -0.1944 -0.5498 -0.2546
  720MOL0     C94951   2.664   1.443   6.413  0.9032 -0.1960 -0.0858
  720MOL0    Cl94952   2.707   1.336   6.277 -0.4949 -0.0188 -0.0723
  720MOL0     C94953   2.431   2.237   6.785  0.9747  0.1705 -0.0400
  720MOL0     C94954   2.416   2.367   6.737  0.0638 -1.0848 -0.1458
  720MOL0     O94955   2.304   2.603   6.609 -0.5905  0.2840  0.6213
  720MOL0     C94956   2.260   2.868   6.612  0.8517  0.0802 -0.8614
  720MOL0     C94957   2.262   3.007   6.585  0.4581 -0.4783 -0.2657
  720MOL0     N94958   2.183   3.808   6.570  0.2348 -0.0169  0.6867
  720MOL0     N94959   2.285   3.860   6.511 -0.1775  0.0946  0.7039
  720MOL0     C94960   3.468   4.351   6.518  0.2436  0.3852 -0.4352
  720MOL0     C94961   3.595   4.350   6.570 -0.5325 -0.3479 -0.1320
  720MOL0     C94962   3.958   4.443   6.873 -0.5284 -0.5485  0.0336
  720MOL0     C94963   4.030   4.519   6.956  0.1138 -0.9090  0.8301
  720MOL0     C94964   4.157   4.472   6.994 -0.2221 -0.0336 -0.5299
  720MOL0     C94965   4.223   4.361   6.949 -0.3152  0.0088 -0.6566
  720MOL0     O94966   4.348   4.312   6.980  0.0328  1.1115  0.3276
  720MOL0     C94967   4.441   4.391   7.051  0.5432  0.4100  0.0324
  720MOL0     C94968   4.583   4.343   7.035  0.0517  0.2367 -0.4184
  720MOL0     C94969   4.604   4.226   7.132  0.1713  0.9424  0.1743
  720MOL0     C94970   4.752   4.176   7.123  0.2562 -0.7054 -0.1601
  720MOL0     C94971   4.751   4.058   7.202 -0.6441 -0.4223  0.0515
  720MOL0     C94972   4.748   3.964   7.275  0.4898 -0.5287 -0.4982
  720MOL0     C94973   4.155   4.284   6.860  0.2750  0.4821  0.3850
  720MOL0     C94974   4.023   4.325   6.823 -0.6247 -0.6639  0.7891
  720MOL0     H94975   3.541   4.572   6.821 -0.7410 -2.5217  2.1896
  720MOL0     H94976   3.320   4.566   6.727  1.5452  2.9211  0.0333
  720MOL0     H94977   3.242   4.268   6.406  0.4748 -0.0885 -0.6007
  720MOL0     H94978   3.173   4.411   6.342 -0.2405 -0.7459  0.0880
  720MOL0     H94979   3.001   4.399   6.534  1.4156  0.1938  0.5463
  720MOL0     H94980   3.077   4.245   6.575  3.3381  2.3837  1.3604
  720MOL0     H94981   2.991   4.122   6.403  0.3140 -0.3916 -1.0088
  720MOL0     H94982   2.956   4.262   6.301  0.0700 -0.0236  0.5208
  720MOL0     H94983   2.819   4.189   6.561 -3.8966  1.2953 -0.1441
  720MOL0     H94984   2.793   4.341   6.480 -3.5546  0.0624  3.6657
  720MOL0     H94985   2.726   4.180   6.272 -2.6341 -0.0033 -1.0596
  720MOL0     H94986   2.612   4.236   6.403 -0.9775 -2.5143  0.5656
  720MOL0     H94987   2.767   4.000   6.457  0.5708  0.5550  1.2212
  720MOL0     H94988   2.649   3.977   6.320 -1.0989 -0.1271  0.0462
  720MOL0     H94989   2.610   4.030   6.611  1.9156 -2.3642 -0.5441
  720MOL0     H94990   2.485   4.074   6.482 -1.3439 -2.0545 -1.2392
  720MOL0     H94991   2.616   3.795   6.533 -0.0119 -0.9986 -0.3302
  720MOL0     H94992   2.524   3.831   6.396 -1.4689  2.0292 -0.4102
  720MOL0     H94993   2.431   3.691   6.754 -1.3189 -2.3344 -1.4279
  720MOL0     H94994   2.033   3.716   6.752  0.6760  2.7467 -0.5989
  720MOL0     H94995   2.159   3.650   6.859  2.3437 -1.2508 -0.3873
  720MOL0     H94996   2.077   3.537   6.576  0.3278  1.0051 -0.2720
  720MOL0     H94997   2.039   3.469   6.738 -1.2116 -0.9885 -1.6954
  720MOL0     H94998   2.302   3.471   6.574 -1.2181  0.2137 -0.9262
  720MOL0     H94999   2.312   3.439   6.747  0.4312 -3.1174  0.6147
  720MOL0     H95000   2.148   3.264   6.566  2.7463 -1.4835 -1.8683
  720MOL0     H95001   2.173   3.261   6.744  1.4029  2.6802  1.8312
  720MOL0     H95002   2.516   3.106   6.775  0.1808  0.6378  0.1271
  720MOL0     H95003   2.506   2.857   6.841 -0.6525 -3.3579 -0.8988
  720MOL0     H95004   2.502   2.526   7.016 -2.4903  4.4432 -3.6977
  720MOL0     H95005   2.497   2.291   7.107  2.7598 -3.4755 -0.8567
  720MOL0     H95006   2.564   2.000   6.824  0.6019  2.4498  0.6839
  720MOL0     H95007   2.396   1.936   6.815 -2.4579  0.1658  3.4161
  720MOL0     H95008   2.422   1.779   6.996  0.9341 -1.3976 -2.8040
  720MOL0     H95009   2.565   1.860   7.061 -0.5296 -1.3879  0.9698
  720MOL0     H95010   2.650   1.670   6.950  0.2182  1.6965  1.1732
  720MOL0     H95011   2.671   1.801   6.836 -2.6720  3.1546 -0.8170
  720MOL0     H95012   2.478   1.568   6.816  0.6781  0.1016 -0.1259
  720MOL0     H95013   2.437   1.728   6.736  0.4223  1.3112  0.2331
  720MOL0     H95014   2.643   1.705   6.609 -2.6457  2.3444 -0.8336
  720MOL0     H95015   2.529   1.570   6.588  0.7108 -0.3601  0.0007
  720MOL0     H95016   2.654   1.407   6.722  0.1777 -0.7099  0.6545
  720MOL0     H95017   2.775   1.524   6.736 -0.6492 -3.0101  0.2084
  720MOL0     H95018   2.815   1.555   6.519 -1.0698  0.1306  0.4370
  720MOL0     H95019   2.820   1.376   6.526  1.7132  0.7016  1.3331
  720MOL0     H95020   2.630   1.543   6.383  0.3262  0.0094  1.1888
  720MOL0     H95021   2.569   1.399   6.447 -0.5233  3.1728  0.7349
  720MOL0     H95022   2.415   2.164   6.707  0.9607  0.8543 -0.6894
  720MOL0     H95023   2.402   2.388   6.631 -0.9345  3.7948  0.7404
  720MOL0     H95024   2.179   2.816   6.563 -0.3219 -0.2457  1.3208
  720MOL0     H95025   2.186   3.053   6.523  1.9814  1.4615 -0.7814
  720MOL0     H95026   3.454   4.281   6.436 -0.3871 -1.0259  0.8287
  720MOL0     H95027   3.665   4.279   6.526 -1.0548 -2.1433  1.7864
  720MOL0     H95028   4.002   4.622   6.975  1.0144 -1.1368  3.8476
  720MOL0     H95029   4.201   4.534   7.072 -1.3705 -3.1409  2.8934
  720MOL0     H95030   4.414   4.412   7.155  3.0266  4.6191  0.0504
  720MOL0     H95031   4.437   4.497   7.024  1.2037  1.0910  2.3294
  720MOL0     H95032   4.613   4.309   6.935 -0.0569  0.7627 -0.6337
  720MOL0     H95033   4.658   4.410   7.077 -1.4330  0.7742  1.5421
  720MOL0     H95034   4.535   4.146   7.102 -0.7058  1.1012  1.6615
  720MOL0     H95035   4.574   4.250   7.235 -2.9983 -3.5612  0.6122
  720MOL0     H95036   4.787   4.166   7.020 -0.8637  0.4807 -0.6906
  720MOL0     H95037   4.805   4.253   7.179 -0.6398 -0.5111  0.4382
  720MOL0     H95038   4.725   3.876   7.332  1.8772 -1.3162 -1.1069
  720MOL0     H95039   4.201   4.196   6.817  2.7661  0.6727  2.4098
  720MOL0     H95040   3.968   4.266   6.750 -1.2344  3.4498 -2.4007
  721MOL0     O95041   6.172   5.931   4.241  0.1753  0.0140 -0.4698
  721MOL0     C95042   6.204   5.809   4.251 -0.2504 -0.9125  0.2924
  721MOL0     O95043   6.283   5.755   4.348 -0.1450  0.2305  0.2891
  721MOL0     C95044   6.356   5.834   4.429 -0.7705 -0.2695 -0.1598
  721MOL0     C95045   6.328   5.852   4.564  1.3477 -0.4979  0.5378
  721MOL0     C95046   6.406   5.938   4.639 -0.4489 -0.0569 -0.6699
  721MOL0     C95047   6.536   5.978   4.590 -0.9447  0.6142  0.6949
  721MOL0     O95048   6.627   6.068   4.643  0.2904 -0.1535 -0.5860
  721MOL0     C95049   6.617   6.068   4.792 -0.4795  0.2641 -0.1949
  721MOL0     C95050   6.723   6.175   4.833 -0.0170  0.3043  0.7838
  721MOL0     C95051   6.675   6.322   4.817 -0.4052 -0.5389 -0.4137
  721MOL0     C95052   6.580   6.380   4.921 -0.0943 -0.1735 -0.2154
  721MOL0     C95053   6.548   6.521   4.879 -0.5274 -0.1029 -0.4906
  721MOL0     C95054   6.482   6.595   5.005 -0.2073 -0.1329 -0.4584
  721MOL0     C95055   6.459   6.744   4.987  0.5217 -0.7730  1.0085
  721MOL0     C95056   6.367   6.778   4.873 -0.7640 -0.0031  0.7209
  721MOL0     N95057   6.288   6.908   4.894 -0.6090 -0.0806 -0.3676
  721MOL0     C95058   6.342   7.028   4.930 -0.7837  0.0987  0.3599
  721MOL0     C95059   6.239   7.102   4.963  0.3197 -0.9008  0.0087
  721MOL0     C95060   6.252   7.247   5.021  0.0189 -0.0015  0.8845
  721MOL0     C95061   6.131   7.290   5.101  0.3082 -1.1185  0.6220
  721MOL0     C95062   6.106   7.447   5.113  0.2414 -0.1236  0.8769
  721MOL0     C95063   6.212   7.536   5.167  0.5750  0.2790 -0.1229
  721MOL0     O95064   6.235   7.490   5.294 -0.0375  0.0796 -0.9698
  721MOL0     C95065   6.360   7.471   5.338  0.1723 -0.1133 -0.8222
  721MOL0     C95066   6.389   7.347   5.400  1.5463  0.0712  0.4325
  721MOL0     C95067   6.513   7.309   5.438 -0.3282 -0.3113 -1.4181
  721MOL0     C95068   6.622   7.398   5.417  0.0855 -0.1562 -0.1935
  721MOL0     C95069   6.761   7.343   5.439 -0.1474 -0.0648 -0.8247
  721MOL0     O95070   6.867   7.415   5.397  0.2888 -0.2535 -0.6217
  721MOL0     C95071   6.976   7.432   5.475  0.0717 -1.2566 -0.2119
  721MOL0     C95072   7.089   7.459   5.407  0.9254 -0.5298  0.9123
  721MOL0     C95073   7.210   7.477   5.477 -0.4911  0.5510  0.9572
  721MOL0     C95074   7.224   7.457   5.614 -1.0181  0.7060 -0.2418
  721MOL0     O95075   7.350   7.460   5.669 -0.2323 -0.0006  0.2442
  721MOL0     C95076   7.388   7.353   5.749  1.2055  0.0757  0.2350
  721MOL0     C95077   7.530   7.356   5.799 -0.2998  0.3741  0.8509
  721MOL0     C95078   7.622   7.347   5.682 -0.0962 -0.1318 -0.5920
  721MOL0     C95079   7.772   7.308   5.718  0.4264  1.0740  0.7132
  721MOL0     C95080   7.882   7.325   5.601 -0.5158  0.2333 -0.3670
  721MOL0     C95081   7.849   7.235   5.478 -0.4962  0.2559 -0.1507
  721MOL0     C95082   7.969   7.249   5.387  0.2716  1.4052  0.4228
  721MOL0     C95083   7.947   7.273   5.239  0.9888  0.3871  0.5794
  721MOL0    Cl95084   8.111   7.283   5.160  0.3352  0.1435 -0.5492
  721MOL0     C95085   7.106   7.430   5.685 -0.0547  0.6949  1.1483
  721MOL0     C95086   6.986   7.422   5.616  0.1615 -0.1878  0.5588
  721MOL0     O95087   6.769   7.248   5.514  0.3646  0.0891 -0.2772
  721MOL0     C95088   6.597   7.523   5.353  0.0854 -0.3222  0.2689
  721MOL0     C95089   6.469   7.565   5.320 -0.2550  0.2525 -0.0260
  721MOL0     N95090   6.127   7.031   4.916  0.9257 -0.0306  0.2093
  721MOL0     N95091   6.161   6.914   4.884 -0.2029 -0.0898 -0.3200
  721MOL0     C95092   6.576   5.946   4.461 -0.0565  0.6520 -0.4786
  721MOL0     C95093   6.482   5.871   4.383 -0.3414  0.3848  0.2154
  721MOL0     C95094   6.151   5.722   4.144 -0.2096 -0.0316 -0.7570
  721MOL0     C95095   6.056   5.766   4.057  0.5770 -0.0612  0.5818
  721MOL0     C95096   5.998   5.686   3.956  0.4388 -0.1637  0.1854
  721MOL0     C95097   6.058   5.558   3.943  0.8483 -1.1911  0.0346
  721MOL0     O95098   6.018   5.473   3.843  0.8696  0.0633  0.3140
  721MOL0     C95099   6.090   5.481   3.724 -0.9159  0.3437 -0.7541
  721MOL0     C95100   6.019   5.563   3.612 -0.2938 -0.4791 -1.0853
  721MOL0     C95101   5.884   5.497   3.573  0.6883  0.3727 -0.7156
  721MOL0     C95102   5.781   5.602   3.521 -0.3257 -0.0150 -0.2982
  721MOL0     C95103   5.840   5.697   3.420 -0.9341 -0.7906  0.1708
  721MOL0     C95104   5.898   5.775   3.351 -0.6169 -0.8143  0.1431
  721MOL0     C95105   6.164   5.513   4.027  0.4447  0.6603  0.3911
  721MOL0     C95106   6.200   5.590   4.132 -0.5441 -0.4314  0.0321
  721MOL0     H95107   6.225   5.832   4.593 -0.4242  2.4724 -2.8622
  721MOL0     H95108   6.364   5.988   4.725 -1.5002 -0.2869 -1.0345
  721MOL0     H95109   6.654   5.978   4.843  3.1971  2.3095  1.1267
  721MOL0     H95110   6.517   6.100   4.823 -1.5923 -0.9763 -2.2250
  721MOL0     H95111   6.812   6.154   4.775  0.0435  0.7337  0.7126
  721MOL0     H95112   6.749   6.150   4.936  0.5931 -4.7336 -0.3443
  721MOL0     H95113   6.637   6.333   4.715 -1.1510 -0.8157 -0.1734
  721MOL0     H95114   6.764   6.386   4.814 -1.4599  1.0170  0.1594
  721MOL0     H95115   6.484   6.328   4.920 -0.1329 -0.1635  1.3080
  721MOL0     H95116   6.631   6.373   5.017  1.1497 -0.3166 -0.8662
  721MOL0     H95117   6.476   6.505   4.798 -1.8624 -1.0760  0.8241
  721MOL0     H95118   6.641   6.576   4.864 -0.7291  0.8244  1.3068
  721MOL0     H95119   6.525   6.568   5.102 -0.7784  0.3770 -0.0636
  721MOL0     H95120   6.381   6.556   5.015 -0.3064  0.0476 -0.7562
  721MOL0     H95121   6.413   6.797   5.071 -4.4256 -1.6869 -0.7965
  721MOL0     H95122   6.559   6.782   4.964  0.4386  0.2207  2.1523
  721MOL0     H95123   6.296   6.696   4.861 -0.3952 -0.2707  0.3875
  721MOL0     H95124   6.430   6.780   4.784 -2.7236 -2.7321 -0.8780
  721MOL0     H95125   6.448   7.051   4.934 -1.1259  1.6228  1.8364
  721MOL0     H95126   6.264   7.325   4.946 -0.6522 -1.0677 -0.3779
  721MOL0     H95127   6.340   7.261   5.084 -0.4028 -1.3911  1.8359
  721MOL0     H95128   6.142   7.242   5.200  0.2804 -2.5402 -0.0380
  721MOL0     H95129   6.044   7.244   5.054 -0.2090 -1.5375  1.9358
  721MOL0     H95130   6.057   7.476   5.020 -1.6860 -0.2709  1.7768
  721MOL0     H95131   6.024   7.460   5.185  1.5363  1.5275  2.1432
  721MOL0     H95132   6.173   7.638   5.157 -1.7344 -0.5210  0.0440
  721MOL0     H95133   6.304   7.518   5.112  0.9495  2.5776 -0.3556
  721MOL0     H95134   6.307   7.276   5.391  3.2874 -1.9064 -1.0020
  721MOL0     H95135   6.543   7.209   5.468  0.4315  0.5676  0.9338
  721MOL0     H95136   7.096   7.481   5.301  2.3585  0.0953  1.1089
  721MOL0     H95137   7.292   7.519   5.419 -0.2854 -2.4245 -1.1277
  721MOL0     H95138   7.367   7.257   5.702 -1.2364  0.8478 -0.3740
  721MOL0     H95139   7.320   7.354   5.834 -0.3523  1.0496 -0.9689
  721MOL0     H95140   7.547   7.281   5.877  1.4598  0.8344  0.9468
  721MOL0     H95141   7.550   7.449   5.852  1.0056  3.6762 -4.6458
  721MOL0     H95142   7.613   7.444   5.631 -3.2366 -0.9328 -1.8244
  721MOL0     H95143   7.585   7.274   5.609 -1.6892  0.1392 -0.0900
  721MOL0     H95144   7.802   7.369   5.804 -2.9672  4.2231 -0.0704
  721MOL0     H95145   7.774   7.208   5.762  1.2968  0.9879  0.5051
  721MOL0     H95146   7.980   7.292   5.636 -0.1450  1.1936 -0.4814
  721MOL0     H95147   7.889   7.431   5.574  0.4380  0.9779  2.4387
  721MOL0     H95148   7.763   7.284   5.433 -2.6935 -1.4267  1.9847
  721MOL0     H95149   7.821   7.137   5.518 -0.9306  1.5658  3.0730
  721MOL0     H95150   8.019   7.341   5.417 -1.8788  1.9024  2.7618
  721MOL0     H95151   8.026   7.158   5.409 -2.2687 -0.4061 -0.0450
  721MOL0     H95152   7.883   7.361   5.233 -0.7948 -0.8420  0.6940
  721MOL0     H95153   7.892   7.188   5.199 -0.4577  0.6538  1.9273
  721MOL0     H95154   7.101   7.398   5.789  1.8787 -3.0688  0.2419
  721MOL0     H95155   6.897   7.384   5.665  0.7159 -1.7701  0.4143
  721MOL0     H95156   6.683   7.585   5.330 -0.0035  0.3329  1.5655
  721MOL0     H95157   6.443   7.650   5.259  0.0248  0.2520 -0.1456
  721MOL0     H95158   6.677   5.961   4.423  0.4743 -2.5551 -0.6691
  721MOL0     H95159   6.517   5.843   4.284  1.5584  1.4532  0.5344
  721MOL0     H95160   6.012   5.864   4.075 -1.6432 -0.7711 -0.6542
  721MOL0     H95161   5.924   5.717   3.883  0.6766  1.2299  0.5119
  721MOL0     H95162   6.110   5.380   3.689  0.8200  0.4268 -0.1184
  721MOL0     H95163   6.185   5.534   3.735 -1.3657  0.8912  0.7183
  721MOL0     H95164   5.999   5.665   3.648  3.6751 -0.2171  0.9897
  721MOL0     H95165   6.089   5.573   3.528 -0.0777  1.1696 -0.7542
  721MOL0     H95166   5.841   5.434   3.653  1.3651 -0.4908 -1.0113
  721MOL0     H95167   5.899   5.416   3.501  0.9533 -0.4022  0.1786
  721MOL0     H95168   5.688   5.555   3.488  1.5986 -2.5662 -2.5169
  721MOL0     H95169   5.764   5.659   3.613 -0.3535  0.1891 -0.4295
  721MOL0     H95170   5.977   5.826   3.300  1.9038 -2.1522  2.4499
  721MOL0     H95171   6.219   5.420   4.021  0.3511  0.6884 -1.6302
  721MOL0     H95172   6.270   5.543   4.200 -2.8209 -2.3613  1.1879
  722MOL0     O95173   0.904   9.538   7.575 -0.3103 -0.4383  0.0323
  722MOL0     C95174   0.871   9.635   7.505 -0.3523 -0.8150  0.3098
  722MOL0     O95175   0.751   9.706   7.513 -0.9370  0.3881  0.0741
  722MOL0     C95176   0.691   9.720   7.636 -0.2316 -0.4768  0.2734
  722MOL0     C95177   0.717   9.654   7.756 -0.4575  0.1667 -0.1707
  722MOL0     C95178   0.660   9.699   7.877  0.8178  0.4997  0.4572
  722MOL0     C95179   0.558   9.789   7.872 -0.2654  0.6051  0.5642
  722MOL0     O95180   0.488   9.826   7.978 -0.0098  0.9070 -0.4098
  722MOL0     C95181   0.473   9.738   8.092  0.2415 -0.2617  0.2068
  722MOL0     C95182   0.366   9.807   8.182  1.2914 -0.0111  0.0984
  722MOL0     C95183   0.221   9.798   8.127  0.7428  0.2990 -0.1396
  722MOL0     C95184   0.122   9.849   8.225  0.1737  0.2994  0.3869
  722MOL0     C95185   0.108  10.004   8.204  0.7592 -0.7397 -0.1532
  722MOL0     C95186  -0.029  10.067   8.237 -0.8077  0.7954  0.0865
  722MOL0     C95187  -0.010  10.213   8.288 -0.5125  0.2442  0.1638
  722MOL0     C95188  -0.133  10.258   8.355  1.2721 -0.7544  0.2553
  722MOL0     N95189  -0.244  10.287   8.273  1.6377  0.3257  0.0446
  722MOL0     C95190  -0.378  10.281   8.300 -0.0616  0.3758  0.7700
  722MOL0     C95191  -0.433  10.319   8.180  0.5764  0.5130  0.4704
  722MOL0     C95192  -0.591  10.332   8.166 -1.1541  0.2988 -0.1274
  722MOL0     C95193  -0.654  10.215   8.111 -0.0372 -0.1296 -0.1642
  722MOL0     C95194  -0.665  10.090   8.190  0.3132 -0.9320  0.0148
  722MOL0     C95195  -0.546  10.003   8.215  0.2230 -1.1575  0.9048
  722MOL0     O95196  -0.595   9.874   8.240 -0.0869  0.1147  0.8247
  722MOL0     C95197  -0.679   9.850   8.345 -0.9043  0.7971  0.3369
  722MOL0     C95198  -0.774   9.747   8.330 -0.5421 -0.5775  0.5231
  722MOL0     C95199  -0.874   9.726   8.418  0.4184  0.7012  0.0090
  722MOL0     C95200  -0.883   9.802   8.539  0.6015 -0.3613 -0.2533
  722MOL0     C95201  -0.986   9.776   8.648 -0.6741 -1.1582  0.5306
  722MOL0     O95202  -0.968   9.848   8.764 -0.8193 -0.1063  1.0883
  722MOL0     C95203  -1.060   9.863   8.862 -0.5074  0.4702 -0.0116
  722MOL0     C95204  -1.205   9.723   8.905  0.0441  0.4573  0.0397
  722MOL0     C95205  -1.336   9.751   9.066 -0.1789 -0.3200  0.7226
  722MOL0     C95206  -1.310   9.921   9.193  0.6512  0.0899 -1.0060
  722MOL0     O95207  -1.390   9.918   9.309 -0.9839 -0.1971  0.0651
  722MOL0     C95208  -1.439  10.043   9.348  0.2203 -0.0515 -0.4413
  722MOL0     C95209  -1.572  10.086   9.280  0.0579  0.1865 -0.8775
  722MOL0     C95210  -1.569  10.118   9.139 -0.4435  0.2642  0.1450
  722MOL0     C95211  -1.697  10.188   9.097  0.0700  0.0087 -0.7525
  722MOL0     C95212  -1.729  10.323   9.155  0.0838 -0.9403 -0.4079
  722MOL0     C95213  -1.854  10.390   9.100  0.1913 -0.3360 -0.8690
  722MOL0     C95214  -1.897  10.508   9.193  0.8674  0.5699  1.0107
  722MOL0     C95215  -2.015  10.572   9.143  0.1076  0.1662  0.4512
  722MOL0    Cl95216  -2.037  10.731   9.230 -0.1391  0.1331  0.0356
  722MOL0     C95217  -1.160  10.070   9.143  0.8113  0.1317 -0.4368
  722MOL0     C95218  -1.044  10.038   8.979  0.8308 -0.6848  0.2689
  722MOL0     O95219  -1.086   9.701   8.621 -0.0415  0.0120  0.9393
  722MOL0     C95220  -0.781   9.906   8.556  0.5698  0.2076  0.3764
  722MOL0     C95221  -0.677   9.923   8.468  0.2113 -0.0986  0.5767
  722MOL0     N95222  -0.336  10.339   8.089 -0.4488  0.3517 -0.4128
  722MOL0     N95223  -0.229  10.316   8.144  1.0278 -1.1534 -0.9611
  722MOL0     C95224   0.523   9.854   7.751  0.5006 -0.2549 -0.9492
  722MOL0     C95225   0.596   9.820   7.633  1.4212 -0.2091 -0.4338
  722MOL0     C95226   0.963   9.675   7.393 -0.6677  0.8204  0.5598
  722MOL0     C95227   1.031   9.797   7.402 -0.2041  0.9811  0.2181
  722MOL0     C95228   1.120   9.840   7.298  0.1776 -0.3427 -0.5378
  722MOL0     C95229   1.138   9.764   7.180  0.2189 -0.1307  0.5202
  722MOL0     O95230   1.218   9.813   7.080 -0.3014 -0.7729  0.0343
  722MOL0     C95231   1.290   9.748   6.985 -0.3919  0.3581 -0.1270
  722MOL0     C95232   1.437   9.723   7.021 -1.1646  0.2347 -0.6777
  722MOL0     C95233   1.492   9.593   6.954  0.2710 -0.3375  0.4644
  722MOL0     C95234   1.637   9.592   7.000 -0.1860 -0.1797  0.8626
  722MOL0     C95235   1.714   9.496   6.924 -0.1694  0.3292 -0.5182
  722MOL0     C95236   1.780   9.413   6.858 -0.4335  0.1340 -1.2124
  722MOL0     C95237   1.074   9.638   7.180  0.9719 -0.1165  0.2417
  722MOL0     C95238   0.995   9.596   7.290 -0.0848 -0.2386 -0.4142
  722MOL0     H95239   0.780   9.567   7.769  3.1509  2.6608  0.3524
  722MOL0     H95240   0.685   9.653   7.972 -1.5982 -3.3774 -0.5659
  722MOL0     H95241   0.561   9.735   8.158 -0.0068 -2.6905  0.5265
  722MOL0     H95242   0.437   9.636   8.073 -0.7200  0.1998 -0.5201
  722MOL0     H95243   0.390   9.913   8.192 -0.6660  0.3012  2.2899
  722MOL0     H95244   0.371   9.764   8.283 -1.7346  1.6953  1.0889
  722MOL0     H95245   0.201   9.691   8.119 -2.2674  0.8879 -1.6106
  722MOL0     H95246   0.219   9.839   8.025  1.6226  1.0718  0.1317
  722MOL0     H95247   0.025   9.803   8.205 -0.0246  1.7168 -2.3734
  722MOL0     H95248   0.141   9.811   8.326 -4.1445  0.6818  1.5488
  722MOL0     H95249   0.129  10.024   8.099 -0.0013  0.3020 -0.1137
  722MOL0     H95250   0.193  10.048   8.256 -0.1434  1.6420 -0.6037
  722MOL0     H95251  -0.072  10.002   8.314  1.4666 -2.5118 -1.2371
  722MOL0     H95252  -0.109  10.063   8.163 -0.3162 -0.1961 -0.4048
  722MOL0     H95253   0.063  10.221   8.369 -2.3713 -0.5537  2.0133
  722MOL0     H95254   0.031  10.273   8.207  2.9030 -1.4252  0.4581
  722MOL0     H95255  -0.127  10.347   8.418 -2.2242  1.0430 -1.7062
  722MOL0     H95256  -0.159  10.179   8.427 -2.3798  2.0029  2.3060
  722MOL0     H95257  -0.424  10.239   8.389  0.1045  0.3073  0.8231
  722MOL0     H95258  -0.612  10.420   8.106  2.6243  0.3784 -1.6330
  722MOL0     H95259  -0.632  10.355   8.265 -0.8859 -2.7126  0.7860
  722MOL0     H95260  -0.617  10.195   8.010 -1.0768 -0.9220 -0.3984
  722MOL0     H95261  -0.750  10.253   8.078  0.1722  2.2368  1.6802
  722MOL0     H95262  -0.706  10.122   8.286  0.5944 -0.4617 -0.0186
  722MOL0     H95263  -0.748  10.035   8.145 -0.3514 -0.5990  0.8175
  722MOL0     H95264  -0.481  10.046   8.291 -1.8897  2.1494  1.0473
  722MOL0     H95265  -0.496   9.998   8.118  0.3217 -3.2375  1.0278
  722MOL0     H95266  -0.763   9.684   8.243 -1.2238  0.1959 -0.1449
  722MOL0     H95267  -0.946   9.648   8.396 -1.6096  1.1362  4.1768
  722MOL0     H95268  -1.227   9.639   8.840 -0.9294  0.9830 -0.3302
  722MOL0     H95269  -1.405   9.676   9.104 -2.3315  1.0547 -0.3329
  722MOL0     H95270  -1.363  10.120   9.331 -0.3205  0.5832 -0.0045
  722MOL0     H95271  -1.466  10.035   9.453  0.3780 -1.5126 -0.4832
  722MOL0     H95272  -1.605  10.174   9.336  0.8551  1.9921 -3.0911
  722MOL0     H95273  -1.640  10.001   9.285  1.1190 -0.6145  1.0325
  722MOL0     H95274  -1.568  10.028   9.077 -0.8448 -0.5804  1.3275
  722MOL0     H95275  -1.481  10.174   9.110  1.1318 -2.5443 -0.8830
  722MOL0     H95276  -1.687  10.217   8.992 -0.3675  1.3211 -0.4498
  722MOL0     H95277  -1.782  10.119   9.093  1.8079 -2.2378 -3.7723
  722MOL0     H95278  -1.646  10.394   9.149  1.3725 -2.4957 -2.3139
  722MOL0     H95279  -1.750  10.300   9.260 -0.8983 -0.3917 -0.4728
  722MOL0     H95280  -1.947  10.334   9.103  0.8260 -1.3960 -0.1342
  722MOL0     H95281  -1.840  10.428   8.999 -1.7093  2.4818 -0.1843
  722MOL0     H95282  -1.905  10.474   9.297 -2.0284  1.3615  1.1352
  722MOL0     H95283  -1.822  10.586   9.184  1.0113  0.3193 -0.1429
  722MOL0     H95284  -2.099  10.503   9.152  1.6648 -1.8847 -0.0871
  722MOL0     H95285  -1.999  10.579   9.035  1.8022 -1.6603  0.5309
  722MOL0     H95286  -1.141  10.153   9.210  2.2213 -2.2519  2.3239
  722MOL0     H95287  -0.963  10.110   8.969  0.8787 -0.4607  1.9838
  722MOL0     H95288  -0.777   9.964   8.647 -1.1519 -3.6102  3.1564
  722MOL0     H95289  -0.607   9.997   8.505 -0.6534  0.4823  1.0761
  722MOL0     H95290   0.440   9.923   7.762  1.9502  1.1423  2.9325
  722MOL0     H95291   0.574   9.857   7.533 -3.4292 -3.0217 -0.7063
  722MOL0     H95292   1.011   9.866   7.483  0.1844  0.6126  0.6364
  722MOL0     H95293   1.168   9.937   7.293  2.2430 -1.3433 -1.2676
  722MOL0     H95294   1.281   9.819   6.902  3.5669  2.6416  1.1198
  722MOL0     H95295   1.239   9.657   6.952  1.7088 -1.0781  0.4083
  722MOL0     H95296   1.494   9.808   6.985 -0.9124  0.1642 -0.4508
  722MOL0     H95297   1.457   9.732   7.128 -2.1766  1.7489 -0.5805
  722MOL0     H95298   1.485   9.615   6.848  0.3879  2.9193  1.0405
  722MOL0     H95299   1.429   9.507   6.979 -1.5227  1.4134  2.4404
  722MOL0     H95300   1.677   9.690   6.974  0.1102 -1.0174 -2.2618
  722MOL0     H95301   1.644   9.571   7.107  1.1996 -1.2292  0.5868
  722MOL0     H95302   1.850   9.354   6.803 -0.2526 -1.3212  0.4686
  722MOL0     H95303   1.087   9.568   7.098  5.6788 -0.1959  0.8185
  722MOL0     H95304   0.928   9.511   7.286 -0.2819 -0.0609 -0.8591
  723MOL0     O95305   1.937   4.171   1.851 -0.5807  0.0609  0.4104
  723MOL0     C95306   1.878   4.064   1.844 -0.3525  0.7390 -0.4012
  723MOL0     O95307   1.766   4.028   1.914 -0.4958 -0.4275  0.3314
  723MOL0     C95308   1.742   4.082   2.039 -1.3439 -0.4906 -0.2728
  723MOL0     C95309   1.836   4.136   2.119  0.0156  0.6909 -0.0832
  723MOL0     C95310   1.810   4.196   2.243 -0.7366  0.1238 -0.0897
  723MOL0     C95311   1.677   4.199   2.274  0.1866 -0.3602 -0.1191
  723MOL0     O95312   1.636   4.260   2.379  0.9092  0.9931  0.0979
  723MOL0     C95313   1.722   4.322   2.468 -0.0573  0.2063 -0.6385
  723MOL0     C95314   1.655   4.309   2.613  0.0337 -0.1091 -0.2463
  723MOL0     C95315   1.511   4.264   2.635  0.0350 -0.9350 -0.3424
  723MOL0     C95316   1.399   4.357   2.573  0.3741 -0.7409 -0.2830
  723MOL0     C95317   1.263   4.338   2.634  0.1886 -0.0408 -0.0533
  723MOL0     C95318   1.177   4.460   2.598 -0.2023  0.4241  0.4739
  723MOL0     C95319   1.034   4.441   2.656  0.2069 -1.0562  0.1802
  723MOL0     C95320   1.025   4.514   2.788  0.9209 -0.8685 -0.0427
  723MOL0     N95321   0.883   4.527   2.840  0.5525 -0.4629 -0.1660
  723MOL0     C95322   0.802   4.420   2.869  0.3004 -0.1502 -0.3495
  723MOL0     C95323   0.685   4.470   2.900 -0.5144 -1.1353 -0.2267
  723MOL0     C95324   0.563   4.391   2.944 -0.1845 -0.7830 -0.1065
  723MOL0     C95325   0.517   4.300   2.840  0.1997  0.1895  0.0576
  723MOL0     C95326   0.420   4.198   2.890 -0.2912  0.4271 -0.0648
  723MOL0     C95327   0.278   4.242   2.851 -0.0848  0.4551 -0.2133
  723MOL0     O95328   0.178   4.157   2.908  0.3430 -0.3565  0.2029
  723MOL0     C95329   0.050   4.187   2.884  0.3117 -0.2872 -0.2993
  723MOL0     C95330  -0.009   4.297   2.814 -0.0523 -0.9063 -0.4101
  723MOL0     C95331  -0.152   4.309   2.795  0.3814  0.1181 -0.6285
  723MOL0     C95332  -0.232   4.204   2.840 -0.2698  0.2361  0.1678
  723MOL0     C95333  -0.382   4.213   2.827  0.3162 -0.3457 -0.5269
  723MOL0     O95334  -0.455   4.102   2.871 -0.5850 -0.1733  0.7499
  723MOL0     C95335  -0.593   4.103   2.860  1.6117 -0.0777 -0.3588
  723MOL0     C95336  -0.657   4.125   2.740  0.2493 -0.7557 -0.4709
  723MOL0     C95337  -0.796   4.127   2.739  1.2240 -0.0529  1.0033
  723MOL0     C95338  -0.865   4.098   2.848 -0.8187  0.1378 -0.9745
  723MOL0     O95339  -1.002   4.096   2.836 -0.7672  0.2156  0.1493
  723MOL0     C95340  -1.081   4.009   2.920 -0.3742  0.0749  0.0384
  723MOL0     C95341  -1.186   3.939   2.829 -0.7145 -0.8878  0.0852
  723MOL0     C95342  -1.295   4.032   2.776  0.3705  0.5480 -0.5993
  723MOL0     C95343  -1.429   3.959   2.784 -0.6656 -0.7143  0.1780
  723MOL0     C95344  -1.487   3.965   2.925  0.3012  0.0384  0.3456
  723MOL0     C95345  -1.592   3.866   2.939 -0.0583  0.1447 -0.2307
  723MOL0     C95346  -1.651   3.878   3.081 -0.5613 -0.0673  0.0413
  723MOL0     C95347  -1.562   3.854   3.197 -0.7405  0.8745 -0.0085
  723MOL0    Cl95348  -1.493   3.684   3.178  0.1587 -0.3975  0.0493
  723MOL0     C95349  -0.799   4.093   2.970 -0.7809  0.3036  0.4939
  723MOL0     C95350  -0.664   4.090   2.971 -0.5033 -0.2289 -0.8216
  723MOL0     O95351  -0.431   4.318   2.797  0.1077 -0.6939  0.0220
  723MOL0     C95352  -0.168   4.087   2.901  0.8389 -0.3559  0.5191
  723MOL0     C95353  -0.034   4.083   2.923  0.4060 -0.1148  0.4081
  723MOL0     N95354   0.695   4.606   2.907  0.1736 -0.4165 -0.0039
  723MOL0     N95355   0.815   4.641   2.877  0.1158 -0.2114 -0.8164
  723MOL0     C95356   1.585   4.132   2.202 -0.5472  0.0155 -0.8617
  723MOL0     C95357   1.610   4.071   2.082  0.5051 -0.1062 -0.2876
  723MOL0     C95358   1.953   3.959   1.756 -0.3880  1.0367 -0.5605
  723MOL0     C95359   1.910   3.823   1.751 -0.2983 -0.8700  0.1913
  723MOL0     C95360   1.982   3.734   1.676  0.1377  0.1165 -0.2359
  723MOL0     C95361   2.107   3.764   1.626 -0.6184  0.9670 -0.3695
  723MOL0     O95362   2.182   3.674   1.561  0.1369  0.2634  0.1375
  723MOL0     C95363   2.255   3.591   1.643 -0.4748  0.7439  0.4763
  723MOL0     C95364   2.371   3.514   1.578 -0.8338 -0.6378 -0.5110
  723MOL0     C95365   2.322   3.422   1.464 -0.4687 -1.1389 -0.6538
  723MOL0     C95366   2.434   3.405   1.360 -0.7900 -0.7276  0.4672
  723MOL0     C95367   2.431   3.525   1.273 -0.5796  0.2820  0.3999
  723MOL0     C95368   2.410   3.624   1.202  0.0035 -0.4463 -0.9267
  723MOL0     C95369   2.153   3.900   1.626  0.0708 -0.7259 -1.1766
  723MOL0     C95370   2.070   3.993   1.695  0.3747 -0.1129  0.0512
  723MOL0     H95371   1.942   4.128   2.095  0.0678 -2.3895  0.7201
  723MOL0     H95372   1.890   4.245   2.298 -0.1400 -0.6117 -0.2819
  723MOL0     H95373   1.738   4.425   2.435  0.7040 -0.3605 -2.1025
  723MOL0     H95374   1.818   4.270   2.477 -1.4208 -2.2895  0.6438
  723MOL0     H95375   1.683   4.405   2.659 -0.2272 -1.2782  2.4857
  723MOL0     H95376   1.708   4.235   2.673 -3.4980 -0.2568  3.0325
  723MOL0     H95377   1.495   4.257   2.743  6.7872  4.0058  1.6486
  723MOL0     H95378   1.501   4.167   2.585 -0.5936 -0.7118 -0.6676
  723MOL0     H95379   1.427   4.463   2.576  0.2548 -0.7303  1.9017
  723MOL0     H95380   1.389   4.337   2.466  1.5546  0.3639 -0.6253
  723MOL0     H95381   1.270   4.325   2.743  1.6295  0.5253 -0.0499
  723MOL0     H95382   1.227   4.245   2.591  1.5693 -2.3788  3.3693
  723MOL0     H95383   1.167   4.460   2.489 -0.4311 -0.4330  0.4855
  723MOL0     H95384   1.215   4.558   2.625 -3.3959  2.3692 -1.4447
  723MOL0     H95385   0.958   4.481   2.588 -0.5712 -0.5741  1.2849
  723MOL0     H95386   0.997   4.338   2.654 -0.8356 -0.7245  1.2205
  723MOL0     H95387   1.073   4.611   2.792 -1.2037  0.2169  2.9319
  723MOL0     H95388   1.079   4.447   2.855 -1.9874 -2.6038  0.7979
  723MOL0     H95389   0.822   4.313   2.861 -0.4486 -0.3038 -0.2395
  723MOL0     H95390   0.490   4.463   2.983  0.1715 -1.0671  1.1229
  723MOL0     H95391   0.605   4.331   3.025  0.2045  0.4431  0.6331
  723MOL0     H95392   0.603   4.254   2.790  0.8509  0.0443  1.2794
  723MOL0     H95393   0.469   4.364   2.765  1.9418 -1.7713 -2.9146
  723MOL0     H95394   0.438   4.105   2.835  2.0066  1.0931 -0.5208
  723MOL0     H95395   0.423   4.176   2.997 -0.0355 -0.6723 -0.2809
  723MOL0     H95396   0.268   4.231   2.742  0.5887  0.2075 -0.2532
  723MOL0     H95397   0.261   4.347   2.876 -0.3651 -0.3400  3.4159
  723MOL0     H95398   0.060   4.372   2.775  0.1197 -1.1859 -0.6437
  723MOL0     H95399  -0.203   4.389   2.743 -1.6962  0.8068  2.2653
  723MOL0     H95400  -0.604   4.158   2.651  1.9504 -0.8861  0.4701
  723MOL0     H95401  -0.851   4.158   2.650  0.6127  3.7477  2.5180
  723MOL0     H95402  -1.123   4.064   3.005 -1.3439  0.2403 -0.5400
  723MOL0     H95403  -1.012   3.934   2.958 -0.3700 -0.4544 -0.9999
  723MOL0     H95404  -1.219   3.855   2.890  2.1195  0.1909  3.4601
  723MOL0     H95405  -1.129   3.897   2.745  0.1511 -1.4981  0.9622
  723MOL0     H95406  -1.261   4.056   2.675  3.0647 -2.0072 -0.4431
  723MOL0     H95407  -1.303   4.125   2.831 -0.4561 -0.6104  1.3395
  723MOL0     H95408  -1.499   4.005   2.713  1.6194  0.0713 -1.6850
  723MOL0     H95409  -1.431   3.851   2.761 -0.7038 -0.9528  1.2767
  723MOL0     H95410  -1.523   4.062   2.960 -2.4098 -0.1720 -1.6213
  723MOL0     H95411  -1.401   3.943   2.990 -0.5504 -1.7554  0.9144
  723MOL0     H95412  -1.560   3.763   2.919 -1.6360 -0.8006  1.7498
  723MOL0     H95413  -1.668   3.891   2.864 -1.1408 -1.4943  0.2658
  723MOL0     H95414  -1.696   3.978   3.078 -1.1425 -0.2869 -3.9692
  723MOL0     H95415  -1.722   3.794   3.086  1.3521 -2.0685 -3.1473
  723MOL0     H95416  -1.624   3.855   3.287 -0.9061  0.9189 -0.1229
  723MOL0     H95417  -1.479   3.924   3.206  0.8012 -1.0897  2.4494
  723MOL0     H95418  -0.858   4.099   3.061 -1.7567 -2.2506  0.1039
  723MOL0     H95419  -0.601   4.069   3.058 -0.3229 -0.4555 -1.0050
  723MOL0     H95420  -0.242   4.011   2.918  0.6653 -0.0212  1.3089
  723MOL0     H95421  -0.007   3.990   2.974  1.4895  0.2974  0.6053
  723MOL0     H95422   1.482   4.134   2.233 -0.2352  3.0010  0.3652
  723MOL0     H95423   1.527   4.014   2.040  0.2270 -0.7758  1.1195
  723MOL0     H95424   1.817   3.794   1.799  1.0336 -2.6120  1.8415
  723MOL0     H95425   1.944   3.633   1.660  0.7841 -0.0707 -0.6561
  723MOL0     H95426   2.182   3.521   1.685 -3.2082  3.3142  0.3722
  723MOL0     H95427   2.295   3.655   1.722  0.7613 -0.5412  0.9223
  723MOL0     H95428   2.441   3.582   1.528 -2.6040  2.5827  1.0295
  723MOL0     H95429   2.426   3.455   1.652  0.6992 -0.2525 -1.3025
  723MOL0     H95430   2.231   3.463   1.420  0.7268  0.7212 -1.4967
  723MOL0     H95431   2.307   3.322   1.505 -1.1986 -0.2796  1.2973
  723MOL0     H95432   2.536   3.405   1.399  0.2502  4.5125 -1.3974
  723MOL0     H95433   2.421   3.313   1.302  0.7924 -0.6905 -0.0060
  723MOL0     H95434   2.392   3.708   1.137 -0.9631  0.6634  0.6857
  723MOL0     H95435   2.239   3.928   1.566  3.1815 -1.0500  2.7446
  723MOL0     H95436   2.115   4.092   1.698 -0.5373  0.3415 -0.7525
  724MOL0     O95437   0.568  11.108   3.815  0.3768 -0.5960 -0.2776
  724MOL0     C95438   0.520  11.086   3.704 -0.4982 -0.0611  0.5159
  724MOL0     O95439   0.589  11.104   3.581 -0.1207 -0.0881 -0.9629
  724MOL0     C95440   0.727  11.125   3.577 -0.0649  0.4962 -0.9839
  724MOL0     C95441   0.801  11.039   3.491  0.2329  0.5318 -0.4347
  724MOL0     C95442   0.939  11.042   3.486  0.5089  0.7716  0.0037
  724MOL0     C95443   1.011  11.137   3.565 -0.1233 -0.2675 -0.5288
  724MOL0     O95444   1.148  11.153   3.558  0.4159  0.5124 -0.3673
  724MOL0     C95445   1.204  11.126   3.435  0.4213  0.5764  0.6452
  724MOL0     C95446   1.328  11.216   3.419  0.1310 -0.8099  0.6224
  724MOL0     C95447   1.280  11.371   3.407 -0.1436  0.3738 -0.5987
  724MOL0     C95448   1.398  11.465   3.384  0.8587 -0.4275 -0.8393
  724MOL0     C95449   1.419  11.523   3.234  0.2508  0.4189 -0.3702
  724MOL0     C95450   1.563  11.559   3.207  1.5880  0.0681 -0.0828
  724MOL0     C95451   1.582  11.608   3.068  0.8813 -0.2125 -0.3162
  724MOL0     C95452   1.613  11.496   2.965 -1.0256 -1.0111  0.7170
  724MOL0     N95453   1.638  11.362   3.014 -1.1323  0.6258  0.0965
  724MOL0     C95454   1.763  11.308   3.048 -0.7587  0.4600  0.0168
  724MOL0     C95455   1.733  11.180   3.075 -0.0080  0.3290 -1.0332
  724MOL0     C95456   1.826  11.089   3.157 -0.9202  0.0906  0.6048
  724MOL0     C95457   1.832  11.107   3.307  0.8005 -0.9438  0.3341
  724MOL0     C95458   1.906  11.002   3.391 -0.1562  0.6630  0.2209
  724MOL0     C95459   2.057  11.024   3.363 -0.3915 -0.7566  0.4695
  724MOL0     O95460   2.118  10.936   3.265  0.7892 -0.6293  0.0679
  724MOL0     C95461   2.259  10.928   3.266  0.9404  0.3097 -0.6176
  724MOL0     C95462   2.319  10.862   3.373 -0.1772  0.3931  0.7398
  724MOL0     C95463   2.457  10.836   3.358  0.2462 -0.2529 -1.2167
  724MOL0     C95464   2.533  10.883   3.250 -0.3396 -0.5508  0.6640
  724MOL0     C95465   2.682  10.872   3.246 -0.3455  0.2621  0.4931
  724MOL0     O95466   2.742  10.798   3.337 -0.0265  0.0172  0.6745
  724MOL0     C95467   2.875  10.783   3.339 -0.0699 -0.7355  0.8597
  724MOL0     C95468   2.967  10.889   3.312 -0.0198  0.0381  1.1141
  724MOL0     C95469   3.100  10.856   3.342 -0.3871  0.4483 -0.4956
  724MOL0     C95470   3.152  10.736   3.385  0.2399 -0.5447 -0.2333
  724MOL0     O95471   3.286  10.701   3.413 -0.0153 -0.3827 -0.3165
  724MOL0     C95472   3.388  10.782   3.352 -0.2875 -0.2639  0.7058
  724MOL0     C95473   3.532  10.741   3.394 -0.6310 -0.0700  0.3435
  724MOL0     C95474   3.635  10.850   3.344 -0.1609 -0.1150 -1.4594
  724MOL0     C95475   3.779  10.805   3.362  0.3907  0.2952  0.5133
  724MOL0     C95476   3.883  10.914   3.321 -0.6637  0.4803 -0.3737
  724MOL0     C95477   4.024  10.857   3.362 -0.1876  0.1594  0.0777
  724MOL0     C95478   4.051  10.819   3.510 -0.1997 -0.2169 -0.6696
  724MOL0     C95479   4.105  10.934   3.594  0.6337  0.0727 -0.3408
  724MOL0    Cl95480   4.099  10.899   3.777 -0.6173 -0.3420  0.3643
  724MOL0     C95481   3.054  10.640   3.413  0.4097  0.0892 -0.0056
  724MOL0     C95482   2.917  10.663   3.399  0.6455 -0.1001 -1.2049
  724MOL0     O95483   2.740  10.926   3.153  0.5332 -0.0743  0.6225
  724MOL0     C95484   2.475  10.960   3.148 -0.3468  0.3419  0.6037
  724MOL0     C95485   2.335  10.975   3.158  0.8814  0.3793 -0.1209
  724MOL0     N95486   1.595  11.152   3.068  0.5738 -0.0677  0.2273
  724MOL0     N95487   1.549  11.262   3.012  0.9779 -0.2234 -0.9292
  724MOL0     C95488   0.941  11.206   3.664 -0.2358  0.4131  0.4477
  724MOL0     C95489   0.803  11.207   3.664  0.4588  0.2416 -0.4601
  724MOL0     C95490   0.382  11.054   3.685 -1.2199 -0.4459  0.2686
  724MOL0     C95491   0.295  11.089   3.787 -0.2921 -1.2071  0.5263
  724MOL0     C95492   0.163  11.057   3.778  0.8054 -0.4824 -0.9516
  724MOL0     C95493   0.124  10.972   3.671  0.8719 -0.0388  0.8619
  724MOL0     O95494  -0.008  10.940   3.647 -0.8457  0.2913 -1.0481
  724MOL0     C95495  -0.106  11.041   3.644  0.3280 -0.4158  0.0068
  724MOL0     C95496  -0.220  11.003   3.547 -0.0046  0.0124 -0.7969
  724MOL0     C95497  -0.332  11.103   3.551 -0.7634 -0.2228 -0.4833
  724MOL0     C95498  -0.449  11.089   3.457 -0.4774 -0.1349 -0.0714
  724MOL0     C95499  -0.562  11.016   3.516  0.0640  0.8340 -0.5893
  724MOL0     C95500  -0.644  10.951   3.585 -0.3511 -0.3890 -0.4732
  724MOL0     C95501   0.203  10.945   3.566 -0.4566  0.7966 -0.4606
  724MOL0     C95502   0.339  10.977   3.575  0.2332 -0.0091  0.7328
  724MOL0     H95503   0.756  10.965   3.426 -1.4047  1.3781 -0.3138
  724MOL0     H95504   0.991  10.975   3.417 -1.6217  1.5652 -2.5208
  724MOL0     H95505   1.137  11.158   3.354  1.1480  1.6744  0.4601
  724MOL0     H95506   1.231  11.023   3.409  2.8473  1.4384 -0.5628
  724MOL0     H95507   1.378  11.174   3.331 -1.4983 -0.3515 -0.5818
  724MOL0     H95508   1.401  11.205   3.499 -0.8272  1.3145  1.8675
  724MOL0     H95509   1.250  11.410   3.504  1.7239 -0.2450  0.2715
  724MOL0     H95510   1.204  11.376   3.328 -1.5391  0.0994  0.6929
  724MOL0     H95511   1.376  11.557   3.439  3.0331 -0.3384 -0.0255
  724MOL0     H95512   1.489  11.415   3.419  1.4541 -0.9173 -2.9096
  724MOL0     H95513   1.368  11.619   3.220  0.9045  0.7406 -0.6029
  724MOL0     H95514   1.379  11.456   3.157 -0.0201  0.0079  0.1221
  724MOL0     H95515   1.625  11.472   3.230 -0.6979 -2.1001 -1.4852
  724MOL0     H95516   1.599  11.645   3.264  0.1777  0.6775 -0.0481
  724MOL0     H95517   1.493  11.658   3.028  0.9518 -1.4429 -2.1332
  724MOL0     H95518   1.667  11.678   3.066  1.6302 -1.1156 -2.4003
  724MOL0     H95519   1.696  11.539   2.909 -0.5945 -1.2012  1.1964
  724MOL0     H95520   1.538  11.487   2.886 -2.3018  0.9454  1.6192
  724MOL0     H95521   1.862  11.352   3.049 -0.9261  0.9188  2.1729
  724MOL0     H95522   1.929  11.089   3.122 -1.2886  1.7275 -0.5625
  724MOL0     H95523   1.799  10.985   3.134  0.9380 -0.1058 -0.8585
  724MOL0     H95524   1.726  11.098   3.333  0.7885 -0.2785  0.5321
  724MOL0     H95525   1.860  11.209   3.332 -0.4764 -0.2474 -0.8844
  724MOL0     H95526   1.887  11.030   3.494 -1.1407  0.3290  0.1434
  724MOL0     H95527   1.873  10.897   3.383  1.2289 -0.2489  4.2983
  724MOL0     H95528   2.114  11.018   3.457 -1.8494 -2.5280  1.3162
  724MOL0     H95529   2.084  11.123   3.325  2.6102  0.4918  4.9426
  724MOL0     H95530   2.258  10.835   3.458 -1.7718  0.3382 -0.3802
  724MOL0     H95531   2.508  10.794   3.444 -1.2939  0.9133  0.3335
  724MOL0     H95532   2.932  10.984   3.273 -2.9832 -0.2823  2.6951
  724MOL0     H95533   3.164  10.941   3.315  0.4410  0.7147  2.0278
  724MOL0     H95534   3.380  10.886   3.387 -1.9255 -0.4386  0.8944
  724MOL0     H95535   3.365  10.786   3.246 -0.2462  1.8009  0.7316
  724MOL0     H95536   3.560  10.649   3.341  0.3816  0.4653 -0.0897
  724MOL0     H95537   3.530  10.724   3.502 -0.9454  0.3123  0.4004
  724MOL0     H95538   3.613  10.937   3.406 -2.8337 -1.6634 -0.0205
  724MOL0     H95539   3.615  10.882   3.241  1.5185  1.8940 -1.2258
  724MOL0     H95540   3.794  10.777   3.466 -0.3275  0.0454  0.5516
  724MOL0     H95541   3.793  10.728   3.285  1.0885 -0.6134  1.5268
  724MOL0     H95542   3.851  11.007   3.369 -2.5890 -0.6252  0.6073
  724MOL0     H95543   3.884  10.925   3.212  2.0168 -0.0796 -0.4690
  724MOL0     H95544   4.094  10.934   3.328 -0.1322  1.1333  2.2024
  724MOL0     H95545   4.041  10.767   3.301  1.7793  0.8903 -0.5571
  724MOL0     H95546   3.977  10.752   3.554  1.4167 -2.2479 -0.8923
  724MOL0     H95547   4.134  10.747   3.510 -2.0470 -2.4623  0.2214
  724MOL0     H95548   4.032  11.014   3.579 -0.1733 -0.8950 -1.9382
  724MOL0     H95549   4.201  10.970   3.556  0.0752  0.1182 -1.7502
  724MOL0     H95550   3.085  10.544   3.451  1.0258 -0.2595 -1.3200
  724MOL0     H95551   2.845  10.596   3.444  2.4053  0.0988  2.1943
  724MOL0     H95552   2.524  10.989   3.055 -0.7326 -2.0614 -0.4337
  724MOL0     H95553   2.270  11.027   3.089 -0.6740  0.1458  1.1176
  724MOL0     H95554   0.980  11.266   3.746 -0.8862  0.6289  0.6071
  724MOL0     H95555   0.742  11.270   3.728 -2.7397 -2.5354 -0.5225
  724MOL0     H95556   0.342  11.152   3.862  0.8022  1.5290 -2.2174
  724MOL0     H95557   0.084  11.083   3.847  0.0572 -0.8666 -1.6404
  724MOL0     H95558  -0.062  11.136   3.612 -1.2663  1.9221  3.9890
  724MOL0     H95559  -0.132  11.054   3.749  1.0333 -2.5053  0.4869
  724MOL0     H95560  -0.173  10.991   3.449 -2.1775 -0.8537 -1.7892
  724MOL0     H95561  -0.261  10.908   3.580 -4.4102  3.2760  5.0564
  724MOL0     H95562  -0.283  11.197   3.527 -2.0699  0.4822 -0.4905
  724MOL0     H95563  -0.368  11.123   3.653 -2.1317  2.4579 -1.4098
  724MOL0     H95564  -0.482  11.190   3.429  1.1552  0.9747  1.7884
  724MOL0     H95565  -0.412  11.032   3.371  1.0723  3.4215 -1.9767
  724MOL0     H95566  -0.726  10.918   3.646 -2.5371  3.4787 -0.9880
  724MOL0     H95567   0.166  10.883   3.484 -0.6204 -0.2272  0.3570
  724MOL0     H95568   0.401  10.945   3.492 -1.5279  1.6944 -1.3574
  725MOL0     O95569  11.184  10.733   8.620  0.1026 -0.0354  0.4809
  725MOL0     C95570  11.161  10.695   8.510  0.0882 -0.2122  0.2659
  725MOL0     O95571  11.041  10.700   8.440 -0.0480  0.4223 -0.0961
  725MOL0     C95572  10.921  10.713   8.492  0.2305 -0.0021  0.3142
  725MOL0     C95573  10.817  10.628   8.466  0.1070  1.5602  0.3861
  725MOL0     C95574  10.689  10.635   8.528  0.7248 -0.3351 -0.0366
  725MOL0     C95575  10.657  10.747   8.611  0.5205 -0.1637  0.1485
  725MOL0     O95576  10.535  10.780   8.665 -0.0741  0.0832 -0.1513
  725MOL0     C95577  10.418  10.765   8.588  0.4191  0.3107  1.0163
  725MOL0     C95578  10.424  10.838   8.451 -0.0837 -0.4466 -0.3514
  725MOL0     C95579  10.419  10.992   8.454  0.9475  0.7453 -0.9536
  725MOL0     C95580  10.456  11.059   8.317 -0.3608 -0.2952 -0.3868
  725MOL0     C95581  10.502  11.203   8.347  0.0028  0.2099  0.1276
  725MOL0     C95582  10.386  11.286   8.415  1.0945 -0.4274 -0.4651
  725MOL0     C95583  10.409  11.436   8.426  0.4921 -0.2449  0.0931
  725MOL0     C95584  10.397  11.532   8.297  0.5688  0.0056 -0.2504
  725MOL0     N95585  10.258  11.545   8.238  0.1310 -0.1212 -0.5222
  725MOL0     C95586  10.235  11.620   8.126 -0.2418 -0.9556  0.6082
  725MOL0     C95587  10.099  11.633   8.108 -0.3478 -0.1774  0.8297
  725MOL0     C95588  10.026  11.726   8.007  0.1105 -0.3912 -0.5070
  725MOL0     C95589   9.953  11.649   7.896 -0.6597 -0.1179 -0.8315
  725MOL0     C95590   9.899  11.732   7.784  0.4188  0.8228  0.0398
  725MOL0     C95591   9.837  11.639   7.681 -0.2937 -0.3406  0.0365
  725MOL0     O95592   9.801  11.513   7.733  0.9730 -0.5304  0.4404
  725MOL0     C95593   9.747  11.411   7.654  0.4953 -0.3847  0.3194
  725MOL0     C95594   9.733  11.293   7.721  1.0225  0.0717 -0.4161
  725MOL0     C95595   9.701  11.180   7.645  0.5831  0.4854 -1.0556
  725MOL0     C95596   9.674  11.175   7.507  0.1164 -0.6012  0.1073
  725MOL0     C95597   9.636  11.047   7.441  0.7920  0.0435  0.7518
  725MOL0     O95598   9.598  11.050   7.313  0.0861 -0.6848  0.7922
  725MOL0     C95599   9.609  10.941   7.241  0.6908 -0.0349  0.2806
  725MOL0     C95600   9.506  10.838   7.226  0.2267 -0.7859  0.3435
  725MOL0     C95601   9.535  10.723   7.151 -0.4870  0.1583 -0.2122
  725MOL0     C95602   9.661  10.717   7.089  0.2494  0.1366  1.2295
  725MOL0     O95603   9.679  10.597   7.020  0.3832 -0.1986 -0.0057
  725MOL0     C95604   9.812  10.539   7.029 -0.0770 -0.3830 -0.3492
  725MOL0     C95605   9.811  10.431   7.130 -0.7657  0.1001  0.0890
  725MOL0     C95606   9.714  10.312   7.128 -0.1787  1.3635 -1.2665
  725MOL0     C95607   9.671  10.251   6.997 -0.1332 -0.2333 -0.7482
  725MOL0     C95608   9.575  10.133   7.025 -0.2963  0.0233  0.2210
  725MOL0     C95609   9.522  10.066   6.898  0.2210  0.3931 -0.0230
  725MOL0     C95610   9.445  10.164   6.796 -0.7152  1.1957  1.0511
  725MOL0     C95611   9.474  10.127   6.654  1.1146  0.5468  0.3225
  725MOL0    Cl95612   9.652  10.174   6.605  0.5606 -0.1829 -0.1743
  725MOL0     C95613   9.746  10.824   7.084 -0.3304 -0.0291  0.8513
  725MOL0     C95614   9.725  10.932   7.160 -0.5278  1.3136  0.0401
  725MOL0     O95615   9.655  10.942   7.513 -0.5922  0.8330 -0.8274
  725MOL0     C95616   9.678  11.298   7.441  0.2295  0.0867 -0.3275
  725MOL0     C95617   9.725  11.416   7.515  0.1480 -0.5548  0.7957
  725MOL0     N95618  10.040  11.560   8.207 -0.0967  0.1554 -0.2782
  725MOL0     N95619  10.131  11.516   8.283 -0.0684 -0.9638 -0.7508
  725MOL0     C95620  10.761  10.842   8.622  0.4591 -0.3955 -0.6078
  725MOL0     C95621  10.891  10.816   8.578 -0.5409 -0.6289  0.0956
  725MOL0     C95622  11.275  10.669   8.421 -0.2133  0.0489  0.2139
  725MOL0     C95623  11.413  10.680   8.468  0.0152 -0.4497  0.3151
  725MOL0     C95624  11.525  10.646   8.400 -1.4390  0.5156 -0.1574
  725MOL0     C95625  11.517  10.609   8.268  0.0838 -0.2109  0.1835
  725MOL0     O95626  11.617  10.571   8.185 -0.8631 -0.2298  0.8793
  725MOL0     C95627  11.751  10.542   8.240  0.1811  0.1608  0.6856
  725MOL0     C95628  11.819  10.433   8.139 -0.7713 -0.9406  0.2861
  725MOL0     C95629  11.980  10.443   8.172 -0.9931 -0.3761  0.2819
  725MOL0     C95630  12.026  10.422   8.317  0.4688  0.9570 -0.7678
  725MOL0     C95631  11.967  10.298   8.369  0.3035 -0.7221 -0.9026
  725MOL0     C95632  11.894  10.225   8.434  0.5778  0.4652 -0.1483
  725MOL0     C95633  11.386  10.597   8.208 -0.0445 -0.5089 -0.6940
  725MOL0     C95634  11.271  10.625   8.287 -0.7170 -0.4415  0.0796
  725MOL0     H95635  10.847  10.550   8.396  0.6922  1.4895  0.7113
  725MOL0     H95636  10.606  10.575   8.492  0.9460 -0.3480 -0.5313
  725MOL0     H95637  10.334  10.805   8.644  0.3043  2.5986 -0.6538
  725MOL0     H95638  10.408  10.660   8.559 -1.3576 -0.1148  2.9595
  725MOL0     H95639  10.355  10.805   8.374 -0.2321  0.0594 -0.4386
  725MOL0     H95640  10.524  10.822   8.409  0.1107 -4.3342  1.1868
  725MOL0     H95641  10.481  11.028   8.536 -0.8526 -0.7735  1.1722
  725MOL0     H95642  10.318  11.027   8.479  0.6889 -1.4813  1.5728
  725MOL0     H95643  10.536  11.009   8.262  1.2426  0.3673  1.2128
  725MOL0     H95644  10.368  11.049   8.253  0.6764 -0.3541 -1.8506
  725MOL0     H95645  10.518  11.244   8.247  0.3945 -1.0515 -0.3544
  725MOL0     H95646  10.593  11.194   8.407  0.8885 -0.8006 -1.2904
  725MOL0     H95647  10.374  11.238   8.512  1.0014  1.0541  0.2679
  725MOL0     H95648  10.292  11.286   8.359 -1.0841  4.1108  2.6562
  725MOL0     H95649  10.327  11.466   8.492 -0.9846 -0.2174 -1.6954
  725MOL0     H95650  10.507  11.462   8.469  2.2137 -2.3351 -2.2649
  725MOL0     H95651  10.467  11.489   8.224  0.9130  0.4077 -0.1623
  725MOL0     H95652  10.434  11.631   8.325 -0.6001 -0.0098  1.4792
  725MOL0     H95653  10.316  11.655   8.062  0.2289  0.5125  1.9565
  725MOL0     H95654  10.103  11.792   7.967 -0.0893  1.5074  2.0362
  725MOL0     H95655   9.950  11.789   8.053  1.5068 -0.2989  1.7874
  725MOL0     H95656   9.876  11.589   7.945 -0.6169  1.9647  2.0585
  725MOL0     H95657  10.029  11.581   7.856  2.1381  0.9292  2.1453
  725MOL0     H95658   9.828  11.804   7.826  1.0087 -0.0754  2.8236
  725MOL0     H95659   9.978  11.785   7.729  1.6161  0.1224  1.0185
  725MOL0     H95660   9.913  11.626   7.603  0.5214 -0.5377  0.8457
  725MOL0     H95661   9.752  11.679   7.625 -0.6571 -6.2189 -4.6146
  725MOL0     H95662   9.749  11.280   7.827 -0.6837 -1.6098 -0.3013
  725MOL0     H95663   9.708  11.086   7.698 -3.4685  0.5072 -0.1217
  725MOL0     H95664   9.415  10.838   7.284 -2.3134  1.2927 -3.2672
  725MOL0     H95665   9.458  10.647   7.144 -1.2657  0.5497  2.7077
  725MOL0     H95666   9.883  10.611   7.072 -0.1206 -0.3345 -0.3598
  725MOL0     H95667   9.836  10.501   6.930 -0.9175 -5.5886  1.1332
  725MOL0     H95668   9.804  10.463   7.235  1.9434  1.2168 -0.0147
  725MOL0     H95669   9.903  10.373   7.116 -2.5431 -4.2832  3.7300
  725MOL0     H95670   9.622  10.335   7.182 -0.2733 -2.3661  0.4607
  725MOL0     H95671   9.770  10.233   7.180 -1.6273  0.6870 -0.6747
  725MOL0     H95672   9.633  10.333   6.936  1.7003  1.6073  0.4081
  725MOL0     H95673   9.760  10.222   6.940 -0.3315 -1.0980 -0.6374
  725MOL0     H95674   9.494  10.159   7.094  0.6056 -1.0354  1.7529
  725MOL0     H95675   9.630  10.058   7.083 -1.3909 -0.7642  0.2575
  725MOL0     H95676   9.460   9.978   6.920  2.8124 -1.8850 -1.1642
  725MOL0     H95677   9.609  10.033   6.841  0.7584 -0.3662  1.1868
  725MOL0     H95678   9.341  10.133   6.809  0.2582 -3.7880 -0.6671
  725MOL0     H95679   9.459  10.271   6.809 -0.7444  1.3636 -0.1377
  725MOL0     H95680   9.409  10.182   6.585  1.0962  0.1059 -0.0184
  725MOL0     H95681   9.470  10.019   6.637  3.8455  0.5895 -1.0853
  725MOL0     H95682   9.833  10.829   7.018 -0.2782 -2.3822  0.6381
  725MOL0     H95683   9.804  11.006   7.167  0.6997  0.0060  0.6033
  725MOL0     H95684   9.665  11.297   7.333 -0.4941 -1.1976 -0.2510
  725MOL0     H95685   9.742  11.504   7.454 -0.1265 -1.0980 -0.0767
  725MOL0     H95686  10.731  10.926   8.684 -0.6588 -1.0906 -0.1686
  725MOL0     H95687  10.970  10.889   8.598  2.1754 -3.4453  0.4049
  725MOL0     H95688  11.426  10.724   8.566 -0.0633  3.4042 -1.2644
  725MOL0     H95689  11.625  10.651   8.442  1.1196 -1.9170 -5.0377
  725MOL0     H95690  11.743  10.500   8.340 -3.8451 -0.1038  0.4262
  725MOL0     H95691  11.807  10.635   8.236  1.9535 -0.8393  1.3980
  725MOL0     H95692  11.790  10.329   8.156 -0.4196 -0.8091  1.7783
  725MOL0     H95693  11.798  10.463   8.035 -3.8220 -3.1229  0.1137
  725MOL0     H95694  12.020  10.539   8.137  4.8648 -2.6971 -0.5635
  725MOL0     H95695  12.036  10.369   8.114  1.7176 -0.0050  2.2392
  725MOL0     H95696  12.135  10.423   8.318  0.5182  3.2775  1.5899
  725MOL0     H95697  11.991  10.504   8.380  0.2240 -1.4776  2.4869
  725MOL0     H95698  11.825  10.164   8.488 -1.3871 -0.0938 -3.1066
  725MOL0     H95699  11.374  10.566   8.104  0.1312 -2.1620 -0.2383
  725MOL0     H95700  11.171  10.614   8.246 -0.1756 -0.8391 -1.1774
  726MOL0     O95701  10.023   7.886  10.262  0.4983 -0.3739  0.2496
  726MOL0     C95702  10.071   7.885  10.153 -0.1020  0.0581  0.5786
  726MOL0     O95703  10.012   7.870  10.030  0.1872  0.1907 -0.1818
  726MOL0     C95704   9.889   7.819  10.001  0.4175  0.2318 -0.2083
  726MOL0     C95705   9.861   7.800   9.867  0.5783  1.4814 -0.5467
  726MOL0     C95706   9.739   7.744   9.820 -0.6336  0.7714  0.1499
  726MOL0     C95707   9.634   7.738   9.907 -0.3768 -0.3750 -0.7481
  726MOL0     O95708   9.505   7.704   9.865  0.0780  0.2701  0.1134
  726MOL0     C95709   9.490   7.574   9.804 -1.3175 -0.5903  0.0046
  726MOL0     C95710   9.339   7.553   9.767  0.0630 -0.1760  0.1539
  726MOL0     C95711   9.311   7.413   9.716 -0.1507 -0.0457 -0.1801
  726MOL0     C95712   9.174   7.385   9.654  0.9230 -0.6327 -0.5842
  726MOL0     C95713   9.141   7.253   9.597  0.8902  0.2950 -0.5441
  726MOL0     C95714   9.075   7.162   9.713 -0.1858  0.0001  0.8704
  726MOL0     C95715   8.920   7.178   9.731 -0.6355 -0.2539  0.4492
  726MOL0     C95716   8.837   7.110   9.621 -0.6859 -0.1810 -0.5497
  726MOL0     N95717   8.687   7.134   9.647 -0.6848 -0.0350 -0.2575
  726MOL0     C95718   8.623   7.069   9.750 -0.6351 -0.3198 -0.2485
  726MOL0     C95719   8.493   7.116   9.745 -0.0244  0.1644  0.3879
  726MOL0     C95720   8.388   7.069   9.840 -1.1757 -0.3099  0.2211
  726MOL0     C95721   8.245   7.059   9.785 -0.2999  0.3810 -0.3103
  726MOL0     C95722   8.153   6.952   9.856  0.0493  0.5844  0.0216
  726MOL0     C95723   8.028   6.908   9.769  0.3772 -0.2257 -0.1216
  726MOL0     O95724   7.942   6.812   9.845 -0.5357  0.0985  0.2465
  726MOL0     C95725   7.831   6.761   9.778  0.5407  0.4021 -2.1423
  726MOL0     C95726   7.762   6.652   9.840  0.2427 -0.5046 -0.6017
  726MOL0     C95727   7.644   6.600   9.779  0.2737  0.2319 -0.6193
  726MOL0     C95728   7.606   6.637   9.650  0.2629  0.0267 -0.8582
  726MOL0     C95729   7.497   6.573   9.575  0.0976  0.4834 -0.8708
  726MOL0     O95730   7.458   6.639   9.460  0.3455  0.5971 -0.6774
  726MOL0     C95731   7.338   6.593   9.413 -0.1040  0.0001  0.1486
  726MOL0     C95732   7.330   6.547   9.288 -0.5509  0.2305  0.2428
  726MOL0     C95733   7.208   6.499   9.235  0.2079  0.0907  0.2894
  726MOL0     C95734   7.087   6.503   9.307 -0.3741  0.8109  0.6029
  726MOL0     O95735   6.984   6.454   9.235  0.2104 -0.9212  0.0280
  726MOL0     C95736   6.876   6.394   9.302 -0.0001  0.4261  0.0742
  726MOL0     C95737   6.897   6.235   9.332  1.3683 -0.2551  0.4631
  726MOL0     C95738   6.923   6.175   9.191  0.4694  0.6700 -0.2921
  726MOL0     C95739   6.901   6.021   9.202  0.3609  0.2835 -0.2635
  726MOL0     C95740   6.874   5.945   9.069  0.5408 -0.2612 -0.0534
  726MOL0     C95741   6.736   5.981   9.022  0.1052 -0.7166  0.2071
  726MOL0     C95742   6.732   6.006   8.872 -0.8012 -0.1760 -0.2386
  726MOL0     C95743   6.598   6.003   8.815 -0.4350 -0.1357  0.4373
  726MOL0    Cl95744   6.521   5.836   8.809  0.2435  0.2922  0.2303
  726MOL0     C95745   7.095   6.556   9.439  0.1806 -0.8407  0.8024
  726MOL0     C95746   7.214   6.609   9.489 -0.8365 -0.3671 -0.4264
  726MOL0     O95747   7.459   6.461   9.614  0.5204 -1.0962  0.3529
  726MOL0     C95748   7.686   6.739   9.592 -0.2364 -0.2541 -0.3639
  726MOL0     C95749   7.782   6.807   9.660  0.3210  1.0068 -1.2472
  726MOL0     N95750   8.492   7.215   9.642 -0.8377 -0.1149 -0.2308
  726MOL0     N95751   8.607   7.222   9.583  0.6175 -0.6487  0.2569
  726MOL0     C95752   9.656   7.766  10.043 -0.1195 -0.4699  0.5477
  726MOL0     C95753   9.781   7.790  10.089 -0.1801  1.2836 -0.3559
  726MOL0     C95754  10.216   7.911  10.151 -0.2941  1.1276 -0.3727
  726MOL0     C95755  10.297   7.884  10.041  0.3566  0.0581 -0.9159
  726MOL0     C95756  10.430   7.930  10.044 -0.0385  0.4639 -0.6415
  726MOL0     C95757  10.490   7.973  10.155  0.5913 -0.3450 -0.3078
  726MOL0     O95758  10.628   7.981  10.150  0.1821  0.4937  0.1416
  726MOL0     C95759  10.708   8.003  10.279  0.7940  0.1302  0.4497
  726MOL0     C95760  10.838   7.930  10.279 -0.0915  0.7416 -1.1940
  726MOL0     C95761  10.835   7.774  10.277 -1.1506  0.4813  0.4327
  726MOL0     C95762  10.973   7.714  10.257 -0.8514 -0.1159  0.1991
  726MOL0     C95763  10.966   7.579  10.195  0.1417  0.6984  0.6782
  726MOL0     C95764  10.957   7.465  10.155 -0.9170  0.5605 -0.5829
  726MOL0     C95765  10.412   8.005  10.268 -0.1467  0.8041  0.6833
  726MOL0     C95766  10.274   7.974  10.258  0.6531 -0.1990 -1.4255
  726MOL0     H95767   9.940   7.826   9.797  0.3866  0.0374 -1.3357
  726MOL0     H95768   9.726   7.705   9.720  4.3908 -2.2027  0.3010
  726MOL0     H95769   9.529   7.497   9.871  2.2189  0.6006 -0.4783
  726MOL0     H95770   9.557   7.571   9.717  2.7209  1.3815  2.7130
  726MOL0     H95771   9.313   7.616   9.682 -0.8683 -0.3954  0.2637
  726MOL0     H95772   9.260   7.581   9.837 -0.4380  0.2181 -0.5558
  726MOL0     H95773   9.321   7.341   9.797  2.1950 -0.4596 -0.7704
  726MOL0     H95774   9.382   7.383   9.638  0.6723  4.6376 -1.5160
  726MOL0     H95775   9.100   7.408   9.731  2.4262 -1.4556  1.2016
  726MOL0     H95776   9.161   7.449   9.567  1.7711  2.2496  1.2512
  726MOL0     H95777   9.235   7.206   9.568  0.5114 -0.4950 -0.5256
  726MOL0     H95778   9.073   7.254   9.511  1.4074  2.3758 -0.9797
  726MOL0     H95779   9.127   7.181   9.808 -0.6296  1.9910  0.7569
  726MOL0     H95780   9.081   7.057   9.685  0.5639  0.8217 -2.4198
  726MOL0     H95781   8.893   7.142   9.830 -0.0646 -0.0019  0.7024
  726MOL0     H95782   8.904   7.286   9.721  1.3789  0.0332 -0.0985
  726MOL0     H95783   8.856   7.002   9.621  3.1652  0.3678 -0.0890
  726MOL0     H95784   8.864   7.141   9.520  1.7152 -2.4735 -0.7089
  726MOL0     H95785   8.671   6.992   9.810 -1.0504 -1.6423 -1.5624
  726MOL0     H95786   8.391   7.128   9.932 -2.4724  1.1557 -0.6314
  726MOL0     H95787   8.419   6.967   9.864  0.9278 -0.0472 -1.1184
  726MOL0     H95788   8.254   7.026   9.682  3.0394  1.1333 -0.3868
  726MOL0     H95789   8.200   7.159   9.790 -0.1840  0.4459 -0.5507
  726MOL0     H95790   8.208   6.858   9.866 -1.0274 -0.0247  0.4567
  726MOL0     H95791   8.119   6.977   9.957  0.1559  0.8179  0.0006
  726MOL0     H95792   8.062   6.863   9.676 -0.1439 -2.6227  0.7775
  726MOL0     H95793   7.972   6.999   9.742  2.7194  0.3965 -3.5141
  726MOL0     H95794   7.797   6.635   9.941 -1.8137  4.8845  1.4020
  726MOL0     H95795   7.574   6.530   9.825 -1.4056  1.7089 -0.8471
  726MOL0     H95796   7.424   6.538   9.235  0.7287 -2.0532  2.6846
  726MOL0     H95797   7.195   6.458   9.135 -1.8565  0.1205  0.5041
  726MOL0     H95798   6.787   6.411   9.240 -0.2915 -0.0701  0.3419
  726MOL0     H95799   6.860   6.439   9.400  2.0642 -2.0338  1.6438
  726MOL0     H95800   6.806   6.197   9.378  0.5253  1.1831  0.0429
  726MOL0     H95801   6.991   6.237   9.388  1.5415  2.4459  0.2273
  726MOL0     H95802   7.030   6.189   9.173  1.2107  0.9426  3.4876
  726MOL0     H95803   6.861   6.231   9.120 -3.5047 -0.6002  1.8853
  726MOL0     H95804   6.999   5.988   9.241  1.3549  2.8857 -0.3644
  726MOL0     H95805   6.817   5.988   9.264 -0.4477  0.7688 -1.0798
  726MOL0     H95806   6.889   5.837   9.078 -1.5250 -0.4453  2.2931
  726MOL0     H95807   6.948   5.980   8.996 -2.3454  0.8566 -2.6917
  726MOL0     H95808   6.705   6.070   9.077  0.1429  0.1627 -1.1560
  726MOL0     H95809   6.674   5.894   9.048 -0.8720 -1.0930 -2.9127
  726MOL0     H95810   6.769   6.104   8.841  0.7142  0.3110  2.8187
  726MOL0     H95811   6.787   5.928   8.819  0.1326  0.8704 -0.8451
  726MOL0     H95812   6.610   6.046   8.715  0.6919  1.2584  1.1486
  726MOL0     H95813   6.533   6.064   8.879 -0.4901 -1.2562  1.4627
  726MOL0     H95814   7.003   6.567   9.495 -1.0028  1.4715 -1.3871
  726MOL0     H95815   7.221   6.644   9.591  3.5723 -0.9873 -0.3288
  726MOL0     H95816   7.662   6.786   9.497 -1.5391 -2.0904 -0.9955
  726MOL0     H95817   7.808   6.898   9.609 -0.3364  1.8526 -0.1226
  726MOL0     H95818   9.570   7.760  10.108  0.7393 -2.2527  1.5943
  726MOL0     H95819   9.802   7.799  10.195  0.7344 -3.1645  0.0496
  726MOL0     H95820  10.250   7.856   9.947 -1.2065 -2.3497  0.4649
  726MOL0     H95821  10.495   7.926   9.958  3.6772  0.0699  1.9718
  726MOL0     H95822  10.660   7.958  10.366  2.2159  0.6018  1.5221
  726MOL0     H95823  10.730   8.109  10.293  1.0048  0.3040 -1.0934
  726MOL0     H95824  10.886   7.969  10.188  1.5375 -1.2658 -1.2649
  726MOL0     H95825  10.901   7.964  10.361 -0.1540  0.5394 -1.0596
  726MOL0     H95826  10.769   7.742  10.196  0.9380 -1.8955 -0.4714
  726MOL0     H95827  10.786   7.733  10.366 -0.9052 -0.1352  0.2921
  726MOL0     H95828  11.011   7.767  10.170 -3.3825  0.6567 -0.5009
  726MOL0     H95829  11.023   7.726  10.353 -0.5874 -0.6869  0.1360
  726MOL0     H95830  10.944   7.363  10.126  1.7588  0.5908 -2.2750
  726MOL0     H95831  10.452   8.053  10.357  2.2352  1.0840 -0.4755
  726MOL0     H95832  10.217   7.998  10.347  2.0754 -2.4158  0.2066
  727MOL0     O95833   8.333   3.713  11.324 -0.5552 -0.4630  0.0829
  727MOL0     C95834   8.364   3.751  11.437  0.8750 -0.0640 -0.2667
  727MOL0     O95835   8.310   3.853  11.505 -0.4893 -0.1845  0.5651
  727MOL0     C95836   8.203   3.922  11.451  0.2942  0.1016 -0.0756
  727MOL0     C95837   8.208   4.065  11.464  0.5950  0.2146 -0.9744
  727MOL0     C95838   8.092   4.141  11.427 -0.0762  0.4194  0.8728
  727MOL0     C95839   7.981   4.070  11.366  0.3117  0.6091  0.2128
  727MOL0     O95840   7.869   4.120  11.291 -1.0131  0.0949  0.2107
  727MOL0     C95841   7.890   4.255  11.242 -0.2371 -0.7276  0.1019
  727MOL0     C95842   7.961   4.245  11.111  1.4318  0.0363 -0.2183
  727MOL0     C95843   7.875   4.213  10.979  0.0540  0.2938 -0.0980
  727MOL0     C95844   7.818   4.074  10.997 -0.2431  0.3561 -0.4140
  727MOL0     C95845   7.787   4.016  10.853  0.4865 -0.3381 -0.4594
  727MOL0     C95846   7.708   3.893  10.872 -1.0859 -0.0688  0.1034
  727MOL0     C95847   7.657   3.827  10.746 -0.5133 -0.2960 -0.4957
  727MOL0     C95848   7.529   3.897  10.691 -0.8551  0.0022 -0.1524
  727MOL0     N95849   7.518   3.861  10.546 -0.0863 -0.3211 -0.5620
  727MOL0     C95850   7.597   3.925  10.451  0.4151 -0.1978 -0.8138
  727MOL0     C95851   7.590   3.842  10.343  0.7729  0.6734 -0.8944
  727MOL0     C95852   7.655   3.864  10.207  0.3124  0.4022  0.1359
  727MOL0     C95853   7.757   3.973  10.205 -0.1468  0.3546 -0.2629
  727MOL0     C95854   7.775   4.022  10.070 -0.0666 -0.9830  1.1261
  727MOL0     C95855   7.833   4.173  10.069  0.4081 -0.8496  0.6615
  727MOL0     O95856   7.739   4.257  10.116  0.0231 -0.8478  0.0422
  727MOL0     C95857   7.785   4.386  10.155  0.2792 -0.0559  0.8646
  727MOL0     C95858   7.692   4.487  10.175 -0.0404 -0.9127 -0.0087
  727MOL0     C95859   7.722   4.618  10.211 -0.0530 -0.5588  0.1950
  727MOL0     C95860   7.858   4.661  10.228 -0.4192  0.2753  0.5818
  727MOL0     C95861   7.905   4.801  10.266 -0.0154  0.9702  0.3021
  727MOL0     O95862   8.036   4.819  10.306  0.4924 -0.0857  0.2998
  727MOL0     C95863   8.073   4.953  10.320 -0.4417 -0.1094 -0.3491
  727MOL0     C95864   8.083   5.044  10.212  0.6469  0.5480 -0.7238
  727MOL0     C95865   8.118   5.177  10.225  0.9946 -0.5266 -0.6453
  727MOL0     C95866   8.145   5.223  10.355  0.7455 -0.3571  0.1058
  727MOL0     O95867   8.198   5.344  10.382 -0.0519  0.0358  0.4878
  727MOL0     C95868   8.164   5.448  10.280  0.8475 -0.3369  0.0560
  727MOL0     C95869   8.210   5.574  10.356  0.3675 -0.0239 -0.1224
  727MOL0     C95870   8.251   5.700  10.274  0.0327  0.8820 -0.0030
  727MOL0     C95871   8.317   5.792  10.372  0.0994 -0.1853  0.7611
  727MOL0     C95872   8.375   5.922  10.301 -0.4241  0.0016 -0.2761
  727MOL0     C95873   8.433   6.009  10.405 -0.5430 -0.3205 -0.1962
  727MOL0     C95874   8.546   6.094  10.357 -0.2009  0.4903  0.2280
  727MOL0     C95875   8.616   6.176  10.478  0.5088 -0.2510 -0.9063
  727MOL0    Cl95876   8.746   6.284  10.418  0.1853 -0.1039 -0.3077
  727MOL0     C95877   8.142   5.137  10.463  1.0982 -0.5990  0.1950
  727MOL0     C95878   8.108   5.001  10.451 -0.8580  0.6113  0.4432
  727MOL0     O95879   7.816   4.887  10.272  0.3076 -0.0786 -0.4491
  727MOL0     C95880   7.957   4.561  10.197  0.4549 -0.3831 -0.1215
  727MOL0     C95881   7.918   4.427  10.162 -0.7566 -0.6692 -0.8938
  727MOL0     N95882   7.507   3.731  10.381  0.1211 -0.5353  0.2155
  727MOL0     N95883   7.465   3.748  10.499  0.4782 -0.1553  0.5599
  727MOL0     C95884   7.982   3.936  11.340  0.1727 -0.7354 -0.7290
  727MOL0     C95885   8.091   3.865  11.377  1.0587  0.0375  0.6508
  727MOL0     C95886   8.454   3.660  11.513  0.2175 -0.3425 -0.0685
  727MOL0     C95887   8.458   3.662  11.654 -0.3957  0.0234 -0.0610
  727MOL0     C95888   8.541   3.578  11.720 -0.2723 -1.2641  0.3686
  727MOL0     C95889   8.627   3.488  11.659 -0.1137 -0.4551 -0.6924
  727MOL0     O95890   8.730   3.419  11.726  0.2691  0.1822 -0.2793
  727MOL0     C95891   8.694   3.353  11.849  0.5704 -0.3098  0.1836
  727MOL0     C95892   8.765   3.211  11.848  0.5851 -0.8104  0.0106
  727MOL0     C95893   8.698   3.108  11.757  0.8740 -0.1147 -0.9416
  727MOL0     C95894   8.715   2.968  11.818 -0.4771  0.1576  0.4352
  727MOL0     C95895   8.858   2.934  11.837 -0.2334 -0.0139  0.5183
  727MOL0     C95896   8.980   2.916  11.870  0.5221  0.0939 -0.1377
  727MOL0     C95897   8.620   3.480  11.522  0.5740  0.0051 -0.4231
  727MOL0     C95898   8.533   3.567  11.448 -0.4324  0.3808 -0.0234
  727MOL0     H95899   8.294   4.111  11.511  2.2780 -0.7335 -2.9372
  727MOL0     H95900   8.113   4.247  11.439  2.7242 -0.0337  0.7849
  727MOL0     H95901   7.944   4.323  11.309  1.5871 -1.1401 -0.8828
  727MOL0     H95902   7.797   4.310  11.225  1.7377  2.7981 -0.3956
  727MOL0     H95903   8.037   4.167  11.120 -1.7933 -3.2626  1.4111
  727MOL0     H95904   8.001   4.345  11.092 -1.9985  0.8433 -5.2342
  727MOL0     H95905   7.938   4.228  10.891 -1.6701 -0.7273 -1.6010
  727MOL0     H95906   7.802   4.295  10.977 -1.8911 -1.3822 -0.7795
  727MOL0     H95907   7.892   4.010  11.046  1.9381  1.3666 -2.2165
  727MOL0     H95908   7.729   4.080  11.061  0.1575  2.2875  0.0240
  727MOL0     H95909   7.883   4.007  10.801  1.1392  1.6109  0.2870
  727MOL0     H95910   7.727   4.088  10.797  0.3195 -0.0752  0.0505
  727MOL0     H95911   7.628   3.912  10.944  1.1481  4.3274  1.8036
  727MOL0     H95912   7.785   3.828  10.916  1.2479  2.5539  0.1930
  727MOL0     H95913   7.744   3.842  10.681  0.5606 -2.1470  0.4340
  727MOL0     H95914   7.635   3.721  10.761  0.7844 -0.3143  1.6852
  727MOL0     H95915   7.544   4.004  10.708 -0.1503 -0.2365  0.8654
  727MOL0     H95916   7.440   3.863  10.745  0.3731 -1.4888  1.0462
  727MOL0     H95917   7.640   4.024  10.451  0.3739 -0.1793 -1.0643
  727MOL0     H95918   7.563   3.882  10.151  0.1027 -1.9662 -0.4010
  727MOL0     H95919   7.705   3.770  10.182 -1.2351 -1.1341  2.3508
  727MOL0     H95920   7.845   3.932  10.254 -0.3080  2.2066  1.7101
  727MOL0     H95921   7.724   4.061  10.261  0.9322 -1.1887  3.0489
  727MOL0     H95922   7.828   3.948  10.009  0.3568 -1.2120  1.7627
  727MOL0     H95923   7.671   4.036  10.037 -0.7054  2.9138  4.0574
  727MOL0     H95924   7.874   4.208   9.974 -0.1097 -1.3961  0.2317
  727MOL0     H95925   7.922   4.176  10.132 -0.4329  3.3336  2.0402
  727MOL0     H95926   7.591   4.448  10.189 -0.6589  0.0358 -1.5131
  727MOL0     H95927   7.637   4.685  10.222 -0.6148 -1.4981  2.1593
  727MOL0     H95928   8.052   5.005  10.116 -0.0788 -0.0027 -0.2745
  727MOL0     H95929   8.126   5.242  10.138 -0.2879  2.4707  1.3229
  727MOL0     H95930   8.058   5.454  10.254  0.4500 -1.1329  1.3931
  727MOL0     H95931   8.232   5.445  10.195  2.6209  1.8963  1.2540
  727MOL0     H95932   8.298   5.535  10.409 -0.7361 -3.6570 -0.7097
  727MOL0     H95933   8.143   5.600  10.438  2.4326 -0.5204  1.8479
  727MOL0     H95934   8.162   5.738  10.223  1.1590  1.9553 -1.2272
  727MOL0     H95935   8.328   5.678  10.201 -0.8613  1.8625 -1.2884
  727MOL0     H95936   8.249   5.826  10.451 -2.6216 -1.9992 -0.6454
  727MOL0     H95937   8.406   5.747  10.417  1.7073  1.2002 -0.8670
  727MOL0     H95938   8.291   5.968  10.247 -0.4028 -0.7837 -0.9990
  727MOL0     H95939   8.455   5.902  10.229  1.5918  2.0627  1.2360
  727MOL0     H95940   8.480   5.949  10.484  4.6832  3.0369 -0.2298
  727MOL0     H95941   8.349   6.071  10.437 -0.9802 -0.7566 -0.4784
  727MOL0     H95942   8.627   6.028  10.322 -1.9845 -0.7463 -1.8470
  727MOL0     H95943   8.518   6.166  10.279 -0.7122  0.6696  0.5711
  727MOL0     H95944   8.648   6.112  10.561 -4.0354  2.8063  3.8552
  727MOL0     H95945   8.540   6.241  10.522 -0.0846  3.3515 -6.3599
  727MOL0     H95946   8.174   5.195  10.550  0.8294  0.2248 -0.2437
  727MOL0     H95947   8.122   4.933  10.534 -0.3571 -1.6696 -1.3906
  727MOL0     H95948   8.064   4.583  10.201  0.4314 -0.2572 -0.1641
  727MOL0     H95949   8.001   4.366  10.128  1.4294  0.5566  1.9101
  727MOL0     H95950   7.899   3.889  11.289 -2.1062  1.3695  0.8534
  727MOL0     H95951   8.074   3.758  11.372  1.1560 -0.0945  2.5479
  727MOL0     H95952   8.386   3.724  11.706  0.3153  1.3337 -0.5993
  727MOL0     H95953   8.553   3.586  11.828 -1.7261  0.4980  0.4454
  727MOL0     H95954   8.585   3.341  11.842  0.8612 -2.6025 -2.3112
  727MOL0     H95955   8.716   3.402  11.944 -1.3596 -1.7532  1.4498
  727MOL0     H95956   8.868   3.217  11.810  0.4817 -2.8077 -0.7020
  727MOL0     H95957   8.778   3.171  11.949 -1.2732 -0.5522  0.3838
  727MOL0     H95958   8.746   3.115  11.659  0.4881 -1.3686 -1.2428
  727MOL0     H95959   8.591   3.128  11.744  1.0524  1.6850  0.1617
  727MOL0     H95960   8.665   2.949  11.914  0.2616 -1.1249  0.5896
  727MOL0     H95961   8.664   2.894  11.756  0.6542 -1.5755  1.5137
  727MOL0     H95962   9.076   2.880  11.900  2.9066  5.4236 -0.2245
  727MOL0     H95963   8.672   3.404  11.464 -0.6360 -1.0468 -0.1802
  727MOL0     H95964   8.535   3.556  11.340 -0.4116  0.6776 -0.0536
  728MOL0     O95965   3.668   6.857   7.565 -0.1941 -0.4528 -0.1018
  728MOL0     C95966   3.657   6.738   7.542  0.2656 -0.1255 -0.4652
  728MOL0     O95967   3.762   6.652   7.505  0.3446 -0.0631  0.0103
  728MOL0     C95968   3.883   6.708   7.489 -0.1567 -0.8442  0.8863
  728MOL0     C95969   3.961   6.725   7.597  1.2035 -0.6673  0.5178
  728MOL0     C95970   4.097   6.762   7.577  0.8203 -0.0026 -0.3468
  728MOL0     C95971   4.143   6.794   7.448 -0.1206  0.1603 -1.4170
  728MOL0     O95972   4.283   6.823   7.439  0.1793 -0.4202  0.2819
  728MOL0     C95973   4.311   6.961   7.440 -0.1804  0.0913 -0.0860
  728MOL0     C95974   4.466   6.987   7.449 -0.3319 -0.3555  0.5028
  728MOL0     C95975   4.490   7.140   7.433  0.1914  0.8816 -0.0511
  728MOL0     C95976   4.487   7.186   7.285  0.2544  0.5688 -1.5045
  728MOL0     C95977   4.533   7.326   7.270 -0.4311  0.9014  1.3545
  728MOL0     C95978   4.579   7.345   7.122  0.5344 -0.0449 -0.4381
  728MOL0     C95979   4.581   7.503   7.091 -0.3295 -0.2513 -0.3514
  728MOL0     C95980   4.591   7.520   6.941  0.6041 -0.3392  0.1711
  728MOL0     N95981   4.588   7.667   6.939  0.6539 -0.6614  0.0186
  728MOL0     C95982   4.687   7.756   6.903 -1.4300 -0.0818  0.1440
  728MOL0     C95983   4.625   7.874   6.909 -0.6070  0.4210  0.0618
  728MOL0     C95984   4.682   8.011   6.911 -0.0560  0.4266 -0.5667
  728MOL0     C95985   4.675   8.090   6.780  0.3447 -0.0174  0.4931
  728MOL0     C95986   4.642   8.020   6.642  0.5569 -0.3066 -0.1012
  728MOL0     C95987   4.665   8.130   6.541  0.1143 -0.8816  0.1083
  728MOL0     O95988   4.804   8.146   6.518 -0.2832  0.4077  1.2421
  728MOL0     C95989   4.846   8.247   6.435 -0.9370  0.8464  1.2881
  728MOL0     C95990   4.773   8.296   6.322 -0.6379 -0.0593 -0.1938
  728MOL0     C95991   4.825   8.392   6.235  0.4796 -1.0493 -1.1872
  728MOL0     C95992   4.953   8.437   6.254  0.2018 -0.1127 -0.1403
  728MOL0     C95993   5.002   8.534   6.156 -0.7836  0.6509  0.5920
  728MOL0     O95994   4.934   8.547   6.045  0.2237  0.8124  0.3348
  728MOL0     C95995   4.983   8.604   5.928  0.0675  0.4521 -0.2628
  728MOL0     C95996   4.886   8.638   5.836  0.9855  0.0861  0.7107
  728MOL0     C95997   4.924   8.693   5.706  0.0363  0.1635 -1.0093
  728MOL0     C95998   5.056   8.710   5.671 -0.4882 -0.5621  0.3470
  728MOL0     O95999   5.104   8.753   5.547 -0.2417  0.3684  0.5548
  728MOL0     C96000   5.022   8.845   5.472  0.1037 -0.2816 -0.2355
  728MOL0     C96001   5.035   8.982   5.538  0.7875  0.4406 -0.0836
  728MOL0     C96002   5.172   9.034   5.498 -0.1466 -0.2830  0.6541
  728MOL0     C96003   5.188   9.179   5.541  0.1097  0.8921  0.3579
  728MOL0     C96004   5.312   9.245   5.490 -0.4179 -0.4274  0.6916
  728MOL0     C96005   5.304   9.397   5.466 -0.1637 -1.4135  0.0789
  728MOL0     C96006   5.208   9.424   5.360  1.0264 -0.1596  0.5351
  728MOL0     C96007   5.242   9.562   5.300  0.1312 -0.1915  0.1783
  728MOL0    Cl96008   5.159   9.682   5.397 -0.1425  0.2914  0.0098
  728MOL0     C96009   5.156   8.670   5.765 -0.6241 -0.4279  0.5628
  728MOL0     C96010   5.124   8.620   5.886  0.1206 -0.1180  0.1270
  728MOL0     O96011   5.099   8.602   6.188  0.3825 -0.2551  0.4783
  728MOL0     C96012   5.023   8.401   6.370  0.4203  1.0842  0.5920
  728MOL0     C96013   4.973   8.301   6.456  0.1454  0.6851 -0.1260
  728MOL0     N96014   4.487   7.861   6.930 -0.3951 -0.3078 -0.6504
  728MOL0     N96015   4.467   7.734   6.946 -0.3984 -0.4458  0.2639
  728MOL0     C96016   4.053   6.781   7.337  0.3696 -0.4574 -0.7105
  728MOL0     C96017   3.929   6.732   7.362  0.5453  0.4791 -0.2524
  728MOL0     C96018   3.521   6.676   7.556 -0.5237  0.5820  0.2821
  728MOL0     C96019   3.499   6.536   7.559 -1.0379  0.0329  1.0001
  728MOL0     C96020   3.364   6.492   7.572 -0.6132 -0.2961  0.0564
  728MOL0     C96021   3.253   6.579   7.578  0.2487  1.1048 -0.4584
  728MOL0     O96022   3.123   6.532   7.583  1.0966  0.4122 -0.4550
  728MOL0     C96023   3.092   6.400   7.630  0.5660 -0.0879  0.9302
  728MOL0     C96024   3.071   6.305   7.503 -0.1128 -0.1382 -0.4524
  728MOL0     C96025   2.959   6.198   7.528 -0.4161 -0.0818 -0.9217
  728MOL0     C96026   2.827   6.254   7.565  0.7343  0.0434  1.0867
  728MOL0     C96027   2.735   6.137   7.577  0.3770 -0.6503 -0.2089
  728MOL0     C96028   2.667   6.046   7.594  0.4246  0.2137  0.3160
  728MOL0     C96029   3.276   6.710   7.561  0.0655 -0.4426 -0.1979
  728MOL0     C96030   3.410   6.763   7.548 -0.7250  0.0294  0.9105
  728MOL0     H96031   3.919   6.703   7.695 -0.9289  0.5534 -0.0623
  728MOL0     H96032   4.170   6.768   7.657  1.4753  1.6786 -1.0342
  728MOL0     H96033   4.255   7.008   7.522 -3.3172 -4.2548  0.6429
  728MOL0     H96034   4.276   7.005   7.346  0.0392  3.2429  1.1650
  728MOL0     H96035   4.527   6.950   7.365 -0.0202  1.5353 -0.1495
  728MOL0     H96036   4.513   6.935   7.533 -0.0088  1.4613  1.4793
  728MOL0     H96037   4.586   7.161   7.480 -0.8615 -1.2301  3.3613
  728MOL0     H96038   4.415   7.186   7.498  2.0958  2.3146  1.2069
  728MOL0     H96039   4.538   7.119   7.215 -2.0666 -1.0268 -1.7833
  728MOL0     H96040   4.380   7.192   7.265  0.5229  3.0816 -2.6499
  728MOL0     H96041   4.619   7.346   7.334  0.1293  2.8519  0.0762
  728MOL0     H96042   4.451   7.394   7.292 -1.0185 -0.1609  2.6069
  728MOL0     H96043   4.509   7.290   7.059  0.5993  0.5673 -1.0622
  728MOL0     H96044   4.682   7.307   7.116  0.2718 -0.9235  0.3195
  728MOL0     H96045   4.490   7.544   7.134 -0.7452 -1.8072  0.3422
  728MOL0     H96046   4.670   7.544   7.140 -0.9951  0.1992  0.4877
  728MOL0     H96047   4.498   7.474   6.907 -0.4923  0.3924  2.0100
  728MOL0     H96048   4.678   7.470   6.898  0.7470 -0.2280  0.3274
  728MOL0     H96049   4.794   7.745   6.891 -1.3079  1.9696 -1.3231
  728MOL0     H96050   4.780   8.004   6.959 -1.7540 -2.6637  2.9435
  728MOL0     H96051   4.633   8.077   6.984  1.2162  1.3141 -0.4823
  728MOL0     H96052   4.764   8.152   6.766 -0.6040  1.7555  1.8835
  728MOL0     H96053   4.592   8.160   6.794 -2.1470 -2.9536  1.3219
  728MOL0     H96054   4.715   7.941   6.626  0.6962 -0.3518  0.6827
  728MOL0     H96055   4.537   7.993   6.632  0.0068  1.1941  1.1523
  728MOL0     H96056   4.620   8.224   6.575  1.9407  0.2138 -0.3469
  728MOL0     H96057   4.622   8.106   6.443  2.0850 -2.8313 -0.3488
  728MOL0     H96058   4.671   8.262   6.306 -0.8327  0.1901  0.4710
  728MOL0     H96059   4.774   8.419   6.143 -2.2192  2.0892  0.9945
  728MOL0     H96060   4.785   8.605   5.854  2.4953 -6.9464 -0.6365
  728MOL0     H96061   4.839   8.704   5.639 -1.7409  0.5368  1.1813
  728MOL0     H96062   4.916   8.817   5.480  0.3088 -0.9194  0.3119
  728MOL0     H96063   5.063   8.862   5.372 -1.8209  3.3843 -0.5908
  728MOL0     H96064   5.027   8.987   5.647 -2.0931  2.1914 -0.2774
  728MOL0     H96065   4.955   9.042   5.494  0.0025 -0.8317 -0.4613
  728MOL0     H96066   5.192   9.043   5.391 -0.6206 -0.8541  0.5115
  728MOL0     H96067   5.250   8.982   5.554  1.5784  3.2374  1.8339
  728MOL0     H96068   5.095   9.227   5.508 -0.0216  1.5027  1.5453
  728MOL0     H96069   5.182   9.184   5.650 -2.7486 -5.0105  0.8516
  728MOL0     H96070   5.340   9.196   5.397 -2.5582 -0.5660  0.0617
  728MOL0     H96071   5.397   9.229   5.557 -1.2598 -0.6723  1.7461
  728MOL0     H96072   5.399   9.440   5.432 -1.2579  0.4743 -0.7648
  728MOL0     H96073   5.277   9.450   5.557  1.9788  0.5695 -0.3375
  728MOL0     H96074   5.220   9.357   5.274 -1.1645  1.2202 -0.9354
  728MOL0     H96075   5.102   9.420   5.384  0.9874 -0.8230  0.2931
  728MOL0     H96076   5.192   9.578   5.203 -0.3944 -0.2197  0.4426
  728MOL0     H96077   5.348   9.574   5.278 -0.4382  0.9444 -2.3945
  728MOL0     H96078   5.257   8.699   5.738 -0.9762  0.1910 -0.1103
  728MOL0     H96079   5.207   8.586   5.947 -0.4068 -0.4018  0.7037
  728MOL0     H96080   5.128   8.428   6.378  1.5096 -1.2282 -3.3951
  728MOL0     H96081   5.033   8.264   6.538 -0.9083  0.1279  0.4259
  728MOL0     H96082   4.073   6.818   7.237 -1.0178  1.7264 -0.2514
  728MOL0     H96083   3.862   6.701   7.282  1.0562 -1.4731  0.0135
  728MOL0     H96084   3.586   6.471   7.570  1.9572  4.0252  3.3503
  728MOL0     H96085   3.351   6.384   7.572 -2.0572 -0.1896 -2.3848
  728MOL0     H96086   2.997   6.402   7.684 -0.8341 -1.5619 -1.3130
  728MOL0     H96087   3.160   6.347   7.697  1.9892 -0.7627 -0.9653
  728MOL0     H96088   3.049   6.360   7.411 -4.5922 -1.2160 -0.2588
  728MOL0     H96089   3.166   6.252   7.492  1.2501  1.9858  0.4322
  728MOL0     H96090   2.995   6.135   7.610 -0.0680  1.1771 -0.0761
  728MOL0     H96091   2.956   6.124   7.449  5.0636 -2.1548  0.3219
  728MOL0     H96092   2.813   6.302   7.662  0.3938  1.9539  0.1501
  728MOL0     H96093   2.799   6.331   7.492 -0.1222  0.5675  1.9442
  728MOL0     H96094   2.607   5.959   7.610  1.6038 -0.8989 -1.0209
  728MOL0     H96095   3.194   6.776   7.587  1.8512  1.9628 -0.4180
  728MOL0     H96096   3.417   6.870   7.531 -0.7815  0.0455  0.9890
  729MOL0     O96097   9.853   5.879   6.681  0.4068  0.3571 -0.1671
  729MOL0     C96098   9.816   5.872   6.560  0.0846  0.2078 -0.5321
  729MOL0     O96099   9.742   5.958   6.498  0.3010  0.3928  0.8601
  729MOL0     C96100   9.735   6.080   6.562  0.2171  0.0006  0.7462
  729MOL0     C96101   9.639   6.109   6.666 -1.0187 -0.3050 -0.9666
  729MOL0     C96102   9.635   6.226   6.730  0.0892 -0.3390 -0.4717
  729MOL0     C96103   9.712   6.335   6.690 -0.9892  0.1656  0.3662
  729MOL0     O96104   9.714   6.458   6.742  0.5333 -0.3302 -0.4338
  729MOL0     C96105   9.636   6.477   6.863 -0.0713 -0.6367  0.1218
  729MOL0     C96106   9.668   6.615   6.921  0.0482 -0.2071 -0.0238
  729MOL0     C96107   9.562   6.652   7.020 -0.3380 -0.2209 -0.9074
  729MOL0     C96108   9.432   6.723   6.955 -1.0117 -0.4773 -0.7618
  729MOL0     C96109   9.300   6.662   6.993 -0.0661  0.4469  0.6968
  729MOL0     C96110   9.271   6.656   7.137  0.0294  0.1854  0.7208
  729MOL0     C96111   9.126   6.649   7.174  0.0644 -0.3355 -0.0227
  729MOL0     C96112   9.057   6.531   7.117  0.5059 -0.2502 -0.5179
  729MOL0     N96113   8.912   6.533   7.143  0.7886  0.2645  0.6797
  729MOL0     C96114   8.820   6.635   7.126 -0.3520  0.9003 -0.0889
  729MOL0     C96115   8.704   6.582   7.156  0.0215 -1.1134  0.4991
  729MOL0     C96116   8.577   6.656   7.157  0.2572 -0.5206 -1.3186
  729MOL0     C96117   8.541   6.727   7.022  0.3186 -0.2050  0.8359
  729MOL0     C96118   8.394   6.768   7.025  0.6914 -0.4840 -0.1618
  729MOL0     C96119   8.358   6.830   6.892 -0.5360 -0.3062  0.0284
  729MOL0     O96120   8.358   6.733   6.793  0.2163 -0.0439  0.3518
  729MOL0     C96121   8.363   6.764   6.661  0.2725 -0.0512 -0.8371
  729MOL0     C96122   8.318   6.660   6.571 -0.9334  0.2002 -0.9318
  729MOL0     C96123   8.318   6.702   6.434 -0.2029 -0.0215  0.0657
  729MOL0     C96124   8.348   6.835   6.387 -0.0793  0.3876 -1.0964
  729MOL0     C96125   8.336   6.889   6.247 -0.8099  0.8288 -1.3804
  729MOL0     O96126   8.398   7.004   6.211 -0.9046  0.9360 -0.0973
  729MOL0     C96127   8.390   7.032   6.082 -0.2162 -0.0054  1.0507
  729MOL0     C96128   8.454   6.949   5.986  0.1921  0.0731 -0.4663
  729MOL0     C96129   8.456   6.979   5.853  0.0392  0.7389 -0.5840
  729MOL0     C96130   8.395   7.094   5.806  0.0863  0.0770  0.3115
  729MOL0     O96131   8.403   7.143   5.681  0.5532 -0.4689  0.6067
  729MOL0     C96132   8.391   7.056   5.568 -0.0441  1.1454  0.1344
  729MOL0     C96133   8.424   7.132   5.448 -0.0101  0.2224  0.3298
  729MOL0     C96134   8.568   7.184   5.449  0.0868 -0.0817 -0.8887
  729MOL0     C96135   8.670   7.066   5.471  0.5790  0.8761 -0.0624
  729MOL0     C96136   8.805   7.103   5.403  0.4709 -0.7094  0.4594
  729MOL0     C96137   8.899   6.984   5.422 -0.1395 -0.8453  1.3546
  729MOL0     C96138   9.019   6.990   5.332  0.0908 -0.7344  0.1115
  729MOL0     C96139   9.149   7.034   5.397  0.6122  0.9361 -0.8254
  729MOL0    Cl96140   9.109   7.193   5.475 -0.1215  0.0221 -0.2972
  729MOL0     C96141   8.320   7.169   5.899 -0.7115  0.2418  0.3930
  729MOL0     C96142   8.324   7.140   6.039  0.3528  0.7904  0.0384
  729MOL0     O96143   8.269   6.816   6.184  1.1838 -0.0244 -0.0462
  729MOL0     C96144   8.396   6.927   6.478 -0.7893 -0.6977  0.1744
  729MOL0     C96145   8.405   6.889   6.609  0.9602 -0.3565 -1.0692
  729MOL0     N96146   8.725   6.447   7.183  0.0195 -0.9175  0.0313
  729MOL0     N96147   8.851   6.418   7.166  0.1395  0.3483 -0.1304
  729MOL0     C96148   9.810   6.306   6.594 -0.7795 -0.6579  0.3703
  729MOL0     C96149   9.831   6.179   6.534  0.0467 -0.5492  0.7365
  729MOL0     C96150   9.840   5.736   6.492 -0.7167 -0.4669 -0.0364
  729MOL0     C96151   9.906   5.632   6.558  1.6958  0.5826  0.9184
  729MOL0     C96152   9.912   5.500   6.497 -0.1843 -0.2060 -0.6137
  729MOL0     C96153   9.836   5.474   6.389  1.1617 -0.0137  0.0033
  729MOL0     O96154   9.836   5.340   6.347 -0.1929  0.3009  0.0256
  729MOL0     C96155   9.718   5.294   6.267  0.3545 -0.3503 -0.0609
  729MOL0     C96156   9.736   5.142   6.236  0.3968  0.1053  0.0683
  729MOL0     C96157   9.871   5.119   6.169  0.4444  0.6031  0.6532
  729MOL0     C96158   9.901   4.977   6.126  1.4680  0.1852  0.9350
  729MOL0     C96159  10.039   4.948   6.151  0.1014  0.6786  0.4885
  729MOL0     C96160  10.154   4.913   6.177 -0.2708 -0.6923  0.4557
  729MOL0     C96161   9.775   5.587   6.317  0.0160  1.3684 -1.1226
  729MOL0     C96162   9.783   5.712   6.372 -0.0532  0.0718  0.1765
  729MOL0     H96163   9.576   6.032   6.710 -2.2953  2.0295  1.5721
  729MOL0     H96164   9.555   6.238   6.803 -0.1134 -0.9423 -0.5893
  729MOL0     H96165   9.644   6.398   6.939 -0.4855  0.0373  0.8860
  729MOL0     H96166   9.533   6.475   6.827  0.3932 -2.9756 -1.2791
  729MOL0     H96167   9.673   6.686   6.838 -0.4849 -1.2430 -0.9585
  729MOL0     H96168   9.760   6.615   6.980 -1.0797  1.3664  1.8799
  729MOL0     H96169   9.593   6.729   7.091  0.4619 -1.3741  0.0228
  729MOL0     H96170   9.539   6.565   7.081  1.5089 -0.3891 -0.3998
  729MOL0     H96171   9.433   6.824   6.996  0.5332 -0.3117 -1.1647
  729MOL0     H96172   9.438   6.748   6.848 -0.0237  2.5659 -0.0885
  729MOL0     H96173   9.277   6.566   6.946 -2.5550  0.7972  1.0271
  729MOL0     H96174   9.222   6.730   6.954  2.1455  2.2716 -0.8286
  729MOL0     H96175   9.322   6.740   7.185  2.7429 -1.9028  1.7439
  729MOL0     H96176   9.314   6.565   7.179  0.4457  0.9006  1.9149
  729MOL0     H96177   9.116   6.634   7.282  0.1982 -1.1642 -0.1216
  729MOL0     H96178   9.077   6.737   7.132 -1.3293 -1.6303 -1.2571
  729MOL0     H96179   9.106   6.436   7.142 -2.3936 -1.1755  2.3887
  729MOL0     H96180   9.071   6.547   7.010 -0.6601 -0.7605 -0.7547
  729MOL0     H96181   8.835   6.738   7.096 -0.3720  1.0308  0.3331
  729MOL0     H96182   8.577   6.726   7.241  2.7139 -1.6072 -0.3021
  729MOL0     H96183   8.499   6.580   7.165 -1.9101  1.7910  1.7061
  729MOL0     H96184   8.566   6.652   6.946  2.4889  0.5645  0.7339
  729MOL0     H96185   8.601   6.814   6.993 -1.6592  0.7728 -0.6055
  729MOL0     H96186   8.336   6.677   7.044 -0.5853  0.5357  1.0793
  729MOL0     H96187   8.376   6.835   7.110  1.1996 -1.1471  0.4846
  729MOL0     H96188   8.422   6.915   6.868 -1.0103 -0.9041 -4.1263
  729MOL0     H96189   8.254   6.863   6.897 -0.4632  0.1042 -0.9662
  729MOL0     H96190   8.293   6.558   6.598  2.9708 -0.4891  0.8281
  729MOL0     H96191   8.287   6.633   6.357 -0.5420  0.6995 -0.4643
  729MOL0     H96192   8.508   6.868   6.035 -2.0459 -0.3211  1.5268
  729MOL0     H96193   8.498   6.900   5.791 -2.3045 -3.2415  2.3830
  729MOL0     H96194   8.289   7.023   5.550 -0.6326  1.8942  1.8361
  729MOL0     H96195   8.449   6.963   5.572 -1.4970  0.1539 -0.9918
  729MOL0     H96196   8.364   7.224   5.446 -1.3346 -0.5800 -2.1553
  729MOL0     H96197   8.408   7.075   5.356 -0.1530  1.6248 -0.5443
  729MOL0     H96198   8.594   7.266   5.517  1.1124 -2.0387  1.1820
  729MOL0     H96199   8.588   7.225   5.350  2.7807  1.5210  0.2066
  729MOL0     H96200   8.698   7.048   5.575 -1.9722 -1.7711  0.3074
  729MOL0     H96201   8.635   6.972   5.428  1.0306 -0.1800  1.7623
  729MOL0     H96202   8.853   7.190   5.449  3.1077 -0.8172 -1.8471
  729MOL0     H96203   8.796   7.128   5.297  1.5999 -1.9571  0.0415
  729MOL0     H96204   8.840   6.894   5.407  0.2533 -0.9638  0.4564
  729MOL0     H96205   8.935   6.976   5.525  1.5198 -1.9797  0.7310
  729MOL0     H96206   9.033   6.896   5.278  2.0606  1.0849 -2.8193
  729MOL0     H96207   9.002   7.076   5.267 -0.8130 -0.8808  0.1449
  729MOL0     H96208   9.235   7.029   5.329 -0.7497  1.4726 -2.6374
  729MOL0     H96209   9.172   6.972   5.485 -1.7271 -0.5129 -1.1414
  729MOL0     H96210   8.265   7.248   5.851  1.5724  0.3623 -2.3008
  729MOL0     H96211   8.259   7.203   6.098 -0.2898  0.9982 -0.8597
  729MOL0     H96212   8.431   7.020   6.433 -0.4657 -0.3629  1.0935
  729MOL0     H96213   8.441   6.964   6.678 -1.7770 -0.9599  1.1787
  729MOL0     H96214   9.877   6.384   6.561 -0.0501 -1.8880 -1.2196
  729MOL0     H96215   9.910   6.165   6.461 -0.0532  3.6130 -0.4372
  729MOL0     H96216   9.941   5.648   6.659  0.8830  2.3063  0.9573
  729MOL0     H96217   9.973   5.424   6.545 -2.7924 -1.6313  0.6479
  729MOL0     H96218   9.709   5.348   6.172 -1.9320 -2.3816 -1.0938
  729MOL0     H96219   9.622   5.314   6.315  1.4662 -2.6400  3.4691
  729MOL0     H96220   9.735   5.087   6.330  2.0070  2.0109  1.2654
  729MOL0     H96221   9.656   5.109   6.169 -1.1719  2.9280  0.4002
  729MOL0     H96222   9.946   5.152   6.241  1.3027 -0.8807  0.4790
  729MOL0     H96223   9.885   5.187   6.085  1.7982  1.8156  1.8041
  729MOL0     H96224   9.835   4.899   6.164  0.0456  0.4693 -0.8081
  729MOL0     H96225   9.878   4.977   6.019  1.4241  3.4464  0.8378
  729MOL0     H96226  10.249   4.892   6.224  1.0453 -2.3741 -2.6545
  729MOL0     H96227   9.720   5.567   6.226  1.2539 -1.8058 -1.3184
  729MOL0     H96228   9.753   5.800   6.317  2.8063 -0.3655 -2.3527
  730MOL0     O96229   6.350   5.812   6.159  0.1612 -0.0904 -1.2586
  730MOL0     C96230   6.303   5.775   6.272  0.2805  0.3605  0.4626
  730MOL0     O96231   6.166   5.753   6.301 -0.4931  0.4519  0.3636
  730MOL0     C96232   6.078   5.789   6.199 -0.5341  0.4686 -0.0925
  730MOL0     C96233   6.095   5.898   6.104  0.5051 -0.6977  0.8064
  730MOL0     C96234   5.986   5.928   6.020 -0.2895 -0.2731  0.5746
  730MOL0     C96235   5.865   5.852   6.019 -0.0237  0.2445 -0.0343
  730MOL0     O96236   5.757   5.885   5.943 -0.0336 -0.2970  0.2659
  730MOL0     C96237   5.769   5.943   5.804  0.0671  0.6997 -0.7092
  730MOL0     C96238   5.633   5.920   5.733  0.5213  0.5346  1.1365
  730MOL0     C96239   5.599   6.009   5.610  0.0560 -0.7655  0.2708
  730MOL0     C96240   5.472   5.972   5.539  0.1435  0.1334 -0.4840
  730MOL0     C96241   5.424   6.076   5.437 -1.0100 -0.4414  0.0885
  730MOL0     C96242   5.294   6.034   5.394  1.0012 -0.0171 -0.0409
  730MOL0     C96243   5.284   6.095   5.259  0.3541  0.2085 -0.7116
  730MOL0     C96244   5.137   6.108   5.234 -0.1035  0.4425  0.0689
  730MOL0     N96245   5.123   6.138   5.090  0.6120  0.5770  0.1600
  730MOL0     C96246   5.103   6.254   5.021  0.6242 -0.7197 -0.2069
  730MOL0     C96247   5.095   6.210   4.893 -0.7382 -0.7529 -0.3690
  730MOL0     C96248   5.077   6.302   4.775 -0.0125 -0.4742 -0.2287
  730MOL0     C96249   4.928   6.298   4.733  0.1440  0.4153  0.3461
  730MOL0     C96250   4.905   6.342   4.589 -0.2283 -0.3451 -0.1990
  730MOL0     C96251   4.914   6.222   4.486 -0.2673 -0.8360  0.1449
  730MOL0     O96252   4.812   6.129   4.514 -0.0658 -0.2535 -0.1782
  730MOL0     C96253   4.824   6.005   4.455  0.7741  0.1240  0.5177
  730MOL0     C96254   4.758   5.892   4.498 -0.0932 -0.6476 -1.3143
  730MOL0     C96255   4.767   5.779   4.421 -0.6088 -0.4119 -0.4646
  730MOL0     C96256   4.825   5.765   4.306  0.1513 -0.4386 -0.2366
  730MOL0     C96257   4.839   5.636   4.234  1.2250 -0.5328 -0.2491
  730MOL0     O96258   4.774   5.524   4.280 -0.0965  0.2006  0.9534
  730MOL0     C96259   4.763   5.411   4.197  0.3562 -0.7091 -0.1191
  730MOL0     C96260   4.808   5.285   4.247  0.5193  0.1453  0.0328
  730MOL0     C96261   4.794   5.166   4.165 -0.5749 -0.4694  0.2275
  730MOL0     C96262   4.731   5.175   4.033  0.6694  0.4711 -1.1549
  730MOL0     O96263   4.723   5.077   3.945 -0.1030  0.1558 -0.3941
  730MOL0     C96264   4.785   4.948   3.955 -0.3144  0.0950 -0.4994
  730MOL0     C96265   4.794   4.878   3.820 -0.1818  0.3835 -0.5116
  730MOL0     C96266   4.893   4.941   3.723 -0.6209 -0.2004  0.0087
  730MOL0     C96267   4.881   4.873   3.584  0.2103  0.1718 -0.3878
  730MOL0     C96268   4.751   4.859   3.499 -0.8229 -0.4051  0.0171
  730MOL0     C96269   4.729   4.946   3.383 -0.0601  0.0926 -0.2668
  730MOL0     C96270   4.597   4.942   3.302  0.7932 -0.1640  1.3168
  730MOL0     C96271   4.577   4.827   3.201  0.1401 -0.5207  0.4860
  730MOL0    Cl96272   4.727   4.798   3.109 -0.0890 -0.0932  0.3141
  730MOL0     C96273   4.688   5.304   4.000 -0.1201  0.3154 -0.6258
  730MOL0     C96274   4.703   5.414   4.074 -0.2952 -0.9416  0.0059
  730MOL0     O96275   4.874   5.648   4.123  0.1665  0.0561  0.1234
  730MOL0     C96276   4.885   5.883   4.246 -0.6675 -0.2233 -0.2953
  730MOL0     C96277   4.886   6.000   4.328  0.6589  0.2852  0.3468
  730MOL0     N96278   5.102   6.069   4.884  0.1225 -0.3281  0.1393
  730MOL0     N96279   5.122   6.032   5.003  0.0767  0.6468 -0.8847
  730MOL0     C96280   5.850   5.760   6.122  0.5509 -0.5278  0.2370
  730MOL0     C96281   5.952   5.727   6.212  0.0387  0.0733  0.4866
  730MOL0     C96282   6.394   5.718   6.366 -0.1902  1.1472  0.7415
  730MOL0     C96283   6.359   5.684   6.498  0.4984  0.0686 -0.3768
  730MOL0     C96284   6.460   5.650   6.593  0.3114  0.3833 -0.3020
  730MOL0     C96285   6.585   5.617   6.550 -0.9673 -0.2122  0.0174
  730MOL0     O96286   6.701   5.591   6.628  0.1648 -0.9976 -1.0312
  730MOL0     C96287   6.683   5.514   6.747 -0.2882  0.5427 -0.2017
  730MOL0     C96288   6.731   5.594   6.865  0.1720 -0.6289 -0.1736
  730MOL0     C96289   6.661   5.566   6.995  0.0065 -0.2251  0.1381
  730MOL0     C96290   6.713   5.448   7.069  0.3518 -0.4001  0.5398
  730MOL0     C96291   6.641   5.448   7.204 -0.1575  0.1020 -0.4841
  730MOL0     C96292   6.573   5.459   7.310 -0.3159  0.2623  0.2760
  730MOL0     C96293   6.615   5.641   6.414 -0.5562  0.2389  0.5205
  730MOL0     C96294   6.527   5.700   6.326  0.5816  0.1540 -0.1395
  730MOL0     H96295   6.177   5.969   6.105  0.3332 -0.4429 -0.7567
  730MOL0     H96296   5.983   6.008   5.947 -2.3524 -1.2591 -0.4973
  730MOL0     H96297   5.848   5.894   5.747 -2.1519 -4.7483  0.3068
  730MOL0     H96298   5.774   6.052   5.808 -2.8516  0.8765  0.6096
  730MOL0     H96299   5.556   5.942   5.807  1.7464  1.4618  2.1847
  730MOL0     H96300   5.623   5.816   5.700 -3.0470  1.0877  0.0020
  730MOL0     H96301   5.679   6.001   5.535  1.2554  1.9307  1.1645
  730MOL0     H96302   5.605   6.113   5.642  1.1355 -0.5674 -0.4935
  730MOL0     H96303   5.475   5.878   5.483 -2.7972  0.9081 -2.1462
  730MOL0     H96304   5.399   5.975   5.621  2.0009  1.6619  1.2262
  730MOL0     H96305   5.496   6.076   5.354  0.2080 -2.8320  1.0276
  730MOL0     H96306   5.412   6.174   5.483  2.3621 -0.5989  1.5743
  730MOL0     H96307   5.220   6.073   5.464 -0.3221 -0.9578 -0.8688
  730MOL0     H96308   5.289   5.925   5.388 -0.7067  0.0729 -0.7768
  730MOL0     H96309   5.332   6.193   5.260  0.5989  0.1091  1.6428
  730MOL0     H96310   5.340   6.040   5.182  5.6470  4.3513 -0.4178
  730MOL0     H96311   5.092   6.182   5.301 -0.0361 -1.5594  2.4555
  730MOL0     H96312   5.086   6.014   5.256 -3.3046  2.0710  0.1737
  730MOL0     H96313   5.096   6.355   5.058  0.7627 -1.2501  1.3591
  730MOL0     H96314   5.133   6.255   4.693  0.8344 -1.1209  0.6836
  730MOL0     H96315   5.106   6.402   4.807 -0.5769 -0.2753 -0.3374
  730MOL0     H96316   4.863   6.346   4.807  0.0693  0.2547  0.3854
  730MOL0     H96317   4.899   6.192   4.735  1.5505  0.0181  1.9467
  730MOL0     H96318   4.805   6.387   4.583 -1.1371 -2.1751  0.3939
  730MOL0     H96319   4.981   6.419   4.575 -1.6153  1.2821  0.9299
  730MOL0     H96320   5.015   6.179   4.490  2.9618  5.4946  1.4763
  730MOL0     H96321   4.889   6.270   4.391 -0.9160  3.3187  2.1733
  730MOL0     H96322   4.715   5.899   4.597  1.8220 -4.1004 -0.0566
  730MOL0     H96323   4.718   5.692   4.463  4.0654 -3.0153  0.2069
  730MOL0     H96324   4.843   5.275   4.349 -1.1967  1.8174  0.8486
  730MOL0     H96325   4.838   5.071   4.190 -0.6023 -0.6507 -0.3927
  730MOL0     H96326   4.725   4.887   4.023  1.6434 -2.2768 -0.7826
  730MOL0     H96327   4.883   4.963   4.001 -0.6305  3.8588 -0.7469
  730MOL0     H96328   4.690   4.877   3.786 -1.8658  1.6353  3.8790
  730MOL0     H96329   4.828   4.777   3.843  1.3071  0.9294 -0.1860
  730MOL0     H96330   4.991   4.934   3.770 -1.0133 -1.1233  0.7350
  730MOL0     H96331   4.880   5.046   3.696 -0.0275  0.2487  1.3639
  730MOL0     H96332   4.954   4.924   3.520  0.0299  1.5385  0.4523
  730MOL0     H96333   4.917   4.771   3.599  0.9212  0.4308 -0.2715
  730MOL0     H96334   4.665   4.872   3.566 -3.9316  1.0063 -3.8537
  730MOL0     H96335   4.747   4.755   3.465 -1.2496 -0.5921  0.6079
  730MOL0     H96336   4.818   4.959   3.321  0.1417  1.2082  0.2328
  730MOL0     H96337   4.717   5.043   3.431 -0.3731 -0.0107 -0.1332
  730MOL0     H96338   4.512   4.936   3.371 -0.2823  2.0361  0.2885
  730MOL0     H96339   4.597   5.032   3.240 -0.3812 -2.3953 -2.1748
  730MOL0     H96340   4.496   4.846   3.130  2.5578  1.7278 -1.9074
  730MOL0     H96341   4.565   4.737   3.261 -0.3510 -0.8592 -0.1073
  730MOL0     H96342   4.632   5.307   3.907  1.2243 -2.6666 -1.6605
  730MOL0     H96343   4.668   5.508   4.032  1.7001  0.0111  0.3514
  730MOL0     H96344   4.937   5.885   4.151  0.0929 -1.4166  0.0648
  730MOL0     H96345   4.920   6.087   4.273 -2.2840  1.4210  0.1779
  730MOL0     H96346   5.758   5.704   6.139 -0.4638  0.5004 -1.5357
  730MOL0     H96347   5.942   5.658   6.295 -0.3315 -0.6139 -0.1163
  730MOL0     H96348   6.257   5.698   6.533  0.6209 -2.0405  1.0337
  730MOL0     H96349   6.424   5.649   6.696  0.9858 -1.3615 -0.0398
  730MOL0     H96350   6.737   5.419   6.735 -1.1745 -0.4132  2.4458
  730MOL0     H96351   6.583   5.481   6.777  0.2033  0.6290  1.7042
  730MOL0     H96352   6.835   5.567   6.883  0.1211 -0.6364  0.1132
  730MOL0     H96353   6.731   5.702   6.849  1.7699 -0.6872 -0.6625
  730MOL0     H96354   6.555   5.547   6.979  0.1513 -0.4164 -0.6641
  730MOL0     H96355   6.670   5.654   7.060  2.6076  1.9357 -2.8463
  730MOL0     H96356   6.676   5.361   7.015 -2.1666  1.5045 -1.0418
  730MOL0     H96357   6.822   5.451   7.072  0.4392 -1.6510 -0.8989
  730MOL0     H96358   6.535   5.459   7.410  0.1811 -1.9347  0.5146
  730MOL0     H96359   6.712   5.616   6.372 -2.1657 -2.7235 -1.8265
  730MOL0     H96360   6.571   5.720   6.229  2.9453 -1.6457  0.4776
  731MOL0     O96361   0.288   2.821   1.554 -1.2370 -0.1731  0.3302
  731MOL0     C96362   0.305   2.778   1.670  0.4421  0.5944 -0.1501
  731MOL0     O96363   0.213   2.731   1.755 -0.6445 -0.1160 -0.1956
  731MOL0     C96364   0.079   2.735   1.725 -0.2768  0.4244  0.7929
  731MOL0     C96365   0.018   2.829   1.642 -0.1358 -0.8132 -0.3240
  731MOL0     C96366  -0.118   2.830   1.604 -0.0812  0.9023  0.7515
  731MOL0     C96367  -0.195   2.729   1.659 -0.2150  0.0499 -0.6529
  731MOL0     O96368  -0.328   2.729   1.617  0.1505  0.0102 -0.4498
  731MOL0     C96369  -0.403   2.611   1.648  0.4507 -0.0757  0.3562
  731MOL0     C96370  -0.539   2.625   1.592 -0.7073  0.2524  0.9670
  731MOL0     C96371  -0.615   2.493   1.612 -0.2475 -0.8535 -0.8385
  731MOL0     C96372  -0.733   2.480   1.517  0.1168 -0.4719 -0.1411
  731MOL0     C96373  -0.807   2.351   1.549 -0.6382  0.1811 -1.1770
  731MOL0     C96374  -0.935   2.343   1.465  0.1842  0.9551  0.1238
  731MOL0     C96375  -1.045   2.249   1.508  0.9716  0.6393 -0.4857
  731MOL0     C96376  -1.165   2.243   1.413  0.4961 -0.6596  0.8441
  731MOL0     N96377  -1.181   2.118   1.344  0.0743 -0.6626 -0.1170
  731MOL0     C96378  -1.263   2.011   1.396 -0.1252 -0.9977  0.3836
  731MOL0     C96379  -1.277   1.934   1.286 -0.2524 -0.5049  1.1974
  731MOL0     C96380  -1.347   1.797   1.289  0.1221 -0.3807 -0.6315
  731MOL0     C96381  -1.492   1.806   1.257  0.1315  0.7367  0.3711
  731MOL0     C96382  -1.543   1.683   1.176  0.1879 -0.1230 -0.3235
  731MOL0     C96383  -1.689   1.673   1.194 -0.8296  0.3049  1.4528
  731MOL0     O96384  -1.724   1.628   1.322 -0.2781  1.1393 -0.3674
  731MOL0     C96385  -1.853   1.585   1.346 -0.1073 -0.5338 -0.0335
  731MOL0     C96386  -1.946   1.573   1.240 -1.1385  0.1479  0.4667
  731MOL0     C96387  -2.073   1.524   1.285 -0.4548  0.2580  0.1841
  731MOL0     C96388  -2.106   1.503   1.417  0.7644 -0.3015  0.9435
  731MOL0     C96389  -2.244   1.459   1.463  0.0083  0.0205  0.8213
  731MOL0     O96390  -2.275   1.432   1.591  0.1328 -0.3914 -0.4276
  731MOL0     C96391  -2.407   1.438   1.640 -0.2892 -0.4878  1.1651
  731MOL0     C96392  -2.451   1.558   1.700 -0.5071  1.1465  0.1634
  731MOL0     C96393  -2.586   1.573   1.724 -0.2625  0.5717  0.4765
  731MOL0     C96394  -2.678   1.472   1.699  0.5648  0.1617  0.0846
  731MOL0     O96395  -2.805   1.501   1.743 -1.1694  0.4936 -0.8354
  731MOL0     C96396  -2.893   1.481   1.633  0.3189 -0.4536  0.1985
  731MOL0     C96397  -3.034   1.545   1.652  0.0508  0.1877 -0.0479
  731MOL0     C96398  -3.125   1.462   1.759  0.5106 -0.0107  0.7591
  731MOL0     C96399  -3.277   1.495   1.757 -0.6390  0.2858 -0.3187
  731MOL0     C96400  -3.345   1.386   1.840 -0.6882  0.3463 -0.5426
  731MOL0     C96401  -3.485   1.355   1.795  0.1628 -0.2787 -0.4094
  731MOL0     C96402  -3.498   1.243   1.691  1.1346 -0.4195 -0.1626
  731MOL0     C96403  -3.588   1.270   1.573  0.3577 -0.1642  0.4431
  731MOL0    Cl96404  -3.740   1.370   1.618  0.4832 -0.9440 -0.0034
  731MOL0     C96405  -2.632   1.349   1.641  0.2085 -0.0244 -0.8641
  731MOL0     C96406  -2.495   1.328   1.612 -0.0224 -0.3998 -0.0290
  731MOL0     O96407  -2.325   1.459   1.370  0.3965  0.3125 -0.0329
  731MOL0     C96408  -2.011   1.533   1.515  1.5826 -0.8229 -0.1954
  731MOL0     C96409  -1.881   1.567   1.481  1.0158 -0.3499 -0.3533
  731MOL0     N96410  -1.217   1.989   1.173 -0.1738 -0.2687 -0.1079
  731MOL0     N96411  -1.152   2.092   1.215  0.0353 -0.3131 -0.5323
  731MOL0     C96412  -0.128   2.637   1.746 -0.6325  0.4273 -0.1303
  731MOL0     C96413   0.002   2.634   1.777  0.1242 -0.2990 -0.8359
  731MOL0     C96414   0.443   2.764   1.709 -1.1840 -0.1301 -0.3768
  731MOL0     C96415   0.482   2.722   1.838 -0.4271 -0.6394  0.1971
  731MOL0     C96416   0.614   2.743   1.887 -1.3216  1.3663  0.3401
  731MOL0     C96417   0.714   2.779   1.793  0.3287 -0.5781 -0.1181
  731MOL0     O96418   0.848   2.797   1.828  0.7541  0.5076 -0.1560
  731MOL0     C96419   0.879   2.897   1.929  0.1923  0.0815 -0.3866
  731MOL0     C96420   1.024   2.887   1.969 -1.0616 -0.4067 -1.0861
  731MOL0     C96421   1.048   2.987   2.083 -0.2202  0.7770 -1.0069
  731MOL0     C96422   1.016   2.926   2.218  0.2508  0.5823 -0.4902
  731MOL0     C96423   0.874   2.946   2.253 -0.0370  0.3719 -0.1729
  731MOL0     C96424   0.758   2.962   2.278  0.3864 -0.6265 -0.3817
  731MOL0     C96425   0.679   2.801   1.659 -0.4119  0.1265 -0.1167
  731MOL0     C96426   0.548   2.793   1.618  0.2864  0.1321 -0.4244
  731MOL0     H96427   0.079   2.912   1.607 -1.9481  0.0925 -1.4639
  731MOL0     H96428  -0.155   2.893   1.523 -0.7381  1.1705  1.2481
  731MOL0     H96429  -0.424   2.613   1.755  0.0248 -1.0167  0.2973
  731MOL0     H96430  -0.351   2.523   1.609  1.9707  0.8360  0.2385
  731MOL0     H96431  -0.534   2.645   1.485 -0.5075 -3.1698  0.2423
  731MOL0     H96432  -0.604   2.699   1.639  1.4734 -0.5626  5.8793
  731MOL0     H96433  -0.639   2.499   1.719  5.0200 -0.0725  0.5761
  731MOL0     H96434  -0.548   2.407   1.604 -0.7478 -1.1509 -2.0454
  731MOL0     H96435  -0.801   2.564   1.535  0.8891  0.4377 -1.3364
  731MOL0     H96436  -0.709   2.486   1.410  0.5369  1.7587  0.0393
  731MOL0     H96437  -0.833   2.352   1.655 -0.9929  0.5036 -1.2661
  731MOL0     H96438  -0.742   2.266   1.527  0.2466  0.9959 -1.8234
  731MOL0     H96439  -0.902   2.321   1.363 -0.5437  0.0476  0.0725
  731MOL0     H96440  -0.984   2.441   1.469 -2.1305 -0.1189 -0.4654
  731MOL0     H96441  -1.010   2.145   1.509 -0.0729  0.2666 -0.7771
  731MOL0     H96442  -1.079   2.286   1.605  1.8325 -0.2546  0.1848
  731MOL0     H96443  -1.150   2.316   1.333  0.6765  0.1497  1.5984
  731MOL0     H96444  -1.259   2.279   1.457  0.6394  0.1881  0.4808
  731MOL0     H96445  -1.299   1.998   1.498  1.1519  1.3907  1.2155
  731MOL0     H96446  -1.326   1.759   1.390  0.1507  1.8553  0.2451
  731MOL0     H96447  -1.284   1.739   1.220 -1.0981  0.1919 -2.2650
  731MOL0     H96448  -1.508   1.901   1.205 -2.3542  0.7247  0.9762
  731MOL0     H96449  -1.530   1.808   1.359  1.3667 -4.3746  1.2085
  731MOL0     H96450  -1.512   1.688   1.072  2.4967  0.7671  0.3512
  731MOL0     H96451  -1.510   1.593   1.228 -0.6537 -0.7477 -0.8377
  731MOL0     H96452  -1.718   1.610   1.109 -1.1668  1.5972  0.5729
  731MOL0     H96453  -1.732   1.772   1.178  1.4158  1.1490  0.2016
  731MOL0     H96454  -1.930   1.577   1.133 -0.7061  0.9557  0.5540
  731MOL0     H96455  -2.138   1.505   1.200 -1.4948 -0.6047  1.1540
  731MOL0     H96456  -2.389   1.644   1.722  2.1240 -0.2942 -1.2503
  731MOL0     H96457  -2.617   1.667   1.770  0.8662  1.6316 -0.8325
  731MOL0     H96458  -2.913   1.375   1.613 -0.0587 -0.1416 -1.1100
  731MOL0     H96459  -2.859   1.521   1.537 -2.5787  0.4283 -0.5464
  731MOL0     H96460  -3.080   1.538   1.553  0.0653 -0.5498 -0.0057
  731MOL0     H96461  -3.035   1.650   1.682 -3.5034  0.7723 -1.6577
  731MOL0     H96462  -3.090   1.471   1.862  0.7347 -1.5737  0.8457
  731MOL0     H96463  -3.109   1.359   1.725  4.5384  1.4023 -2.3852
  731MOL0     H96464  -3.292   1.598   1.793 -0.1999  0.6578 -1.1724
  731MOL0     H96465  -3.296   1.490   1.650 -0.2122  1.5117 -0.4700
  731MOL0     H96466  -3.330   1.426   1.940 -0.1155 -2.0731  0.4240
  731MOL0     H96467  -3.283   1.296   1.833  0.4261  1.0880 -0.3948
  731MOL0     H96468  -3.529   1.445   1.752 -3.5522 -2.3235 -1.2776
  731MOL0     H96469  -3.547   1.338   1.883 -1.1913  0.8613 -1.1112
  731MOL0     H96470  -3.400   1.202   1.665  1.7698 -1.0452  2.8236
  731MOL0     H96471  -3.545   1.158   1.740  1.1036 -0.8721 -0.9623
  731MOL0     H96472  -3.606   1.171   1.530  3.3007 -0.7768  0.4206
  731MOL0     H96473  -3.531   1.333   1.504 -1.5846  2.8311  1.3735
  731MOL0     H96474  -2.702   1.268   1.624 -1.0975  1.0958 -0.9804
  731MOL0     H96475  -2.462   1.236   1.565 -2.2498  0.0508 -2.7755
  731MOL0     H96476  -2.044   1.530   1.619  0.1016 -0.5505 -0.6459
  731MOL0     H96477  -1.807   1.591   1.557 -0.4428  3.9391 -0.0028
  731MOL0     H96478  -0.184   2.557   1.794  2.3122 -1.5813  0.2894
  731MOL0     H96479   0.053   2.564   1.842  0.5113  3.5770  3.4985
  731MOL0     H96480   0.405   2.685   1.904 -1.7394  2.4555  0.5523
  731MOL0     H96481   0.621   2.726   1.994  3.5724 -0.4255 -0.0109
  731MOL0     H96482   0.807   2.890   2.011  0.0586  1.9661 -0.2993
  731MOL0     H96483   0.865   2.999   1.891  0.8742  0.8954  1.4298
  731MOL0     H96484   1.070   2.791   1.992 -0.4744 -0.1792 -1.2941
  731MOL0     H96485   1.081   2.922   1.883  3.5087  1.8080  2.4269
  731MOL0     H96486   0.986   3.077   2.075 -2.1412 -0.3922 -0.1012
  731MOL0     H96487   1.154   3.015   2.088 -0.1396  0.1995  1.5326
  731MOL0     H96488   1.037   2.819   2.227 -0.4325  0.5984  2.2229
  731MOL0     H96489   1.078   2.977   2.292 -1.4137  0.5208  1.0034
  731MOL0     H96490   0.656   2.986   2.299  0.0791  2.7242 -4.3574
  731MOL0     H96491   0.749   2.844   1.589 -0.1834  0.6722  0.4322
  731MOL0     H96492   0.533   2.812   1.512  2.8435 -2.6675 -1.4239
  732MOL0     O96493   0.222   8.677  10.968  0.1946 -0.1876  0.3112
  732MOL0     C96494   0.253   8.638  11.081  0.7131  0.8807 -0.2273
  732MOL0     O96495   0.162   8.588  11.170 -1.2562  0.1213  0.7489
  732MOL0     C96496   0.040   8.538  11.120 -0.5378  0.8306 -0.2819
  732MOL0     C96497   0.033   8.435  11.021 -0.8833 -0.6578 -0.8786
  732MOL0     C96498  -0.092   8.387  10.979 -0.9126  0.1117  0.0865
  732MOL0     C96499  -0.207   8.432  11.039 -0.3267 -0.8602  0.1183
  732MOL0     O96500  -0.332   8.378  11.031  0.5529 -0.4454  0.7397
  732MOL0     C96501  -0.334   8.236  10.986  0.2150  0.2544  0.8275
  732MOL0     C96502  -0.367   8.234  10.831  0.2895 -0.6717  0.3331
  732MOL0     C96503  -0.452   8.113  10.775 -0.3141  0.6236  0.1353
  732MOL0     C96504  -0.546   8.150  10.659  0.6778  0.2608 -0.0622
  732MOL0     C96505  -0.670   8.225  10.728  0.5277  0.3064  0.1555
  732MOL0     C96506  -0.738   8.315  10.627 -0.6650 -0.3956 -0.2965
  732MOL0     C96507  -0.842   8.396  10.699  0.4700 -0.0901 -0.6145
  732MOL0     C96508  -0.940   8.469  10.605  0.6050 -0.4188 -0.4408
  732MOL0     N96509  -1.057   8.384  10.575  0.3556  0.0175  0.2992
  732MOL0     C96510  -1.161   8.368  10.657  0.4262  0.4113 -0.3468
  732MOL0     C96511  -1.222   8.264  10.586 -0.3485  0.1748 -0.2661
  732MOL0     C96512  -1.339   8.183  10.628 -0.3106  0.1282 -0.2966
  732MOL0     C96513  -1.446   8.169  10.519  0.0398 -0.7671 -0.6245
  732MOL0     C96514  -1.572   8.103  10.567 -0.5170 -0.0141 -0.0199
  732MOL0     C96515  -1.664   8.058  10.457  0.9867  0.5190 -1.0627
  732MOL0     O96516  -1.804   8.024  10.502 -0.2542  0.1267 -0.2775
  732MOL0     C96517  -1.899   8.017  10.401  0.1791 -0.3397 -0.2782
  732MOL0     C96518  -1.965   7.898  10.376  0.1954 -0.0391  0.3818
  732MOL0     C96519  -2.055   7.900  10.271 -0.9122  0.3418  0.9103
  732MOL0     C96520  -2.079   8.010  10.189  0.4716  0.0969  0.2108
  732MOL0     C96521  -2.173   8.020  10.080 -0.4676 -0.3638 -0.6664
  732MOL0     O96522  -2.181   8.133   9.996 -0.5551  0.5328 -1.1163
  732MOL0     C96523  -2.286   8.125   9.915  0.2370 -0.1207 -0.9093
  732MOL0     C96524  -2.417   8.130   9.973 -1.1380 -0.6189 -0.6555
  732MOL0     C96525  -2.522   8.126   9.874 -0.2854  0.1256 -0.4764
  732MOL0     C96526  -2.502   8.127   9.737  0.3047  0.9272  0.7470
  732MOL0     O96527  -2.616   8.123   9.656  0.2770 -0.4183 -0.2241
  732MOL0     C96528  -2.592   8.108   9.512  0.3448  0.3833  1.2036
  732MOL0     C96529  -2.721   8.094   9.438 -0.1406  0.4227  0.9555
  732MOL0     C96530  -2.774   7.954   9.462 -0.0987 -0.3564  1.4780
  732MOL0     C96531  -2.891   7.910   9.367 -0.2048  0.3196  0.5820
  732MOL0     C96532  -2.918   7.757   9.373  0.1669 -0.6913 -0.3885
  732MOL0     C96533  -2.828   7.674   9.290  0.0084 -0.3131  0.6708
  732MOL0     C96534  -2.872   7.532   9.301 -0.7254  0.5501 -1.1960
  732MOL0     C96535  -2.768   7.433   9.251 -0.1188  0.3576 -0.0200
  732MOL0    Cl96536  -2.637   7.431   9.369 -0.7433  0.0053 -0.0868
  732MOL0     C96537  -2.369   8.138   9.693  0.4933 -0.6178 -0.1433
  732MOL0     C96538  -2.266   8.135   9.776 -1.0143  0.4665 -1.4184
  732MOL0     O96539  -2.247   7.923  10.078  0.0106 -0.9295  0.0001
  732MOL0     C96540  -2.018   8.134  10.227  0.7691 -0.1008 -0.0442
  732MOL0     C96541  -1.927   8.136  10.335  0.4368  0.6117  0.8887
  732MOL0     N96542  -1.155   8.237  10.469  0.0480 -0.3864 -0.5997
  732MOL0     N96543  -1.048   8.305  10.474  0.0904  0.6467  0.7706
  732MOL0     C96544  -0.206   8.534  11.130 -0.0040  0.2421 -0.1768
  732MOL0     C96545  -0.081   8.582  11.181  0.4298  0.7324  0.5375
  732MOL0     C96546   0.391   8.655  11.114  0.2946  0.5328  0.3747
  732MOL0     C96547   0.435   8.627  11.246  0.1215 -0.0048  0.1439
  732MOL0     C96548   0.578   8.613  11.262  0.4847  0.0841  0.5722
  732MOL0     C96549   0.673   8.656  11.167  0.8297 -1.3085 -0.5897
  732MOL0     O96550   0.814   8.655  11.175  0.0306 -0.2076 -0.0339
  732MOL0     C96551   0.864   8.611  11.299 -0.1086 -0.0979 -0.2681
  732MOL0     C96552   1.010   8.629  11.288  0.6212  0.6018  0.1143
  732MOL0     C96553   1.088   8.592  11.411  0.3451 -0.0474  0.8340
  732MOL0     C96554   1.144   8.453  11.407  0.3188 -0.4546 -0.5523
  732MOL0     C96555   1.234   8.425  11.520  0.3924  0.2881  0.6103
  732MOL0     C96556   1.298   8.377  11.612  0.0309 -0.3281 -0.3484
  732MOL0     C96557   0.625   8.712  11.045  1.1476 -1.0967 -0.4553
  732MOL0     C96558   0.489   8.702  11.022 -0.4755 -1.0543 -0.0322
  732MOL0     H96559   0.128   8.407  10.976  1.1844  0.5119  2.4405
  732MOL0     H96560  -0.085   8.310  10.903 -0.3234  3.3813 -3.4793
  732MOL0     H96561  -0.412   8.183  11.041  0.5231  3.7297  5.2419
  732MOL0     H96562  -0.234   8.193  10.995  0.4061  0.0070 -1.6521
  732MOL0     H96563  -0.275   8.247  10.772  0.8061  1.1971  1.4445
  732MOL0     H96564  -0.423   8.327  10.818  0.9855 -0.0271  1.7499
  732MOL0     H96565  -0.504   8.052  10.849  1.6062 -2.5905 -0.9807
  732MOL0     H96566  -0.380   8.037  10.743 -0.9385  0.4017 -0.8120
  732MOL0     H96567  -0.506   8.208  10.575 -2.0633 -1.4470 -2.7891
  732MOL0     H96568  -0.583   8.063  10.603 -0.2935  1.0990 -0.7604
  732MOL0     H96569  -0.632   8.298  10.799 -0.9236 -1.4471  2.8969
  732MOL0     H96570  -0.736   8.153  10.777 -0.7068  0.3786 -1.3290
  732MOL0     H96571  -0.794   8.255  10.554  2.2013 -2.0849 -1.2782
  732MOL0     H96572  -0.675   8.387  10.574 -0.9642  0.5057  0.5350
  732MOL0     H96573  -0.907   8.328  10.755 -0.7114  1.5498  0.0840
  732MOL0     H96574  -0.794   8.467  10.767  0.6790 -1.3198  0.5667
  732MOL0     H96575  -0.886   8.509  10.518 -0.0227 -1.3745 -1.3027
  732MOL0     H96576  -0.979   8.562  10.647 -0.4441 -1.1852  0.3363
  732MOL0     H96577  -1.195   8.402  10.754  1.5153 -2.3255  1.1289
  732MOL0     H96578  -1.390   8.230  10.713  1.2423 -0.2931  0.8995
  732MOL0     H96579  -1.304   8.084  10.659  2.5651  0.3490 -2.4785
  732MOL0     H96580  -1.411   8.120  10.428 -0.9002  1.0738 -2.0309
  732MOL0     H96581  -1.474   8.272  10.496 -1.7930 -0.2169  3.1627
  732MOL0     H96582  -1.562   8.021  10.638  4.5685  0.7912  0.5779
  732MOL0     H96583  -1.633   8.173  10.623 -0.6095  0.9726 -1.3027
  732MOL0     H96584  -1.614   7.969  10.417  1.9363 -0.0430  1.1692
  732MOL0     H96585  -1.668   8.135  10.380 -1.6120  2.2337  0.6300
  732MOL0     H96586  -1.943   7.805  10.427 -2.9106 -0.7128  0.6981
  732MOL0     H96587  -2.113   7.809  10.253 -0.8474  0.3252  0.7811
  732MOL0     H96588  -2.434   8.139  10.079 -3.0541  5.6263 -1.0662
  732MOL0     H96589  -2.627   8.138   9.901  0.4207  1.8178  1.8462
  732MOL0     H96590  -2.525   8.023   9.506  0.6528  0.6978 -0.2670
  732MOL0     H96591  -2.533   8.189   9.467  2.3387 -2.3449 -1.4211
  732MOL0     H96592  -2.692   8.100   9.333 -1.7528 -1.9901  0.2949
  732MOL0     H96593  -2.794   8.166   9.477  1.9232  2.1813  1.8415
  732MOL0     H96594  -2.815   7.961   9.563  1.2498  0.1213  2.0089
  732MOL0     H96595  -2.689   7.885   9.462  1.1867  1.1582  0.6810
  732MOL0     H96596  -2.982   7.964   9.394 -0.7357 -0.3715  0.2273
  732MOL0     H96597  -2.867   7.934   9.263 -0.2950  0.7913  0.6717
  732MOL0     H96598  -3.026   7.741   9.362  0.0641 -0.3726  0.1067
  732MOL0     H96599  -2.891   7.743   9.478  2.6919  2.2294 -0.5165
  732MOL0     H96600  -2.729   7.674   9.336  0.4274 -2.7546 -0.1252
  732MOL0     H96601  -2.836   7.707   9.186 -1.1642  0.8012  1.0766
  732MOL0     H96602  -2.900   7.501   9.402 -1.1585 -0.0936 -1.5035
  732MOL0     H96603  -2.956   7.526   9.232  0.3167  2.1740 -2.7108
  732MOL0     H96604  -2.730   7.462   9.152  1.2726  2.8991  1.1701
  732MOL0     H96605  -2.812   7.333   9.249  2.2859 -0.7836 -1.7352
  732MOL0     H96606  -2.365   8.140   9.584 -0.8757 -0.3618 -0.2020
  732MOL0     H96607  -2.165   8.151   9.739 -1.2748 -0.4941 -2.6328
  732MOL0     H96608  -2.033   8.221  10.165 -2.6760 -1.7648 -1.8381
  732MOL0     H96609  -1.863   8.223  10.347  0.8576  0.9185 -2.6636
  732MOL0     H96610  -0.300   8.571  11.168 -0.1005  2.0735 -2.0438
  732MOL0     H96611  -0.090   8.662  11.253 -1.9597 -1.2747  2.6681
  732MOL0     H96612   0.369   8.588  11.323 -0.8671 -0.2005 -0.7742
  732MOL0     H96613   0.619   8.569  11.353  0.6704  1.7275  1.3142
  732MOL0     H96614   0.845   8.504  11.312  4.4749 -1.1187 -0.1665
  732MOL0     H96615   0.818   8.669  11.380 -1.6828  0.0780 -1.2421
  732MOL0     H96616   1.040   8.564  11.205  4.5704  0.6352  1.3320
  732MOL0     H96617   1.031   8.733  11.260  0.7165  0.0108 -2.1894
  732MOL0     H96618   1.022   8.597  11.498  1.7255  0.3986  1.8982
  732MOL0     H96619   1.173   8.660  11.417  0.7253 -0.3293 -0.8227
  732MOL0     H96620   1.073   8.370  11.418  1.2383 -1.1215  0.6492
  732MOL0     H96621   1.201   8.443  11.315  3.3938 -0.8945  1.2679
  732MOL0     H96622   1.367   8.325  11.676 -0.0971 -0.7734 -0.5640
  732MOL0     H96623   0.687   8.769  10.977 -0.9139  2.0332  0.0360
  732MOL0     H96624   0.464   8.745  10.925  1.3444  1.1974  0.4006
  733MOL0     O96625   6.764   1.239   4.410 -0.4478 -0.0192 -0.0408
  733MOL0     C96626   6.649   1.271   4.424  0.1761 -0.4220  0.0662
  733MOL0     O96627   6.564   1.307   4.326 -0.2416 -0.5679  0.7694
  733MOL0     C96628   6.618   1.317   4.197  0.4056 -0.7541 -0.3711
  733MOL0     C96629   6.700   1.428   4.154 -0.3766 -0.7626 -0.3955
  733MOL0     C96630   6.716   1.451   4.023  0.3818 -0.2479  0.3566
  733MOL0     C96631   6.666   1.353   3.927 -0.8210  0.1732  0.6304
  733MOL0     O96632   6.657   1.381   3.795  0.0082  0.2863 -0.2452
  733MOL0     C96633   6.764   1.461   3.738 -0.0513  0.0367 -0.0556
  733MOL0     C96634   6.765   1.409   3.601  0.1288  0.5205  1.1650
  733MOL0     C96635   6.847   1.274   3.588  0.7860 -0.0212 -0.7378
  733MOL0     C96636   6.912   1.248   3.445  0.5650 -0.1537  0.6561
  733MOL0     C96637   6.917   1.095   3.409  0.3308  0.0750 -0.4625
  733MOL0     C96638   6.793   1.045   3.347  0.1027 -0.1317  0.5112
  733MOL0     C96639   6.739   1.129   3.222 -0.2475  0.4042 -0.6010
  733MOL0     C96640   6.827   1.133   3.106 -0.3611  0.2407  0.0632
  733MOL0     N96641   6.763   1.195   2.991 -0.7190  0.0974  0.4802
  733MOL0     C96642   6.680   1.144   2.895  0.0358 -0.2938  1.0023
  733MOL0     C96643   6.636   1.246   2.822  0.0992  0.5773  0.7638
  733MOL0     C96644   6.554   1.248   2.701  0.0560  0.0018  0.4337
  733MOL0     C96645   6.417   1.301   2.731  0.3988 -0.0068  0.0684
  733MOL0     C96646   6.345   1.318   2.592 -0.4714  0.9976 -0.6071
  733MOL0     C96647   6.203   1.360   2.610  0.1405  0.8193  0.2842
  733MOL0     O96648   6.185   1.493   2.578 -0.8118  0.5826  0.5462
  733MOL0     C96649   6.059   1.549   2.605  0.3116 -0.1162 -0.2225
  733MOL0     C96650   6.039   1.684   2.584  0.3154  0.2480 -0.7726
  733MOL0     C96651   5.926   1.756   2.618  0.6237 -0.0100 -0.7453
  733MOL0     C96652   5.806   1.685   2.650  0.1736  1.2059 -0.0451
  733MOL0     C96653   5.677   1.751   2.667  0.1315 -0.4201 -0.1029
  733MOL0     O96654   5.660   1.878   2.610 -0.3396 -0.3698 -0.4544
  733MOL0     C96655   5.538   1.917   2.559  1.1217 -0.0013 -0.1324
  733MOL0     C96656   5.519   2.056   2.548  0.4459 -0.3003 -0.2061
  733MOL0     C96657   5.415   2.120   2.486  1.2816 -0.6352 -0.4576
  733MOL0     C96658   5.309   2.040   2.439 -0.3019  0.7074 -0.0498
  733MOL0     O96659   5.206   2.083   2.375  0.0914 -0.1155  0.5394
  733MOL0     C96660   5.216   2.199   2.286  0.0035  0.3684 -0.0576
  733MOL0     C96661   5.069   2.246   2.268 -0.0757  0.3269 -0.5406
  733MOL0     C96662   5.055   2.372   2.182  0.2438 -0.7747  0.7691
  733MOL0     C96663   4.904   2.402   2.167  0.1720 -0.7685  0.6539
  733MOL0     C96664   4.881   2.518   2.058  0.5567 -0.6269 -1.1124
  733MOL0     C96665   4.894   2.471   1.914  0.4946 -0.2715 -0.0483
  733MOL0     C96666   5.035   2.493   1.862  0.2840  0.0481  0.0304
  733MOL0     C96667   5.047   2.454   1.715 -1.1992 -0.8199  0.6182
  733MOL0    Cl96668   4.984   2.580   1.612  0.1533  0.2583  0.1321
  733MOL0     C96669   5.323   1.890   2.455  0.5031  0.1960 -0.0474
  733MOL0     C96670   5.440   1.835   2.508  0.2324  0.7867  0.4667
  733MOL0     O96671   5.591   1.691   2.729  0.5631 -0.2828 -0.4350
  733MOL0     C96672   5.828   1.548   2.690  0.8391 -0.0246 -0.0065
  733MOL0     C96673   5.950   1.483   2.667 -0.4298 -1.1754 -0.2002
  733MOL0     N96674   6.703   1.357   2.864  1.1355  0.0090 -0.3555
  733MOL0     N96675   6.768   1.328   2.979 -1.1490  0.2926 -0.2077
  733MOL0     C96676   6.584   1.245   3.969 -0.3258 -1.4708  0.0742
  733MOL0     C96677   6.555   1.230   4.106  0.0950 -0.1712 -0.1662
  733MOL0     C96678   6.592   1.271   4.561 -0.3421  0.2648  0.0289
  733MOL0     C96679   6.664   1.242   4.678  0.4343  0.2899  0.0695
  733MOL0     C96680   6.610   1.264   4.809 -0.1218 -0.3269  1.0850
  733MOL0     C96681   6.474   1.295   4.829  0.0760 -0.2543 -1.0085
  733MOL0     O96682   6.422   1.310   4.957 -0.8546 -0.2261 -0.1329
  733MOL0     C96683   6.299   1.240   4.985 -0.2923 -1.0471  0.7877
  733MOL0     C96684   6.242   1.250   5.136 -0.3780  0.4715  0.2138
  733MOL0     C96685   6.356   1.243   5.241 -1.2833 -0.1098  0.2865
  733MOL0     C96686   6.432   1.114   5.216  0.3428  0.3563 -0.0327
  733MOL0     C96687   6.516   1.075   5.328 -0.1740 -0.0754  0.4894
  733MOL0     C96688   6.585   1.057   5.427  0.7870  0.8731  0.1899
  733MOL0     C96689   6.394   1.315   4.714 -0.0227  0.0928 -1.0609
  733MOL0     C96690   6.451   1.303   4.586 -0.6027 -0.5362  0.1232
  733MOL0     H96691   6.734   1.505   4.222 -0.1170  0.4453 -1.8569
  733MOL0     H96692   6.776   1.533   3.985  0.5268 -0.6814 -0.3639
  733MOL0     H96693   6.864   1.437   3.776  0.2358  0.3123 -0.6336
  733MOL0     H96694   6.746   1.568   3.750 -1.4562 -0.2524  0.6123
  733MOL0     H96695   6.814   1.491   3.546  1.1607  0.3722  1.8367
  733MOL0     H96696   6.664   1.389   3.564  0.6308 -1.7123  0.8890
  733MOL0     H96697   6.787   1.188   3.620  0.4761  0.6068  0.4333
  733MOL0     H96698   6.926   1.280   3.663 -2.3690 -1.1567  3.0139
  733MOL0     H96699   6.854   1.299   3.368  0.3719 -1.2276  0.0715
  733MOL0     H96700   7.009   1.298   3.437  0.0111  0.6197 -2.7914
  733MOL0     H96701   6.931   1.038   3.502  1.1394  0.7437 -0.1660
  733MOL0     H96702   7.006   1.082   3.348 -0.1407  0.0292 -1.1471
  733MOL0     H96703   6.716   1.036   3.424  1.2847  0.6006  1.8290
  733MOL0     H96704   6.811   0.943   3.311 -2.1584  0.3753 -2.4916
  733MOL0     H96705   6.646   1.076   3.197 -1.5806  2.6131 -0.6169
  733MOL0     H96706   6.705   1.226   3.260  1.0878  0.1507  1.3361
  733MOL0     H96707   6.858   1.031   3.085  2.1900  0.9216  0.2222
  733MOL0     H96708   6.921   1.182   3.133 -0.0514 -0.8386  1.0085
  733MOL0     H96709   6.643   1.042   2.884 -1.7140  0.4494 -0.6483
  733MOL0     H96710   6.543   1.150   2.653  1.5925  0.4086 -0.8170
  733MOL0     H96711   6.597   1.324   2.635  1.3092 -0.1143  1.0973
  733MOL0     H96712   6.423   1.389   2.795 -0.0620 -0.9942  1.5250
  733MOL0     H96713   6.359   1.223   2.781 -0.2446 -1.4897 -2.7326
  733MOL0     H96714   6.401   1.384   2.525 -0.3176  0.2184 -1.2598
  733MOL0     H96715   6.344   1.220   2.544  2.0085  1.3157 -1.4425
  733MOL0     H96716   6.163   1.318   2.703 -1.4448 -0.0241 -0.7337
  733MOL0     H96717   6.150   1.300   2.536 -0.2225  1.1371  0.2825
  733MOL0     H96718   6.126   1.743   2.558  0.2124  1.0221  0.5517
  733MOL0     H96719   5.930   1.864   2.609 -0.8037 -0.0831 -2.9497
  733MOL0     H96720   5.598   2.122   2.584  1.6755 -2.8395  2.0917
  733MOL0     H96721   5.419   2.226   2.466  2.1464 -0.5321  0.1929
  733MOL0     H96722   5.260   2.180   2.188 -2.9136 -1.9022 -1.0923
  733MOL0     H96723   5.264   2.280   2.341 -3.7650  3.7220 -1.3057
  733MOL0     H96724   5.011   2.264   2.359 -1.9343 -1.8806 -1.1969
  733MOL0     H96725   5.013   2.169   2.214 -1.8107  1.0567  0.1802
  733MOL0     H96726   5.085   2.339   2.083  0.4659 -1.7019  1.1376
  733MOL0     H96727   5.117   2.460   2.202  1.7180 -1.4642 -0.6300
  733MOL0     H96728   4.850   2.311   2.137  0.5908 -0.2942 -1.8110
  733MOL0     H96729   4.859   2.448   2.255  0.0702 -0.0221  0.2230
  733MOL0     H96730   4.953   2.600   2.072  2.1461 -2.0870 -0.4317
  733MOL0     H96731   4.780   2.560   2.063  1.3867  1.4118 -0.5554
  733MOL0     H96732   4.823   2.530   1.855 -0.8628  0.8924  2.5712
  733MOL0     H96733   4.865   2.366   1.907 -4.1208  0.8787 -1.3115
  733MOL0     H96734   5.053   2.601   1.863  0.7182  0.0143 -1.6504
  733MOL0     H96735   5.109   2.441   1.923  0.7276  0.0978 -0.4539
  733MOL0     H96736   4.994   2.360   1.698 -1.5986 -0.7539  1.4504
  733MOL0     H96737   5.153   2.431   1.700 -1.2835 -1.7500  1.4225
  733MOL0     H96738   5.240   1.831   2.416  0.3123  0.9167 -0.8004
  733MOL0     H96739   5.448   1.728   2.522  2.2029  0.8921  0.3780
  733MOL0     H96740   5.743   1.500   2.737 -1.4072  3.1813 -0.4770
  733MOL0     H96741   5.965   1.386   2.713 -0.2863 -0.1548  2.0046
  733MOL0     H96742   6.528   1.180   3.903 -0.4796 -3.7980  2.3310
  733MOL0     H96743   6.477   1.156   4.119  0.1820 -0.3506 -0.6533
  733MOL0     H96744   6.772   1.233   4.672  0.5752 -2.1728  3.4669
  733MOL0     H96745   6.680   1.263   4.892 -0.0038  3.2369  1.1884
  733MOL0     H96746   6.326   1.134   4.971  3.4613 -0.1472  0.0339
  733MOL0     H96747   6.217   1.268   4.918  1.2972  0.9494 -0.4326
  733MOL0     H96748   6.198   1.349   5.152  1.2392  0.9552  2.1808
  733MOL0     H96749   6.172   1.169   5.159  0.3112 -0.8050 -1.9132
  733MOL0     H96750   6.312   1.227   5.340 -2.7171  0.7504 -0.1794
  733MOL0     H96751   6.413   1.336   5.246 -1.9334  0.2840  0.5758
  733MOL0     H96752   6.356   1.036   5.220  0.0886  0.3753 -2.8927
  733MOL0     H96753   6.489   1.106   5.123  2.7601  1.7010  1.2281
  733MOL0     H96754   6.641   1.047   5.518  1.0810  1.5138  0.0874
  733MOL0     H96755   6.288   1.329   4.732  0.3428 -0.5800  2.1985
  733MOL0     H96756   6.390   1.306   4.496  2.0980 -0.2325 -1.8565
  734MOL0     O96757  10.450   7.547   9.273  0.8582  0.1998  0.3611
  734MOL0     C96758  10.526   7.459   9.311  0.9618 -0.1320  0.5590
  734MOL0     O96759  10.503   7.331   9.290  0.1172  0.1802  0.5631
  734MOL0     C96760  10.381   7.291   9.245 -0.7160  0.5496  0.1410
  734MOL0     C96761  10.281   7.295   9.343  0.0818  0.2138  0.9333
  734MOL0     C96762  10.149   7.276   9.308  0.3211 -0.2910  0.5907
  734MOL0     C96763  10.119   7.230   9.181 -1.5705 -0.6138 -0.4065
  734MOL0     O96764   9.999   7.186   9.140 -1.3311  0.7463  0.6539
  734MOL0     C96765   9.880   7.242   9.193 -0.1159  0.0385 -0.1017
  734MOL0     C96766   9.765   7.203   9.101  0.2961  0.4007 -0.0202
  734MOL0     C96767   9.774   7.264   8.956  0.6296  0.6942 -0.3163
  734MOL0     C96768   9.646   7.223   8.869 -0.8345 -0.6202 -0.2755
  734MOL0     C96769   9.647   7.263   8.719 -0.0759  0.0822 -0.1023
  734MOL0     C96770   9.661   7.409   8.692  0.7841 -0.2919  0.7210
  734MOL0     C96771   9.636   7.438   8.541 -0.1041  0.2347 -0.1435
  734MOL0     C96772   9.625   7.582   8.496  0.5786  0.1532  0.6510
  734MOL0     N96773   9.604   7.593   8.345 -0.4767  0.0930  0.6454
  734MOL0     C96774   9.499   7.552   8.258 -0.4679  0.4469 -1.0887
  734MOL0     C96775   9.532   7.592   8.133  0.4583 -0.0036 -0.3686
  734MOL0     C96776   9.454   7.547   8.016 -0.9051  0.1183 -0.3575
  734MOL0     C96777   9.393   7.663   7.944  0.5297  0.7420  0.3965
  734MOL0     C96778   9.340   7.769   8.033 -0.2048 -0.5504 -0.2929
  734MOL0     C96779   9.278   7.898   7.964 -0.6519 -0.7031  0.0168
  734MOL0     O96780   9.150   7.873   7.886 -0.3432  0.0575 -0.4876
  734MOL0     C96781   9.060   7.973   7.858 -0.2445  0.2097  0.8867
  734MOL0     C96782   8.953   7.940   7.779  0.6632  0.1332 -0.1226
  734MOL0     C96783   8.852   8.033   7.745  0.6166  0.4619  0.4970
  734MOL0     C96784   8.870   8.167   7.787 -0.4479 -0.3696 -0.1887
  734MOL0     C96785   8.759   8.265   7.778 -0.6907  0.4483  0.6385
  734MOL0     O96786   8.772   8.389   7.835  0.2739  0.3911  0.0481
  734MOL0     C96787   8.687   8.488   7.808 -0.1220 -0.5119  0.4196
  734MOL0     C96788   8.743   8.602   7.747 -0.1356 -0.8456  0.3938
  734MOL0     C96789   8.671   8.719   7.719 -0.5949  0.5465  0.4396
  734MOL0     C96790   8.546   8.729   7.781  0.8530 -0.5956  0.0131
  734MOL0     O96791   8.471   8.841   7.776  0.2077 -0.6174 -0.1316
  734MOL0     C96792   8.511   8.950   7.703 -0.7142  0.3085 -0.2657
  734MOL0     C96793   8.418   9.067   7.729  0.4396 -0.2246  0.1061
  734MOL0     C96794   8.443   9.110   7.866 -0.3095  0.2673  0.4580
  734MOL0     C96795   8.359   9.233   7.906 -0.1548  0.7579 -0.2522
  734MOL0     C96796   8.209   9.194   7.930  0.4367 -0.1088  0.2476
  734MOL0     C96797   8.107   9.305   7.903 -0.5928 -0.4298 -0.3816
  734MOL0     C96798   8.130   9.443   7.980 -0.3324  0.7552 -0.4756
  734MOL0     C96799   8.019   9.541   7.957 -0.3396  0.0016  0.5716
  734MOL0    Cl96800   8.063   9.619   7.816  0.0750  0.2074 -0.4724
  734MOL0     C96801   8.482   8.619   7.837  0.5995  0.8812  0.0777
  734MOL0     C96802   8.552   8.496   7.847  1.1982 -0.1602  0.8154
  734MOL0     O96803   8.675   8.228   7.701  0.1274 -0.2759 -0.7305
  734MOL0     C96804   8.985   8.201   7.859 -0.2081  0.7812 -0.3815
  734MOL0     C96805   9.090   8.107   7.879 -0.6876 -0.2019 -0.0721
  734MOL0     N96806   9.651   7.667   8.138  1.0699  0.5537  0.4916
  734MOL0     N96807   9.696   7.670   8.265  0.2180 -0.2534 -0.3328
  734MOL0     C96808  10.225   7.195   9.091 -0.7358  0.2597 -1.0301
  734MOL0     C96809  10.359   7.235   9.120  1.0539 -0.1013  0.0198
  734MOL0     C96810  10.635   7.497   9.402 -0.7406 -0.0161 -0.0444
  734MOL0     C96811  10.652   7.626   9.441 -0.8153  0.2517 -0.4291
  734MOL0     C96812  10.758   7.662   9.519  0.4791  0.8264 -0.0444
  734MOL0     C96813  10.864   7.574   9.552 -0.3027  0.0877  0.2711
  734MOL0     O96814  10.965   7.603   9.638 -0.8557 -0.8002  0.6336
  734MOL0     C96815  10.954   7.711   9.735  0.1562  0.5492 -0.6668
  734MOL0     C96816  11.051   7.680   9.855  0.6827  0.7289 -0.1807
  734MOL0     C96817  11.198   7.677   9.803 -0.3312  0.1645  0.2379
  734MOL0     C96818  11.286   7.626   9.915  0.1360 -0.0006  0.2238
  734MOL0     C96819  11.400   7.547   9.858  0.2245  0.6912  0.4605
  734MOL0     C96820  11.487   7.481   9.808 -0.0470 -0.4004 -0.9942
  734MOL0     C96821  10.849   7.447   9.511  0.4043 -0.5814 -0.7373
  734MOL0     C96822  10.737   7.403   9.440 -0.7476  0.7461  0.8234
  734MOL0     H96823  10.301   7.328   9.445  0.6884  0.4186  0.7518
  734MOL0     H96824  10.087   7.293   9.395  0.5350  3.0427  0.2194
  734MOL0     H96825   9.894   7.350   9.202  4.6799 -0.4963  1.7893
  734MOL0     H96826   9.859   7.196   9.291 -0.0298 -0.2349 -0.2095
  734MOL0     H96827   9.672   7.227   9.152 -0.2247  0.8212 -1.1488
  734MOL0     H96828   9.756   7.094   9.090 -0.7060  0.3071  1.4670
  734MOL0     H96829   9.852   7.209   8.903 -1.5417 -2.6869 -0.2745
  734MOL0     H96830   9.780   7.373   8.969  0.1151  0.5222  1.6049
  734MOL0     H96831   9.612   7.121   8.889 -3.6743  0.2360 -0.2156
  734MOL0     H96832   9.559   7.276   8.912 -0.1590  0.2607  0.0440
  734MOL0     H96833   9.556   7.224   8.673  1.3836 -2.1964 -1.2592
  734MOL0     H96834   9.731   7.205   8.679 -1.5926 -2.9373  0.7810
  734MOL0     H96835   9.764   7.433   8.719  0.3409  0.6507  1.6315
  734MOL0     H96836   9.584   7.465   8.745 -2.9917 -0.0032 -4.2913
  734MOL0     H96837   9.729   7.410   8.491  0.8775  0.4759  1.4737
  734MOL0     H96838   9.559   7.369   8.505 -0.3186 -0.3932  1.4245
  734MOL0     H96839   9.723   7.630   8.506  1.9332 -2.1316 -0.6100
  734MOL0     H96840   9.552   7.646   8.546  1.0535  4.0083 -2.9747
  734MOL0     H96841   9.416   7.493   8.296 -0.7283  0.7983 -1.1083
  734MOL0     H96842   9.381   7.475   8.055 -0.1064 -0.5531 -0.0673
  734MOL0     H96843   9.521   7.495   7.946 -1.0606 -1.4545  0.6220
  734MOL0     H96844   9.309   7.624   7.886 -0.7731  2.2257  1.1730
  734MOL0     H96845   9.464   7.692   7.866 -2.5669  0.7872 -2.6664
  734MOL0     H96846   9.267   7.723   8.100  0.4615 -2.1996 -0.6693
  734MOL0     H96847   9.423   7.810   8.091  0.2731  0.3602 -1.5705
  734MOL0     H96848   9.356   7.943   7.902  0.8690 -3.7772 -0.4958
  734MOL0     H96849   9.266   7.975   8.040  4.9948 -0.0717  0.7298
  734MOL0     H96850   8.939   7.836   7.754 -1.3240  0.4515 -0.5473
  734MOL0     H96851   8.769   8.005   7.682 -1.0636  3.3102  1.2782
  734MOL0     H96852   8.849   8.601   7.724  0.2078 -0.9131  1.9072
  734MOL0     H96853   8.718   8.807   7.675  2.7730 -0.3930  1.7963
  734MOL0     H96854   8.507   8.933   7.595  2.1845  0.5506 -0.4992
  734MOL0     H96855   8.612   8.980   7.733 -0.3378 -1.4419  0.3120
  734MOL0     H96856   8.314   9.036   7.714 -0.2682  2.3173 -0.6488
  734MOL0     H96857   8.448   9.148   7.662 -0.1562 -0.3914 -0.3746
  734MOL0     H96858   8.547   9.141   7.869  1.3985 -4.5954  1.6253
  734MOL0     H96859   8.428   9.029   7.938  2.6870  0.3471  1.2832
  734MOL0     H96860   8.405   9.278   7.995  1.4650 -1.2792  0.0117
  734MOL0     H96861   8.356   9.303   7.822 -0.3650 -0.4075 -1.2331
  734MOL0     H96862   8.190   9.166   8.034 -4.6088 -3.0921 -1.1255
  734MOL0     H96863   8.194   9.106   7.867 -1.5978 -0.5546  1.2757
  734MOL0     H96864   8.012   9.260   7.934 -0.2489 -1.1215 -0.3258
  734MOL0     H96865   8.092   9.312   7.795  2.9796 -0.0069 -0.9788
  734MOL0     H96866   8.150   9.411   8.083 -0.7521 -3.0321 -1.4016
  734MOL0     H96867   8.226   9.483   7.946  0.2076 -0.4790 -0.4802
  734MOL0     H96868   8.004   9.618   8.033 -1.8541 -0.1597  0.4585
  734MOL0     H96869   7.931   9.480   7.936  0.5882 -1.1294 -0.1624
  734MOL0     H96870   8.381   8.629   7.876 -0.2628  2.0965 -2.2319
  734MOL0     H96871   8.503   8.417   7.902 -0.0265 -0.2325 -0.3228
  734MOL0     H96872   9.002   8.302   7.897 -3.3665  0.8149  1.2651
  734MOL0     H96873   9.182   8.147   7.920 -1.1567 -0.8580  1.7135
  734MOL0     H96874  10.181   7.166   8.996 -1.4403  0.2208 -0.7003
  734MOL0     H96875  10.436   7.221   9.046  0.8736 -0.1818 -0.1532
  734MOL0     H96876  10.590   7.700   9.393 -2.4872 -0.2377  0.8826
  734MOL0     H96877  10.772   7.765   9.550  2.0442  1.2359 -1.9257
  734MOL0     H96878  10.850   7.714   9.768  0.2895  1.6704 -0.2883
  734MOL0     H96879  10.969   7.816   9.707 -1.4234  1.3981  1.3686
  734MOL0     H96880  11.052   7.770   9.917 -2.0899  1.9435 -1.7386
  734MOL0     H96881  11.023   7.589   9.908  0.7080  1.2592  0.7685
  734MOL0     H96882  11.220   7.778   9.768 -0.4396  0.7751  1.8373
  734MOL0     H96883  11.211   7.609   9.718 -1.5107 -1.5624  1.3657
  734MOL0     H96884  11.322   7.702   9.984  0.8477  0.3974 -0.5697
  734MOL0     H96885  11.230   7.548   9.968  0.6021 -1.9015 -1.9097
  734MOL0     H96886  11.546   7.414   9.748  2.4626  0.5580  0.2571
  734MOL0     H96887  10.929   7.376   9.529 -2.0393 -3.4429 -0.4097
  734MOL0     H96888  10.729   7.307   9.390 -0.7302  2.3285 -2.5640
  735MOL0     O96889   3.653   1.774  11.109  0.6098 -0.2424  0.0765
  735MOL0     C96890   3.602   1.853  11.181  0.6485 -0.2085 -0.3803
  735MOL0     O96891   3.662   1.941  11.267  0.0146 -0.2661  0.2319
  735MOL0     C96892   3.792   1.947  11.276 -0.9255 -0.7187  0.0308
  735MOL0     C96893   3.889   1.848  11.290 -0.4441  0.2524  0.1459
  735MOL0     C96894   4.034   1.871  11.307  1.1836  0.1030  0.1177
  735MOL0     C96895   4.074   2.004  11.318  0.0782 -0.6048 -1.1888
  735MOL0     O96896   4.205   2.032  11.355 -0.0013 -0.0713  0.7164
  735MOL0     C96897   4.278   2.125  11.271  0.6010  0.4550 -0.8010
  735MOL0     C96898   4.425   2.102  11.294 -1.0728  0.5131  0.7115
  735MOL0     C96899   4.483   1.972  11.235  0.3381 -0.3979  1.0881
  735MOL0     C96900   4.514   1.987  11.083  0.7000 -0.0276  0.1376
  735MOL0     C96901   4.554   1.848  11.024 -0.4673 -0.2743  0.1584
  735MOL0     C96902   4.452   1.736  11.016  0.2358  0.1496  0.6088
  735MOL0     C96903   4.335   1.767  10.925 -1.0367 -0.1872 -0.2863
  735MOL0     C96904   4.217   1.666  10.933  0.4685  0.7300  0.0553
  735MOL0     N96905   4.104   1.723  10.857 -0.4848  0.4625  0.2299
  735MOL0     C96906   3.982   1.771  10.903  0.0904  0.1956 -0.4910
  735MOL0     C96907   3.919   1.821  10.794  0.1540 -0.7932  0.0912
  735MOL0     C96908   3.768   1.868  10.793 -0.1990 -0.8875 -0.2980
  735MOL0     C96909   3.734   1.903  10.640  0.0100  0.8080 -0.0137
  735MOL0     C96910   3.605   1.984  10.620 -0.1916  0.3374 -0.7704
  735MOL0     C96911   3.551   1.983  10.476  0.9192 -0.6503  0.3727
  735MOL0     O96912   3.427   2.052  10.460 -0.3363  0.1078  0.2771
  735MOL0     C96913   3.354   2.004  10.360 -0.1826 -0.0883  0.2008
  735MOL0     C96914   3.344   2.074  10.244  0.8516  0.4279  0.1591
  735MOL0     C96915   3.249   2.036  10.149  0.1635  0.2483  0.1062
  735MOL0     C96916   3.178   1.912  10.159 -0.5608  0.2458 -0.6313
  735MOL0     C96917   3.088   1.857  10.053 -0.0254 -1.2193  0.2467
  735MOL0     O96918   3.070   1.929   9.935  0.8859 -0.5929  0.5616
  735MOL0     C96919   2.998   1.875   9.823  0.0099  0.0931  0.0864
  735MOL0     C96920   3.065   1.851   9.699 -0.1582  0.9320 -0.6048
  735MOL0     C96921   2.990   1.809   9.589 -0.1011 -0.7392  0.0128
  735MOL0     C96922   2.849   1.781   9.603 -0.6981  0.5258 -0.1531
  735MOL0     O96923   2.790   1.722   9.496 -0.0413  0.3838  0.2886
  735MOL0     C96924   2.659   1.663   9.491  0.4290 -0.6307 -0.0416
  735MOL0     C96925   2.648   1.545   9.391 -0.6133  0.4989 -0.4356
  735MOL0     C96926   2.510   1.482   9.382 -0.0178  0.2473  0.8115
  735MOL0     C96927   2.395   1.563   9.346  0.8308  0.2972  0.7181
  735MOL0     C96928   2.248   1.499   9.360 -0.8769 -0.0980 -0.2289
  735MOL0     C96929   2.147   1.624   9.369 -0.0092  0.1327  0.3640
  735MOL0     C96930   2.008   1.576   9.333 -0.8784  0.3747 -0.6794
  735MOL0     C96931   1.999   1.578   9.174 -0.1864  0.4880 -0.8426
  735MOL0    Cl96932   1.994   1.748   9.111 -0.7205 -0.2325 -0.5319
  735MOL0     C96933   2.789   1.798   9.725 -0.0865  0.4216 -0.7681
  735MOL0     C96934   2.861   1.849   9.835  0.3360  0.5348  0.7643
  735MOL0     O96935   3.051   1.744  10.068  0.4349  0.0649  0.6960
  735MOL0     C96936   3.203   1.845  10.273 -0.9623  0.3818 -0.5546
  735MOL0     C96937   3.285   1.891  10.377  0.2187  0.2651  0.3625
  735MOL0     N96938   3.996   1.799  10.685 -0.2467  0.0539  0.2779
  735MOL0     N96939   4.103   1.732  10.720 -0.3853 -0.2325 -0.2277
  735MOL0     C96940   3.981   2.108  11.313  0.7293  0.5561  0.7689
  735MOL0     C96941   3.847   2.079  11.285  0.3154 -0.4369  0.2060
  735MOL0     C96942   3.458   1.862  11.177  0.1478 -0.0365  0.1542
  735MOL0     C96943   3.396   1.768  11.092  0.6733 -0.6359  0.6103
  735MOL0     C96944   3.254   1.774  11.078 -0.6937  0.0196 -0.3306
  735MOL0     C96945   3.173   1.856  11.156  0.0461  0.8680  0.4045
  735MOL0     O96946   3.041   1.886  11.119 -0.6957 -0.3381  0.0666
  735MOL0     C96947   2.950   1.968  11.202  0.0459  0.7297  0.4808
  735MOL0     C96948   2.908   1.888  11.327 -1.2574 -0.4580 -0.3537
  735MOL0     C96949   2.847   1.991  11.433 -0.5410 -0.6570  0.5960
  735MOL0     C96950   2.750   1.904  11.512 -0.1584  0.0439 -0.1129
  735MOL0     C96951   2.705   1.969  11.643 -0.2282 -0.2340 -0.0323
  735MOL0     C96952   2.653   2.041  11.731  0.6484 -0.2792  0.6598
  735MOL0     C96953   3.241   1.946  11.246 -0.8427 -0.4485 -0.2339
  735MOL0     C96954   3.378   1.950  11.255 -0.4384 -0.2791  0.6192
  735MOL0     H96955   3.858   1.744  11.285 -1.6774  0.6416 -0.9042
  735MOL0     H96956   4.116   1.800  11.314  0.8641 -0.4509 -1.3322
  735MOL0     H96957   4.251   2.228  11.298 -2.7268 -0.9321  2.0865
  735MOL0     H96958   4.256   2.100  11.167 -2.5554  0.3862 -0.2127
  735MOL0     H96959   4.445   2.091  11.401 -2.4007 -0.6540  0.8689
  735MOL0     H96960   4.486   2.187  11.262  0.9466 -0.4218  1.8753
  735MOL0     H96961   4.418   1.888  11.261 -0.9766  1.0441  2.6597
  735MOL0     H96962   4.574   1.944  11.289  1.2725 -2.7715 -1.4776
  735MOL0     H96963   4.422   2.023  11.037 -1.0549 -3.2629  0.7931
  735MOL0     H96964   4.589   2.066  11.083  1.5717 -0.8228  0.9586
  735MOL0     H96965   4.641   1.813  11.082  1.1480  1.7898 -0.8714
  735MOL0     H96966   4.582   1.849  10.918 -1.4906 -2.1995 -0.1759
  735MOL0     H96967   4.412   1.709  11.114 -2.3540  0.8068 -0.1987
  735MOL0     H96968   4.503   1.645  10.983  0.0889 -0.8326  2.9171
  735MOL0     H96969   4.300   1.870  10.940 -1.9026 -0.1399 -2.3123
  735MOL0     H96970   4.358   1.773  10.818  1.1205 -0.3281  0.1442
  735MOL0     H96971   4.192   1.647  11.038 -0.0758  0.0622 -0.1834
  735MOL0     H96972   4.244   1.570  10.888  0.9459 -0.5329  2.8093
  735MOL0     H96973   3.926   1.751  10.994  1.0521  0.5543  0.1987
  735MOL0     H96974   3.767   1.952  10.863 -2.6656 -0.3521 -0.8830
  735MOL0     H96975   3.700   1.798  10.841 -0.6990 -0.9309 -1.0633
  735MOL0     H96976   3.725   1.809  10.585 -1.3483 -1.0171  3.0864
  735MOL0     H96977   3.808   1.972  10.598  1.2056  0.1188  0.9523
  735MOL0     H96978   3.522   1.948  10.682 -3.9118  1.5926 -4.5850
  735MOL0     H96979   3.625   2.087  10.652 -0.8757 -0.4530  2.6960
  735MOL0     H96980   3.545   1.882  10.434 -1.3376 -1.5616  2.6025
  735MOL0     H96981   3.618   2.039  10.410 -2.1908 -0.4354 -2.9292
  735MOL0     H96982   3.397   2.166  10.223  1.8581  0.4570  2.5306
  735MOL0     H96983   3.241   2.113  10.072  1.0450  0.2781  0.0335
  735MOL0     H96984   3.171   1.865   9.681  0.5007 -2.3285  0.0980
  735MOL0     H96985   3.017   1.776   9.490 -2.2928 -1.0073 -0.5635
  735MOL0     H96986   2.580   1.736   9.471  0.6569 -0.1748  0.6831
  735MOL0     H96987   2.625   1.618   9.584 -1.3266 -0.1680 -0.4146
  735MOL0     H96988   2.733   1.483   9.421 -0.6668 -0.0163 -1.2959
  735MOL0     H96989   2.678   1.571   9.289  1.1147  0.5393  0.0533
  735MOL0     H96990   2.482   1.425   9.471 -1.0094 -1.9204 -0.7720
  735MOL0     H96991   2.520   1.399   9.312  0.0848 -1.3086  2.5829
  735MOL0     H96992   2.392   1.643   9.421  2.0326  2.0617 -1.0085
  735MOL0     H96993   2.398   1.608   9.247 -3.2184 -0.2197  0.2039
  735MOL0     H96994   2.253   1.441   9.453  0.5375 -1.0705 -0.8627
  735MOL0     H96995   2.229   1.423   9.283 -5.8617 -1.0045  1.5489
  735MOL0     H96996   2.188   1.711   9.315 -2.2414 -0.4719 -2.5141
  735MOL0     H96997   2.140   1.651   9.475  3.8907 -1.1601  1.1094
  735MOL0     H96998   1.991   1.475   9.371 -0.3160  0.7080  0.5142
  735MOL0     H96999   1.929   1.637   9.378 -1.9122 -0.1026 -1.7941
  735MOL0     H97000   1.903   1.535   9.146 -0.5556  0.6195  0.1618
  735MOL0     H97001   2.079   1.519   9.129  0.1756  1.5665 -1.6529
  735MOL0     H97002   2.688   1.760   9.740  0.9374 -2.5639 -0.7755
  735MOL0     H97003   2.812   1.855   9.932 -1.2384  0.2944  0.0278
  735MOL0     H97004   3.128   1.770  10.297 -2.2088  2.3687  2.2679
  735MOL0     H97005   3.301   1.819  10.457 -0.3583 -0.0892  0.1599
  735MOL0     H97006   4.007   2.213  11.327 -0.6802  0.9408  0.7058
  735MOL0     H97007   3.765   2.151  11.286 -0.6009 -1.4727  1.0063
  735MOL0     H97008   3.444   1.689  11.034  1.4444 -1.5181  2.3721
  735MOL0     H97009   3.207   1.721  10.996  1.4682 -3.5052  0.4738
  735MOL0     H97010   2.859   2.000  11.152  0.5850  1.3941 -0.1022
  735MOL0     H97011   3.000   2.061  11.230  4.8978 -1.2256 -0.6143
  735MOL0     H97012   2.828   1.817  11.307 -0.2298 -1.4315 -1.1329
  735MOL0     H97013   3.000   1.843  11.367 -0.9149 -1.1623 -1.8999
  735MOL0     H97014   2.804   2.076  11.378  0.4150 -0.1447  0.6247
  735MOL0     H97015   2.925   2.024  11.502  2.4287 -4.6922 -0.4186
  735MOL0     H97016   2.654   1.872  11.471 -2.5013  0.2494  4.4945
  735MOL0     H97017   2.809   1.815  11.537  1.7170  0.0048 -3.9501
  735MOL0     H97018   2.631   2.113  11.808 -1.4134 -1.1362  0.9406
  735MOL0     H97019   3.186   2.023  11.300 -2.6240 -0.8683 -1.3803
  735MOL0     H97020   3.412   2.027  11.324  1.0482  1.7938 -2.2339
  736MOL0     O97021   4.363   6.421   4.702  0.4473  0.0887  0.5240
  736MOL0     C97022   4.457   6.348   4.695 -0.2280  0.4205 -1.2414
  736MOL0     O97023   4.528   6.310   4.582 -0.9818 -0.7958 -0.6483
  736MOL0     C97024   4.511   6.382   4.463 -0.2090  0.0258 -0.4508
  736MOL0     C97025   4.485   6.520   4.452 -0.2819 -0.0312  0.1125
  736MOL0     C97026   4.473   6.582   4.328  1.7806 -0.1306 -0.3618
  736MOL0     C97027   4.489   6.507   4.208  0.2808 -0.2019  0.4754
  736MOL0     O97028   4.472   6.547   4.076  0.6748  0.4326  0.0663
  736MOL0     C97029   4.419   6.675   4.046  0.0665 -0.5278  0.0614
  736MOL0     C97030   4.416   6.670   3.892  0.3834  0.4349  1.1021
  736MOL0     C97031   4.356   6.797   3.834 -0.4023  0.4483  0.3711
  736MOL0     C97032   4.365   6.813   3.681 -0.0251 -0.5885  1.7360
  736MOL0     C97033   4.334   6.956   3.629 -0.1664 -0.0474  0.6106
  736MOL0     C97034   4.189   7.001   3.645 -0.7125 -0.3324  0.7654
  736MOL0     C97035   4.173   7.141   3.581  0.2572 -0.6560  0.9863
  736MOL0     C97036   4.035   7.156   3.534  0.3805  1.5374  0.2383
  736MOL0     N97037   3.984   7.295   3.529 -0.1785  0.2509 -0.6917
  736MOL0     C97038   3.906   7.366   3.620  0.9507 -0.6853  0.1901
  736MOL0     C97039   3.905   7.497   3.565 -0.2507  0.2949  0.2680
  736MOL0     C97040   3.836   7.620   3.616  0.4897  0.9552 -0.5106
  736MOL0     C97041   3.717   7.665   3.526 -0.2754 -1.1791 -0.7169
  736MOL0     C97042   3.688   7.811   3.562  0.7231 -0.7415 -0.4070
  736MOL0     C97043   3.581   7.827   3.680 -0.4629 -0.0448  0.3489
  736MOL0     O97044   3.467   7.748   3.656 -0.6325 -0.2505 -0.4487
  736MOL0     C97045   3.376   7.729   3.762 -1.0215  0.1075  0.9116
  736MOL0     C97046   3.340   7.832   3.849 -0.4282 -0.1638 -0.7979
  736MOL0     C97047   3.234   7.808   3.935  0.1494 -0.9000 -0.4275
  736MOL0     C97048   3.167   7.686   3.946 -0.7764 -0.0236 -0.4207
  736MOL0     C97049   3.054   7.667   4.051 -0.1661  0.3556 -0.0948
  736MOL0     O97050   2.969   7.557   4.046  0.2977  0.1849  0.5560
  736MOL0     C97051   2.917   7.527   4.172  0.5821 -0.0451  0.6543
  736MOL0     C97052   2.985   7.488   4.280 -1.0029 -0.9950 -0.6607
  736MOL0     C97053   2.918   7.440   4.398 -0.1598  0.3330 -0.5203
  736MOL0     C97054   2.782   7.471   4.409 -0.6226 -0.6424 -0.1354
  736MOL0     O97055   2.727   7.437   4.528  0.0455 -0.3621 -0.4330
  736MOL0     C97056   2.609   7.504   4.574  0.2715 -0.9684  0.5156
  736MOL0     C97057   2.475   7.437   4.543  0.3059  0.0033  0.1889
  736MOL0     C97058   2.489   7.284   4.543 -0.0345  0.0211 -0.5086
  736MOL0     C97059   2.357   7.221   4.497  1.0705 -0.0901 -0.3605
  736MOL0     C97060   2.357   7.066   4.525 -0.2277 -0.6706  0.2523
  736MOL0     C97061   2.222   7.004   4.481  0.3240 -0.3967  0.3881
  736MOL0     C97062   2.186   6.863   4.522 -0.3855 -0.3418  0.1763
  736MOL0     C97063   2.032   6.842   4.518  0.2168  0.2938 -0.2464
  736MOL0    Cl97064   2.001   6.683   4.571  0.5025 -0.2734  0.1511
  736MOL0     C97065   2.713   7.512   4.303 -0.0942 -0.7129 -0.5192
  736MOL0     C97066   2.778   7.525   4.183 -0.1370  0.4545  0.5398
  736MOL0     O97067   3.040   7.761   4.131  0.9141 -0.3828  0.8796
  736MOL0     C97068   3.211   7.584   3.866 -0.5521  0.2641  1.5630
  736MOL0     C97069   3.303   7.611   3.760 -0.2711  0.0694  0.5982
  736MOL0     N97070   3.975   7.486   3.447  0.1733  0.1416 -0.0491
  736MOL0     N97071   4.019   7.367   3.422  0.0516  0.1525  0.4233
  736MOL0     C97072   4.531   6.375   4.222 -0.6193 -0.0198 -0.1382
  736MOL0     C97073   4.546   6.315   4.343 -0.1934 -0.0841  0.0045
  736MOL0     C97074   4.505   6.297   4.833 -0.8042 -0.5836  1.0254
  736MOL0     C97075   4.611   6.206   4.825 -0.3416 -0.0530  0.3724
  736MOL0     C97076   4.666   6.171   4.943 -0.6187 -0.6935  0.2312
  736MOL0     C97077   4.616   6.213   5.066 -0.2217 -0.0814  0.2193
  736MOL0     O97078   4.665   6.161   5.189  0.7888  0.0963 -0.3067
  736MOL0     C97079   4.762   6.060   5.202 -1.1101  0.7963  0.4436
  736MOL0     C97080   4.779   6.018   5.340 -0.2747  0.4589  0.2064
  736MOL0     C97081   4.654   5.952   5.402 -0.0092  0.3602 -0.0878
  736MOL0     C97082   4.681   5.823   5.476 -0.2937 -0.5244 -0.0694
  736MOL0     C97083   4.680   5.708   5.391  0.1923  0.5626 -0.2133
  736MOL0     C97084   4.688   5.634   5.296  0.0523  0.1962  0.1225
  736MOL0     C97085   4.517   6.313   5.070 -0.4583  1.3932 -0.1975
  736MOL0     C97086   4.458   6.354   4.951 -1.0608  0.5093 -0.5496
  736MOL0     H97087   4.491   6.590   4.535  1.2492 -0.6175  0.5187
  736MOL0     H97088   4.443   6.685   4.308  1.7031 -0.4917 -2.2276
  736MOL0     H97089   4.480   6.759   4.081  0.5448 -0.9527  0.2819
  736MOL0     H97090   4.324   6.697   4.095  1.1999  1.8142  1.3655
  736MOL0     H97091   4.362   6.584   3.853  0.8700  0.6048  0.0072
  736MOL0     H97092   4.522   6.652   3.873  0.8250  1.0231  2.7592
  736MOL0     H97093   4.411   6.878   3.883 -0.1507 -0.4153  1.5750
  736MOL0     H97094   4.253   6.805   3.871 -1.4975  0.0993 -2.3879
  736MOL0     H97095   4.463   6.784   3.644 -1.2376  0.2596 -2.6547
  736MOL0     H97096   4.305   6.730   3.643 -0.2428 -1.4195  3.7731
  736MOL0     H97097   4.351   6.971   3.522 -1.6058 -0.0287  0.3653
  736MOL0     H97098   4.396   7.033   3.677  1.2117 -0.2827 -0.7034
  736MOL0     H97099   4.154   6.999   3.749 -4.5152  0.2048 -0.3724
  736MOL0     H97100   4.139   6.924   3.586 -0.1122 -0.7603  0.7993
  736MOL0     H97101   4.194   7.223   3.651 -0.6151  0.2032  0.2889
  736MOL0     H97102   4.237   7.147   3.492 -2.2516 -1.9176 -1.0371
  736MOL0     H97103   3.977   7.084   3.592  0.3036  0.1400 -1.5043
  736MOL0     H97104   4.038   7.129   3.429  2.7599  1.4655  0.2747
  736MOL0     H97105   3.854   7.341   3.712 -2.7605  0.5635 -1.3820
  736MOL0     H97106   3.911   7.698   3.631  1.9710 -0.7974  2.0904
  736MOL0     H97107   3.799   7.597   3.716  1.1542  1.1679 -0.2103
  736MOL0     H97108   3.628   7.604   3.544 -1.4581  1.1057  1.9798
  736MOL0     H97109   3.741   7.659   3.420 -2.2581  0.5585 -1.3122
  736MOL0     H97110   3.777   7.875   3.566  1.2233 -1.3903 -0.7217
  736MOL0     H97111   3.630   7.851   3.479 -0.1590  0.9810  0.9736
  736MOL0     H97112   3.553   7.933   3.680  0.8416  0.3537  2.4994
  736MOL0     H97113   3.638   7.801   3.770  3.6843  2.3057 -1.3418
  736MOL0     H97114   3.388   7.928   3.867  1.5466 -1.6289  2.4872
  736MOL0     H97115   3.204   7.887   4.003  3.4623 -0.1240  0.2939
  736MOL0     H97116   3.091   7.472   4.265 -1.0390  0.3514 -2.6704
  736MOL0     H97117   2.967   7.396   4.485 -0.4459 -1.1825 -1.0918
  736MOL0     H97118   2.612   7.611   4.551  1.1022 -1.0739  0.0885
  736MOL0     H97119   2.616   7.496   4.683 -2.6056 -2.4770  0.6992
  736MOL0     H97120   2.442   7.463   4.442 -1.4869  0.0338  0.7561
  736MOL0     H97121   2.403   7.466   4.620 -0.4639 -1.0439 -0.1244
  736MOL0     H97122   2.507   7.253   4.646  1.8643 -0.2753 -0.8787
  736MOL0     H97123   2.569   7.252   4.475 -0.8873  1.3255 -2.1998
  736MOL0     H97124   2.263   7.261   4.537  0.7043 -0.4417 -0.8669
  736MOL0     H97125   2.336   7.245   4.393  1.3329  1.2488 -0.1234
  736MOL0     H97126   2.381   7.050   4.630 -1.8974 -2.2361  0.4499
  736MOL0     H97127   2.434   7.007   4.474  0.4174 -0.6069  1.1238
  736MOL0     H97128   2.197   7.012   4.375  1.1116  1.5490  0.3171
  736MOL0     H97129   2.151   7.061   4.541  1.4779  1.1440  0.3453
  736MOL0     H97130   2.221   6.793   4.446 -2.7730 -1.9837  0.4710
  736MOL0     H97131   2.233   6.846   4.619 -2.1025 -0.2476  1.0710
  736MOL0     H97132   1.993   6.861   4.417 -2.2649 -0.4638  0.4882
  736MOL0     H97133   1.978   6.911   4.583 -1.4093 -0.4527 -0.7501
  736MOL0     H97134   2.605   7.523   4.312 -0.4078 -2.7176 -1.2563
  736MOL0     H97135   2.725   7.532   4.089  0.4588  2.4196  0.2927
  736MOL0     H97136   3.153   7.492   3.868  1.0515 -0.8826 -0.5705
  736MOL0     H97137   3.338   7.539   3.687  1.6635 -1.9146  3.2641
  736MOL0     H97138   4.544   6.311   4.135  1.4786  0.6423 -0.3581
  736MOL0     H97139   4.575   6.211   4.340  0.0018 -0.0382  0.1914
  736MOL0     H97140   4.650   6.160   4.735 -2.1101 -1.0510  0.0681
  736MOL0     H97141   4.741   6.092   4.943  2.7433  2.2210  0.7989
  736MOL0     H97142   4.858   6.082   5.155 -0.4277 -0.6706  1.0968
  736MOL0     H97143   4.726   5.973   5.147  2.2547 -1.2453  1.2037
  736MOL0     H97144   4.865   5.950   5.331 -0.1956  0.8505 -4.5596
  736MOL0     H97145   4.811   6.110   5.390 -1.0336  1.4854 -1.1040
  736MOL0     H97146   4.582   5.917   5.327  0.7383 -2.1838  0.2833
  736MOL0     H97147   4.616   6.027   5.471 -1.5268 -0.5889  0.1702
  736MOL0     H97148   4.776   5.829   5.529  0.1953 -1.3498 -0.8287
  736MOL0     H97149   4.606   5.812   5.556 -1.0709  3.0340 -0.1142
  736MOL0     H97150   4.698   5.552   5.228 -0.0844  0.1732  0.1296
  736MOL0     H97151   4.467   6.346   5.161 -1.3721 -1.6124  0.5275
  736MOL0     H97152   4.385   6.434   4.941  0.3206  1.7691 -0.9110
  737MOL0     O97153   7.562  10.047   7.971 -0.1318 -0.4564  0.0949
  737MOL0     C97154   7.623  10.103   8.063 -0.4146  0.1377  0.8948
  737MOL0     O97155   7.575  10.170   8.171 -0.3295  0.7159  0.5494
  737MOL0     C97156   7.451  10.213   8.159 -0.1074 -0.9553  0.4640
  737MOL0     C97157   7.429  10.350   8.125  0.8718  0.8215  0.8810
  737MOL0     C97158   7.296  10.397   8.124  0.1077 -0.3576  0.5896
  737MOL0     C97159   7.191  10.310   8.150 -0.0507  0.0760  0.4300
  737MOL0     O97160   7.065  10.362   8.139 -0.6846  0.1613 -0.2243
  737MOL0     C97161   6.954  10.279   8.166  0.2238 -0.2962 -0.5864
  737MOL0     C97162   6.909  10.213   8.037  0.1311 -0.5212  0.6228
  737MOL0     C97163   6.906  10.298   7.910 -0.0283 -0.6182 -0.0666
  737MOL0     C97164   6.774  10.276   7.837 -0.3280  0.3195  0.6195
  737MOL0     C97165   6.776  10.272   7.683  0.5036 -0.3149  0.1580
  737MOL0     C97166   6.831  10.404   7.631  0.5124 -1.2825  0.5035
  737MOL0     C97167   6.783  10.426   7.483 -0.7791 -0.0184 -0.0197
  737MOL0     C97168   6.871  10.539   7.410  0.7707 -0.7185 -0.4523
  737MOL0     N97169   6.854  10.666   7.479  0.2558  0.3660 -0.3459
  737MOL0     C97170   6.733  10.721   7.516  0.6469  0.1569  0.1954
  737MOL0     C97171   6.770  10.840   7.558 -0.3909 -1.0768  0.6248
  737MOL0     C97172   6.690  10.947   7.620  0.3601 -1.4112  0.8584
  737MOL0     C97173   6.643  11.059   7.528  0.0794  0.3134 -0.7772
  737MOL0     C97174   6.514  11.131   7.590 -0.4897  0.4666 -0.7369
  737MOL0     C97175   6.462  11.253   7.511  0.2771  1.3689 -0.7867
  737MOL0     O97176   6.540  11.359   7.549 -0.1163 -0.2638  0.0971
  737MOL0     C97177   6.526  11.441   7.650 -0.2793 -0.2943 -1.0638
  737MOL0     C97178   6.649  11.489   7.715  0.6387  0.0075  0.3197
  737MOL0     C97179   6.632  11.560   7.838 -0.0056 -0.2331  0.6086
  737MOL0     C97180   6.506  11.594   7.887  0.3631  1.2238 -0.4371
  737MOL0     C97181   6.495  11.681   7.998 -0.0604 -0.1106 -0.2175
  737MOL0     O97182   6.378  11.749   8.012  0.4805 -0.5784  0.9166
  737MOL0     C97183   6.349  11.838   8.115 -0.5607  0.3793 -0.7736
  737MOL0     C97184   6.412  11.832   8.244 -0.8205 -1.8793 -0.2885
  737MOL0     C97185   6.373  11.926   8.337  0.6148 -0.5809  0.5985
  737MOL0     C97186   6.281  12.034   8.309 -0.0607 -0.3877  0.1533
  737MOL0     O97187   6.256  12.119   8.408 -0.0674 -0.1745 -0.1591
  737MOL0     C97188   6.127  12.180   8.396  0.7055 -0.6439  0.3507
  737MOL0     C97189   6.084  12.252   8.527 -0.0962 -0.2517 -0.1859
  737MOL0     C97190   6.057  12.162   8.645  0.0746  0.3437  0.7548
  737MOL0     C97191   6.025  12.244   8.770 -0.2091 -0.4870  0.3536
  737MOL0     C97192   5.947  12.158   8.872 -0.5927  0.2594  0.3660
  737MOL0     C97193   5.931  12.216   9.014 -0.3802 -0.2082  0.2089
  737MOL0     C97194   5.892  12.367   9.024 -0.1670  0.3716  0.3937
  737MOL0     C97195   5.757  12.392   8.958 -0.3625 -0.3588  0.2002
  737MOL0    Cl97196   5.732  12.559   8.966 -0.1356  0.2329  0.0339
  737MOL0     C97197   6.225  12.031   8.182  0.5087 -0.1736 -0.0292
  737MOL0     C97198   6.254  11.933   8.090  0.2421  0.3433 -0.5433
  737MOL0     O97199   6.593  11.687   8.071  0.3833  0.6388 -0.3073
  737MOL0     C97200   6.391  11.547   7.824  0.5504  0.7928  0.2344
  737MOL0     C97201   6.400  11.464   7.708 -0.6444  0.0609  0.3176
  737MOL0     N97202   6.907  10.849   7.570 -0.1183 -0.2016 -0.7306
  737MOL0     N97203   6.956  10.742   7.520 -1.1094  0.8090 -0.4828
  737MOL0     C97204   7.220  10.175   8.169 -0.5045  0.1112 -0.1683
  737MOL0     C97205   7.348  10.125   8.185 -0.3944  0.2503 -0.0494
  737MOL0     C97206   7.769  10.089   8.055 -0.2418  0.1555 -0.0398
  737MOL0     C97207   7.853  10.184   8.130 -0.0259 -0.8612  1.0496
  737MOL0     C97208   7.986  10.162   8.141  0.1002 -0.6965 -0.9202
  737MOL0     C97209   8.056  10.058   8.075 -0.5278 -0.1407 -0.5630
  737MOL0     O97210   8.188  10.020   8.103 -0.1276 -0.1986 -0.4881
  737MOL0     C97211   8.205  10.019   8.249 -0.4400 -0.2413  0.2274
  737MOL0     C97212   8.338   9.941   8.295  0.1196 -0.6224 -0.8557
  737MOL0     C97213   8.349   9.815   8.201 -0.3905 -0.0634 -0.4166
  737MOL0     C97214   8.463   9.727   8.250  0.5217  0.5460  0.3095
  737MOL0     C97215   8.494   9.619   8.157 -0.0909  0.1918 -0.0744
  737MOL0     C97216   8.513   9.527   8.079  0.4525  0.3922 -0.1536
  737MOL0     C97217   7.978   9.971   8.001  0.3383 -0.1304  0.5179
  737MOL0     C97218   7.842   9.987   7.987  0.6419 -0.4702 -0.4378
  737MOL0     H97219   7.504  10.424   8.100 -1.4578  2.5709 -1.6499
  737MOL0     H97220   7.277  10.500   8.095  2.9617  0.4682  1.3612
  737MOL0     H97221   6.890  10.361   8.201 -0.1583 -0.5628 -0.6653
  737MOL0     H97222   6.975  10.213   8.250  3.3871  3.0734  1.5976
  737MOL0     H97223   6.820  10.157   8.066  2.5338 -4.4990  1.1744
  737MOL0     H97224   6.969  10.123   8.017  1.1805  0.3842 -0.4190
  737MOL0     H97225   6.993  10.291   7.844 -0.9800  1.7353 -1.6955
  737MOL0     H97226   6.902  10.405   7.931 -1.7833 -0.6288 -0.2696
  737MOL0     H97227   6.723  10.186   7.871 -1.4943  0.1446 -1.4349
  737MOL0     H97228   6.703  10.349   7.876 -1.6036  0.0202 -1.0322
  737MOL0     H97229   6.676  10.261   7.640  0.6582  3.0939 -1.4330
  737MOL0     H97230   6.846  10.192   7.656 -0.2797 -1.6007  1.8270
  737MOL0     H97231   6.938  10.406   7.654  0.7628 -1.0714 -0.6402
  737MOL0     H97232   6.783  10.474   7.701  0.3891 -0.1787 -0.6670
  737MOL0     H97233   6.795  10.335   7.424 -0.6364  0.3443 -0.5577
  737MOL0     H97234   6.676  10.449   7.478 -0.2884  2.5284 -0.7696
  737MOL0     H97235   6.833  10.559   7.310 -2.3429  0.4509  0.8270
  737MOL0     H97236   6.976  10.510   7.419  0.5530 -1.5088 -0.3523
  737MOL0     H97237   6.635  10.678   7.501  1.1280 -0.2408 -2.0688
  737MOL0     H97238   6.743  10.985   7.708 -1.6511  0.9818  1.1150
  737MOL0     H97239   6.594  10.913   7.659 -0.3781  2.6911  3.1550
  737MOL0     H97240   6.628  11.006   7.433 -2.7222 -0.4735 -0.0113
  737MOL0     H97241   6.717  11.139   7.535  1.1632 -0.7567  0.6306
  737MOL0     H97242   6.432  11.060   7.575 -0.7531  0.2842  1.3142
  737MOL0     H97243   6.538  11.149   7.695 -0.1430  1.3317 -0.9565
  737MOL0     H97244   6.357  11.263   7.540  0.5419  0.1488  0.7957
  737MOL0     H97245   6.487  11.241   7.405  3.0599 -1.8122  0.0356
  737MOL0     H97246   6.747  11.464   7.676  0.2302 -1.4271  0.1758
  737MOL0     H97247   6.721  11.599   7.887  1.6042 -0.2917 -2.1241
  737MOL0     H97248   6.492  11.768   8.280 -2.0080 -1.3627  3.7867
  737MOL0     H97249   6.427  11.927   8.430  0.3855  1.1825  0.7570
  737MOL0     H97250   6.055  12.104   8.366 -1.4436  1.6246 -0.5385
  737MOL0     H97251   6.124  12.255   8.317  0.3877  0.0148  0.9679
  737MOL0     H97252   5.996  12.313   8.506 -2.5812 -3.8140 -1.1302
  737MOL0     H97253   6.170  12.315   8.552  1.5403 -2.2698 -0.4558
  737MOL0     H97254   6.144  12.101   8.669  0.4500 -0.0541 -1.4027
  737MOL0     H97255   5.975  12.099   8.609  0.6257  0.4307 -0.7000
  737MOL0     H97256   6.121  12.274   8.813 -0.0267 -0.7540  0.1309
  737MOL0     H97257   5.968  12.337   8.754  1.9785  1.1740  1.6777
  737MOL0     H97258   5.994  12.059   8.880 -0.3041  0.4669  1.4298
  737MOL0     H97259   5.843  12.149   8.841 -0.4087  1.9170 -0.8230
  737MOL0     H97260   6.026  12.221   9.068 -0.8462  0.2234  0.9942
  737MOL0     H97261   5.872  12.153   9.080  2.0512 -0.4480  2.3259
  737MOL0     H97262   5.887  12.398   9.129 -2.2909 -4.1652  1.9065
  737MOL0     H97263   5.966  12.421   8.964 -1.1219  1.8251  0.4580
  737MOL0     H97264   5.681  12.339   9.016 -1.0600  0.0667 -0.3032
  737MOL0     H97265   5.750  12.359   8.854  0.0449 -2.7487  0.8831
  737MOL0     H97266   6.150  12.105   8.155  1.2711  0.6567  0.0868
  737MOL0     H97267   6.205  11.947   7.994 -0.3635  1.1894 -0.1223
  737MOL0     H97268   6.296  11.567   7.873  0.1445  0.1319 -0.2640
  737MOL0     H97269   6.308  11.425   7.666  0.6268 -0.1242 -2.5219
  737MOL0     H97270   7.147  10.095   8.177 -1.7910  1.2959  0.1822
  737MOL0     H97271   7.376  10.024   8.214  0.3482 -0.1447 -2.0169
  737MOL0     H97272   7.809  10.271   8.179 -2.3548 -0.4083 -1.5783
  737MOL0     H97273   8.049  10.220   8.208 -0.8365 -0.1383 -0.4957
  737MOL0     H97274   8.116   9.982   8.300 -0.2155  0.2766  1.0251
  737MOL0     H97275   8.213  10.123   8.282 -0.0504 -0.0900 -0.3252
  737MOL0     H97276   8.422  10.010   8.290  0.6676 -0.8879  2.4344
  737MOL0     H97277   8.338   9.908   8.399  2.2635 -0.2577 -0.7164
  737MOL0     H97278   8.365   9.838   8.095  0.7040 -3.3351 -1.0936
  737MOL0     H97279   8.254   9.760   8.205 -1.1897  1.2955 -0.2904
  737MOL0     H97280   8.553   9.788   8.260  0.9835 -0.0981  0.1317
  737MOL0     H97281   8.434   9.681   8.344 -1.7593 -1.9168 -1.4349
  737MOL0     H97282   8.552   9.455   8.010 -2.2024  2.1050 -3.7758
  737MOL0     H97283   8.023   9.883   7.957  0.5891  0.5092 -0.5360
  737MOL0     H97284   7.777   9.922   7.929  0.8226 -0.8314 -0.2318
  738MOL0     O97285   2.248   8.948   1.008  1.3368  0.3505  0.2881
  738MOL0     C97286   2.223   8.834   0.965  0.3203 -0.5739 -0.2152
  738MOL0     O97287   2.325   8.757   0.913 -0.7515 -0.2265  0.0897
  738MOL0     C97288   2.436   8.807   0.853  0.2249 -0.6178 -0.0885
  738MOL0     C97289   2.551   8.732   0.839  0.9652 -0.1351 -0.0208
  738MOL0     C97290   2.672   8.792   0.789  0.6472  0.2163  0.0602
  738MOL0     C97291   2.687   8.930   0.759 -0.1703  0.4562 -0.6354
  738MOL0     O97292   2.802   8.992   0.711  0.3101  0.4187 -0.0804
  738MOL0     C97293   2.880   8.914   0.622  0.5556 -0.8731 -0.1609
  738MOL0     C97294   2.998   8.991   0.558  0.0206 -0.1406 -0.0641
  738MOL0     C97295   3.100   9.039   0.664  0.1150 -0.6040  0.2369
  738MOL0     C97296   3.221   9.120   0.610 -0.3723 -0.2672 -0.2483
  738MOL0     C97297   3.304   9.191   0.716 -0.2842 -0.4667  0.9663
  738MOL0     C97298   3.443   9.237   0.669  0.2482 -0.3828 -0.7916
  738MOL0     C97299   3.532   9.118   0.619 -0.0207 -0.9762  0.0691
  738MOL0     C97300   3.680   9.153   0.628 -0.1617  0.5525  0.1290
  738MOL0     N97301   3.781   9.056   0.583 -0.4524 -0.1565  0.2250
  738MOL0     C97302   3.840   8.971   0.661  0.1143  0.2417 -0.8432
  738MOL0     C97303   3.960   8.948   0.603  0.2920 -0.1968  1.1599
  738MOL0     C97304   4.081   8.874   0.639  0.3943 -0.2209  0.2038
  738MOL0     C97305   4.206   8.955   0.631  0.3302 -0.2545  0.3074
  738MOL0     C97306   4.323   8.870   0.682 -0.1207 -0.2765  0.3590
  738MOL0     C97307   4.436   8.972   0.701  0.4630  0.6317  0.3531
  738MOL0     O97308   4.457   9.035   0.578 -0.1578 -0.2262  0.3236
  738MOL0     C97309   4.584   9.092   0.557 -0.1223  0.3458  0.0386
  738MOL0     C97310   4.701   9.067   0.629  0.1782  0.8467 -0.1236
  738MOL0     C97311   4.820   9.137   0.608  0.5850 -0.7403  0.0392
  738MOL0     C97312   4.824   9.231   0.509  0.4020 -0.4081  1.2052
  738MOL0     C97313   4.959   9.279   0.475  0.6196 -0.7530 -0.1528
  738MOL0     O97314   5.059   9.253   0.561 -0.3798  0.1956  0.9020
  738MOL0     C97315   5.178   9.324   0.562  0.4175  0.7513 -0.2512
  738MOL0     C97316   5.205   9.447   0.483  0.8650 -0.1722  0.9506
  738MOL0     C97317   5.320   9.514   0.503  0.3917 -0.3217 -0.4469
  738MOL0     C97318   5.407   9.469   0.599 -0.2520  0.4331 -0.3560
  738MOL0     O97319   5.517   9.545   0.636  0.8824 -0.2287  0.2934
  738MOL0     C97320   5.479   9.641   0.737  1.1253  0.3750  0.3743
  738MOL0     C97321   5.594   9.743   0.750 -0.5323  0.0828  0.0610
  738MOL0     C97322   5.741   9.692   0.768  0.8270 -0.4462 -0.1799
  738MOL0     C97323   5.760   9.624   0.903  0.6148 -1.1912 -0.1113
  738MOL0     C97324   5.887   9.555   0.916 -0.5394  1.2346 -0.2230
  738MOL0     C97325   6.007   9.650   0.928  0.6270  0.4567  0.4762
  738MOL0     C97326   6.145   9.575   0.947 -0.5204  0.8273 -1.4021
  738MOL0     C97327   6.152   9.500   1.089  0.6786  0.0517  0.1660
  738MOL0    Cl97328   6.196   9.608   1.217 -0.0641 -0.6666  0.1616
  738MOL0     C97329   5.390   9.347   0.663 -0.6568  0.7128  0.1348
  738MOL0     C97330   5.273   9.276   0.649  0.0725  0.0484  0.0691
  738MOL0     O97331   4.970   9.331   0.369  0.4281  0.2009  0.9669
  738MOL0     C97332   4.707   9.272   0.433  0.9345 -0.0305 -0.3195
  738MOL0     C97333   4.587   9.196   0.460 -0.2401 -0.2059  0.8023
  738MOL0     N97334   3.953   9.012   0.478 -1.0311  0.1825 -0.6149
  738MOL0     N97335   3.845   9.080   0.471  0.6561  0.1346 -0.3768
  738MOL0     C97336   2.567   8.999   0.761  0.1052 -0.2272 -0.7858
  738MOL0     C97337   2.447   8.938   0.802  0.3390 -0.8177  0.3825
  738MOL0     C97338   2.095   8.776   1.004  0.0445  1.4061 -0.0571
  738MOL0     C97339   1.989   8.854   1.060 -0.2425 -0.0944 -0.0072
  738MOL0     C97340   1.862   8.791   1.089  0.0025 -0.7108  0.0391
  738MOL0     C97341   1.844   8.656   1.067 -1.2676  0.1149 -0.3293
  738MOL0     O97342   1.725   8.609   1.109 -0.5758  1.0280  0.0825
  738MOL0     C97343   1.682   8.485   1.059 -0.4200 -0.4115  0.5093
  738MOL0     C97344   1.544   8.458   1.110 -0.4179  0.7814  0.4998
  738MOL0     C97345   1.443   8.550   1.038  0.3173  0.3151 -0.2885
  738MOL0     C97346   1.317   8.579   1.117  0.1914 -0.0140  0.3956
  738MOL0     C97347   1.191   8.596   1.043 -0.8916 -0.1131  0.0593
  738MOL0     C97348   1.089   8.631   0.988  0.5733  0.2838  0.0544
  738MOL0     C97349   1.947   8.579   1.003  0.4339 -0.3486  0.5504
  738MOL0     C97350   2.068   8.642   0.971 -0.3661  0.9814  0.2456
  738MOL0     H97351   2.547   8.628   0.871  1.6009 -0.2019 -0.1543
  738MOL0     H97352   2.757   8.726   0.780 -1.6747 -2.7779 -1.9008
  738MOL0     H97353   2.815   8.865   0.548  1.2510 -0.3739 -1.1302
  738MOL0     H97354   2.919   8.835   0.687  3.4864 -1.2335 -2.1950
  738MOL0     H97355   2.961   9.085   0.516  0.8931 -0.1740 -0.9363
  738MOL0     H97356   3.046   8.936   0.477  3.9034  0.8120  1.3699
  738MOL0     H97357   3.141   8.944   0.700  1.8001 -0.6214 -1.5591
  738MOL0     H97358   3.052   9.096   0.744 -2.2575 -1.8908 -0.1797
  738MOL0     H97359   3.291   9.054   0.558  3.1950  2.8594  0.1569
  738MOL0     H97360   3.187   9.195   0.538  1.0106 -0.9002 -1.6165
  738MOL0     H97361   3.326   9.126   0.802  2.8759 -2.2795 -1.0258
  738MOL0     H97362   3.249   9.276   0.758 -0.3067 -0.3162  0.6314
  738MOL0     H97363   3.501   9.283   0.750  0.8085 -1.0272 -0.8225
  738MOL0     H97364   3.439   9.311   0.588  0.6126  3.1882  2.1864
  738MOL0     H97365   3.516   9.039   0.693 -2.5893  2.2733  3.3635
  738MOL0     H97366   3.513   9.080   0.519 -3.4841  2.0850 -0.6460
  738MOL0     H97367   3.701   9.188   0.730  4.0982  1.4219 -0.8364
  738MOL0     H97368   3.691   9.242   0.565 -4.9368  0.8637 -0.6454
  738MOL0     H97369   3.818   8.943   0.764  0.2533  3.2829  0.1028
  738MOL0     H97370   4.089   8.788   0.572 -2.2334  0.1150 -0.6607
  738MOL0     H97371   4.074   8.831   0.740  1.4074  0.6903  0.6754
  738MOL0     H97372   4.201   9.043   0.695  1.3018 -1.6686  2.4506
  738MOL0     H97373   4.219   8.990   0.528 -0.4424  2.7568  1.1368
  738MOL0     H97374   4.300   8.830   0.781  0.0020  0.4863  0.7075
  738MOL0     H97375   4.345   8.801   0.600  1.9743 -0.3163  0.8732
  738MOL0     H97376   4.526   8.926   0.744 -1.0905  0.0500  3.2412
  738MOL0     H97377   4.403   9.040   0.780  0.9472  1.5522 -0.2172
  738MOL0     H97378   4.714   8.993   0.707  4.4930  1.1712 -0.2680
  738MOL0     H97379   4.905   9.102   0.665  0.7599 -0.1568  0.1442
  738MOL0     H97380   5.143   9.496   0.408  2.6136 -0.4678 -0.7774
  738MOL0     H97381   5.333   9.612   0.458  0.8443 -0.4129 -0.5185
  738MOL0     H97382   5.459   9.588   0.831 -3.2479  1.8679  0.4881
  738MOL0     H97383   5.388   9.699   0.719 -0.1371  0.2158  4.9181
  738MOL0     H97384   5.570   9.805   0.838 -2.5230  2.5428 -2.0487
  738MOL0     H97385   5.576   9.803   0.661 -2.0710 -0.7672 -0.2517
  738MOL0     H97386   5.810   9.774   0.748  1.0102 -0.6315 -0.3154
  738MOL0     H97387   5.754   9.619   0.687 -2.0723  0.4724 -1.5872
  738MOL0     H97388   5.767   9.706   0.975  1.5956  0.8172 -2.3507
  738MOL0     H97389   5.677   9.558   0.929  0.7241 -1.7492 -1.1453
  738MOL0     H97390   5.908   9.488   0.832  2.0531  2.5817 -0.7512
  738MOL0     H97391   5.887   9.500   1.011  1.2966  0.1199 -0.8118
  738MOL0     H97392   5.990   9.721   1.010  0.5915 -1.3881  2.1332
  738MOL0     H97393   6.022   9.713   0.840  2.4647 -1.1871 -0.4687
  738MOL0     H97394   6.153   9.496   0.871  0.9458 -1.1179  0.6252
  738MOL0     H97395   6.237   9.634   0.944 -2.0804  3.5611  0.5382
  738MOL0     H97396   6.224   9.418   1.082  1.1708  0.5527 -0.8459
  738MOL0     H97397   6.060   9.452   1.121  0.5886  0.4623  0.5497
  738MOL0     H97398   5.467   9.306   0.727 -0.5050 -0.4188 -0.7367
  738MOL0     H97399   5.261   9.179   0.697  3.7412 -0.1249  0.9122
  738MOL0     H97400   4.724   9.345   0.354 -0.9131 -0.3960 -1.1131
  738MOL0     H97401   4.510   9.206   0.384 -0.3225 -4.0484  0.1996
  738MOL0     H97402   2.555   9.104   0.737 -0.0153  0.2855  1.2761
  738MOL0     H97403   2.362   9.005   0.799  1.9398  1.5147  2.5937
  738MOL0     H97404   2.008   8.955   1.093 -0.4473  0.3969 -1.3085
  738MOL0     H97405   1.779   8.847   1.131  0.7327 -0.7054  1.5426
  738MOL0     H97406   1.751   8.408   1.094 -0.5019 -0.1667  1.2308
  738MOL0     H97407   1.682   8.481   0.949  2.0487 -0.2877  0.4541
  738MOL0     H97408   1.503   8.359   1.094 -3.5828  1.9080  0.9312
  738MOL0     H97409   1.560   8.468   1.218  1.0252  1.5242  0.2510
  738MOL0     H97410   1.416   8.507   0.942 -0.5166  1.2309 -0.4880
  738MOL0     H97411   1.496   8.643   1.015 -1.1780  1.2074 -0.2682
  738MOL0     H97412   1.298   8.490   1.178  1.8260 -2.5213 -2.4240
  738MOL0     H97413   1.332   8.663   1.185 -3.3696  2.6469 -1.7686
  738MOL0     H97414   1.000   8.670   0.942 -1.4144 -0.7342  2.7578
  738MOL0     H97415   1.925   8.478   0.970 -1.7472  0.5359 -0.9328
  738MOL0     H97416   2.143   8.582   0.920 -1.0855 -0.0555  0.3671
  739MOL0     O97417   9.399   0.504   0.978  0.1537  0.4923 -0.1027
  739MOL0     C97418   9.335   0.606   0.986 -0.1549 -0.2136  0.8229
  739MOL0     O97419   9.355   0.702   1.080 -0.1472  0.2287  0.0206
  739MOL0     C97420   9.480   0.698   1.129  0.4277 -0.1590 -0.0265
  739MOL0     C97421   9.584   0.777   1.074 -0.7960  0.2506  1.2347
  739MOL0     C97422   9.715   0.779   1.136 -0.4685 -0.1070  0.6358
  739MOL0     C97423   9.744   0.708   1.243 -0.1190  0.1986 -0.0191
  739MOL0     O97424   9.876   0.711   1.292  0.1197  0.5003 -0.3685
  739MOL0     C97425   9.900   0.703   1.433  0.8946 -0.3949  0.8385
  739MOL0     C97426  10.044   0.739   1.472 -0.1071  0.4459 -0.4267
  739MOL0     C97427  10.073   0.879   1.431 -0.4103 -0.0906  0.2924
  739MOL0     C97428  10.209   0.937   1.499 -0.4764  0.5723 -0.1174
  739MOL0     C97429  10.245   1.077   1.448 -0.1191  0.3593  0.3267
  739MOL0     C97430  10.379   1.112   1.508 -0.1936  0.0594  0.7546
  739MOL0     C97431  10.441   1.230   1.459 -0.4685 -0.5686 -0.2909
  739MOL0     C97432  10.402   1.344   1.546  0.1795 -0.4263 -0.3240
  739MOL0     N97433  10.454   1.476   1.516  0.6383  0.1492  0.1144
  739MOL0     C97434  10.413   1.567   1.417 -0.6654 -0.2354  1.0805
  739MOL0     C97435  10.504   1.674   1.428  0.3087 -0.0810 -0.7103
  739MOL0     C97436  10.490   1.802   1.350 -0.1283  0.2777 -0.1061
  739MOL0     C97437  10.626   1.886   1.343 -0.3231  0.0140  0.3855
  739MOL0     C97438  10.608   2.000   1.247 -0.2878  0.5202  0.2200
  739MOL0     C97439  10.740   2.085   1.234  0.4528 -0.7311  0.4506
  739MOL0     O97440  10.716   2.202   1.152  1.4367 -0.6198  0.9185
  739MOL0     C97441  10.796   2.309   1.164 -0.1245 -0.5799  0.6780
  739MOL0     C97442  10.931   2.297   1.202  0.2006 -0.2160  0.4130
  739MOL0     C97443  11.004   2.414   1.227 -0.4600 -0.0679  0.3878
  739MOL0     C97444  10.963   2.532   1.176  0.6214 -1.3805 -0.7541
  739MOL0     C97445  11.055   2.656   1.181  0.5074  0.1046  0.3052
  739MOL0     O97446  11.169   2.666   1.259  0.3375 -0.3531  0.5207
  739MOL0     C97447  11.242   2.783   1.264 -0.4940 -1.0017 -1.1941
  739MOL0     C97448  11.380   2.778   1.278 -0.1280 -0.0294  0.5141
  739MOL0     C97449  11.458   2.893   1.281 -0.2574 -0.1441 -0.3765
  739MOL0     C97450  11.395   3.021   1.280 -0.4127 -1.9413  0.0327
  739MOL0     O97451  11.468   3.134   1.304 -0.0274 -0.5069 -0.3250
  739MOL0     C97452  11.601   3.146   1.260  0.2470 -0.5219 -0.1124
  739MOL0     C97453  11.664   3.282   1.311  1.0728 -0.2012 -0.4004
  739MOL0     C97454  11.820   3.278   1.320 -0.0022 -0.5626 -0.6280
  739MOL0     C97455  11.880   3.259   1.186  0.2889 -0.3082  0.3178
  739MOL0     C97456  12.021   3.311   1.166 -0.2664  0.2098  0.0003
  739MOL0     C97457  12.111   3.253   1.273  0.0583 -0.1103 -0.3626
  739MOL0     C97458  12.252   3.256   1.230 -0.0068  0.5820 -0.4891
  739MOL0     C97459  12.338   3.173   1.314 -1.3496  0.4223  0.8254
  739MOL0    Cl97460  12.360   3.020   1.225  0.1209 -0.0537 -0.2746
  739MOL0     C97461  11.254   3.031   1.282  0.0105 -0.0254  0.3300
  739MOL0     C97462  11.181   2.909   1.279  0.4154 -0.4037  0.1712
  739MOL0     O97463  11.017   2.745   1.106  0.4065  0.4766 -0.4360
  739MOL0     C97464  10.832   2.548   1.143  0.5859  0.7069  0.4361
  739MOL0     C97465  10.754   2.434   1.129  0.8935 -0.1380 -0.1182
  739MOL0     N97466  10.588   1.649   1.531  0.5204  0.2141 -0.8405
  739MOL0     N97467  10.558   1.534   1.586  0.6626  0.6230  0.4656
  739MOL0     C97468   9.642   0.625   1.296 -0.2673 -0.5298 -0.2094
  739MOL0     C97469   9.513   0.619   1.244  0.6547  0.4437 -0.8712
  739MOL0     C97470   9.217   0.621   0.902  0.1932 -0.4577  0.6080
  739MOL0     C97471   9.157   0.515   0.827 -0.4601 -0.3641 -0.1878
  739MOL0     C97472   9.047   0.534   0.750  0.3250  0.6783  0.6171
  739MOL0     C97473   8.991   0.663   0.735  0.0380  0.3350 -0.0725
  739MOL0     O97474   8.871   0.683   0.666  0.9304 -0.0608  0.4891
  739MOL0     C97475   8.888   0.793   0.572  0.3605 -0.2286  0.0763
  739MOL0     C97476   8.948   0.751   0.439 -0.1255  0.1663  0.8760
  739MOL0     C97477   9.106   0.733   0.446  0.5856 -0.3354  0.7438
  739MOL0     C97478   9.159   0.712   0.308 -0.7066  0.3308 -0.2358
  739MOL0     C97479   9.193   0.840   0.247  0.3317  0.5126 -0.3225
  739MOL0     C97480   9.225   0.943   0.189 -0.0108 -0.1139  1.0798
  739MOL0     C97481   9.034   0.760   0.816 -0.1861  0.6336 -0.2405
  739MOL0     C97482   9.149   0.746   0.899  0.4882 -0.9508  0.4628
  739MOL0     H97483   9.566   0.827   0.979  1.4159  0.8289  1.0661
  739MOL0     H97484   9.788   0.842   1.085  0.9304 -1.9023  0.2882
  739MOL0     H97485   9.877   0.602   1.469 -3.7319 -0.3632 -1.2714
  739MOL0     H97486   9.829   0.772   1.480 -2.7012 -3.1077 -0.1211
  739MOL0     H97487  10.117   0.666   1.437  1.5050 -0.0423  3.4675
  739MOL0     H97488  10.056   0.738   1.581 -2.6047  6.4670  0.2768
  739MOL0     H97489  10.000   0.948   1.475  0.9957  1.6887 -0.0210
  739MOL0     H97490  10.087   0.897   1.324  0.6354 -2.3635 -0.0159
  739MOL0     H97491  10.200   0.935   1.608  0.0436  0.8698 -0.0676
  739MOL0     H97492  10.291   0.867   1.482  0.0756  0.0723  3.7053
  739MOL0     H97493  10.166   1.145   1.483 -2.0645 -0.3747 -2.3055
  739MOL0     H97494  10.238   1.077   1.339 -0.4540 -1.3779  0.3246
  739MOL0     H97495  10.453   1.036   1.481 -3.1820 -2.8759  0.1874
  739MOL0     H97496  10.373   1.101   1.617 -3.3623 -2.7001  0.4658
  739MOL0     H97497  10.548   1.216   1.479 -0.2108 -0.6445 -1.6567
  739MOL0     H97498  10.430   1.248   1.352 -0.4897 -0.7900 -0.3255
  739MOL0     H97499  10.415   1.332   1.654 -2.9711  0.6572  0.2874
  739MOL0     H97500  10.295   1.352   1.527  0.3309  0.4921 -0.8185
  739MOL0     H97501  10.344   1.541   1.337 -0.2785 -1.3346  1.0832
  739MOL0     H97502  10.407   1.858   1.394  0.1738 -1.1952  2.5316
  739MOL0     H97503  10.466   1.778   1.246 -1.0467  3.3121 -0.6711
  739MOL0     H97504  10.701   1.813   1.313 -1.7146 -0.6750 -1.6160
  739MOL0     H97505  10.668   1.918   1.439  2.3193 -0.0889 -0.6539
  739MOL0     H97506  10.572   1.966   1.149 -0.3042 -0.2237  0.4794
  739MOL0     H97507  10.539   2.074   1.290 -0.0747  1.3809 -0.8706
  739MOL0     H97508  10.824   2.033   1.188 -1.7763 -1.2021 -3.4962
  739MOL0     H97509  10.766   2.124   1.333  0.3172 -0.0830  0.2319
  739MOL0     H97510  10.976   2.201   1.223 -2.9288 -1.8428  0.2853
  739MOL0     H97511  11.091   2.400   1.292  0.7088  1.2043 -0.8402
  739MOL0     H97512  11.424   2.679   1.277 -0.9505 -0.4197 -1.3642
  739MOL0     H97513  11.563   2.870   1.283 -0.4645 -1.0554  0.9906
  739MOL0     H97514  11.606   3.143   1.151  0.7046 -3.4488 -0.1153
  739MOL0     H97515  11.661   3.061   1.296 -2.3747 -2.2561  0.3976
  739MOL0     H97516  11.623   3.296   1.412 -0.6828  1.2745 -1.2521
  739MOL0     H97517  11.623   3.364   1.251 -1.1767 -1.3203 -0.4652
  739MOL0     H97518  11.864   3.209   1.393 -0.6075 -1.5883 -1.2154
  739MOL0     H97519  11.852   3.378   1.353  0.4063 -1.2273  1.1272
  739MOL0     H97520  11.859   3.154   1.162 -2.8849  0.2151  0.3404
  739MOL0     H97521  11.817   3.317   1.118 -1.1719  0.9459  2.6127
  739MOL0     H97522  12.020   3.420   1.174 -1.1994  0.0538  3.6094
  739MOL0     H97523  12.064   3.271   1.074 -2.1441 -2.0824  0.0134
  739MOL0     H97524  12.063   3.158   1.296 -0.7958  0.8600  2.1540
  739MOL0     H97525  12.102   3.325   1.355  0.4093  0.1992 -0.5916
  739MOL0     H97526  12.269   3.229   1.126 -0.6234  4.6894 -1.8430
  739MOL0     H97527  12.271   3.363   1.244 -1.8201  0.7387  1.2760
  739MOL0     H97528  12.296   3.169   1.415 -0.1794 -1.2425  1.2884
  739MOL0     H97529  12.437   3.219   1.309 -0.3807 -1.4659  1.7668
  739MOL0     H97530  11.199   3.124   1.282 -0.2788 -0.1543  2.2714
  739MOL0     H97531  11.075   2.924   1.297  0.8114  4.5661 -0.0509
  739MOL0     H97532  10.783   2.640   1.114 -1.8078  1.1743  4.9908
  739MOL0     H97533  10.658   2.436   1.077  0.6718 -3.6858 -0.1340
  739MOL0     H97534   9.666   0.575   1.389 -1.7991  0.4469  0.7669
  739MOL0     H97535   9.442   0.549   1.288  1.1029 -0.0093 -0.8527
  739MOL0     H97536   9.196   0.414   0.829  3.2707  0.9316  0.0716
  739MOL0     H97537   9.016   0.461   0.676  3.5946  0.3771 -0.6186
  739MOL0     H97538   8.957   0.868   0.611 -3.3141  2.2592  2.5097
  739MOL0     H97539   8.799   0.854   0.552  2.6373  2.1694 -4.1832
  739MOL0     H97540   8.896   0.662   0.402  0.8966  0.6969 -2.0928
  739MOL0     H97541   8.925   0.836   0.374 -1.1139  1.3938  2.7594
  739MOL0     H97542   9.145   0.661   0.517  2.4369  0.5864  0.7170
  739MOL0     H97543   9.143   0.832   0.475  5.0093 -0.4575 -3.2620
  739MOL0     H97544   9.247   0.647   0.308 -1.6753 -1.0758 -1.4573
  739MOL0     H97545   9.084   0.664   0.244 -2.5995  3.0735 -0.2686
  739MOL0     H97546   9.247   1.023   0.122 -0.0192 -0.7939  0.2438
  739MOL0     H97547   8.983   0.856   0.813  0.7673  1.1279 -1.7829
  739MOL0     H97548   9.178   0.833   0.958  1.3083 -0.1556 -1.0409
  740MOL0     O97549   9.585   9.204   6.085  0.6949  0.1000 -0.2664
  740MOL0     C97550   9.636   9.224   5.977  0.4029  0.6026 -1.2293
  740MOL0     O97551   9.572   9.259   5.868 -0.2592 -0.5205  0.8122
  740MOL0     C97552   9.435   9.289   5.866  0.1017  0.0123 -0.6006
  740MOL0     C97553   9.361   9.353   5.965  0.2144  0.4639  0.1282
  740MOL0     C97554   9.223   9.360   5.957 -0.3483 -0.5270  0.9365
  740MOL0     C97555   9.159   9.347   5.832  0.4968  0.5329 -0.2459
  740MOL0     O97556   9.021   9.391   5.832  0.3707 -0.1929  0.1128
  740MOL0     C97557   8.953   9.355   5.717 -0.1079 -1.1808  0.4065
  740MOL0     C97558   8.804   9.353   5.741  0.2220  0.6870  0.1328
  740MOL0     C97559   8.729   9.307   5.617  1.1259  0.2633 -0.6118
  740MOL0     C97560   8.577   9.349   5.622  0.4826  0.0384  0.4954
  740MOL0     C97561   8.487   9.301   5.506 -0.4621  0.1662 -0.4389
  740MOL0     C97562   8.462   9.154   5.497  0.1401 -0.0695 -0.0245
  740MOL0     C97563   8.373   9.118   5.385 -0.2370  0.0158  0.4141
  740MOL0     C97564   8.362   8.970   5.356  0.3678  1.2076  0.2381
  740MOL0     N97565   8.258   8.934   5.254  0.3392 -0.4161 -0.5064
  740MOL0     C97566   8.120   8.959   5.273 -0.4234 -0.3189 -0.5283
  740MOL0     C97567   8.065   8.910   5.162 -0.5218 -0.1382  0.1530
  740MOL0     C97568   7.918   8.936   5.124 -0.4975 -0.1441  0.4650
  740MOL0     C97569   7.825   8.817   5.140  0.2874  1.1681 -0.9671
  740MOL0     C97570   7.884   8.684   5.085  0.0356 -0.5632  1.6545
  740MOL0     C97571   7.918   8.700   4.931  0.0712  0.2791  0.4066
  740MOL0     O97572   8.014   8.593   4.909 -1.1199  0.8291  0.2146
  740MOL0     C97573   7.957   8.462   4.906 -0.2289 -0.0060 -0.0607
  740MOL0     C97574   7.869   8.429   4.805  0.6536 -1.0223  0.6928
  740MOL0     C97575   7.832   8.294   4.790 -0.1897  0.9857 -0.1625
  740MOL0     C97576   7.895   8.189   4.862 -0.1864  0.5225  1.4789
  740MOL0     C97577   7.855   8.055   4.829  0.7741 -0.2360 -0.3724
  740MOL0     O97578   7.763   8.034   4.738  0.0158 -0.1873  0.8808
  740MOL0     C97579   7.720   7.911   4.711 -0.3102 -0.4357 -0.2568
  740MOL0     C97580   7.713   7.874   4.573 -0.0641  0.2642  0.3340
  740MOL0     C97581   7.656   7.747   4.550  0.4784 -0.5072  0.6054
  740MOL0     C97582   7.617   7.658   4.656  0.1709 -0.4108  0.5942
  740MOL0     O97583   7.553   7.535   4.631 -0.2707  0.6755  0.3136
  740MOL0     C97584   7.514   7.514   4.489  0.5044  0.6619 -0.2997
  740MOL0     C97585   7.461   7.368   4.460 -0.2809  0.0388 -0.4257
  740MOL0     C97586   7.566   7.259   4.497 -0.4230  0.7932  0.5032
  740MOL0     C97587   7.523   7.115   4.490  0.2324 -0.0850  0.9426
  740MOL0     C97588   7.463   7.061   4.361 -0.5157 -0.0605  0.6377
  740MOL0     C97589   7.432   6.914   4.391  0.5290 -0.3912  0.1313
  740MOL0     C97590   7.395   6.816   4.279  0.1038 -0.2314  0.1848
  740MOL0     C97591   7.437   6.679   4.319  0.4704 -0.1718 -0.0799
  740MOL0    Cl97592   7.410   6.565   4.179 -0.2489  0.0355  0.0110
  740MOL0     C97593   7.634   7.697   4.783  0.2227 -1.1590 -0.0195
  740MOL0     C97594   7.685   7.819   4.813 -0.3988  0.0866 -0.6206
  740MOL0     O97595   7.907   7.968   4.899  0.6729 -0.3544 -0.7589
  740MOL0     C97596   7.990   8.218   4.962 -0.3641 -1.1085  0.0738
  740MOL0     C97597   8.016   8.355   4.985 -0.2984 -0.4262 -0.3333
  740MOL0     N97598   8.160   8.859   5.079 -0.1979  0.7930  0.4462
  740MOL0     N97599   8.281   8.864   5.140 -0.8641 -0.1224 -0.6025
  740MOL0     C97600   9.237   9.288   5.734  0.6489 -0.4909 -0.9161
  740MOL0     C97601   9.365   9.269   5.749 -0.6030  0.3111  0.2457
  740MOL0     C97602   9.786   9.224   5.978  0.2887  0.6330  0.3490
  740MOL0     C97603   9.853   9.203   6.097 -0.0014  0.2967  0.0226
  740MOL0     C97604   9.993   9.205   6.099  0.4508  0.3846 -0.4143
  740MOL0     C97605  10.066   9.209   5.981  0.1703  0.2426  0.3276
  740MOL0     O97606  10.197   9.195   5.971 -1.0631  0.0415  0.4754
  740MOL0     C97607  10.277   9.147   6.083 -0.1503  0.3810  0.3108
  740MOL0     C97608  10.317   9.264   6.178  0.4696 -0.0322  0.4325
  740MOL0     C97609  10.428   9.235   6.273 -0.4478  0.3967 -0.0750
  740MOL0     C97610  10.522   9.344   6.320  0.4329 -0.4299  0.0332
  740MOL0     C97611  10.624   9.293   6.422  0.1525  0.8375  0.0476
  740MOL0     C97612  10.708   9.262   6.507  0.2480  0.0362 -0.0896
  740MOL0     C97613  10.000   9.231   5.858 -1.1963 -1.0544  1.2073
  740MOL0     C97614   9.861   9.253   5.861  0.6928 -0.5278  0.2602
  740MOL0     H97615   9.404   9.384   6.060 -1.6107  1.6721  0.6238
  740MOL0     H97616   9.160   9.397   6.038 -0.5933  1.6861 -0.2008
  740MOL0     H97617   8.975   9.254   5.681  2.0269 -1.2523  1.7661
  740MOL0     H97618   8.981   9.433   5.645  2.7006 -1.4771  1.0601
  740MOL0     H97619   8.778   9.452   5.779  2.5259  1.5877 -0.4497
  740MOL0     H97620   8.767   9.289   5.822 -3.2008  2.0285 -0.2240
  740MOL0     H97621   8.758   9.203   5.597  3.4459  0.7248  0.0310
  740MOL0     H97622   8.762   9.369   5.533  1.1218 -1.5225 -1.9893
  740MOL0     H97623   8.540   9.310   5.717 -0.0991  0.8317  0.6034
  740MOL0     H97624   8.579   9.458   5.627  1.4700  0.3383 -3.3458
  740MOL0     H97625   8.542   9.336   5.418  0.4523 -0.5207 -0.1530
  740MOL0     H97626   8.388   9.348   5.510 -0.2841  0.5612 -0.6320
  740MOL0     H97627   8.408   9.118   5.585  0.7547  0.1384  0.4471
  740MOL0     H97628   8.553   9.101   5.467 -1.6644 -1.9024 -2.7117
  740MOL0     H97629   8.272   9.161   5.392 -0.4598 -0.2627 -0.9181
  740MOL0     H97630   8.417   9.164   5.296 -0.1646  2.4290  1.6149
  740MOL0     H97631   8.319   8.914   5.439  0.7593 -0.6646 -0.7575
  740MOL0     H97632   8.460   8.923   5.341 -1.9980 -3.6048 -2.6890
  740MOL0     H97633   8.070   9.006   5.357 -1.1090 -1.6491 -0.1633
  740MOL0     H97634   7.919   8.978   5.023  1.2505  1.4792  1.0968
  740MOL0     H97635   7.887   9.014   5.193 -1.1480  0.0345 -0.0217
  740MOL0     H97636   7.733   8.847   5.090  1.4343  4.8655 -1.2015
  740MOL0     H97637   7.808   8.795   5.246 -1.8921  3.0401 -0.8526
  740MOL0     H97638   7.969   8.644   5.142  1.5794 -4.0748 -2.5800
  740MOL0     H97639   7.804   8.611   5.068 -0.7075  1.1705 -5.2643
  740MOL0     H97640   7.972   8.788   4.895  0.3809  0.4824  1.3381
  740MOL0     H97641   7.829   8.704   4.867 -0.1255  4.1488  0.6654
  740MOL0     H97642   7.822   8.503   4.741  2.0024 -0.3222  0.4751
  740MOL0     H97643   7.754   8.275   4.718  1.2658  0.8387 -1.7534
  740MOL0     H97644   7.748   7.937   4.492 -2.0330 -0.5981 -1.2678
  740MOL0     H97645   7.649   7.721   4.445  1.8887  0.3841  0.2650
  740MOL0     H97646   7.603   7.528   4.427  1.3993  0.3585  0.8844
  740MOL0     H97647   7.430   7.577   4.458 -0.5936 -1.1729 -1.2504
  740MOL0     H97648   7.439   7.358   4.353  0.2524 -3.1909 -0.3294
  740MOL0     H97649   7.365   7.354   4.511 -0.3228  4.3561  1.1262
  740MOL0     H97650   7.604   7.267   4.599  0.1823  0.5471  0.3089
  740MOL0     H97651   7.649   7.269   4.426  0.9528  0.0278  1.9264
  740MOL0     H97652   7.603   7.059   4.539 -0.7081 -0.2340  2.3902
  740MOL0     H97653   7.435   7.108   4.555 -0.7325  0.0378 -0.3255
  740MOL0     H97654   7.529   7.066   4.274 -3.7559 -2.5068 -2.2425
  740MOL0     H97655   7.377   7.120   4.328  0.7185  1.1939 -0.4595
  740MOL0     H97656   7.348   6.918   4.462  1.1555  1.9570  0.8312
  740MOL0     H97657   7.515   6.868   4.444 -1.6221 -1.2024  3.0812
  740MOL0     H97658   7.288   6.829   4.260  0.5258  0.8601 -1.6238
  740MOL0     H97659   7.446   6.835   4.184 -2.7061 -0.3477 -1.4594
  740MOL0     H97660   7.382   6.647   4.408  0.0345  2.0184  0.4867
  740MOL0     H97661   7.540   6.676   4.355 -0.3918 -2.5023  2.5790
  740MOL0     H97662   7.604   7.639   4.870 -1.8171 -0.3877 -0.1483
  740MOL0     H97663   7.681   7.851   4.917 -3.9420  0.1009 -0.6203
  740MOL0     H97664   8.042   8.140   5.016  0.5657 -0.9158 -0.5357
  740MOL0     H97665   8.102   8.388   5.042  0.0963 -2.3954  0.2908
  740MOL0     H97666   9.194   9.267   5.637  1.1214 -0.1434 -1.2061
  740MOL0     H97667   9.416   9.224   5.665 -2.2889 -0.5127 -0.3681
  740MOL0     H97668   9.804   9.185   6.192 -0.2519  0.9055  0.0087
  740MOL0     H97669  10.034   9.191   6.198  1.5757  0.2224 -0.8874
  740MOL0     H97670  10.370   9.103   6.047  1.9401  3.3702  1.5369
  740MOL0     H97671  10.227   9.059   6.124  1.0107 -0.3711  0.1332
  740MOL0     H97672  10.341   9.352   6.118 -0.1778 -0.6494 -0.7711
  740MOL0     H97673  10.225   9.290   6.231 -0.8478 -0.1608 -1.6648
  740MOL0     H97674  10.496   9.155   6.243  0.6194  1.4954 -0.6618
  740MOL0     H97675  10.384   9.191   6.363 -0.9312  0.6403 -0.1886
  740MOL0     H97676  10.585   9.370   6.235  1.8214 -0.4229  1.0261
  740MOL0     H97677  10.478   9.436   6.359 -1.3891 -0.8286 -0.9618
  740MOL0     H97678  10.789   9.236   6.572  0.8980  1.4164 -0.3272
  740MOL0     H97679  10.062   9.249   5.771 -3.2118 -0.1567 -0.1187
  740MOL0     H97680   9.808   9.273   5.769  2.4711  2.5900 -0.2393
  741MOL0     O97681   8.255   1.564   7.804 -0.3838  0.9188  0.0651
  741MOL0     C97682   8.288   1.605   7.919 -0.5571 -0.7614  0.0163
  741MOL0     O97683   8.205   1.658   8.011 -0.5631  0.1508  0.1494
  741MOL0     C97684   8.073   1.630   7.995 -0.0520  0.0810  0.6874
  741MOL0     C97685   8.008   1.564   8.106 -0.7083 -0.8812  0.8267
  741MOL0     C97686   7.870   1.540   8.099  0.0729 -0.0257 -0.0270
  741MOL0     C97687   7.800   1.588   7.983 -0.2404 -0.3898  0.4845
  741MOL0     O97688   7.668   1.589   7.954 -0.2368  0.6737 -1.2383
  741MOL0     C97689   7.574   1.556   8.045 -0.1718  0.5617  0.0228
  741MOL0     C97690   7.432   1.565   7.983  0.4046 -0.1525 -0.7250
  741MOL0     C97691   7.328   1.497   8.075 -0.9320  0.5233 -0.3543
  741MOL0     C97692   7.185   1.523   8.041 -0.1818 -0.0585  0.5453
  741MOL0     C97693   7.136   1.665   8.060  0.2628  0.7786  0.2230
  741MOL0     C97694   7.013   1.689   7.981 -0.1845 -0.5002 -0.4791
  741MOL0     C97695   6.935   1.796   8.060 -0.0943  1.3750 -1.4968
  741MOL0     C97696   6.804   1.805   8.009  0.4009 -0.3131  0.1465
  741MOL0     N97697   6.733   1.908   8.082 -0.6033 -0.1824  0.3262
  741MOL0     C97698   6.740   2.056   8.093 -0.3728  1.0484 -0.0696
  741MOL0     C97699   6.635   2.098   8.171  0.3848  0.0962 -0.9593
  741MOL0     C97700   6.607   2.239   8.208  0.1540  0.0303  0.4305
  741MOL0     C97701   6.475   2.265   8.279 -1.3961  0.0769 -0.7390
  741MOL0     C97702   6.456   2.408   8.339  0.1126  0.0438  0.8768
  741MOL0     C97703   6.345   2.493   8.271  0.3657  0.2801  0.1921
  741MOL0     O97704   6.219   2.424   8.260  0.8046 -0.0202  0.0667
  741MOL0     C97705   6.133   2.481   8.160  0.0836 -0.2451 -1.0779
  741MOL0     C97706   6.127   2.613   8.121 -0.1959  0.9151 -1.1939
  741MOL0     C97707   6.026   2.658   8.031 -0.1598  0.7949  0.2084
  741MOL0     C97708   5.933   2.563   7.975 -0.3218 -0.0979  0.6508
  741MOL0     C97709   5.832   2.595   7.870 -0.8435  0.1713  0.2957
  741MOL0     O97710   5.862   2.699   7.789  0.1243  0.8124  0.8724
  741MOL0     C97711   5.756   2.751   7.712  0.4991  0.2958 -0.0978
  741MOL0     C97712   5.764   2.761   7.574  0.7853  0.0919  0.6294
  741MOL0     C97713   5.671   2.825   7.501 -0.2071  0.1600 -0.0158
  741MOL0     C97714   5.568   2.886   7.564  0.4976  0.7086 -0.6151
  741MOL0     O97715   5.490   2.965   7.493  0.3945 -0.2494  0.1313
  741MOL0     C97716   5.390   2.910   7.409 -0.6895  0.2888  0.4516
  741MOL0     C97717   5.408   2.951   7.262  0.1899  0.3898  0.4906
  741MOL0     C97718   5.388   3.098   7.256  0.2356  0.0758  0.7393
  741MOL0     C97719   5.405   3.166   7.118  0.4453 -0.3238 -0.3796
  741MOL0     C97720   5.353   3.079   7.005  0.0096  0.0388 -0.1123
  741MOL0     C97721   5.373   3.146   6.869 -0.6140 -0.3237 -0.5528
  741MOL0     C97722   5.292   3.070   6.757 -0.0050  1.1557 -0.0669
  741MOL0     C97723   5.261   3.163   6.643 -0.1869  0.1608 -0.9915
  741MOL0    Cl97724   5.386   3.285   6.613  0.4970 -0.1718  0.0381
  741MOL0     C97725   5.547   2.878   7.704  0.1342  0.0073 -0.8113
  741MOL0     C97726   5.648   2.809   7.776 -0.0805 -0.4026 -0.3996
  741MOL0     O97727   5.730   2.520   7.856 -0.7386  0.5176 -0.4712
  741MOL0     C97728   5.945   2.435   8.017  0.0072  0.5264 -0.1168
  741MOL0     C97729   6.032   2.401   8.120 -0.4773  0.3574  0.5641
  741MOL0     N97730   6.577   1.986   8.219 -0.8363 -0.5102 -0.5601
  741MOL0     N97731   6.634   1.877   8.167 -0.2334 -0.1234  0.0017
  741MOL0     C97732   7.872   1.646   7.876  0.3283 -0.9081  0.0258
  741MOL0     C97733   8.001   1.681   7.885 -0.6350  0.0582 -1.2562
  741MOL0     C97734   8.430   1.605   7.953 -0.2666  0.1157 -0.2925
  741MOL0     C97735   8.460   1.615   8.091 -0.0821  0.6258 -0.5636
  741MOL0     C97736   8.591   1.623   8.131 -0.2594 -0.8177  0.2670
  741MOL0     C97737   8.698   1.634   8.037  1.9287  0.2508 -0.3302
  741MOL0     O97738   8.825   1.631   8.078  0.0294 -0.4009 -0.3924
  741MOL0     C97739   8.940   1.602   7.995 -0.0117 -0.4709  0.1275
  741MOL0     C97740   8.943   1.459   7.959 -0.2103  0.3960 -0.0187
  741MOL0     C97741   9.062   1.420   7.881  0.6717 -0.5091 -0.2463
  741MOL0     C97742   9.092   1.272   7.869  0.9452 -0.0621  0.4363
  741MOL0     C97743   9.204   1.264   7.770  0.2651 -0.2386 -0.1001
  741MOL0     C97744   9.287   1.233   7.688  0.8994 -0.5711  0.6682
  741MOL0     C97745   8.663   1.636   7.899 -0.6102  0.1825 -0.1774
  741MOL0     C97746   8.531   1.612   7.858  0.0297  0.4308 -0.4720
  741MOL0     H97747   8.066   1.530   8.191  1.8588  1.2163  0.0625
  741MOL0     H97748   7.819   1.490   8.181  2.7107  0.3216  1.9462
  741MOL0     H97749   7.592   1.621   8.131  4.1993  0.0245 -0.2516
  741MOL0     H97750   7.593   1.456   8.084 -1.8000 -0.6069 -1.9885
  741MOL0     H97751   7.422   1.523   7.883  0.4389 -1.3585 -0.2527
  741MOL0     H97752   7.401   1.669   7.970 -1.4504 -0.6279 -0.3494
  741MOL0     H97753   7.340   1.531   8.178 -2.3814 -2.7945  1.0722
  741MOL0     H97754   7.348   1.389   8.084 -0.8839  0.5373 -0.2959
  741MOL0     H97755   7.170   1.487   7.939  3.5184 -2.4608  0.6529
  741MOL0     H97756   7.134   1.467   8.120  2.8639  0.0256  2.7506
  741MOL0     H97757   7.209   1.733   8.016 -0.1835 -0.7015 -3.1724
  741MOL0     H97758   7.119   1.688   8.165  0.4969 -0.4377  0.5450
  741MOL0     H97759   6.951   1.600   7.967 -1.8460  0.4081  0.7878
  741MOL0     H97760   7.028   1.727   7.879 -2.8684 -0.4916 -0.9439
  741MOL0     H97761   6.930   1.752   8.160  0.7852 -1.2997 -2.5381
  741MOL0     H97762   6.991   1.890   8.068 -0.5075  1.4479  2.0489
  741MOL0     H97763   6.753   1.708   8.011 -0.4590 -0.0051 -2.7323
  741MOL0     H97764   6.801   1.835   7.904  0.7386  0.4184  0.3351
  741MOL0     H97765   6.820   2.107   8.040  2.0290 -1.6190  0.7544
  741MOL0     H97766   6.617   2.291   8.112 -0.1200  0.7421  0.7881
  741MOL0     H97767   6.691   2.277   8.268  0.8411  0.4147 -0.7334
  741MOL0     H97768   6.468   2.195   8.363  0.8853  0.1760 -0.3875
  741MOL0     H97769   6.392   2.226   8.220 -2.4722 -2.8737  2.3716
  741MOL0     H97770   6.431   2.400   8.446  1.4996  1.5775  1.3485
  741MOL0     H97771   6.554   2.455   8.332  2.4734 -3.5490  4.9077
  741MOL0     H97772   6.378   2.507   8.167  1.7959 -4.1573 -0.1573
  741MOL0     H97773   6.327   2.590   8.319  1.2398  0.9480 -0.7795
  741MOL0     H97774   6.194   2.678   8.176 -0.0605 -2.0522  2.5404
  741MOL0     H97775   6.048   2.757   7.991  1.7329  0.0231 -0.7993
  741MOL0     H97776   5.845   2.712   7.520  0.8270  2.0306 -1.1798
  741MOL0     H97777   5.682   2.835   7.393 -1.1781  2.5019  0.0604
  741MOL0     H97778   5.296   2.945   7.453 -1.5275 -1.3778  0.0571
  741MOL0     H97779   5.386   2.802   7.420 -1.7189  0.2598 -0.0810
  741MOL0     H97780   5.333   2.902   7.201 -0.8921 -0.1039  2.1412
  741MOL0     H97781   5.509   2.936   7.222  0.9420  2.8785  1.2121
  741MOL0     H97782   5.457   3.144   7.328  2.5593 -2.7923  0.5732
  741MOL0     H97783   5.285   3.112   7.290 -1.3758 -0.3898 -3.3710
  741MOL0     H97784   5.363   3.267   7.110 -0.7132 -0.5163  2.3424
  741MOL0     H97785   5.511   3.192   7.116  0.2857  1.0992  2.9677
  741MOL0     H97786   5.251   3.051   7.031  1.0278 -2.4120  1.6922
  741MOL0     H97787   5.407   2.984   7.002  0.2491  0.1929 -2.6520
  741MOL0     H97788   5.481   3.148   6.854 -0.0506  0.1092  2.7442
  741MOL0     H97789   5.329   3.246   6.863  0.0289 -0.1215 -2.7850
  741MOL0     H97790   5.355   2.990   6.718 -0.3778  0.4522  0.7339
  741MOL0     H97791   5.200   3.018   6.784 -1.4137  2.5112 -2.0322
  741MOL0     H97792   5.173   3.221   6.672 -0.2926  0.1524 -1.2944
  741MOL0     H97793   5.242   3.108   6.551  1.4816 -0.5231 -0.9592
  741MOL0     H97794   5.463   2.926   7.753 -1.1999 -1.1468 -1.8822
  741MOL0     H97795   5.643   2.802   7.884 -0.8742  4.1406  0.0869
  741MOL0     H97796   5.872   2.361   7.986  0.4656 -0.3669  0.8581
  741MOL0     H97797   6.038   2.297   8.150 -0.0014  0.7587  1.9556
  741MOL0     H97798   7.819   1.685   7.789 -3.3673 -1.4163  1.8500
  741MOL0     H97799   8.058   1.730   7.807  1.9780  0.8727  0.9816
  741MOL0     H97800   8.385   1.608   8.168  1.5150  3.1087  1.4003
  741MOL0     H97801   8.614   1.630   8.236  3.5100  1.1077 -0.5277
  741MOL0     H97802   9.025   1.626   8.059 -1.2149  1.5118  1.0697
  741MOL0     H97803   8.933   1.664   7.905 -2.3690 -2.1894 -0.9848
  741MOL0     H97804   8.926   1.399   8.049 -1.1914 -0.0563 -0.4892
  741MOL0     H97805   8.862   1.425   7.894 -0.1679 -0.1226  0.1954
  741MOL0     H97806   9.147   1.458   7.939 -0.1958  0.2033  0.5853
  741MOL0     H97807   9.063   1.464   7.781  0.9162  2.9271  1.1555
  741MOL0     H97808   9.121   1.230   7.966 -3.5242 -0.9927  1.5758
  741MOL0     H97809   9.005   1.219   7.832  0.9219 -0.4431  1.0352
  741MOL0     H97810   9.346   1.189   7.610 -1.0367 -0.9418 -0.6682
  741MOL0     H97811   8.735   1.638   7.818  0.2902  1.9762  0.5945
  741MOL0     H97812   8.501   1.612   7.754 -0.2879 -0.4604 -0.3953
  742MOL0     O97813  10.633   0.329   3.099  0.1041  0.7568  0.1762
  742MOL0     C97814  10.606   0.262   2.997 -1.3747 -0.2121 -0.2520
  742MOL0     O97815  10.488   0.209   2.966  0.6409  0.4874  0.4157
  742MOL0     C97816  10.390   0.205   3.063 -1.2232 -0.2782 -0.2434
  742MOL0     C97817  10.418   0.155   3.197  0.9622 -0.3950  1.5650
  742MOL0     C97818  10.307   0.153   3.296  0.3373  0.0087 -0.9761
  742MOL0     C97819  10.181   0.199   3.260  0.4905 -0.8754  1.0853
  742MOL0     O97820  10.066   0.198   3.325 -0.1852 -0.0218  0.2105
  742MOL0     C97821  10.065   0.114   3.440  0.7075 -0.3932  0.7283
  742MOL0     C97822   9.927   0.118   3.512 -0.4417 -0.0398  0.0480
  742MOL0     C97823   9.842   0.009   3.451  0.1191 -0.2768  0.6648
  742MOL0     C97824   9.695   0.005   3.505 -0.4922  0.2874 -0.2889
  742MOL0     C97825   9.626  -0.125   3.478  1.0064 -0.2092 -0.7488
  742MOL0     C97826   9.684  -0.236   3.572  1.1201 -0.1266 -0.1398
  742MOL0     C97827   9.603  -0.368   3.548  0.8923  0.3973  0.8887
  742MOL0     C97828   9.657  -0.480   3.638  0.0614  0.0756 -0.0249
  742MOL0     N97829   9.624  -0.470   3.781 -0.6325 -0.2916 -0.2477
  742MOL0     C97830   9.531  -0.395   3.839 -0.5725  0.6409 -0.5901
  742MOL0     C97831   9.526  -0.439   3.968  0.2939 -0.5919  0.0336
  742MOL0     C97832   9.443  -0.377   4.077 -0.2766  0.5100 -0.0491
  742MOL0     C97833   9.372  -0.497   4.152  0.7096  0.3243 -0.5361
  742MOL0     C97834   9.267  -0.448   4.244 -0.3131  0.0211 -0.0138
  742MOL0     C97835   9.323  -0.361   4.360  0.2932 -0.1508  0.1473
  742MOL0     O97836   9.450  -0.412   4.412  0.1195  0.5196  0.1060
  742MOL0     C97837   9.434  -0.500   4.517  0.2278 -0.5483 -0.6262
  742MOL0     C97838   9.320  -0.570   4.563  0.2428  0.2407  0.3592
  742MOL0     C97839   9.326  -0.670   4.662  0.0275  0.0889 -0.0813
  742MOL0     C97840   9.444  -0.700   4.723 -0.4069 -0.0900 -1.3823
  742MOL0     C97841   9.447  -0.807   4.830 -0.8212 -0.2414 -0.7209
  742MOL0     O97842   9.329  -0.871   4.859  0.4983 -0.2025 -0.3159
  742MOL0     C97843   9.314  -0.974   4.949 -0.0274 -0.4188  0.3144
  742MOL0     C97844   9.182  -1.012   4.992  0.0248  0.4948  0.1113
  742MOL0     C97845   9.155  -1.129   5.055  0.3836  0.6583  0.3985
  742MOL0     C97846   9.267  -1.221   5.075  0.5579  0.2041 -1.1810
  742MOL0     O97847   9.261  -1.347   5.130  0.8554  0.5016  0.0237
  742MOL0     C97848   9.153  -1.387   5.208  0.2650 -0.0182 -0.3870
  742MOL0     C97849   9.143  -1.337   5.351 -0.0675 -0.3334 -1.1196
  742MOL0     C97850   9.008  -1.308   5.412  0.1468 -0.2257  0.3223
  742MOL0     C97851   9.001  -1.283   5.564 -0.6267  0.0086 -1.4345
  742MOL0     C97852   8.855  -1.272   5.613  0.3238 -0.0902 -0.0895
  742MOL0     C97853   8.836  -1.221   5.756  1.0786  0.1672 -0.2458
  742MOL0     C97854   8.826  -1.349   5.842 -0.1605 -0.5582  0.5279
  742MOL0     C97855   8.795  -1.312   5.990  0.0690  0.0034 -0.5470
  742MOL0    Cl97856   8.910  -1.171   6.045  0.1849  0.0626  0.1674
  742MOL0     C97857   9.397  -1.179   5.047 -0.2700 -0.1879  0.8158
  742MOL0     C97858   9.424  -1.059   4.990 -0.1746 -0.6071  0.7279
  742MOL0     O97859   9.560  -0.826   4.875  0.5904 -0.3098 -0.3735
  742MOL0     C97860   9.558  -0.627   4.688 -0.0884 -0.4406 -0.4372
  742MOL0     C97861   9.552  -0.526   4.590  0.9802  1.0118 -0.0443
  742MOL0     N97862   9.612  -0.544   3.988  0.6105 -0.1246 -0.1053
  742MOL0     N97863   9.668  -0.558   3.875  0.2482  0.0873  0.0433
  742MOL0     C97864  10.159   0.233   3.123  0.0119 -0.3095 -0.7028
  742MOL0     C97865  10.262   0.240   3.024  0.5086 -0.2645 -0.1109
  742MOL0     C97866  10.712   0.287   2.891  0.5314  0.1674  0.6856
  742MOL0     C97867  10.676   0.292   2.747 -0.2421 -0.2374  0.2567
  742MOL0     C97868  10.761   0.342   2.646  0.3657 -0.8664 -1.1965
  742MOL0     C97869  10.886   0.381   2.681  0.6239 -0.3481  0.4532
  742MOL0     O97870  10.949   0.427   2.576 -0.4619 -0.4503 -0.1994
  742MOL0     C97871  11.087   0.442   2.599  0.0128 -0.3518  0.0109
  742MOL0     C97872  11.170   0.446   2.473  0.1943  0.0577  0.2556
  742MOL0     C97873  11.315   0.491   2.486  1.0284  0.5261  0.4199
  742MOL0     C97874  11.326   0.640   2.465 -0.7587 -0.2543  0.0893
  742MOL0     C97875  11.462   0.689   2.483 -0.6240 -0.6198 -0.2057
  742MOL0     C97876  11.587   0.700   2.498  0.1955 -0.5266  0.1018
  742MOL0     C97877  10.924   0.379   2.820  0.0517 -0.4238 -0.1805
  742MOL0     C97878  10.843   0.320   2.925 -0.5628 -0.6819  0.4394
  742MOL0     H97879  10.521   0.140   3.226  1.6294  1.4108  0.3635
  742MOL0     H97880  10.341   0.119   3.393  0.8542 -0.3587 -1.2771
  742MOL0     H97881  10.138   0.145   3.515 -2.0508  0.5611  3.1919
  742MOL0     H97882  10.082   0.016   3.395  0.2208  0.8253 -2.3701
  742MOL0     H97883   9.883   0.218   3.521  1.8547  1.0477 -0.2068
  742MOL0     H97884   9.941   0.095   3.618  1.0059 -1.0520 -0.3309
  742MOL0     H97885   9.890  -0.089   3.456 -0.3583 -0.5134  0.6219
  742MOL0     H97886   9.836   0.041   3.346  0.1125  1.2919  1.1181
  742MOL0     H97887   9.694   0.029   3.612 -0.7066  2.2159 -0.6731
  742MOL0     H97888   9.641   0.088   3.457 -3.0599 -2.0030 -1.6016
  742MOL0     H97889   9.631  -0.156   3.374  0.7110  0.9367 -1.1172
  742MOL0     H97890   9.520  -0.114   3.503  1.0074 -0.7287 -0.4952
  742MOL0     H97891   9.675  -0.203   3.677 -1.6286 -2.9087  0.6248
  742MOL0     H97892   9.791  -0.254   3.554  1.5113  2.2618 -0.5568
  742MOL0     H97893   9.495  -0.364   3.563  0.5795 -0.4501 -0.9098
  742MOL0     H97894   9.623  -0.376   3.441  0.5969  0.8810  0.7924
  742MOL0     H97895   9.764  -0.496   3.625  0.2459  0.1202  1.2584
  742MOL0     H97896   9.598  -0.566   3.607 -1.2464  0.7584  0.4632
  742MOL0     H97897   9.495  -0.301   3.798  2.1799  1.4640 -1.3562
  742MOL0     H97898   9.360  -0.309   4.058 -1.3576 -0.6353  0.4020
  742MOL0     H97899   9.514  -0.331   4.146  3.4682 -3.4421 -0.8238
  742MOL0     H97900   9.435  -0.567   4.208  0.5361  0.2223 -0.4672
  742MOL0     H97901   9.318  -0.563   4.084 -0.8124  1.3597 -0.3915
  742MOL0     H97902   9.199  -0.375   4.198 -3.3366 -2.9147 -0.6110
  742MOL0     H97903   9.194  -0.522   4.279 -1.0175  1.9515  2.9880
  742MOL0     H97904   9.264  -0.342   4.450  2.5744  1.9718  1.3220
  742MOL0     H97905   9.356  -0.265   4.320  0.7154  0.3299  1.5718
  742MOL0     H97906   9.220  -0.572   4.520  0.4695 -1.7695 -0.1401
  742MOL0     H97907   9.246  -0.736   4.692 -0.6772  1.0933  0.3027
  742MOL0     H97908   9.098  -0.960   4.946 -0.1278 -1.7310 -2.3156
  742MOL0     H97909   9.054  -1.165   5.072  1.6286 -3.3745  0.2965
  742MOL0     H97910   9.151  -1.496   5.216  1.8910  0.0224  6.8025
  742MOL0     H97911   9.064  -1.363   5.148  0.9879  0.0421 -1.4692
  742MOL0     H97912   9.203  -1.246   5.357 -1.2140  0.3257  1.0009
  742MOL0     H97913   9.190  -1.404   5.424  1.4338  2.6929  0.8755
  742MOL0     H97914   8.955  -1.402   5.395  2.0560 -1.3160  0.1196
  742MOL0     H97915   8.960  -1.227   5.355  1.5269 -0.4142 -1.1709
  742MOL0     H97916   9.055  -1.370   5.603  0.8917  1.5553  0.0296
  742MOL0     H97917   9.067  -1.202   5.596 -0.2758 -0.8476  0.1222
  742MOL0     H97918   8.798  -1.362   5.590  3.4037 -3.0467  2.6877
  742MOL0     H97919   8.803  -1.198   5.551 -0.9611  1.6249  2.8181
  742MOL0     H97920   8.747  -1.157   5.764  1.4858  0.7368 -0.2581
  742MOL0     H97921   8.925  -1.165   5.784  2.2695 -2.2047  1.0294
  742MOL0     H97922   8.746  -1.414   5.805 -0.4655  1.0648 -1.8832
  742MOL0     H97923   8.922  -1.401   5.841  0.9197  1.0095 -4.0077
  742MOL0     H97924   8.809  -1.403   6.049 -1.1658 -0.6456 -1.2132
  742MOL0     H97925   8.687  -1.295   5.983 -0.2450 -2.1086 -1.7383
  742MOL0     H97926   9.480  -1.242   5.078 -0.7894  0.0801  2.8479
  742MOL0     H97927   9.530  -1.042   4.974 -0.5216 -1.3060 -3.5349
  742MOL0     H97928   9.647  -0.646   4.746 -0.9440  1.9596  1.8436
  742MOL0     H97929   9.640  -0.465   4.572  0.3361  1.6799 -1.0025
  742MOL0     H97930  10.061   0.264   3.089  1.1875  3.2994 -1.2930
  742MOL0     H97931  10.240   0.267   2.921  1.3734  1.1573  0.0462
  742MOL0     H97932  10.569   0.273   2.739 -0.1579 -1.8920  2.3716
  742MOL0     H97933  10.730   0.344   2.542  1.7474  0.0188 -1.6284
  742MOL0     H97934  11.121   0.362   2.665  1.4009 -1.5635 -2.0506
  742MOL0     H97935  11.107   0.539   2.647  0.0365 -0.3218 -0.0594
  742MOL0     H97936  11.151   0.350   2.422 -1.6233  1.7409 -2.5219
  742MOL0     H97937  11.118   0.515   2.406 -3.5547 -1.0269  1.7695
  742MOL0     H97938  11.375   0.440   2.410 -0.3281  0.2565 -0.5131
  742MOL0     H97939  11.342   0.457   2.587 -0.9250  1.2925  1.2556
  742MOL0     H97940  11.308   0.672   2.362  4.6500  0.8377 -0.8352
  742MOL0     H97941  11.256   0.689   2.533 -2.8093  0.8903 -2.6369
  742MOL0     H97942  11.694   0.709   2.498  0.1503  0.0692 -0.5521
  742MOL0     H97943  11.019   0.422   2.850 -0.2190 -0.7523  1.2637
  742MOL0     H97944  10.888   0.329   3.023 -2.5318  0.9880  1.2626
  743MOL0     O97945   9.144   5.639   3.465  0.5748 -0.4049 -0.5914
  743MOL0     C97946   9.118   5.711   3.367 -0.5482 -0.2655  0.0255
  743MOL0     O97947   9.201   5.759   3.277  0.7102 -0.0820  0.6382
  743MOL0     C97948   9.335   5.728   3.291  0.3475 -0.2126 -0.3959
  743MOL0     C97949   9.402   5.733   3.411 -0.6564  0.3357 -0.6463
  743MOL0     C97950   9.542   5.718   3.424 -0.2842 -0.4192  0.4344
  743MOL0     C97951   9.621   5.696   3.317  0.2131 -1.0722  0.4276
  743MOL0     O97952   9.751   5.682   3.340 -0.4566 -0.0360  0.6806
  743MOL0     C97953   9.834   5.751   3.240  0.2182 -0.1785 -0.6081
  743MOL0     C97954   9.987   5.730   3.252 -0.0494 -0.5907  0.9656
  743MOL0     C97955  10.059   5.825   3.153 -0.9290 -0.0458 -0.8152
  743MOL0     C97956  10.205   5.817   3.187 -0.0718 -0.6761 -0.8352
  743MOL0     C97957  10.284   5.925   3.119  0.3102 -0.4499 -0.6299
  743MOL0     C97958  10.434   5.923   3.135 -0.8405  0.0225  0.0930
  743MOL0     C97959  10.522   6.027   3.069 -0.1235  0.3152  0.1012
  743MOL0     C97960  10.552   6.003   2.929  0.4092  0.6779 -0.7335
  743MOL0     N97961  10.646   6.097   2.870 -0.5711 -1.2526  0.5946
  743MOL0     C97962  10.780   6.074   2.873 -0.2933 -0.6279  0.1233
  743MOL0     C97963  10.835   6.175   2.801 -0.2423  0.1940 -1.6046
  743MOL0     C97964  10.988   6.194   2.794  0.0364  0.8300 -0.1700
  743MOL0     C97965  11.032   6.241   2.656  0.6450  0.8756  0.8051
  743MOL0     C97966  11.061   6.389   2.673  0.6503 -0.7166 -0.2422
  743MOL0     C97967  11.078   6.445   2.530  0.1780  0.3538 -0.5212
  743MOL0     O97968  11.185   6.383   2.456 -0.3311  0.4589  0.4784
  743MOL0     C97969  11.315   6.432   2.455  0.6192  0.0680  0.8908
  743MOL0     C97970  11.381   6.508   2.543 -0.4754 -0.0093 -0.6356
  743MOL0     C97971  11.513   6.533   2.525  0.4736 -0.3144  0.0547
  743MOL0     C97972  11.575   6.499   2.406 -0.3317  0.7015 -0.3704
  743MOL0     C97973  11.722   6.531   2.381  0.9806 -0.1038 -0.1829
  743MOL0     O97974  11.777   6.499   2.256 -0.1721  0.2912 -0.0926
  743MOL0     C97975  11.910   6.491   2.240 -0.5588  0.2534  0.1844
  743MOL0     C97976  11.948   6.511   2.106 -0.6581 -0.9423  0.3893
  743MOL0     C97977  12.076   6.501   2.061  0.0081  0.0567 -0.3847
  743MOL0     C97978  12.177   6.488   2.149  0.6112  1.2677  0.3778
  743MOL0     O97979  12.304   6.521   2.111 -0.7389  0.4917 -0.6094
  743MOL0     C97980  12.410   6.431   2.135 -0.5375  0.0635 -0.0109
  743MOL0     C97981  12.541   6.516   2.142 -0.1184  0.1780 -0.5750
  743MOL0     C97982  12.673   6.443   2.132  0.2236  0.1579 -0.0510
  743MOL0     C97983  12.787   6.543   2.083 -0.1143 -0.2208  0.3286
  743MOL0     C97984  12.920   6.466   2.068 -0.5706  0.1001  1.1579
  743MOL0     C97985  12.965   6.408   2.199  0.0536 -0.0875 -0.6095
  743MOL0     C97986  13.090   6.331   2.187 -0.4749  0.2497  0.0036
  743MOL0     C97987  13.094   6.219   2.085 -0.7250 -0.0715  0.4355
  743MOL0    Cl97988  12.940   6.124   2.075 -0.3518 -0.1878 -0.1127
  743MOL0     C97989  12.142   6.478   2.286 -0.3703 -0.8819 -0.5471
  743MOL0     C97990  12.011   6.468   2.334 -0.0873 -0.2161  1.0699
  743MOL0     O97991  11.780   6.591   2.476 -0.4730 -0.2755 -0.8576
  743MOL0     C97992  11.513   6.427   2.313 -0.5181 -0.0647  0.1332
  743MOL0     C97993  11.378   6.392   2.331  0.4753  0.7457  0.2986
  743MOL0     N97994  10.738   6.257   2.750  0.1526  0.4522 -0.1167
  743MOL0     N97995  10.621   6.208   2.800  0.1952 -1.3202  0.2816
  743MOL0     C97996   9.555   5.687   3.188 -0.0966 -0.1496  0.1411
  743MOL0     C97997   9.415   5.706   3.178  0.1208 -0.5567 -0.2129
  743MOL0     C97998   8.981   5.728   3.321 -0.5169 -0.2822  0.0247
  743MOL0     C97999   8.873   5.678   3.393  0.2991  0.0571  0.2621
  743MOL0     C98000   8.743   5.695   3.355  0.1662 -0.4862  0.8385
  743MOL0     C98001   8.711   5.755   3.237  0.2591 -0.1141  1.0868
  743MOL0     O98002   8.579   5.786   3.185  0.1495  0.1680  0.4130
  743MOL0     C98003   8.479   5.689   3.225 -0.6195  0.4212  0.3402
  743MOL0     C98004   8.419   5.735   3.356 -0.4961  0.4467  0.1825
  743MOL0     C98005   8.281   5.799   3.322 -0.2732  0.2458 -0.4713
  743MOL0     C98006   8.216   5.843   3.459  0.6093 -0.3433 -0.0043
  743MOL0     C98007   8.069   5.826   3.461  0.1885 -0.2114 -0.6281
  743MOL0     C98008   7.945   5.823   3.465  0.4660  0.5956  0.6047
  743MOL0     C98009   8.819   5.817   3.160 -0.0278  0.0949  0.3424
  743MOL0     C98010   8.950   5.803   3.202  0.8047  0.1499 -0.3201
  743MOL0     H98011   9.346   5.745   3.503  1.7080  0.2462  0.8922
  743MOL0     H98012   9.591   5.738   3.518  1.2910  0.8710 -0.6105
  743MOL0     H98013   9.814   5.858   3.247  2.3391  0.2556 -0.5044
  743MOL0     H98014   9.813   5.710   3.141  0.1226 -0.3660 -0.5119
  743MOL0     H98015  10.018   5.629   3.226 -0.4762 -0.4855 -0.0287
  743MOL0     H98016  10.026   5.761   3.349  1.3340 -3.0187  1.2608
  743MOL0     H98017  10.026   5.926   3.178 -0.2672  0.2934 -1.2715
  743MOL0     H98018  10.037   5.796   3.050 -0.6069  1.9597 -1.5032
  743MOL0     H98019  10.218   5.831   3.294 -1.8470 -1.6907 -0.4391
  743MOL0     H98020  10.250   5.725   3.149 -0.8896  0.3011 -4.6283
  743MOL0     H98021  10.234   6.020   3.141 -1.0537 -0.3215 -3.7726
  743MOL0     H98022  10.261   5.897   3.016 -1.2627 -0.9075 -0.1857
  743MOL0     H98023  10.472   5.824   3.107  2.7369  1.9380 -2.5465
  743MOL0     H98024  10.443   5.920   3.244 -2.0593  0.3170  0.2201
  743MOL0     H98025  10.464   6.118   3.087 -0.2412 -0.3768  4.0330
  743MOL0     H98026  10.616   6.035   3.123  0.1273 -0.5172 -0.1928
  743MOL0     H98027  10.467   6.007   2.860 -1.5569 -1.2600  1.3690
  743MOL0     H98028  10.594   5.903   2.913  0.6005  1.0580 -2.9363
  743MOL0     H98029  10.826   5.998   2.936  1.6304 -1.6292 -2.3319
  743MOL0     H98030  11.045   6.102   2.809 -0.9706 -0.1958 -2.1595
  743MOL0     H98031  11.015   6.263   2.874  1.2471 -1.2948  1.3377
  743MOL0     H98032  10.952   6.232   2.582  0.0259 -0.3066  1.5983
  743MOL0     H98033  11.116   6.177   2.628  0.1746  0.6797 -0.2481
  743MOL0     H98034  10.976   6.441   2.717 -0.8307 -3.1068 -0.1252
  743MOL0     H98035  11.143   6.392   2.745  1.8464 -1.3334 -1.5180
  743MOL0     H98036  11.084   6.553   2.549 -0.7630  0.3075  0.1123
  743MOL0     H98037  10.982   6.433   2.478  0.2575 -1.1888 -0.3613
  743MOL0     H98038  11.326   6.539   2.632  2.0222  2.9594  0.0623
  743MOL0     H98039  11.562   6.599   2.596  1.7967 -0.2280 -0.8922
  743MOL0     H98040  11.870   6.533   2.034 -0.7157 -3.1121 -0.2727
  743MOL0     H98041  12.103   6.530   1.961  0.9297  0.5610 -0.0003
  743MOL0     H98042  12.411   6.347   2.064 -1.6928  1.2129 -1.4450
  743MOL0     H98043  12.400   6.378   2.230  2.0351 -2.3903 -0.9542
  743MOL0     H98044  12.537   6.576   2.234 -4.2950 -3.7439  2.2695
  743MOL0     H98045  12.535   6.583   2.056 -4.4205 -1.5738 -1.8991
  743MOL0     H98046  12.653   6.366   2.056 -1.5287 -1.1870  1.6725
  743MOL0     H98047  12.706   6.397   2.225  1.4765 -1.6166 -1.2926
  743MOL0     H98048  12.758   6.580   1.984  1.0225  1.1616  0.4868
  743MOL0     H98049  12.786   6.622   2.158 -1.4191 -1.9215  2.2121
  743MOL0     H98050  12.992   6.536   2.024 -1.7212  0.9845  0.6288
  743MOL0     H98051  12.894   6.385   1.999  2.9943 -1.1616  1.0989
  743MOL0     H98052  12.891   6.340   2.242  1.1228  1.3404  4.0720
  743MOL0     H98053  12.980   6.484   2.276 -3.2294 -1.2400  1.3853
  743MOL0     H98054  13.172   6.400   2.165 -3.6426  5.1957  2.0065
  743MOL0     H98055  13.106   6.277   2.281 -0.4797  0.0934 -0.0843
  743MOL0     H98056  13.173   6.150   2.113 -1.0579  0.3664  2.6915
  743MOL0     H98057  13.112   6.255   1.984 -3.6776  2.8981  0.7876
  743MOL0     H98058  12.222   6.479   2.359  0.7529  1.6717 -1.6857
  743MOL0     H98059  11.988   6.441   2.437 -3.9481 -1.8949 -0.0779
  743MOL0     H98060  11.564   6.395   2.223  0.7410  2.2517 -0.0661
  743MOL0     H98061  11.323   6.333   2.258  0.8275 -2.7057  2.5602
  743MOL0     H98062   9.617   5.648   3.108 -0.1769 -1.6710  0.7850
  743MOL0     H98063   9.358   5.691   3.087 -0.3624 -1.4837  0.2259
  743MOL0     H98064   8.891   5.616   3.481  1.3022  1.0172  0.7455
  743MOL0     H98065   8.669   5.635   3.408 -1.4050 -0.3326 -1.0634
  743MOL0     H98066   8.534   5.595   3.226 -1.6361 -0.2109 -0.7276
  743MOL0     H98067   8.400   5.671   3.151  0.0649 -1.7384  0.0810
  743MOL0     H98068   8.419   5.642   3.414 -1.7790  1.5541  2.0943
  743MOL0     H98069   8.482   5.814   3.398  1.4625 -1.1820  0.4375
  743MOL0     H98070   8.216   5.721   3.283  0.9823 -0.1660 -1.8373
  743MOL0     H98071   8.297   5.873   3.242 -0.0659  1.1095  0.3444
  743MOL0     H98072   8.262   5.785   3.540  0.0889  0.1234  0.6370
  743MOL0     H98073   8.226   5.952   3.473  1.3835 -0.1455 -1.7904
  743MOL0     H98074   7.839   5.816   3.476  0.6122 -2.5000  0.9669
  743MOL0     H98075   8.796   5.861   3.064  0.8264 -0.9372 -0.3496
  743MOL0     H98076   9.020   5.841   3.129  1.5027 -2.8559 -1.3542
  744MOL0     O98077   9.706   1.572   9.803  0.0201  0.7550 -0.2932
  744MOL0     C98078   9.798   1.523   9.733  0.2807  0.9661  0.3373
  744MOL0     O98079   9.777   1.414   9.646  0.2728  0.2754 -1.0162
  744MOL0     C98080   9.647   1.393   9.617  0.6354  0.0945 -0.1253
  744MOL0     C98081   9.589   1.431   9.501 -1.3677 -0.3056  1.1915
  744MOL0     C98082   9.463   1.381   9.463 -0.2548  0.0421 -0.1019
  744MOL0     C98083   9.380   1.301   9.540 -0.6904 -0.2482 -0.1530
  744MOL0     O98084   9.264   1.240   9.502  0.1118  0.2275  0.5008
  744MOL0     C98085   9.286   1.150   9.389  0.5227 -0.5841 -0.8854
  744MOL0     C98086   9.179   1.051   9.359  0.7425 -0.1733 -0.8390
  744MOL0     C98087   9.208   0.913   9.410 -0.2286 -0.3777  0.2802
  744MOL0     C98088   9.090   0.821   9.392 -0.2043 -0.4052 -0.4532
  744MOL0     C98089   9.107   0.681   9.455 -0.0406 -0.4650 -0.6887
  744MOL0     C98090   8.982   0.599   9.425 -0.2998 -0.5467 -0.7177
  744MOL0     C98091   9.005   0.452   9.473  0.3609  0.0739 -1.0536
  744MOL0     C98092   8.876   0.376   9.447 -0.1261 -0.0016 -0.7289
  744MOL0     N98093   8.889   0.239   9.507 -0.1559  0.6393 -0.2996
  744MOL0     C98094   8.872   0.206   9.638  0.8939 -0.3925 -0.5145
  744MOL0     C98095   8.874   0.072   9.643 -0.3740 -0.0266 -0.2561
  744MOL0     C98096   8.856  -0.014   9.765 -0.3431 -0.3829  0.5098
  744MOL0     C98097   8.964   0.030   9.867 -1.0707 -0.6513  0.3792
  744MOL0     C98098   8.951  -0.084   9.969  0.0849 -0.3542  0.2249
  744MOL0     C98099   9.045  -0.071  10.087  0.1416 -0.5867  0.2748
  744MOL0     O98100   9.015   0.047  10.167  0.4443 -0.6647  0.3149
  744MOL0     C98101   8.903   0.048  10.246 -0.4080 -0.1152 -0.0520
  744MOL0     C98102   8.879   0.168  10.316 -0.1978 -0.8070  0.0510
  744MOL0     C98103   8.782   0.189  10.411 -0.5589  0.9013 -0.2151
  744MOL0     C98104   8.697   0.087  10.441 -0.6947  0.4505  0.0883
  744MOL0     C98105   8.580   0.095  10.528 -0.4693 -1.2825 -0.3699
  744MOL0     O98106   8.541   0.216  10.561  0.4143  0.4256  0.2343
  744MOL0     C98107   8.430   0.234  10.649 -0.3459  0.1243  0.3112
  744MOL0     C98108   8.320   0.143  10.664  0.1956  0.2362 -0.1681
  744MOL0     C98109   8.215   0.184  10.749 -0.1211  0.9972 -0.5084
  744MOL0     C98110   8.207   0.308  10.805 -1.0719  0.0811  0.6055
  744MOL0     O98111   8.097   0.362  10.865 -0.4332 -0.0689  0.6436
  744MOL0     C98112   8.033   0.484  10.814 -0.2732  0.6360  0.1991
  744MOL0     C98113   7.925   0.444  10.714  0.6834  0.8110  0.2000
  744MOL0     C98114   7.898   0.548  10.614  0.0988 -0.8269 -0.0733
  744MOL0     C98115   7.822   0.662  10.681  0.5284 -0.3288  0.1118
  744MOL0     C98116   7.783   0.759  10.573  0.3197 -1.3775  0.9545
  744MOL0     C98117   7.683   0.862  10.627 -0.0038 -0.0128  1.4965
  744MOL0     C98118   7.545   0.800  10.603 -0.4993 -0.3217  0.0738
  744MOL0     C98119   7.438   0.905  10.637  0.1691  0.6613  0.3126
  744MOL0    Cl98120   7.407   0.929  10.804  0.0675  0.4401 -0.2581
  744MOL0     C98121   8.320   0.399  10.796  0.3034  0.3394 -0.2067
  744MOL0     C98122   8.422   0.353  10.713  0.0078 -1.0918  0.1194
  744MOL0     O98123   8.530  -0.009  10.565  0.0316 -0.7980  0.0987
  744MOL0     C98124   8.720  -0.040  10.373 -1.0243  0.6120 -0.6332
  744MOL0     C98125   8.816  -0.052  10.272 -0.9481  0.3664 -0.0941
  744MOL0     N98126   8.912   0.034   9.523 -0.2342 -0.1535  0.7104
  744MOL0     N98127   8.916   0.126   9.434  0.3136 -0.3034 -0.0113
  744MOL0     C98128   9.435   1.274   9.661 -0.4422  0.6412 -0.0455
  744MOL0     C98129   9.571   1.312   9.701  0.0172 -1.0828  0.2330
  744MOL0     C98130   9.936   1.579   9.753  1.0827 -0.3408 -0.2435
  744MOL0     C98131  10.042   1.564   9.659 -0.4970  0.6227  0.0470
  744MOL0     C98132  10.157   1.635   9.676  0.1647  0.0266 -0.0689
  744MOL0     C98133  10.169   1.727   9.784 -0.6165  0.3876 -0.2714
  744MOL0     O98134  10.288   1.799   9.776  0.4535  0.9817  0.5141
  744MOL0     C98135  10.282   1.921   9.698  0.5214  0.7531 -0.2552
  744MOL0     C98136  10.409   2.007   9.726  0.1287 -0.2588 -0.5378
  744MOL0     C98137  10.545   1.947   9.674  0.9454 -0.1042 -1.5184
  744MOL0     C98138  10.650   2.054   9.667  0.2462 -0.9058 -0.4127
  744MOL0     C98139  10.697   2.097   9.802  0.7327 -0.2290 -0.3694
  744MOL0     C98140  10.721   2.159   9.906 -0.2957 -0.0445 -0.0705
  744MOL0     C98141  10.071   1.741   9.884  0.0535 -0.8927  0.5812
  744MOL0     C98142   9.957   1.666   9.863 -0.7820 -0.1290 -0.6050
  744MOL0     H98143   9.654   1.485   9.434  0.4245 -3.2281  0.4121
  744MOL0     H98144   9.421   1.401   9.364 -5.3223 -0.2123  1.6728
  744MOL0     H98145   9.386   1.105   9.399 -0.7398 -4.7484 -4.0346
  744MOL0     H98146   9.290   1.219   9.305 -1.5227 -2.1292 -2.3597
  744MOL0     H98147   9.153   1.036   9.253 -3.1012 -3.2316  0.2806
  744MOL0     H98148   9.090   1.098   9.403  0.0871 -0.3753 -1.9019
  744MOL0     H98149   9.229   0.904   9.517  0.8028  0.0635  0.1236
  744MOL0     H98150   9.293   0.879   9.351 -0.2020 -1.6118  0.9981
  744MOL0     H98151   8.998   0.867   9.429 -0.1492  0.2950 -1.1394
  744MOL0     H98152   9.074   0.810   9.285  0.8254  1.1469 -0.8015
  744MOL0     H98153   9.114   0.679   9.564  1.5452  0.3692 -0.7460
  744MOL0     H98154   9.196   0.632   9.416  1.2989  0.4941  1.0270
  744MOL0     H98155   8.952   0.611   9.320  2.6315  1.9106 -1.4293
  744MOL0     H98156   8.903   0.643   9.487  0.3063  1.3989 -1.2572
  744MOL0     H98157   9.087   0.397   9.426 -1.1511  0.0419 -3.8154
  744MOL0     H98158   9.019   0.459   9.582  0.9862  1.0679 -1.1867
  744MOL0     H98159   8.862   0.368   9.339  0.8558  0.2185 -0.8754
  744MOL0     H98160   8.787   0.419   9.495 -0.4397 -0.9859 -0.4081
  744MOL0     H98161   8.854   0.274   9.720  4.4320  0.8613 -0.6083
  744MOL0     H98162   8.853  -0.120   9.738  2.9773 -0.4823  0.1766
  744MOL0     H98163   8.758   0.022   9.799 -0.3100  1.3719 -1.0873
  744MOL0     H98164   8.938   0.121   9.921 -1.3126 -1.0739  0.9852
  744MOL0     H98165   9.064   0.024   9.823 -0.8456 -0.3408  0.8464
  744MOL0     H98166   8.847  -0.092  10.002 -0.7727 -2.8288 -2.6814
  744MOL0     H98167   8.974  -0.170   9.905 -1.8121  2.3672 -4.5996
  744MOL0     H98168   9.142  -0.053  10.039 -0.7278 -0.1602 -1.4073
  744MOL0     H98169   9.053  -0.168  10.136 -1.4530 -0.5910  0.5819
  744MOL0     H98170   8.948   0.252  10.311  0.0528 -0.8607  1.7931
  744MOL0     H98171   8.775   0.294  10.439  2.7013  2.0715 -2.9934
  744MOL0     H98172   8.315   0.039  10.634  1.4722  0.0112  0.3174
  744MOL0     H98173   8.134   0.114  10.761 -0.3258  0.8144 -2.6151
  744MOL0     H98174   8.117   0.540  10.772 -0.7219  0.0773 -1.5102
  744MOL0     H98175   7.994   0.538  10.900 -0.0080 -2.0289  2.1476
  744MOL0     H98176   7.841   0.401  10.770  0.6340  1.0360  0.2995
  744MOL0     H98177   7.948   0.355  10.655  2.3598  2.3767 -1.6209
  744MOL0     H98178   7.832   0.517  10.533 -0.1143  2.9164 -1.5194
  744MOL0     H98179   7.995   0.583  10.577  0.7504 -1.0060  1.3683
  744MOL0     H98180   7.743   0.626  10.747  1.7849 -2.3956  0.5892
  744MOL0     H98181   7.892   0.706  10.752  0.8034  0.1640 -0.4602
  744MOL0     H98182   7.747   0.704  10.485 -0.0717  2.0247 -1.1949
  744MOL0     H98183   7.872   0.815  10.545  2.1766 -4.9991 -1.1999
  744MOL0     H98184   7.689   0.951  10.564  2.1903 -0.5987  0.7777
  744MOL0     H98185   7.700   0.904  10.726  1.2911  2.5465  0.2722
  744MOL0     H98186   7.544   0.777  10.496 -2.5640 -1.6387  0.3104
  744MOL0     H98187   7.523   0.706  10.656  0.1230 -0.0478  0.8448
  744MOL0     H98188   7.344   0.870  10.595  0.7413 -1.5858  0.7994
  744MOL0     H98189   7.471   0.995  10.583  1.8900 -0.3594 -0.4315
  744MOL0     H98190   8.315   0.502  10.828 -1.2646  1.0748 -2.5836
  744MOL0     H98191   8.499   0.425  10.691 -2.0738  0.7400 -1.7041
  744MOL0     H98192   8.661  -0.126  10.403  1.7583 -1.1694  0.2364
  744MOL0     H98193   8.824  -0.147  10.222 -0.7198 -0.7921  2.0139
  744MOL0     H98194   9.368   1.219   9.726 -0.8059  1.1407  0.0105
  744MOL0     H98195   9.619   1.291   9.796  1.5996  3.2130  0.6385
  744MOL0     H98196  10.037   1.504   9.569 -0.9597  0.3365  0.2598
  744MOL0     H98197  10.248   1.630   9.618  1.0260  1.8593  1.0476
  744MOL0     H98198  10.193   1.976   9.729 -0.0191 -0.2639  0.0492
  744MOL0     H98199  10.268   1.885   9.595  0.6141  0.8767 -0.3104
  744MOL0     H98200  10.387   2.098   9.668 -1.8560 -1.5896 -1.9774
  744MOL0     H98201  10.415   2.017   9.835 -0.8278  0.4111 -0.5325
  744MOL0     H98202  10.523   1.898   9.579 -2.7320  0.3094 -1.0249
  744MOL0     H98203  10.571   1.858   9.733  0.0274 -0.7910 -2.1064
  744MOL0     H98204  10.737   2.017   9.611  0.5560  1.1349 -1.3522
  744MOL0     H98205  10.605   2.139   9.615 -0.1342 -0.6317  0.3588
  744MOL0     H98206  10.733   2.229   9.986  1.1918  1.4889 -1.5333
  744MOL0     H98207  10.098   1.803   9.969  0.0119  0.3932 -0.3275
  744MOL0     H98208   9.889   1.671   9.947 -2.1951  1.7674 -1.7931
  745MOL0     O98209   9.030   0.063   0.752 -0.1787  0.0252 -0.2961
  745MOL0     C98210   9.013   0.165   0.822  0.4744  0.2328 -0.6614
  745MOL0     O98211   9.067   0.195   0.945 -0.1224  0.9746  0.3868
  745MOL0     C98212   9.195   0.174   0.975 -0.5513 -0.0140  0.7125
  745MOL0     C98213   9.299   0.089   0.919  0.4862  1.1659 -0.1482
  745MOL0     C98214   9.428   0.068   0.962  0.0793 -0.5672 -0.7929
  745MOL0     C98215   9.459   0.130   1.083 -0.8607  0.1866 -0.1868
  745MOL0     O98216   9.592   0.127   1.126  0.3616  0.2299 -0.7360
  745MOL0     C98217   9.655   0.252   1.176 -0.0237 -0.8380  0.5226
  745MOL0     C98218   9.725   0.317   1.059 -0.4421 -1.7498 -0.6037
  745MOL0     C98219   9.866   0.255   1.014 -0.0334  0.2130  0.2358
  745MOL0     C98220   9.921   0.306   0.880  0.6787 -0.1167 -1.2498
  745MOL0     C98221   9.998   0.440   0.891  0.6588 -0.4429 -0.1247
  745MOL0     C98222  10.113   0.467   1.004  0.3605  0.8524  0.7271
  745MOL0     C98223  10.221   0.365   0.983  0.8776 -0.3495 -0.2033
  745MOL0     C98224  10.323   0.383   0.867 -0.2520 -0.8876  0.1468
  745MOL0     N98225  10.447   0.442   0.922 -0.6086  0.1124 -0.5740
  745MOL0     C98226  10.461   0.574   0.915 -0.7009  0.4186  0.5360
  745MOL0     C98227  10.587   0.590   0.955  0.8824 -0.3542  0.4839
  745MOL0     C98228  10.647   0.725   0.992 -0.5092  0.2926 -0.1218
  745MOL0     C98229  10.724   0.793   0.877 -0.0911 -0.0967 -0.0351
  745MOL0     C98230  10.850   0.711   0.844  0.8217  0.2520 -0.9480
  745MOL0     C98231  10.981   0.738   0.918  0.3877 -0.1447 -0.0314
  745MOL0     O98232  11.079   0.638   0.914  0.1089 -0.1088  0.0413
  745MOL0     C98233  11.060   0.509   0.949  0.1103  0.2302  0.3974
  745MOL0     C98234  11.121   0.406   0.872  0.8569 -0.4544  0.5845
  745MOL0     C98235  11.098   0.273   0.901  0.7601 -0.5513  0.8936
  745MOL0     C98236  11.005   0.229   0.997  0.0979  0.3030 -0.0445
  745MOL0     C98237  10.974   0.085   1.015 -0.3453  0.1423  0.0658
  745MOL0     O98238  10.939   0.018   0.902 -0.0866  0.3252  1.1113
  745MOL0     C98239  10.875  -0.102   0.894 -0.7838 -0.0492 -0.1859
  745MOL0     C98240  10.780  -0.128   0.994  0.1561  0.2630 -0.3271
  745MOL0     C98241  10.697  -0.246   0.983 -0.2152 -0.5966 -0.2770
  745MOL0     C98242  10.712  -0.338   0.872  0.4892  0.8114  0.1924
  745MOL0     O98243  10.634  -0.453   0.848  0.5737  0.5556  0.3917
  745MOL0     C98244  10.507  -0.449   0.918  0.2128 -0.2632  0.4723
  745MOL0     C98245  10.414  -0.563   0.872  0.0183 -0.1910 -0.5649
  745MOL0     C98246  10.478  -0.705   0.893 -0.3101 -0.1845 -0.5644
  745MOL0     C98247  10.392  -0.829   0.861  1.1749 -0.7042 -0.1147
  745MOL0     C98248  10.479  -0.954   0.826  0.1866  0.2780  0.4417
  745MOL0     C98249  10.585  -0.996   0.921  0.4583  0.1083 -0.2538
  745MOL0     C98250  10.645  -1.126   0.874  0.7960  0.3194  0.3466
  745MOL0     C98251  10.712  -1.203   0.987  0.3480 -0.3063 -0.0087
  745MOL0    Cl98252  10.758  -1.362   0.922  0.0798  0.0286  0.1818
  745MOL0     C98253  10.813  -0.311   0.777  1.2800 -0.4851 -0.2012
  745MOL0     C98254  10.898  -0.194   0.796  0.5623 -0.0116 -0.2860
  745MOL0     O98255  10.981   0.033   1.124  0.6237  0.1897  0.5627
  745MOL0     C98256  10.950   0.332   1.081 -0.3498 -0.1003  0.2625
  745MOL0     C98257  10.978   0.468   1.053 -0.0302  0.2327 -0.0075
  745MOL0     N98258  10.647   0.461   0.971  0.4210 -0.5256 -0.4851
  745MOL0     N98259  10.565   0.375   0.955  0.1678  0.2691  0.6194
  745MOL0     C98260   9.355   0.196   1.155 -0.2411  1.1124 -0.3606
  745MOL0     C98261   9.228   0.224   1.092  0.2770  0.1590 -0.2038
  745MOL0     C98262   8.889   0.237   0.792  0.4357 -0.6101  0.0588
  745MOL0     C98263   8.833   0.216   0.662  0.6832  0.3589 -0.2318
  745MOL0     C98264   8.710   0.287   0.633 -0.1115  0.2954  0.6572
  745MOL0     C98265   8.651   0.369   0.733 -0.3729  1.1406 -0.2430
  745MOL0     O98266   8.531   0.424   0.710  0.2678 -0.1770 -0.7056
  745MOL0     C98267   8.540   0.551   0.649  0.7520 -0.4807  0.8411
  745MOL0     C98268   8.423   0.646   0.694  0.5381  0.2948 -0.7911
  745MOL0     C98269   8.427   0.668   0.849 -0.2136 -0.5254  0.4751
  745MOL0     C98270   8.309   0.766   0.884  1.2814 -0.5821 -0.4504
  745MOL0     C98271   8.318   0.898   0.827  0.3110 -0.1904  0.1627
  745MOL0     C98272   8.313   1.009   0.777 -0.7838  0.9399  0.0919
  745MOL0     C98273   8.712   0.386   0.853 -0.5507 -0.4393 -0.4048
  745MOL0     C98274   8.829   0.322   0.885  0.0211  0.2362 -0.0144
  745MOL0     H98275   9.270   0.039   0.827 -0.4995 -0.0050  0.7692
  745MOL0     H98276   9.505   0.003   0.920 -2.6330 -2.8660 -2.5789
  745MOL0     H98277   9.731   0.224   1.250  2.3363 -2.2738 -2.2488
  745MOL0     H98278   9.586   0.318   1.230  0.0782  0.2986 -0.7099
  745MOL0     H98279   9.735   0.424   1.080  1.0336 -1.9519 -0.1528
  745MOL0     H98280   9.653   0.302   0.978 -0.4289  1.2116 -1.2776
  745MOL0     H98281   9.852   0.155   0.974 -3.1197  1.1947 -1.3920
  745MOL0     H98282   9.941   0.262   1.094 -0.5328  0.3753  0.6992
  745MOL0     H98283   9.994   0.230   0.849  1.4851 -0.4931  1.3282
  745MOL0     H98284   9.844   0.309   0.803  0.3330  1.3946 -0.8665
  745MOL0     H98285   9.917   0.508   0.918  2.1614  1.7320 -0.8366
  745MOL0     H98286  10.036   0.467   0.792  0.5692 -1.2425 -0.3812
  745MOL0     H98287  10.065   0.479   1.102 -0.1018 -1.7410  0.9014
  745MOL0     H98288  10.159   0.564   0.982  2.0512  0.4594  2.2794
  745MOL0     H98289  10.281   0.391   1.070 -1.4522  0.5551  1.1923
  745MOL0     H98290  10.179   0.267   1.007 -1.8882  1.6922  4.3789
  745MOL0     H98291  10.291   0.453   0.790  0.7551  1.3842  1.6674
  745MOL0     H98292  10.351   0.287   0.824 -1.9051 -1.5665  0.5250
  745MOL0     H98293  10.391   0.656   0.897  0.5659  1.5689  0.7046
  745MOL0     H98294  10.716   0.708   1.075  2.6893 -2.0422 -2.9919
  745MOL0     H98295  10.569   0.793   1.028  0.1966  0.5598  0.9499
  745MOL0     H98296  10.750   0.898   0.899  1.2396 -0.7417  1.7495
  745MOL0     H98297  10.661   0.796   0.788 -0.0758  2.7829 -0.0613
  745MOL0     H98298  10.824   0.605   0.855  0.4573  0.5086  1.0587
  745MOL0     H98299  10.875   0.733   0.740  0.5035 -0.4461 -1.1832
  745MOL0     H98300  10.956   0.744   1.025 -0.3529  0.7432 -0.2418
  745MOL0     H98301  11.013   0.838   0.889 -1.0750 -0.4451 -2.9827
  745MOL0     H98302  11.188   0.442   0.795 -1.8108  2.8025 -0.4808
  745MOL0     H98303  11.144   0.197   0.839  0.3682  0.4248 -0.6540
  745MOL0     H98304  10.775  -0.067   1.084 -0.6486 -0.4138  0.1014
  745MOL0     H98305  10.634  -0.267   1.070 -0.1586  0.0421 -0.0798
  745MOL0     H98306  10.461  -0.352   0.898 -1.5401 -1.0974  0.2314
  745MOL0     H98307  10.514  -0.455   1.027 -0.3867 -0.2483  0.5140
  745MOL0     H98308  10.394  -0.558   0.765 -0.9235  0.3680 -0.3687
  745MOL0     H98309  10.315  -0.555   0.916 -0.9166 -2.9947 -1.9396
  745MOL0     H98310  10.492  -0.704   1.001 -2.1021 -0.5508 -0.2953
  745MOL0     H98311  10.573  -0.713   0.839 -0.0608 -1.1540 -0.0004
  745MOL0     H98312  10.339  -0.853   0.953 -0.9975  1.7423 -0.6045
  745MOL0     H98313  10.324  -0.807   0.778 -0.1797  0.0679  1.1665
  745MOL0     H98314  10.518  -0.938   0.725 -2.6556 -0.3264 -0.8518
  745MOL0     H98315  10.401  -1.031   0.825  0.2744  0.1452 -2.0095
  745MOL0     H98316  10.553  -1.016   1.024  2.0712  0.6319  0.3722
  745MOL0     H98317  10.662  -0.918   0.921 -0.4586  1.0516  0.5034
  745MOL0     H98318  10.573  -1.187   0.819  0.7530  3.0900 -3.0162
  745MOL0     H98319  10.715  -1.099   0.794  0.8498 -0.7357  0.0222
  745MOL0     H98320  10.641  -1.201   1.070  1.8661  2.9064  1.3858
  745MOL0     H98321  10.801  -1.151   1.023 -0.4041 -0.3248  1.9775
  745MOL0     H98322  10.834  -0.375   0.693 -1.4123 -2.0011  0.1584
  745MOL0     H98323  10.978  -0.184   0.723 -1.0454  2.0361 -1.9070
  745MOL0     H98324  10.876   0.318   1.160 -0.8617 -2.1370 -0.5175
  745MOL0     H98325  10.919   0.537   1.114 -0.6248 -0.7439  0.5397
  745MOL0     H98326   9.354   0.246   1.251 -0.6453  1.7572 -0.6907
  745MOL0     H98327   9.159   0.286   1.149  0.1246 -1.9235  2.0483
  745MOL0     H98328   8.872   0.133   0.604  0.5332 -0.8400  1.3175
  745MOL0     H98329   8.648   0.286   0.544 -1.2156  0.2283  1.4178
  745MOL0     H98330   8.533   0.532   0.541 -2.0570 -0.0935  0.8619
  745MOL0     H98331   8.634   0.598   0.679 -0.0452  1.9684 -0.1673
  745MOL0     H98332   8.445   0.737   0.637  0.7802  1.4390  1.0662
  745MOL0     H98333   8.328   0.597   0.669  1.7810 -1.7709 -1.7012
  745MOL0     H98334   8.528   0.699   0.877 -0.2799  3.2477 -2.6288
  745MOL0     H98335   8.399   0.579   0.906  0.6964 -0.7584  0.5887
  745MOL0     H98336   8.214   0.721   0.856  0.7315  0.0313  0.3692
  745MOL0     H98337   8.304   0.774   0.993  0.4730 -1.0892 -0.4459
  745MOL0     H98338   8.326   1.107   0.736  2.3191  1.0514  1.0899
  745MOL0     H98339   8.677   0.455   0.929  2.1760  0.3314  0.2867
  745MOL0     H98340   8.865   0.325   0.988 -1.0309  2.8038  0.3566
  746MOL0     O98341   5.976   7.882   6.069 -0.0716  0.2717 -0.1524
  746MOL0     C98342   5.986   7.754   6.080 -0.3278 -0.5583  0.1467
  746MOL0     O98343   5.895   7.668   6.019 -0.6403 -0.2509  0.5954
  746MOL0     C98344   5.761   7.701   6.011  0.3270  0.2762 -0.7500
  746MOL0     C98345   5.689   7.633   5.911 -0.4187  0.2699 -0.5866
  746MOL0     C98346   5.553   7.660   5.890 -0.6475 -0.4104  0.6382
  746MOL0     C98347   5.481   7.750   5.976  0.1736  1.2803 -0.8648
  746MOL0     O98348   5.342   7.779   5.981 -0.5366  0.2536  0.3641
  746MOL0     C98349   5.272   7.717   5.866 -0.3073 -0.3463 -0.4105
  746MOL0     C98350   5.128   7.764   5.885 -0.6014  0.2318  0.8944
  746MOL0     C98351   5.034   7.741   5.757  0.4400 -0.6222 -0.3751
  746MOL0     C98352   4.897   7.786   5.795 -0.4084 -1.3551  0.0241
  746MOL0     C98353   4.810   7.785   5.670 -0.0004 -0.1823  1.3602
  746MOL0     C98354   4.656   7.833   5.670 -0.6771  0.0571 -0.7397
  746MOL0     C98355   4.649   7.981   5.720  0.0219  1.1791 -0.9715
  746MOL0     C98356   4.505   8.042   5.733  0.0417 -0.1748 -0.8041
  746MOL0     N98357   4.420   8.007   5.617  0.2538 -0.4713  0.2326
  746MOL0     C98358   4.435   8.049   5.488 -0.9334  0.1489 -0.1662
  746MOL0     C98359   4.330   8.003   5.415 -0.5466  0.7014  0.7648
  746MOL0     C98360   4.306   8.030   5.259  0.2570 -0.6492 -0.1890
  746MOL0     C98361   4.160   8.012   5.228 -0.1455  0.4928 -0.6226
  746MOL0     C98362   4.072   8.132   5.242  0.9057  0.7207  0.4274
  746MOL0     C98363   3.942   8.120   5.168 -0.0249 -0.1102  0.2553
  746MOL0     O98364   3.858   8.028   5.247  0.0055 -0.0255 -0.2201
  746MOL0     C98365   3.729   8.053   5.259  0.4842 -1.0571  0.0212
  746MOL0     C98366   3.681   8.169   5.306  0.3760 -0.5848 -0.8503
  746MOL0     C98367   3.542   8.199   5.308  0.2158 -0.1654 -0.1111
  746MOL0     C98368   3.448   8.108   5.270 -1.3397  0.2582  1.1609
  746MOL0     C98369   3.307   8.147   5.256 -0.1214 -0.8926  0.5695
  746MOL0     O98370   3.228   8.073   5.165 -0.2499  0.4659 -0.6142
  746MOL0     C98371   3.100   8.114   5.148  0.2237 -0.1062  1.0587
  746MOL0     C98372   3.064   8.249   5.128  0.7709 -0.3477  0.2962
  746MOL0     C98373   2.929   8.274   5.118 -0.5274 -0.1428 -0.1770
  746MOL0     C98374   2.831   8.170   5.119 -0.0802  0.1652 -0.8588
  746MOL0     O98375   2.706   8.211   5.104 -0.5568 -0.0079  0.1979
  746MOL0     C98376   2.599   8.121   5.128  1.1287  0.1933 -0.7024
  746MOL0     C98377   2.478   8.211   5.118 -0.5965  0.3175  0.5961
  746MOL0     C98378   2.360   8.140   5.190  0.0469  0.4318 -0.3142
  746MOL0     C98379   2.237   8.236   5.190  0.1950  0.6328 -0.0462
  746MOL0     C98380   2.111   8.166   5.254  0.3467 -0.0995 -0.5128
  746MOL0     C98381   1.999   8.261   5.245 -0.4422  0.4971  0.0794
  746MOL0     C98382   1.879   8.199   5.322  0.6270 -0.3635 -0.1139
  746MOL0     C98383   1.755   8.293   5.324 -0.0290 -0.1951 -0.6659
  746MOL0    Cl98384   1.781   8.411   5.454  0.7159  0.2057  0.3874
  746MOL0     C98385   2.867   8.037   5.141 -0.4113  0.2998  1.1600
  746MOL0     C98386   3.003   8.013   5.154  0.1322  0.1838 -0.0331
  746MOL0     O98387   3.269   8.244   5.325  0.6539  0.2696 -0.6521
  746MOL0     C98388   3.498   7.985   5.219 -0.5310  0.5945 -0.7563
  746MOL0     C98389   3.642   7.962   5.210 -0.0555  0.3774  0.2270
  746MOL0     N98390   4.252   7.924   5.504 -0.4820 -0.6522 -0.3362
  746MOL0     N98391   4.311   7.929   5.618  0.1036  1.0051 -0.7067
  746MOL0     C98392   5.552   7.820   6.074 -0.7912  0.5215  0.7364
  746MOL0     C98393   5.694   7.797   6.083  0.2183 -0.9338  0.2566
  746MOL0     C98394   6.117   7.693   6.122  0.4892 -0.0416 -0.2390
  746MOL0     C98395   6.218   7.782   6.163 -0.3054 -0.0666 -1.3895
  746MOL0     C98396   6.344   7.728   6.226  0.6488  0.4045 -1.0751
  746MOL0     C98397   6.350   7.591   6.247  0.0205 -0.1364 -0.0553
  746MOL0     O98398   6.459   7.530   6.308  0.2576  0.2682 -0.1385
  746MOL0     C98399   6.582   7.604   6.333  0.9006 -0.3835 -1.0400
  746MOL0     C98400   6.557   7.659   6.471  0.8643  0.0086  0.1709
  746MOL0     C98401   6.670   7.744   6.517 -1.5572 -0.2464 -0.6060
  746MOL0     C98402   6.776   7.659   6.597 -0.9410 -0.6518 -0.0758
  746MOL0     C98403   6.891   7.746   6.622 -0.5021 -0.1217  0.1945
  746MOL0     C98404   6.997   7.805   6.628 -1.5252  0.6799 -0.4718
  746MOL0     C98405   6.257   7.511   6.189 -0.3749 -0.5002 -0.1878
  746MOL0     C98406   6.141   7.556   6.126 -0.4893 -1.0793 -0.6939
  746MOL0     H98407   5.734   7.548   5.860  2.6721 -0.1107  2.4026
  746MOL0     H98408   5.502   7.613   5.807  2.3502  1.4334 -2.4927
  746MOL0     H98409   5.282   7.608   5.874 -0.0191 -0.5074 -2.4590
  746MOL0     H98410   5.292   7.756   5.766 -0.0183  4.0397  1.1352
  746MOL0     H98411   5.134   7.872   5.902 -1.2942  0.1779  1.5101
  746MOL0     H98412   5.085   7.720   5.975 -2.5804  0.2393  0.0161
  746MOL0     H98413   5.024   7.635   5.731  0.6248 -0.4750 -1.0565
  746MOL0     H98414   5.053   7.799   5.667 -3.2553 -1.6010 -1.9931
  746MOL0     H98415   4.840   7.723   5.864 -0.9473  0.7178  1.5575
  746MOL0     H98416   4.901   7.890   5.828  1.9992 -1.1256 -0.7997
  746MOL0     H98417   4.815   7.688   5.620  2.6484  0.3146  0.4880
  746MOL0     H98418   4.861   7.856   5.603 -1.6543  1.5671  1.8410
  746MOL0     H98419   4.606   7.757   5.730 -1.8143  1.1355 -0.2718
  746MOL0     H98420   4.628   7.826   5.565  0.8987 -0.7524 -1.1343
  746MOL0     H98421   4.687   7.991   5.822 -0.7720 -1.1523 -0.3857
  746MOL0     H98422   4.704   8.047   5.652  3.1865 -1.6583 -1.4474
  746MOL0     H98423   4.512   8.151   5.733 -3.0752  0.1117 -0.0782
  746MOL0     H98424   4.464   8.006   5.827  0.0005  0.6130 -0.5176
  746MOL0     H98425   4.530   8.098   5.468 -0.0476 -0.6045  1.9854
  746MOL0     H98426   4.360   7.952   5.204 -1.4482 -0.0053 -3.0114
  746MOL0     H98427   4.349   8.123   5.221  1.9450 -1.9706 -1.7826
  746MOL0     H98428   4.111   7.927   5.277  1.2412  0.0252  0.0053
  746MOL0     H98429   4.168   7.988   5.121  2.9531 -0.7616 -0.2175
  746MOL0     H98430   4.041   8.156   5.345  0.3274  1.0312  0.1833
  746MOL0     H98431   4.132   8.217   5.209  0.5140  0.9390  0.2726
  746MOL0     H98432   3.964   8.074   5.071 -0.6487  3.8558 -1.9743
  746MOL0     H98433   3.901   8.218   5.143 -0.0364 -0.2692 -0.3657
  746MOL0     H98434   3.750   8.249   5.333 -0.8217 -0.7983  3.6572
  746MOL0     H98435   3.521   8.300   5.344 -1.1984  0.5115 -2.6199
  746MOL0     H98436   3.122   8.340   5.127 -0.0374  0.1879  1.1026
  746MOL0     H98437   2.902   8.378   5.101 -0.2636  0.1177  0.8653
  746MOL0     H98438   2.605   8.065   5.222 -2.7173  0.6064 -0.0457
  746MOL0     H98439   2.584   8.039   5.058 -0.1659 -1.0326  0.8995
  746MOL0     H98440   2.462   8.235   5.013  2.5196  1.7314  0.3289
  746MOL0     H98441   2.501   8.296   5.183  0.6957  1.6727 -1.5145
  746MOL0     H98442   2.393   8.112   5.290  0.7311  0.8943 -0.4059
  746MOL0     H98443   2.332   8.044   5.145  0.5172  0.0866  0.1116
  746MOL0     H98444   2.262   8.326   5.247  1.3971 -0.7480  1.7337
  746MOL0     H98445   2.223   8.277   5.090 -0.2741  1.6280  0.4151
  746MOL0     H98446   2.136   8.132   5.356  1.5141  2.5548  0.1588
  746MOL0     H98447   2.086   8.075   5.199  3.2041 -1.1558 -0.2575
  746MOL0     H98448   1.966   8.271   5.141  1.0773 -0.7865 -0.5684
  746MOL0     H98449   2.030   8.362   5.272 -0.9279  1.9149 -3.9027
  746MOL0     H98450   1.841   8.107   5.276 -2.1827 -0.6615  2.5204
  746MOL0     H98451   1.906   8.173   5.425 -1.1719  0.3456  0.5805
  746MOL0     H98452   1.667   8.230   5.337  0.4357 -1.3655 -2.7382
  746MOL0     H98453   1.750   8.339   5.225  1.7875  3.0663  0.5937
  746MOL0     H98454   2.797   7.955   5.129 -0.2864 -0.6671  5.2640
  746MOL0     H98455   3.028   7.909   5.173  0.2079  0.3315  0.7305
  746MOL0     H98456   3.423   7.913   5.188  1.2992 -1.7623  0.0551
  746MOL0     H98457   3.676   7.865   5.176  0.9360  1.4499 -2.0287
  746MOL0     H98458   5.497   7.899   6.125  1.4926  4.2350 -2.0685
  746MOL0     H98459   5.744   7.847   6.165 -0.5818  0.1439  0.1087
  746MOL0     H98460   6.219   7.889   6.143 -2.0419 -0.0313 -1.4631
  746MOL0     H98461   6.418   7.799   6.261  1.3781 -1.4472  1.3916
  746MOL0     H98462   6.617   7.678   6.261  0.1789  2.0084  0.9457
  746MOL0     H98463   6.667   7.535   6.341  1.7858  0.8744  1.8200
  746MOL0     H98464   6.475   7.729   6.453 -0.5675 -2.2263 -3.0318
  746MOL0     H98465   6.539   7.572   6.536 -1.0132 -1.0958 -1.7068
  746MOL0     H98466   6.638   7.836   6.567  3.2015  0.2306  2.1598
  746MOL0     H98467   6.723   7.792   6.434 -0.4350  1.8294  1.2062
  746MOL0     H98468   6.739   7.627   6.694 -1.8568 -0.1174 -0.2372
  746MOL0     H98469   6.816   7.569   6.549  0.5789  0.0455 -0.1822
  746MOL0     H98470   7.091   7.851   6.651 -2.5151  2.0976  0.9159
  746MOL0     H98471   6.266   7.403   6.197  1.8153 -0.5541 -2.2645
  746MOL0     H98472   6.067   7.490   6.083  1.9523 -3.9228 -0.9104
  747MOL0     O98473   7.859   0.209   9.983  0.0808  0.1067  0.6439
  747MOL0     C98474   7.810   0.155   9.881 -0.1844  1.7161 -0.1322
  747MOL0     O98475   7.844   0.166   9.747  0.7113  0.3598 -0.2164
  747MOL0     C98476   7.937   0.262   9.716 -0.6364 -0.2884 -0.1970
  747MOL0     C98477   8.045   0.294   9.800 -1.0396 -0.3667  0.6534
  747MOL0     C98478   8.126   0.404   9.770 -0.4222 -0.2383  0.1982
  747MOL0     C98479   8.120   0.476   9.650  0.2280 -0.5293 -1.5901
  747MOL0     O98480   8.221   0.572   9.627  0.6730  0.0865  0.6535
  747MOL0     C98481   8.199   0.655   9.512 -0.0716 -0.4624  0.0466
  747MOL0     C98482   8.283   0.780   9.500  0.0046 -0.3502  0.3586
  747MOL0     C98483   8.428   0.762   9.553  0.4263 -0.1769 -0.2797
  747MOL0     C98484   8.502   0.881   9.487 -0.3206 -0.2082 -0.0648
  747MOL0     C98485   8.649   0.880   9.541 -0.5110  0.2720  0.6883
  747MOL0     C98486   8.735   1.008   9.503 -0.2557 -0.4472 -0.1655
  747MOL0     C98487   8.704   1.143   9.570 -0.0708  0.4216  0.2351
  747MOL0     C98488   8.664   1.252   9.466 -0.2460  0.1447 -0.0872
  747MOL0     N98489   8.616   1.383   9.529  0.2307 -0.5424  0.4012
  747MOL0     C98490   8.649   1.421   9.654  0.1436  1.0672  0.3306
  747MOL0     C98491   8.590   1.527   9.686  0.3220 -0.0308 -0.7082
  747MOL0     C98492   8.592   1.616   9.804 -0.1508  0.4642  0.1128
  747MOL0     C98493   8.617   1.553   9.938  0.1525 -0.2220 -0.3683
  747MOL0     C98494   8.540   1.432   9.982  0.3951  0.2537  0.7846
  747MOL0     C98495   8.401   1.474  10.041  0.9071 -0.2393  0.7794
  747MOL0     O98496   8.327   1.559   9.953 -0.1741 -0.2170  0.0190
  747MOL0     C98497   8.192   1.535   9.947  0.8347  0.2899 -0.0820
  747MOL0     C98498   8.141   1.561   9.818 -0.0341  0.3298  0.0440
  747MOL0     C98499   8.002   1.550   9.787  0.3801 -0.1714  0.3152
  747MOL0     C98500   7.910   1.504   9.890 -0.2439  1.6242 -0.4119
  747MOL0     C98501   7.774   1.479   9.864 -0.2737  0.2728 -0.0695
  747MOL0     O98502   7.690   1.475   9.984 -0.0540 -0.4157 -0.1017
  747MOL0     C98503   7.560   1.456   9.966  0.6847  0.4541  0.3955
  747MOL0     C98504   7.502   1.346  10.029  0.2800 -0.8194 -0.2124
  747MOL0     C98505   7.367   1.325  10.012  0.4288  0.8775 -0.4380
  747MOL0     C98506   7.286   1.409   9.940  0.6787 -0.3916  0.7371
  747MOL0     O98507   7.147   1.379   9.932 -0.3460  0.2476 -0.0244
  747MOL0     C98508   7.078   1.417   9.813  0.3370  0.3848  0.4809
  747MOL0     C98509   6.971   1.316   9.785 -0.8040 -0.2258 -0.3315
  747MOL0     C98510   6.899   1.341   9.657  0.1959  0.4548 -0.3673
  747MOL0     C98511   6.826   1.211   9.602  0.2734  0.0746 -0.0652
  747MOL0     C98512   6.692   1.239   9.539  0.0603 -0.0511 -0.6549
  747MOL0     C98513   6.638   1.127   9.450  0.0406  0.0651 -0.1456
  747MOL0     C98514   6.628   0.992   9.519  0.0004  0.0299  0.0831
  747MOL0     C98515   6.507   0.984   9.619  0.1125  0.7573 -0.7706
  747MOL0    Cl98516   6.536   1.076   9.767 -0.0307  0.2238 -0.1469
  747MOL0     C98517   7.338   1.515   9.869 -0.5287  1.1217 -0.2192
  747MOL0     C98518   7.480   1.529   9.875  0.3573 -0.7903 -0.2570
  747MOL0     O98519   7.734   1.451   9.746 -0.3870  0.0908 -0.3809
  747MOL0     C98520   7.960   1.482  10.016 -0.7026 -0.3060  0.2082
  747MOL0     C98521   8.101   1.496  10.042  0.1146  0.8466  0.0365
  747MOL0     N98522   8.491   1.545   9.590  0.8352 -0.0307  0.3674
  747MOL0     N98523   8.514   1.459   9.494  0.8004 -0.7714 -1.2072
  747MOL0     C98524   8.020   0.440   9.565  0.4972 -0.4833  0.3646
  747MOL0     C98525   7.926   0.332   9.594  0.1412  1.0353 -0.9343
  747MOL0     C98526   7.685   0.083   9.906  0.2072  0.4144 -0.9264
  747MOL0     C98527   7.668   0.015  10.033 -0.0435 -0.1042 -0.2469
  747MOL0     C98528   7.551  -0.051  10.054 -1.0032 -0.5758  0.9096
  747MOL0     C98529   7.446  -0.069   9.962 -0.0370 -0.5022  0.0335
  747MOL0     O98530   7.336  -0.154   9.983 -0.1388 -0.4922 -0.8308
  747MOL0     C98531   7.293  -0.184  10.116  0.0304 -0.2973 -0.3763
  747MOL0     C98532   7.169  -0.258  10.096  0.5155  0.1349  0.2148
  747MOL0     C98533   7.091  -0.299  10.222 -0.5698  0.4822 -0.4800
  747MOL0     C98534   7.021  -0.176  10.281 -0.0029 -0.0585  0.0218
  747MOL0     C98535   6.945  -0.196  10.405 -0.0381  0.5809  0.1905
  747MOL0     C98536   6.888  -0.227  10.511 -0.1960 -0.1153  0.1448
  747MOL0     C98537   7.459  -0.003   9.847 -0.2423  0.3580  0.3762
  747MOL0     C98538   7.579   0.066   9.815  0.7336  0.7142 -0.3871
  747MOL0     H98539   8.072   0.241   9.890  0.0524 -0.1773  0.4439
  747MOL0     H98540   8.210   0.428   9.834 -0.3936 -0.6614  0.3177
  747MOL0     H98541   8.093   0.680   9.503 -0.3961 -1.3971  1.1418
  747MOL0     H98542   8.212   0.586   9.428 -4.7921 -1.2693 -0.2981
  747MOL0     H98543   8.232   0.858   9.557 -0.4024 -0.3650  0.0196
  747MOL0     H98544   8.286   0.800   9.392 -2.8414  2.8768  0.7250
  747MOL0     H98545   8.468   0.664   9.522  2.8661  0.7650 -0.3626
  747MOL0     H98546   8.431   0.771   9.662  1.8734 -2.6079 -0.0337
  747MOL0     H98547   8.504   0.886   9.377 -0.4181 -1.8018 -0.1576
  747MOL0     H98548   8.452   0.974   9.517 -2.0990  1.2505 -6.0599
  747MOL0     H98549   8.694   0.790   9.497 -4.2838 -0.9831 -1.1474
  747MOL0     H98550   8.650   0.868   9.649  0.8263 -2.9540  0.4413
  747MOL0     H98551   8.738   1.014   9.394  1.3531  2.2658 -0.0490
  747MOL0     H98552   8.835   0.980   9.539  0.3363  0.3461 -1.1417
  747MOL0     H98553   8.624   1.132   9.643 -0.2005 -1.6700 -0.1554
  747MOL0     H98554   8.788   1.177   9.632  1.1648  0.1187 -1.2165
  747MOL0     H98555   8.575   1.218   9.412  1.1432  0.0767 -2.4654
  747MOL0     H98556   8.742   1.262   9.391 -2.1834 -1.9181 -2.5557
  747MOL0     H98557   8.729   1.381   9.716 -1.3113  0.5023  1.9205
  747MOL0     H98558   8.506   1.683   9.803 -1.5192 -1.1717  1.9821
  747MOL0     H98559   8.687   1.666   9.786  0.1975 -0.0074  0.6201
  747MOL0     H98560   8.601   1.622  10.021  1.1732 -2.5000  1.8723
  747MOL0     H98561   8.724   1.532   9.947  0.4602  1.5005  0.3901
  747MOL0     H98562   8.521   1.362   9.900  0.7059 -0.1680  1.0718
  747MOL0     H98563   8.601   1.362  10.040  1.3276 -2.0389 -2.6973
  747MOL0     H98564   8.415   1.540  10.127 -0.6521 -2.4319  2.8269
  747MOL0     H98565   8.345   1.384  10.067  0.8927  0.0402  1.7651
  747MOL0     H98566   8.217   1.600   9.752 -0.3751 -0.9186 -1.1287
  747MOL0     H98567   7.964   1.576   9.689 -1.4322 -3.4363 -0.0265
  747MOL0     H98568   7.572   1.286  10.087  1.2941 -0.3734 -0.9413
  747MOL0     H98569   7.323   1.255  10.082  3.3545  0.2832  0.9146
  747MOL0     H98570   7.150   1.386   9.737 -0.1831 -1.9285  0.8668
  747MOL0     H98571   7.027   1.514   9.806 -0.7622 -0.2965 -2.5979
  747MOL0     H98572   6.904   1.318   9.871  0.2943  0.7029  0.5424
  747MOL0     H98573   7.018   1.219   9.767 -0.9974  0.0570 -2.6233
  747MOL0     H98574   6.974   1.365   9.580  1.1700  1.3502  0.8342
  747MOL0     H98575   6.816   1.412   9.662  0.1386  0.3812 -0.2695
  747MOL0     H98576   6.884   1.154   9.529 -0.9910  0.5953 -1.5379
  747MOL0     H98577   6.813   1.152   9.693 -2.7593  1.3914  0.4653
  747MOL0     H98578   6.715   1.332   9.486  1.3315  1.9019  2.9651
  747MOL0     H98579   6.618   1.270   9.614  0.0329 -1.1679 -0.2075
  747MOL0     H98580   6.710   1.116   9.368  3.3477 -0.6348  2.6058
  747MOL0     H98581   6.537   1.155   9.418 -0.3570 -2.5486 -1.4634
  747MOL0     H98582   6.630   0.910   9.446 -0.4141 -1.2634  1.4567
  747MOL0     H98583   6.719   0.987   9.580 -0.7460  1.3219  1.3381
  747MOL0     H98584   6.480   0.878   9.631 -0.2121  0.9837  0.7158
  747MOL0     H98585   6.424   1.038   9.571  1.4763  1.6087 -2.2696
  747MOL0     H98586   7.272   1.584   9.819  0.3574 -0.0805 -3.2836
  747MOL0     H98587   7.531   1.610   9.823 -1.0165  0.1470 -0.1947
  747MOL0     H98588   7.901   1.454  10.102 -1.1712  0.6907  0.2260
  747MOL0     H98589   8.139   1.463  10.139  1.6878  2.7707  0.1215
  747MOL0     H98590   7.985   0.504   9.484 -1.2379 -0.2889  1.2250
  747MOL0     H98591   7.835   0.311   9.539  0.0487 -1.3681 -0.0064
  747MOL0     H98592   7.743   0.024  10.111 -0.3152 -0.5079  0.0585
  747MOL0     H98593   7.536  -0.102  10.149 -1.7376 -2.5549 -0.2022
  747MOL0     H98594   7.273  -0.089  10.165  1.8560  0.8039 -1.6250
  747MOL0     H98595   7.364  -0.242  10.176 -1.3556  1.2090  2.9521
  747MOL0     H98596   7.099  -0.215  10.024 -0.4906 -0.6913  0.6722
  747MOL0     H98597   7.197  -0.355  10.055 -0.0318 -0.2947  0.8423
  747MOL0     H98598   7.155  -0.322  10.308 -1.3705 -0.2455 -0.0620
  747MOL0     H98599   7.008  -0.371  10.219 -1.9039  1.9218  0.1957
  747MOL0     H98600   7.094  -0.097  10.300 -0.8159  1.2148 -1.8402
  747MOL0     H98601   6.954  -0.135  10.205 -0.6892 -0.4959  0.3795
  747MOL0     H98602   6.825  -0.249  10.595 -1.4653 -0.7835 -0.9386
  747MOL0     H98603   7.386  -0.037   9.774 -0.4573  0.1192  0.6982
  747MOL0     H98604   7.597   0.102   9.714 -0.4457  2.9125  0.1078
  748MOL0     O98605   3.447  11.175   9.904  0.7141  0.3432 -0.1556
  748MOL0     C98606   3.349  11.160   9.835 -0.2956  0.8807 -0.3201
  748MOL0     O98607   3.344  11.209   9.707 -1.1257 -0.0466  0.1338
  748MOL0     C98608   3.460  11.271   9.649 -0.3855  0.0240 -0.5111
  748MOL0     C98609   3.503  11.394   9.696 -0.6631 -0.0665  0.3250
  748MOL0     C98610   3.613  11.455   9.636  1.0443 -0.1715  0.8198
  748MOL0     C98611   3.688  11.394   9.532  1.4213 -1.0194  0.2452
  748MOL0     O98612   3.793  11.455   9.473 -0.1037 -0.3010  0.0566
  748MOL0     C98613   3.815  11.594   9.500 -0.5285  0.2230  0.0060
  748MOL0     C98614   3.935  11.633   9.430 -0.2449 -1.0250 -0.2468
  748MOL0     C98615   4.062  11.563   9.451 -0.2399 -0.2295  0.3424
  748MOL0     C98616   4.180  11.621   9.374  0.7151  0.4153 -0.6576
  748MOL0     C98617   4.216  11.769   9.401  0.2681  0.1015  0.0108
  748MOL0     C98618   4.222  11.804   9.549  0.0274  0.2527 -0.0206
  748MOL0     C98619   4.331  11.734   9.627 -0.1561 -0.0060 -1.1358
  748MOL0     C98620   4.467  11.753   9.567 -0.0936 -0.6715 -0.1041
  748MOL0     N98621   4.530  11.889   9.585  0.8493  0.0292  1.3401
  748MOL0     C98622   4.511  11.989   9.489  0.3277  0.7590  0.1550
  748MOL0     C98623   4.554  12.098   9.546  0.1422  0.0184 -0.4004
  748MOL0     C98624   4.556  12.228   9.461 -0.3537 -0.1385 -0.3840
  748MOL0     C98625   4.674  12.321   9.497  0.6841 -0.7231 -0.2444
  748MOL0     C98626   4.642  12.463   9.429  0.4577  0.8638  0.4952
  748MOL0     C98627   4.684  12.460   9.278 -0.9191 -0.4342 -0.8443
  748MOL0     O98628   4.682  12.584   9.202 -0.3578  0.2217  0.6206
  748MOL0     C98629   4.577  12.665   9.203  0.1345 -0.9863  0.5064
  748MOL0     C98630   4.602  12.796   9.147 -0.1741 -0.9640 -0.2750
  748MOL0     C98631   4.486  12.872   9.114  0.4861 -0.4165 -0.1299
  748MOL0     C98632   4.352  12.831   9.136  0.6639 -0.2337 -0.1563
  748MOL0     C98633   4.240  12.931   9.119  0.0301 -0.7551 -0.6150
  748MOL0     O98634   4.114  12.872   9.140  0.2865 -0.0482 -0.1606
  748MOL0     C98635   3.989  12.950   9.137 -0.7216  0.5168 -0.1781
  748MOL0     C98636   3.888  12.930   9.232  0.2471  0.2205  0.0428
  748MOL0     C98637   3.771  13.011   9.235 -0.5050  0.2454 -0.1447
  748MOL0     C98638   3.761  13.115   9.148 -0.2645 -0.5573  0.4181
  748MOL0     O98639   3.649  13.188   9.139 -0.5920  0.2589 -0.1036
  748MOL0     C98640   3.615  13.290   9.049 -0.6144 -0.9537 -0.5599
  748MOL0     C98641   3.593  13.236   8.912 -0.4708  1.2147  0.1072
  748MOL0     C98642   3.462  13.156   8.913  0.2839 -0.6145 -0.4099
  748MOL0     C98643   3.466  13.048   8.810  0.2342  0.1232 -0.2424
  748MOL0     C98644   3.329  12.964   8.786 -0.0644 -0.7221  0.4095
  748MOL0     C98645   3.270  12.907   8.913  0.1121  0.3443  0.0232
  748MOL0     C98646   3.160  12.805   8.881  0.2881  0.2443 -0.6244
  748MOL0     C98647   3.105  12.745   9.011  0.2374 -0.8437  0.3873
  748MOL0    Cl98648   3.234  12.634   9.055  0.5454 -0.1887 -0.2377
  748MOL0     C98649   3.863  13.142   9.058 -0.5996 -0.6341 -0.2129
  748MOL0     C98650   3.963  13.049   9.035 -0.0394 -0.0706  0.3938
  748MOL0     O98651   4.255  13.045   9.084  0.2516 -0.5663  0.1501
  748MOL0     C98652   4.330  12.701   9.185  0.6284  0.4203  0.5784
  748MOL0     C98653   4.438  12.626   9.212  0.1614  0.2936  0.4445
  748MOL0     N98654   4.580  12.069   9.676 -0.4609 -0.7471  0.4454
  748MOL0     N98655   4.571  11.945   9.703  0.2598  0.9668 -0.3828
  748MOL0     C98656   3.637  11.269   9.493 -0.0404  1.2298  0.7287
  748MOL0     C98657   3.524  11.204   9.548  1.0595  0.0416 -0.1103
  748MOL0     C98658   3.218  11.092   9.880 -0.5888 -1.0011 -0.4982
  748MOL0     C98659   3.109  11.078   9.787 -0.5204  0.0208 -0.2839
  748MOL0     C98660   2.993  10.999   9.825 -0.8491  0.1192 -0.5648
  748MOL0     C98661   2.983  10.953   9.960 -0.0338  0.1903  0.8004
  748MOL0     O98662   2.874  10.888  10.006 -0.2043  0.4847 -0.6599
  748MOL0     C98663   2.773  10.980  10.033  0.8741  0.1769  0.3871
  748MOL0     C98664   2.726  10.954  10.175  0.5926  0.6288  0.3117
  748MOL0     C98665   2.798  11.052  10.265 -0.2849  0.1042  0.8789
  748MOL0     C98666   2.764  11.027  10.409  0.1328 -0.2171 -0.2019
  748MOL0     C98667   2.623  11.046  10.449  0.0168 -0.1313  0.6488
  748MOL0     C98668   2.508  11.048  10.482 -0.1433 -0.0322  0.4539
  748MOL0     C98669   3.090  10.964  10.048  0.2891 -0.2674 -0.9293
  748MOL0     C98670   3.206  11.042  10.004  0.5454  0.0490 -0.4682
  748MOL0     H98671   3.458  11.448   9.780 -1.3438  0.7430 -0.5305
  748MOL0     H98672   3.642  11.550   9.680 -1.2101 -0.6441  3.6132
  748MOL0     H98673   3.823  11.612   9.607  1.6848  3.3744 -0.5448
  748MOL0     H98674   3.737  11.659   9.460 -0.3955 -0.7644 -2.0270
  748MOL0     H98675   3.950  11.741   9.442 -0.4025 -1.3049  4.8749
  748MOL0     H98676   3.899  11.624   9.328 -1.7014 -0.4880  0.1879
  748MOL0     H98677   4.050  11.459   9.420 -0.3830  0.2156 -1.1577
  748MOL0     H98678   4.099  11.567   9.554  1.1842 -0.5209 -0.1254
  748MOL0     H98679   4.272  11.570   9.403  1.0619 -0.2943 -2.8168
  748MOL0     H98680   4.166  11.609   9.266  0.2490 -1.7872 -0.4010
  748MOL0     H98681   4.135  11.830   9.361 -0.4013  0.8070  2.2578
  748MOL0     H98682   4.307  11.800   9.350  0.3196  0.0448  0.0693
  748MOL0     H98683   4.124  11.786   9.594 -0.0499 -1.1699 -0.6950
  748MOL0     H98684   4.229  11.913   9.557  1.9045  0.1306  0.4520
  748MOL0     H98685   4.332  11.769   9.731 -3.1528  2.7899 -1.8717
  748MOL0     H98686   4.307  11.628   9.627  2.8401 -0.8353  1.4694
  748MOL0     H98687   4.472  11.733   9.460 -0.3130 -0.2327 -0.1982
  748MOL0     H98688   4.531  11.687   9.627  0.7271  3.1879  3.8279
  748MOL0     H98689   4.473  11.975   9.388  0.0383  1.1453  0.2061
  748MOL0     H98690   4.461  12.275   9.487  0.5473  0.5936  1.8079
  748MOL0     H98691   4.555  12.201   9.354 -0.9192 -0.3238 -0.3362
  748MOL0     H98692   4.770  12.277   9.467  0.8015  0.2790 -1.4118
  748MOL0     H98693   4.678  12.335   9.606  3.4131 -3.4392  0.1505
  748MOL0     H98694   4.534  12.480   9.438 -0.4826 -3.2364 -0.8234
  748MOL0     H98695   4.694  12.548   9.473  1.9309  1.9245 -2.9525
  748MOL0     H98696   4.621  12.392   9.220 -1.2534 -1.1477  0.3076
  748MOL0     H98697   4.785  12.419   9.278 -0.9382 -0.4831 -0.7293
  748MOL0     H98698   4.706  12.822   9.126 -0.1873 -1.0526 -0.4527
  748MOL0     H98699   4.491  12.970   9.068  1.2466  0.3243  1.4392
  748MOL0     H98700   3.911  12.853   9.306  0.7510  1.9499  1.7775
  748MOL0     H98701   3.688  12.991   9.303 -1.2016 -0.6571 -1.2236
  748MOL0     H98702   3.687  13.372   9.046 -2.0219  0.3263 -0.7733
  748MOL0     H98703   3.516  13.321   9.087  0.2229 -0.7781  1.6585
  748MOL0     H98704   3.675  13.168   8.888 -1.6114 -0.2573  0.2197
  748MOL0     H98705   3.590  13.313   8.833  0.3899  0.6401 -0.4992
  748MOL0     H98706   3.379  13.223   8.890  0.6776  0.7175  1.7791
  748MOL0     H98707   3.445  13.109   9.011  0.0001 -0.0310 -0.1763
  748MOL0     H98708   3.508  13.097   8.722  2.2340 -1.5887 -0.3308
  748MOL0     H98709   3.541  12.974   8.841  0.7069 -0.5881 -2.8469
  748MOL0     H98710   3.344  12.886   8.711 -0.3409 -0.7785  0.4109
  748MOL0     H98711   3.251  13.030   8.746  0.8449 -0.0187 -0.2402
  748MOL0     H98712   3.231  12.987   8.977 -1.1807  1.4866 -2.0595
  748MOL0     H98713   3.350  12.859   8.970  0.8610  1.6065  0.0582
  748MOL0     H98714   3.083  12.859   8.825 -0.2131 -0.0385 -0.2225
  748MOL0     H98715   3.202  12.728   8.816  2.2550 -0.6052  1.5076
  748MOL0     H98716   3.011  12.695   8.987 -1.1733  2.2116 -1.1090
  748MOL0     H98717   3.089  12.820   9.090  1.8792 -2.7859  2.6934
  748MOL0     H98718   3.843  13.227   8.993 -1.0995  0.7312  1.6375
  748MOL0     H98719   4.020  13.072   8.945 -1.5402 -2.6233 -1.3366
  748MOL0     H98720   4.229  12.664   9.193 -0.9982  3.2041 -3.7454
  748MOL0     H98721   4.413  12.524   9.240  0.8741 -0.2330 -0.7389
  748MOL0     H98722   3.713  11.220   9.433 -0.5155  0.2973  0.8672
  748MOL0     H98723   3.513  11.097   9.532  0.6165 -0.0288  0.6057
  748MOL0     H98724   3.110  11.123   9.688  2.0240 -2.0918 -1.3108
  748MOL0     H98725   2.901  10.991   9.769 -1.4294  0.8308  0.2539
  748MOL0     H98726   2.688  10.953   9.971  0.2930  1.4668  0.5927
  748MOL0     H98727   2.803  11.084  10.017 -2.1120  1.1133  0.4372
  748MOL0     H98728   2.617  10.966  10.173  0.4190 -0.8951 -0.5119
  748MOL0     H98729   2.738  10.853  10.215  2.1873  1.6576  2.6765
  748MOL0     H98730   2.783  11.157  10.239  1.7739  0.5683  1.3939
  748MOL0     H98731   2.906  11.032  10.261 -0.7100 -2.2141 -1.0757
  748MOL0     H98732   2.799  10.929  10.441 -2.6420 -0.7721  1.5707
  748MOL0     H98733   2.824  11.102  10.462 -2.4132 -0.3866  3.2891
  748MOL0     H98734   2.401  11.051  10.492 -0.1819  1.9586  0.0029
  748MOL0     H98735   3.084  10.928  10.150 -0.4219 -0.6635 -1.1075
  748MOL0     H98736   3.288  11.047  10.075 -1.6193 -0.3960  2.2462
  749MOL0     O98737   4.740   1.177  10.521  0.2167 -0.2334 -0.4910
  749MOL0     C98738   4.753   1.286  10.460 -0.0493  0.1783  0.5726
  749MOL0     O98739   4.871   1.348  10.433 -0.0576 -0.3098 -0.1523
  749MOL0     C98740   4.976   1.327  10.509  0.3390  1.1728  0.0128
  749MOL0     C98741   5.049   1.209  10.520 -0.0149  0.1494  0.5704
  749MOL0     C98742   5.158   1.210  10.603  0.1787 -0.4289 -0.4382
  749MOL0     C98743   5.201   1.326  10.675 -0.1968  0.1653 -0.6136
  749MOL0     O98744   5.318   1.310  10.740  0.4549  0.0129  0.0501
  749MOL0     C98745   5.413   1.422  10.748  0.3987  0.0046 -0.6285
  749MOL0     C98746   5.561   1.375  10.747  0.6783 -0.1946 -0.3717
  749MOL0     C98747   5.609   1.298  10.867  0.1442  0.0374  0.3578
  749MOL0     C98748   5.761   1.273  10.841  0.1969 -0.0496  0.9777
  749MOL0     C98749   5.812   1.159  10.945  0.1586  0.0702  0.8857
  749MOL0     C98750   5.768   1.175  11.089 -1.0666 -0.1244  0.1069
  749MOL0     C98751   5.841   1.299  11.148 -0.7230 -0.1652 -0.2752
  749MOL0     C98752   5.749   1.376  11.250 -0.7891  0.2860 -0.4559
  749MOL0     N98753   5.761   1.320  11.384  0.6437 -0.4222 -0.1281
  749MOL0     C98754   5.878   1.289  11.443  0.1764 -0.1519 -0.5871
  749MOL0     C98755   5.841   1.214  11.549  0.5535  0.5590  0.8062
  749MOL0     C98756   5.944   1.146  11.635  1.1364 -0.1475 -0.7429
  749MOL0     C98757   6.041   1.056  11.558 -0.0508 -0.9184  0.4141
  749MOL0     C98758   6.092   0.924  11.625  0.7864 -0.8946 -0.7925
  749MOL0     C98759   6.150   0.945  11.765  0.1385 -0.0298  0.8219
  749MOL0     O98760   6.274   1.008  11.786 -0.3682  0.2230  0.0763
  749MOL0     C98761   6.397   0.942  11.764 -1.0066  0.3275  1.0800
  749MOL0     C98762   6.413   0.804  11.730  1.0947  0.1775  0.0013
  749MOL0     C98763   6.544   0.757  11.702  1.1983 -0.9641  0.8525
  749MOL0     C98764   6.652   0.838  11.723 -0.7890  0.6871 -0.1512
  749MOL0     C98765   6.802   0.783  11.723 -0.1910  0.9646  0.9913
  749MOL0     O98766   6.901   0.871  11.747 -0.6890 -1.2582  0.9355
  749MOL0     C98767   7.029   0.819  11.740 -0.1805 -0.0024  0.6753
  749MOL0     C98768   7.089   0.784  11.864  0.7737 -0.5731 -0.2814
  749MOL0     C98769   7.215   0.723  11.864 -0.1209 -0.2211  0.2775
  749MOL0     C98770   7.292   0.715  11.742  0.1057  0.5439  0.5543
  749MOL0     O98771   7.425   0.673  11.739 -0.0155  0.3048 -0.2115
  749MOL0     C98772   7.495   0.641  11.619 -0.0028 -0.2577  0.2579
  749MOL0     C98773   7.545   0.761  11.544  0.1753 -0.6297 -0.5140
  749MOL0     C98774   7.628   0.841  11.637 -0.1243 -0.2797 -0.7267
  749MOL0     C98775   7.698   0.958  11.561 -0.1124  0.2566  0.9875
  749MOL0     C98776   7.773   1.035  11.662 -1.0088 -0.4248  0.1023
  749MOL0     C98777   7.872   1.139  11.598  0.8828  0.5683 -0.4147
  749MOL0     C98778   7.997   1.075  11.533  0.0154 -0.5632 -0.2426
  749MOL0     C98779   8.058   1.184  11.439 -0.4580  0.2604  0.4338
  749MOL0    Cl98780   8.210   1.104  11.384  0.1617  0.1573 -0.3088
  749MOL0     C98781   7.224   0.749  11.624 -1.1641  0.1480 -0.4170
  749MOL0     C98782   7.094   0.780  11.618  0.3230  0.0053 -0.5818
  749MOL0     O98783   6.817   0.665  11.692  0.9952  0.3999  0.2437
  749MOL0     C98784   6.639   0.974  11.743  0.3515 -0.3414 -0.2024
  749MOL0     C98785   6.509   1.025  11.764  0.3292 -0.4767  0.0893
  749MOL0     N98786   5.712   1.184  11.527 -0.5306  0.0300 -0.1628
  749MOL0     N98787   5.664   1.246  11.424  0.2670 -0.0613  0.6191
  749MOL0     C98788   5.122   1.435  10.676  0.2518 -0.3993 -0.1470
  749MOL0     C98789   5.014   1.441  10.588 -0.5322 -0.0388  0.4669
  749MOL0     C98790   4.637   1.338  10.388 -0.3916 -0.9393 -0.2786
  749MOL0     C98791   4.649   1.406  10.267  0.1070  0.5262  0.3693
  749MOL0     C98792   4.537   1.447  10.196  0.0490  0.1238 -0.5772
  749MOL0     C98793   4.410   1.416  10.254 -0.4003 -0.0738  0.5912
  749MOL0     O98794   4.307   1.449  10.170 -0.7647  0.1143  0.0447
  749MOL0     C98795   4.272   1.585  10.192  0.6574 -0.2443  0.5255
  749MOL0     C98796   4.131   1.611  10.124  0.0990  0.6469 -0.2636
  749MOL0     C98797   4.147   1.666   9.987 -0.1171 -1.0725 -0.4220
  749MOL0     C98798   4.165   1.574   9.859  0.1110  1.2948 -0.5702
  749MOL0     C98799   4.058   1.468   9.835  0.5818  0.1311  0.7920
  749MOL0     C98800   3.969   1.397   9.806 -0.2431  0.2043 -0.9697
  749MOL0     C98801   4.400   1.335  10.363  0.0670 -0.9088 -0.5964
  749MOL0     C98802   4.517   1.298  10.440  0.5001  0.1073 -0.1315
  749MOL0     H98803   5.026   1.137  10.443 -1.7448  2.1156 -0.8562
  749MOL0     H98804   5.227   1.127  10.600  0.1939 -0.4051 -3.2889
  749MOL0     H98805   5.407   1.483  10.838 -0.5727  1.6293 -1.7487
  749MOL0     H98806   5.398   1.489  10.663 -0.9371 -0.2262 -0.5854
  749MOL0     H98807   5.630   1.459  10.732  1.1451 -0.6769 -0.9943
  749MOL0     H98808   5.570   1.303  10.666 -1.1380 -1.1359  0.2261
  749MOL0     H98809   5.551   1.205  10.873  0.9441 -0.4326  1.0578
  749MOL0     H98810   5.606   1.362  10.956  1.6094  2.0795 -0.9719
  749MOL0     H98811   5.768   1.245  10.735  0.1395 -0.3785  1.0583
  749MOL0     H98812   5.812   1.370  10.843 -1.6470  0.9533  1.6812
  749MOL0     H98813   5.921   1.169  10.936  0.1235  1.9033  2.0542
  749MOL0     H98814   5.788   1.059  10.907 -5.2441 -0.4015  4.5317
  749MOL0     H98815   5.803   1.085  11.141  0.1702  0.0582 -0.3778
  749MOL0     H98816   5.660   1.184  11.104 -1.1734  0.4650 -0.9506
  749MOL0     H98817   5.936   1.267  11.192 -1.6532 -0.0306  1.9994
  749MOL0     H98818   5.851   1.367  11.064 -1.5313 -1.3423 -1.3680
  749MOL0     H98819   5.650   1.375  11.203 -0.6127 -3.4614 -1.0863
  749MOL0     H98820   5.782   1.480  11.243  4.2018 -1.1337 -5.0573
  749MOL0     H98821   5.975   1.326  11.411  0.7262  2.0946  3.0998
  749MOL0     H98822   5.891   1.077  11.700 -0.3842 -1.3011 -3.0888
  749MOL0     H98823   6.001   1.222  11.690  2.9989 -0.2861 -2.3257
  749MOL0     H98824   6.140   1.097  11.534  0.6521 -0.9278  2.9631
  749MOL0     H98825   5.990   1.016  11.470 -0.0722  2.3051 -1.1980
  749MOL0     H98826   6.001   0.865  11.632  0.9253 -1.4241 -2.8063
  749MOL0     H98827   6.168   0.883  11.558 -0.5545 -2.5882 -1.3525
  749MOL0     H98828   6.156   0.852  11.821  1.3806  0.3559  1.3745
  749MOL0     H98829   6.096   1.019  11.825  3.1078  1.5396  1.7758
  749MOL0     H98830   6.328   0.736  11.736  0.7828  0.6412  1.1840
  749MOL0     H98831   6.565   0.653  11.679 -2.0076 -1.7452  1.1008
  749MOL0     H98832   7.025   0.792  11.952 -0.5383  2.0255 -1.3661
  749MOL0     H98833   7.247   0.678  11.957 -0.5662  2.9368  2.0945
  749MOL0     H98834   7.441   0.574  11.552 -0.7527  0.0483  0.5450
  749MOL0     H98835   7.585   0.591  11.657 -0.4799 -0.0286  1.7619
  749MOL0     H98836   7.455   0.814  11.512 -0.4539 -0.5908  1.1927
  749MOL0     H98837   7.598   0.731  11.453  0.0935  3.2392 -2.0258
  749MOL0     H98838   7.708   0.779  11.679  0.7872 -1.4257 -3.8588
  749MOL0     H98839   7.561   0.884  11.712 -1.5279 -3.0671 -0.2147
  749MOL0     H98840   7.766   0.918  11.485 -1.2100  0.9171 -0.4001
  749MOL0     H98841   7.613   1.002  11.508 -1.0096 -1.0652  1.2883
  749MOL0     H98842   7.824   0.963  11.726 -0.6581 -0.0651  0.2322
  749MOL0     H98843   7.700   1.082  11.729  1.0499  1.6866  0.9824
  749MOL0     H98844   7.896   1.218  11.669 -1.2107 -0.1341  1.1766
  749MOL0     H98845   7.816   1.182  11.514 -1.5822 -2.4768 -0.5537
  749MOL0     H98846   8.082   1.064  11.601  3.1297  2.2362 -3.2869
  749MOL0     H98847   7.984   0.981  11.478 -0.0967 -1.5603  1.4310
  749MOL0     H98848   8.086   1.272  11.498 -1.9840  0.6488  0.6274
  749MOL0     H98849   7.995   1.218  11.356  1.3872  1.9612 -0.3721
  749MOL0     H98850   7.274   0.724  11.531  0.0407 -2.0091  0.7426
  749MOL0     H98851   7.043   0.804  11.525 -2.2490  2.9885  1.3763
  749MOL0     H98852   6.728   1.035  11.753  0.8626 -1.3492  2.5670
  749MOL0     H98853   6.491   1.128  11.791  2.0058 -0.4995  1.4637
  749MOL0     H98854   5.144   1.517  10.742 -2.4393  2.1187 -2.0972
  749MOL0     H98855   4.954   1.530  10.576 -1.7645 -0.8601  0.3207
  749MOL0     H98856   4.744   1.434  10.222  0.6211  0.5482  1.4353
  749MOL0     H98857   4.546   1.501  10.103 -1.2092 -0.5967 -1.1421
  749MOL0     H98858   4.349   1.653  10.155 -0.5553 -0.4989 -2.7298
  749MOL0     H98859   4.262   1.605  10.300  2.9775 -0.7330  0.8743
  749MOL0     H98860   4.075   1.517  10.122  0.0285  0.6974 -0.8794
  749MOL0     H98861   4.077   1.680  10.189 -2.2637 -0.5149 -0.8723
  749MOL0     H98862   4.239   1.726   9.985 -0.0463 -1.1956 -1.1103
  749MOL0     H98863   4.073   1.744   9.967  1.1461  0.5086  0.7736
  749MOL0     H98864   4.169   1.640   9.772  2.0781 -1.9505 -3.1776
  749MOL0     H98865   4.260   1.525   9.882 -0.7226  0.1037  0.5339
  749MOL0     H98866   3.874   1.350   9.790 -1.5515  1.4950  2.2754
  749MOL0     H98867   4.307   1.296  10.401  0.7623  1.4482  4.3152
  749MOL0     H98868   4.503   1.243  10.533  0.9220  1.6186  0.8682
  750MOL0     O98869   7.068  11.290   6.543  0.3202 -0.8567  0.4039
  750MOL0     C98870   7.178  11.251   6.584 -0.2401 -0.1286  0.2709
  750MOL0     O98871   7.288  11.240   6.512 -0.7025 -0.1974 -0.3946
  750MOL0     C98872   7.284  11.309   6.400  0.8603  0.3571 -0.5836
  750MOL0     C98873   7.212  11.263   6.294 -0.3108 -0.3900  1.1454
  750MOL0     C98874   7.221  11.325   6.168  0.5913 -0.6440  0.3326
  750MOL0     C98875   7.317  11.426   6.145 -0.5277  0.7874 -0.2119
  750MOL0     O98876   7.322  11.492   6.023 -0.5544  1.0885  0.1751
  750MOL0     C98877   7.229  11.465   5.921  0.2246  0.8054  0.0702
  750MOL0     C98878   7.263  11.533   5.793 -0.1094 -0.1537  0.5377
  750MOL0     C98879   7.241  11.683   5.816  0.3445 -0.3118 -0.5696
  750MOL0     C98880   7.278  11.760   5.685  0.2998 -0.2372  0.2677
  750MOL0     C98881   7.422  11.763   5.639  1.0974  0.0130 -0.2341
  750MOL0     C98882   7.432  11.830   5.501 -0.7073  0.4347  0.5181
  750MOL0     C98883   7.580  11.830   5.459  0.2036 -0.3149  1.0990
  750MOL0     C98884   7.575  11.879   5.308  0.1621  0.8844 -0.8550
  750MOL0     N98885   7.709  11.925   5.266 -0.8375  0.4543  1.2697
  750MOL0     C98886   7.832  11.936   5.336 -0.3254 -0.5555  0.6065
  750MOL0     C98887   7.928  11.991   5.263  0.6834 -0.4020  0.2809
  750MOL0     C98888   8.066  12.019   5.315  0.3637 -0.0767  0.3535
  750MOL0     C98889   8.149  11.893   5.312  0.4564  0.3161 -0.9448
  750MOL0     C98890   8.205  11.862   5.175  0.7437 -0.3032 -0.0257
  750MOL0     C98891   8.246  11.724   5.141 -0.5398 -0.1037  0.2116
  750MOL0     O98892   8.259  11.644   5.254  0.0790  0.0166  0.7084
  750MOL0     C98893   8.270  11.505   5.237 -0.5361 -0.0760  0.4003
  750MOL0     C98894   8.245  11.424   5.354 -0.6987  0.8314 -1.0625
  750MOL0     C98895   8.277  11.286   5.351  0.4419 -0.2088 -1.6280
  750MOL0     C98896   8.315  11.225   5.239 -0.1833  0.2870 -0.1351
  750MOL0     C98897   8.338  11.072   5.229 -0.6801  0.2949 -0.8695
  750MOL0     O98898   8.321  10.999   5.346 -0.1255 -0.6278 -0.7526
  750MOL0     C98899   8.310  10.865   5.328 -0.5682  0.5695  0.0491
  750MOL0     C98900   8.400  10.779   5.399  0.4210 -1.4519 -0.5099
  750MOL0     C98901   8.392  10.639   5.385  0.7824  0.3333  0.1793
  750MOL0     C98902   8.309  10.588   5.295 -0.2483 -0.4410 -0.5557
  750MOL0     O98903   8.308  10.451   5.285 -0.0376  0.6231  0.7909
  750MOL0     C98904   8.244  10.396   5.169 -1.1304 -0.2302 -0.4370
  750MOL0     C98905   8.262  10.246   5.169 -0.4931 -0.1180  0.7998
  750MOL0     C98906   8.392  10.175   5.160  0.3832  0.0719  0.2922
  750MOL0     C98907   8.455  10.199   5.026 -0.5948  0.8515  0.4073
  750MOL0     C98908   8.602  10.148   5.021  0.0017 -0.1801 -0.9187
  750MOL0     C98909   8.662  10.186   4.881 -0.3078 -0.6444 -0.2151
  750MOL0     C98910   8.810  10.145   4.881  0.3621  0.3859  0.6524
  750MOL0     C98911   8.892  10.180   4.763  0.1609  0.4356  0.3743
  750MOL0    Cl98912   8.809  10.110   4.621  0.2644  0.1199 -0.3080
  750MOL0     C98913   8.214  10.668   5.226 -0.0106  0.1695 -0.2260
  750MOL0     C98914   8.218  10.804   5.239  0.5966  0.0630 -0.3610
  750MOL0     O98915   8.371  11.023   5.125 -0.3431  0.3097  0.8028
  750MOL0     C98916   8.351  11.302   5.126 -0.4562 -0.3304  0.1703
  750MOL0     C98917   8.333  11.446   5.126  0.1680 -0.0656  0.1021
  750MOL0     N98918   7.863  12.020   5.144  0.0339 -0.2979  0.2606
  750MOL0     N98919   7.739  11.978   5.142  0.0133 -1.2652 -0.9775
  750MOL0     C98920   7.392  11.475   6.254  0.2737  0.2895 -0.5372
  750MOL0     C98921   7.365  11.412   6.377 -0.0803  1.0996 -0.7449
  750MOL0     C98922   7.190  11.204   6.723 -0.0238  0.1886  0.6783
  750MOL0     C98923   7.314  11.163   6.784 -1.1206  0.2667 -0.2248
  750MOL0     C98924   7.332  11.130   6.916  0.7032 -0.3076  0.9781
  750MOL0     C98925   7.227  11.144   7.003  1.1808 -0.2849 -0.3716
  750MOL0     O98926   7.266  11.137   7.139 -0.1623 -0.1895 -0.1266
  750MOL0     C98927   7.166  11.157   7.237 -0.2832  1.3372  0.1658
  750MOL0     C98928   7.189  11.127   7.384  0.0700 -0.2555 -0.4345
  750MOL0     C98929   7.266  11.243   7.443 -0.8119 -0.0454 -1.0266
  750MOL0     C98930   7.285  11.213   7.592  0.8697  0.5585 -1.1556
  750MOL0     C98931   7.154  11.205   7.663 -0.4329  0.0560 -0.5683
  750MOL0     C98932   7.050  11.198   7.724 -0.5252 -0.3107 -0.2731
  750MOL0     C98933   7.105  11.181   6.952 -0.0773  0.4705 -0.0421
  750MOL0     C98934   7.085  11.209   6.814  0.8281  1.1689  0.4055
  750MOL0     H98935   7.147  11.179   6.319  0.4337 -0.3724  3.3752
  750MOL0     H98936   7.151  11.289   6.094 -1.8846 -0.7571  2.5455
  750MOL0     H98937   7.131  11.490   5.963 -0.1838 -1.5859  0.6800
  750MOL0     H98938   7.223  11.359   5.897 -5.1511  1.3031 -2.0659
  750MOL0     H98939   7.187  11.500   5.721  0.7188 -0.9913  0.0237
  750MOL0     H98940   7.364  11.514   5.756 -1.2708 -0.1807 -2.9934
  750MOL0     H98941   7.306  11.708   5.901  1.3682 -2.9881 -0.4623
  750MOL0     H98942   7.138  11.715   5.833  1.1223  1.8420  0.4554
  750MOL0     H98943   7.218  11.716   5.605  0.2052 -1.9813  1.2437
  750MOL0     H98944   7.250  11.864   5.703  1.0886  0.4997 -2.3660
  750MOL0     H98945   7.468  11.664   5.633 -0.2503 -0.6308 -0.3172
  750MOL0     H98946   7.470  11.821   5.719  2.2993 -0.9942 -0.1941
  750MOL0     H98947   7.385  11.928   5.513  1.1487  0.9829  5.1992
  750MOL0     H98948   7.365  11.772   5.437  1.4962 -1.6222 -0.0374
  750MOL0     H98949   7.646  11.894   5.519  2.6451 -0.7693 -0.9389
  750MOL0     H98950   7.632  11.736   5.480 -1.0432 -0.6206  3.2101
  750MOL0     H98951   7.508  11.965   5.301 -1.3573 -0.0551  1.0843
  750MOL0     H98952   7.535  11.804   5.239 -0.3785  0.4670 -0.1149
  750MOL0     H98953   7.854  11.904   5.438 -0.5915 -3.7748 -0.2285
  750MOL0     H98954   8.041  12.058   5.415  3.0856  0.5177  0.8983
  750MOL0     H98955   8.110  12.110   5.273 -0.1449  2.0496  3.9992
  750MOL0     H98956   8.082  11.815   5.351 -0.2830  0.4404 -1.9403
  750MOL0     H98957   8.237  11.905   5.376 -0.2517  2.6082 -0.3140
  750MOL0     H98958   8.130  11.881   5.098  0.7510 -0.4056 -0.0581
  750MOL0     H98959   8.277  11.941   5.152 -0.8342  2.2474  3.1157
  750MOL0     H98960   8.340  11.730   5.086 -0.1790 -3.2384  0.2951
  750MOL0     H98961   8.172  11.682   5.071 -1.4627  2.0805 -0.2057
  750MOL0     H98962   8.189  11.462   5.440 -1.7402 -3.4283  0.3926
  750MOL0     H98963   8.262  11.245   5.450 -3.2329  0.6190 -1.6868
  750MOL0     H98964   8.459  10.831   5.473 -1.5326 -0.8950  0.7346
  750MOL0     H98965   8.464  10.569   5.426  1.9502  1.6479  0.4172
  750MOL0     H98966   8.285  10.432   5.074  3.3487 -0.8471  0.9978
  750MOL0     H98967   8.137  10.410   5.184 -1.3598 -2.8521  0.9752
  750MOL0     H98968   8.195  10.203   5.094  1.8251  0.3627 -1.6940
  750MOL0     H98969   8.227  10.199   5.262  1.0642 -4.4997 -0.5835
  750MOL0     H98970   8.370  10.069   5.171 -3.0847  0.2033 -3.1720
  750MOL0     H98971   8.460  10.215   5.236  0.8636  3.0221 -1.5337
  750MOL0     H98972   8.396  10.161   4.943  1.1312 -0.8764 -0.0897
  750MOL0     H98973   8.463  10.306   5.006 -0.1188  0.2222 -3.3677
  750MOL0     H98974   8.595  10.039   5.027  0.7617 -0.1472  1.5185
  750MOL0     H98975   8.656  10.191   5.105  1.3898 -1.6202 -1.0123
  750MOL0     H98976   8.662  10.293   4.859  4.7993  0.2597  2.5770
  750MOL0     H98977   8.615  10.121   4.807  0.9562  0.2977 -1.9118
  750MOL0     H98978   8.864  10.188   4.966  0.7105  1.2279  0.0174
  750MOL0     H98979   8.814  10.038   4.901  1.3981  0.7774  2.8234
  750MOL0     H98980   8.990  10.135   4.780  1.2715  1.8500 -1.8684
  750MOL0     H98981   8.909  10.287   4.747  2.7742  0.5963  3.3805
  750MOL0     H98982   8.139  10.629   5.158 -0.2190 -1.1100  0.6983
  750MOL0     H98983   8.148  10.868   5.187  1.6339  1.7983  0.2829
  750MOL0     H98984   8.395  11.266   5.034 -5.0314 -1.0345 -1.9977
  750MOL0     H98985   8.369  11.499   5.038  1.1679  2.4619  1.9359
  750MOL0     H98986   7.456  11.562   6.240  1.6233 -0.7857 -1.2169
  750MOL0     H98987   7.419  11.439   6.468 -2.1197 -1.6140  1.4541
  750MOL0     H98988   7.396  11.156   6.714 -0.1185 -0.5401  0.9822
  750MOL0     H98989   7.421  11.092   6.965 -1.1309 -2.9929  2.5419
  750MOL0     H98990   7.085  11.093   7.202  1.1608 -0.2316 -0.4788
  750MOL0     H98991   7.134  11.261   7.232  0.7300  1.6892  0.6464
  750MOL0     H98992   7.091  11.130   7.433 -0.4269 -0.1246 -1.4212
  750MOL0     H98993   7.233  11.028   7.403  2.9108  1.1818  1.2182
  750MOL0     H98994   7.227  11.344   7.430  1.3573  0.9021 -0.7294
  750MOL0     H98995   7.364  11.244   7.394  0.3303  0.9720  1.0964
  750MOL0     H98996   7.331  11.114   7.602 -1.8273 -0.6300  0.5197
  750MOL0     H98997   7.352  11.287   7.636  2.5577 -1.9640  0.7884
  750MOL0     H98998   6.960  11.192   7.782 -1.0221  3.7795 -0.3093
  750MOL0     H98999   7.022  11.213   7.014  3.0639  3.7939  2.8916
  750MOL0     H99000   6.983  11.233   6.786 -0.9767 -0.7207  4.4939
  751MOL0     O99001  11.223   2.132   1.199  0.7562  0.1473 -0.2290
  751MOL0     C99002  11.310   2.065   1.153 -0.5739  0.1741  0.1081
  751MOL0     O99003  11.308   1.926   1.144  0.2707  0.0784 -0.2786
  751MOL0     C99004  11.194   1.855   1.166 -0.2870  0.9482 -0.0351
  751MOL0     C99005  11.102   1.819   1.066  0.9938  0.2051 -0.3573
  751MOL0     C99006  10.992   1.733   1.101 -0.5489  0.5618  0.0446
  751MOL0     C99007  10.963   1.695   1.233 -0.6474 -0.3597  0.2516
  751MOL0     O99008  10.851   1.619   1.253  1.3002 -0.1851  0.0601
  751MOL0     C99009  10.837   1.539   1.370 -0.2756  0.9932 -0.0677
  751MOL0     C99010  10.948   1.421   1.373  0.0255  0.8290  0.6621
  751MOL0     C99011  10.950   1.352   1.504  0.0263  0.3593  0.4333
  751MOL0     C99012  10.826   1.258   1.541 -0.6752  1.0846  0.0199
  751MOL0     C99013  10.862   1.170   1.669  0.9551 -0.1327 -0.6631
  751MOL0     C99014  10.742   1.082   1.707 -0.4608  0.2586 -0.7053
  751MOL0     C99015  10.746   1.009   1.849 -0.4675 -0.0947  1.1785
  751MOL0     C99016  10.613   0.950   1.900  0.4773  0.1087 -0.4976
  751MOL0     N99017  10.563   0.838   1.820  0.0219  0.6472  0.1908
  751MOL0     C99018  10.590   0.707   1.841 -0.1737 -0.1320 -0.1908
  751MOL0     C99019  10.515   0.647   1.747 -0.5461 -0.1751  0.5533
  751MOL0     C99020  10.518   0.502   1.729  0.1719 -0.3651  0.2753
  751MOL0     C99021  10.386   0.443   1.754  0.8659 -0.0460 -0.9311
  751MOL0     C99022  10.394   0.303   1.719  0.6116 -0.0508  0.6119
  751MOL0     C99023  10.247   0.255   1.716  0.6617 -0.3019 -0.0336
  751MOL0     O99024  10.172   0.324   1.610 -0.6713  0.2495 -0.7374
  751MOL0     C99025  10.036   0.302   1.604 -0.1509 -0.0868 -0.6072
  751MOL0     C99026   9.979   0.354   1.487  0.2341 -0.0268 -0.3036
  751MOL0     C99027   9.839   0.340   1.466  0.6787  0.1721 -0.6154
  751MOL0     C99028   9.760   0.275   1.555 -0.6866 -0.0755  0.0276
  751MOL0     C99029   9.612   0.264   1.543  0.2758  0.4208 -0.7007
  751MOL0     O99030   9.555   0.181   1.629  1.0513  0.0569  0.9491
  751MOL0     C99031   9.423   0.151   1.604  0.7132 -0.5499  0.3312
  751MOL0     C99032   9.347   0.167   1.713  0.0601  0.1179  0.7642
  751MOL0     C99033   9.212   0.142   1.704 -0.0292 -0.3961 -0.3511
  751MOL0     C99034   9.154   0.089   1.592  0.5754  0.4034  0.7628
  751MOL0     O99035   9.020   0.044   1.586  0.6317 -0.4300  0.1787
  751MOL0     C99036   8.922   0.083   1.680 -0.3919 -0.4762 -0.2002
  751MOL0     C99037   8.776   0.023   1.682  0.1993 -0.7121  0.4546
  751MOL0     C99038   8.786  -0.128   1.695 -0.6061 -0.3951 -0.3044
  751MOL0     C99039   8.656  -0.202   1.683  0.0273  0.1363 -0.6152
  751MOL0     C99040   8.690  -0.357   1.652  0.4665  0.0260  0.1329
  751MOL0     C99041   8.579  -0.419   1.549  0.0431 -0.0700  0.9111
  751MOL0     C99042   8.450  -0.470   1.616  0.4029 -0.4979 -0.1420
  751MOL0     C99043   8.371  -0.534   1.502  0.1764 -0.8548  0.8285
  751MOL0    Cl99044   8.230  -0.601   1.577 -0.1005  0.1520  0.2411
  751MOL0     C99045   9.239   0.075   1.483  0.4832 -0.7163  0.1988
  751MOL0     C99046   9.377   0.105   1.485  0.6475 -1.4812  0.2387
  751MOL0     O99047   9.558   0.348   1.468 -0.4471 -0.6846  0.3366
  751MOL0     C99048   9.828   0.229   1.676 -0.1946  0.2814  0.1091
  751MOL0     C99049   9.962   0.238   1.696 -0.6955  0.8066  0.1555
  751MOL0     N99050  10.442   0.736   1.668 -0.1065 -0.4853  0.4739
  751MOL0     N99051  10.479   0.854   1.714  0.6316 -0.3907 -0.3278
  751MOL0     C99052  11.042   1.748   1.334 -0.3611  0.4206  0.1292
  751MOL0     C99053  11.158   1.819   1.298  0.9342 -0.0047  0.7658
  751MOL0     C99054  11.426   2.140   1.086 -0.1232  0.4121  0.4338
  751MOL0     C99055  11.424   2.283   1.096 -0.1467 -0.2975  0.5122
  751MOL0     C99056  11.528   2.349   1.053 -0.0110 -0.0823  0.3143
  751MOL0     C99057  11.646   2.294   0.997  1.1288  0.2543  0.1741
  751MOL0     O99058  11.760   2.365   0.952  0.0571  0.2190  0.1215
  751MOL0     C99059  11.739   2.439   0.831  0.1016 -0.4981 -0.4608
  751MOL0     C99060  11.856   2.531   0.808 -0.1863 -1.0703  0.1509
  751MOL0     C99061  11.835   2.633   0.696 -0.3719  0.6704 -0.0364
  751MOL0     C99062  11.881   2.582   0.559 -0.8509 -0.1799 -0.4035
  751MOL0     C99063  11.792   2.491   0.488  0.0846  0.1820  0.0445
  751MOL0     C99064  11.705   2.418   0.446  0.3779 -0.0664  0.8970
  751MOL0     C99065  11.640   2.156   0.977 -0.3027 -0.3016 -0.0204
  751MOL0     C99066  11.542   2.070   1.024  0.0431  0.3651 -0.3263
  751MOL0     H99067  11.118   1.865   0.968  1.3613 -0.4458 -0.6080
  751MOL0     H99068  10.927   1.705   1.018  1.9180  1.3126 -2.2876
  751MOL0     H99069  10.739   1.492   1.371 -0.5213  1.5093  0.4766
  751MOL0     H99070  10.850   1.608   1.454  0.0285 -0.2339  0.9335
  751MOL0     H99071  11.046   1.461   1.346  0.0516  0.1917 -0.2502
  751MOL0     H99072  10.938   1.343   1.296  2.0044  3.1747 -2.1875
  751MOL0     H99073  10.973   1.423   1.584  0.4564  0.5319  0.1568
  751MOL0     H99074  11.037   1.288   1.496  0.5680  1.2860 -1.6399
  751MOL0     H99075  10.731   1.310   1.555 -2.5789 -2.6083  2.4221
  751MOL0     H99076  10.812   1.199   1.450  1.4651 -2.0479  1.5418
  751MOL0     H99077  10.879   1.236   1.755  0.2111 -2.6419  1.5449
  751MOL0     H99078  10.953   1.110   1.659 -1.0998 -3.6116 -0.1030
  751MOL0     H99079  10.736   1.004   1.631  2.6928 -2.4459  1.5339
  751MOL0     H99080  10.665   1.160   1.713  0.5222  1.3421 -1.7120
  751MOL0     H99081  10.810   0.921   1.839 -1.8849 -1.0894  0.4970
  751MOL0     H99082  10.785   1.085   1.917  0.7960  0.0511  0.3333
  751MOL0     H99083  10.538   1.029   1.912 -1.7507 -2.2193  2.8365
  751MOL0     H99084  10.628   0.911   2.001 -2.5043  0.9578  0.3914
  751MOL0     H99085  10.650   0.668   1.922 -1.9024 -0.9295  0.7742
  751MOL0     H99086  10.592   0.462   1.799 -0.8144  0.2715  1.7465
  751MOL0     H99087  10.541   0.488   1.623  1.7212  0.8542  0.4034
  751MOL0     H99088  10.314   0.504   1.700 -0.0246 -0.1342  0.1149
  751MOL0     H99089  10.350   0.446   1.858  2.2813 -1.3207 -0.3748
  751MOL0     H99090  10.444   0.288   1.622  1.9195 -0.0723  1.2632
  751MOL0     H99091  10.441   0.259   1.808 -1.0354 -1.2133  0.9444
  751MOL0     H99092  10.198   0.272   1.813  1.5531 -0.4383  0.4486
  751MOL0     H99093  10.235   0.147   1.705 -0.6706 -0.1766 -0.0186
  751MOL0     H99094  10.043   0.402   1.413 -2.1409  3.2114 -0.4895
  751MOL0     H99095   9.786   0.388   1.384  0.2553 -0.1716 -0.5496
  751MOL0     H99096   9.388   0.192   1.810  0.2815 -0.2756  0.7716
  751MOL0     H99097   9.161   0.127   1.799 -0.8708 -0.5273 -0.8144
  751MOL0     H99098   8.910   0.192   1.683 -2.6490 -0.6761 -0.1798
  751MOL0     H99099   8.966   0.061   1.778 -0.4022  2.6744  0.6060
  751MOL0     H99100   8.722   0.056   1.594  0.6097  3.1145  1.4596
  751MOL0     H99101   8.716   0.073   1.759 -1.4646  0.1498 -1.3061
  751MOL0     H99102   8.848  -0.155   1.781 -0.2690  1.1337 -0.0498
  751MOL0     H99103   8.844  -0.161   1.609  0.0870  1.3519 -0.5499
  751MOL0     H99104   8.587  -0.198   1.767  0.8015 -0.1709  0.0501
  751MOL0     H99105   8.605  -0.169   1.592 -2.3864  2.1081  1.3083
  751MOL0     H99106   8.687  -0.406   1.750 -2.6405  0.9949  0.6227
  751MOL0     H99107   8.787  -0.361   1.601  0.3652 -0.5127 -0.0209
  751MOL0     H99108   8.623  -0.509   1.505  0.6210  0.6815 -0.0791
  751MOL0     H99109   8.560  -0.346   1.470 -2.2807 -1.2334  0.3153
  751MOL0     H99110   8.488  -0.538   1.693  0.6695  0.6021  0.7110
  751MOL0     H99111   8.391  -0.388   1.656 -0.2907  0.2114 -2.4391
  751MOL0     H99112   8.426  -0.619   1.461 -1.7555 -1.4150 -0.8060
  751MOL0     H99113   8.341  -0.481   1.411 -0.2318 -0.5003  1.1696
  751MOL0     H99114   9.190   0.040   1.392  1.9427 -3.2804  0.3052
  751MOL0     H99115   9.435   0.098   1.394 -0.5577  1.1869 -0.8331
  751MOL0     H99116   9.787   0.159   1.749  2.5764  0.1319  1.6411
  751MOL0     H99117  10.006   0.189   1.782 -2.8329  0.3837  1.0761
  751MOL0     H99118  11.021   1.738   1.440 -3.1974 -0.2090 -0.4173
  751MOL0     H99119  11.227   1.856   1.374  1.1866 -1.7641  1.4554
  751MOL0     H99120  11.344   2.331   1.150  0.1229 -1.5519  2.0873
  751MOL0     H99121  11.553   2.453   1.066  0.9291  0.8561 -5.7801
  751MOL0     H99122  11.645   2.495   0.839  1.0300  0.9670  0.5599
  751MOL0     H99123  11.740   2.373   0.743  4.6226 -0.2998 -0.7981
  751MOL0     H99124  11.871   2.579   0.905  1.8309 -2.4436  0.5930
  751MOL0     H99125  11.945   2.468   0.801 -0.0145 -1.4415  3.8340
  751MOL0     H99126  11.893   2.721   0.723  0.2213  0.5722 -0.9410
  751MOL0     H99127  11.728   2.654   0.705 -0.3292  1.5652 -1.3782
  751MOL0     H99128  11.889   2.665   0.489 -1.3976 -0.3475 -0.6732
  751MOL0     H99129  11.980   2.537   0.567  0.0748  0.9612 -3.8169
  751MOL0     H99130  11.608   2.385   0.416  1.1708  0.8062 -3.1526
  751MOL0     H99131  11.740   2.134   0.941 -0.0239 -0.0014  0.5488
  751MOL0     H99132  11.556   1.963   1.018 -3.9971 -0.3508 -0.0171
  752MOL0     O99133   2.841   7.078   9.992  0.4132  0.7013 -0.0135
  752MOL0     C99134   2.792   6.970   9.954  1.2860  0.7671 -0.4519
  752MOL0     O99135   2.867   6.856   9.934 -0.4160  0.2450  0.1070
  752MOL0     C99136   3.001   6.849   9.969  0.2556  0.1193  0.5824
  752MOL0     C99137   3.034   6.785  10.092 -0.3350 -0.2495  0.2820
  752MOL0     C99138   3.167   6.797  10.135  0.4947 -0.7705 -0.9526
  752MOL0     C99139   3.263   6.853  10.051  0.2671  0.5847  0.2027
  752MOL0     O99140   3.391   6.832  10.101 -0.1276 -0.5993 -1.3809
  752MOL0     C99141   3.494   6.884  10.017 -0.3440 -0.2808 -0.1806
  752MOL0     C99142   3.639   6.859  10.077  0.8417 -1.0612  0.1188
  752MOL0     C99143   3.743   6.909   9.985  0.0995 -0.4777  0.7578
  752MOL0     C99144   3.886   6.862  10.034 -0.0122 -0.1700 -1.0576
  752MOL0     C99145   4.001   6.949   9.969  0.6120 -0.8474 -0.9534
  752MOL0     C99146   4.138   6.900  10.019 -1.0632 -0.2077 -1.2228
  752MOL0     C99147   4.245   6.988   9.969  0.3508  0.3272  0.4182
  752MOL0     C99148   4.369   6.942  10.046 -0.3771 -0.3790  0.7646
  752MOL0     N99149   4.480   7.041  10.047  0.4264 -0.4824 -0.1953
  752MOL0     C99150   4.598   7.042   9.975 -0.4136  0.1383 -0.3744
  752MOL0     C99151   4.661   7.154  10.015 -0.2381 -0.9532  0.7012
  752MOL0     C99152   4.789   7.212   9.973 -0.4217  0.0262 -0.0386
  752MOL0     C99153   4.894   7.216  10.085 -1.1930 -0.1442 -1.0369
  752MOL0     C99154   5.014   7.282  10.028  0.4866 -0.0043 -0.0219
  752MOL0     C99155   5.134   7.269  10.115 -0.2338  0.0493 -0.6943
  752MOL0     O99156   5.249   7.346  10.075  0.2956 -0.2923 -0.6420
  752MOL0     C99157   5.343   7.382  10.173  0.2583  0.9647  0.0475
  752MOL0     C99158   5.405   7.505  10.166 -0.5235 -0.0737  0.3889
  752MOL0     C99159   5.482   7.558  10.265  0.6172  0.2025  0.0990
  752MOL0     C99160   5.513   7.492  10.375  0.1132 -0.5561  0.2653
  752MOL0     C99161   5.602   7.551  10.478 -0.7833  0.7843  0.2188
  752MOL0     O99162   5.649   7.674  10.452  1.4593 -0.0667  0.0280
  752MOL0     C99163   5.727   7.743  10.544  0.6073 -1.3199  0.6525
  752MOL0     C99164   5.669   7.834  10.632 -0.0878 -0.9974  0.4016
  752MOL0     C99165   5.752   7.931  10.698  0.4894 -0.4115 -0.3734
  752MOL0     C99166   5.893   7.929  10.695  0.2355 -0.8583 -0.5902
  752MOL0     O99167   5.980   8.020  10.765 -0.5084 -0.5896  0.1677
  752MOL0     C99168   5.980   8.152  10.718  0.5623  0.8783 -0.0366
  752MOL0     C99169   6.123   8.221  10.714  0.3857 -1.0860  0.2513
  752MOL0     C99170   6.184   8.232  10.854  0.1544 -0.1460 -0.4268
  752MOL0     C99171   6.317   8.287  10.866  0.3106  0.7030 -0.0375
  752MOL0     C99172   6.415   8.172  10.833  0.4367 -0.1686  1.0763
  752MOL0     C99173   6.559   8.219  10.825  0.3341 -0.2441  0.3415
  752MOL0     C99174   6.617   8.234  10.970 -0.0658  1.0843 -0.3326
  752MOL0     C99175   6.740   8.332  10.970 -0.9801  0.2485 -1.0810
  752MOL0    Cl99176   6.875   8.260  10.888 -0.4981  0.3075  0.1906
  752MOL0     C99177   5.943   7.842  10.598 -0.1976 -0.2565  0.2567
  752MOL0     C99178   5.859   7.756  10.521 -0.9401 -0.1449  0.6100
  752MOL0     O99179   5.625   7.488  10.580  0.0483 -0.3578  0.5151
  752MOL0     C99180   5.438   7.367  10.396 -0.2074 -0.4710  1.5723
  752MOL0     C99181   5.364   7.306  10.288 -0.5198 -1.0249 -1.2517
  752MOL0     N99182   4.597   7.224  10.105  1.1441  0.0243  0.2892
  752MOL0     N99183   4.481   7.156  10.121 -0.1997 -0.5192  0.1244
  752MOL0     C99184   3.222   6.914   9.928  0.7462 -0.1237 -0.7296
  752MOL0     C99185   3.089   6.925   9.891 -0.9825 -0.1353  0.0807
  752MOL0     C99186   2.646   6.967   9.918 -0.3554  0.1148  0.3122
  752MOL0     C99187   2.593   6.848   9.868 -0.3216 -0.0726 -0.1978
  752MOL0     C99188   2.455   6.836   9.847  0.1192  0.5293 -0.3003
  752MOL0     C99189   2.366   6.942   9.859  0.9275 -0.3565  0.4328
  752MOL0     O99190   2.237   6.927   9.829  0.2551 -1.3690  0.3512
  752MOL0     C99191   2.139   6.941   9.934 -0.6465  0.2246 -0.0519
  752MOL0     C99192   2.105   6.796   9.980  0.4081 -0.2481  0.6900
  752MOL0     C99193   2.083   6.697   9.864  2.2862 -0.2549  0.7359
  752MOL0     C99194   2.052   6.561   9.924  0.0690  0.8186 -0.4309
  752MOL0     C99195   1.922   6.552   9.992  0.4766  0.3937 -0.0221
  752MOL0     C99196   1.810   6.577  10.036  0.0651  0.2321  0.3045
  752MOL0     C99197   2.415   7.060   9.910 -0.5925  0.3799  0.2632
  752MOL0     C99198   2.557   7.072   9.950 -0.0788 -0.4609  0.6827
  752MOL0     H99199   2.971   6.720  10.152  2.2332 -2.0335  1.2072
  752MOL0     H99200   3.206   6.750  10.225 -0.5686  1.4201  0.7330
  752MOL0     H99201   3.485   6.993  10.003  0.5553  0.2119  2.4658
  752MOL0     H99202   3.507   6.837   9.919 -0.2282 -0.1141 -0.2458
  752MOL0     H99203   3.645   6.750  10.086  2.4736 -1.2628 -2.3149
  752MOL0     H99204   3.656   6.920  10.166  1.1249  2.8290 -2.3541
  752MOL0     H99205   3.741   7.018   9.974 -1.2447 -0.4086  1.4805
  752MOL0     H99206   3.726   6.878   9.881 -0.7399  1.1187  0.3730
  752MOL0     H99207   3.891   6.875  10.142 -1.5792 -4.1712 -0.3328
  752MOL0     H99208   3.907   6.756  10.015  1.1434 -0.7167  2.6180
  752MOL0     H99209   3.980   7.052  10.000  0.2465 -1.8502  2.6740
  752MOL0     H99210   3.987   6.953   9.861 -4.7512 -1.8722 -0.5727
  752MOL0     H99211   4.151   6.794   9.992 -3.6343 -1.2129  0.9967
  752MOL0     H99212   4.157   6.912  10.126  2.6283  0.9804 -1.8763
  752MOL0     H99213   4.275   6.980   9.864  1.5753  1.6467  0.6252
  752MOL0     H99214   4.215   7.093   9.979 -0.3014  0.2908 -0.9431
  752MOL0     H99215   4.401   6.847  10.002 -1.4910 -0.0233 -0.8963
  752MOL0     H99216   4.356   6.919  10.152 -1.5685  1.6054  1.0928
  752MOL0     H99217   4.631   6.968   9.903 -3.4038 -1.0400 -0.6843
  752MOL0     H99218   4.772   7.318   9.953  0.8519  0.2883  0.1677
  752MOL0     H99219   4.818   7.152   9.885 -0.0658 -0.6781  0.5462
  752MOL0     H99220   4.918   7.118  10.126 -2.6900 -0.3764 -0.6735
  752MOL0     H99221   4.857   7.279  10.167  1.2099  2.1711 -1.5767
  752MOL0     H99222   5.031   7.234   9.931 -1.1506 -0.0056 -0.3436
  752MOL0     H99223   4.998   7.386   9.997  0.1762 -0.9156 -3.4021
  752MOL0     H99224   5.171   7.169  10.089  1.7243  0.0336  1.7704
  752MOL0     H99225   5.108   7.272  10.221 -0.8414 -0.9073 -0.8030
  752MOL0     H99226   5.397   7.569  10.079 -0.6009  0.6174  0.9001
  752MOL0     H99227   5.532   7.651  10.241  0.7356  0.5761  1.7485
  752MOL0     H99228   5.562   7.817  10.644 -0.6741 -2.3928 -4.5376
  752MOL0     H99229   5.728   8.009  10.770  0.8889 -0.4286 -0.2210
  752MOL0     H99230   5.918   8.220  10.777 -1.2300  1.8262 -2.7922
  752MOL0     H99231   5.932   8.154  10.619  0.2866 -3.6663 -0.1779
  752MOL0     H99232   6.119   8.321  10.670  0.8018 -2.5721 -3.5628
  752MOL0     H99233   6.189   8.177  10.639  1.5536  1.0341 -0.0569
  752MOL0     H99234   6.187   8.142  10.917 -0.3339  1.2860  1.7522
  752MOL0     H99235   6.127   8.312  10.902  1.9573  2.4124 -2.2765
  752MOL0     H99236   6.327   8.378  10.806 -0.6722 -0.5562 -2.2179
  752MOL0     H99237   6.341   8.309  10.970  2.8836 -0.3697 -0.3094
  752MOL0     H99238   6.382   8.129  10.738  1.9074 -1.5070  1.1386
  752MOL0     H99239   6.401   8.083  10.895  0.8895 -2.5633 -1.9958
  752MOL0     H99240   6.575   8.307  10.762  1.4089  0.8753  2.0864
  752MOL0     H99241   6.611   8.140  10.770 -0.2834  0.8713 -1.9783
  752MOL0     H99242   6.539   8.273  11.036 -2.7869 -1.8501 -1.5305
  752MOL0     H99243   6.634   8.131  11.004 -0.3328  0.4414 -2.0548
  752MOL0     H99244   6.772   8.342  11.074 -1.0166 -1.0563 -0.9266
  752MOL0     H99245   6.718   8.435  10.942  1.7779  2.6997  4.2954
  752MOL0     H99246   6.050   7.852  10.582 -0.3196 -0.5165 -0.7822
  752MOL0     H99247   5.905   7.698  10.441 -0.3231  1.9560 -0.6459
  752MOL0     H99248   5.434   7.318  10.492  0.9379  0.1969  1.9830
  752MOL0     H99249   5.313   7.211  10.297 -1.3050 -0.5724 -0.8498
  752MOL0     H99250   3.289   6.943   9.847 -0.4688  0.5843 -1.4999
  752MOL0     H99251   3.067   6.981   9.801 -1.8409  3.4287  2.3066
  752MOL0     H99252   2.653   6.758   9.858 -0.2562  0.0329 -0.8091
  752MOL0     H99253   2.416   6.744   9.804  0.3246 -0.3944  1.4126
  752MOL0     H99254   2.057   7.002   9.893 -0.7075 -1.1924 -2.1621
  752MOL0     H99255   2.176   6.996  10.021 -2.1896  0.2245  0.6376
  752MOL0     H99256   2.182   6.758  10.047 -0.3721 -2.3692  0.4368
  752MOL0     H99257   2.017   6.814  10.042  0.7213 -1.1879  1.4296
  752MOL0     H99258   2.172   6.696   9.801  1.1771  1.9531 -1.0068
  752MOL0     H99259   1.995   6.736   9.811  0.7898 -4.1303  0.0466
  752MOL0     H99260   2.046   6.478   9.853  1.9476 -1.1343  1.5710
  752MOL0     H99261   2.139   6.540   9.987  0.7786 -0.6843 -1.8438
  752MOL0     H99262   1.717   6.593  10.086  0.1776 -3.3814  2.0138
  752MOL0     H99263   2.354   7.150   9.909  3.1986  3.2956 -3.1171
  752MOL0     H99264   2.579   7.166   9.999 -1.2149  0.6427 -0.8393
  753MOL0     O99265   0.519   9.976   0.857 -0.2325 -0.0241  0.0214
  753MOL0     C99266   0.505   9.855   0.869 -0.0993  0.2675 -0.6385
  753MOL0     O99267   0.600   9.764   0.907 -0.1367 -0.0398  0.0857
  753MOL0     C99268   0.716   9.824   0.949 -0.4988 -0.2850 -1.6265
  753MOL0     C99269   0.824   9.826   0.866  0.4389 -0.2902  0.1135
  753MOL0     C99270   0.947   9.874   0.906 -0.2118 -0.0425 -0.6243
  753MOL0     C99271   0.963   9.935   1.030 -0.1148 -0.0801  0.1287
  753MOL0     O99272   1.086  10.005   1.037  0.2339 -0.2796 -0.3874
  753MOL0     C99273   1.105  10.086   1.150 -0.3033 -0.9751 -0.3610
  753MOL0     C99274   1.236  10.159   1.114 -0.2239 -0.3314  0.4009
  753MOL0     C99275   1.367  10.070   1.114 -1.1195 -0.0621 -0.1513
  753MOL0     C99276   1.501  10.163   1.114  0.7302  0.0181 -0.4224
  753MOL0     C99277   1.560  10.180   1.254  0.4413  0.0218  0.1634
  753MOL0     C99278   1.687  10.259   1.243 -0.6071 -0.0639  1.0588
  753MOL0     C99279   1.740  10.317   1.371  0.5993 -0.2491 -0.1409
  753MOL0     C99280   1.883  10.363   1.351  0.5381 -0.1919 -0.5780
  753MOL0     N99281   1.966  10.240   1.345 -0.1388 -0.1694  0.8727
  753MOL0     C99282   2.013  10.157   1.244  0.3919 -0.6112  0.4545
  753MOL0     C99283   2.085  10.054   1.300  0.3917 -1.3138  1.1260
  753MOL0     C99284   2.158   9.952   1.211  0.3679  0.0569  0.5618
  753MOL0     C99285   2.089   9.805   1.197 -0.2534  0.4578 -0.6750
  753MOL0     C99286   1.935   9.808   1.174 -0.2055  0.0626  0.6018
  753MOL0     C99287   1.894   9.682   1.083 -0.6215  0.2136  0.7177
  753MOL0     O99288   1.802   9.715   0.980  0.1563 -0.1780  0.6377
  753MOL0     C99289   1.673   9.673   0.983  0.9329 -0.7101 -0.1948
  753MOL0     C99290   1.626   9.569   0.894 -0.7257 -0.7171 -0.2752
  753MOL0     C99291   1.493   9.538   0.911 -0.1630  0.3620 -0.0817
  753MOL0     C99292   1.397   9.601   0.994  0.0867  0.9494 -0.6159
  753MOL0     C99293   1.257   9.558   1.005 -0.3664 -0.6019  1.0553
  753MOL0     O99294   1.217   9.457   0.922  0.2059 -0.9594  0.0080
  753MOL0     C99295   1.103   9.394   0.953 -0.2368 -0.1560  0.3498
  753MOL0     C99296   0.979   9.460   0.964 -0.3522  0.0356  0.0217
  753MOL0     C99297   0.859   9.394   0.986  0.7563 -0.7335 -0.5361
  753MOL0     C99298   0.870   9.254   0.991 -0.3874 -0.1309  0.0410
  753MOL0     O99299   0.752   9.196   1.017 -0.1622  0.2656  0.1647
  753MOL0     C99300   0.743   9.052   0.995 -0.3108  1.6202  0.2810
  753MOL0     C99301   0.597   9.014   0.993  0.9283 -0.3654 -0.5625
  753MOL0     C99302   0.523   8.981   1.123 -0.6697  0.9729 -1.0097
  753MOL0     C99303   0.378   8.931   1.103 -0.0796  0.2636  1.3906
  753MOL0     C99304   0.377   8.781   1.087  0.0285 -0.3433  0.3017
  753MOL0     C99305   0.242   8.738   1.033 -0.1532  0.2959 -0.0538
  753MOL0     C99306   0.233   8.577   1.031 -0.2082  0.5216 -0.9016
  753MOL0     C99307   0.105   8.530   0.972 -1.3896  0.3155 -0.3173
  753MOL0    Cl99308  -0.025   8.533   1.085  0.0136  0.0909  0.4598
  753MOL0     C99309   0.991   9.187   0.995  0.3985 -0.2748  1.2596
  753MOL0     C99310   1.110   9.253   0.966 -1.0856  1.0696 -0.5837
  753MOL0     O99311   1.190   9.623   1.085 -0.4447 -0.6570 -0.2353
  753MOL0     C99312   1.444   9.709   1.077 -0.6850  0.5739  0.0527
  753MOL0     C99313   1.583   9.734   1.079 -0.3478 -0.8130 -0.4030
  753MOL0     N99314   2.066  10.077   1.439  1.2163  0.7468 -0.3253
  753MOL0     N99315   2.004  10.185   1.457 -0.1484 -0.6418  0.2255
  753MOL0     C99316   0.850   9.950   1.116  0.6764  0.4973 -0.7823
  753MOL0     C99317   0.733   9.876   1.084  0.0981 -1.0356  0.7452
  753MOL0     C99318   0.376   9.786   0.829  0.6322 -0.3599 -1.4796
  753MOL0     C99319   0.364   9.638   0.826  0.2196  0.2952 -0.0642
  753MOL0     C99320   0.241   9.585   0.773 -0.5667  0.3235 -0.5453
  753MOL0     C99321   0.141   9.672   0.726 -0.5900  0.3486  0.4148
  753MOL0     O99322   0.028   9.631   0.648 -0.2931 -0.2387 -0.3834
  753MOL0     C99323   0.025   9.489   0.604  0.4378  0.3693  0.4557
  753MOL0     C99324  -0.068   9.493   0.474 -0.2762  1.1370  0.3050
  753MOL0     C99325  -0.214   9.487   0.508  0.7411 -0.4584  0.0033
  753MOL0     C99326  -0.283   9.352   0.498  0.1923 -0.4238 -0.1246
  753MOL0     C99327  -0.230   9.243   0.588  0.4454 -0.2179 -0.1922
  753MOL0     C99328  -0.208   9.152   0.668 -0.3580 -0.6868 -0.5012
  753MOL0     C99329   0.161   9.812   0.731  0.0867 -0.0911 -0.2458
  753MOL0     C99330   0.277   9.872   0.774 -0.5595  0.1351  0.4964
  753MOL0     H99331   0.820   9.784   0.766  1.7462 -0.3195  0.0575
  753MOL0     H99332   1.031   9.884   0.838 -1.5021  0.8180 -2.1808
  753MOL0     H99333   1.108  10.018   1.236  2.8131 -3.2031 -2.0539
  753MOL0     H99334   1.024  10.160   1.155  0.3478 -0.2945  0.6704
  753MOL0     H99335   1.247  10.244   1.183 -0.6800  0.8374 -0.9213
  753MOL0     H99336   1.231  10.201   1.013  0.0535 -0.9121  0.1393
  753MOL0     H99337   1.362  10.009   1.024 -0.9202 -0.6132  0.2118
  753MOL0     H99338   1.368  10.007   1.204  1.1441  0.3444  0.1701
  753MOL0     H99339   1.579  10.127   1.047 -0.5190 -0.7686 -1.5072
  753MOL0     H99340   1.475  10.263   1.079 -2.6265 -0.5108  0.1462
  753MOL0     H99341   1.583  10.085   1.302  2.1837 -0.3415 -1.2689
  753MOL0     H99342   1.482  10.217   1.321 -0.5138 -2.5284  0.5582
  753MOL0     H99343   1.662  10.349   1.187 -1.1728  1.1145  3.1174
  753MOL0     H99344   1.760  10.212   1.176 -2.3834  2.3251 -2.8864
  753MOL0     H99345   1.675  10.396   1.409  1.2188  0.2041  0.0065
  753MOL0     H99346   1.736  10.237   1.444  3.3716 -1.4910 -1.2242
  753MOL0     H99347   1.915  10.438   1.424 -2.8633  0.9127 -0.0668
  753MOL0     H99348   1.886  10.417   1.256  2.6102 -0.0130 -0.4637
  753MOL0     H99349   1.995  10.162   1.137  2.3907 -3.0031 -0.0770
  753MOL0     H99350   2.260   9.939   1.248  1.7463 -1.9160 -3.3456
  753MOL0     H99351   2.177   9.970   1.104 -1.1029 -3.0166 -0.3408
  753MOL0     H99352   2.108   9.747   1.288  1.4529  2.4234  0.3161
  753MOL0     H99353   2.152   9.756   1.122  2.3738  0.7041  1.2272
  753MOL0     H99354   1.885   9.789   1.269  0.1092  0.9875  0.9656
  753MOL0     H99355   1.904   9.905   1.132 -2.6363  0.2215  2.5683
  753MOL0     H99356   1.849   9.595   1.133  0.0436 -1.2283 -1.0563
  753MOL0     H99357   1.985   9.655   1.028 -1.7891  1.0552 -1.8070
  753MOL0     H99358   1.689   9.527   0.816 -0.2372  0.0399 -0.2941
  753MOL0     H99359   1.450   9.455   0.856  2.7314 -1.3495  0.0440
  753MOL0     H99360   0.975   9.568   0.951 -1.5626 -0.0391 -0.3344
  753MOL0     H99361   0.758   9.433   0.989  0.7317 -0.8443  0.2310
  753MOL0     H99362   0.791   9.001   1.079  1.0476  2.6382  0.1578
  753MOL0     H99363   0.787   9.019   0.900  0.5180  0.4068  1.0588
  753MOL0     H99364   0.600   8.930   0.924  1.1598 -0.7139 -0.1344
  753MOL0     H99365   0.542   9.096   0.946 -0.6019 -0.9661  0.1374
  753MOL0     H99366   0.506   9.077   1.173  1.2948  0.9862 -0.2918
  753MOL0     H99367   0.585   8.921   1.191 -4.0246 -2.0939 -0.3159
  753MOL0     H99368   0.313   8.961   1.186 -1.8989  0.4701 -0.0555
  753MOL0     H99369   0.337   8.979   1.013  1.9027  1.9794  1.3185
  753MOL0     H99370   0.397   8.732   1.183  1.9086  3.2187  1.9512
  753MOL0     H99371   0.455   8.741   1.021  1.1162  0.2189  1.1970
  753MOL0     H99372   0.235   8.771   0.929 -1.0109 -1.7816 -0.7061
  753MOL0     H99373   0.166   8.788   1.093  0.8622  2.0696 -0.1716
  753MOL0     H99374   0.320   8.549   0.972  1.2218  2.1685  0.3426
  753MOL0     H99375   0.237   8.540   1.134  0.3717 -0.4168 -1.2453
  753MOL0     H99376   0.120   8.427   0.940 -0.5098 -0.7026  2.9998
  753MOL0     H99377   0.083   8.584   0.879  0.6209 -1.1243 -1.7293
  753MOL0     H99378   1.005   9.081   1.011  2.2704 -0.6135 -1.8312
  753MOL0     H99379   1.209   9.210   0.952 -0.8247  0.2917  2.6906
  753MOL0     H99380   1.367   9.763   1.132 -2.1827 -0.1995 -1.2071
  753MOL0     H99381   1.613   9.810   1.151 -0.7617  0.5891 -1.6443
  753MOL0     H99382   0.854  10.010   1.206 -2.6535  0.1095 -0.2463
  753MOL0     H99383   0.648   9.886   1.151 -1.1829  2.9481 -1.1436
  753MOL0     H99384   0.448   9.583   0.869  0.2055  0.5498  0.2975
  753MOL0     H99385   0.237   9.476   0.782 -0.8350  0.3844  0.1594
  753MOL0     H99386  -0.013   9.416   0.676  0.3907  0.4099  0.4725
  753MOL0     H99387   0.123   9.444   0.584  0.6228  0.8983  0.1648
  753MOL0     H99388  -0.056   9.586   0.417 -1.9928  2.1614  1.5158
  753MOL0     H99389  -0.055   9.405   0.411  2.1806 -2.1524  4.8773
  753MOL0     H99390  -0.267   9.540   0.429  3.0210 -0.0547 -1.3399
  753MOL0     H99391  -0.235   9.538   0.602 -2.9435  1.0701 -1.4618
  753MOL0     H99392  -0.387   9.377   0.518  0.6073 -0.5608  2.5631
  753MOL0     H99393  -0.265   9.314   0.397  0.6291  0.2955 -0.3250
  753MOL0     H99394  -0.186   9.078   0.742 -1.8976 -0.9937 -0.3205
  753MOL0     H99395   0.078   9.874   0.699  1.1407  1.2400 -0.4822
  753MOL0     H99396   0.303   9.974   0.750  2.2513 -0.2808  1.4093
  754MOL0     O99397   8.382   4.850   8.698 -0.3801 -0.2303 -0.1179
  754MOL0     C99398   8.272   4.878   8.644  0.3867 -0.2067  0.4537
  754MOL0     O99399   8.184   4.789   8.575  0.0789 -0.4253 -0.1483
  754MOL0     C99400   8.217   4.656   8.553  0.6023 -0.5665 -0.1899
  754MOL0     C99401   8.340   4.605   8.506 -0.2924 -0.4318 -0.2897
  754MOL0     C99402   8.339   4.466   8.480  0.0166  0.4050  0.1183
  754MOL0     C99403   8.219   4.391   8.488  1.1014  0.0817 -0.5774
  754MOL0     O99404   8.225   4.262   8.447  0.4109  0.0840 -1.2894
  754MOL0     C99405   8.162   4.253   8.322  0.8197  0.8157 -0.0122
  754MOL0     C99406   8.173   4.123   8.253 -0.2542  0.5059 -0.4663
  754MOL0     C99407   8.298   4.049   8.264 -0.2171 -0.1876  0.4138
  754MOL0     C99408   8.415   4.110   8.185 -0.1838 -0.5554 -0.5351
  754MOL0     C99409   8.539   4.019   8.197  0.8602 -0.2175  0.3181
  754MOL0     C99410   8.670   4.072   8.137 -0.3796  0.5562 -0.5635
  754MOL0     C99411   8.661   4.107   7.983 -0.2523  0.3308  0.2751
  754MOL0     C99412   8.744   4.236   7.951  0.8543  0.0033 -0.3282
  754MOL0     N99413   8.880   4.195   7.954  1.1767  0.7435  0.1193
  754MOL0     C99414   8.968   4.207   7.850 -0.1225  0.2063 -0.6251
  754MOL0     C99415   9.092   4.168   7.883  0.3390 -0.0269  0.0149
  754MOL0     C99416   9.199   4.181   7.780  0.6362  0.8381  0.5114
  754MOL0     C99417   9.310   4.286   7.799 -0.3433 -0.2949 -0.4958
  754MOL0     C99418   9.340   4.364   7.680  0.1705 -0.4946 -0.2527
  754MOL0     C99419   9.460   4.450   7.701  1.0450 -0.6705  0.3966
  754MOL0     O99420   9.447   4.521   7.827  0.7051 -0.0229  0.5346
  754MOL0     C99421   9.515   4.633   7.836  0.0313  0.6290 -0.0110
  754MOL0     C99422   9.624   4.634   7.910  0.4448  0.2630  0.1754
  754MOL0     C99423   9.685   4.750   7.961 -0.1056 -0.8030  0.7292
  754MOL0     C99424   9.624   4.875   7.916  0.1487 -0.2973  0.3772
  754MOL0     C99425   9.677   5.004   7.960 -0.5533 -0.4992  0.3706
  754MOL0     O99426   9.588   5.090   7.995  0.5819 -0.0262  0.3362
  754MOL0     C99427   9.628   5.215   8.037 -0.6126 -0.4562 -0.1718
  754MOL0     C99428   9.667   5.314   7.944 -0.9466 -0.6711 -0.2995
  754MOL0     C99429   9.733   5.435   7.995  0.4291  0.6666 -0.4125
  754MOL0     C99430   9.741   5.455   8.129 -0.4235 -0.1874  0.4585
  754MOL0     O99431   9.807   5.571   8.154 -0.5225 -0.6813  0.2713
  754MOL0     C99432   9.759   5.654   8.258  0.0293  0.0104 -1.0202
  754MOL0     C99433   9.838   5.777   8.276  0.3021  0.3120  0.4818
  754MOL0     C99434   9.765   5.884   8.366 -0.7828  0.3348 -0.9201
  754MOL0     C99435   9.865   5.996   8.416 -0.9211  0.3030  0.0005
  754MOL0     C99436   9.802   6.074   8.538 -0.8357 -0.7804  0.9263
  754MOL0     C99437   9.663   6.131   8.511 -0.0310  0.5446  0.2732
  754MOL0     C99438   9.613   6.243   8.605  0.3957 -0.0165 -0.6369
  754MOL0     C99439   9.661   6.226   8.753 -0.0843  1.1908  1.4080
  754MOL0    Cl99440   9.565   6.336   8.852 -0.8301  0.2329  0.1818
  754MOL0     C99441   9.702   5.351   8.217  1.0758 -0.5085  0.3149
  754MOL0     C99442   9.638   5.238   8.176 -0.6330  0.3263  0.1264
  754MOL0     O99443   9.796   5.020   7.962  0.7191 -0.6223  0.2845
  754MOL0     C99444   9.524   4.875   7.816  0.1478 -0.2001  0.2290
  754MOL0     C99445   9.466   4.749   7.784  0.2377  0.2744 -0.4936
  754MOL0     N99446   9.075   4.111   8.002  0.7613  0.9036 -0.0998
  754MOL0     N99447   8.954   4.128   8.049  1.5580 -0.6036  0.0740
  754MOL0     C99448   8.099   4.437   8.544 -0.9661  0.2306  0.1662
  754MOL0     C99449   8.106   4.572   8.573  0.1050 -0.4709 -0.2934
  754MOL0     C99450   8.231   5.020   8.660 -0.1128 -0.5650  0.0154
  754MOL0     C99451   8.125   5.076   8.580  0.1365  0.0905  0.3573
  754MOL0     C99452   8.102   5.221   8.569 -0.3449  0.8926 -1.3404
  754MOL0     C99453   8.183   5.306   8.651 -0.1605 -0.1092 -0.9991
  754MOL0     O99454   8.163   5.441   8.665  0.0335 -0.1745 -1.0459
  754MOL0     C99455   8.060   5.504   8.589  0.3772 -0.4789  0.3582
  754MOL0     C99456   8.094   5.641   8.554 -0.5272  1.0116  0.1238
  754MOL0     C99457   8.217   5.650   8.454 -0.2749 -0.6861  0.6336
  754MOL0     C99458   8.354   5.645   8.510 -0.2251  0.0263 -0.1035
  754MOL0     C99459   8.448   5.687   8.408  0.1063  0.1865  1.1150
  754MOL0     C99460   8.526   5.701   8.320 -0.3720  0.4127  0.0124
  754MOL0     C99461   8.275   5.241   8.731  0.3404 -0.0339  0.0778
  754MOL0     C99462   8.292   5.103   8.749  0.5649  0.4428 -0.4228
  754MOL0     H99463   8.419   4.677   8.485 -2.0328  1.7429  0.3015
  754MOL0     H99464   8.422   4.411   8.437 -1.7431 -2.0049 -0.4100
  754MOL0     H99465   8.207   4.325   8.254 -2.2780 -0.4039 -3.6859
  754MOL0     H99466   8.053   4.266   8.323  0.8357  1.0489  1.4571
  754MOL0     H99467   8.145   4.149   8.150 -0.3700  0.3379 -0.4776
  754MOL0     H99468   8.102   4.054   8.298 -0.9422  1.6161  0.2055
  754MOL0     H99469   8.286   3.950   8.218 -0.9437  0.5915 -1.1781
  754MOL0     H99470   8.330   4.044   8.368 -0.9677 -1.4239  0.6114
  754MOL0     H99471   8.394   4.130   8.080 -1.5965  1.3874  0.0593
  754MOL0     H99472   8.435   4.208   8.228 -0.5844  0.6138 -2.8668
  754MOL0     H99473   8.527   3.929   8.137 -0.2519 -0.2164  0.5200
  754MOL0     H99474   8.560   3.977   8.296  2.1228 -2.8091 -0.9623
  754MOL0     H99475   8.747   3.994   8.131 -0.5720  0.3799 -0.7754
  754MOL0     H99476   8.704   4.160   8.192 -0.7375 -0.2735  1.0442
  754MOL0     H99477   8.707   4.024   7.929  4.7621  2.3209  0.9317
  754MOL0     H99478   8.557   4.118   7.950  0.3131  2.1779 -1.0232
  754MOL0     H99479   8.727   4.302   8.036 -0.4822 -0.9839  0.2155
  754MOL0     H99480   8.713   4.281   7.856 -1.6380 -0.6005  0.1274
  754MOL0     H99481   8.936   4.249   7.755 -1.3301  2.8509  0.8342
  754MOL0     H99482   9.143   4.202   7.688  0.8918  1.1883  0.4304
  754MOL0     H99483   9.244   4.082   7.775 -0.9468  0.1519 -1.4061
  754MOL0     H99484   9.410   4.251   7.823 -0.2886 -0.9651 -1.6197
  754MOL0     H99485   9.277   4.336   7.890 -2.1537 -0.0686 -1.2265
  754MOL0     H99486   9.364   4.299   7.595  0.6758 -0.7740  0.0971
  754MOL0     H99487   9.260   4.430   7.645  2.1235  2.0021 -0.3961
  754MOL0     H99488   9.460   4.525   7.621 -4.5212 -2.3679 -1.6681
  754MOL0     H99489   9.556   4.398   7.705  0.8589 -1.1673 -1.0117
  754MOL0     H99490   9.662   4.540   7.947 -1.6385 -0.0297  1.8121
  754MOL0     H99491   9.767   4.742   8.031  2.2678  1.7997 -1.4859
  754MOL0     H99492   9.639   5.302   7.839 -0.1600  1.4036 -0.8005
  754MOL0     H99493   9.750   5.504   7.913 -0.6136 -0.2692 -1.4636
  754MOL0     H99494   9.751   5.594   8.349  0.2394 -0.0127 -1.0165
  754MOL0     H99495   9.657   5.689   8.239 -0.2266 -0.7934 -1.1823
  754MOL0     H99496   9.848   5.831   8.181  1.5704  1.5814  1.3011
  754MOL0     H99497   9.941   5.757   8.307  0.7765 -1.6880 -2.0838
  754MOL0     H99498   9.729   5.825   8.451  2.5204 -3.9284 -2.1284
  754MOL0     H99499   9.678   5.927   8.315 -1.2825  0.5052  0.0507
  754MOL0     H99500   9.956   5.944   8.446 -1.5641 -0.8988 -0.0317
  754MOL0     H99501   9.897   6.063   8.336  1.5463  0.3640  0.9697
  754MOL0     H99502   9.867   6.161   8.550 -1.2373 -0.6570  2.3987
  754MOL0     H99503   9.806   6.022   8.634  0.1053  2.2355  2.6423
  754MOL0     H99504   9.589   6.052   8.525  0.1135  0.7151  2.2141
  754MOL0     H99505   9.669   6.158   8.405  7.0831 -2.4264 -0.6440
  754MOL0     H99506   9.656   6.338   8.571  0.7190  0.8052  1.8632
  754MOL0     H99507   9.508   6.265   8.583  0.4336  1.7667  0.7262
  754MOL0     H99508   9.765   6.258   8.763 -1.4031  6.9825 -0.0399
  754MOL0     H99509   9.647   6.123   8.788  1.3053  0.6494  0.4788
  754MOL0     H99510   9.705   5.356   8.325 -1.4634 -0.5310  0.4424
  754MOL0     H99511   9.603   5.159   8.242  1.1714 -1.1272 -0.5803
  754MOL0     H99512   9.489   4.967   7.771  3.1641 -0.1945 -2.4598
  754MOL0     H99513   9.368   4.753   7.737 -0.2603 -1.3085  0.3477
  754MOL0     H99514   8.022   4.367   8.575 -0.0567 -0.0339  1.9689
  754MOL0     H99515   8.026   4.618   8.630  0.4789  0.7460 -0.7157
  754MOL0     H99516   8.064   5.007   8.523 -1.6056  3.2240 -1.9126
  754MOL0     H99517   8.026   5.250   8.498 -2.9989  0.2370  1.0265
  754MOL0     H99518   7.964   5.490   8.640  0.6699 -1.8034  0.5774
  754MOL0     H99519   8.048   5.452   8.493 -0.1950  0.4025 -0.0652
  754MOL0     H99520   8.009   5.696   8.511  0.1811  0.3991 -2.2078
  754MOL0     H99521   8.117   5.687   8.650  0.5965 -1.5302  1.1680
  754MOL0     H99522   8.208   5.733   8.383  0.8701 -0.8979  0.2133
  754MOL0     H99523   8.213   5.566   8.384 -0.6620 -0.8265  0.8249
  754MOL0     H99524   8.367   5.714   8.594  1.7505 -2.0573  1.4124
  754MOL0     H99525   8.373   5.545   8.549  0.4449  0.7616  1.5134
  754MOL0     H99526   8.599   5.724   8.245  0.9546 -1.4138  0.6737
  754MOL0     H99527   8.334   5.302   8.799 -0.9895 -0.6978  1.8951
  754MOL0     H99528   8.371   5.070   8.816 -0.6290 -0.3929  0.6205
  755MOL0     O99529   4.158   5.928   9.980  0.3456 -0.9553  0.4312
  755MOL0     C99530   4.131   5.984   9.872 -0.1481  0.2820  0.1603
  755MOL0     O99531   4.222   6.048   9.791  0.7061 -0.9094 -0.2817
  755MOL0     C99532   4.349   6.039   9.822 -1.2531  0.2105  0.1920
  755MOL0     C99533   4.425   6.151   9.860  0.6141 -0.1506  1.4361
  755MOL0     C99534   4.563   6.148   9.891 -0.6779  0.4706 -0.0716
  755MOL0     C99535   4.635   6.031   9.851 -0.7254 -0.2689  0.2917
  755MOL0     O99536   4.772   6.022   9.856 -0.7751  0.4346 -0.0842
  755MOL0     C99537   4.849   6.123   9.919  0.0623 -0.0597  0.2484
  755MOL0     C99538   4.992   6.058   9.915 -0.3211 -0.3974  0.4252
  755MOL0     C99539   5.103   6.165   9.896 -0.3106 -0.3165 -0.0788
  755MOL0     C99540   5.246   6.108   9.876  0.1605  0.0592 -0.6081
  755MOL0     C99541   5.352   6.204   9.842  0.8466 -0.0850 -0.0504
  755MOL0     C99542   5.406   6.285   9.966  0.8149 -0.6430 -0.0252
  755MOL0     C99543   5.470   6.207  10.080  0.6686 -0.3162  1.0313
  755MOL0     C99544   5.588   6.111  10.043  0.8079 -0.0788 -0.9865
  755MOL0     N99545   5.713   6.178  10.021  0.1118 -0.4125  0.7851
  755MOL0     C99546   5.810   6.213  10.115  0.8398 -0.3865  0.1191
  755MOL0     C99547   5.916   6.256  10.041  0.8094  1.0489 -0.1124
  755MOL0     C99548   6.046   6.317  10.102  0.4774  0.2526  0.4575
  755MOL0     C99549   6.185   6.293  10.031  0.5363  0.2664  0.3393
  755MOL0     C99550   6.217   6.154   9.989  0.7245 -0.2684 -0.0613
  755MOL0     C99551   6.277   6.148   9.855 -0.3674  0.3767  0.3333
  755MOL0     O99552   6.289   6.007   9.805 -0.3716 -0.4076  0.0264
  755MOL0     C99553   6.203   5.932   9.733  0.6153 -0.7152 -1.1375
  755MOL0     C99554   6.259   5.817   9.687  0.6804  1.3535  0.3508
  755MOL0     C99555   6.169   5.737   9.615 -0.8335  0.4808  0.7359
  755MOL0     C99556   6.035   5.765   9.592  0.4263  0.2766  0.0491
  755MOL0     C99557   5.939   5.677   9.510 -0.0274  0.4531  0.2476
  755MOL0     O99558   5.814   5.698   9.533  0.2661 -0.3723  0.7367
  755MOL0     C99559   5.719   5.670   9.435  0.6996  0.4077 -0.2183
  755MOL0     C99560   5.730   5.710   9.300 -0.2731  0.7710 -0.2378
  755MOL0     C99561   5.621   5.698   9.220 -0.4150  0.1509  0.7500
  755MOL0     C99562   5.517   5.618   9.248  1.3913  0.5859  0.4163
  755MOL0     O99563   5.426   5.593   9.151  0.7317  0.0126  0.8119
  755MOL0     C99564   5.301   5.517   9.185 -0.0098 -1.0530  0.1749
  755MOL0     C99565   5.204   5.562   9.072  0.1171  0.1809 -0.7236
  755MOL0     C99566   5.084   5.469   9.079  0.2291  0.2187  0.1108
  755MOL0     C99567   5.014   5.433   9.217  0.6883  0.2858  0.7094
  755MOL0     C99568   4.882   5.356   9.192  0.4955 -0.3836 -0.3626
  755MOL0     C99569   4.894   5.220   9.114  0.4084 -0.6365  0.1078
  755MOL0     C99570   4.753   5.155   9.083  0.5025  0.6801 -0.7222
  755MOL0     C99571   4.771   5.031   8.997 -0.2465  0.2890  0.4404
  755MOL0    Cl99572   4.605   5.003   8.929  0.1904 -0.2793 -0.2752
  755MOL0     C99573   5.510   5.553   9.375 -0.4936 -0.1314 -0.8568
  755MOL0     C99574   5.613   5.587   9.461 -0.3502  0.6150  0.1524
  755MOL0     O99575   5.992   5.607   9.418  0.2801  0.1054 -0.0807
  755MOL0     C99576   5.990   5.886   9.649 -0.7309  0.6668  0.0995
  755MOL0     C99577   6.075   5.976   9.719  0.3297  0.3388 -0.1292
  755MOL0     N99578   5.882   6.242   9.910  0.8867  0.2836  0.1853
  755MOL0     N99579   5.763   6.201   9.898 -0.5146 -1.3307  0.5354
  755MOL0     C99580   4.562   5.929   9.798  0.2795  0.3856 -0.2178
  755MOL0     C99581   4.421   5.930   9.790 -0.4417  0.2445  0.3297
  755MOL0     C99582   3.993   5.979   9.833  0.1588 -0.5024  0.9346
  755MOL0     C99583   3.936   6.067   9.731 -0.6746 -0.5303 -0.1245
  755MOL0     C99584   3.795   6.060   9.694  0.1037  1.0965 -0.4430
  755MOL0     C99585   3.719   5.963   9.754  1.4105  0.2832 -0.1239
  755MOL0     O99586   3.583   5.972   9.737  0.7686  0.2017  0.3202
  755MOL0     C99587   3.533   5.856   9.664 -1.1032  0.1162  0.2946
  755MOL0     C99588   3.415   5.894   9.592 -0.4786  0.1192 -0.9591
  755MOL0     C99589   3.425   6.026   9.511 -0.7849 -0.4531 -0.3959
  755MOL0     C99590   3.290   6.069   9.464  1.2714  0.0115  0.5951
  755MOL0     C99591   3.305   6.190   9.382  0.6170  0.3966  0.0273
  755MOL0     C99592   3.310   6.284   9.302  0.7601  0.6989  0.3459
  755MOL0     C99593   3.772   5.875   9.849  0.9889  0.2061  0.9753
  755MOL0     C99594   3.905   5.885   9.886  0.5896  0.3109 -0.3998
  755MOL0     H99595   4.362   6.239   9.858 -2.2127 -2.0089 -1.2131
  755MOL0     H99596   4.618   6.236   9.922  2.3269 -0.8739 -1.1767
  755MOL0     H99597   4.822   6.151  10.021  2.5752  1.6816  0.5406
  755MOL0     H99598   4.847   6.217   9.863  2.3365 -0.2864 -0.3422
  755MOL0     H99599   5.006   5.985   9.834  2.0287 -2.2359  2.3161
  755MOL0     H99600   5.014   5.997  10.003  0.5516 -1.7359 -0.6564
  755MOL0     H99601   5.112   6.236   9.978  2.4424  2.2737 -2.4065
  755MOL0     H99602   5.076   6.217   9.805 -0.9523 -0.4589  0.0263
  755MOL0     H99603   5.281   6.051   9.963  0.9876 -1.0054 -1.6058
  755MOL0     H99604   5.241   6.049   9.785  4.2578 -2.7525  0.6727
  755MOL0     H99605   5.305   6.267   9.766  2.2591  2.1478  0.8427
  755MOL0     H99606   5.441   6.162   9.794  2.1209  2.7438 -0.3397
  755MOL0     H99607   5.322   6.344  10.003  1.2670  1.8007 -2.5717
  755MOL0     H99608   5.472   6.365   9.933 -1.4938  2.7341  2.7939
  755MOL0     H99609   5.500   6.282  10.154 -0.6754  1.3884 -0.0880
  755MOL0     H99610   5.391   6.146  10.125  1.9301 -3.1927 -0.3997
  755MOL0     H99611   5.559   6.042   9.963  0.8531  2.3078 -3.2022
  755MOL0     H99612   5.603   6.047  10.130  1.3088  2.9236  1.3267
  755MOL0     H99613   5.804   6.208  10.223  3.8355  4.7686  0.8477
  755MOL0     H99614   6.036   6.277  10.203 -2.3554 -1.7574 -0.5178
  755MOL0     H99615   6.030   6.425  10.099  0.3776  0.2837 -3.7115
  755MOL0     H99616   6.266   6.320  10.099  2.0924 -2.1156 -0.4443
  755MOL0     H99617   6.198   6.362   9.946 -0.4347  1.0031  0.7625
  755MOL0     H99618   6.270   6.097  10.066 -3.6971  1.0922  4.5752
  755MOL0     H99619   6.124   6.097   9.973 -1.2010  2.7853 -0.5586
  755MOL0     H99620   6.370   6.206   9.861 -0.7383  1.3382 -2.0599
  755MOL0     H99621   6.204   6.193   9.787 -1.2238 -3.5503 -1.6543
  755MOL0     H99622   6.362   5.787   9.705  0.4045  0.1880  0.0773
  755MOL0     H99623   6.207   5.644   9.574  1.4137  2.6532 -2.6581
  755MOL0     H99624   5.813   5.768   9.261 -0.5138  2.1194  1.1732
  755MOL0     H99625   5.631   5.742   9.121 -0.9015  1.7860  1.3992
  755MOL0     H99626   5.268   5.544   9.285 -3.9882 -0.2245 -1.1734
  755MOL0     H99627   5.323   5.410   9.180  1.6718 -0.7025 -0.5695
  755MOL0     H99628   5.248   5.551   8.972 -0.6575 -1.7652 -0.8892
  755MOL0     H99629   5.183   5.669   9.081 -2.4034 -0.0969 -2.3042
  755MOL0     H99630   5.131   5.375   9.051 -1.5558 -0.6634 -0.0409
  755MOL0     H99631   5.013   5.495   9.001 -0.1764  0.0035  0.4069
  755MOL0     H99632   5.078   5.375   9.285  3.0892 -1.7602 -2.9361
  755MOL0     H99633   4.984   5.529   9.260 -1.3951 -0.1646  0.3545
  755MOL0     H99634   4.809   5.421   9.143 -0.4255 -0.0507  1.3496
  755MOL0     H99635   4.853   5.342   9.297  0.4177  0.7598 -0.2233
  755MOL0     H99636   4.952   5.151   9.176 -1.6329 -2.4000  0.1491
  755MOL0     H99637   4.949   5.230   9.020  0.6747 -1.1250  0.2099
  755MOL0     H99638   4.716   5.115   9.178 -1.2582 -0.9724 -2.0340
  755MOL0     H99639   4.695   5.233   9.032  2.8409  3.5684  0.7139
  755MOL0     H99640   4.812   4.943   9.048 -1.2579 -1.0688 -1.0078
  755MOL0     H99641   4.830   5.050   8.907 -1.9947 -1.3023 -1.1196
  755MOL0     H99642   5.427   5.488   9.401 -1.3089  1.5953  1.1891
  755MOL0     H99643   5.601   5.554   9.564  0.3870  1.3973  0.5001
  755MOL0     H99644   5.886   5.910   9.632 -1.1956 -1.7892 -1.0743
  755MOL0     H99645   6.042   6.072   9.757 -0.6296 -0.1365  0.2754
  755MOL0     H99646   4.615   5.844   9.755 -1.1822 -1.4648  1.4335
  755MOL0     H99647   4.377   5.854   9.727 -1.3932  2.1385 -1.4137
  755MOL0     H99648   3.993   6.147   9.685 -1.3731 -0.0494 -0.1678
  755MOL0     H99649   3.763   6.147   9.637  0.3093  2.2312  1.1012
  755MOL0     H99650   3.503   5.788   9.744  1.9774 -0.4766  1.0711
  755MOL0     H99651   3.613   5.824   9.597  0.0430  3.6639 -0.2468
  755MOL0     H99652   3.386   5.808   9.532  0.7679 -0.0252 -1.3709
  755MOL0     H99653   3.345   5.905   9.675  0.5881  0.3986 -0.0700
  755MOL0     H99654   3.495   6.009   9.429 -2.7402 -1.4131 -1.9272
  755MOL0     H99655   3.463   6.111   9.569 -1.7256 -0.1766 -0.1612
  755MOL0     H99656   3.260   5.994   9.390  3.5643 -2.0054  1.5653
  755MOL0     H99657   3.224   6.093   9.548  1.7087  2.4752  0.3191
  755MOL0     H99658   3.308   6.354   9.220  1.9786 -1.1453 -1.3334
  755MOL0     H99659   3.706   5.795   9.882  1.3207 -2.3039 -3.6153
  755MOL0     H99660   3.931   5.813   9.964 -1.8894 -2.5823 -2.0280
  756MOL0     O99661   7.473  10.111  10.078 -1.0442 -0.1063  0.1172
  756MOL0     C99662   7.447  10.214  10.142 -0.0821 -0.7460  0.1117
  756MOL0     O99663   7.430  10.344  10.093 -0.0975  0.6064 -0.6166
  756MOL0     C99664   7.455  10.347   9.953 -0.4055 -0.3243  0.5068
  756MOL0     C99665   7.352  10.322   9.854 -0.2662  0.4441 -0.7584
  756MOL0     C99666   7.379  10.324   9.712  0.0506  0.0172  0.9469
  756MOL0     C99667   7.515  10.354   9.670  0.1167 -0.4651  0.3275
  756MOL0     O99668   7.533  10.371   9.537 -0.4744  0.0231  0.6949
  756MOL0     C99669   7.642  10.448   9.479 -0.5212 -0.3511  0.1816
  756MOL0     C99670   7.734  10.357   9.418 -0.7074  0.5768  0.8258
  756MOL0     C99671   7.877  10.415   9.390 -0.1868  1.1145  0.2641
  756MOL0     C99672   7.868  10.543   9.304  0.7134  0.4578  0.9220
  756MOL0     C99673   7.851  10.503   9.160 -0.7107  0.2693  0.2307
  756MOL0     C99674   7.791  10.610   9.077  0.5606 -0.1195 -0.1408
  756MOL0     C99675   7.754  10.557   8.937 -0.4325 -0.8040  0.1733
  756MOL0     C99676   7.887  10.519   8.868  0.2262  0.3222  0.4032
  756MOL0     N99677   7.985  10.624   8.849 -0.4706  0.5099  0.3396
  756MOL0     C99678   7.958  10.749   8.799  0.4183 -0.5256 -0.0927
  756MOL0     C99679   8.083  10.797   8.777 -0.2590 -0.6137  0.3487
  756MOL0     C99680   8.100  10.945   8.736  0.8329 -0.0864 -1.0335
  756MOL0     C99681   8.229  11.020   8.787  0.1527 -0.0571 -0.3235
  756MOL0     C99682   8.350  10.984   8.705 -1.0795 -0.0525 -0.1162
  756MOL0     C99683   8.484  11.038   8.764 -0.3733  0.2999 -0.1003
  756MOL0     O99684   8.552  10.949   8.853  0.5827  0.1984  0.2427
  756MOL0     C99685   8.685  10.968   8.883 -0.2245 -0.0689 -0.4384
  756MOL0     C99686   8.754  10.868   8.946 -1.2357 -0.4927  0.0204
  756MOL0     C99687   8.889  10.867   8.965 -0.6997 -0.6421  0.2250
  756MOL0     C99688   8.971  10.975   8.913  0.7735 -0.2131  0.2195
  756MOL0     C99689   9.117  10.955   8.904 -0.0902 -0.7066  0.6493
  756MOL0     O99690   9.163  10.828   8.869  0.0993  0.1410  0.4197
  756MOL0     C99691   9.295  10.786   8.875 -0.2619 -0.0729  0.3791
  756MOL0     C99692   9.318  10.676   8.799 -0.0119  0.2451  0.6410
  756MOL0     C99693   9.450  10.625   8.782  0.1805  0.3349 -0.3687
  756MOL0     C99694   9.555  10.689   8.855 -0.5344 -1.0559 -0.6024
  756MOL0     O99695   9.679  10.638   8.825 -0.4146 -0.2824  0.5382
  756MOL0     C99696   9.801  10.705   8.875 -0.1852 -0.2488 -0.4201
  756MOL0     C99697   9.920  10.618   8.852  0.1582  0.4665  0.5947
  756MOL0     C99698  10.052  10.682   8.897  0.6119 -0.8157  0.8309
  756MOL0     C99699  10.170  10.591   8.890  1.1277 -0.1618 -0.5631
  756MOL0     C99700  10.293  10.654   8.945 -0.0503 -0.5202 -0.2385
  756MOL0     C99701  10.408  10.564   8.957  0.1329  0.3302  0.3627
  756MOL0     C99702  10.528  10.643   9.008  0.3019  0.5112 -0.4785
  756MOL0     C99703  10.647  10.545   9.013  0.4685  0.0971 -0.5317
  756MOL0    Cl99704  10.798  10.630   9.082 -0.2977  0.0758  0.2807
  756MOL0     C99705   9.530  10.802   8.940 -0.1566  0.3576  0.3163
  756MOL0     C99706   9.400  10.848   8.946  0.6236 -0.8025 -0.2433
  756MOL0     O99707   9.185  11.055   8.929  0.2349 -0.2123  0.3612
  756MOL0     C99708   8.902  11.084   8.865 -0.9467 -0.4901 -0.1186
  756MOL0     C99709   8.761  11.082   8.855 -0.7127  0.4301  0.0561
  756MOL0     N99710   8.182  10.700   8.793 -0.2835  0.2148  0.4949
  756MOL0     N99711   8.122  10.597   8.844  0.5181  0.0753  0.4169
  756MOL0     C99712   7.616  10.378   9.774  0.6779 -0.3163  0.3422
  756MOL0     C99713   7.587  10.368   9.911  0.4364  0.3734 -0.6310
  756MOL0     C99714   7.399  10.184  10.279  0.3820  0.6676 -0.0085
  756MOL0     C99715   7.364  10.049  10.309  0.3527  0.5619 -0.7578
  756MOL0     C99716   7.313  10.018  10.435 -0.2156  0.2870 -0.3127
  756MOL0     C99717   7.304  10.113  10.540 -0.8985 -1.3028  0.7516
  756MOL0     O99718   7.268  10.097  10.670  0.3992  0.7901 -0.5436
  756MOL0     C99719   7.246   9.967  10.717  0.2463  0.4671 -0.6863
  756MOL0     C99720   7.191   9.975  10.858 -0.5393  0.7722 -0.0859
  756MOL0     C99721   7.188   9.829  10.907  0.1291  0.0668 -0.1928
  756MOL0     C99722   7.165   9.817  11.067  0.3102  0.5276  0.0623
  756MOL0     C99723   7.045   9.894  11.101  0.3185  0.8526  0.0906
  756MOL0     C99724   6.957   9.967  11.124  0.6716  0.2992 -0.2407
  756MOL0     C99725   7.348  10.246  10.502 -1.1384  0.6040 -0.1321
  756MOL0     C99726   7.395  10.281  10.377 -0.7838 -0.1377  0.4307
  756MOL0     H99727   7.250  10.316   9.889  0.1627  2.0947  0.9678
  756MOL0     H99728   7.299  10.307   9.642 -0.1155 -2.4361  1.6509
  756MOL0     H99729   7.691  10.500   9.563 -0.4961 -0.7864  0.4365
  756MOL0     H99730   7.602  10.522   9.409  0.5076 -0.1896 -0.2571
  756MOL0     H99731   7.687  10.313   9.329  0.9472  0.0292  0.1949
  756MOL0     H99732   7.748  10.269   9.481 -0.5453  2.0226  2.9182
  756MOL0     H99733   7.962  10.358   9.352  0.8999  2.0937  1.1157
  756MOL0     H99734   7.922  10.429   9.489 -2.0801 -3.7345  2.1255
  756MOL0     H99735   7.788  10.605   9.346  0.1010  0.4223 -0.1735
  756MOL0     H99736   7.962  10.595   9.324  1.5016 -1.3061  2.0738
  756MOL0     H99737   7.804  10.405   9.153  1.7139 -0.9648 -0.1134
  756MOL0     H99738   7.948  10.476   9.116 -0.5451  0.0515  0.7195
  756MOL0     H99739   7.864  10.691   9.067  1.5052 -0.9248  0.0502
  756MOL0     H99740   7.700  10.647   9.123 -0.5213  0.1475 -2.3733
  756MOL0     H99741   7.692  10.466   8.937  2.0368 -2.5885 -0.3527
  756MOL0     H99742   7.707  10.627   8.868 -0.2912 -2.7324 -1.9801
  756MOL0     H99743   7.850  10.493   8.768 -0.7971 -1.4856  1.2045
  756MOL0     H99744   7.931  10.426   8.907  1.2682 -0.8252 -3.0612
  756MOL0     H99745   7.860  10.795   8.791 -0.9581 -3.0570  0.9312
  756MOL0     H99746   8.012  11.008   8.755  0.4854 -0.3724 -1.6183
  756MOL0     H99747   8.091  10.934   8.627  0.0430 -1.4069 -0.8570
  756MOL0     H99748   8.245  10.990   8.891  1.0395  0.7606 -0.2000
  756MOL0     H99749   8.227  11.130   8.786  0.5912 -0.0371 -1.8188
  756MOL0     H99750   8.347  10.880   8.672 -1.0284  0.3805 -1.5537
  756MOL0     H99751   8.342  11.015   8.600 -0.0147  0.1516 -0.1410
  756MOL0     H99752   8.459  11.127   8.822 -1.1373  1.9592 -2.8091
  756MOL0     H99753   8.546  11.055   8.675 -3.0471 -5.1648 -3.5711
  756MOL0     H99754   8.703  10.775   8.969  1.3587 -1.7112  1.2464
  756MOL0     H99755   8.929  10.773   9.000 -2.1181 -1.3485  0.0298
  756MOL0     H99756   9.241  10.638   8.733 -1.3575  3.0360  0.4324
  756MOL0     H99757   9.454  10.544   8.710 -0.2003 -1.0558  1.1143
  756MOL0     H99758   9.790  10.716   8.984  1.1325  1.1929 -0.3895
  756MOL0     H99759   9.808  10.805   8.832 -1.9843 -0.1171 -0.4732
  756MOL0     H99760   9.932  10.610   8.744  1.1098  1.7869  0.5884
  756MOL0     H99761   9.898  10.519   8.892 -0.3285 -0.6095 -2.1368
  756MOL0     H99762  10.040  10.717   9.000  0.2038 -2.6677  1.4557
  756MOL0     H99763  10.065  10.769   8.832  0.1832 -1.0226  0.4652
  756MOL0     H99764  10.153  10.496   8.942 -0.6871 -0.2512 -1.2553
  756MOL0     H99765  10.179  10.562   8.785  1.6962  2.3974 -1.2843
  756MOL0     H99766  10.273  10.691   9.046  0.7567  1.2507 -0.6942
  756MOL0     H99767  10.332  10.733   8.881 -0.4943  0.1676  0.3214
  756MOL0     H99768  10.439  10.548   8.854 -0.1356  3.3443 -0.2646
  756MOL0     H99769  10.376  10.466   8.995 -0.6580  0.3560 -0.2020
  756MOL0     H99770  10.555  10.728   8.945  0.8993  0.8056  0.1620
  756MOL0     H99771  10.514  10.682   9.109  1.3709 -2.2395  0.8417
  756MOL0     H99772  10.673  10.489   8.923  1.2939 -0.5052  0.0569
  756MOL0     H99773  10.620  10.471   9.090  2.5835 -2.0836 -1.7581
  756MOL0     H99774   9.610  10.836   9.005 -0.7123 -0.2019  1.3059
  756MOL0     H99775   9.374  10.920   9.023  2.4622  0.3760 -0.6746
  756MOL0     H99776   8.952  11.179   8.850 -0.9746 -0.4476  0.0488
  756MOL0     H99777   8.716  11.170   8.810 -1.1847  0.9100  1.4208
  756MOL0     H99778   7.720  10.404   9.756  1.1043 -0.1050  2.8573
  756MOL0     H99779   7.660  10.387   9.988 -1.4448  3.5513  0.6016
  756MOL0     H99780   7.401   9.978  10.236  2.3344 -1.0444  1.6647
  756MOL0     H99781   7.283   9.915  10.452  4.7180 -1.4577 -0.5962
  756MOL0     H99782   7.339   9.909  10.725 -0.6523 -0.7602  2.4575
  756MOL0     H99783   7.171   9.918  10.653  0.5951  0.9562 -1.4821
  756MOL0     H99784   7.253  10.037  10.923  2.2426  0.1216 -1.9256
  756MOL0     H99785   7.095  10.025  10.844 -1.5638 -1.4733 -1.8365
  756MOL0     H99786   7.282   9.781  10.878  0.5384  1.8669 -2.1299
  756MOL0     H99787   7.116   9.764  10.855  2.0500 -2.3566  0.0253
  756MOL0     H99788   7.149   9.714  11.099 -1.2493  0.9678  0.7813
  756MOL0     H99789   7.246   9.861  11.125 -0.6963  2.8316 -0.1829
  756MOL0     H99790   6.875  10.036  11.125  0.4498  0.0359 -0.2758
  756MOL0     H99791   7.352  10.329  10.573 -0.0624  2.3510 -2.1056
  756MOL0     H99792   7.419  10.386  10.361 -3.8688  1.5699  5.0056
  757MOL0     O99793   8.333   0.295   3.668 -0.4498  0.4058  0.6322
  757MOL0     C99794   8.424   0.287   3.580 -0.2051 -0.0347  0.1701
  757MOL0     O99795   8.520   0.381   3.563 -0.1044  0.5865 -0.1538
  757MOL0     C99796   8.505   0.498   3.623  0.3294 -0.5291 -0.0681
  757MOL0     C99797   8.588   0.544   3.726 -0.6155  0.2120  0.3707
  757MOL0     C99798   8.578   0.676   3.777  0.2564  0.6965  0.8780
  757MOL0     C99799   8.479   0.764   3.724 -0.1155  0.6595 -0.4154
  757MOL0     O99800   8.466   0.900   3.747  0.2127  0.1388 -0.3695
  757MOL0     C99801   8.577   0.969   3.809 -0.0326 -0.1749 -0.5410
  757MOL0     C99802   8.574   1.112   3.762  0.2463  0.5232  0.0043
  757MOL0     C99803   8.462   1.183   3.834  0.7989 -0.7084 -0.6975
  757MOL0     C99804   8.434   1.328   3.800  0.4799 -0.8678  0.3842
  757MOL0     C99805   8.318   1.390   3.869  0.2312 -0.3099 -0.2379
  757MOL0     C99806   8.348   1.405   4.022 -0.0229  0.5011  0.1363
  757MOL0     C99807   8.246   1.513   4.070  0.2140 -0.2680 -0.8112
  757MOL0     C99808   8.268   1.669   4.051  0.3832 -0.5458 -0.4325
  757MOL0     N99809   8.264   1.746   4.173  0.1418 -0.3335 -0.0037
  757MOL0     C99810   8.375   1.783   4.236 -0.6264 -0.6625  0.2099
  757MOL0     C99811   8.331   1.830   4.350  0.7355  0.4811  0.0840
  757MOL0     C99812   8.430   1.894   4.439  0.3769 -0.3322 -0.6054
  757MOL0     C99813   8.456   2.035   4.388  0.2358 -0.5534 -0.1093
  757MOL0     C99814   8.336   2.123   4.393 -0.0193  0.3809  0.7525
  757MOL0     C99815   8.318   2.178   4.546 -0.3669  0.7656  0.6249
  757MOL0     O99816   8.442   2.217   4.590 -0.5029 -0.1164 -0.8341
  757MOL0     C99817   8.445   2.263   4.721  0.7463  0.3255 -0.4916
  757MOL0     C99818   8.347   2.349   4.782  0.2565  0.1954  0.8347
  757MOL0     C99819   8.378   2.390   4.910  0.3777 -0.0715  0.2296
  757MOL0     C99820   8.490   2.349   4.982 -0.1388  0.7049  0.6896
  757MOL0     C99821   8.520   2.382   5.119  0.4134  0.0827 -0.8970
  757MOL0     O99822   8.625   2.320   5.173 -0.2408 -0.3840  0.2107
  757MOL0     C99823   8.661   2.335   5.312 -0.5771 -0.4404 -0.1268
  757MOL0     C99824   8.797   2.357   5.339 -0.1304 -0.0869 -1.0509
  757MOL0     C99825   8.852   2.389   5.469 -0.7041  0.1413  1.0087
  757MOL0     C99826   8.762   2.389   5.573  0.3683  0.0449  0.2449
  757MOL0     O99827   8.785   2.408   5.713  0.2573 -0.4576  0.3660
  757MOL0     C99828   8.917   2.377   5.762  0.0537 -0.1027  0.8679
  757MOL0     C99829   8.906   2.348   5.914  0.0080 -1.0785 -0.1692
  757MOL0     C99830   8.865   2.202   5.947  1.0326  0.2674 -0.6967
  757MOL0     C99831   8.833   2.183   6.094 -0.4748 -0.3804 -0.0426
  757MOL0     C99832   8.791   2.043   6.127  0.4843 -0.2679  0.0974
  757MOL0     C99833   8.894   1.928   6.095 -0.0473  0.2928 -0.8391
  757MOL0     C99834   8.846   1.812   6.182 -0.2473 -0.2636  0.8203
  757MOL0     C99835   8.908   1.682   6.161 -0.2702  0.6628  0.1457
  757MOL0    Cl99836   9.055   1.656   6.259 -0.0252  0.5168  0.2944
  757MOL0     C99837   8.623   2.379   5.541 -0.8576 -0.0973 -0.3455
  757MOL0     C99838   8.572   2.361   5.415 -0.6160  0.1187  0.4554
  757MOL0     O99839   8.444   2.465   5.178  0.0117 -0.2662  0.1179
  757MOL0     C99840   8.580   2.260   4.919  0.6944  0.0090  0.5592
  757MOL0     C99841   8.556   2.223   4.791 -1.4466 -0.7426 -0.7809
  757MOL0     N99842   8.192   1.840   4.351  0.8882  0.8033 -0.9196
  757MOL0     N99843   8.153   1.774   4.246  0.1867  0.2338 -0.7029
  757MOL0     C99844   8.388   0.718   3.634  0.2571 -0.0558  0.8076
  757MOL0     C99845   8.407   0.584   3.575  0.4305 -0.8098  0.4560
  757MOL0     C99846   8.417   0.189   3.469 -0.3478 -0.0669  0.4242
  757MOL0     C99847   8.301   0.100   3.462 -0.5234  1.0259  0.1146
  757MOL0     C99848   8.298  -0.003   3.359  0.3878 -0.0684  0.0108
  757MOL0     C99849   8.409  -0.027   3.276 -0.6089 -0.0612 -0.2502
  757MOL0     O99850   8.396  -0.120   3.178 -0.5067  0.5874 -0.5044
  757MOL0     C99851   8.492  -0.225   3.193 -0.5686  0.0522 -0.3223
  757MOL0     C99852   8.522  -0.308   3.069  0.0717 -0.2726  1.0324
  757MOL0     C99853   8.392  -0.364   3.002 -0.3500  0.0027 -0.3040
  757MOL0     C99854   8.438  -0.399   2.858 -0.5598  0.0642  0.4117
  757MOL0     C99855   8.349  -0.485   2.790 -0.6543 -0.2286  0.0699
  757MOL0     C99856   8.277  -0.563   2.738 -0.1249  0.3595 -0.2174
  757MOL0     C99857   8.514   0.061   3.288  0.2194  0.1969 -0.4805
  757MOL0     C99858   8.521   0.169   3.378 -0.3244  0.7826 -0.2255
  757MOL0     H99859   8.665   0.476   3.762 -2.9411 -1.3693  2.6875
  757MOL0     H99860   8.647   0.715   3.851  1.0821  0.8170  0.0630
  757MOL0     H99861   8.673   0.926   3.782  0.3313  0.6236 -0.5432
  757MOL0     H99862   8.558   0.960   3.916 -2.7646  1.6925 -0.7531
  757MOL0     H99863   8.557   1.116   3.654 -3.1352  2.8946  0.4525
  757MOL0     H99864   8.671   1.161   3.779  1.0906 -1.6055  1.7542
  757MOL0     H99865   8.486   1.181   3.941  0.2433  1.4035 -0.4881
  757MOL0     H99866   8.368   1.127   3.836 -0.2274  0.9845  0.0211
  757MOL0     H99867   8.529   1.374   3.826 -0.4530  3.5004 -2.8734
  757MOL0     H99868   8.421   1.331   3.691  2.1139  0.2508  0.1835
  757MOL0     H99869   8.233   1.321   3.867 -2.6472  2.8242  2.7406
  757MOL0     H99870   8.305   1.489   3.825  0.5858 -0.6002 -1.0140
  757MOL0     H99871   8.450   1.441   4.035  0.7127 -1.2801 -0.4254
  757MOL0     H99872   8.333   1.310   4.073  2.6700 -0.6701 -1.0825
  757MOL0     H99873   8.149   1.487   4.025 -1.8274  1.7821  2.0116
  757MOL0     H99874   8.222   1.505   4.176  0.7481 -1.4548 -0.7767
  757MOL0     H99875   8.199   1.712   3.978  2.8415  2.5414 -1.1534
  757MOL0     H99876   8.366   1.698   4.011  1.3415  0.6717  2.5101
  757MOL0     H99877   8.477   1.756   4.212 -0.9983 -3.0478  0.9692
  757MOL0     H99878   8.520   1.835   4.458  0.7387 -0.0122 -1.3055
  757MOL0     H99879   8.378   1.899   4.535 -2.9184  1.7051 -2.3316
  757MOL0     H99880   8.482   2.017   4.283  3.8414 -0.3742  0.6605
  757MOL0     H99881   8.542   2.081   4.437 -1.3119 -0.6125  2.9080
  757MOL0     H99882   8.366   2.205   4.326  2.9714 -0.2441  1.1658
  757MOL0     H99883   8.239   2.087   4.357 -0.8095  2.5628  0.5278
  757MOL0     H99884   8.269   2.101   4.605 -3.9266  0.1595 -2.7208
  757MOL0     H99885   8.240   2.255   4.542  0.7063  1.8822  0.1412
  757MOL0     H99886   8.253   2.372   4.734  0.5413  0.4315  0.3892
  757MOL0     H99887   8.309   2.447   4.971  0.0333 -1.7269  1.4327
  757MOL0     H99888   8.871   2.361   5.260 -0.6551  0.9043 -1.5037
  757MOL0     H99889   8.958   2.407   5.478  0.2088 -0.1461 -5.0591
  757MOL0     H99890   8.979   2.461   5.729 -1.1588 -0.5837 -3.2941
  757MOL0     H99891   8.965   2.292   5.712  0.1255  0.9444 -0.9097
  757MOL0     H99892   8.836   2.415   5.965  0.6282 -0.5808  0.0551
  757MOL0     H99893   9.009   2.363   5.949 -0.6523 -3.1524  3.0263
  757MOL0     H99894   8.944   2.137   5.909 -0.9065 -0.6195 -3.5550
  757MOL0     H99895   8.778   2.166   5.891 -0.3221 -1.2700  2.1602
  757MOL0     H99896   8.925   2.204   6.149 -0.9928  2.1025 -0.0282
  757MOL0     H99897   8.760   2.262   6.114 -2.2548 -1.9875  0.0670
  757MOL0     H99898   8.699   2.010   6.079 -0.3086 -0.0135  1.4058
  757MOL0     H99899   8.756   2.033   6.230 -4.3004 -0.2464 -1.3091
  757MOL0     H99900   8.992   1.948   6.137 -1.0068  2.4919  0.5095
  757MOL0     H99901   8.905   1.907   5.988 -2.5900  3.2576 -1.8660
  757MOL0     H99902   8.848   1.829   6.290 -3.0878 -3.3721  1.5316
  757MOL0     H99903   8.743   1.787   6.156  0.0178 -1.0458  0.4716
  757MOL0     H99904   8.949   1.670   6.060  1.4437 -1.4452  1.0213
  757MOL0     H99905   8.831   1.606   6.178 -0.5468  1.2581  1.7697
  757MOL0     H99906   8.560   2.392   5.628 -0.1973  0.6222  0.0463
  757MOL0     H99907   8.465   2.366   5.395 -0.3133 -1.3111 -2.0053
  757MOL0     H99908   8.672   2.229   4.968  0.3864 -0.2702  0.9652
  757MOL0     H99909   8.634   2.164   4.742 -2.2247 -0.5855 -2.2627
  757MOL0     H99910   8.312   0.777   3.584 -1.1328 -1.3618  1.2807
  757MOL0     H99911   8.343   0.552   3.494  0.6037 -0.8120  0.3197
  757MOL0     H99912   8.230   0.092   3.544 -0.4814 -4.3681 -0.0416
  757MOL0     H99913   8.208  -0.061   3.342 -0.0624  0.5696  0.1737
  757MOL0     H99914   8.474  -0.296   3.274  0.7639  1.3299  1.1706
  757MOL0     H99915   8.592  -0.187   3.218 -0.5189 -1.1066  1.4327
  757MOL0     H99916   8.576  -0.254   2.991 -1.8083  0.3371  0.0784
  757MOL0     H99917   8.597  -0.386   3.082  1.8891  1.2371  0.1678
  757MOL0     H99918   8.312  -0.290   3.004 -1.7303 -1.4430  0.2035
  757MOL0     H99919   8.366  -0.450   3.064 -0.1248  0.2829  0.1819
  757MOL0     H99920   8.434  -0.302   2.809 -1.7876  0.6783  1.6482
  757MOL0     H99921   8.539  -0.440   2.856 -1.0209 -1.0768 -0.9528
  757MOL0     H99922   8.219  -0.642   2.695  2.2265 -0.2135 -2.5677
  757MOL0     H99923   8.600   0.053   3.222  2.0065  2.1308  1.4760
  757MOL0     H99924   8.619   0.217   3.381  0.0590  0.5536 -3.9470
  758MOL0     O99925   2.682   2.827   9.476  0.6802  1.1595 -0.1176
  758MOL0     C99926   2.694   2.891   9.580 -0.2356  0.1788 -0.0470
  758MOL0     O99927   2.594   2.954   9.653  0.4558  0.1937  0.1498
  758MOL0     C99928   2.454   2.944   9.632  0.9727 -0.3797  1.0014
  758MOL0     C99929   2.380   3.036   9.696  0.3420 -0.0979  0.0009
  758MOL0     C99930   2.243   3.034   9.692  0.6810 -0.6419  0.0252
  758MOL0     C99931   2.177   2.936   9.611 -0.8927 -0.3833 -0.8250
  758MOL0     O99932   2.043   2.941   9.589 -0.5057 -0.1004  0.6112
  758MOL0     C99933   2.014   3.029   9.475  0.2516  0.3006 -0.1066
  758MOL0     C99934   1.863   3.031   9.468  0.3240 -0.5323  0.0724
  758MOL0     C99935   1.793   3.083   9.341  0.3319  0.6115 -0.2137
  758MOL0     C99936   1.653   3.035   9.309  0.0423 -0.0860 -0.2033
  758MOL0     C99937   1.600   3.105   9.181 -1.0839 -0.3825  0.9150
  758MOL0     C99938   1.477   3.027   9.148  0.4668  0.2376 -0.1913
  758MOL0     C99939   1.402   3.071   9.018  0.8761 -0.1934  0.2902
  758MOL0     C99940   1.266   2.993   9.008  0.2442 -0.0207  0.2669
  758MOL0     N99941   1.185   3.032   8.896 -0.6368  0.2821 -0.5699
  758MOL0     C99942   1.117   2.947   8.807  0.1928 -0.2773 -0.8166
  758MOL0     C99943   1.040   3.019   8.732  0.3380  0.8112  0.3996
  758MOL0     C99944   0.949   2.954   8.630 -0.4795 -0.5343  0.0433
  758MOL0     C99945   0.813   2.917   8.706  0.4146 -0.1786  0.2950
  758MOL0     C99946   0.719   2.858   8.610 -0.5098  0.0073 -0.3129
  758MOL0     C99947   0.742   2.720   8.553 -0.9127 -0.1387  0.2405
  758MOL0     O99948   0.623   2.643   8.529 -0.0306  0.7291  0.9457
  758MOL0     C99949   0.634   2.545   8.432 -0.3343 -0.1414  0.1511
  758MOL0     C99950   0.535   2.547   8.332 -0.3538 -0.3956  0.4672
  758MOL0     C99951   0.547   2.466   8.220 -0.3820 -0.2041  1.0140
  758MOL0     C99952   0.663   2.394   8.201  1.0105  0.5891  0.1073
  758MOL0     C99953   0.696   2.318   8.070  0.2486 -0.3007  0.3961
  758MOL0     O99954   0.608   2.320   7.971  0.5697 -0.3837  1.0958
  758MOL0     C99955   0.642   2.312   7.835  0.3089 -0.3507  1.4354
  758MOL0     C99956   0.770   2.309   7.774 -0.2631  0.2238  0.0601
  758MOL0     C99957   0.783   2.309   7.639 -1.1395 -1.4640  0.2244
  758MOL0     C99958   0.670   2.308   7.553  0.1048 -0.8716  1.0454
  758MOL0     O99959   0.681   2.311   7.416  0.1512  0.5115 -0.3026
  758MOL0     C99960   0.778   2.404   7.361  0.2132  0.7350  0.4000
  758MOL0     C99961   0.901   2.339   7.301  0.0696 -0.1748  0.2149
  758MOL0     C99962   0.868   2.255   7.179 -0.4572 -0.4884  0.3873
  758MOL0     C99963   0.992   2.210   7.104 -0.2363  0.3801 -0.0139
  758MOL0     C99964   0.954   2.143   6.977  0.7770  0.1713 -0.9777
  758MOL0     C99965   1.060   2.044   6.923  0.1859  0.2934  0.4522
  758MOL0     C99966   1.023   1.981   6.783 -0.4439 -0.9831 -0.0928
  758MOL0     C99967   1.141   1.898   6.728  0.5421 -0.2344 -1.0414
  758MOL0    Cl99968   1.254   1.993   6.647  0.6698  0.5047 -0.1247
  758MOL0     C99969   0.533   2.309   7.608 -1.0692  0.0701 -0.1232
  758MOL0     C99970   0.533   2.312   7.747 -0.5342  0.5698 -0.0537
  758MOL0     O99971   0.805   2.264   8.057  0.5158  0.1121  0.3899
  758MOL0     C99972   0.747   2.378   8.305  1.0379 -0.7651 -1.4935
  758MOL0     C99973   0.739   2.459   8.424 -0.1896 -0.4043  0.2202
  758MOL0     N99974   1.046   3.145   8.781 -0.4576  0.5040 -0.2354
  758MOL0     N99975   1.133   3.152   8.878  0.5463  0.0994 -0.1593
  758MOL0     C99976   2.249   2.842   9.538 -0.0038  0.4770 -0.0904
  758MOL0     C99977   2.387   2.849   9.551  0.1310  0.2304  0.7696
  758MOL0     C99978   2.829   2.904   9.640  0.0115  0.3695  0.0890
  758MOL0     C99979   2.906   2.789   9.643 -0.4580 -0.5048  0.0634
  758MOL0     C99980   3.020   2.781   9.718  0.5853 -0.1450 -0.7428
  758MOL0     C99981   3.055   2.879   9.806 -0.3232 -0.3503 -0.5297
  758MOL0     O99982   3.168   2.862   9.882  0.1897  0.1481 -0.6742
  758MOL0     C99983   3.213   2.935   9.997  0.3078  0.6943 -0.4018
  758MOL0     C99984   3.363   2.903  10.049  0.2959  0.9355  0.0762
  758MOL0     C99985   3.371   2.756  10.120  0.9733 -0.9288 -0.1836
  758MOL0     C99986   3.507   2.746  10.199 -0.2179  0.2327  0.9477
  758MOL0     C99987   3.543   2.608  10.227  0.9422  0.5247  0.4393
  758MOL0     C99988   3.562   2.490  10.227  1.0558  0.2185  0.3846
  758MOL0     C99989   2.980   2.995   9.801 -0.3791 -0.0154  0.0941
  758MOL0     C99990   2.869   3.008   9.719 -0.1733  0.1830  0.3322
  758MOL0     H99991   2.440   3.104   9.755  1.0729  1.4239 -2.3426
  758MOL0     H99992   2.187   3.107   9.750  0.7858 -0.4829 -0.0726
  758MOL0     H99993   2.051   2.990   9.380 -1.2053  0.4271 -0.7564
  758MOL0     H99994   2.043   3.134   9.489 -1.3559  0.6382  1.0100
  758MOL0     H99995   1.826   3.075   9.561  1.9547 -0.6330  0.8022
  758MOL0     H99996   1.836   2.925   9.475  1.5584 -0.7529  3.2866
  758MOL0     H99997   1.851   3.061   9.251  1.8161  5.0250 -0.6000
  758MOL0     H99998   1.784   3.191   9.357 -0.1719  1.2193 -3.7994
  758MOL0     H99999   1.649   2.926   9.294 -2.6381 -0.4578  2.2576
  758MOL0     H    0   1.594   3.063   9.396 -1.0897  1.9102 -1.5461
  758MOL0     H    1   1.670   3.094   9.098  0.8401  0.0823  2.3902
  758MOL0     H    2   1.570   3.210   9.187 -1.1143 -0.3923  0.9354
  758MOL0     H    3   1.405   3.035   9.229 -2.3254 -3.9159 -1.8968
  758MOL0     H    4   1.494   2.919   9.143 -0.4960  0.0298  0.7488
  758MOL0     H    5   1.384   3.179   9.014  2.9473  0.1542 -1.4464
  758MOL0     H    6   1.456   3.031   8.932  2.0013 -2.0229  1.7716
  758MOL0     H    7   1.205   3.012   9.097  1.2050 -0.8303  1.1201
  758MOL0     H    8   1.272   2.884   9.005 -1.1185 -0.0800 -1.3585
  758MOL0     H    9   1.117   2.839   8.805 -0.7140 -0.3885  1.5306
  758MOL0     H   10   1.011   2.871   8.594 -1.1839 -1.1960  0.3382
  758MOL0     H   11   0.927   3.027   8.551 -0.9546  1.6188  2.0706
  758MOL0     H   12   0.767   3.010   8.741 -0.7731 -0.9410  0.8186
  758MOL0     H   13   0.829   2.850   8.790 -0.6954  0.3339  0.9337
  758MOL0     H   14   0.623   2.870   8.662 -1.3193  1.0134 -1.9488
  758MOL0     H   15   0.702   2.924   8.524 -1.1033  1.0742  0.6051
  758MOL0     H   16   0.791   2.664   8.633  0.0114 -2.8534 -2.0522
  758MOL0     H   17   0.817   2.718   8.473 -1.8181  1.3133 -0.7018
  758MOL0     H   18   0.455   2.620   8.333 -0.4588 -0.3501 -2.3895
  758MOL0     H   19   0.478   2.484   8.138  1.1543  1.1229 -0.0334
  758MOL0     H   20   0.865   2.309   7.827 -0.2927 -0.8443  0.1411
  758MOL0     H   21   0.882   2.303   7.595  0.1423  3.8102  1.6443
  758MOL0     H   22   0.804   2.482   7.433 -1.3260  0.9827  0.7187
  758MOL0     H   23   0.731   2.442   7.270  0.1309  0.5375  0.3594
  758MOL0     H   24   0.946   2.288   7.387  0.2445  0.6513  0.6209
  758MOL0     H   25   0.972   2.416   7.271  0.1626 -0.2688  0.1944
  758MOL0     H   26   0.797   2.305   7.112 -1.2351  0.9871  2.2508
  758MOL0     H   27   0.822   2.165   7.220  0.7002 -2.5789 -2.5341
  758MOL0     H   28   1.052   2.297   7.078  1.2704 -0.3465  0.9092
  758MOL0     H   29   1.053   2.138   7.159  3.6219  2.5403 -1.0935
  758MOL0     H   30   0.930   2.215   6.899 -0.7735 -0.1331 -0.8024
  758MOL0     H   31   0.872   2.077   7.005  0.5742  0.5106 -0.7669
  758MOL0     H   32   1.080   1.958   6.987  0.5941 -0.0393 -0.1192
  758MOL0     H   33   1.153   2.099   6.907 -1.0291  2.5367  0.5448
  758MOL0     H   34   0.944   1.912   6.816  0.6294 -1.4530  1.6115
  758MOL0     H   35   0.978   2.049   6.711 -2.2338 -4.1141 -2.1860
  758MOL0     H   36   1.090   1.834   6.655  1.4719 -1.9816 -0.2029
  758MOL0     H   37   1.192   1.835   6.801 -0.6223  0.2837  0.2639
  758MOL0     H   38   0.451   2.299   7.538 -2.2747 -0.3119  1.2925
  758MOL0     H   39   0.434   2.307   7.792 -1.4666 -2.6819 -2.1326
  758MOL0     H   40   0.801   2.284   8.303 -0.0398 -1.3985 -1.7443
  758MOL0     H   41   0.829   2.463   8.484  1.5609  2.3805 -2.2820
  758MOL0     H   42   2.205   2.769   9.471  0.7977  1.5387 -1.8657
  758MOL0     H   43   2.446   2.777   9.496  0.0149  0.6937  0.0326
  758MOL0     H   44   2.879   2.703   9.582  2.2189 -2.3054  1.2162
  758MOL0     H   45   3.073   2.687   9.702 -0.8403 -1.4891  1.6841
  758MOL0     H   46   3.139   2.932  10.078 -3.2144  4.2517 -3.0880
  758MOL0     H   47   3.207   3.040   9.968 -3.2358  0.8830  0.5951
  758MOL0     H   48   3.438   2.909   9.969 -0.8800 -0.1448 -1.1438
  758MOL0     H   49   3.405   2.975  10.121  1.2312  1.9244 -1.4019
  758MOL0     H   50   3.363   2.685  10.037  2.9836 -1.5746  0.1249
  758MOL0     H   51   3.286   2.740  10.187 -1.2818  2.1365 -2.0635
  758MOL0     H   52   3.580   2.785  10.127 -0.3523  0.5553  0.9846
  758MOL0     H   53   3.504   2.819  10.281 -0.2476  1.9759 -0.5317
  758MOL0     H   54   3.564   2.384  10.241  1.0025  0.3042  1.0803
  758MOL0     H   55   3.003   3.082   9.862  1.1313  0.3584 -0.9451
  758MOL0     H   56   2.818   3.104   9.719  2.0396  1.4458 -0.8641
  759MOL0     O   57   9.538   2.753   9.903 -0.0825  0.4477  0.4353
  759MOL0     C   58   9.593   2.731   9.800  0.6076 -0.0034  0.5293
  759MOL0     O   59   9.551   2.644   9.694 -0.0211 -0.2244 -0.5139
  759MOL0     C   60   9.421   2.596   9.693 -0.6517 -0.0497 -0.3142
  759MOL0     C   61   9.344   2.622   9.584  0.1021 -0.2197 -0.0993
  759MOL0     C   62   9.209   2.574   9.582  0.3489  0.5992 -0.2318
  759MOL0     C   63   9.152   2.521   9.698 -0.8010  0.2057 -0.3367
  759MOL0     O   64   9.020   2.483   9.705  0.5773  0.9032 -0.2251
  759MOL0     C   65   8.920   2.519   9.604 -0.0121  0.2421  0.6075
  759MOL0     C   66   8.841   2.392   9.561 -0.6627  0.2118 -0.1343
  759MOL0     C   67   8.905   2.316   9.438 -0.6826  0.3403  0.3789
  759MOL0     C   68   8.844   2.173   9.416 -0.3687 -0.4012 -0.0125
  759MOL0     C   69   8.951   2.068   9.393 -0.1951 -0.8746 -0.3212
  759MOL0     C   70   8.903   1.929   9.360 -0.0499 -0.2124 -0.9023
  759MOL0     C   71   8.807   1.877   9.474 -0.8025 -0.1421  0.1427
  759MOL0     C   72   8.772   1.728   9.456  0.2761 -0.1473 -0.1557
  759MOL0     N   73   8.881   1.630   9.495 -0.2016  0.7669  0.0913
  759MOL0     C   74   8.959   1.631   9.613  0.0048  0.0236 -0.7871
  759MOL0     C   75   9.025   1.516   9.607 -0.4392  0.7652 -0.2208
  759MOL0     C   76   9.115   1.479   9.720  0.8785  0.5258  0.9161
  759MOL0     C   77   9.043   1.389   9.825 -0.1785 -0.6621  0.3236
  759MOL0     C   78   9.036   1.239   9.770  0.7246 -0.2090 -0.6250
  759MOL0     C   79   8.957   1.150   9.863  0.4674 -0.8953  0.4125
  759MOL0     O   80   8.973   1.018   9.805  1.0474 -0.2064  0.9524
  759MOL0     C   81   8.897   0.913   9.846  0.2692  0.2089  0.6151
  759MOL0     C   82   8.776   0.923   9.919  0.6718 -0.5665  0.0686
  759MOL0     C   83   8.687   0.808   9.936  0.3213  0.0321  0.3871
  759MOL0     C   84   8.721   0.680   9.882 -0.5647 -0.5284 -0.4880
  759MOL0     C   85   8.634   0.563   9.903 -0.4234 -0.7118  0.2198
  759MOL0     O   86   8.700   0.445   9.883  0.7869  0.7251 -0.4055
  759MOL0     C   87   8.629   0.329   9.905  0.0405 -0.1152  0.6798
  759MOL0     C   88   8.660   0.265  10.024 -0.2882  0.3474 -0.2652
  759MOL0     C   89   8.583   0.148  10.056 -0.0624  0.6450 -0.4065
  759MOL0     C   90   8.470   0.115   9.987  0.1285  0.3946  0.5048
  759MOL0     O   91   8.385   0.015  10.032 -0.8119  0.3409  0.1743
  759MOL0     C   92   8.246   0.057  10.036 -0.3137 -0.5601 -0.2751
  759MOL0     C   93   8.206   0.025  10.183  0.1259  0.2498  0.4144
  759MOL0     C   94   8.063   0.081  10.210 -0.2781  0.9813  0.7833
  759MOL0     C   95   8.032   0.092  10.358 -0.2807 -0.0878  0.3870
  759MOL0     C   96   7.903   0.020  10.384  0.3506 -1.2026  0.2462
  759MOL0     C   97   7.908  -0.030  10.535 -0.6554  0.3102  0.3223
  759MOL0     C   98   7.993  -0.164  10.561  0.3829 -0.3217  0.3926
  759MOL0     C   99   7.961  -0.229  10.696  0.0887 -0.1808  0.8238
  759MOL0    Cl  100   7.809  -0.319  10.693  0.2667  0.0375 -0.2634
  759MOL0     C  101   8.435   0.197   9.880 -0.1252  0.1409 -0.0732
  759MOL0     C  102   8.519   0.298   9.839  0.4769 -0.0445 -0.8167
  759MOL0     O  103   8.527   0.582   9.956  0.3775 -0.4221 -0.3376
  759MOL0     C  104   8.841   0.674   9.813  0.0789 -0.3777 -0.0600
  759MOL0     C  105   8.925   0.784   9.789  0.7959  0.5085  0.5610
  759MOL0     N  106   8.988   1.447   9.489 -0.1326  0.2071 -0.2020
  759MOL0     N  107   8.902   1.509   9.423  0.1430  0.3560  0.8229
  759MOL0     C  108   9.239   2.496   9.808 -0.3939  0.0935  0.4803
  759MOL0     C  109   9.369   2.536   9.809  0.0479  0.6630  0.0695
  759MOL0     C  110   9.734   2.772   9.779 -0.5512  0.5166 -0.1643
  759MOL0     C  111   9.812   2.765   9.892 -0.4253  0.1587 -0.2853
  759MOL0     C  112   9.946   2.797   9.887  0.9427  0.5492 -0.6949
  759MOL0     C  113   9.996   2.858   9.772  0.2150 -0.1742  0.3316
  759MOL0     O  114  10.129   2.891   9.767  0.2154 -0.1525  0.2183
  759MOL0     C  115  10.167   3.030   9.733  0.9652 -0.0238  1.1260
  759MOL0     C  116  10.313   3.073   9.770 -0.1199 -0.1356 -0.0970
  759MOL0     C  117  10.360   3.205   9.699 -0.4720  0.1833  1.5487
  759MOL0     C  118  10.501   3.245   9.756 -0.1278 -0.6220 -1.1646
  759MOL0     C  119  10.602   3.147   9.714  0.5759 -0.0690  0.0086
  759MOL0     C  120  10.689   3.062   9.689 -0.9177 -0.6724 -0.8371
  759MOL0     C  121   9.919   2.868   9.659  0.1199 -0.9775  0.5491
  759MOL0     C  122   9.784   2.821   9.651  0.7571  0.4179 -0.4572
  759MOL0     H  123   9.369   2.670   9.490 -0.4250 -0.3965 -0.3289
  759MOL0     H  124   9.151   2.581   9.491  0.7716  0.4845 -0.5082
  759MOL0     H  125   8.949   2.579   9.518 -2.3922  1.8791  0.8448
  759MOL0     H  126   8.845   2.574   9.663 -0.5557 -0.8577  0.9756
  759MOL0     H  127   8.737   2.411   9.533 -0.6799  0.0470 -0.1807
  759MOL0     H  128   8.829   2.315   9.638 -3.8969 -0.3005 -1.0100
  759MOL0     H  129   9.014   2.318   9.447 -0.6787 -0.4109  0.5903
  759MOL0     H  130   8.878   2.373   9.349 -3.7181 -1.9019 -0.2926
  759MOL0     H  131   8.789   2.135   9.502  1.2581 -0.1300  1.1983
  759MOL0     H  132   8.781   2.191   9.328  0.7947 -0.5369 -0.8956
  759MOL0     H  133   9.002   2.058   9.489 -1.5092 -0.6707  0.4071
  759MOL0     H  134   9.019   2.110   9.318  0.2949 -0.6979  0.2102
  759MOL0     H  135   8.991   1.865   9.361 -0.4702 -0.9744 -3.7192
  759MOL0     H  136   8.850   1.927   9.264  0.0365 -1.7399 -0.9291
  759MOL0     H  137   8.853   1.894   9.572 -0.1147 -1.3048  0.0406
  759MOL0     H  138   8.713   1.929   9.459 -1.8304 -1.8438  0.4502
  759MOL0     H  139   8.746   1.711   9.351 -1.0287 -3.0324  0.5341
  759MOL0     H  140   8.685   1.710   9.520  1.1420  0.7368  1.3218
  759MOL0     H  141   8.961   1.699   9.698 -1.0031 -0.4590 -0.3520
  759MOL0     H  142   9.154   1.568   9.770 -2.0942  0.5288  3.5690
  759MOL0     H  143   9.191   1.430   9.658 -1.6374 -0.0087 -1.9605
  759MOL0     H  144   8.946   1.420   9.867 -0.7824 -1.3233 -0.5396
  759MOL0     H  145   9.098   1.382   9.919 -2.4697 -1.1962  1.7065
  759MOL0     H  146   8.999   1.230   9.667 -1.7662 -1.4769  0.3033
  759MOL0     H  147   9.138   1.203   9.784 -0.3669 -2.7460  1.5897
  759MOL0     H  148   8.856   1.189   9.867  0.3535 -1.3206  2.6998
  759MOL0     H  149   9.008   1.140   9.959 -0.8853  0.6491  1.3211
  759MOL0     H  150   8.742   1.015   9.964  1.2863 -1.3817  2.3288
  759MOL0     H  151   8.588   0.839   9.967  0.6165  2.1948 -0.6534
  759MOL0     H  152   8.737   0.287  10.097  1.8655 -1.6166 -1.8223
  759MOL0     H  153   8.600   0.094  10.148 -1.2714  2.1292  0.7434
  759MOL0     H  154   8.193  -0.010   9.968  0.5115  0.4015 -1.9499
  759MOL0     H  155   8.224   0.157   9.998  0.4191 -0.7534 -1.2677
  759MOL0     H  156   8.274   0.087  10.243 -2.4257  3.6209  0.1117
  759MOL0     H  157   8.209  -0.081  10.209  0.2830  0.1426 -0.0306
  759MOL0     H  158   7.986   0.023  10.158 -0.9561  0.2471  2.5354
  759MOL0     H  159   8.057   0.182  10.170 -0.1334  1.2725  1.4803
  759MOL0     H  160   8.104   0.042  10.424  0.3541 -4.8151 -3.3235
  759MOL0     H  161   8.009   0.195  10.386 -2.2856  0.3417 -2.4755
  759MOL0     H  162   7.888  -0.059  10.310 -1.1931 -0.2445 -0.5178
  759MOL0     H  163   7.812   0.076  10.362  0.4013 -2.1494 -2.8267
  759MOL0     H  164   7.802  -0.042  10.559 -2.0482  2.6318 -3.6337
  759MOL0     H  165   7.945   0.048  10.601  1.4825  1.0381 -1.6311
  759MOL0     H  166   7.981  -0.234  10.478 -0.7683 -1.0669  1.1652
  759MOL0     H  167   8.099  -0.136  10.558  0.4050 -0.1832 -3.9213
  759MOL0     H  168   7.959  -0.146  10.768  0.3997 -0.0873  0.7279
  759MOL0     H  169   8.045  -0.293  10.723 -0.1554 -0.8543  0.0157
  759MOL0     H  170   8.347   0.178   9.819 -0.3218  4.4175 -1.4046
  759MOL0     H  171   8.490   0.352   9.750  0.2650  0.2935 -0.5446
  759MOL0     H  172   8.869   0.586   9.757  0.5740 -1.0057  1.1365
  759MOL0     H  173   9.015   0.780   9.729  1.6324  1.4384  1.7153
  759MOL0     H  174   9.204   2.448   9.899 -1.8252  0.5799  0.2174
  759MOL0     H  175   9.431   2.507   9.893 -1.3408 -1.9981  0.2529
  759MOL0     H  176   9.761   2.729   9.981 -0.5305  0.7075 -0.1219
  759MOL0     H  177  10.012   2.794   9.973  0.8019  3.0222 -0.4335
  759MOL0     H  178  10.090   3.098   9.771  0.3157  0.1220 -0.3531
  759MOL0     H  179  10.162   3.036   9.623  0.7226 -0.9711  1.0738
  759MOL0     H  180  10.325   3.082   9.878  0.0047 -0.9303 -0.0407
  759MOL0     H  181  10.381   2.995   9.736  0.5255  0.0366  0.7812
  759MOL0     H  182  10.287   3.283   9.723 -1.8168 -0.0691 -1.2955
  759MOL0     H  183  10.352   3.196   9.590  0.4365  2.7285  1.2161
  759MOL0     H  184  10.522   3.346   9.719 -2.4801  0.9466  1.3635
  759MOL0     H  185  10.498   3.253   9.865  0.2158  1.0496 -1.2553
  759MOL0     H  186  10.766   2.988   9.675  1.5548  1.1648  1.8816
  759MOL0     H  187   9.970   2.907   9.571  1.1860 -3.1709  0.1150
  759MOL0     H  188   9.717   2.828   9.566 -2.1082  1.5217  1.7398
  760MOL0     O  189  10.011   0.087   5.696 -0.1508  0.0405 -0.4761
  760MOL0     C  190   9.930   0.179   5.710 -0.6904 -0.1015  0.3017
  760MOL0     O  191   9.956   0.310   5.689  0.3338  0.2124  0.4785
  760MOL0     C  192  10.077   0.350   5.635  0.2443 -0.1992  0.0801
  760MOL0     C  193  10.074   0.417   5.519  0.1954 -0.1502 -0.3369
  760MOL0     C  194  10.184   0.489   5.472 -0.4716 -0.3335 -0.2554
  760MOL0     C  195  10.306   0.460   5.529  0.0952  0.2330 -1.1718
  760MOL0     O  196  10.426   0.508   5.479  0.6384 -0.6187  0.2715
  760MOL0     C  197  10.427   0.650   5.456  0.0413  0.3844  0.2936
  760MOL0     C  198  10.562   0.696   5.457 -0.5609  0.3163  0.6696
  760MOL0     C  199  10.621   0.709   5.598 -0.5464 -0.0813  0.1977
  760MOL0     C  200  10.779   0.711   5.596  0.6624  0.5155  0.9886
  760MOL0     C  201  10.847   0.752   5.732 -0.2869  0.1228 -0.2537
  760MOL0     C  202  11.006   0.752   5.734 -0.4198 -0.3563 -0.1215
  760MOL0     C  203  11.070   0.617   5.709 -0.7422  0.4117 -0.0054
  760MOL0     C  204  11.208   0.606   5.774  0.1530 -0.2269 -0.2504
  760MOL0     N  205  11.194   0.615   5.917 -0.6004 -0.4363  0.2622
  760MOL0     C  206  11.234   0.715   5.998 -0.0887  0.4870 -0.1802
  760MOL0     C  207  11.239   0.660   6.120  0.3630  0.5282 -0.2572
  760MOL0     C  208  11.286   0.744   6.239  0.2731  0.0536  0.3475
  760MOL0     C  209  11.442   0.758   6.218 -0.7087 -0.0742 -0.5676
  760MOL0     C  210  11.500   0.624   6.266  0.1009 -0.3876  0.6510
  760MOL0     C  211  11.657   0.639   6.312  0.8093 -0.1216  0.0296
  760MOL0     O  212  11.714   0.505   6.326  0.1355  0.1612 -0.0528
  760MOL0     C  213  11.848   0.490   6.339 -0.7425  0.3562 -0.1578
  760MOL0     C  214  11.945   0.588   6.357 -0.4209 -1.0873 -0.3396
  760MOL0     C  215  12.084   0.556   6.363  0.4419 -0.0442  0.0238
  760MOL0     C  216  12.126   0.429   6.359 -0.3677  0.7711 -0.2131
  760MOL0     C  217  12.264   0.396   6.380  0.0668 -0.6003  0.3819
  760MOL0     O  218  12.354   0.500   6.366  0.4910 -0.3961 -0.1826
  760MOL0     C  219  12.489   0.504   6.384  0.2586  1.0240  0.1192
  760MOL0     C  220  12.541   0.633   6.374  0.6911  0.7642 -0.5406
  760MOL0     C  221  12.683   0.649   6.373  0.8937  0.8813  0.8440
  760MOL0     C  222  12.771   0.537   6.392 -0.2454  0.8256 -0.3104
  760MOL0     O  223  12.906   0.559   6.412 -0.2733 -0.0730 -0.0377
  760MOL0     C  224  12.964   0.652   6.325  1.4614 -0.4983 -0.0400
  760MOL0     C  225  13.096   0.600   6.303 -0.3638 -0.1615  0.0730
  760MOL0     C  226  13.194   0.718   6.284 -0.7845 -0.2652  0.0558
  760MOL0     C  227  13.329   0.662   6.246 -0.3106 -0.7449 -0.1778
  760MOL0     C  228  13.447   0.767   6.271 -1.4035  0.9455 -0.2477
  760MOL0     C  229  13.450   0.876   6.169 -0.2217  0.6099  0.5731
  760MOL0     C  230  13.589   0.946   6.159 -0.0379  0.5845  0.1074
  760MOL0     C  231  13.578   1.057   6.065 -0.8778 -0.9954  0.1634
  760MOL0    Cl  232  13.736   1.124   6.046 -0.0362 -0.1946 -0.0147
  760MOL0     C  233  12.712   0.412   6.417 -0.1797 -0.5654 -0.1954
  760MOL0     C  234  12.575   0.391   6.400 -0.3655 -0.0073  0.2724
  760MOL0     O  235  12.299   0.286   6.420  0.2519 -0.2114  0.0439
  760MOL0     C  236  12.034   0.326   6.329 -1.0564 -1.0937  0.4435
  760MOL0     C  237  11.890   0.356   6.314 -0.3708 -0.9042 -0.3355
  760MOL0     N  238  11.203   0.523   6.121  0.4730  0.0288 -0.2291
  760MOL0     N  239  11.186   0.498   5.994  0.8644  1.0169  0.8782
  760MOL0     C  240  10.313   0.379   5.643 -0.9651  0.3508  0.3176
  760MOL0     C  241  10.196   0.336   5.705 -0.2444  0.0853 -0.5560
  760MOL0     C  242   9.800   0.141   5.765 -0.0276  0.7110  1.5080
  760MOL0     C  243   9.716   0.228   5.849  0.8235 -0.4455 -0.5567
  760MOL0     C  244   9.589   0.184   5.891 -0.5201 -0.7216 -1.3924
  760MOL0     C  245   9.536   0.059   5.845 -0.7761 -0.5738 -0.2067
  760MOL0     O  246   9.420  -0.006   5.871 -1.0153  0.3675  0.2783
  760MOL0     C  247   9.346   0.064   5.968  0.0144 -0.9050 -0.0326
  760MOL0     C  248   9.221  -0.028   6.004 -0.1801  0.2760 -0.2856
  760MOL0     C  249   9.174   0.001   6.139  0.6656  0.0927 -0.3198
  760MOL0     C  250   9.060  -0.095   6.183 -0.6656 -0.0500 -0.2252
  760MOL0     C  251   9.010  -0.091   6.324 -0.3170 -0.3526  0.8616
  760MOL0     C  252   8.940  -0.080   6.420  0.1378 -0.8832  0.1723
  760MOL0     C  253   9.622  -0.023   5.773  0.4713  0.9587 -0.1018
  760MOL0     C  254   9.747   0.019   5.731  0.8524 -0.2649 -0.4763
  760MOL0     H  255   9.981   0.415   5.462 -0.7742  0.4957  1.1709
  760MOL0     H  256  10.190   0.541   5.377  0.3102 -0.6244 -0.3688
  760MOL0     H  257  10.383   0.699   5.543  1.5215 -0.1238  1.3663
  760MOL0     H  258  10.382   0.683   5.362  1.6908 -1.3059 -1.1538
  760MOL0     H  259  10.566   0.793   5.406 -1.1283  0.5691  1.1027
  760MOL0     H  260  10.608   0.613   5.402 -2.6800 -0.3764 -0.1658
  760MOL0     H  261  10.584   0.625   5.658 -2.2199 -0.2468 -1.0017
  760MOL0     H  262  10.583   0.801   5.644  1.1798 -0.6734  3.0739
  760MOL0     H  263  10.803   0.608   5.567  1.2860  0.1334  2.6952
  760MOL0     H  264  10.815   0.777   5.517  3.9144 -3.2456 -1.0622
  760MOL0     H  265  10.823   0.682   5.813 -0.4779  0.3575 -0.1041
  760MOL0     H  266  10.795   0.841   5.770 -0.8819  0.5650 -1.9942
  760MOL0     H  267  11.036   0.786   5.833 -0.2559 -1.1322  0.1050
  760MOL0     H  268  11.023   0.834   5.663 -3.1588  1.9389  1.6751
  760MOL0     H  269  10.994   0.543   5.738 -2.0296  1.0006 -1.7369
  760MOL0     H  270  11.074   0.610   5.600  3.1302 -0.7010  0.0769
  760MOL0     H  271  11.278   0.678   5.731  0.0911  0.7833  1.2678
  760MOL0     H  272  11.239   0.505   5.744 -1.7888 -1.3716  1.3623
  760MOL0     H  273  11.260   0.818   5.974  0.8847  0.4968  0.8253
  760MOL0     H  274  11.268   0.684   6.328  0.4201 -0.5050  0.0026
  760MOL0     H  275  11.236   0.841   6.232  2.3382  1.2631  1.3247
  760MOL0     H  276  11.482   0.844   6.273  0.0707 -0.4785 -0.4916
  760MOL0     H  277  11.464   0.766   6.111 -1.3051  4.0053 -0.5424
  760MOL0     H  278  11.446   0.589   6.355  2.1247 -1.7567  1.4187
  760MOL0     H  279  11.487   0.557   6.181  0.5734  3.4146 -2.7133
  760MOL0     H  280  11.668   0.696   6.404 -2.6350  0.1608  0.3935
  760MOL0     H  281  11.715   0.698   6.241 -0.1041 -1.4618 -1.9275
  760MOL0     H  282  11.919   0.693   6.366 -0.2456 -1.2094  2.3979
  760MOL0     H  283  12.158   0.628   6.399 -0.2414  0.4254  0.5162
  760MOL0     H  284  12.471   0.716   6.370 -2.9795 -1.5701  4.4864
  760MOL0     H  285  12.720   0.745   6.340 -1.8228  1.4185 -1.0686
  760MOL0     H  286  12.952   0.746   6.379 -1.1781 -1.1074  0.5694
  760MOL0     H  287  12.916   0.663   6.228 -0.0278 -2.3704  0.4248
  760MOL0     H  288  13.096   0.533   6.217 -0.5463 -3.3490  2.3685
  760MOL0     H  289  13.134   0.550   6.393 -3.0309  0.5192  1.7086
  760MOL0     H  290  13.200   0.795   6.361  1.1709  1.7729 -1.9822
  760MOL0     H  291  13.153   0.766   6.194 -0.8514 -2.1444 -0.9601
  760MOL0     H  292  13.340   0.582   6.319  4.2982  0.2466  0.5125
  760MOL0     H  293  13.325   0.616   6.146  1.6216  0.0510 -0.6608
  760MOL0     H  294  13.540   0.710   6.267 -2.8108 -1.4316 -3.1257
  760MOL0     H  295  13.430   0.810   6.370 -0.9719  0.1807  0.1672
  760MOL0     H  296  13.379   0.951   6.204 -0.7250 -0.1562  1.2028
  760MOL0     H  297  13.433   0.845   6.065  5.4991  1.3276 -0.9373
  760MOL0     H  298  13.609   0.978   6.261  2.6187  1.9390 -0.7402
  760MOL0     H  299  13.671   0.880   6.128 -0.5327 -1.2226  2.3105
  760MOL0     H  300  13.502   1.134   6.084 -0.5186  0.4598 -3.4662
  760MOL0     H  301  13.553   1.028   5.963  2.2868  0.6807 -1.2372
  760MOL0     H  302  12.765   0.317   6.421 -5.5629 -3.9335  0.5196
  760MOL0     H  303  12.534   0.291   6.405 -0.7602  0.2037  3.1775
  760MOL0     H  304  12.057   0.220   6.327 -0.5805 -0.9838 -0.1202
  760MOL0     H  305  11.808   0.286   6.305 -0.5661 -1.4016  3.7564
  760MOL0     H  306  10.403   0.346   5.694 -2.1338 -0.7286  1.7938
  760MOL0     H  307  10.199   0.273   5.794  2.9332 -1.6137 -1.6938
  760MOL0     H  308   9.746   0.331   5.862  2.1158 -0.7191 -1.1799
  760MOL0     H  309   9.519   0.236   5.955 -0.9282 -3.4725  0.5704
  760MOL0     H  310   9.316   0.160   5.925 -2.2031 -1.3913  0.2847
  760MOL0     H  311   9.396   0.074   6.064 -2.4561  1.0987  1.1788
  760MOL0     H  312   9.135   0.002   5.943 -0.8964 -2.5246 -0.8160
  760MOL0     H  313   9.246  -0.133   5.986 -0.1448  0.2091  0.1600
  760MOL0     H  314   9.145   0.106   6.134  0.7120  0.0427 -3.0984
  760MOL0     H  315   9.247  -0.006   6.221 -1.0808 -0.0339  1.3099
  760MOL0     H  316   8.969  -0.075   6.125  0.0055  1.4297 -0.8230
  760MOL0     H  317   9.104  -0.195   6.172  1.2508  0.3271  2.8445
  760MOL0     H  318   8.874  -0.079   6.505 -2.2646  2.3424 -1.5147
  760MOL0     H  319   9.580  -0.120   5.750  0.9193  0.5401  0.8171
  760MOL0     H  320   9.798  -0.042   5.658  2.5999 -0.1256  0.5678
  761MOL0     O  321   6.165   0.023   1.621  0.9412 -0.7354  0.0514
  761MOL0     C  322   6.264   0.053   1.684 -0.2526 -0.8550 -0.8212
  761MOL0     O  323   6.285   0.161   1.768 -0.4001 -0.4296 -0.7676
  761MOL0     C  324   6.185   0.244   1.816  0.0779  0.9793 -0.4429
  761MOL0     C  325   6.217   0.363   1.880  0.2058  0.5115  0.1776
  761MOL0     C  326   6.126   0.463   1.920 -0.5164 -0.3314  0.4652
  761MOL0     C  327   5.994   0.436   1.898 -0.4683 -0.5353  0.1113
  761MOL0     O  328   5.894   0.503   1.964 -0.3312  0.4438 -0.2630
  761MOL0     C  329   5.916   0.640   2.021 -0.3130  0.6101 -0.0976
  761MOL0     C  330   5.806   0.722   1.948 -0.9400  0.0652 -0.9773
  761MOL0     C  331   5.846   0.861   1.904 -0.1077  0.5291  0.9118
  761MOL0     C  332   5.733   0.931   1.839  0.2755 -0.4658  0.1870
  761MOL0     C  333   5.755   1.082   1.842 -0.5501 -0.3927  0.1701
  761MOL0     C  334   5.635   1.153   1.798  0.6949 -0.5532 -0.3069
  761MOL0     C  335   5.664   1.301   1.803  0.0362 -0.8189 -0.3351
  761MOL0     C  336   5.540   1.373   1.748  1.3016  0.4757  0.1941
  761MOL0     N  337   5.468   1.457   1.843  0.0210  0.2479  0.2615
  761MOL0     C  338   5.409   1.412   1.952  0.2869 -0.1575  0.3758
  761MOL0     C  339   5.335   1.516   2.000 -0.4732  1.0329 -0.3279
  761MOL0     C  340   5.263   1.517   2.132  1.3736 -0.4366  0.0918
  761MOL0     C  341   5.358   1.469   2.237 -0.1304  0.8362  0.3430
  761MOL0     C  342   5.296   1.489   2.370 -0.0657 -0.8430  0.5633
  761MOL0     C  343   5.359   1.397   2.475  0.2380 -1.1361 -0.8516
  761MOL0     O  344   5.499   1.380   2.460  0.2090  0.5683 -0.0631
  761MOL0     C  345   5.570   1.288   2.537  0.4686  0.0478  0.6998
  761MOL0     C  346   5.516   1.203   2.638 -0.1686  0.5641  0.5013
  761MOL0     C  347   5.602   1.129   2.716  0.5927  0.3348 -0.2870
  761MOL0     C  348   5.741   1.115   2.685 -0.3028  0.0915  0.9400
  761MOL0     C  349   5.830   1.023   2.765 -0.0423  0.1332  0.3545
  761MOL0     O  350   5.780   0.962   2.880 -0.4789 -0.0743 -0.1563
  761MOL0     C  351   5.861   0.884   2.960 -0.4655  0.1084  0.3657
  761MOL0     C  352   5.963   0.796   2.912  0.2823 -0.1480 -0.3064
  761MOL0     C  353   6.039   0.721   3.003  0.2035  0.4352  0.8104
  761MOL0     C  354   6.025   0.752   3.139  0.0278 -0.1028  0.1486
  761MOL0     O  355   6.101   0.671   3.227  0.0064  0.2290  0.8986
  761MOL0     C  356   6.117   0.708   3.359 -0.0569  0.4575 -0.0461
  761MOL0     C  357   6.214   0.614   3.428 -0.2328  0.7867 -0.0564
  761MOL0     C  358   6.166   0.467   3.439  0.8759 -0.6832  0.6799
  761MOL0     C  359   6.251   0.391   3.538  0.3854 -0.2035 -0.1393
  761MOL0     C  360   6.192   0.251   3.559  0.7124 -0.2044 -0.7660
  761MOL0     C  361   6.163   0.172   3.423 -0.8007  0.1704 -0.6610
  761MOL0     C  362   6.128   0.025   3.436 -0.1085  1.0487 -0.1152
  761MOL0     C  363   6.068  -0.051   3.314 -0.1662 -0.3319  0.0396
  761MOL0    Cl  364   6.184  -0.163   3.232 -0.0385  0.5354 -0.1220
  761MOL0     C  365   5.934   0.852   3.180 -0.4233  0.1165  0.2306
  761MOL0     C  366   5.852   0.915   3.090 -0.3839  0.1197  1.5273
  761MOL0     O  367   5.945   1.003   2.717  0.5226 -0.6619  0.8273
  761MOL0     C  368   5.789   1.201   2.582 -0.0682  1.1039 -0.2286
  761MOL0     C  369   5.705   1.286   2.515  0.4116 -0.5313  0.0319
  761MOL0     N  370   5.361   1.623   1.920 -0.0006  0.4903  0.1852
  761MOL0     N  371   5.437   1.584   1.816 -0.5582  0.4161 -0.2647
  761MOL0     C  372   5.952   0.318   1.834 -0.1082  0.5086 -0.0085
  761MOL0     C  373   6.051   0.226   1.787 -0.6049 -0.0760 -0.3027
  761MOL0     C  374   6.391  -0.020   1.644 -0.4240 -0.5568 -1.1447
  761MOL0     C  375   6.399  -0.091   1.524  1.0264 -0.3493  0.5613
  761MOL0     C  376   6.503  -0.178   1.499  0.8035 -0.7148 -0.1469
  761MOL0     C  377   6.610  -0.191   1.591  0.1981  0.0880  0.1495
  761MOL0     O  378   6.702  -0.290   1.558 -0.1393 -0.3558  0.4475
  761MOL0     C  379   6.830  -0.294   1.627  0.7430 -0.7340 -0.5320
  761MOL0     C  380   6.928  -0.290   1.515 -0.2822 -0.6168 -0.0111
  761MOL0     C  381   7.070  -0.313   1.561 -0.2149 -0.7424 -0.0749
  761MOL0     C  382   7.151  -0.357   1.429  0.3353 -0.4564  0.0450
  761MOL0     C  383   7.106  -0.483   1.360  0.3703 -0.7962 -0.0680
  761MOL0     C  384   7.066  -0.576   1.289 -0.2971 -0.3002 -1.2030
  761MOL0     C  385   6.607  -0.116   1.706 -0.0559  0.0591  0.0212
  761MOL0     C  386   6.500  -0.033   1.735 -0.4107  0.6639  0.0354
  761MOL0     H  387   6.318   0.376   1.916 -0.2887 -0.5437  2.0655
  761MOL0     H  388   6.167   0.545   1.977  1.1554  0.5077 -1.7682
  761MOL0     H  389   6.016   0.677   1.998  0.6014  0.6459  3.3948
  761MOL0     H  390   5.912   0.644   2.130 -0.0256  1.2948 -0.1071
  761MOL0     H  391   5.721   0.732   2.015 -0.6122  1.3289 -0.7172
  761MOL0     H  392   5.774   0.669   1.858 -4.6229 -0.1785  0.3139
  761MOL0     H  393   5.937   0.865   1.843 -0.2082 -1.4631  0.5583
  761MOL0     H  394   5.869   0.924   1.990 -1.5165  4.3761 -1.2925
  761MOL0     H  395   5.727   0.901   1.734 -0.2094  0.2009  0.0192
  761MOL0     H  396   5.642   0.912   1.898 -0.3026  1.7394  0.0919
  761MOL0     H  397   5.842   1.110   1.781 -2.0436  0.1270 -1.8470
  761MOL0     H  398   5.776   1.116   1.944  0.5450  1.7808 -0.7036
  761MOL0     H  399   5.545   1.134   1.856  0.4582  1.3840  0.0372
  761MOL0     H  400   5.611   1.123   1.696 -1.1291 -0.8993  0.2004
  761MOL0     H  401   5.702   1.349   1.894  1.6411  2.4340 -2.5362
  761MOL0     H  402   5.744   1.327   1.734  0.1555  2.7486  0.8998
  761MOL0     H  403   5.463   1.307   1.708  1.2849 -1.0006  2.4712
  761MOL0     H  404   5.565   1.436   1.662  1.1478 -0.7189 -0.7420
  761MOL0     H  405   5.424   1.314   1.998 -2.6831  0.6367  3.4141
  761MOL0     H  406   5.186   1.440   2.124  0.3752  0.5597 -0.2829
  761MOL0     H  407   5.224   1.617   2.156  1.8503  0.0487 -1.0546
  761MOL0     H  408   5.455   1.521   2.233 -0.0149  0.6049  0.1314
  761MOL0     H  409   5.364   1.362   2.219 -1.3004  1.0805 -1.8289
  761MOL0     H  410   5.330   1.592   2.382  0.6837 -0.6752 -2.3091
  761MOL0     H  411   5.187   1.485   2.371 -0.1587  0.9921  0.3585
  761MOL0     H  412   5.310   1.300   2.471 -4.2720  0.8191  0.4492
  761MOL0     H  413   5.352   1.438   2.577  1.2201 -0.3638 -1.0819
  761MOL0     H  414   5.411   1.205   2.663 -0.8549 -0.1146 -2.0227
  761MOL0     H  415   5.561   1.071   2.798 -2.0830  0.6632 -1.3063
  761MOL0     H  416   5.982   0.787   2.806  1.6878  0.0553 -0.0839
  761MOL0     H  417   6.108   0.645   2.966 -1.5205 -1.7972  1.9358
  761MOL0     H  418   6.021   0.697   3.411 -0.8476  0.8976 -1.3624
  761MOL0     H  419   6.146   0.813   3.371  1.3228 -0.0436  1.4374
  761MOL0     H  420   6.237   0.659   3.525 -1.4948 -0.0445  0.6677
  761MOL0     H  421   6.307   0.632   3.374 -0.8167  1.8402 -0.7367
  761MOL0     H  422   6.167   0.439   3.333 -2.5375  2.4029 -0.3934
  761MOL0     H  423   6.061   0.462   3.469  0.5174 -0.7159 -0.5052
  761MOL0     H  424   6.353   0.362   3.512  1.5849  0.2450  3.3825
  761MOL0     H  425   6.271   0.449   3.629  1.2922  0.3557 -0.6739
  761MOL0     H  426   6.093   0.278   3.598  1.4023  2.0086 -0.3940
  761MOL0     H  427   6.241   0.186   3.632  0.7751 -0.3682 -0.9538
  761MOL0     H  428   6.254   0.170   3.362  0.5212  2.1999  1.1040
  761MOL0     H  429   6.077   0.214   3.370 -2.1049 -2.8580 -1.1696
  761MOL0     H  430   6.209  -0.040   3.471 -1.5815 -1.9678 -1.8849
  761MOL0     H  431   6.059   0.014   3.521  0.4302  0.5451  0.2705
  761MOL0     H  432   6.012   0.012   3.244 -0.9322 -0.6696  0.3391
  761MOL0     H  433   5.988  -0.110   3.359 -1.1795 -0.2312 -1.5329
  761MOL0     H  434   5.909   0.886   3.279 -0.8223  1.0689 -0.1845
  761MOL0     H  435   5.784   0.992   3.126  0.7091  1.2779  1.2082
  761MOL0     H  436   5.892   1.198   2.549 -0.9365  1.5781 -3.2537
  761MOL0     H  437   5.754   1.344   2.438  0.9758  1.5864  1.8950
  761MOL0     H  438   5.845   0.311   1.819 -0.2151  2.2180 -0.2660
  761MOL0     H  439   5.995   0.153   1.730 -0.9195  1.2903 -1.8329
  761MOL0     H  440   6.318  -0.087   1.452  0.4769  0.9465  1.2199
  761MOL0     H  441   6.492  -0.236   1.408 -0.5580  1.4515 -1.4540
  761MOL0     H  442   6.841  -0.389   1.679 -1.7821 -0.5003  0.5577
  761MOL0     H  443   6.845  -0.207   1.692 -3.6396  0.4445 -0.7690
  761MOL0     H  444   6.891  -0.362   1.442  2.1184 -1.2479 -0.7037
  761MOL0     H  445   6.922  -0.192   1.466  2.7769 -0.9539 -1.3068
  761MOL0     H  446   7.073  -0.392   1.637  2.8028  0.8728  1.7170
  761MOL0     H  447   7.116  -0.223   1.604 -0.5704 -0.2922 -0.6274
  761MOL0     H  448   7.148  -0.283   1.349 -0.0363  1.4274  1.7146
  761MOL0     H  449   7.258  -0.369   1.449  1.0578  3.5309 -0.4321
  761MOL0     H  450   7.012  -0.653   1.239  0.3441 -1.6261  0.0751
  761MOL0     H  451   6.681  -0.136   1.782 -1.3462  0.8028  1.5413
  761MOL0     H  452   6.489   0.017   1.831  0.3572  0.0896  0.4350
  762MOL0     O  453   2.103   9.098   3.925  0.5184 -0.0667  0.4536
  762MOL0     C  454   2.037   9.094   3.822 -0.8638  0.7119 -0.5381
  762MOL0     O  455   2.083   9.106   3.696 -0.0669 -0.5451 -0.1448
  762MOL0     C  456   2.217   9.107   3.653  0.2564 -0.7510 -1.0646
  762MOL0     C  457   2.320   9.033   3.715 -0.2819 -0.9836  0.2502
  762MOL0     C  458   2.454   9.032   3.676 -0.4994 -0.2202  0.2810
  762MOL0     C  459   2.485   9.099   3.552  0.6034  0.0763 -0.1419
  762MOL0     O  460   2.614   9.106   3.498 -0.1557  0.2957  0.1902
  762MOL0     C  461   2.724   9.050   3.570 -0.5436 -0.7205  0.3290
  762MOL0     C  462   2.850   9.089   3.488 -0.3081 -0.2498  0.4108
  762MOL0     C  463   2.963   9.025   3.565 -0.0519 -0.5601 -0.6066
  762MOL0     C  464   3.101   9.053   3.487 -0.0664  1.2777  0.4317
  762MOL0     C  465   3.229   8.982   3.533 -0.0503 -0.6000  0.0497
  762MOL0     C  466   3.355   9.024   3.461  0.2725  0.4675 -0.0781
  762MOL0     C  467   3.479   8.953   3.499 -0.1502  0.6298 -0.0296
  762MOL0     C  468   3.490   8.803   3.468 -0.9881  0.1892  0.1490
  762MOL0     N  469   3.618   8.745   3.513 -0.7137 -0.1417  0.2790
  762MOL0     C  470   3.725   8.736   3.423  0.5246  1.1409  0.0654
  762MOL0     C  471   3.840   8.727   3.498 -0.3448  0.3865 -0.2412
  762MOL0     C  472   3.985   8.736   3.442  0.4279  0.2284  1.5689
  762MOL0     C  473   4.078   8.667   3.544  0.0530 -0.0523 -0.6595
  762MOL0     C  474   4.231   8.653   3.503 -0.3324 -0.3970 -0.0706
  762MOL0     C  475   4.242   8.587   3.373 -0.3541  0.3977  0.1344
  762MOL0     O  476   4.385   8.567   3.343  0.1834  0.2075  0.0870
  762MOL0     C  477   4.436   8.441   3.352 -1.2102 -0.4940 -0.1959
  762MOL0     C  478   4.502   8.374   3.237  0.2749  0.0224 -0.4873
  762MOL0     C  479   4.559   8.252   3.235  0.0327 -0.8043  0.1883
  762MOL0     C  480   4.559   8.179   3.357  0.2156 -0.2858  0.5211
  762MOL0     C  481   4.610   8.038   3.356  0.3632  0.3674  0.4472
  762MOL0     O  482   4.690   7.992   3.253 -0.8430 -1.1959 -0.2820
  762MOL0     C  483   4.722   7.862   3.225 -0.0629  0.3332  0.7384
  762MOL0     C  484   4.856   7.822   3.225 -0.0510  0.5548 -0.4817
  762MOL0     C  485   4.888   7.686   3.189 -0.0628 -0.0741  0.0371
  762MOL0     C  486   4.793   7.592   3.159  0.1206  0.0179 -0.0600
  762MOL0     O  487   4.826   7.465   3.142 -0.0331  0.6102 -0.1792
  762MOL0     C  488   4.924   7.404   3.234 -0.8695  0.6517 -0.0992
  762MOL0     C  489   5.061   7.376   3.172 -0.2215 -0.2275 -0.0405
  762MOL0     C  490   5.057   7.288   3.050  0.4471  0.4802 -0.1838
  762MOL0     C  491   5.197   7.247   3.001 -0.8056 -0.0648  0.2356
  762MOL0     C  492   5.197   7.191   2.853 -0.2815 -0.1142 -0.0074
  762MOL0     C  493   5.118   7.066   2.833 -0.2759 -0.1738 -0.0498
  762MOL0     C  494   5.071   7.030   2.696  0.6146 -0.0027 -0.8487
  762MOL0     C  495   5.045   6.882   2.670 -0.4674  0.3371  0.0494
  762MOL0    Cl  496   5.192   6.799   2.608  0.4230 -0.4078 -0.0099
  762MOL0     C  497   4.662   7.638   3.151  0.1869 -0.9567 -0.7249
  762MOL0     C  498   4.625   7.774   3.182 -0.1531  0.1007  1.0033
  762MOL0     O  499   4.563   7.968   3.442  0.4615 -0.0276  0.1378
  762MOL0     C  500   4.494   8.232   3.472  0.7140 -0.1907 -0.0979
  762MOL0     C  501   4.440   8.367   3.479 -0.2706  0.5492 -0.4343
  762MOL0     N  502   3.807   8.726   3.631 -0.4794  0.6941  0.6459
  762MOL0     N  503   3.678   8.740   3.634  0.3776 -0.8879 -0.7767
  762MOL0     C  504   2.373   9.155   3.478 -0.7699 -0.0160  0.3633
  762MOL0     C  505   2.249   9.173   3.535  0.7459 -0.3273 -0.7621
  762MOL0     C  506   1.890   9.085   3.846  0.2931 -0.0564  0.0176
  762MOL0     C  507   1.805   9.120   3.739  0.4565 -0.1544 -0.9068
  762MOL0     C  508   1.663   9.101   3.760  0.4046 -0.0502 -1.0089
  762MOL0     C  509   1.603   9.059   3.881  0.4953 -1.0455 -0.1943
  762MOL0     O  510   1.464   9.064   3.894 -1.2610  0.7837 -0.7700
  762MOL0     C  511   1.398   8.943   3.862 -0.8257  0.2808  0.5033
  762MOL0     C  512   1.359   8.924   3.720 -0.1566  0.3838 -0.0063
  762MOL0     C  513   1.300   8.785   3.695 -0.0398  0.1814 -0.1836
  762MOL0     C  514   1.155   8.780   3.753 -0.7574  0.5518 -0.4602
  762MOL0     C  515   1.055   8.852   3.664 -0.2398 -0.5316  0.3901
  762MOL0     C  516   0.966   8.886   3.583 -0.0303 -0.2879  0.2994
  762MOL0     C  517   1.698   9.033   3.981  0.4589 -0.1213 -0.6140
  762MOL0     C  518   1.837   9.032   3.965 -0.1197 -1.2811  0.5245
  762MOL0     H  519   2.301   8.978   3.806 -0.5356  3.7110  3.3601
  762MOL0     H  520   2.537   8.992   3.734  1.6784 -0.5940 -2.8551
  762MOL0     H  521   2.710   8.942   3.577 -0.4976 -0.6692  1.4052
  762MOL0     H  522   2.737   9.098   3.668  2.2082  2.2052 -1.2717
  762MOL0     H  523   2.870   9.196   3.488  1.5592 -0.5646  0.4370
  762MOL0     H  524   2.855   9.047   3.387  1.7098 -0.1592  0.4226
  762MOL0     H  525   2.949   8.917   3.575 -3.2228 -0.0335  2.4373
  762MOL0     H  526   2.958   9.066   3.666  2.1646 -1.4103 -0.1040
  762MOL0     H  527   3.078   9.020   3.385 -3.2060 -0.2719  1.4864
  762MOL0     H  528   3.120   9.160   3.486  0.8477  1.1533  1.6144
  762MOL0     H  529   3.220   8.874   3.523  2.0510 -0.9859  1.6780
  762MOL0     H  530   3.248   9.001   3.639  0.1209  0.7542 -0.2025
  762MOL0     H  531   3.377   9.127   3.492  0.9390  0.4503 -0.4837
  762MOL0     H  532   3.345   9.030   3.352  4.3303  0.7009 -0.6001
  762MOL0     H  533   3.562   9.000   3.445 -0.9644  0.7735 -1.2109
  762MOL0     H  534   3.487   8.964   3.608 -0.6722  1.8483 -0.0961
  762MOL0     H  535   3.487   8.781   3.361  1.3112 -0.0114  0.0791
  762MOL0     H  536   3.404   8.754   3.514 -1.3094  2.2955  2.0037
  762MOL0     H  537   3.733   8.748   3.315 -0.1390  2.2226  0.1195
  762MOL0     H  538   4.023   8.838   3.445  1.2337 -0.0496  1.1779
  762MOL0     H  539   3.983   8.687   3.344  0.0841 -5.2372  3.9189
  762MOL0     H  540   4.038   8.565   3.549 -1.8887  0.7329  0.9374
  762MOL0     H  541   4.074   8.701   3.647 -4.2479 -2.2889  0.1567
  762MOL0     H  542   4.268   8.756   3.505 -0.4950 -0.3372 -0.1536
  762MOL0     H  543   4.275   8.590   3.581 -2.4375  0.1996  1.7034
  762MOL0     H  544   4.192   8.647   3.296  0.9619 -0.4279 -1.4272
  762MOL0     H  545   4.196   8.488   3.381  0.1566  0.1898  0.5085
  762MOL0     H  546   4.507   8.438   3.149  3.5633 -0.9498 -1.1445
  762MOL0     H  547   4.603   8.205   3.148 -1.2544 -1.8980  0.0879
  762MOL0     H  548   4.930   7.898   3.248  0.9165 -0.0290 -1.5715
  762MOL0     H  549   4.991   7.652   3.193 -0.1969 -0.7085 -1.2004
  762MOL0     H  550   4.889   7.310   3.276 -0.3265  1.4793  2.3739
  762MOL0     H  551   4.933   7.458   3.329 -1.0538 -3.5545  2.5611
  762MOL0     H  552   5.113   7.308   3.240 -0.7513 -0.2656  0.3333
  762MOL0     H  553   5.116   7.467   3.147  0.7648 -0.6224  0.6453
  762MOL0     H  554   4.999   7.338   2.971  0.3738 -1.3965 -1.3622
  762MOL0     H  555   5.009   7.193   3.076  0.9997  0.9598  2.8874
  762MOL0     H  556   5.252   7.341   3.009 -2.5846  1.1451 -1.0834
  762MOL0     H  557   5.246   7.169   3.060 -1.8777 -2.6025 -2.0275
  762MOL0     H  558   5.302   7.194   2.820  0.6757  0.8133  2.8613
  762MOL0     H  559   5.145   7.267   2.794 -0.8444  2.9949  4.0530
  762MOL0     H  560   5.033   7.051   2.900 -0.6743  2.1931  0.0640
  762MOL0     H  561   5.191   6.986   2.848  2.3161  1.9186 -0.7388
  762MOL0     H  562   4.974   7.078   2.679  0.3795 -0.1277  0.1091
  762MOL0     H  563   5.142   7.065   2.620  0.2170 -0.2646 -1.3488
  762MOL0     H  564   4.968   6.873   2.593 -0.1598 -1.7942 -0.0888
  762MOL0     H  565   5.014   6.828   2.759  2.0742 -0.9245  0.2624
  762MOL0     H  566   4.586   7.574   3.107 -2.1870  1.0224  0.2532
  762MOL0     H  567   4.519   7.792   3.173 -0.1645 -0.1450  0.5966
  762MOL0     H  568   4.495   8.183   3.569  2.8657 -1.0613 -0.4998
  762MOL0     H  569   4.400   8.405   3.572  2.3979  1.0712  0.5771
  762MOL0     H  570   2.409   9.195   3.384 -1.0634 -2.9701 -1.1234
  762MOL0     H  571   2.169   9.207   3.469  1.6529  2.3491 -0.6204
  762MOL0     H  572   1.846   9.161   3.647 -0.1182 -0.8359 -1.4816
  762MOL0     H  573   1.593   9.122   3.679  0.1678 -0.8733 -1.0264
  762MOL0     H  574   1.305   8.941   3.920 -0.0059 -0.7458  1.8531
  762MOL0     H  575   1.472   8.867   3.888  4.1761  4.0913 -1.1282
  762MOL0     H  576   1.277   8.994   3.701 -0.5717  0.2098  1.0643
  762MOL0     H  577   1.435   8.935   3.643  0.1795 -1.5844 -0.0072
  762MOL0     H  578   1.357   8.710   3.752 -0.8639 -0.1610  0.2048
  762MOL0     H  579   1.302   8.754   3.590 -0.8730 -2.8043  0.5781
  762MOL0     H  580   1.131   8.674   3.751  2.0330 -0.1595 -0.2980
  762MOL0     H  581   1.157   8.833   3.849 -0.7731 -1.4496  0.6895
  762MOL0     H  582   0.897   8.921   3.509 -1.0878 -1.7274  0.5577
  762MOL0     H  583   1.659   8.993   4.074  0.2907 -1.1466 -1.1190
  762MOL0     H  584   1.909   9.003   4.041 -0.8162  0.5718  1.9638
  763MOL0     O  585   0.924   9.448   9.366 -0.0469  0.0244 -0.5762
  763MOL0     C  586   0.848   9.359   9.401  0.9856  0.2237  0.2114
  763MOL0     O  587   0.854   9.221   9.380 -1.8345 -0.0141  0.3994
  763MOL0     C  588   0.981   9.176   9.339  0.2954 -0.6709 -0.5771
  763MOL0     C  589   1.037   9.091   9.428 -0.6738  0.2320 -1.3836
  763MOL0     C  590   1.172   9.056   9.413 -0.8045 -0.5007  1.1674
  763MOL0     C  591   1.255   9.104   9.310  0.1819  0.7521 -0.1826
  763MOL0     O  592   1.390   9.086   9.322  0.4630 -0.2418 -0.3119
  763MOL0     C  593   1.464   9.061   9.193 -0.1111 -0.5172 -0.0558
  763MOL0     C  594   1.492   8.912   9.170 -1.4909 -0.3583  0.2642
  763MOL0     C  595   1.567   8.885   9.028  0.4072 -0.3648 -0.9296
  763MOL0     C  596   1.604   8.736   9.018  0.6275 -0.5225  0.1175
  763MOL0     C  597   1.628   8.698   8.873 -0.7617 -0.0667 -0.8609
  763MOL0     C  598   1.711   8.570   8.857 -0.2961 -0.1997  1.2448
  763MOL0     C  599   1.627   8.441   8.887  0.2577  0.4875 -0.4442
  763MOL0     C  600   1.682   8.317   8.813  0.5365 -0.5744  0.5612
  763MOL0     N  601   1.750   8.230   8.906  0.1266  0.0564  0.0845
  763MOL0     C  602   1.692   8.178   9.023 -0.8865 -0.0175  0.5614
  763MOL0     C  603   1.790   8.120   9.097 -0.8224  0.8705  0.3642
  763MOL0     C  604   1.801   8.047   9.226 -0.0999  0.6847 -0.4387
  763MOL0     C  605   1.732   8.102   9.360  1.4713  0.2530  0.3145
  763MOL0     C  606   1.774   8.237   9.413  0.8628  0.7272  0.7149
  763MOL0     C  607   1.925   8.272   9.417 -0.0715 -0.0924  0.0471
  763MOL0     O  608   1.976   8.192   9.518 -0.3852 -0.3072 -0.5343
  763MOL0     C  609   2.102   8.200   9.565  0.4849 -0.1914 -0.6212
  763MOL0     C  610   2.204   8.286   9.523 -0.2543 -0.5312  0.8248
  763MOL0     C  611   2.319   8.298   9.595 -0.3190  0.1471  0.5686
  763MOL0     C  612   2.335   8.240   9.721 -0.5559 -0.0750  0.0743
  763MOL0     C  613   2.454   8.275   9.809  0.2520  0.8327 -0.8498
  763MOL0     O  614   2.465   8.222   9.936 -0.1932  0.1873 -0.3611
  763MOL0     C  615   2.573   8.265  10.013  0.7315  0.6212 -0.2944
  763MOL0     C  616   2.704   8.228   9.982 -0.0049  0.1578  0.8157
  763MOL0     C  617   2.807   8.250  10.074  0.6410 -0.0727 -0.0763
  763MOL0     C  618   2.774   8.307  10.203  0.0314 -0.2321  0.5583
  763MOL0     O  619   2.870   8.324  10.299 -0.6481 -0.0919 -0.2045
  763MOL0     C  620   3.005   8.285  10.266 -0.2934  0.3852  0.3457
  763MOL0     C  621   3.099   8.331  10.379 -0.1872 -0.0077  0.0057
  763MOL0     C  622   3.113   8.245  10.506  0.6644 -0.2091 -0.0489
  763MOL0     C  623   3.003   8.255  10.605 -0.3133  0.6403 -0.4270
  763MOL0     C  624   2.911   8.133  10.620  0.8241 -0.0728  0.0536
  763MOL0     C  625   2.793   8.173  10.709  0.1030  1.3986 -0.1192
  763MOL0     C  626   2.701   8.054  10.740  0.8541  0.3390 -0.2344
  763MOL0     C  627   2.573   8.090  10.814 -0.0500  0.0877 -0.4070
  763MOL0    Cl  628   2.472   8.148  10.678  0.1040  0.4550 -0.5690
  763MOL0     C  629   2.641   8.344  10.230 -0.1169  0.1759  0.0872
  763MOL0     C  630   2.541   8.318  10.136  0.1182  0.6353  0.1314
  763MOL0     O  631   2.534   8.347   9.761 -0.1191 -0.1487  1.0035
  763MOL0     C  632   2.237   8.148   9.762 -0.3939 -0.6825  0.4604
  763MOL0     C  633   2.120   8.135   9.689  0.1516 -0.2832 -0.3409
  763MOL0     N  634   1.902   8.135   9.013  0.2601 -0.9226 -0.5101
  763MOL0     N  635   1.878   8.194   8.903 -0.2466 -0.1213  0.7510
  763MOL0     C  636   1.191   9.188   9.219  0.0602  0.6918  0.1910
  763MOL0     C  637   1.054   9.218   9.221 -0.0135  0.3513 -0.2254
  763MOL0     C  638   0.726   9.396   9.469  0.6711 -0.1981 -0.6340
  763MOL0     C  639   0.702   9.528   9.517 -0.5545 -0.6621  0.1493
  763MOL0     C  640   0.577   9.569   9.564 -0.8939 -0.8324 -0.0389
  763MOL0     C  641   0.472   9.475   9.580  0.5154 -0.5250 -0.3788
  763MOL0     O  642   0.347   9.486   9.631  0.2297 -0.2571  0.2587
  763MOL0     C  643   0.297   9.626   9.652  0.0733 -0.9641 -0.5112
  763MOL0     C  644   0.257   9.681   9.513 -0.2614  0.9343 -0.3520
  763MOL0     C  645   0.116   9.724   9.506  0.3880  0.1363 -0.1866
  763MOL0     C  646   0.088   9.831   9.402 -0.5404 -0.1735 -0.0661
  763MOL0     C  647  -0.045   9.813   9.327 -0.0521 -0.6133  0.1203
  763MOL0     C  648  -0.147   9.789   9.262 -0.5991  0.3773  0.4823
  763MOL0     C  649   0.495   9.344   9.535 -0.7380  0.7114  0.2770
  763MOL0     C  650   0.616   9.307   9.481  0.1817  0.5721  0.1834
  763MOL0     H  651   0.979   9.054   9.512 -1.2638 -0.6408 -2.1494
  763MOL0     H  652   1.212   9.002   9.498 -2.7047 -2.0635  1.1584
  763MOL0     H  653   1.554   9.122   9.199 -0.6123  0.1461  0.8863
  763MOL0     H  654   1.413   9.095   9.103  1.6313  0.3982 -0.7225
  763MOL0     H  655   1.400   8.856   9.187 -0.3812 -2.4951 -0.3130
  763MOL0     H  656   1.561   8.880   9.249 -0.8381  0.3313 -0.0108
  763MOL0     H  657   1.653   8.951   9.012 -0.3038  0.4894 -1.3025
  763MOL0     H  658   1.486   8.896   8.955  0.3296 -0.2021 -0.8192
  763MOL0     H  659   1.689   8.716   9.084  0.8984  0.3146  0.0309
  763MOL0     H  660   1.515   8.682   9.052  0.7709 -1.0526 -0.3263
  763MOL0     H  661   1.682   8.783   8.831 -2.3421  2.1806  1.3822
  763MOL0     H  662   1.535   8.688   8.816 -0.1083  1.5767 -2.2987
  763MOL0     H  663   1.810   8.581   8.902 -0.1844 -0.6134  1.1090
  763MOL0     H  664   1.749   8.559   8.755  0.3669  1.4901  1.2841
  763MOL0     H  665   1.641   8.439   8.996  1.0315 -2.5283 -0.5003
  763MOL0     H  666   1.525   8.454   8.849  0.7565 -1.9148 -2.9263
  763MOL0     H  667   1.755   8.348   8.737 -0.8296  3.9108  0.7966
  763MOL0     H  668   1.593   8.264   8.777 -1.3397  0.9029  2.7479
  763MOL0     H  669   1.589   8.194   9.055 -0.4215  0.0968  2.0532
  763MOL0     H  670   1.906   8.024   9.247 -0.9981 -2.2690  1.4199
  763MOL0     H  671   1.774   7.944   9.202  2.6178 -0.1705 -0.1811
  763MOL0     H  672   1.747   8.024   9.435  1.2989 -0.8003 -0.7250
  763MOL0     H  673   1.624   8.118   9.348  1.6872  2.4150  0.6873
  763MOL0     H  674   1.727   8.316   9.355 -1.2744 -1.2381 -0.4114
  763MOL0     H  675   1.730   8.264   9.510 -0.3910  3.0048 -0.4211
  763MOL0     H  676   1.934   8.380   9.430  1.5067 -0.0940 -0.7780
  763MOL0     H  677   1.984   8.255   9.327 -2.8639 -0.1037 -1.9263
  763MOL0     H  678   2.190   8.340   9.430 -0.1019  1.4679  1.9321
  763MOL0     H  679   2.406   8.355   9.564  0.6607 -0.2072  2.5179
  763MOL0     H  680   2.725   8.206   9.877 -1.0893  0.0646  0.6008
  763MOL0     H  681   2.907   8.223  10.040  1.4156  1.2156  1.0877
  763MOL0     H  682   3.037   8.322  10.169  1.4828 -1.8721 -0.0131
  763MOL0     H  683   3.004   8.176  10.269 -1.0331  0.3904  0.4674
  763MOL0     H  684   3.066   8.433  10.400 -1.0200  0.1976 -2.0047
  763MOL0     H  685   3.203   8.334  10.347 -0.1908 -1.6568 -0.2542
  763MOL0     H  686   3.206   8.278  10.554  0.0309  0.8863  0.4748
  763MOL0     H  687   3.129   8.141  10.477 -3.0618 -0.4450 -1.8240
  763MOL0     H  688   3.051   8.282  10.700  0.3101  0.3798 -0.6686
  763MOL0     H  689   2.940   8.344  10.589 -0.7559  1.3490  3.8568
  763MOL0     H  690   2.957   8.038  10.650 -0.1814 -0.8218 -0.7120
  763MOL0     H  691   2.868   8.118  10.520  2.2969  0.1026 -0.6359
  763MOL0     H  692   2.728   8.248  10.663  0.3892  1.7029 -0.0314
  763MOL0     H  693   2.840   8.209  10.801  0.3056  0.6189  0.0909
  763MOL0     H  694   2.661   7.998  10.655 -1.9363 -1.3384  1.9804
  763MOL0     H  695   2.765   7.987  10.799  0.1162  0.1726  0.3960
  763MOL0     H  696   2.587   8.168  10.890  2.5045 -0.3328 -0.3727
  763MOL0     H  697   2.525   8.002  10.859  1.2403 -0.9795 -1.0654
  763MOL0     H  698   2.630   8.376  10.333  0.6559 -1.9035  0.8761
  763MOL0     H  699   2.436   8.340  10.155  0.1686 -0.3220  1.6741
  763MOL0     H  700   2.248   8.093   9.854 -0.8396 -1.2213  0.1970
  763MOL0     H  701   2.034   8.081   9.727  0.3558  2.1516  4.2980
  763MOL0     H  702   1.237   9.242   9.137  0.5414  1.6348  1.0587
  763MOL0     H  703   1.005   9.280   9.146 -0.6081 -3.0076 -2.8806
  763MOL0     H  704   0.779   9.604   9.517  0.4261 -1.4896  3.4489
  763MOL0     H  705   0.571   9.672   9.598  0.2783 -1.4034  2.0493
  763MOL0     H  706   0.366   9.690   9.709  1.5011 -3.8861  1.2694
  763MOL0     H  707   0.207   9.613   9.713  0.2981  1.8721  0.5728
  763MOL0     H  708   0.333   9.752   9.480 -0.3318  0.6057 -1.2660
  763MOL0     H  709   0.266   9.593   9.448 -3.5869  0.3053 -0.1447
  763MOL0     H  710   0.077   9.757   9.602 -1.8563 -1.8891 -0.3153
  763MOL0     H  711   0.066   9.632   9.473  4.5148 -1.0222 -4.3637
  763MOL0     H  712   0.086   9.930   9.447 -0.7515 -0.2113  0.0086
  763MOL0     H  713   0.170   9.822   9.330  1.5169 -0.5359  2.1933
  763MOL0     H  714  -0.233   9.772   9.200  2.3137 -3.3065 -3.0546
  763MOL0     H  715   0.412   9.276   9.552 -1.1859  0.7781 -1.4763
  763MOL0     H  716   0.619   9.213   9.427 -1.9218  1.4453 -1.6459
  764MOL0     O  717   8.438   6.777   2.502  0.3315 -0.0182 -0.5138
  764MOL0     C  718   8.418   6.823   2.618  0.5708 -0.2868 -0.7359
  764MOL0     O  719   8.301   6.879   2.665  0.4417  0.5409  0.3609
  764MOL0     C  720   8.203   6.914   2.575  0.1923 -0.1080 -0.2455
  764MOL0     C  721   8.073   6.847   2.562 -0.2599 -0.2925  0.5109
  764MOL0     C  722   7.973   6.893   2.478  0.0582 -0.2982  0.3599
  764MOL0     C  723   8.008   7.004   2.394  0.5953  0.0836 -0.1614
  764MOL0     O  724   7.905   7.040   2.311  0.4119 -0.0897  0.5992
  764MOL0     C  725   7.925   7.125   2.198  0.3323  0.8139  0.5611
  764MOL0     C  726   7.781   7.176   2.168  0.9540 -0.9832  0.0655
  764MOL0     C  727   7.742   7.289   2.270  0.0740 -0.7197 -0.8116
  764MOL0     C  728   7.700   7.250   2.411  0.5825 -0.1719  0.0180
  764MOL0     C  729   7.637   7.369   2.487 -0.3581 -0.6161 -0.0953
  764MOL0     C  730   7.708   7.503   2.458  0.0944 -0.3393 -0.5687
  764MOL0     C  731   7.695   7.612   2.555 -0.4892 -0.5308 -0.8279
  764MOL0     C  732   7.760   7.754   2.521 -0.1667  0.7158  0.3328
  764MOL0     N  733   7.717   7.849   2.614  0.2216  0.1735 -0.5384
  764MOL0     C  734   7.750   7.855   2.749  0.0470 -0.7748 -0.0798
  764MOL0     C  735   7.669   7.952   2.800  0.5227  0.6404 -0.0649
  764MOL0     C  736   7.667   7.997   2.942 -0.5740  0.1117  0.1663
  764MOL0     C  737   7.722   8.144   2.948  0.0531  0.0173 -0.5085
  764MOL0     C  738   7.630   8.268   2.936 -0.6930 -0.5569  0.5175
  764MOL0     C  739   7.695   8.404   2.891 -0.0446 -1.0077 -0.0523
  764MOL0     O  740   7.708   8.406   2.749  0.0018 -0.4797  1.1979
  764MOL0     C  741   7.604   8.445   2.670  0.4223  0.6353  0.4018
  764MOL0     C  742   7.623   8.441   2.525 -0.8148 -0.6826 -0.4522
  764MOL0     C  743   7.519   8.491   2.440  0.3362 -0.3375 -0.8963
  764MOL0     C  744   7.400   8.526   2.488  0.2491  0.5660  0.0559
  764MOL0     C  745   7.298   8.567   2.395 -0.5884 -0.1482  0.2450
  764MOL0     O  746   7.202   8.644   2.449  0.0792  0.3548 -0.7468
  764MOL0     C  747   7.109   8.704   2.372  0.5638 -0.7935  0.3989
  764MOL0     C  748   7.127   8.834   2.314  0.2362  0.6033 -0.4179
  764MOL0     C  749   7.035   8.892   2.227  0.3560  0.3367  0.3171
  764MOL0     C  750   6.914   8.823   2.211 -0.2291 -0.8904 -0.8596
  764MOL0     O  751   6.808   8.851   2.138 -0.0479  0.3475  1.0917
  764MOL0     C  752   6.810   8.962   2.061  0.3430 -1.0461 -0.2439
  764MOL0     C  753   6.674   9.012   2.014  0.1121 -0.0315  0.3244
  764MOL0     C  754   6.659   9.148   1.971 -0.6639 -0.3697 -1.0027
  764MOL0     C  755   6.723   9.162   1.838  0.0070 -0.6874  0.0339
  764MOL0     C  756   6.716   9.303   1.778  0.3939  0.1489  0.2985
  764MOL0     C  757   6.577   9.345   1.717  0.5577  0.3525  0.8595
  764MOL0     C  758   6.574   9.474   1.639 -0.0346 -0.4784  0.5360
  764MOL0     C  759   6.426   9.527   1.600  0.9956  0.6614 -0.1999
  764MOL0    Cl  760   6.432   9.676   1.494  0.8636 -0.0673  0.0780
  764MOL0     C  761   6.887   8.723   2.297 -0.3007  0.0625  0.1395
  764MOL0     C  762   6.976   8.659   2.373 -0.5833 -1.1614 -0.9650
  764MOL0     O  763   7.303   8.537   2.271 -0.1577  0.0669  0.8438
  764MOL0     C  764   7.378   8.520   2.628  0.3587  0.4673  1.0728
  764MOL0     C  765   7.478   8.486   2.713 -0.1336  0.1941 -0.1275
  764MOL0     N  766   7.606   8.010   2.700  1.0048 -0.7066  0.8839
  764MOL0     N  767   7.625   7.945   2.593  0.3557 -0.5341  0.0512
  764MOL0     C  768   8.146   7.056   2.397  0.0152 -0.4634  0.4445
  764MOL0     C  769   8.234   7.024   2.497 -0.6649  0.8501  0.1338
  764MOL0     C  770   8.527   6.826   2.725 -0.0025 -0.4458  1.1217
  764MOL0     C  771   8.640   6.750   2.705  0.0755 -1.0271  0.7107
  764MOL0     C  772   8.736   6.740   2.801 -0.5728 -0.2334  0.5537
  764MOL0     C  773   8.723   6.809   2.923  0.6967  0.3065  0.7642
  764MOL0     O  774   8.821   6.782   3.010  0.5902  0.6978  0.4148
  764MOL0     C  775   8.799   6.852   3.134 -0.9368 -0.2036 -0.7474
  764MOL0     C  776   8.919   6.842   3.235  0.3605  0.0860 -0.0520
  764MOL0     C  777   8.908   6.919   3.361  0.1308 -1.2317 -0.8620
  764MOL0     C  778   8.916   7.079   3.358 -0.1251  0.3284 -0.1043
  764MOL0     C  779   9.037   7.127   3.307  0.2608 -0.4689 -0.1239
  764MOL0     C  780   9.153   7.168   3.275 -0.1898  1.2596  0.2731
  764MOL0     C  781   8.609   6.894   2.943 -0.1725 -0.0426 -0.2905
  764MOL0     C  782   8.508   6.897   2.854  0.1268  0.5731  0.1061
  764MOL0     H  783   8.069   6.766   2.634  2.3379 -0.1673  0.9170
  764MOL0     H  784   7.872   6.856   2.471 -0.9902  2.4580 -0.4502
  764MOL0     H  785   7.958   7.081   2.103 -0.5351  2.6755 -0.6770
  764MOL0     H  786   7.997   7.205   2.217  1.8733 -0.7040  1.4761
  764MOL0     H  787   7.697   7.106   2.173  0.6397 -0.5059  4.0486
  764MOL0     H  788   7.784   7.224   2.069  2.0744 -4.1295 -1.5776
  764MOL0     H  789   7.649   7.328   2.229 -0.4229 -0.8005  0.2139
  764MOL0     H  790   7.809   7.375   2.266 -2.5066  1.6980  2.4285
  764MOL0     H  791   7.635   7.162   2.406 -0.5151  0.6255 -0.1143
  764MOL0     H  792   7.794   7.220   2.459 -0.2687 -2.4860  0.3775
  764MOL0     H  793   7.632   7.346   2.594 -0.2039 -1.5234 -0.2791
  764MOL0     H  794   7.536   7.373   2.444  0.4441 -2.6568 -2.4009
  764MOL0     H  795   7.675   7.552   2.366  1.1946  2.7051  0.5267
  764MOL0     H  796   7.815   7.483   2.451 -0.6104 -4.9307 -1.7786
  764MOL0     H  797   7.589   7.623   2.581 -0.7975 -4.2743  0.0005
  764MOL0     H  798   7.744   7.563   2.639 -1.0634  2.0128  1.1010
  764MOL0     H  799   7.737   7.783   2.418  1.8948  0.2514 -0.2967
  764MOL0     H  800   7.869   7.743   2.525  0.1911  2.9807 -1.2849
  764MOL0     H  801   7.815   7.789   2.806 -0.5722  1.0069  2.9123
  764MOL0     H  802   7.729   7.939   3.011  1.9594  0.7569 -1.4302
  764MOL0     H  803   7.565   7.995   2.981 -0.0658 -2.6365  1.5789
  764MOL0     H  804   7.803   8.149   2.875 -1.1168  0.7633 -1.7944
  764MOL0     H  805   7.762   8.162   3.048 -1.3385  2.0315 -0.2551
  764MOL0     H  806   7.546   8.256   2.866 -0.3573 -0.2287  0.0529
  764MOL0     H  807   7.590   8.279   3.038  0.0252 -0.8056  0.8320
  764MOL0     H  808   7.789   8.408   2.946 -0.9250 -0.1739  1.4774
  764MOL0     H  809   7.640   8.493   2.924 -2.3994 -2.0610 -0.9035
  764MOL0     H  810   7.721   8.409   2.491 -1.3955 -4.1020  0.6984
  764MOL0     H  811   7.538   8.500   2.333  2.2556 -0.3221 -0.5896
  764MOL0     H  812   7.224   8.877   2.335  0.2088  1.4541 -1.8902
  764MOL0     H  813   7.065   8.968   2.155 -0.1308  0.1950 -0.0392
  764MOL0     H  814   6.882   8.941   1.981  0.3180 -1.0052 -0.2774
  764MOL0     H  815   6.865   9.042   2.113 -0.8455  1.9338 -3.2209
  764MOL0     H  816   6.600   8.999   2.094 -2.7557  1.5217 -1.9070
  764MOL0     H  817   6.646   8.946   1.932  3.3873 -0.1281 -0.8640
  764MOL0     H  818   6.696   9.216   2.048  3.4274  0.2953 -3.2604
  764MOL0     H  819   6.552   9.172   1.963 -0.9473 -1.3223 -0.1779
  764MOL0     H  820   6.824   9.119   1.835 -0.5306 -1.9604 -0.9851
  764MOL0     H  821   6.677   9.099   1.762  0.5650 -1.0919  0.0245
  764MOL0     H  822   6.794   9.312   1.702 -1.1517  1.5924 -1.2442
  764MOL0     H  823   6.734   9.373   1.859 -1.1920 -0.0500  0.8633
  764MOL0     H  824   6.505   9.358   1.799 -1.0175  0.8614 -0.5540
  764MOL0     H  825   6.532   9.275   1.646  0.1075  2.3876 -0.9387
  764MOL0     H  826   6.617   9.559   1.693  3.4004 -0.6254 -1.6842
  764MOL0     H  827   6.614   9.462   1.538 -2.8826  1.0174 -0.9084
  764MOL0     H  828   6.371   9.547   1.692  1.6878  0.6834  0.2090
  764MOL0     H  829   6.371   9.449   1.545  1.1445 -0.5550  1.3133
  764MOL0     H  830   6.786   8.683   2.287 -0.4641  0.0003  1.7718
  764MOL0     H  831   6.957   8.573   2.438 -0.0484  1.0180  2.2831
  764MOL0     H  832   7.276   8.533   2.661 -0.3446  3.6786 -1.8954
  764MOL0     H  833   7.459   8.485   2.820  1.5032  1.3660  0.2114
  764MOL0     H  834   8.162   7.137   2.326 -1.4563 -0.8194 -0.3370
  764MOL0     H  835   8.329   7.078   2.496  0.6416 -1.3420  0.0096
  764MOL0     H  836   8.656   6.702   2.608 -0.9834  1.2542 -0.6888
  764MOL0     H  837   8.823   6.677   2.785  0.2576  0.4667  2.1290
  764MOL0     H  838   8.710   6.816   3.187 -0.8609 -1.1027 -1.2049
  764MOL0     H  839   8.806   6.955   3.099  2.8833 -0.1547 -0.2426
  764MOL0     H  840   8.932   6.735   3.257 -1.7255 -0.2624 -0.3104
  764MOL0     H  841   9.010   6.868   3.179 -0.8246 -1.3221 -2.8441
  764MOL0     H  842   8.987   6.893   3.432  1.4319  1.3496 -1.2497
  764MOL0     H  843   8.816   6.891   3.413  0.8459 -0.5588  0.8444
  764MOL0     H  844   8.840   7.127   3.297 -0.0438  0.1730 -0.3308
  764MOL0     H  845   8.908   7.125   3.457  3.2992  3.1935 -0.9441
  764MOL0     H  846   9.250   7.188   3.235 -1.1393  3.3206 -1.1901
  764MOL0     H  847   8.600   6.959   3.028 -1.2865 -1.7162  0.9411
  764MOL0     H  848   8.426   6.964   2.882 -0.4661  0.3944 -1.1346
  765MOL0     O  849   9.524   2.511   9.161  0.0224 -0.3687  0.2876
  765MOL0     C  850   9.548   2.407   9.220  0.9290  0.3632 -1.2235
  765MOL0     O  851   9.652   2.389   9.290 -0.3452 -0.3688 -0.4765
  765MOL0     C  852   9.753   2.479   9.276  0.5575 -0.9859  0.2550
  765MOL0     C  853   9.857   2.464   9.182  0.3529 -0.0926  0.0424
  765MOL0     C  854   9.960   2.562   9.175 -0.0300 -0.3246 -0.0064
  765MOL0     C  855   9.949   2.689   9.243 -0.2825  0.6193  0.6039
  765MOL0     O  856  10.034   2.798   9.226 -0.2659 -0.2517  0.0343
  765MOL0     C  857  10.170   2.765   9.181 -0.3325  0.0748 -0.0717
  765MOL0     C  858  10.263   2.885   9.158  0.6116  0.7755 -0.7359
  765MOL0     C  859  10.406   2.836   9.134  0.4048  1.1909  0.4540
  765MOL0     C  860  10.504   2.947   9.135 -0.6901 -1.2000 -0.0942
  765MOL0     C  861  10.652   2.909   9.161 -0.2210 -0.5992 -1.1019
  765MOL0     C  862  10.677   2.854   9.306  0.3935 -0.5154  0.7840
  765MOL0     C  863  10.825   2.856   9.334  0.3610 -0.3282 -0.9440
  765MOL0     C  864  10.894   2.996   9.357 -1.2111  0.9740  0.9622
  765MOL0     N  865  11.027   2.958   9.419  0.1647  0.3312  0.0272
  765MOL0     C  866  11.100   2.840   9.405  0.7162  0.9622 -0.8710
  765MOL0     C  867  11.226   2.861   9.449 -0.1957 -0.4823 -0.2597
  765MOL0     C  868  11.321   2.751   9.478 -0.5805 -0.5016 -0.5837
  765MOL0     C  869  11.295   2.675   9.612 -0.5914  0.3465 -0.3471
  765MOL0     C  870  11.355   2.736   9.743 -0.1128 -0.2607 -0.0421
  765MOL0     C  871  11.343   2.642   9.854  0.2455  0.6027 -0.2454
  765MOL0     O  872  11.429   2.527   9.829  0.8078 -0.0671 -0.3831
  765MOL0     C  873  11.540   2.520   9.910 -0.3338 -0.5756 -0.9544
  765MOL0     C  874  11.543   2.429  10.014 -0.2072  0.6329 -0.0828
  765MOL0     C  875  11.659   2.391  10.080 -1.4480  1.7698  0.6953
  765MOL0     C  876  11.785   2.441  10.039 -0.3148 -0.1211  0.0532
  765MOL0     C  877  11.907   2.403  10.108 -0.7412  1.0573  0.1135
  765MOL0     O  878  12.015   2.378  10.031  0.2946 -0.0216  0.2548
  765MOL0     C  879  12.120   2.294  10.067  0.0963 -0.3326  0.0064
  765MOL0     C  880  12.117   2.200  10.168 -0.3084  0.5679  0.3378
  765MOL0     C  881  12.245   2.141  10.201  1.0941 -0.5001  0.4368
  765MOL0     C  882  12.363   2.173  10.127  0.1786  0.3516  0.1516
  765MOL0     O  883  12.484   2.114  10.157 -0.6225  0.3426 -0.5056
  765MOL0     C  884  12.539   2.164  10.281 -0.1970  0.3162  0.1838
  765MOL0     C  885  12.680   2.109  10.298  0.9017  0.1211 -0.2961
  765MOL0     C  886  12.682   2.001  10.411 -0.6682  0.1231  0.0385
  765MOL0     C  887  12.642   2.056  10.547  0.2892 -0.1887 -0.1448
  765MOL0     C  888  12.611   1.949  10.636 -0.3958 -0.2989  0.0245
  765MOL0     C  889  12.738   1.887  10.697  0.9844  0.7274 -0.5498
  765MOL0     C  890  12.695   1.782  10.802  0.2038  0.3719 -0.3733
  765MOL0     C  891  12.815   1.746  10.890  0.5011  0.1333  1.0578
  765MOL0    Cl  892  12.793   1.608  10.986  0.0587  0.2806  0.0837
  765MOL0     C  893  12.351   2.266  10.013  0.6927  0.7637  0.2156
  765MOL0     C  894  12.231   2.318   9.991 -0.5639  0.2699 -0.2518
  765MOL0     O  895  11.898   2.386  10.229 -0.3260  1.1973  0.4157
  765MOL0     C  896  11.783   2.552   9.949 -0.8268 -0.4276 -0.8566
  765MOL0     C  897  11.662   2.594   9.881 -0.0708  0.5519 -0.2539
  765MOL0     N  898  11.231   2.993   9.487 -0.3337  0.6470  1.0147
  765MOL0     N  899  11.119   3.047   9.468  0.5379 -0.5044 -0.8386
  765MOL0     C  900   9.836   2.714   9.323 -0.5190  0.1790 -0.1907
  765MOL0     C  901   9.739   2.608   9.342  0.4032 -0.4770  0.4473
  765MOL0     C  902   9.452   2.298   9.196  0.0387 -0.0192 -0.1068
  765MOL0     C  903   9.375   2.279   9.083  0.3092  0.1883  0.0145
  765MOL0     C  904   9.295   2.166   9.071 -1.1631  0.2799 -0.1477
  765MOL0     C  905   9.293   2.069   9.158 -0.3806  0.4926 -0.4325
  765MOL0     O  906   9.200   1.966   9.135  0.2280 -0.3763 -0.1142
  765MOL0     C  907   9.227   1.847   9.207 -0.5213  0.3988 -0.6275
  765MOL0     C  908   9.360   1.774   9.192 -0.7520 -0.0294 -0.1121
  765MOL0     C  909   9.404   1.765   9.049  0.5056 -0.3872  0.3127
  765MOL0     C  910   9.546   1.711   9.030 -0.0521 -1.2995  0.7904
  765MOL0     C  911   9.586   1.595   9.108 -0.5961  0.0723 -0.6722
  765MOL0     C  912   9.640   1.503   9.160 -0.5735 -0.1116  0.3326
  765MOL0     C  913   9.368   2.078   9.278 -0.6240  0.8486 -0.9040
  765MOL0     C  914   9.451   2.190   9.293  0.2718 -0.9731  0.7908
  765MOL0     H  915   9.852   2.375   9.121 -5.2671 -0.8756  1.1316
  765MOL0     H  916  10.035   2.533   9.103  0.4691 -0.5049  0.5819
  765MOL0     H  917  10.158   2.708   9.089  3.2404  1.7421 -1.7550
  765MOL0     H  918  10.221   2.691   9.245  1.1255  0.1709 -1.0774
  765MOL0     H  919  10.263   2.951   9.245  0.1118  2.4511 -1.9438
  765MOL0     H  920  10.226   2.941   9.071  1.9712  1.1078 -1.1235
  765MOL0     H  921  10.417   2.794   9.033  2.1249  2.4849  0.0383
  765MOL0     H  922  10.425   2.765   9.215  0.2673  0.1497 -0.3935
  765MOL0     H  923  10.496   2.991   9.035  0.2986 -2.0715 -0.5711
  765MOL0     H  924  10.460   3.019   9.205  0.7777 -0.0322 -0.3304
  765MOL0     H  925  10.705   3.005   9.161  0.8208 -1.1591 -0.8408
  765MOL0     H  926  10.699   2.845   9.086 -2.1090 -2.4067 -0.8411
  765MOL0     H  927  10.649   2.751   9.328 -4.0514  0.7824  2.2597
  765MOL0     H  928  10.610   2.914   9.368  1.0542  3.5888 -2.0604
  765MOL0     H  929  10.844   2.794   9.422 -0.7398  3.0369  1.8966
  765MOL0     H  930  10.872   2.803   9.250  1.7454  0.9985 -1.0628
  765MOL0     H  931  10.825   3.058   9.413 -1.3043 -0.3058  2.3218
  765MOL0     H  932  10.913   3.046   9.261 -2.6291 -0.2079  0.0335
  765MOL0     H  933  11.045   2.751   9.374 -1.0919  1.5177  0.5980
  765MOL0     H  934  11.422   2.793   9.481  0.4090 -2.5370 -2.4908
  765MOL0     H  935  11.315   2.679   9.396 -0.2246 -0.8771 -0.2910
  765MOL0     H  936  11.337   2.575   9.597  0.0648  0.2384  1.8975
  765MOL0     H  937  11.187   2.676   9.623 -0.5468  0.0401  0.1340
  765MOL0     H  938  11.454   2.781   9.731 -0.5412  0.7100  0.0172
  765MOL0     H  939  11.301   2.829   9.757 -0.1665 -0.3316  0.2290
  765MOL0     H  940  11.239   2.609   9.853  0.7986 -1.6640 -4.3381
  765MOL0     H  941  11.374   2.678   9.953 -0.0364 -2.9173  1.2652
  765MOL0     H  942  11.454   2.382  10.054  0.8672 -1.6064 -0.1584
  765MOL0     H  943  11.641   2.313  10.153 -0.1064  1.1102  0.3474
  765MOL0     H  944  12.027   2.175  10.223  0.8981 -0.0991  2.1110
  765MOL0     H  945  12.262   2.070  10.281  1.6231  0.7167  1.4616
  765MOL0     H  946  12.474   2.129  10.362  3.3366 -1.6742  2.4215
  765MOL0     H  947  12.534   2.273  10.272  2.0595  0.4508  0.0919
  765MOL0     H  948  12.747   2.193  10.319  1.2441 -0.2655  0.1631
  765MOL0     H  949  12.717   2.061  10.207  0.5084  1.3018 -1.1014
  765MOL0     H  950  12.784   1.962  10.410 -0.0237  1.6360  1.9873
  765MOL0     H  951  12.605   1.934  10.370  0.2886 -0.2935 -1.1499
  765MOL0     H  952  12.724   2.126  10.569 -1.5890  2.4010 -0.8649
  765MOL0     H  953  12.559   2.126  10.536  2.6853  2.6059 -2.4634
  765MOL0     H  954  12.550   1.875  10.584  0.1223 -1.2683  0.7633
  765MOL0     H  955  12.545   1.984  10.716 -2.5106  1.3889 -2.3330
  765MOL0     H  956  12.791   1.966  10.751  2.1366 -0.0711 -0.4886
  765MOL0     H  957  12.804   1.843  10.621  3.1512  0.9283  1.1223
  765MOL0     H  958  12.616   1.823  10.865 -2.6673 -1.3839 -2.5678
  765MOL0     H  959  12.651   1.693  10.755  0.1551  0.3696 -0.3239
  765MOL0     H  960  12.833   1.828  10.961 -2.5397 -0.3282  2.5572
  765MOL0     H  961  12.901   1.722  10.827 -1.1076 -1.7991 -0.5468
  765MOL0     H  962  12.436   2.285   9.948 -0.4949  0.8370 -1.3798
  765MOL0     H  963  12.235   2.391   9.911  1.2769 -0.4640 -0.8602
  765MOL0     H  964  11.871   2.611   9.924 -2.3844  3.3780  1.6877
  765MOL0     H  965  11.659   2.672   9.805 -0.6437 -0.6412 -1.4989
  765MOL0     H  966   9.814   2.811   9.367 -0.5815 -0.7683  2.0185
  765MOL0     H  967   9.648   2.629   9.399 -1.3908 -1.1200 -2.0218
  765MOL0     H  968   9.371   2.358   9.009  0.9946  1.7914  1.6113
  765MOL0     H  969   9.225   2.154   8.989  0.7306  1.4004 -2.0116
  765MOL0     H  970   9.151   1.774   9.175 -0.4664 -0.4838  1.1585
  765MOL0     H  971   9.216   1.866   9.314 -2.2682  1.1501 -0.9078
  765MOL0     H  972   9.439   1.817   9.255  0.0983  0.0728 -1.2268
  765MOL0     H  973   9.340   1.675   9.235 -0.5432  0.0795  0.2438
  765MOL0     H  974   9.412   1.867   9.009 -1.1589 -0.9749 -1.7418
  765MOL0     H  975   9.343   1.706   8.980  1.8597  0.6030 -1.8740
  765MOL0     H  976   9.559   1.669   8.930  0.7685 -0.2413  0.4372
  765MOL0     H  977   9.610   1.799   9.039 -0.7244 -0.6600 -0.4331
  765MOL0     H  978   9.704   1.432   9.209  1.4894  0.8663 -0.8009
  765MOL0     H  979   9.374   2.010   9.362  2.0517 -1.8516 -3.0635
  765MOL0     H  980   9.504   2.173   9.386 -2.1447 -1.7325  2.1022
  766MOL0     O  981   6.951  10.446   2.397  0.1376  0.3782 -0.2292
  766MOL0     C  982   6.898  10.348   2.354  0.5983  0.6349 -0.6689
  766MOL0     O  983   6.945  10.255   2.266  0.8332  0.2871 -0.0098
  766MOL0     C  984   7.077  10.225   2.247  0.5600  0.4668 -0.5099
  766MOL0     C  985   7.093  10.101   2.189 -0.2705 -0.6238  0.4046
  766MOL0     C  986   7.213  10.048   2.151 -0.0696  0.0678  0.4301
  766MOL0     C  987   7.320  10.127   2.172 -0.5598  0.3701 -0.3684
  766MOL0     O  988   7.439  10.073   2.131  0.3036  0.0547  0.2382
  766MOL0     C  989   7.563  10.109   2.193  1.0508 -0.4774 -0.3555
  766MOL0     C  990   7.688  10.037   2.141 -1.2842  1.5816  0.3494
  766MOL0     C  991   7.712  10.070   1.991  0.6465 -0.5877 -0.7590
  766MOL0     C  992   7.823   9.994   1.921  0.2599 -0.1498 -0.1711
  766MOL0     C  993   7.833  10.032   1.772 -1.0325 -0.3804  0.1215
  766MOL0     C  994   7.964   9.973   1.718  0.1535  1.0629  0.7535
  766MOL0     C  995   8.089  10.066   1.721  0.0911 -0.3642  0.4530
  766MOL0     C  996   8.210   9.989   1.661  0.8300  0.2172  0.3795
  766MOL0     N  997   8.259   9.879   1.742  0.0594 -0.4951  0.3143
  766MOL0     C  998   8.312   9.888   1.863 -0.0783 -0.7385 -0.0377
  766MOL0     C  999   8.335   9.760   1.909  0.2274  0.6689 -0.7519
  766MOL0     C 1000   8.397   9.731   2.041  0.4310  0.2212  0.1419
  766MOL0     C 1001   8.297   9.747   2.157  0.0796  0.1866 -0.9702
  766MOL0     C 1002   8.299   9.899   2.206 -0.3126  0.2462 -0.1099
  766MOL0     C 1003   8.158   9.955   2.209  0.3327  0.1917 -0.2528
  766MOL0     O 1004   8.155  10.093   2.170  0.4567  0.4806 -0.5633
  766MOL0     C 1005   8.055  10.178   2.219  1.1082  0.3385  0.9079
  766MOL0     C 1006   8.043  10.186   2.360 -0.0683 -0.3744  0.3648
  766MOL0     C 1007   7.932  10.253   2.406 -1.0603 -0.2929 -0.2224
  766MOL0     C 1008   7.841  10.319   2.334 -1.2988 -0.9072  0.5577
  766MOL0     C 1009   7.735  10.399   2.402  0.7877 -0.3025 -0.0046
  766MOL0     O 1010   7.642  10.456   2.327 -0.1776 -0.1715 -0.3748
  766MOL0     C 1011   7.541  10.537   2.375  0.6206 -0.7447  0.1135
  766MOL0     C 1012   7.539  10.670   2.337 -1.2057 -1.3861 -0.7223
  766MOL0     C 1013   7.428  10.749   2.362  0.2402  0.0547  0.0464
  766MOL0     C 1014   7.320  10.695   2.439  0.3739  0.5221  0.4758
  766MOL0     O 1015   7.213  10.780   2.454  0.0765  0.7550 -0.3880
  766MOL0     C 1016   7.082  10.722   2.419 -0.7707 -0.4635  0.2029
  766MOL0     C 1017   6.970  10.824   2.375  0.8305  0.2680  0.4325
  766MOL0     C 1018   6.831  10.760   2.402 -0.0348 -0.3930  1.2015
  766MOL0     C 1019   6.718  10.846   2.354  0.4333  0.1763  0.1944
  766MOL0     C 1020   6.597  10.819   2.455 -1.0542 -0.5734  0.7460
  766MOL0     C 1021   6.508  10.937   2.468  0.4519 -0.4101 -0.5803
  766MOL0     C 1022   6.361  10.882   2.487  0.1503 -0.0146  0.1901
  766MOL0     C 1023   6.265  10.959   2.589  0.3611  0.2675 -0.2306
  766MOL0    Cl 1024   6.114  10.869   2.591 -0.0444 -0.0691 -0.0625
  766MOL0     C 1025   7.323  10.562   2.492 -0.0599  0.4649  0.8361
  766MOL0     C 1026   7.433  10.482   2.452 -0.2357 -0.5043 -0.4944
  766MOL0     O 1027   7.730  10.410   2.524 -0.3332  0.7487  0.4133
  766MOL0     C 1028   7.862  10.322   2.194  1.0044  0.1005 -0.3125
  766MOL0     C 1029   7.963  10.245   2.132  0.8024  0.5900 -0.3711
  766MOL0     N 1030   8.278   9.677   1.816 -0.1678  0.8862  0.8009
  766MOL0     N 1031   8.232   9.751   1.712 -0.0700 -0.3030 -0.6690
  766MOL0     C 1032   7.311  10.255   2.232 -0.5779  0.2405 -1.2295
  766MOL0     C 1033   7.180  10.300   2.274 -1.6222 -0.6920  0.7872
  766MOL0     C 1034   6.744  10.342   2.390  0.0068 -0.2556  0.5401
  766MOL0     C 1035   6.664  10.242   2.337 -0.2976  0.4216 -0.2414
  766MOL0     C 1036   6.530  10.249   2.357  0.6074 -0.3496 -0.2463
  766MOL0     C 1037   6.465  10.351   2.420  0.2155  0.1920 -0.9663
  766MOL0     O 1038   6.323  10.342   2.434 -0.5592  0.1735 -0.4060
  766MOL0     C 1039   6.262  10.423   2.531  0.0463 -0.0383 -0.0227
  766MOL0     C 1040   6.108  10.409   2.513 -0.1808 -0.9723  0.1779
  766MOL0     C 1041   6.041  10.530   2.438  0.4292  0.2195 -0.1341
  766MOL0     C 1042   5.889  10.517   2.454  1.3949 -0.7821 -0.2028
  766MOL0     C 1043   5.849  10.606   2.567 -0.4530  0.2687  0.6568
  766MOL0     C 1044   5.813  10.668   2.666 -0.0663  0.1412  0.3978
  766MOL0     C 1045   6.548  10.449   2.478 -0.4511 -0.2511  0.4494
  766MOL0     C 1046   6.685  10.437   2.473 -1.2058  0.0787  0.7485
  766MOL0     H 1047   7.001  10.046   2.179 -0.1323 -1.4993  3.2857
  766MOL0     H 1048   7.222   9.951   2.104  1.9969  0.5717 -0.3437
  766MOL0     H 1049   7.542  10.100   2.301  2.6085  0.6969  0.0755
  766MOL0     H 1050   7.567  10.216   2.173 -3.7305 -0.2398 -1.2538
  766MOL0     H 1051   7.665   9.931   2.156  0.9659  0.7428 -1.3971
  766MOL0     H 1052   7.779  10.063   2.195  0.3160 -1.3715 -0.6413
  766MOL0     H 1053   7.726  10.178   1.983  2.3642 -0.6860  0.3582
  766MOL0     H 1054   7.612  10.056   1.949 -1.0435  2.6615  1.7541
  766MOL0     H 1055   7.914  10.032   1.969 -0.2790  1.2289 -0.2065
  766MOL0     H 1056   7.796   9.890   1.940 -0.6456  0.4303  1.9694
  766MOL0     H 1057   7.830  10.141   1.761  1.0168 -0.5007 -2.5463
  766MOL0     H 1058   7.750   9.982   1.721 -1.7203  1.0200 -0.1678
  766MOL0     H 1059   7.939   9.943   1.615 -1.8836  0.6334  1.3196
  766MOL0     H 1060   7.983   9.874   1.761 -2.9123 -0.2676 -0.6270
  766MOL0     H 1061   8.085  10.147   1.648  1.3850 -2.5142 -2.1843
  766MOL0     H 1062   8.106  10.100   1.824 -0.3752  0.0036  0.4100
  766MOL0     H 1063   8.289  10.056   1.623  0.3166  0.5620 -0.0896
  766MOL0     H 1064   8.176   9.968   1.560 -1.6157  2.5390  0.6234
  766MOL0     H 1065   8.351   9.977   1.912  0.3887 -1.6209  1.2726
  766MOL0     H 1066   8.474   9.808   2.054 -0.1119  0.5677  1.4169
  766MOL0     H 1067   8.435   9.628   2.047  0.6610  0.2888 -0.1022
  766MOL0     H 1068   8.341   9.708   2.249 -0.2667  3.4545  0.7494
  766MOL0     H 1069   8.199   9.701   2.139 -0.4077  0.0569  1.6246
  766MOL0     H 1070   8.347   9.917   2.302 -1.3884  0.0264  0.4945
  766MOL0     H 1071   8.357   9.964   2.140 -1.6602  1.8316  0.2068
  766MOL0     H 1072   8.117   9.927   2.307 -1.3426 -2.5295 -1.5976
  766MOL0     H 1073   8.099   9.899   2.136  0.0656 -2.2236  1.6438
  766MOL0     H 1074   8.114  10.126   2.417  0.7523 -0.9866 -1.2570
  766MOL0     H 1075   7.908  10.247   2.512 -1.4668 -1.3055 -0.3660
  766MOL0     H 1076   7.624  10.694   2.273 -1.2736 -1.2698 -0.7693
  766MOL0     H 1077   7.412  10.848   2.322 -2.0088 -0.6049 -0.8245
  766MOL0     H 1078   7.043  10.663   2.502  0.4218 -1.1588  0.2810
  766MOL0     H 1079   7.095  10.643   2.345 -0.5544 -1.6099  1.4230
  766MOL0     H 1080   6.986  10.853   2.270  0.6613  0.2589  0.4040
  766MOL0     H 1081   6.970  10.914   2.436 -0.4321 -1.1275  2.6150
  766MOL0     H 1082   6.824  10.752   2.511 -1.1943 -1.8442  1.0413
  766MOL0     H 1083   6.822  10.654   2.377 -1.2293 -0.3456  1.3841
  766MOL0     H 1084   6.749  10.951   2.354  0.8427  0.0572  0.3243
  766MOL0     H 1085   6.690  10.820   2.251  1.4647  0.0710 -0.0639
  766MOL0     H 1086   6.629  10.771   2.547  0.5059 -2.6638 -0.7842
  766MOL0     H 1087   6.550  10.733   2.405  0.0362 -0.9775  0.3930
  766MOL0     H 1088   6.499  10.998   2.378 -1.7144 -1.8503 -1.4513
  766MOL0     H 1089   6.540  10.998   2.553  1.9226 -1.7431 -0.1254
  766MOL0     H 1090   6.307  10.879   2.392 -2.0631 -4.0668  1.3504
  766MOL0     H 1091   6.377  10.786   2.538  3.6741  2.0360  3.5537
  766MOL0     H 1092   6.235  11.062   2.565 -2.0254  0.1214  1.6937
  766MOL0     H 1093   6.308  10.972   2.688 -0.9306 -1.5680  0.6325
  766MOL0     H 1094   7.249  10.512   2.553 -0.3242 -0.2790 -0.0634
  766MOL0     H 1095   7.444  10.380   2.485  1.8637 -0.0604  0.2860
  766MOL0     H 1096   7.789  10.380   2.139  0.4211 -0.6041 -0.3027
  766MOL0     H 1097   7.976  10.236   2.025  0.3486 -1.3158 -0.3104
  766MOL0     H 1098   7.393  10.325   2.239 -1.0436  0.9188 -2.2091
  766MOL0     H 1099   7.167  10.402   2.308 -1.5712 -1.6378  3.9692
  766MOL0     H 1100   6.707  10.154   2.290  1.6824  2.3651 -2.3002
  766MOL0     H 1101   6.467  10.162   2.341 -1.8577  1.0636  1.2954
  766MOL0     H 1102   6.293  10.528   2.537 -3.3193  0.9928  2.5280
  766MOL0     H 1103   6.279  10.366   2.622  1.0729 -0.5906 -0.5413
  766MOL0     H 1104   6.083  10.308   2.480 -2.2838 -0.3324 -0.3411
  766MOL0     H 1105   6.061  10.416   2.611  0.3323  2.8103  0.3099
  766MOL0     H 1106   6.061  10.518   2.332 -2.8400  0.8283 -0.9276
  766MOL0     H 1107   6.069  10.630   2.471 -5.3540  2.4131 -0.6174
  766MOL0     H 1108   5.838  10.555   2.365 -2.7442 -0.4881  2.0590
  766MOL0     H 1109   5.868  10.414   2.485 -1.7955  0.5598  2.7191
  766MOL0     H 1110   5.787  10.723   2.755 -0.2218  0.4482  0.1664
  766MOL0     H 1111   6.522  10.535   2.539 -1.1883 -1.4975  2.0015
  766MOL0     H 1112   6.744  10.514   2.522  0.1191  1.1409 -2.2641
  767MOL0     O 1113   4.010   7.689  11.336 -0.4443  0.2878  0.1137
  767MOL0     C 1114   3.954   7.582  11.305 -0.6616 -0.9459 -0.6711
  767MOL0     O 1115   3.823   7.578  11.261  0.7257 -0.3204 -0.6948
  767MOL0     C 1116   3.764   7.674  11.185 -0.1927 -0.1049 -0.2661
  767MOL0     C 1117   3.622   7.678  11.161 -0.3180  0.5773 -0.3307
  767MOL0     C 1118   3.562   7.756  11.064 -0.3202 -0.0179 -0.5874
  767MOL0     C 1119   3.646   7.847  10.998 -0.6007  0.4566 -0.5415
  767MOL0     O 1120   3.603   7.917  10.889 -0.1763 -0.8022  0.1077
  767MOL0     C 1121   3.546   7.846  10.787 -0.7249  1.6902  1.0531
  767MOL0     C 1122   3.610   7.880  10.660 -1.3488 -0.3929 -0.1716
  767MOL0     C 1123   3.561   7.788  10.551  0.5974 -0.2569  0.9074
  767MOL0     C 1124   3.647   7.828  10.429 -0.2279 -0.1063  0.2615
  767MOL0     C 1125   3.645   7.746  10.293 -0.0363  0.2124 -0.1723
  767MOL0     C 1126   3.508   7.750  10.222 -0.7883  0.5677  0.4631
  767MOL0     C 1127   3.526   7.713  10.077 -0.1444  0.0695  1.2876
  767MOL0     C 1128   3.444   7.589  10.032 -0.5025  1.1005 -0.2123
  767MOL0     N 1129   3.496   7.478  10.104 -0.0486 -0.2462 -0.3029
  767MOL0     C 1130   3.622   7.423  10.084  0.2012 -0.0271 -0.1201
  767MOL0     C 1131   3.637   7.336  10.189 -0.1439  0.3313 -0.4605
  767MOL0     C 1132   3.757   7.267  10.229  0.4281 -0.1276 -0.0244
  767MOL0     C 1133   3.839   7.365  10.309 -0.5502  0.2180 -0.7306
  767MOL0     C 1134   3.958   7.307  10.389  0.6694 -0.3298  0.2889
  767MOL0     C 1135   4.005   7.414  10.480 -0.2374 -0.9456 -0.0516
  767MOL0     O 1136   3.934   7.400  10.602 -0.2688  0.8691 -0.5537
  767MOL0     C 1137   3.971   7.495  10.689  0.1811  0.3577  0.2163
  767MOL0     C 1138   3.909   7.622  10.692  1.4474  0.4591  0.0470
  767MOL0     C 1139   3.966   7.713  10.769  0.9551  0.0727 -0.5685
  767MOL0     C 1140   4.085   7.689  10.844 -1.4395 -1.1717  0.5067
  767MOL0     C 1141   4.162   7.806  10.905  0.7505 -0.3864 -0.2144
  767MOL0     O 1142   4.290   7.772  10.939 -0.2166  0.3605  0.5378
  767MOL0     C 1143   4.377   7.862  11.003  0.8123 -0.4418  0.1916
  767MOL0     C 1144   4.348   7.966  11.091 -0.3495 -0.0119 -0.5052
  767MOL0     C 1145   4.446   8.055  11.137 -0.2412  0.0531 -0.8501
  767MOL0     C 1146   4.582   8.044  11.095  0.8965 -0.3828  0.0979
  767MOL0     O 1147   4.668   8.148  11.122 -0.2642 -0.0005 -0.2026
  767MOL0     C 1148   4.706   8.240  11.013  0.6818  0.4241 -1.3311
  767MOL0     C 1149   4.844   8.286  11.042 -0.2809 -0.6009 -0.3280
  767MOL0     C 1150   4.911   8.355  10.919  0.8476  0.3099 -0.8269
  767MOL0     C 1151   5.050   8.394  10.932 -0.1512  0.9056  0.1270
  767MOL0     C 1152   5.111   8.424  10.793  1.1325 -0.9865 -0.6779
  767MOL0     C 1153   5.243   8.505  10.808 -0.6623 -0.0220 -0.0575
  767MOL0     C 1154   5.353   8.408  10.844  0.2803 -0.0278 -0.5490
  767MOL0     C 1155   5.493   8.467  10.836  0.6173  0.0520 -0.3871
  767MOL0    Cl 1156   5.499   8.615  10.929 -0.2413  0.2868  0.1337
  767MOL0     C 1157   4.614   7.942  11.005  0.0724 -0.0152  0.7373
  767MOL0     C 1158   4.517   7.846  10.973  0.1920  0.3341 -0.0713
  767MOL0     O 1159   4.107   7.910  10.926 -0.2262 -0.2438 -0.6900
  767MOL0     C 1160   4.139   7.556  10.853  0.4094 -1.5945 -0.1706
  767MOL0     C 1161   4.069   7.457  10.781  0.4133 -0.1108  0.3231
  767MOL0     N 1162   3.523   7.345  10.273  0.8617 -0.0084  0.9345
  767MOL0     N 1163   3.445   7.431  10.225 -0.4356  0.4268  0.5415
  767MOL0     C 1164   3.784   7.867  11.026  1.1013  1.2178  0.2944
  767MOL0     C 1165   3.831   7.781  11.119 -0.2276  0.1463 -0.4472
  767MOL0     C 1166   4.008   7.455  11.345  1.2535  1.0511 -0.3745
  767MOL0     C 1167   4.117   7.459  11.427 -0.1202  0.8647  0.0492
  767MOL0     C 1168   4.185   7.346  11.461  0.6188  0.0885 -1.1185
  767MOL0     C 1169   4.140   7.216  11.435 -0.3339 -0.3536  1.0820
  767MOL0     O 1170   4.198   7.099  11.471  0.3469 -0.8377 -0.0005
  767MOL0     C 1171   4.341   7.113  11.514  0.2241  0.3306  1.1001
  767MOL0     C 1172   4.397   6.973  11.563 -0.2490 -1.1420 -0.0917
  767MOL0     C 1173   4.420   6.869  11.450 -0.6623  0.1122 -0.2466
  767MOL0     C 1174   4.540   6.781  11.485 -0.7727 -0.3850  0.5667
  767MOL0     C 1175   4.559   6.665  11.397  0.0600  0.8237  0.0586
  767MOL0     C 1176   4.555   6.558  11.335  0.6139 -1.4976 -0.4484
  767MOL0     C 1177   4.019   7.205  11.361  0.0136 -0.9817 -0.0494
  767MOL0     C 1178   3.957   7.324  11.320  0.7691  0.0024  0.6040
  767MOL0     H 1179   3.563   7.605  11.215 -0.1325 -0.4810 -1.5163
  767MOL0     H 1180   3.462   7.746  11.023 -0.8852  2.0919  0.1578
  767MOL0     H 1181   3.438   7.866  10.787 -1.3698 -1.4259  1.4036
  767MOL0     H 1182   3.556   7.739  10.804  1.4548  1.8170  0.9299
  767MOL0     H 1183   3.718   7.868  10.667 -1.4713 -1.1099  0.5687
  767MOL0     H 1184   3.575   7.980  10.633  0.1589  0.0213 -0.6605
  767MOL0     H 1185   3.453   7.789  10.531  0.2348  3.3250  2.1909
  767MOL0     H 1186   3.586   7.685  10.578 -0.5885 -1.2649 -1.4975
  767MOL0     H 1187   3.613   7.928  10.403  1.9735  0.8693  0.8914
  767MOL0     H 1188   3.751   7.835  10.463 -0.5071  2.4166  0.7644
  767MOL0     H 1189   3.673   7.641  10.306 -2.6699 -1.0187 -3.3529
  767MOL0     H 1190   3.721   7.793  10.230 -0.7539  2.0001  0.2267
  767MOL0     H 1191   3.470   7.853  10.230  2.2427  2.0223 -1.7308
  767MOL0     H 1192   3.442   7.688  10.283  1.4071 -1.3437  1.0457
  767MOL0     H 1193   3.502   7.800  10.016 -0.9398 -0.5654  0.6604
  767MOL0     H 1194   3.628   7.693  10.044 -0.7527 -0.2077 -0.5593
  767MOL0     H 1195   3.451   7.565   9.925 -0.7748 -2.0780  0.3698
  767MOL0     H 1196   3.336   7.600  10.049 -0.7870 -0.3955 -0.8253
  767MOL0     H 1197   3.685   7.448  10.000 -0.8934 -0.7664 -1.2007
  767MOL0     H 1198   3.816   7.231  10.144  3.1153 -0.9768  2.0592
  767MOL0     H 1199   3.734   7.185  10.298  2.2232 -0.5870  0.0774
  767MOL0     H 1200   3.781   7.430  10.375  1.7623 -0.0833  1.7653
  767MOL0     H 1201   3.886   7.430  10.235  3.6162 -2.1856 -0.5173
  767MOL0     H 1202   3.920   7.228  10.455 -3.0522  1.9866  1.1631
  767MOL0     H 1203   4.036   7.266  10.324  0.5228  2.0832 -1.5377
  767MOL0     H 1204   4.017   7.512  10.434  0.7175 -1.7027 -1.5255
  767MOL0     H 1205   4.106   7.379  10.506 -1.4479 -2.8868  2.4475
  767MOL0     H 1206   3.827   7.643  10.623 -0.9843  2.8471  3.3772
  767MOL0     H 1207   3.928   7.815  10.771 -1.1324 -0.6660 -0.4458
  767MOL0     H 1208   4.244   7.979  11.122  0.2176  4.2772  0.3519
  767MOL0     H 1209   4.426   8.129  11.214 -4.4801  0.4676 -2.0978
  767MOL0     H 1210   4.635   8.323  11.012 -3.8899 -3.1085 -1.9419
  767MOL0     H 1211   4.698   8.181  10.921 -0.5918 -0.9281 -0.4105
  767MOL0     H 1212   4.902   8.195  11.058  1.3909  0.4636 -0.0864
  767MOL0     H 1213   4.841   8.354  11.128 -2.4323 -0.7254 -0.2555
  767MOL0     H 1214   4.848   8.436  10.879  0.3013  0.5660  0.5006
  767MOL0     H 1215   4.910   8.275  10.845 -1.4467 -0.4766 -0.0358
  767MOL0     H 1216   5.061   8.474  11.006  1.5842  0.5473  0.3003
  767MOL0     H 1217   5.107   8.311  10.977  0.2599  0.4766 -1.1517
  767MOL0     H 1218   5.043   8.491  10.739 -0.6555 -1.2818  1.1083
  767MOL0     H 1219   5.128   8.334  10.732  0.7353  0.2151 -2.6651
  767MOL0     H 1220   5.238   8.587  10.880 -0.7967 -0.8623  0.8982
  767MOL0     H 1221   5.284   8.544  10.714  5.4811 -0.4265  2.0064
  767MOL0     H 1222   5.339   8.366  10.944 -1.9359  0.0669 -0.7718
  767MOL0     H 1223   5.344   8.322  10.777 -0.7926  1.4387 -2.4101
  767MOL0     H 1224   5.516   8.486  10.731  0.7248  0.5586 -0.2716
  767MOL0     H 1225   5.564   8.392  10.872 -0.2650  0.2994  2.0264
  767MOL0     H 1226   4.712   7.942  10.957 -1.1062  2.9224 -2.0491
  767MOL0     H 1227   4.531   7.762  10.906 -1.0485 -0.9582  1.2205
  767MOL0     H 1228   4.233   7.533  10.903  0.2534 -1.2451  0.2921
  767MOL0     H 1229   4.087   7.350  10.784 -1.7241 -0.8522 -4.1179
  767MOL0     H 1230   3.852   7.942  10.984  3.3468 -1.0937 -0.4532
  767MOL0     H 1231   3.936   7.807  11.129 -0.8721  2.5093  0.6578
  767MOL0     H 1232   4.158   7.551  11.469  1.0017 -0.1752  1.3323
  767MOL0     H 1233   4.275   7.352  11.521 -1.6600 -2.5604  2.9638
  767MOL0     H 1234   4.361   7.190  11.589  1.5758  1.0545  0.0459
  767MOL0     H 1235   4.408   7.150  11.436 -1.5594  0.0572 -0.6135
  767MOL0     H 1236   4.493   6.988  11.615 -1.7754  1.2118  2.3503
  767MOL0     H 1237   4.326   6.937  11.638 -0.9370  1.2384  0.5018
  767MOL0     H 1238   4.440   6.924  11.358 -1.6797 -0.0112 -0.5561
  767MOL0     H 1239   4.337   6.798  11.446 -0.1532 -0.5095 -0.0378
  767MOL0     H 1240   4.627   6.847  11.478 -0.8948 -0.0300  2.1091
  767MOL0     H 1241   4.538   6.739  11.586  2.2273 -1.8920  0.1140
  767MOL0     H 1242   4.547   6.466  11.281 -4.8712 -1.7565  0.1828
  767MOL0     H 1243   3.979   7.113  11.319 -1.1488 -0.1779 -0.7868
  767MOL0     H 1244   3.869   7.315  11.257 -2.0360 -1.1134  4.2924
  768MOL0     O 1245   1.606   0.558   4.710  0.0358  0.0448  0.4577
  768MOL0     C 1246   1.648   0.491   4.805 -0.3559 -0.4933  0.2958
  768MOL0     O 1247   1.601   0.507   4.933 -0.3058  0.2096 -0.7030
  768MOL0     C 1248   1.509   0.614   4.962 -1.3630 -0.3748 -0.0949
  768MOL0     C 1249   1.531   0.751   4.926 -0.2635 -0.1763 -0.0898
  768MOL0     C 1250   1.431   0.849   4.955 -0.2885  0.6897 -0.0749
  768MOL0     C 1251   1.317   0.810   5.018 -0.1972  0.4558 -0.6946
  768MOL0     O 1252   1.204   0.885   5.040 -0.5630  0.1607  0.4385
  768MOL0     C 1253   1.194   1.018   4.995  1.7383  0.7100 -0.2777
  768MOL0     C 1254   1.069   1.092   5.047 -1.4847  0.2876  0.2429
  768MOL0     C 1255   0.954   1.051   4.960 -0.0981  0.3827 -0.6181
  768MOL0     C 1256   0.830   1.040   5.049 -0.1263 -0.4806 -0.2933
  768MOL0     C 1257   0.698   1.047   4.954  0.6599 -0.4230  0.5632
  768MOL0     C 1258   0.670   0.906   4.901  0.8975 -0.5165 -1.1132
  768MOL0     C 1259   0.555   0.899   4.799  0.3788  0.9548  0.0083
  768MOL0     C 1260   0.553   0.767   4.725  0.1609 -0.2152 -0.1077
  768MOL0     N 1261   0.433   0.747   4.645  0.2744  0.2614 -0.4029
  768MOL0     C 1262   0.298   0.700   4.684 -0.6740  0.0002 -0.1896
  768MOL0     C 1263   0.227   0.713   4.577 -1.0966 -0.3530 -1.0625
  768MOL0     C 1264   0.081   0.698   4.547 -0.0979  0.2902 -0.3409
  768MOL0     C 1265   0.000   0.664   4.672  1.4163 -0.1721  0.6142
  768MOL0     C 1266  -0.146   0.649   4.620 -0.8668  0.1925  0.4968
  768MOL0     C 1267  -0.264   0.615   4.705 -0.6891 -0.3328  0.1630
  768MOL0     O 1268  -0.247   0.479   4.750 -0.2668 -0.2371 -0.1063
  768MOL0     C 1269  -0.349   0.403   4.734  0.3382  0.2722 -0.1904
  768MOL0     C 1270  -0.443   0.406   4.836  0.7937  0.7587  0.4839
  768MOL0     C 1271  -0.574   0.345   4.805 -0.4124 -0.1734  0.3506
  768MOL0     C 1272  -0.599   0.282   4.672 -0.2435  0.2750 -0.4893
  768MOL0     C 1273  -0.730   0.213   4.648  0.3343 -0.0632 -0.4541
  768MOL0     O 1274  -0.813   0.186   4.765  0.5537  0.2507  0.3921
  768MOL0     C 1275  -0.906   0.087   4.756 -0.0508 -0.7816  0.0273
  768MOL0     C 1276  -0.867  -0.051   4.771 -0.1114  0.3453 -1.3845
  768MOL0     C 1277  -0.968  -0.146   4.773 -0.2723  0.5227 -0.3968
  768MOL0     C 1278  -1.107  -0.108   4.754 -0.7532  0.1859  0.5415
  768MOL0     O 1279  -1.197  -0.205   4.768  0.1039 -0.0865  0.3269
  768MOL0     C 1280  -1.341  -0.189   4.757  0.2195 -0.1347  0.6496
  768MOL0     C 1281  -1.429  -0.312   4.749 -0.2022  0.1234  0.4821
  768MOL0     C 1282  -1.447  -0.402   4.878 -0.6777 -0.1613 -0.4365
  768MOL0     C 1283  -1.521  -0.528   4.849  0.8537 -0.0650 -0.9200
  768MOL0     C 1284  -1.635  -0.555   4.953  0.3952 -0.3084  0.1557
  768MOL0     C 1285  -1.597  -0.528   5.098  0.5010  1.3578 -0.2361
  768MOL0     C 1286  -1.687  -0.608   5.198 -0.1614  0.1492  0.1117
  768MOL0     C 1287  -1.669  -0.766   5.183 -0.3109  0.1798 -0.4231
  768MOL0    Cl 1288  -1.684  -0.861   5.336  0.0134  0.1158 -0.0182
  768MOL0     C 1289  -1.140   0.019   4.751 -0.3569  0.2205  0.8276
  768MOL0     C 1290  -1.037   0.122   4.750 -0.1334 -0.0007  0.5170
  768MOL0     O 1291  -0.770   0.183   4.534  0.2757 -0.1631  0.0739
  768MOL0     C 1292  -0.497   0.273   4.575  0.3836 -0.1744 -0.1846
  768MOL0     C 1293  -0.377   0.348   4.605  0.0699 -0.2615  0.7842
  768MOL0     N 1294   0.308   0.753   4.476 -0.5177 -0.0353  0.3461
  768MOL0     N 1295   0.433   0.770   4.518  0.0190 -0.9848  0.6675
  768MOL0     C 1296   1.305   0.677   5.056  0.3975 -0.3916 -1.0347
  768MOL0     C 1297   1.395   0.574   5.036  0.5086 -0.4446  0.3481
  768MOL0     C 1298   1.756   0.392   4.780  0.8419  1.6099 -0.4453
  768MOL0     C 1299   1.830   0.327   4.885  0.8826 -0.4964 -0.4145
  768MOL0     C 1300   1.942   0.253   4.856  0.4619  0.4683  0.5419
  768MOL0     C 1301   1.987   0.222   4.720 -0.2412 -0.9898 -0.9596
  768MOL0     O 1302   2.094   0.141   4.702 -0.3377 -0.7149 -1.0294
  768MOL0     C 1303   2.150   0.121   4.576  1.2437  0.2480 -0.1538
  768MOL0     C 1304   2.236   0.001   4.584  0.5597  0.2440  0.9378
  768MOL0     C 1305   2.151  -0.127   4.587  0.1180 -0.1576 -0.1476
  768MOL0     C 1306   2.230  -0.260   4.610 -0.0410 -0.0425 -0.1289
  768MOL0     C 1307   2.345  -0.268   4.520  0.1747 -0.3019  0.3656
  768MOL0     C 1308   2.426  -0.289   4.433 -0.8058 -0.0004 -0.1088
  768MOL0     C 1309   1.902   0.273   4.615  0.8604 -0.6629  0.7739
  768MOL0     C 1310   1.790   0.352   4.648  1.1438 -0.3849 -0.3442
  768MOL0     H 1311   1.617   0.784   4.869  0.5405 -1.2578  0.4795
  768MOL0     H 1312   1.461   0.951   4.936 -0.7898  0.3804 -2.8790
  768MOL0     H 1313   1.190   1.015   4.886 -1.0132 -4.2166 -0.3639
  768MOL0     H 1314   1.286   1.072   5.021 -0.3595  4.0752  0.7831
  768MOL0     H 1315   1.082   1.200   5.038  2.6707  0.1133  1.9265
  768MOL0     H 1316   1.066   1.061   5.152 -0.5514 -2.0913 -0.3597
  768MOL0     H 1317   0.968   0.952   4.915  1.2337 -1.4357  3.3412
  768MOL0     H 1318   0.938   1.124   4.879 -2.6487 -0.2605 -0.7489
  768MOL0     H 1319   0.817   0.944   5.100  0.9706 -0.6550 -0.3138
  768MOL0     H 1320   0.829   1.117   5.126  1.7292  0.2749 -0.9494
  768MOL0     H 1321   0.713   1.117   4.871 -4.4706  1.0977  0.5678
  768MOL0     H 1322   0.613   1.091   5.008 -1.1752 -4.5443  1.3819
  768MOL0     H 1323   0.656   0.837   4.985 -1.4917  0.4116 -0.6795
  768MOL0     H 1324   0.767   0.882   4.856  2.6456  3.4193  0.0938
  768MOL0     H 1325   0.451   0.905   4.831  0.7945  2.1329  1.2524
  768MOL0     H 1326   0.580   0.989   4.742  0.2716  1.9295  1.4551
  768MOL0     H 1327   0.573   0.687   4.797  1.4494  1.4997  1.5416
  768MOL0     H 1328   0.629   0.775   4.646  0.9022 -1.7137  0.4115
  768MOL0     H 1329   0.261   0.661   4.779  2.8858  1.3837  1.9734
  768MOL0     H 1330   0.077   0.609   4.483  3.2203 -0.3584  0.1368
  768MOL0     H 1331   0.046   0.779   4.484 -0.9464 -1.6946 -2.5768
  768MOL0     H 1332  -0.004   0.740   4.750  2.8268  0.2055  0.3551
  768MOL0     H 1333   0.033   0.579   4.733  2.1939  1.6497  2.9086
  768MOL0     H 1334  -0.171   0.748   4.579  2.1467  0.9440  0.2313
  768MOL0     H 1335  -0.152   0.576   4.538 -1.6392  2.9694 -2.1127
  768MOL0     H 1336  -0.354   0.638   4.647  0.6778  2.3049 -1.1118
  768MOL0     H 1337  -0.269   0.681   4.792 -3.3480  0.6299 -0.6203
  768MOL0     H 1338  -0.431   0.457   4.930 -1.2250  1.0447  0.6379
  768MOL0     H 1339  -0.652   0.370   4.876 -2.5249  1.0178 -2.2286
  768MOL0     H 1340  -0.764  -0.080   4.785  0.2868  2.4621  0.8190
  768MOL0     H 1341  -0.960  -0.252   4.796  0.7597  0.3005 -1.6630
  768MOL0     H 1342  -1.357  -0.141   4.660 -3.0399 -1.5504  0.3621
  768MOL0     H 1343  -1.384  -0.124   4.834  0.5493 -0.1277  0.8317
  768MOL0     H 1344  -1.384  -0.371   4.669  1.9187  0.3923  1.3979
  768MOL0     H 1345  -1.531  -0.280   4.728 -0.0663  0.8699  0.9082
  768MOL0     H 1346  -1.490  -0.336   4.953  3.2123  1.7076  0.4200
  768MOL0     H 1347  -1.346  -0.427   4.914 -1.5164 -0.7563  1.6395
  768MOL0     H 1348  -1.560  -0.548   4.748  0.2626 -0.9747 -0.5267
  768MOL0     H 1349  -1.453  -0.609   4.873 -3.1226 -3.0321  1.5828
  768MOL0     H 1350  -1.675  -0.657   4.947 -1.0539 -0.0485  3.4438
  768MOL0     H 1351  -1.717  -0.489   4.924  1.8719  1.3325 -0.4399
  768MOL0     H 1352  -1.610  -0.424   5.128  1.5181  1.6032 -0.6076
  768MOL0     H 1353  -1.499  -0.563   5.131 -0.0028  0.9681  0.9071
  768MOL0     H 1354  -1.663  -0.583   5.302 -2.0858 -0.6868  0.8063
  768MOL0     H 1355  -1.793  -0.595   5.176 -0.2952  0.0057  0.6633
  768MOL0     H 1356  -1.568  -0.792   5.151  0.1852  0.2794  0.9979
  768MOL0     H 1357  -1.735  -0.809   5.107 -1.0524  0.1483  0.2316
  768MOL0     H 1358  -1.242   0.055   4.763  0.1611  1.1657  2.7018
  768MOL0     H 1359  -1.080   0.221   4.740  2.5173  1.2079  0.2152
  768MOL0     H 1360  -0.519   0.239   4.475 -0.7796  1.3401 -0.4887
  768MOL0     H 1361  -0.299   0.373   4.533 -0.4718  1.2741  0.6989
  768MOL0     H 1362   1.211   0.641   5.098  1.4999 -0.8759  1.1454
  768MOL0     H 1363   1.379   0.476   5.079 -1.4025  0.1488  1.1103
  768MOL0     H 1364   1.806   0.352   4.988 -0.0112 -0.3846 -0.6459
  768MOL0     H 1365   2.005   0.203   4.929  0.2221 -1.7262 -0.6704
  768MOL0     H 1366   2.214   0.206   4.550  0.4136  1.1133  0.5221
  768MOL0     H 1367   2.076   0.112   4.496 -0.6399 -1.7629  1.6564
  768MOL0     H 1368   2.301   0.004   4.496  1.3483  0.9426  1.5371
  768MOL0     H 1369   2.299   0.004   4.673  1.2070 -0.0479  0.4977
  768MOL0     H 1370   2.111  -0.132   4.485  3.1282  0.3419 -1.4699
  768MOL0     H 1371   2.077  -0.122   4.667 -1.7088 -0.3145 -1.7503
  768MOL0     H 1372   2.266  -0.272   4.712  3.1302 -3.2118 -1.4239
  768MOL0     H 1373   2.181  -0.357   4.596 -2.4576  1.3471 -2.1748
  768MOL0     H 1374   2.502  -0.309   4.360  2.3939  0.3513  2.8526
  768MOL0     H 1375   1.928   0.273   4.510  2.7085  2.9671  1.0747
  768MOL0     H 1376   1.745   0.404   4.564  3.2925 -0.1940 -1.4574
  769MOL0     O 1377   0.280   3.328   7.340 -0.2502  0.3152  0.5421
  769MOL0     C 1378   0.280   3.426   7.261  0.0881  1.5148  0.3836
  769MOL0     O 1379   0.376   3.436   7.167  0.5737  0.3121 -0.1436
  769MOL0     C 1380   0.460   3.334   7.142 -0.3068 -0.0097 -0.1045
  769MOL0     C 1381   0.416   3.226   7.057  0.4281  0.4297 -0.7508
  769MOL0     C 1382   0.503   3.124   7.013  0.0874  0.5305 -0.6485
  769MOL0     C 1383   0.633   3.130   7.056 -0.3183 -0.2405  0.2364
  769MOL0     O 1384   0.715   3.024   7.019  0.5894 -0.4308  0.2075
  769MOL0     C 1385   0.829   3.070   6.947  0.0471 -0.6546  0.4986
  769MOL0     C 1386   0.867   2.968   6.838  0.4943 -0.5059  0.0079
  769MOL0     C 1387   0.809   2.995   6.704 -0.0253 -0.4962 -0.2246
  769MOL0     C 1388   0.847   2.881   6.607  0.3414 -0.3991  0.2892
  769MOL0     C 1389   0.990   2.899   6.550  0.0828  0.9911  0.1152
  769MOL0     C 1390   0.999   3.001   6.441 -0.4024  0.3498 -0.6310
  769MOL0     C 1391   1.095   2.975   6.334  0.4926 -0.3458 -0.1423
  769MOL0     C 1392   1.051   2.873   6.229  0.6084 -0.1744  0.2954
  769MOL0     N 1393   1.138   2.858   6.118  0.0532  0.2265  0.0759
  769MOL0     C 1394   1.191   2.954   6.040  0.1371 -0.0848  0.1445
  769MOL0     C 1395   1.232   2.901   5.927  0.0899 -0.2883  0.1690
  769MOL0     C 1396   1.264   2.984   5.802 -0.0314  0.0527 -0.2708
  769MOL0     C 1397   1.407   2.966   5.749  0.4365  0.0369 -0.5436
  769MOL0     C 1398   1.431   2.848   5.658 -0.8901  0.1205 -0.2865
  769MOL0     C 1399   1.571   2.829   5.614 -0.9048 -0.1481  1.2960
  769MOL0     O 1400   1.662   2.782   5.711  0.0522 -0.6464  1.6080
  769MOL0     C 1401   1.793   2.838   5.720  0.0907 -0.1103  0.6716
  769MOL0     C 1402   1.841   2.865   5.849 -0.1130 -0.2419 -0.1592
  769MOL0     C 1403   1.968   2.927   5.862 -0.7233  0.2332  0.5232
  769MOL0     C 1404   2.047   2.961   5.755  0.5180  0.5357  0.3101
  769MOL0     C 1405   2.172   3.036   5.782 -0.1125 -0.4811 -0.1511
  769MOL0     O 1406   2.253   3.066   5.669 -0.3741 -0.5086 -0.2289
  769MOL0     C 1407   2.382   3.118   5.680 -0.9817  0.2174  0.4377
  769MOL0     C 1408   2.434   3.185   5.564 -0.2643  0.1816  0.2614
  769MOL0     C 1409   2.567   3.232   5.555  1.0368  0.2051 -0.0658
  769MOL0     C 1410   2.653   3.217   5.664 -0.7519 -0.7016 -0.1328
  769MOL0     O 1411   2.788   3.244   5.669  0.5902  0.0685 -0.5416
  769MOL0     C 1412   2.830   3.362   5.604  0.6631 -0.0215 -0.0487
  769MOL0     C 1413   2.974   3.387   5.619 -0.7719  0.3944  0.4289
  769MOL0     C 1414   3.058   3.288   5.709 -0.3770  0.7404  0.1878
  769MOL0     C 1415   3.200   3.338   5.736  0.7146  0.8389  0.1718
  769MOL0     C 1416   3.220   3.437   5.849 -0.2003 -0.1959 -0.1789
  769MOL0     C 1417   3.372   3.443   5.893 -0.5921  0.0425 -0.2330
  769MOL0     C 1418   3.412   3.494   6.028 -0.0642 -0.1327 -0.1040
  769MOL0     C 1419   3.353   3.634   6.067 -0.3153 -0.0955  1.0833
  769MOL0    Cl 1420   3.423   3.753   5.948 -0.7880 -0.1129 -0.1498
  769MOL0     C 1421   2.609   3.153   5.776  0.6838  0.4860 -0.2561
  769MOL0     C 1422   2.475   3.104   5.787 -0.6097 -0.0369 -0.4169
  769MOL0     O 1423   2.200   3.080   5.892 -0.4891  0.6536 -0.2170
  769MOL0     C 1424   2.004   2.932   5.628  0.7592  0.5590  0.2752
  769MOL0     C 1425   1.881   2.859   5.612 -0.7889  0.2108  1.2069
  769MOL0     N 1426   1.217   2.762   5.940 -0.2809  0.1091 -0.0491
  769MOL0     N 1427   1.175   2.738   6.056 -0.8188 -0.2852 -1.2760
  769MOL0     C 1428   0.676   3.235   7.144  0.3199 -0.3263  0.1566
  769MOL0     C 1429   0.590   3.340   7.184 -0.0425  0.5769  0.1957
  769MOL0     C 1430   0.178   3.529   7.275 -0.9004 -0.5201 -0.2279
  769MOL0     C 1431   0.114   3.547   7.399  0.7447  0.9058 -0.5573
  769MOL0     C 1432   0.012   3.642   7.411  0.0714  0.0472  0.1794
  769MOL0     C 1433  -0.023   3.726   7.303 -0.2887 -0.8643 -0.6605
  769MOL0     O 1434  -0.119   3.826   7.302  0.0919 -0.4843 -0.0727
  769MOL0     C 1435  -0.176   3.883   7.423 -0.3414  0.2485 -0.9933
  769MOL0     C 1436  -0.294   3.977   7.375  0.0092 -0.0245 -0.5721
  769MOL0     C 1437  -0.247   4.090   7.278  1.0794 -0.8567 -0.4296
  769MOL0     C 1438  -0.160   4.192   7.345 -0.2619 -0.2137  0.8918
  769MOL0     C 1439  -0.140   4.313   7.267 -0.0002  1.3239 -0.1334
  769MOL0     C 1440  -0.110   4.402   7.187  0.2365  0.2328  0.7612
  769MOL0     C 1441   0.057   3.718   7.189  1.4838  0.5291  0.3253
  769MOL0     C 1442   0.159   3.628   7.177 -0.6567 -0.2623  0.4834
  769MOL0     H 1443   0.311   3.238   7.032 -0.0775 -2.7601 -0.6231
  769MOL0     H 1444   0.467   3.035   6.963 -0.7327  0.7588 -0.4785
  769MOL0     H 1445   0.904   3.064   7.026 -2.7165 -0.0270  3.3629
  769MOL0     H 1446   0.827   3.167   6.896 -3.3448 -0.7428  0.2401
  769MOL0     H 1447   0.825   2.871   6.866  0.7898 -1.0596 -1.3771
  769MOL0     H 1448   0.974   2.948   6.822  0.0655 -3.1748 -0.0577
  769MOL0     H 1449   0.854   3.090   6.677 -4.2082  2.4290  2.0506
  769MOL0     H 1450   0.701   3.010   6.705  0.2286  2.0761 -2.1013
  769MOL0     H 1451   0.853   2.780   6.651 -3.4194 -1.1901 -0.6828
  769MOL0     H 1452   0.770   2.871   6.531 -0.0712  0.4376  0.5872
  769MOL0     H 1453   1.018   2.799   6.516 -4.1665 -0.5064  0.4059
  769MOL0     H 1454   1.063   2.928   6.626 -0.3745  2.9681 -0.1263
  769MOL0     H 1455   1.015   3.094   6.496 -1.0482 -1.2600  2.5574
  769MOL0     H 1456   0.900   3.002   6.394 -1.5678 -2.6270  1.4222
  769MOL0     H 1457   1.128   3.067   6.286 -1.3048  1.6996  2.2741
  769MOL0     H 1458   1.189   2.942   6.380 -0.6428 -1.3245  1.5941
  769MOL0     H 1459   0.950   2.905   6.199 -0.8318 -3.6038  1.0309
  769MOL0     H 1460   1.039   2.780   6.285  2.0614  0.7022  2.1630
  769MOL0     H 1461   1.193   3.062   6.047  0.5466 -0.2012  2.3142
  769MOL0     H 1462   1.259   3.088   5.837  0.2757  0.1625 -0.5485
  769MOL0     H 1463   1.192   2.963   5.723  0.7369 -3.5776 -0.2107
  769MOL0     H 1464   1.485   2.962   5.825  0.8957  1.4675 -0.9093
  769MOL0     H 1465   1.434   3.046   5.680  2.4674 -1.6680 -1.8519
  769MOL0     H 1466   1.397   2.759   5.712 -0.9397 -1.2766 -2.4902
  769MOL0     H 1467   1.370   2.864   5.569 -1.1514 -0.5196 -0.2295
  769MOL0     H 1468   1.617   2.916   5.566  0.0132 -2.6698 -2.9992
  769MOL0     H 1469   1.568   2.757   5.532 -0.7614  1.8620 -0.5671
  769MOL0     H 1470   1.785   2.842   5.939 -1.7582 -0.4742 -1.1997
  769MOL0     H 1471   1.998   2.952   5.963  3.4117  0.5143 -0.5795
  769MOL0     H 1472   2.363   3.190   5.482 -0.9778 -0.8839  0.7859
  769MOL0     H 1473   2.603   3.274   5.462  1.6845 -0.3079 -0.0545
  769MOL0     H 1474   2.780   3.450   5.645 -0.5982 -0.1171 -1.2926
  769MOL0     H 1475   2.804   3.349   5.498 -1.0998 -0.5872  0.4321
  769MOL0     H 1476   2.994   3.482   5.669 -0.6297  1.8190 -2.1603
  769MOL0     H 1477   3.014   3.402   5.519  0.1751 -3.7658  0.0095
  769MOL0     H 1478   3.057   3.189   5.663 -0.1943  1.1440 -0.7113
  769MOL0     H 1479   3.004   3.265   5.801 -1.2393 -1.6405 -0.8511
  769MOL0     H 1480   3.251   3.244   5.759  2.3162  2.1684  2.5868
  769MOL0     H 1481   3.240   3.383   5.645  0.7488  0.1320 -0.1675
  769MOL0     H 1482   3.163   3.409   5.937 -0.3275 -1.4227 -0.6251
  769MOL0     H 1483   3.175   3.527   5.807  0.9599  0.5742  0.1606
  769MOL0     H 1484   3.429   3.504   5.822  2.2157 -0.3739  1.5106
  769MOL0     H 1485   3.419   3.344   5.891  2.4228  1.3732 -0.7075
  769MOL0     H 1486   3.378   3.416   6.096  0.2234 -1.4633 -1.4432
  769MOL0     H 1487   3.519   3.502   6.046 -0.0696 -0.4713  0.0878
  769MOL0     H 1488   3.399   3.664   6.162 -0.8415  2.8991  0.5045
  769MOL0     H 1489   3.245   3.635   6.084 -1.1767  1.8853 -3.1263
  769MOL0     H 1490   2.683   3.122   5.849 -1.3168 -0.6315  1.3960
  769MOL0     H 1491   2.444   3.047   5.874 -1.8924  0.9434 -0.2056
  769MOL0     H 1492   2.071   2.972   5.553  3.1183  0.1014  2.0096
  769MOL0     H 1493   1.849   2.835   5.512 -0.0336  1.0680  0.7466
  769MOL0     H 1494   0.783   3.247   7.159  0.1582  0.3458  0.8422
  769MOL0     H 1495   0.614   3.416   7.258 -2.4539  0.2818  1.3893
  769MOL0     H 1496   0.121   3.486   7.488  2.6615  1.7749 -0.0744
  769MOL0     H 1497  -0.029   3.657   7.510  0.3244  0.5804  0.2045
  769MOL0     H 1498  -0.099   3.950   7.462 -0.1870 -0.6587  0.3145
  769MOL0     H 1499  -0.208   3.808   7.496  0.7522 -0.8316 -1.5941
  769MOL0     H 1500  -0.376   3.915   7.338 -0.1923 -0.9264  1.2803
  769MOL0     H 1501  -0.330   4.018   7.469 -3.9969 -2.5952 -0.7488
  769MOL0     H 1502  -0.339   4.141   7.247  1.3235  0.7397  1.2443
  769MOL0     H 1503  -0.195   4.042   7.195  2.1953 -0.4370  0.0023
  769MOL0     H 1504  -0.215   4.215   7.437 -1.1073 -3.3872  1.3074
  769MOL0     H 1505  -0.066   4.141   7.369 -0.6052 -0.6730  1.2586
  769MOL0     H 1506  -0.073   4.477   7.120  0.4841 -0.9961 -0.5288
  769MOL0     H 1507   0.024   3.788   7.113 -0.2354  1.2020  1.6234
  769MOL0     H 1508   0.213   3.624   7.083 -2.7738 -2.1372 -0.7422
  770MOL0     O 1509   6.222   0.440   5.342 -0.1284 -0.2224  0.8935
  770MOL0     C 1510   6.191   0.557   5.355 -0.0216  0.8158  0.0685
  770MOL0     O 1511   6.232   0.641   5.456  0.3075  0.3840  0.3526
  770MOL0     C 1512   6.361   0.627   5.497  0.0724 -0.1128 -0.7951
  770MOL0     C 1513   6.388   0.523   5.585  0.8015 -0.4382  0.2406
  770MOL0     C 1514   6.516   0.531   5.651 -0.7825  0.4083  0.4074
  770MOL0     C 1515   6.619   0.622   5.613 -0.6345 -0.3376 -0.0564
  770MOL0     O 1516   6.737   0.643   5.687  0.6566  0.2962 -0.0625
  770MOL0     C 1517   6.705   0.718   5.807 -0.0566  0.0122  1.3750
  770MOL0     C 1518   6.821   0.794   5.857 -0.0170 -1.3367  1.1015
  770MOL0     C 1519   6.902   0.867   5.748  0.0444 -0.2814  0.5108
  770MOL0     C 1520   6.978   0.987   5.808 -0.2384  0.1635  0.4345
  770MOL0     C 1521   7.075   1.058   5.713 -0.3468 -0.0451  0.2696
  770MOL0     C 1522   7.157   1.157   5.782 -0.0526 -0.9540 -0.6391
  770MOL0     C 1523   7.259   1.205   5.679 -0.0849 -0.3183  0.5690
  770MOL0     C 1524   7.359   1.310   5.743  0.2989 -0.1899  0.1532
  770MOL0     N 1525   7.462   1.359   5.659  0.0546  0.0404  1.0514
  770MOL0     C 1526   7.425   1.428   5.542  0.2045 -0.2465 -0.0981
  770MOL0     C 1527   7.543   1.442   5.479 -0.9968 -0.1018 -0.7506
  770MOL0     C 1528   7.570   1.510   5.339  1.3588  0.3839 -0.2502
  770MOL0     C 1529   7.448   1.570   5.273  0.2767  0.1693 -0.2516
  770MOL0     C 1530   7.349   1.475   5.198 -0.1412 -0.3637 -0.1879
  770MOL0     C 1531   7.207   1.545   5.205  0.4911 -0.1221  0.7452
  770MOL0     O 1532   7.095   1.471   5.181  0.7747  0.8912 -0.6003
  770MOL0     C 1533   6.966   1.529   5.185 -0.1930  0.3990 -0.0993
  770MOL0     C 1534   6.944   1.662   5.216  0.3730 -1.0152  0.8586
  770MOL0     C 1535   6.812   1.706   5.230 -0.0554  0.3892 -0.5432
  770MOL0     C 1536   6.708   1.607   5.214  0.9058  0.7353  1.0191
  770MOL0     C 1537   6.574   1.645   5.262 -0.1303  0.2722  0.4897
  770MOL0     O 1538   6.530   1.778   5.254  0.1515 -0.3664  0.1392
  770MOL0     C 1539   6.412   1.805   5.316  0.4080 -0.9696  0.2785
  770MOL0     C 1540   6.325   1.886   5.249 -0.0937 -0.4226 -0.0244
  770MOL0     C 1541   6.195   1.909   5.300 -0.0671  0.1384  0.1183
  770MOL0     C 1542   6.157   1.860   5.423 -0.3397 -0.1805  0.1744
  770MOL0     O 1543   6.027   1.879   5.454  0.2182  0.4634 -0.8874
  770MOL0     C 1544   5.964   1.830   5.573 -0.1587  0.2352  0.7790
  770MOL0     C 1545   5.817   1.878   5.571 -0.2348  0.6260  0.1873
  770MOL0     C 1546   5.793   2.020   5.629  0.0810  0.0503 -0.3713
  770MOL0     C 1547   5.827   2.142   5.548  0.3875  0.4309 -1.3083
  770MOL0     C 1548   5.730   2.262   5.575  0.5447  0.7825 -0.6471
  770MOL0     C 1549   5.708   2.359   5.464 -0.0664 -0.3429  0.6096
  770MOL0     C 1550   5.848   2.400   5.399  0.4552  0.1692 -0.1512
  770MOL0     C 1551   5.815   2.511   5.306 -0.4102 -0.2441 -0.0774
  770MOL0    Cl 1552   5.973   2.592   5.265 -0.0614 -0.5655  0.0162
  770MOL0     C 1553   6.249   1.781   5.494  0.3363 -0.4132  0.2412
  770MOL0     C 1554   6.377   1.753   5.442 -0.2308  1.5967  0.6651
  770MOL0     O 1555   6.512   1.553   5.301  0.7741  0.2173 -0.3512
  770MOL0     C 1556   6.726   1.484   5.166 -0.1123  0.5528 -0.1933
  770MOL0     C 1557   6.858   1.441   5.168 -0.1781 -0.3271 -0.0272
  770MOL0     N 1558   7.643   1.382   5.555 -0.1197  1.0687 -0.7861
  770MOL0     N 1559   7.593   1.335   5.661 -0.5713 -0.0550 -0.5469
  770MOL0     C 1560   6.591   0.714   5.512  0.5980  0.0694 -0.8628
  770MOL0     C 1561   6.467   0.707   5.452  0.4010 -0.0485 -0.5019
  770MOL0     C 1562   6.108   0.624   5.246  0.3319  0.5189 -0.3387
  770MOL0     C 1563   6.129   0.757   5.215 -0.6983  0.4038  0.2347
  770MOL0     C 1564   6.077   0.816   5.093 -0.7221  0.6557 -0.4937
  770MOL0     C 1565   5.973   0.743   5.022 -0.2567 -0.4589 -1.0871
  770MOL0     O 1566   5.908   0.818   4.926  0.1308  1.1846 -0.4224
  770MOL0     C 1567   5.765   0.811   4.930  0.3849  0.6261 -0.5665
  770MOL0     C 1568   5.702   0.879   5.054  0.1342 -0.4581 -0.6946
  770MOL0     C 1569   5.581   0.971   5.040  0.0345  0.8520  0.0856
  770MOL0     C 1570   5.449   0.905   4.997  0.3704 -0.1167  0.1005
  770MOL0     C 1571   5.428   0.869   4.859  0.0971 -0.0860  0.7005
  770MOL0     C 1572   5.409   0.830   4.748 -0.6811  0.3083 -0.4537
  770MOL0     C 1573   5.952   0.609   5.062 -0.3216 -0.3732  0.0725
  770MOL0     C 1574   6.023   0.550   5.171 -0.0738 -0.0336  0.2206
  770MOL0     H 1575   6.317   0.450   5.622  2.2915 -0.7983  2.6276
  770MOL0     H 1576   6.549   0.463   5.729  3.0650  2.6006  0.9447
  770MOL0     H 1577   6.668   0.637   5.870 -0.4584 -0.6175  0.3661
  770MOL0     H 1578   6.614   0.775   5.789 -0.4276 -1.5139 -2.6440
  770MOL0     H 1579   6.896   0.729   5.903  1.7096  0.0003  0.2549
  770MOL0     H 1580   6.786   0.868   5.930 -0.7058 -1.0516  0.4916
  770MOL0     H 1581   6.842   0.900   5.663 -0.2366 -1.7956  0.0795
  770MOL0     H 1582   6.971   0.795   5.702  1.6932  1.4015  0.2530
  770MOL0     H 1583   6.908   1.062   5.845 -0.7097  0.9563 -1.9178
  770MOL0     H 1584   7.043   0.952   5.889  1.2656  0.7041 -0.5171
  770MOL0     H 1585   7.016   1.111   5.638  0.6228 -2.0041 -2.0136
  770MOL0     H 1586   7.140   0.990   5.658 -0.0642 -0.1313  0.7067
  770MOL0     H 1587   7.216   1.103   5.857 -1.7969 -3.8695 -1.2208
  770MOL0     H 1588   7.098   1.236   5.829  0.3460 -0.7438 -0.4890
  770MOL0     H 1589   7.323   1.124   5.643  0.1167 -0.0240  0.2519
  770MOL0     H 1590   7.209   1.252   5.594 -0.1991  0.0613  0.8412
  770MOL0     H 1591   7.398   1.275   5.839 -0.8775  0.6126  0.9499
  770MOL0     H 1592   7.301   1.398   5.772  1.0074 -0.4360  2.5518
  770MOL0     H 1593   7.323   1.457   5.519 -1.3154 -1.8880  3.7885
  770MOL0     H 1594   7.624   1.434   5.282  1.2054  1.1138 -1.3999
  770MOL0     H 1595   7.637   1.595   5.356  1.6897  0.6618 -2.6380
  770MOL0     H 1596   7.477   1.639   5.193 -0.3772 -3.2247 -3.7476
  770MOL0     H 1597   7.401   1.622   5.357 -1.3096 -0.5722 -0.6260
  770MOL0     H 1598   7.375   1.443   5.096 -1.4507  2.5927 -1.5625
  770MOL0     H 1599   7.339   1.384   5.258 -0.5575  0.4569  1.0278
  770MOL0     H 1600   7.223   1.629   5.137  0.8389  0.2343  1.2600
  770MOL0     H 1601   7.194   1.589   5.304  0.2518 -1.1580  1.1866
  770MOL0     H 1602   7.033   1.720   5.240  0.2203 -0.1343 -0.5393
  770MOL0     H 1603   6.789   1.810   5.252  3.0384  0.8613  1.0118
  770MOL0     H 1604   6.359   1.928   5.154 -0.0508  1.6665  0.8577
  770MOL0     H 1605   6.129   1.979   5.249  1.1055  0.9733 -0.2918
  770MOL0     H 1606   5.998   1.867   5.671 -3.4641 -0.6906  2.4303
  770MOL0     H 1607   5.967   1.721   5.571  0.6780  0.2717 -0.3250
  770MOL0     H 1608   5.764   1.803   5.628 -1.0270 -0.0331 -1.3676
  770MOL0     H 1609   5.773   1.873   5.471 -0.8991  1.2887  0.4348
  770MOL0     H 1610   5.857   2.036   5.717 -2.3259  3.4793  0.9610
  770MOL0     H 1611   5.688   2.012   5.657  0.3764  1.0080  1.1143
  770MOL0     H 1612   5.926   2.186   5.554 -0.3520  2.6045 -3.3102
  770MOL0     H 1613   5.817   2.118   5.441  3.5408  0.1666 -1.6205
  770MOL0     H 1614   5.764   2.315   5.664  1.9099 -0.5442 -0.3344
  770MOL0     H 1615   5.635   2.219   5.609 -1.1290  3.4883 -1.5887
  770MOL0     H 1616   5.654   2.447   5.498 -0.0667  0.6467 -1.7191
  770MOL0     H 1617   5.648   2.312   5.385  0.3584 -1.9487  1.2040
  770MOL0     H 1618   5.916   2.433   5.479 -1.3239 -1.5313  2.2089
  770MOL0     H 1619   5.884   2.313   5.344 -0.5570 -2.0032  2.3878
  770MOL0     H 1620   5.750   2.584   5.355 -0.9630  1.6728 -3.3368
  770MOL0     H 1621   5.771   2.459   5.220  0.5205 -0.8520 -0.1975
  770MOL0     H 1622   6.204   1.750   5.588  0.8269 -0.3568  0.4974
  770MOL0     H 1623   6.460   1.709   5.497  0.5543  0.9323 -0.9836
  770MOL0     H 1624   6.642   1.418   5.146 -2.3807  3.1923  0.1229
  770MOL0     H 1625   6.872   1.339   5.133  3.4403 -0.2244  0.8003
  770MOL0     H 1626   6.673   0.779   5.483  1.3819 -1.0086 -1.0950
  770MOL0     H 1627   6.445   0.788   5.383  1.5331  0.6490 -0.0650
  770MOL0     H 1628   6.196   0.812   5.279 -1.0847 -1.3502  2.2655
  770MOL0     H 1629   6.077   0.920   5.062 -0.0441  0.5701 -0.8101
  770MOL0     H 1630   5.729   0.708   4.933  0.8648  0.4749  0.7689
  770MOL0     H 1631   5.725   0.851   4.836  0.5365 -2.7918 -2.2046
  770MOL0     H 1632   5.685   0.798   5.127  1.1272  0.2489  0.3659
  770MOL0     H 1633   5.781   0.945   5.091 -2.1393  2.2107 -0.3130
  770MOL0     H 1634   5.613   1.047   4.968  0.4587 -0.2834 -0.9684
  770MOL0     H 1635   5.565   1.024   5.134 -1.3374 -0.0744  0.3971
  770MOL0     H 1636   5.446   0.809   5.050  0.7944 -0.5111 -0.5756
  770MOL0     H 1637   5.364   0.966   5.029  1.4472  1.5176 -0.0197
  770MOL0     H 1638   5.394   0.807   4.644 -1.5437 -1.2618 -0.0127
  770MOL0     H 1639   5.881   0.555   5.000  0.4838 -0.0044 -1.2168
  770MOL0     H 1640   6.016   0.443   5.183 -1.5948  0.0010 -0.1753
  771MOL0     O 1641   9.819   5.708   1.309  0.6825 -0.1716  0.6321
  771MOL0     C 1642   9.789   5.750   1.198  0.4161  0.6915  0.4550
  771MOL0     O 1643   9.863   5.846   1.119 -0.0388 -0.9159 -0.3547
  771MOL0     C 1644   9.945   5.930   1.198  0.4074  0.0490 -0.0495
  771MOL0     C 1645  10.076   5.889   1.225 -0.1913 -0.0658 -0.0692
  771MOL0     C 1646  10.156   5.960   1.309  0.1678  0.0117  0.7694
  771MOL0     C 1647  10.109   6.073   1.362  0.4760 -0.4776  0.2688
  771MOL0     O 1648  10.198   6.149   1.429 -0.0333  0.6000  0.1883
  771MOL0     C 1649  10.248   6.266   1.357  0.3840  0.3578  0.4094
  771MOL0     C 1650  10.392   6.277   1.411 -0.0079 -0.4470 -0.3354
  771MOL0     C 1651  10.454   6.416   1.368 -0.6481 -1.0715  0.2132
  771MOL0     C 1652  10.599   6.430   1.397 -0.7546  0.0688  0.4443
  771MOL0     C 1653  10.650   6.576   1.387  0.1257  0.0497  0.4764
  771MOL0     C 1654  10.798   6.583   1.343 -0.3949  0.6405 -0.3023
  771MOL0     C 1655  10.847   6.722   1.345 -0.3765 -0.0222  0.4292
  771MOL0     C 1656  10.997   6.736   1.314 -1.2141  0.2897 -0.3495
  771MOL0     N 1657  11.051   6.877   1.345  1.1098 -0.1078  0.0987
  771MOL0     C 1658  11.093   6.927   1.472  0.6614  0.2416 -1.0102
  771MOL0     C 1659  11.117   7.056   1.451 -0.2672  0.1985 -0.6413
  771MOL0     C 1660  11.173   7.162   1.552 -0.6829 -0.0020  0.1916
  771MOL0     C 1661  11.104   7.163   1.690 -0.7610  0.0063  0.0167
  771MOL0     C 1662  11.165   7.255   1.784  0.3081  0.0295 -0.7254
  771MOL0     C 1663  11.133   7.404   1.753 -0.0778 -0.8644  0.1546
  771MOL0     O 1664  11.224   7.443   1.656 -0.6487  0.3039 -0.2406
  771MOL0     C 1665  11.353   7.479   1.699  1.2730 -1.3025  1.1634
  771MOL0     C 1666  11.404   7.474   1.831  0.2151 -0.3489  0.0904
  771MOL0     C 1667  11.536   7.513   1.845 -0.0467  0.4397  0.0652
  771MOL0     C 1668  11.610   7.555   1.736  0.8401 -0.5663  0.3610
  771MOL0     C 1669  11.753   7.605   1.757 -0.5956  0.2967  0.4868
  771MOL0     O 1670  11.841   7.638   1.653 -0.2074 -0.2732  0.9076
  771MOL0     C 1671  11.951   7.712   1.687 -0.5747  0.4500 -0.2981
  771MOL0     C 1672  12.058   7.635   1.739  0.1420 -0.6672  0.8728
  771MOL0     C 1673  12.177   7.706   1.769 -0.4567 -0.1397 -0.0752
  771MOL0     C 1674  12.190   7.850   1.764  0.5067  0.1227  0.3416
  771MOL0     O 1675  12.315   7.907   1.791  0.1273 -0.3271  0.1631
  771MOL0     C 1676  12.317   8.036   1.839 -0.1396  0.1841  0.5184
  771MOL0     C 1677  12.451   8.053   1.905  0.2897 -0.5203  0.5006
  771MOL0     C 1678  12.551   8.099   1.792 -0.1093 -0.2807  0.0520
  771MOL0     C 1679  12.693   8.063   1.828 -0.2425  0.0930  0.0446
  771MOL0     C 1680  12.726   7.910   1.842  0.4886 -0.4073 -1.1831
  771MOL0     C 1681  12.877   7.871   1.862  0.4888 -0.1759 -0.3147
  771MOL0     C 1682  12.935   7.847   1.721  0.7560  0.1018 -0.8473
  771MOL0     C 1683  13.074   7.782   1.749  0.3154 -0.2874  0.2233
  771MOL0    Cl 1684  13.145   7.760   1.576  0.0128 -0.3284 -0.0447
  771MOL0     C 1685  12.075   7.919   1.721  0.0792 -0.1463 -0.3508
  771MOL0     C 1686  11.956   7.849   1.686  0.1824 -0.7220 -0.1924
  771MOL0     O 1687  11.784   7.608   1.877  0.1716 -0.2210  0.4026
  771MOL0     C 1688  11.554   7.575   1.613  0.7129 -0.1374  0.0186
  771MOL0     C 1689  11.424   7.541   1.593 -0.7732 -0.9598 -0.2274
  771MOL0     N 1690  11.084   7.087   1.320  0.0159  0.4729  0.7814
  771MOL0     N 1691  11.055   6.977   1.251  0.1162 -0.6860  0.1551
  771MOL0     C 1692   9.975   6.112   1.347  0.5586 -0.5547 -0.1982
  771MOL0     C 1693   9.885   6.036   1.268  0.1972  0.3759  0.3853
  771MOL0     C 1694   9.665   5.688   1.146  0.8826  0.1164  0.4536
  771MOL0     C 1695   9.577   5.759   1.067 -0.3895  0.0200  0.7774
  771MOL0     C 1696   9.458   5.693   1.013  0.2199 -0.4239  0.5544
  771MOL0     C 1697   9.437   5.553   1.038  0.6984 -0.3145 -0.2165
  771MOL0     O 1698   9.339   5.480   0.978  0.7804 -0.5388  1.0121
  771MOL0     C 1699   9.243   5.541   0.896 -0.2195  0.2148 -0.2064
  771MOL0     C 1700   9.140   5.604   0.981 -0.1624 -0.9145  0.2240
  771MOL0     C 1701   9.043   5.692   0.902 -0.4713  0.3649 -0.7600
  771MOL0     C 1702   8.931   5.746   0.993  0.4161 -0.7640  0.8514
  771MOL0     C 1703   8.822   5.831   0.925 -0.6631  0.1266 -0.1377
  771MOL0     C 1704   8.721   5.891   0.897 -0.2047  0.3345  0.1916
  771MOL0     C 1705   9.525   5.489   1.125 -0.3696  0.0313 -0.4305
  771MOL0     C 1706   9.646   5.551   1.166  0.2773  0.9463 -0.1910
  771MOL0     H 1707  10.122   5.806   1.171  0.8156 -0.2147  0.9665
  771MOL0     H 1708  10.263   5.941   1.310  0.3080  0.4635 -1.1623
  771MOL0     H 1709  10.188   6.351   1.392  0.6945  1.7043 -2.1115
  771MOL0     H 1710  10.241   6.270   1.248  0.0016  5.3893  0.4085
  771MOL0     H 1711  10.452   6.198   1.365 -0.8379 -0.6853 -1.0501
  771MOL0     H 1712  10.392   6.273   1.520  2.1174 -2.2134 -0.3165
  771MOL0     H 1713  10.394   6.494   1.416  1.2653  1.3244 -1.0913
  771MOL0     H 1714  10.429   6.406   1.262 -0.9026 -2.4044  0.3747
  771MOL0     H 1715  10.627   6.393   1.495  1.4060 -0.4918 -0.3239
  771MOL0     H 1716  10.656   6.379   1.319  0.8538  1.2697  0.7926
  771MOL0     H 1717  10.643   6.624   1.486  0.7260  1.5191 -0.1519
  771MOL0     H 1718  10.598   6.639   1.314  0.0284 -0.4008  0.1552
  771MOL0     H 1719  10.808   6.541   1.242  0.0017 -0.5710  0.2280
  771MOL0     H 1720  10.849   6.516   1.413  1.9708  1.7254 -0.8699
  771MOL0     H 1721  10.795   6.789   1.275  0.5002  1.4534  1.1351
  771MOL0     H 1722  10.836   6.754   1.449 -1.2570  2.4076 -0.3181
  771MOL0     H 1723  11.018   6.730   1.207  0.4431  0.7994 -0.0796
  771MOL0     H 1724  11.045   6.660   1.376  0.9914  2.7358  1.1617
  771MOL0     H 1725  11.094   6.869   1.564 -2.1527  2.9520  0.9209
  771MOL0     H 1726  11.167   7.265   1.515  0.4969 -0.3601 -1.0608
  771MOL0     H 1727  11.281   7.147   1.558 -0.7250 -0.6331 -0.4734
  771MOL0     H 1728  11.104   7.066   1.742 -0.5212  0.9511  1.8610
  771MOL0     H 1729  11.000   7.191   1.674 -0.1028  0.6080 -4.4326
  771MOL0     H 1730  11.125   7.239   1.885  2.5217  0.6927  0.3261
  771MOL0     H 1731  11.273   7.245   1.797  0.7609  3.0991 -1.3609
  771MOL0     H 1732  11.133   7.473   1.838  1.4340 -0.4453 -0.1706
  771MOL0     H 1733  11.032   7.409   1.710 -1.2447  1.4439  2.8653
  771MOL0     H 1734  11.355   7.420   1.911 -2.6689 -0.5290 -1.6631
  771MOL0     H 1735  11.594   7.497   1.935  1.8648  1.1494 -0.9951
  771MOL0     H 1736  12.050   7.527   1.746 -0.5342 -0.7392 -0.6494
  771MOL0     H 1737  12.264   7.648   1.798  0.8105  1.2842 -0.8427
  771MOL0     H 1738  12.230   8.048   1.905 -0.0272  0.5960  0.5977
  771MOL0     H 1739  12.296   8.113   1.764  0.1447 -1.5808 -1.4930
  771MOL0     H 1740  12.482   7.960   1.954  1.9802  0.2414  0.9283
  771MOL0     H 1741  12.436   8.138   1.971  1.4942 -0.2362  0.4299
  771MOL0     H 1742  12.540   8.207   1.778 -0.8021  0.0142  2.5745
  771MOL0     H 1743  12.531   8.045   1.699 -0.7389 -0.0102  0.0251
  771MOL0     H 1744  12.764   8.113   1.761 -0.4760  1.3813  0.7321
  771MOL0     H 1745  12.702   8.107   1.927  1.8632 -0.9011  0.3559
  771MOL0     H 1746  12.676   7.854   1.763  0.8343  1.4193 -2.7731
  771MOL0     H 1747  12.676   7.878   1.934 -2.2268  0.1282 -2.4012
  771MOL0     H 1748  12.888   7.785   1.928  0.7597 -0.5005 -0.7817
  771MOL0     H 1749  12.919   7.959   1.912  0.4362  0.4486 -1.3358
  771MOL0     H 1750  12.868   7.782   1.665 -0.9050  2.4445 -1.7355
  771MOL0     H 1751  12.949   7.940   1.664  1.3269  0.0742 -0.7673
  771MOL0     H 1752  13.064   7.684   1.796 -1.3533 -0.4993 -0.4972
  771MOL0     H 1753  13.138   7.847   1.809  1.3515 -2.1459  1.2400
  771MOL0     H 1754  12.078   8.024   1.697 -1.7936 -0.1789 -0.9192
  771MOL0     H 1755  11.868   7.899   1.649 -3.1526 -4.0219  2.4488
  771MOL0     H 1756  11.615   7.618   1.533  1.3587 -0.3744  0.3829
  771MOL0     H 1757  11.380   7.554   1.495  1.2294  1.9628 -0.8869
  771MOL0     H 1758   9.944   6.204   1.395  1.8770 -2.2452  4.5000
  771MOL0     H 1759   9.786   6.077   1.248  0.6011  0.6937 -1.1362
  771MOL0     H 1760   9.594   5.866   1.069  1.3682 -0.2344  2.8302
  771MOL0     H 1761   9.392   5.754   0.952  3.5039  2.3835 -0.5957
  771MOL0     H 1762   9.199   5.464   0.832  0.9639 -0.1579 -0.5937
  771MOL0     H 1763   9.293   5.607   0.824  1.8480  0.2189  1.1560
  771MOL0     H 1764   9.088   5.521   1.031  1.5108 -2.2283 -0.1051
  771MOL0     H 1765   9.197   5.663   1.053  2.6324  1.8438 -3.8402
  771MOL0     H 1766   8.998   5.643   0.815  2.5051  1.2668 -2.9597
  771MOL0     H 1767   9.096   5.775   0.855 -2.4492  1.6837 -0.8055
  771MOL0     H 1768   8.894   5.668   1.061 -0.5679 -0.9703  0.1166
  771MOL0     H 1769   8.978   5.823   1.053 -0.6266  0.5450  0.0400
  771MOL0     H 1770   8.634   5.949   0.874 -1.8966 -2.4553 -0.9940
  771MOL0     H 1771   9.493   5.389   1.155 -1.0106  1.1389  3.0289
  771MOL0     H 1772   9.718   5.501   1.230 -0.8026 -0.1442  0.2123
  772MOL0     O 1773   0.519   1.359   5.873 -0.4744 -0.6384  0.5581
  772MOL0     C 1774   0.602   1.390   5.959 -0.0492  0.2188 -0.4723
  772MOL0     O 1775   0.572   1.382   6.090  0.1531 -0.1037 -0.1668
  772MOL0     C 1776   0.445   1.347   6.132  0.3012 -0.9399 -0.0951
  772MOL0     C 1777   0.318   1.365   6.069 -1.5889  0.4346 -0.1902
  772MOL0     C 1778   0.199   1.328   6.122  0.0352  1.1947 -0.1950
  772MOL0     C 1779   0.203   1.247   6.243 -0.1640  0.1166 -0.5039
  772MOL0     O 1780   0.086   1.198   6.313 -0.5654 -0.3277 -0.1755
  772MOL0     C 1781  -0.034   1.235   6.246  0.1597 -0.5061 -0.2895
  772MOL0     C 1782  -0.151   1.169   6.314  0.7693  1.2187 -0.0388
  772MOL0     C 1783  -0.180   1.212   6.460  0.4434 -0.5981 -0.4143
  772MOL0     C 1784  -0.292   1.144   6.530 -0.1798  0.3423 -0.9822
  772MOL0     C 1785  -0.327   1.205   6.662 -1.0132 -0.1223 -0.4156
  772MOL0     C 1786  -0.432   1.314   6.646 -0.4280 -0.0246  0.1353
  772MOL0     C 1787  -0.478   1.375   6.786  0.3721  0.6552 -0.0828
  772MOL0     C 1788  -0.365   1.451   6.867 -0.2799 -0.1095  0.0293
  772MOL0     N 1789  -0.418   1.505   6.996  0.0964 -0.3782 -0.3317
  772MOL0     C 1790  -0.452   1.432   7.103  0.1826 -0.6057  0.5055
  772MOL0     C 1791  -0.505   1.512   7.194 -0.3309  0.1655  0.3644
  772MOL0     C 1792  -0.521   1.471   7.328  0.2034  0.8253 -0.6308
  772MOL0     C 1793  -0.388   1.493   7.402  0.0864 -0.3324 -0.2477
  772MOL0     C 1794  -0.358   1.373   7.497  0.5071  0.0519 -0.3630
  772MOL0     C 1795  -0.243   1.399   7.589  0.3584  0.6472  0.3970
  772MOL0     O 1796  -0.208   1.294   7.673  0.4012  0.5125 -0.1207
  772MOL0     C 1797  -0.298   1.248   7.761 -0.6925 -0.3781 -0.6711
  772MOL0     C 1798  -0.263   1.123   7.820  0.1237 -0.6638 -0.3933
  772MOL0     C 1799  -0.346   1.074   7.921  0.5875  0.2883 -0.2190
  772MOL0     C 1800  -0.476   1.130   7.953 -0.5259  0.2972  0.1383
  772MOL0     C 1801  -0.573   1.074   8.043 -0.3818 -0.0011 -0.3447
  772MOL0     O 1802  -0.685   1.146   8.065 -0.3179 -1.1242 -0.3522
  772MOL0     C 1803  -0.791   1.087   8.148  0.1733  0.3023  0.9020
  772MOL0     C 1804  -0.912   1.119   8.090  0.4523  0.2999 -0.2961
  772MOL0     C 1805  -1.027   1.067   8.153 -0.0024  0.5244  0.7847
  772MOL0     C 1806  -1.023   0.999   8.274 -0.3447 -0.1418 -0.3676
  772MOL0     O 1807  -1.150   0.969   8.327  0.6870 -0.3982 -0.7439
  772MOL0     C 1808  -1.160   0.906   8.459 -0.1488  0.8534 -0.1289
  772MOL0     C 1809  -1.144   0.750   8.456  0.1573  0.5271  0.1623
  772MOL0     C 1810  -1.131   0.696   8.597 -0.4638  1.3794  0.0455
  772MOL0     C 1811  -1.119   0.540   8.592  0.5311  0.4338  0.0064
  772MOL0     C 1812  -1.059   0.482   8.725 -0.0164 -0.7727 -0.5976
  772MOL0     C 1813  -1.118   0.345   8.756 -0.9373 -0.4852 -0.5095
  772MOL0     C 1814  -1.082   0.315   8.908 -0.3904  0.2089  0.4583
  772MOL0     C 1815  -1.150   0.186   8.976 -0.0632 -0.4860 -0.0037
  772MOL0    Cl 1816  -1.090   0.043   8.874  0.4590 -0.2154 -0.3135
  772MOL0     C 1817  -0.894   0.975   8.337 -0.0935  0.4411 -0.0013
  772MOL0     C 1818  -0.774   1.018   8.271 -0.1976 -1.0252 -0.2626
  772MOL0     O 1819  -0.538   0.964   8.099  0.1734 -0.5017 -0.4635
  772MOL0     C 1820  -0.499   1.251   7.892  0.1202 -0.5280  0.3958
  772MOL0     C 1821  -0.404   1.314   7.803  0.0691 -0.1971 -0.2796
  772MOL0     N 1822  -0.497   1.642   7.151 -0.5616  0.2540 -0.1755
  772MOL0     N 1823  -0.457   1.635   7.024  0.1022 -0.6550  0.1406
  772MOL0     C 1824   0.328   1.227   6.301 -1.1234 -0.2943 -0.2870
  772MOL0     C 1825   0.446   1.285   6.252 -0.3398  1.2261  0.0856
  772MOL0     C 1826   0.729   1.444   5.923 -0.3635 -1.3831  0.4273
  772MOL0     C 1827   0.842   1.452   6.011  0.1625  0.1256  0.6572
  772MOL0     C 1828   0.973   1.492   5.977  0.1742  0.6424  0.9168
  772MOL0     C 1829   1.006   1.521   5.841 -0.8252  0.3421 -0.4722
  772MOL0     O 1830   1.129   1.557   5.802  0.6002  0.2600  0.1979
  772MOL0     C 1831   1.222   1.626   5.882 -0.0900  0.4808 -0.0686
  772MOL0     C 1832   1.329   1.671   5.781  1.0411  0.2522 -0.2087
  772MOL0     C 1833   1.419   1.554   5.739 -0.3699  0.3708 -0.3981
  772MOL0     C 1834   1.536   1.584   5.648 -0.1917 -1.0024  0.0919
  772MOL0     C 1835   1.643   1.652   5.723 -0.4587 -0.0189 -0.1889
  772MOL0     C 1836   1.739   1.692   5.772 -0.9764  0.1821  0.2629
  772MOL0     C 1837   0.898   1.508   5.756 -0.2360 -0.9995  0.3131
  772MOL0     C 1838   0.762   1.492   5.799 -0.2594  1.2813  0.5166
  772MOL0     H 1839   0.299   1.429   5.983 -0.2587  1.5219  0.2955
  772MOL0     H 1840   0.110   1.367   6.073 -0.1773  0.7525 -0.1686
  772MOL0     H 1841  -0.030   1.207   6.140 -2.5713  1.6360 -1.0756
  772MOL0     H 1842  -0.049   1.343   6.238 -0.8301 -0.6170  0.0028
  772MOL0     H 1843  -0.136   1.061   6.311 -2.0779  0.4077  4.5972
  772MOL0     H 1844  -0.247   1.181   6.265 -1.3883 -1.8903  2.9490
  772MOL0     H 1845  -0.207   1.318   6.452  0.8816 -0.5718 -1.8687
  772MOL0     H 1846  -0.092   1.207   6.526  1.7969  2.6113 -1.7341
  772MOL0     H 1847  -0.378   1.152   6.463  0.1842 -0.2442 -1.5255
  772MOL0     H 1848  -0.254   1.045   6.555 -0.6170 -0.0856 -1.9831
  772MOL0     H 1849  -0.244   1.258   6.710 -0.4169  0.1998 -1.7368
  772MOL0     H 1850  -0.354   1.128   6.734  0.9879 -0.1742  0.3528
  772MOL0     H 1851  -0.519   1.266   6.600 -0.0791  0.3872 -0.9817
  772MOL0     H 1852  -0.394   1.388   6.575 -0.4182  0.6253  0.7970
  772MOL0     H 1853  -0.562   1.446   6.778 -4.3025 -3.9332  2.3323
  772MOL0     H 1854  -0.509   1.290   6.847 -0.4968  1.5763  0.8015
  772MOL0     H 1855  -0.328   1.532   6.803 -0.4954  1.3312  1.6591
  772MOL0     H 1856  -0.291   1.377   6.896  0.0941  0.5246  0.7078
  772MOL0     H 1857  -0.443   1.324   7.101  3.6411 -0.5153 -4.0933
  772MOL0     H 1858  -0.554   1.367   7.338 -2.7983  1.8744  2.8454
  772MOL0     H 1859  -0.608   1.520   7.373 -0.3093 -0.8489  0.2961
  772MOL0     H 1860  -0.401   1.580   7.467 -3.0411  2.5565 -4.2569
  772MOL0     H 1861  -0.298   1.516   7.344  1.4969 -0.2877  1.8250
  772MOL0     H 1862  -0.455   1.355   7.545  0.6051 -0.5737 -0.3809
  772MOL0     H 1863  -0.332   1.279   7.447  1.0041 -2.0088  3.3301
  772MOL0     H 1864  -0.261   1.494   7.639  1.2101  0.7210  0.5717
  772MOL0     H 1865  -0.154   1.401   7.525 -1.3211  0.0114 -2.1168
  772MOL0     H 1866  -0.177   1.069   7.780  2.6111  2.4145  0.4176
  772MOL0     H 1867  -0.311   0.976   7.954  1.3482  0.1409 -1.3997
  772MOL0     H 1868  -0.929   1.164   7.993 -1.5669  4.1339  1.6201
  772MOL0     H 1869  -1.128   1.082   8.117  0.3069 -0.4455 -0.5541
  772MOL0     H 1870  -1.257   0.932   8.503 -0.3707 -2.5319  1.6742
  772MOL0     H 1871  -1.078   0.944   8.522  0.7332  0.5064 -1.0415
  772MOL0     H 1872  -1.066   0.713   8.389 -1.0522  0.4696 -1.2518
  772MOL0     H 1873  -1.233   0.703   8.414  0.3818 -1.7407  2.0008
  772MOL0     H 1874  -1.217   0.727   8.657 -0.3195  0.5451  0.7091
  772MOL0     H 1875  -1.044   0.741   8.644 -0.6166  1.6405  0.0781
  772MOL0     H 1876  -1.211   0.488   8.563  2.8119 -2.1269 -3.5425
  772MOL0     H 1877  -1.052   0.517   8.508 -1.2435  0.1810 -1.4099
  772MOL0     H 1878  -1.096   0.542   8.808 -1.9976 -1.5510 -0.8646
  772MOL0     H 1879  -0.950   0.485   8.734 -0.1163 -0.6235  0.7695
  772MOL0     H 1880  -1.058   0.287   8.686 -0.4265  0.9472 -1.2947
  772MOL0     H 1881  -1.226   0.345   8.738 -0.9792 -2.0677 -0.3392
  772MOL0     H 1882  -0.973   0.301   8.912 -0.0158  1.7454 -2.1899
  772MOL0     H 1883  -1.108   0.399   8.973  3.4112  0.3070  2.1102
  772MOL0     H 1884  -1.257   0.203   8.963 -0.2668 -1.0190  0.9689
  772MOL0     H 1885  -1.121   0.180   9.081  2.5827  0.0114 -0.6300
  772MOL0     H 1886  -0.887   0.944   8.440 -4.1834 -0.9009  0.0501
  772MOL0     H 1887  -0.674   0.999   8.307 -0.3757 -0.1479  0.7430
  772MOL0     H 1888  -0.590   1.309   7.908 -0.0526 -0.4615 -0.6993
  772MOL0     H 1889  -0.423   1.407   7.751  2.7226  2.4251  2.9498
  772MOL0     H 1890   0.344   1.168   6.391  1.6382 -2.6565 -2.1456
  772MOL0     H 1891   0.539   1.253   6.299 -0.4237 -1.6189 -1.4467
  772MOL0     H 1892   0.825   1.431   6.116 -1.2000 -0.7319  0.2912
  772MOL0     H 1893   1.051   1.504   6.051  1.6437 -0.5559 -0.3606
  772MOL0     H 1894   1.264   1.565   5.963  1.6958  0.6537 -0.8106
  772MOL0     H 1895   1.174   1.711   5.930  1.0068  0.9905  0.1463
  772MOL0     H 1896   1.282   1.709   5.689  0.4481  0.7767  0.2945
  772MOL0     H 1897   1.384   1.751   5.832 -0.3917  0.9507  0.3144
  772MOL0     H 1898   1.352   1.476   5.702 -1.3561 -0.6742  3.1829
  772MOL0     H 1899   1.464   1.509   5.828  0.5135 -1.5105 -1.7286
  772MOL0     H 1900   1.571   1.496   5.595  3.3818  1.5541 -2.2073
  772MOL0     H 1901   1.506   1.648   5.565  0.7809  0.2241  0.6556
  772MOL0     H 1902   1.832   1.725   5.814 -0.0185  1.8994 -2.9146
  772MOL0     H 1903   0.909   1.515   5.648  0.7125 -0.3374  0.4310
  772MOL0     H 1904   0.695   1.485   5.715  2.8537 -2.4598 -2.0310
  773MOL0     O 1905   9.770   4.670   6.055  0.4559 -0.6569  0.0037
  773MOL0     C 1906   9.739   4.610   5.954 -0.4470 -0.3891  0.0511
  773MOL0     O 1907   9.623   4.558   5.922 -0.8232 -0.5560 -0.1183
  773MOL0     C 1908   9.504   4.571   5.991  0.4540 -0.0976 -1.2379
  773MOL0     C 1909   9.378   4.524   5.934 -0.8917  0.2011  0.1096
  773MOL0     C 1910   9.253   4.518   6.006 -0.2355  0.3296 -0.6047
  773MOL0     C 1911   9.252   4.561   6.141  0.1985  0.3830 -0.1937
  773MOL0     O 1912   9.129   4.559   6.207 -0.0617 -0.4851  0.4321
  773MOL0     C 1913   9.130   4.521   6.342  0.0911  0.5474 -0.0681
  773MOL0     C 1914   9.126   4.370   6.370 -0.6056  0.5585 -0.7837
  773MOL0     C 1915   8.989   4.296   6.338 -0.3145  0.3331  0.5639
  773MOL0     C 1916   8.866   4.338   6.416  0.4851 -0.4927  0.2581
  773MOL0     C 1917   8.743   4.240   6.375 -0.2558 -0.3407 -0.0027
  773MOL0     C 1918   8.607   4.294   6.419 -0.1762  0.5168  0.2282
  773MOL0     C 1919   8.509   4.173   6.439  0.0923  0.4126 -0.6971
  773MOL0     C 1920   8.381   4.202   6.516 -0.1988  0.5224 -0.6654
  773MOL0     N 1921   8.307   4.313   6.455  1.6199 -0.3932  0.3835
  773MOL0     C 1922   8.192   4.297   6.373 -0.0413 -0.2830 -0.5291
  773MOL0     C 1923   8.146   4.422   6.341 -1.2532 -0.2158 -0.0443
  773MOL0     C 1924   8.020   4.434   6.255 -0.7176 -0.2385 -0.5291
  773MOL0     C 1925   8.060   4.441   6.101  0.8110 -0.3845 -0.1237
  773MOL0     C 1926   7.954   4.510   6.016 -0.2407 -0.0893 -0.1150
  773MOL0     C 1927   7.818   4.425   6.030 -0.2954  0.0309 -0.0031
  773MOL0     O 1928   7.747   4.436   6.156 -0.1447 -0.4500 -0.4415
  773MOL0     C 1929   7.627   4.521   6.167 -0.6308 -0.7128  1.1399
  773MOL0     C 1930   7.617   4.637   6.092  0.2502  0.0221 -0.3875
  773MOL0     C 1931   7.519   4.736   6.118  0.4883  0.8244 -0.4889
  773MOL0     C 1932   7.414   4.704   6.214  0.2382  0.5681 -0.1082
  773MOL0     C 1933   7.308   4.802   6.255 -0.0851  0.0417 -0.8774
  773MOL0     O 1934   7.279   4.898   6.160  0.3160  0.5368  0.4605
  773MOL0     C 1935   7.184   4.997   6.196  0.4812 -0.2400 -0.2858
  773MOL0     C 1936   7.200   5.088   6.301  0.8458  0.0960  0.4836
  773MOL0     C 1937   7.108   5.183   6.335  0.7307 -0.8363  0.0869
  773MOL0     C 1938   6.987   5.197   6.268  0.0842  0.2619 -0.7886
  773MOL0     O 1939   6.909   5.306   6.301  0.0846  0.2318  0.0729
  773MOL0     C 1940   6.804   5.334   6.210  0.4880 -0.0875 -1.1287
  773MOL0     C 1941   6.683   5.247   6.223  0.6381  0.9787 -0.6077
  773MOL0     C 1942   6.559   5.332   6.226 -0.6600  0.5037 -0.4100
  773MOL0     C 1943   6.448   5.241   6.166  0.7653  0.3477  0.1245
  773MOL0     C 1944   6.321   5.310   6.139 -0.1906  0.0609  0.6057
  773MOL0     C 1945   6.322   5.424   6.032  0.1605  1.0548 -0.8144
  773MOL0     C 1946   6.179   5.448   5.982 -0.1945  0.5187  0.3215
  773MOL0     C 1947   6.167   5.584   5.899  0.5968  0.4422 -0.2854
  773MOL0    Cl 1948   6.236   5.565   5.747 -0.0089  0.6730 -0.1643
  773MOL0     C 1949   6.968   5.107   6.166 -0.1550 -1.0204  1.1265
  773MOL0     C 1950   7.062   5.014   6.127 -0.9695  0.2330 -0.8222
  773MOL0     O 1951   7.252   4.792   6.359 -0.0641 -0.0882  0.2989
  773MOL0     C 1952   7.422   4.576   6.283  0.3443  0.9036  0.3411
  773MOL0     C 1953   7.530   4.494   6.259 -0.4837  0.6953 -0.1148
  773MOL0     N 1954   8.230   4.513   6.402  0.2270 -0.1463 -0.3803
  773MOL0     N 1955   8.317   4.447   6.467  0.2915  0.0332 -0.6512
  773MOL0     C 1956   9.375   4.586   6.203 -0.4366  0.3276  0.0901
  773MOL0     C 1957   9.491   4.598   6.129  0.1407 -0.9748 -0.6089
  773MOL0     C 1958   9.845   4.574   5.857 -0.6758 -0.4023 -0.1765
  773MOL0     C 1959   9.968   4.641   5.865  0.7360 -1.1911 -0.2955
  773MOL0     C 1960  10.078   4.618   5.783 -0.7855  0.5573  0.4625
  773MOL0     C 1961  10.062   4.520   5.685 -1.0198 -1.4876 -0.5504
  773MOL0     O 1962  10.168   4.520   5.593 -0.4130  0.0546  0.8906
  773MOL0     C 1963  10.185   4.411   5.504 -0.0187 -1.4413 -0.4106
  773MOL0     C 1964  10.324   4.424   5.436 -0.3166 -0.2228 -0.0217
  773MOL0     C 1965  10.331   4.340   5.311  0.0647 -0.4043 -0.1233
  773MOL0     C 1966  10.234   4.382   5.196 -0.8592 -0.1726 -0.7059
  773MOL0     C 1967  10.254   4.290   5.086  0.5712  0.6603  0.3469
  773MOL0     C 1968  10.265   4.210   4.996 -0.4187  0.8171  0.0793
  773MOL0     C 1969   9.948   4.441   5.676 -0.0359 -0.5712  0.0499
  773MOL0     C 1970   9.841   4.473   5.761  0.4638 -0.4033  0.1836
  773MOL0     H 1971   9.388   4.486   5.833 -0.4057 -0.3943  0.3799
  773MOL0     H 1972   9.164   4.478   5.958  0.9285 -1.9534 -1.0358
  773MOL0     H 1973   9.037   4.558   6.387  0.2437 -1.0003  1.6353
  773MOL0     H 1974   9.202   4.571   6.408 -0.3713  2.6439 -1.0761
  773MOL0     H 1975   9.146   4.365   6.477 -0.6341 -1.1509 -0.8322
  773MOL0     H 1976   9.208   4.315   6.322 -1.0618 -3.2487  2.2799
  773MOL0     H 1977   9.014   4.190   6.351 -0.2691  0.4233  1.2348
  773MOL0     H 1978   8.976   4.312   6.230 -1.0326 -1.5165  0.3271
  773MOL0     H 1979   8.879   4.342   6.524 -0.1324 -3.1028  0.5092
  773MOL0     H 1980   8.845   4.435   6.370 -0.0648  0.4371  2.3696
  773MOL0     H 1981   8.769   4.148   6.428  1.2255 -1.1491 -2.0078
  773MOL0     H 1982   8.742   4.218   6.268  0.8537 -0.0927 -0.0768
  773MOL0     H 1983   8.566   4.351   6.335 -2.1649 -2.4343 -0.9418
  773MOL0     H 1984   8.611   4.349   6.514  1.6142 -1.1665  1.1951
  773MOL0     H 1985   8.496   4.133   6.338  2.4759 -2.4262 -0.0205
  773MOL0     H 1986   8.556   4.095   6.501 -5.8817 -2.3631  1.1247
  773MOL0     H 1987   8.419   4.234   6.614  1.6160 -0.0136 -1.1477
  773MOL0     H 1988   8.309   4.120   6.522  0.3229  0.0384 -0.8960
  773MOL0     H 1989   8.148   4.205   6.336 -0.2738  0.4104 -2.0677
  773MOL0     H 1990   7.974   4.529   6.284 -0.9481 -0.4154 -0.3042
  773MOL0     H 1991   7.946   4.358   6.282  0.0468 -0.1079  2.3089
  773MOL0     H 1992   8.079   4.338   6.068  2.1818  0.6924 -2.9820
  773MOL0     H 1993   8.155   4.493   6.081  1.8569 -2.5184 -1.0606
  773MOL0     H 1994   7.929   4.614   6.038 -0.4130 -0.4879  1.7558
  773MOL0     H 1995   7.983   4.508   5.911 -1.5358  2.3338 -0.5888
  773MOL0     H 1996   7.840   4.318   6.023 -0.2096  0.1469 -3.4485
  773MOL0     H 1997   7.756   4.447   5.942  0.6409 -1.7561 -1.1852
  773MOL0     H 1998   7.705   4.665   6.035  0.6231 -0.1321  0.1044
  773MOL0     H 1999   7.539   4.838   6.086  0.2827  0.6218 -1.2713
  773MOL0     H 2000   7.290   5.082   6.361 -0.6124 -2.2146  2.6214
  773MOL0     H 2001   7.121   5.247   6.422  0.4760 -1.5654  0.6788
  773MOL0     H 2002   6.847   5.326   6.110 -0.7769 -0.0642 -1.6855
  773MOL0     H 2003   6.774   5.437   6.229 -1.6354 -0.4396 -2.2711
  773MOL0     H 2004   6.689   5.183   6.312 -0.6985  1.7002  0.0427
  773MOL0     H 2005   6.688   5.190   6.130  1.2599  2.3575 -1.4408
  773MOL0     H 2006   6.561   5.416   6.156 -1.2068  0.1015 -0.9240
  773MOL0     H 2007   6.533   5.364   6.328 -3.5916 -1.2001 -0.5217
  773MOL0     H 2008   6.479   5.188   6.075 -0.8039 -1.5519  0.6125
  773MOL0     H 2009   6.435   5.167   6.246  1.1312  0.3215  0.1650
  773MOL0     H 2010   6.281   5.359   6.229  0.0308  1.8550 -0.2242
  773MOL0     H 2011   6.258   5.226   6.110  2.5583 -1.3959 -1.5677
  773MOL0     H 2012   6.394   5.390   5.957  1.5704  0.8038  0.6122
  773MOL0     H 2013   6.362   5.514   6.080 -2.1502  2.1457 -0.7504
  773MOL0     H 2014   6.147   5.368   5.915 -0.2106  0.3914  0.4817
  773MOL0     H 2015   6.113   5.454   6.069 -1.5522  0.8201 -0.6971
  773MOL0     H 2016   6.221   5.662   5.952 -1.0738  0.8103  0.9815
  773MOL0     H 2017   6.063   5.616   5.886 -0.1183 -0.9308  1.5132
  773MOL0     H 2018   6.887   5.113   6.094  0.6272  1.0964  0.3312
  773MOL0     H 2019   7.041   4.955   6.038  1.8479 -0.0983 -1.3721
  773MOL0     H 2020   7.343   4.543   6.349  1.1273 -1.8442  0.0053
  773MOL0     H 2021   7.551   4.405   6.317 -3.8184  1.5882  2.8449
  773MOL0     H 2022   9.382   4.622   6.304  2.4523 -0.6831  0.3254
  773MOL0     H 2023   9.582   4.617   6.185 -2.9349  3.2146  3.8312
  773MOL0     H 2024   9.985   4.714   5.944 -0.1989 -2.1057  0.7891
  773MOL0     H 2025  10.172   4.671   5.778 -0.7537  0.4334 -0.4518
  773MOL0     H 2026  10.101   4.414   5.433 -1.2221  0.2078  0.9986
  773MOL0     H 2027  10.187   4.322   5.567  2.8166  0.1460  1.9585
  773MOL0     H 2028  10.348   4.529   5.423 -0.0453 -0.4149 -1.2338
  773MOL0     H 2029  10.402   4.391   5.506  0.2397 -0.3387 -0.6849
  773MOL0     H 2030  10.307   4.237   5.340 -2.8726  0.0464 -0.6196
  773MOL0     H 2031  10.430   4.352   5.266  0.5435 -1.6342  0.5564
  773MOL0     H 2032  10.130   4.371   5.226 -1.0839  0.6542 -1.1513
  773MOL0     H 2033  10.247   4.489   5.176  2.4967 -0.0139  1.4469
  773MOL0     H 2034  10.278   4.150   4.908  0.0146  0.7453  0.1874
  773MOL0     H 2035   9.948   4.366   5.598  1.9586 -1.1897  0.5706
  773MOL0     H 2036   9.750   4.416   5.747 -0.0655  0.9345 -2.7808
  774MOL0     O 2037  10.203   1.499   7.634 -0.0603  0.4828 -0.2454
  774MOL0     C 2038  10.265   1.600   7.615 -0.6095 -0.1237 -0.0639
  774MOL0     O 2039  10.219   1.710   7.543 -0.3081  0.1200 -0.1926
  774MOL0     C 2040  10.088   1.744   7.532  0.7049 -0.5864 -0.3096
  774MOL0     C 2041  10.068   1.861   7.465  0.5686 -0.1305 -0.0458
  774MOL0     C 2042   9.936   1.916   7.437 -0.2721  0.0678 -0.0345
  774MOL0     C 2043   9.830   1.852   7.498  1.2370  0.2106 -0.1799
  774MOL0     O 2044   9.700   1.885   7.496 -0.0466 -0.7499  0.1163
  774MOL0     C 2045   9.650   1.961   7.381  0.4127 -1.1855 -0.1088
  774MOL0     C 2046   9.506   1.999   7.416  0.6601  1.0357  0.9948
  774MOL0     C 2047   9.409   1.876   7.404  0.4689 -0.5993 -0.2788
  774MOL0     C 2048   9.469   1.756   7.323  1.5914  0.6579  0.8697
  774MOL0     C 2049   9.371   1.644   7.329 -0.3260  1.1013  0.2106
  774MOL0     C 2050   9.233   1.673   7.274  0.6070  0.1602 -0.1602
  774MOL0     C 2051   9.157   1.539   7.228 -0.0691  0.4047 -1.7316
  774MOL0     C 2052   9.129   1.453   7.362  0.3594 -0.8148 -0.2846
  774MOL0     N 2053   8.998   1.397   7.336 -1.0298  0.3426 -0.1019
  774MOL0     C 2054   8.961   1.269   7.287 -0.5830 -0.9856  0.0005
  774MOL0     C 2055   8.835   1.258   7.336  0.4372 -0.1121  0.3878
  774MOL0     C 2056   8.738   1.145   7.315 -0.3908 -0.6176 -0.3302
  774MOL0     C 2057   8.795   1.018   7.390  0.9977 -0.9644 -0.1211
  774MOL0     C 2058   8.905   0.945   7.319 -0.9272 -0.0191 -0.2006
  774MOL0     C 2059   8.853   0.873   7.188  0.0991 -0.8420  0.0913
  774MOL0     O 2060   8.750   0.787   7.231 -0.0103 -0.4290 -0.7356
  774MOL0     C 2061   8.703   0.693   7.146  0.9566 -0.4348 -0.8992
  774MOL0     C 2062   8.653   0.574   7.197  0.3347  0.4320 -0.1687
  774MOL0     C 2063   8.620   0.471   7.108 -0.0142  0.1938 -0.5410
  774MOL0     C 2064   8.617   0.493   6.962 -0.3155 -0.1023 -0.0102
  774MOL0     C 2065   8.560   0.384   6.878  0.2049 -0.5520  0.1634
  774MOL0     O 2066   8.620   0.360   6.756 -1.3565 -0.1572  0.3314
  774MOL0     C 2067   8.608   0.228   6.709 -0.5914  0.0246 -0.4926
  774MOL0     C 2068   8.594   0.211   6.571  0.8482  0.4723 -0.2857
  774MOL0     C 2069   8.566   0.088   6.511  0.1563 -0.9612 -0.7021
  774MOL0     C 2070   8.575  -0.026   6.590 -0.6228  0.3770 -0.5649
  774MOL0     O 2071   8.540  -0.142   6.535  0.3206  0.6330  1.3391
  774MOL0     C 2072   8.527  -0.255   6.614  0.1275 -0.1737 -0.1449
  774MOL0     C 2073   8.474  -0.372   6.533  0.3586  0.1387 -0.9151
  774MOL0     C 2074   8.528  -0.405   6.392 -0.5164  0.3373  0.0239
  774MOL0     C 2075   8.674  -0.457   6.402 -0.6008 -1.1851  0.4517
  774MOL0     C 2076   8.733  -0.473   6.258 -0.0010 -0.1005  0.2201
  774MOL0     C 2077   8.872  -0.539   6.268  0.2429  0.4402  0.3193
  774MOL0     C 2078   8.978  -0.431   6.281 -0.1542  0.8574  0.1867
  774MOL0     C 2079   9.112  -0.479   6.339 -0.7035  0.5827  0.2606
  774MOL0    Cl 2080   9.088  -0.510   6.516  0.6719  0.4547 -0.5872
  774MOL0     C 2081   8.628  -0.009   6.719 -0.1368  0.1453  0.0921
  774MOL0     C 2082   8.636   0.110   6.784  0.4674 -0.2626 -0.6463
  774MOL0     O 2083   8.461   0.323   6.928  0.0711  0.1911  0.6685
  774MOL0     C 2084   8.668   0.618   6.918  0.6888  0.0080 -0.6736
  774MOL0     C 2085   8.706   0.718   7.011  0.3844  0.5041  0.3154
  774MOL0     N 2086   8.790   1.376   7.396  0.9507  0.3752 -0.3348
  774MOL0     N 2087   8.891   1.454   7.394 -0.0739  0.3962 -0.1277
  774MOL0     C 2088   9.850   1.738   7.580 -0.0900  0.2641 -0.7274
  774MOL0     C 2089   9.980   1.683   7.601  0.6763  0.1561 -0.2716
  774MOL0     C 2090  10.403   1.600   7.668  0.4076 -0.3215  0.2614
  774MOL0     C 2091  10.464   1.488   7.726 -0.0857  0.0045 -0.3175
  774MOL0     C 2092  10.598   1.480   7.766  0.2009  0.0971 -0.3804
  774MOL0     C 2093  10.683   1.584   7.724  0.2946 -0.0058 -0.8994
  774MOL0     O 2094  10.811   1.574   7.758  0.0330  0.5183 -0.5441
  774MOL0     C 2095  10.894   1.690   7.764 -0.5513 -1.0121 -0.2771
  774MOL0     C 2096  11.008   1.660   7.872  0.2815 -0.0882 -0.1721
  774MOL0     C 2097  10.941   1.631   8.012  0.1291 -0.0731 -0.8778
  774MOL0     C 2098  11.036   1.591   8.125 -0.0253  0.4488 -0.0280
  774MOL0     C 2099  10.973   1.631   8.250 -0.3498 -0.0323  0.0925
  774MOL0     C 2100  10.947   1.643   8.363  0.2753 -1.3165 -0.1396
  774MOL0     C 2101  10.624   1.696   7.662 -0.0381  0.9321  0.3764
  774MOL0     C 2102  10.485   1.708   7.634  0.3450  0.1823 -0.7442
  774MOL0     H 2103  10.153   1.912   7.418  2.2508  0.6487  3.5371
  774MOL0     H 2104   9.929   2.011   7.386 -0.1824 -0.8330 -1.7727
  774MOL0     H 2105   9.666   1.901   7.291  2.6295 -1.5459  0.4431
  774MOL0     H 2106   9.700   2.058   7.379 -2.4378  0.5862  3.4178
  774MOL0     H 2107   9.478   2.073   7.340  1.3973  0.3087 -0.0023
  774MOL0     H 2108   9.502   2.050   7.513 -1.5113 -0.6741  1.9035
  774MOL0     H 2109   9.320   1.902   7.347  1.8707  1.8083 -1.5685
  774MOL0     H 2110   9.385   1.834   7.502  1.4668 -1.6248 -0.4619
  774MOL0     H 2111   9.479   1.776   7.216  1.9071 -0.5752  0.6500
  774MOL0     H 2112   9.566   1.725   7.361  1.5687 -0.1488  0.2997
  774MOL0     H 2113   9.365   1.607   7.432  0.1667  4.6206  1.6238
  774MOL0     H 2114   9.423   1.571   7.266  0.4106 -1.4555  3.4501
  774MOL0     H 2115   9.247   1.730   7.181 -2.3234 -0.4109 -1.0650
  774MOL0     H 2116   9.174   1.735   7.341 -1.4202  0.3924 -2.0612
  774MOL0     H 2117   9.069   1.577   7.175 -2.7227 -2.6448  0.0922
  774MOL0     H 2118   9.222   1.480   7.162  2.2070  2.1483 -1.1794
  774MOL0     H 2119   9.119   1.512   7.454 -1.6021 -4.2742  1.9744
  774MOL0     H 2120   9.212   1.382   7.371  0.4349 -0.7132 -0.1778
  774MOL0     H 2121   9.012   1.193   7.229 -4.2552 -2.3476 -1.8221
  774MOL0     H 2122   8.729   1.133   7.207  1.1674  3.7133 -1.1310
  774MOL0     H 2123   8.642   1.169   7.361  0.8969  3.2949  0.6660
  774MOL0     H 2124   8.713   0.949   7.411  3.3059 -3.3374  1.6765
  774MOL0     H 2125   8.819   1.054   7.490  1.5412 -0.7320 -0.3295
  774MOL0     H 2126   8.995   1.004   7.301 -0.2204 -1.1451 -0.4602
  774MOL0     H 2127   8.932   0.865   7.389 -1.3942 -2.3746 -2.5618
  774MOL0     H 2128   8.936   0.826   7.134  1.4288  2.9038 -1.4542
  774MOL0     H 2129   8.815   0.948   7.118 -1.3308 -3.0764 -1.6985
  774MOL0     H 2130   8.647   0.561   7.304 -2.6953 -5.7067 -0.6654
  774MOL0     H 2131   8.578   0.380   7.149 -2.5087  1.6135  0.2490
  774MOL0     H 2132   8.585   0.300   6.510  1.2082  0.0881 -0.9078
  774MOL0     H 2133   8.527   0.082   6.410 -1.5529  2.6010 -0.4202
  774MOL0     H 2134   8.459  -0.223   6.693  2.0112  3.3339  0.2464
  774MOL0     H 2135   8.628  -0.265   6.657 -0.1109  0.5795  0.6232
  774MOL0     H 2136   8.367  -0.347   6.530 -0.3128 -2.1391  0.9356
  774MOL0     H 2137   8.471  -0.459   6.599 -1.6973  0.2039 -0.8353
  774MOL0     H 2138   8.537  -0.317   6.328  0.3089 -0.1783 -0.5875
  774MOL0     H 2139   8.471  -0.483   6.342 -0.4249  0.8037 -0.8238
  774MOL0     H 2140   8.729  -0.375   6.449 -2.8982  0.3536  0.6467
  774MOL0     H 2141   8.669  -0.551   6.456  0.5046 -1.1371  0.6534
  774MOL0     H 2142   8.733  -0.378   6.204 -1.7147 -1.1565 -1.8541
  774MOL0     H 2143   8.673  -0.551   6.208  0.3195 -0.9816  1.1842
  774MOL0     H 2144   8.887  -0.587   6.171  2.2686  1.2452  0.1814
  774MOL0     H 2145   8.878  -0.613   6.349 -2.8805 -0.9976 -0.6113
  774MOL0     H 2146   8.980  -0.385   6.181 -0.0020  0.8354  0.1796
  774MOL0     H 2147   8.934  -0.352   6.343 -2.5685 -0.7902  0.7314
  774MOL0     H 2148   9.184  -0.396   6.333 -1.3933  1.3347  1.8569
  774MOL0     H 2149   9.151  -0.563   6.281 -0.2993  2.0301 -1.6948
  774MOL0     H 2150   8.658  -0.090   6.784 -0.4990 -1.1093 -1.2529
  774MOL0     H 2151   8.661   0.125   6.888  1.3558  1.9603 -1.1041
  774MOL0     H 2152   8.680   0.638   6.813 -0.9658  0.1103 -0.8724
  774MOL0     H 2153   8.739   0.813   6.971  2.7016  0.2867  1.5666
  774MOL0     H 2154   9.766   1.693   7.631  1.5762 -1.6480  0.4717
  774MOL0     H 2155   9.993   1.595   7.663 -1.2161 -1.3974 -1.9054
  774MOL0     H 2156  10.408   1.400   7.755  0.2462  0.4593  1.8233
  774MOL0     H 2157  10.628   1.397   7.829 -0.1391  0.5250  0.3560
  774MOL0     H 2158  10.837   1.778   7.794 -1.8089 -2.1145  0.6615
  774MOL0     H 2159  10.932   1.723   7.667  0.1295 -1.7049 -0.2596
  774MOL0     H 2160  11.066   1.573   7.839  0.1741 -0.6457  1.0361
  774MOL0     H 2161  11.076   1.746   7.878  0.1575  0.2082 -2.3801
  774MOL0     H 2162  10.871   1.547   8.001 -0.8338  0.4039  1.2360
  774MOL0     H 2163  10.883   1.717   8.046  0.6834  0.0013 -0.1113
  774MOL0     H 2164  11.035   1.482   8.120 -5.0823  0.2969 -1.3703
  774MOL0     H 2165  11.138   1.627   8.109  0.3091 -0.2072  0.5707
  774MOL0     H 2166  10.931   1.656   8.468 -3.3719 -3.3687 -0.2522
  774MOL0     H 2167  10.690   1.777   7.634  0.1659 -0.1851 -2.8785
  774MOL0     H 2168  10.444   1.799   7.591 -1.9055  0.0397  0.9727
  775MOL0     O 2169   0.069   0.049   4.944  0.3563 -0.8094 -0.1916
  775MOL0     C 2170  -0.026   0.086   4.882  0.9311 -0.7466 -0.5704
  775MOL0     O 2171  -0.013   0.160   4.769 -0.1997 -0.5140 -0.4977
  775MOL0     C 2172   0.104   0.186   4.709  0.5569 -0.4439 -0.0680
  775MOL0     C 2173   0.144   0.115   4.602  0.0123  0.0798  1.6454
  775MOL0     C 2174   0.266   0.149   4.538 -0.6090 -0.6390 -0.1110
  775MOL0     C 2175   0.342   0.257   4.586 -0.0078  0.9992 -0.0979
  775MOL0     O 2176   0.454   0.274   4.513  0.1192  1.5496  0.3854
  775MOL0     C 2177   0.536   0.383   4.529 -0.9479 -0.4640  0.0503
  775MOL0     C 2178   0.637   0.401   4.401  0.0556  0.1730 -1.0675
  775MOL0     C 2179   0.715   0.530   4.426  0.0128 -0.6370 -0.7887
  775MOL0     C 2180   0.830   0.518   4.534  0.7592  0.8518 -0.7921
  775MOL0     C 2181   0.895   0.659   4.538 -0.3903 -1.1633  0.1899
  775MOL0     C 2182   1.022   0.652   4.618  1.0224 -0.7194  0.8080
  775MOL0     C 2183   1.071   0.799   4.630  0.6209  0.6678 -0.1318
  775MOL0     C 2184   1.216   0.831   4.664 -0.1350 -0.2231  0.2009
  775MOL0     N 2185   1.299   0.821   4.538  0.7693  0.2792  1.0209
  775MOL0     C 2186   1.389   0.722   4.515 -0.3469 -0.4679 -0.4126
  775MOL0     C 2187   1.428   0.749   4.387  0.5008 -0.1863 -0.8875
  775MOL0     C 2188   1.563   0.705   4.344 -0.3954  0.0311 -0.5642
  775MOL0     C 2189   1.592   0.553   4.327  0.1707 -0.6568  0.0017
  775MOL0     C 2190   1.725   0.529   4.266  0.0265 -0.6624 -0.3813
  775MOL0     C 2191   1.756   0.382   4.219  0.6249 -1.4086  0.2305
  775MOL0     O 2192   1.860   0.393   4.114 -0.1490  1.3270 -0.6944
  775MOL0     C 2193   1.942   0.290   4.113 -0.6448 -0.7990  0.7625
  775MOL0     C 2194   2.069   0.325   4.088  0.1776  0.4393  0.8025
  775MOL0     C 2195   2.169   0.221   4.090  0.6400 -0.1011 -0.1562
  775MOL0     C 2196   2.135   0.087   4.112 -0.7115  1.0873 -0.0707
  775MOL0     C 2197   2.241  -0.011   4.120 -0.5111  0.6280  0.2622
  775MOL0     O 2198   2.364   0.036   4.149  0.0425 -0.1020  0.5323
  775MOL0     C 2199   2.478  -0.042   4.128 -0.5171  0.3978  0.2947
  775MOL0     C 2200   2.569  -0.059   4.240  1.2182  0.1229  0.0736
  775MOL0     C 2201   2.679  -0.144   4.213 -0.2936 -0.5079  0.1133
  775MOL0     C 2202   2.705  -0.213   4.092 -0.4496 -1.2869 -0.2174
  775MOL0     O 2203   2.818  -0.284   4.073 -0.3774  0.0851 -0.2363
  775MOL0     C 2204   2.844  -0.388   3.972  0.8496  0.5275 -0.1678
  775MOL0     C 2205   2.979  -0.456   3.995 -0.4089  0.2017 -0.8603
  775MOL0     C 2206   2.996  -0.568   3.884  1.0942 -1.2200 -0.4390
  775MOL0     C 2207   3.106  -0.666   3.901  0.5066 -0.7171 -0.6402
  775MOL0     C 2208   3.104  -0.757   3.780 -0.0092  0.0980 -0.0428
  775MOL0     C 2209   2.987  -0.857   3.753 -0.1656 -0.0517 -0.3647
  775MOL0     C 2210   2.980  -0.943   3.876  0.1622 -1.1245 -0.3494
  775MOL0     C 2211   2.872  -1.043   3.847  0.5511  0.3579 -0.4544
  775MOL0    Cl 2212   2.702  -0.977   3.870  0.1090 -0.2818 -0.3336
  775MOL0     C 2213   2.622  -0.184   3.985 -1.1575 -0.9412  0.2248
  775MOL0     C 2214   2.506  -0.104   4.005  0.6390 -0.6708  0.2080
  775MOL0     O 2215   2.218  -0.132   4.104 -1.1220 -0.7143  0.0212
  775MOL0     C 2216   2.001   0.044   4.110  0.8841 -0.3451 -0.3126
  775MOL0     C 2217   1.909   0.151   4.123 -1.0242 -0.6922  0.4236
  775MOL0     N 2218   1.358   0.858   4.337 -0.1329  0.9482  0.5014
  775MOL0     N 2219   1.287   0.900   4.428  0.0549 -0.5527 -0.7922
  775MOL0     C 2220   0.300   0.332   4.692 -0.5545 -0.0237 -0.1603
  775MOL0     C 2221   0.179   0.298   4.753 -0.2570 -0.2554  0.1545
  775MOL0     C 2222  -0.164   0.073   4.935 -0.3646 -1.1070 -0.0388
  775MOL0     C 2223  -0.277   0.099   4.855  0.0207  0.2029  0.7918
  775MOL0     C 2224  -0.406   0.062   4.886 -0.2039 -0.4194 -0.1778
  775MOL0     C 2225  -0.436   0.002   5.015 -0.1742  0.2419  0.5491
  775MOL0     O 2226  -0.566  -0.036   5.029 -0.0452  0.3970 -0.5018
  775MOL0     C 2227  -0.598  -0.088   5.165  0.2522 -0.4573 -0.5660
  775MOL0     C 2228  -0.750  -0.092   5.172  0.7863  0.0376 -0.2282
  775MOL0     C 2229  -0.800  -0.216   5.247  0.4877 -0.6931 -0.2638
  775MOL0     C 2230  -0.936  -0.185   5.317  0.4007 -0.0102 -0.7755
  775MOL0     C 2231  -0.969  -0.290   5.419 -1.1181 -0.6573 -0.1372
  775MOL0     C 2232  -0.966  -0.379   5.499  0.1679  0.0847 -0.0981
  775MOL0     C 2233  -0.322  -0.012   5.101  0.6856 -0.0394 -0.6885
  775MOL0     C 2234  -0.186   0.022   5.066 -0.2706  0.3526 -0.3322
  775MOL0     H 2235   0.073   0.043   4.563  0.0821  0.7045  0.2874
  775MOL0     H 2236   0.285   0.085   4.452  0.6890 -0.2193 -0.1636
  775MOL0     H 2237   0.587   0.366   4.624  1.2766  1.2259 -0.7627
  775MOL0     H 2238   0.472   0.471   4.536 -0.7792 -0.4728  2.4381
  775MOL0     H 2239   0.575   0.417   4.312  0.2971  1.6570 -0.9857
  775MOL0     H 2240   0.703   0.315   4.388 -0.5771 -0.8945  1.9233
  775MOL0     H 2241   0.647   0.613   4.449  1.0596  0.2765 -0.9110
  775MOL0     H 2242   0.760   0.562   4.332 -1.6703  0.2163 -1.3526
  775MOL0     H 2243   0.791   0.485   4.631  3.2446 -0.0724 -0.0212
  775MOL0     H 2244   0.895   0.435   4.507 -0.0194  0.5853 -1.9212
  775MOL0     H 2245   0.836   0.741   4.580  3.0364  2.9655 -2.2558
  775MOL0     H 2246   0.932   0.695   4.441  0.3064 -0.4647  0.7021
  775MOL0     H 2247   1.085   0.582   4.563 -0.1156 -1.5867  0.5839
  775MOL0     H 2248   1.006   0.606   4.716  2.4224 -0.9095  0.9694
  775MOL0     H 2249   1.065   0.845   4.530  1.3780 -0.4883 -0.7406
  775MOL0     H 2250   1.006   0.848   4.702 -0.6949  0.3514 -1.0653
  775MOL0     H 2251   1.255   0.774   4.748 -0.6081  1.6954  1.7856
  775MOL0     H 2252   1.216   0.936   4.694 -0.0192  0.7699 -2.9150
  775MOL0     H 2253   1.416   0.642   4.583 -3.1904 -0.9474  0.2454
  775MOL0     H 2254   1.624   0.724   4.433 -0.6774 -2.2340  0.1715
  775MOL0     H 2255   1.593   0.760   4.254  1.1102 -1.0187 -0.7365
  775MOL0     H 2256   1.514   0.507   4.266  1.3620 -3.3256  0.3537
  775MOL0     H 2257   1.605   0.504   4.425  1.7494 -1.3229 -0.4988
  775MOL0     H 2258   1.728   0.593   4.177  1.3834 -1.6439 -1.0850
  775MOL0     H 2259   1.804   0.569   4.332 -0.0618  0.8863 -1.1533
  775MOL0     H 2260   1.667   0.344   4.167  0.6535 -0.3981 -0.5817
  775MOL0     H 2261   1.780   0.333   4.314  0.8207  0.4141  1.1581
  775MOL0     H 2262   2.087   0.432   4.085 -1.2471  0.7393  1.8136
  775MOL0     H 2263   2.266   0.261   4.116  0.7294 -0.0414 -0.5858
  775MOL0     H 2264   2.547  -0.018   4.338  1.6010 -2.2473  1.2224
  775MOL0     H 2265   2.751  -0.150   4.294 -0.1879 -4.2856 -0.0840
  775MOL0     H 2266   2.864  -0.342   3.874 -0.9373  1.6580 -0.0522
  775MOL0     H 2267   2.762  -0.461   3.971  1.1570  0.1247  1.4509
  775MOL0     H 2268   2.980  -0.490   4.099 -0.6641 -1.6139 -1.4214
  775MOL0     H 2269   3.067  -0.390   3.992  1.1475 -1.7939 -2.4534
  775MOL0     H 2270   3.002  -0.513   3.790  1.6742  0.5411  0.5766
  775MOL0     H 2271   2.901  -0.621   3.890 -0.2851  1.1789  0.3154
  775MOL0     H 2272   3.194  -0.600   3.910 -1.4507  1.7767  2.1671
  775MOL0     H 2273   3.101  -0.729   3.990  1.8615  0.0815  0.0480
  775MOL0     H 2274   3.196  -0.814   3.763 -0.2513 -0.8386  1.6001
  775MOL0     H 2275   3.101  -0.693   3.691 -0.8818  0.3898  0.1858
  775MOL0     H 2276   3.010  -0.918   3.665  0.0779 -5.1972  2.8438
  775MOL0     H 2277   2.891  -0.813   3.728  0.3465  2.8998  2.1714
  775MOL0     H 2278   3.074  -0.997   3.893 -1.1259 -3.5093 -0.2390
  775MOL0     H 2279   2.971  -0.881   3.966  4.7032  1.2065 -1.2083
  775MOL0     H 2280   2.880  -1.142   3.892  0.6864  0.6571  0.1891
  775MOL0     H 2281   2.878  -1.067   3.740 -2.5887 -2.0218 -0.2482
  775MOL0     H 2282   2.644  -0.226   3.887 -2.1422  3.2974 -2.0190
  775MOL0     H 2283   2.433  -0.100   3.925  0.3232 -1.6859  0.4395
  775MOL0     H 2284   1.949  -0.051   4.105 -4.1569  2.1427 -4.5769
  775MOL0     H 2285   1.802   0.138   4.130 -1.6656  3.6805  2.7176
  775MOL0     H 2286   0.370   0.405   4.731  0.5734 -0.6937 -0.8631
  775MOL0     H 2287   0.152   0.354   4.842  0.6079 -2.2755  1.7836
  775MOL0     H 2288  -0.249   0.131   4.755 -4.1632 -2.7449 -1.6900
  775MOL0     H 2289  -0.489   0.070   4.817 -0.4938 -4.8187 -0.5974
  775MOL0     H 2290  -0.552  -0.022   5.239  3.3167 -0.8380 -1.9697
  775MOL0     H 2291  -0.561  -0.189   5.185 -2.5070 -1.0976  2.0544
  775MOL0     H 2292  -0.786  -0.003   5.224 -0.8002  0.1255 -1.4012
  775MOL0     H 2293  -0.788  -0.094   5.069  1.7417  1.8503 -0.6565
  775MOL0     H 2294  -0.735  -0.245   5.330 -1.4927 -0.2650  1.5372
  775MOL0     H 2295  -0.814  -0.301   5.181  0.3582 -0.3616 -0.6661
  775MOL0     H 2296  -0.939  -0.090   5.372 -0.4263  0.0538 -0.9154
  775MOL0     H 2297  -1.020  -0.170   5.248  0.1527  1.6195 -0.1744
  775MOL0     H 2298  -0.994  -0.450   5.574 -4.4876  2.1737  0.5055
  775MOL0     H 2299  -0.336  -0.067   5.194 -1.1909  1.5069  0.0176
  775MOL0     H 2300  -0.107   0.013   5.139 -2.2017  1.3453  2.0183
  776MOL0     O 2301   7.260   5.693   1.942 -0.0074  0.3028  0.3530
  776MOL0     C 2302   7.153   5.750   1.918 -0.1147 -0.1268  0.2895
  776MOL0     O 2303   7.039   5.696   1.855  0.9566  0.5074 -0.3687
  776MOL0     C 2304   7.062   5.589   1.770  1.2716 -0.8254  1.6926
  776MOL0     C 2305   7.139   5.595   1.650  0.3517  0.0382 -0.5344
  776MOL0     C 2306   7.164   5.483   1.575  0.3736  0.0726  0.4481
  776MOL0     C 2307   7.105   5.359   1.609  0.8662  0.1392  0.4882
  776MOL0     O 2308   7.105   5.266   1.502  0.2850 -0.4386  0.2000
  776MOL0     C 2309   6.979   5.213   1.463  0.0346 -0.8086  0.2158
  776MOL0     C 2310   7.005   5.091   1.373 -0.0619 -0.7087 -0.7953
  776MOL0     C 2311   6.873   5.019   1.332 -0.4763  0.5454  0.5793
  776MOL0     C 2312   6.774   4.974   1.454  0.1066 -0.0016  0.4802
  776MOL0     C 2313   6.649   4.922   1.394  0.5113  0.6465 -0.2991
  776MOL0     C 2314   6.562   4.841   1.495 -0.8334  0.0595  0.5879
  776MOL0     C 2315   6.435   4.775   1.437 -0.7152  0.9446 -0.0479
  776MOL0     C 2316   6.311   4.871   1.440 -0.1414 -0.1203 -0.5125
  776MOL0     N 2317   6.196   4.798   1.372  0.6271  0.1244 -0.5842
  776MOL0     C 2318   6.090   4.855   1.303 -0.2635  0.0650 -0.0743
  776MOL0     C 2319   6.025   4.747   1.247  0.2515  0.6571 -0.1794
  776MOL0     C 2320   5.904   4.760   1.159 -0.7240 -0.5542  0.4795
  776MOL0     C 2321   5.772   4.753   1.235 -0.2565  0.1653 -0.5662
  776MOL0     C 2322   5.764   4.651   1.351 -0.4371  0.8813  0.2127
  776MOL0     C 2323   5.623   4.662   1.418  1.3038  0.0265  0.1236
  776MOL0     O 2324   5.520   4.627   1.327  0.5484 -0.1450  0.6770
  776MOL0     C 2325   5.390   4.652   1.354 -0.7202  0.4166  0.2924
  776MOL0     C 2326   5.308   4.726   1.286  0.2302 -0.7568 -0.9871
  776MOL0     C 2327   5.172   4.737   1.324 -0.2007 -0.3611  0.0290
  776MOL0     C 2328   5.122   4.661   1.435  0.9100 -1.0766  1.0755
  776MOL0     C 2329   4.976   4.668   1.473  0.1677  0.7937 -0.3626
  776MOL0     O 2330   4.947   4.629   1.595  0.8720 -0.3237 -0.5636
  776MOL0     C 2331   4.830   4.647   1.672 -0.3240 -0.5490  1.0164
  776MOL0     C 2332   4.841   4.703   1.800 -0.9347 -0.0735 -0.7487
  776MOL0     C 2333   4.729   4.737   1.878 -0.7072 -0.0815  0.8064
  776MOL0     C 2334   4.603   4.706   1.829  0.4599  0.0673 -0.3057
  776MOL0     O 2335   4.492   4.739   1.900 -0.1691 -0.6669 -0.4131
  776MOL0     C 2336   4.499   4.691   2.040 -0.9025 -0.5510  0.0573
  776MOL0     C 2337   4.357   4.696   2.099 -0.4387 -0.1862 -0.1676
  776MOL0     C 2338   4.346   4.625   2.236  0.7612  0.4111 -0.3324
  776MOL0     C 2339   4.214   4.677   2.301 -0.4140  0.7216 -0.8783
  776MOL0     C 2340   4.164   4.596   2.428  0.4843 -0.3384  0.8125
  776MOL0     C 2341   4.120   4.446   2.399  0.2067 -0.0874  0.3060
  776MOL0     C 2342   4.104   4.376   2.527 -0.2843 -0.2916  0.5879
  776MOL0     C 2343   4.027   4.239   2.525  0.5852 -0.1973  0.0306
  776MOL0    Cl 2344   4.118   4.123   2.418  0.0471 -0.1041 -0.0256
  776MOL0     C 2345   4.588   4.632   1.711 -0.1633  0.5339  0.7200
  776MOL0     C 2346   4.702   4.605   1.622  0.1145  0.4267 -0.1913
  776MOL0     O 2347   4.899   4.724   1.396  0.2397  0.1246  0.2027
  776MOL0     C 2348   5.213   4.578   1.498  0.1196  0.4528 -0.3965
  776MOL0     C 2349   5.344   4.576   1.460  0.6291 -0.1113 -0.3910
  776MOL0     N 2350   6.078   4.632   1.306  0.1435  0.1068 -1.4825
  776MOL0     N 2351   6.178   4.660   1.377 -0.4555 -0.7189  0.0388
  776MOL0     C 2352   7.017   5.351   1.717 -0.4860  0.4656 -0.8832
  776MOL0     C 2353   7.002   5.466   1.796  1.0776 -0.1167 -0.2167
  776MOL0     C 2354   7.132   5.889   1.966  0.4792  0.3003  0.7536
  776MOL0     C 2355   7.008   5.952   1.921  0.2881  1.4940 -0.7037
  776MOL0     C 2356   6.980   6.081   1.958  0.1764  0.1343  0.2436
  776MOL0     C 2357   7.061   6.151   2.046  0.8058 -0.5299  1.6515
  776MOL0     O 2358   7.011   6.271   2.072 -0.6200 -0.3959 -0.1611
  776MOL0     C 2359   7.108   6.354   2.132 -0.0132  0.2419 -0.8020
  776MOL0     C 2360   7.209   6.390   2.030 -0.1907 -1.0992 -1.3423
  776MOL0     C 2361   7.301   6.505   2.047 -0.2614  0.7485 -0.8623
  776MOL0     C 2362   7.367   6.529   2.183  0.2274  0.4155  0.3783
  776MOL0     C 2363   7.459   6.422   2.220 -0.8894  0.2192  0.2753
  776MOL0     C 2364   7.518   6.342   2.282 -0.5756 -0.6770 -0.3422
  776MOL0     C 2365   7.176   6.085   2.091 -0.5124 -0.1416 -0.1665
  776MOL0     C 2366   7.212   5.952   2.060 -0.8859  0.1325  0.5544
  776MOL0     H 2367   7.201   5.675   1.612 -0.3386  0.6245 -0.4353
  776MOL0     H 2368   7.231   5.491   1.491  0.6771 -0.8359  0.5953
  776MOL0     H 2369   6.928   5.290   1.405  1.1932 -1.3521 -1.6294
  776MOL0     H 2370   6.923   5.182   1.551 -1.1382 -3.3360 -1.3219
  776MOL0     H 2371   7.077   5.022   1.417 -1.2753 -1.4865  0.0633
  776MOL0     H 2372   7.059   5.135   1.289 -0.5998 -1.4149 -1.5223
  776MOL0     H 2373   6.909   4.931   1.279 -0.9721 -0.3302  1.6421
  776MOL0     H 2374   6.813   5.076   1.261 -1.0938 -1.4514 -0.5759
  776MOL0     H 2375   6.825   4.896   1.512  1.6559 -0.5634 -1.5350
  776MOL0     H 2376   6.739   5.052   1.521  3.1592 -0.9544  3.4833
  776MOL0     H 2377   6.680   4.859   1.311  0.4087  1.1519 -0.7269
  776MOL0     H 2378   6.587   5.000   1.350 -1.8477 -0.9500  0.0200
  776MOL0     H 2379   6.529   4.904   1.578 -0.2184 -0.2724  1.0918
  776MOL0     H 2380   6.626   4.767   1.543 -0.5812 -1.4458 -1.9148
  776MOL0     H 2381   6.461   4.727   1.343 -4.3069 -1.2898 -0.0932
  776MOL0     H 2382   6.409   4.687   1.496  0.3405  0.2704 -0.5653
  776MOL0     H 2383   6.342   4.959   1.383 -0.1078 -0.1616 -0.5580
  776MOL0     H 2384   6.280   4.895   1.542 -1.5673 -0.1444 -0.9197
  776MOL0     H 2385   6.062   4.959   1.287  0.7560  0.5810  1.3294
  776MOL0     H 2386   5.921   4.676   1.091  2.2353 -0.0562  0.4925
  776MOL0     H 2387   5.906   4.849   1.096 -0.0661 -1.4549 -0.8264
  776MOL0     H 2388   5.692   4.742   1.162 -0.7187  0.1276 -0.0626
  776MOL0     H 2389   5.749   4.849   1.283  3.6350  3.6322 -4.8102
  776MOL0     H 2390   5.786   4.546   1.330  1.2282  0.4963  3.3435
  776MOL0     H 2391   5.840   4.682   1.422 -1.9966  1.4242  1.7151
  776MOL0     H 2392   5.617   4.764   1.456 -1.2633  0.7670 -2.0072
  776MOL0     H 2393   5.619   4.589   1.500  1.0478 -0.1267 -0.0252
  776MOL0     H 2394   5.354   4.772   1.199  1.7009  0.6334  0.4457
  776MOL0     H 2395   5.092   4.790   1.273 -2.4617 -1.4608  2.2335
  776MOL0     H 2396   4.934   4.736   1.844 -1.4333  2.1817 -1.2704
  776MOL0     H 2397   4.742   4.800   1.965 -2.9884  1.2914  0.2198
  776MOL0     H 2398   4.574   4.738   2.105 -1.3294  1.0068 -0.5341
  776MOL0     H 2399   4.537   4.588   2.036  0.9876  0.1489 -1.3311
  776MOL0     H 2400   4.284   4.668   2.023 -1.1455 -3.7504  1.6028
  776MOL0     H 2401   4.339   4.802   2.124 -0.2476 -0.2120  0.0778
  776MOL0     H 2402   4.428   4.648   2.304  1.6772  1.6354 -1.7880
  776MOL0     H 2403   4.342   4.516   2.230 -1.3145  0.3920  0.5096
  776MOL0     H 2404   4.232   4.781   2.331  0.7776  0.2432  0.1405
  776MOL0     H 2405   4.125   4.686   2.239 -1.3987  3.5063  0.7477
  776MOL0     H 2406   4.086   4.647   2.485  3.1125  1.1968  3.3081
  776MOL0     H 2407   4.249   4.608   2.495  1.3679  0.1339 -0.3626
  776MOL0     H 2408   4.190   4.394   2.334  1.0735  0.0713  1.0988
  776MOL0     H 2409   4.021   4.453   2.353  0.0121  3.1043  0.9533
  776MOL0     H 2410   4.192   4.365   2.591 -0.8177  0.7976  1.5362
  776MOL0     H 2411   4.054   4.441   2.599 -1.0051 -1.3817  1.0983
  776MOL0     H 2412   3.931   4.252   2.475  0.0773  2.2781  1.4534
  776MOL0     H 2413   4.001   4.197   2.623  4.0678 -0.1856  1.1197
  776MOL0     H 2414   4.496   4.593   1.667 -0.3524 -0.1286  1.6791
  776MOL0     H 2415   4.695   4.539   1.536 -2.0139  0.0464  0.1978
  776MOL0     H 2416   5.179   4.528   1.588 -1.0006 -1.0770 -1.6170
  776MOL0     H 2417   5.420   4.509   1.501  0.5315 -0.1517 -0.2767
  776MOL0     H 2418   6.965   5.261   1.748 -1.6750  1.0778 -1.0614
  776MOL0     H 2419   6.930   5.464   1.877  3.6281  0.2645  2.2178
  776MOL0     H 2420   6.938   5.898   1.858 -1.1338  0.6557  1.4529
  776MOL0     H 2421   6.892   6.131   1.920 -3.1788 -2.0116  4.4600
  776MOL0     H 2422   7.164   6.316   2.218  4.6664  1.5612 -2.9094
  776MOL0     H 2423   7.049   6.440   2.163 -1.4095 -0.7985 -0.4765
  776MOL0     H 2424   7.267   6.301   2.003  0.7992 -1.1796  0.8325
  776MOL0     H 2425   7.145   6.424   1.948 -0.3211 -2.6173 -1.9092
  776MOL0     H 2426   7.267   6.605   2.017  1.0821  3.8119  5.8120
  776MOL0     H 2427   7.379   6.492   1.971 -0.0243  0.9826 -0.6652
  776MOL0     H 2428   7.425   6.621   2.173 -0.4511  0.6222 -2.8780
  776MOL0     H 2429   7.284   6.542   2.253 -0.1031  0.6687 -0.0588
  776MOL0     H 2430   7.573   6.283   2.351  1.1483  0.7147 -0.4695
  776MOL0     H 2431   7.230   6.132   2.172  0.6324  1.6443 -1.8921
  776MOL0     H 2432   7.290   5.899   2.115 -0.8653  1.0391  1.4364
  777MOL0     O 2433   5.723   5.923  10.965  0.0600 -0.0111  0.8678
  777MOL0     C 2434   5.774   6.006  11.033 -0.1235 -0.0265  1.6123
  777MOL0     O 2435   5.702   6.076  11.123  0.1323  0.1241 -0.4874
  777MOL0     C 2436   5.573   6.049  11.138 -0.4919 -0.6261  0.4674
  777MOL0     C 2437   5.489   6.080  11.035  0.8240  0.3390 -0.3636
  777MOL0     C 2438   5.352   6.054  11.036 -0.1255 -0.7726  0.3942
  777MOL0     C 2439   5.289   5.991  11.153 -0.0412 -1.1455  0.0856
  777MOL0     O 2440   5.155   5.980  11.166 -0.5643  0.5462  0.6168
  777MOL0     C 2441   5.076   5.959  11.052  0.2504  0.1883  0.5650
  777MOL0     C 2442   4.930   5.952  11.107 -0.1420 -0.0684  0.0772
  777MOL0     C 2443   4.821   5.965  11.000 -0.2581 -0.6735 -0.1395
  777MOL0     C 2444   4.814   5.868  10.879 -0.1097 -0.4368  1.3506
  777MOL0     C 2445   4.681   5.872  10.806  0.9723 -0.3500  0.9592
  777MOL0     C 2446   4.664   5.766  10.696 -0.1179 -0.6866  0.1823
  777MOL0     C 2447   4.679   5.624  10.744 -0.0043  0.0349 -0.0660
  777MOL0     C 2448   4.653   5.532  10.632  0.3816  0.3843  0.0251
  777MOL0     N 2449   4.523   5.457  10.628  0.3369 -0.7846 -0.4660
  777MOL0     C 2450   4.495   5.354  10.715  0.5006  1.2240  0.6441
  777MOL0     C 2451   4.363   5.344  10.710  0.0853 -0.4613 -0.0780
  777MOL0     C 2452   4.272   5.270  10.807 -1.0774  0.8948 -0.1623
  777MOL0     C 2453   4.206   5.149  10.746  0.5149  0.3144 -0.1822
  777MOL0     C 2454   4.135   5.063  10.846  0.0619  0.2680 -0.7328
  777MOL0     C 2455   4.069   4.943  10.777  0.0439 -0.0761 -0.4704
  777MOL0     O 2456   3.974   4.890  10.871 -0.0414  0.9854  0.5381
  777MOL0     C 2457   3.882   4.797  10.813  1.3306  0.4533 -0.1830
  777MOL0     C 2458   3.905   4.685  10.737 -0.6463  0.5600  0.0754
  777MOL0     C 2459   3.806   4.591  10.700 -0.3283 -0.1990 -0.0031
  777MOL0     C 2460   3.676   4.614  10.748  0.7658  0.0635  1.0476
  777MOL0     C 2461   3.564   4.513  10.719 -1.0599 -0.4040  0.4978
  777MOL0     O 2462   3.462   4.503  10.801 -0.5325 -0.5932 -0.2637
  777MOL0     C 2463   3.331   4.468  10.759 -0.2127 -0.3554 -0.9401
  777MOL0     C 2464   3.308   4.336  10.718 -0.4753 -0.6508  0.4712
  777MOL0     C 2465   3.179   4.301  10.690 -0.1664  0.4502  0.8668
  777MOL0     C 2466   3.075   4.389  10.707  0.3653  0.5541 -0.1741
  777MOL0     O 2467   2.956   4.327  10.680  0.2385  0.6309 -0.5354
  777MOL0     C 2468   2.838   4.406  10.638 -0.2987 -0.2629 -0.0910
  777MOL0     C 2469   2.721   4.429  10.738 -0.6724  0.8399  0.2996
  777MOL0     C 2470   2.677   4.298  10.802  0.0046 -0.3353 -0.8694
  777MOL0     C 2471   2.581   4.332  10.925  0.7245 -0.7571  1.0510
  777MOL0     C 2472   2.498   4.209  10.978 -0.0771  1.1094  1.0204
  777MOL0     C 2473   2.373   4.173  10.886 -0.2238  0.2998 -0.1819
  777MOL0     C 2474   2.257   4.271  10.915 -0.4360  0.3636  0.1736
  777MOL0     C 2475   2.131   4.202  10.847 -0.4863  0.6839  0.7152
  777MOL0    Cl 2476   1.976   4.262  10.903  0.5336  0.0329  0.5713
  777MOL0     C 2477   3.098   4.523  10.744  0.9339  0.4600 -0.4267
  777MOL0     C 2478   3.225   4.554  10.781 -0.0866  0.4925 -0.2166
  777MOL0     O 2479   3.571   4.453  10.608 -0.1711 -0.6513 -0.0870
  777MOL0     C 2480   3.650   4.728  10.823 -0.4978 -0.5051  0.8199
  777MOL0     C 2481   3.747   4.818  10.856  0.0831 -1.0875  1.0509
  777MOL0     N 2482   4.308   5.437  10.618  0.7523  0.4065 -0.2261
  777MOL0     N 2483   4.405   5.497  10.569 -0.5060  0.4817 -0.0312
  777MOL0     C 2484   5.373   5.958  11.267  0.0261  0.1085  0.3218
  777MOL0     C 2485   5.516   5.984  11.247  0.2064 -0.5565 -0.7027
  777MOL0     C 2486   5.920   6.025  11.031  0.7315  0.2499  0.4473
  777MOL0     C 2487   5.986   6.076  11.137  0.1937 -0.1899  0.1569
  777MOL0     C 2488   6.126   6.085  11.138 -0.4112 -0.0249 -0.0284
  777MOL0     C 2489   6.208   6.011  11.046  0.3125 -1.1142  0.0854
  777MOL0     O 2490   6.341   6.011  11.050 -0.4833  0.5464  0.4671
  777MOL0     C 2491   6.422   5.897  11.001  0.6807  0.2964 -1.0153
  777MOL0     C 2492   6.403   5.783  11.103  0.3812  0.0890  0.9527
  777MOL0     C 2493   6.491   5.668  11.042  1.4660 -0.7284 -1.6229
  777MOL0     C 2494   6.636   5.683  11.095  0.7545 -0.0544 -0.0525
  777MOL0     C 2495   6.657   5.585  11.209  0.2220  0.1262 -0.1017
  777MOL0     C 2496   6.683   5.498  11.294  0.2923 -0.3347 -0.8632
  777MOL0     C 2497   6.132   5.973  10.930 -0.8647 -0.0485 -0.1035
  777MOL0     C 2498   5.995   5.979  10.924 -1.2370  0.0882 -0.1782
  777MOL0     H 2499   5.539   6.131  10.952  2.2007 -0.1235  0.1557
  777MOL0     H 2500   5.295   6.091  10.952 -1.4956  2.7116  2.6122
  777MOL0     H 2501   5.103   5.873  10.989  1.1662  1.0208 -0.2018
  777MOL0     H 2502   5.079   6.044  10.983 -0.4586  0.3668  0.7424
  777MOL0     H 2503   4.919   6.017  11.194  2.6531 -1.8368  1.9283
  777MOL0     H 2504   4.922   5.853  11.152 -0.6817  0.9640  2.3787
  777MOL0     H 2505   4.823   6.066  10.960  0.6998  0.7308  3.1192
  777MOL0     H 2506   4.723   5.952  11.048 -0.6785  0.1398 -0.7642
  777MOL0     H 2507   4.902   5.904  10.824 -0.8763  1.4276  1.2820
  777MOL0     H 2508   4.834   5.764  10.905 -2.0090 -1.6296 -1.3917
  777MOL0     H 2509   4.670   5.973  10.766 -1.0277 -1.6948 -2.2874
  777MOL0     H 2510   4.598   5.862  10.877  0.5438 -0.5636  0.4323
  777MOL0     H 2511   4.745   5.773  10.623  2.7603 -2.6787  2.9526
  777MOL0     H 2512   4.567   5.781  10.648  0.9620  1.0833 -1.6274
  777MOL0     H 2513   4.776   5.604  10.791 -0.4848 -1.4556  0.3403
  777MOL0     H 2514   4.604   5.608  10.822 -0.5706 -0.7756 -0.7571
  777MOL0     H 2515   4.731   5.455  10.623 -0.1028 -0.3125  1.5075
  777MOL0     H 2516   4.647   5.591  10.541 -1.1426 -0.4951 -0.4844
  777MOL0     H 2517   4.559   5.291  10.775  0.9439  0.6199 -0.4301
  777MOL0     H 2518   4.199   5.339  10.850 -0.9860  2.4585 -2.3513
  777MOL0     H 2519   4.335   5.246  10.893  2.7446 -0.0755 -2.9817
  777MOL0     H 2520   4.282   5.080  10.709  1.9583  0.1315  2.8240
  777MOL0     H 2521   4.134   5.176  10.668 -0.8905  1.0394  1.2974
  777MOL0     H 2522   4.198   5.026  10.927  1.8527  1.6127 -1.4289
  777MOL0     H 2523   4.058   5.128  10.891  0.6011 -0.1383  0.8416
  777MOL0     H 2524   4.155   4.879  10.757 -0.1737 -0.7434  0.6418
  777MOL0     H 2525   4.016   4.957  10.683  2.1788  0.6541 -1.6116
  777MOL0     H 2526   4.006   4.671  10.699 -0.4981  1.8002 -0.0320
  777MOL0     H 2527   3.830   4.503  10.642  3.6187  1.4380 -1.1717
  777MOL0     H 2528   3.393   4.269  10.711  1.1992  0.8864  3.8126
  777MOL0     H 2529   3.156   4.198  10.663 -1.6847  0.9066  0.3466
  777MOL0     H 2530   2.788   4.364  10.550 -3.5066  2.6206  0.1597
  777MOL0     H 2531   2.875   4.494  10.586 -0.9983  0.9132  1.3088
  777MOL0     H 2532   2.637   4.482  10.693  1.2989  2.0377 -2.2061
  777MOL0     H 2533   2.758   4.502  10.810  0.4496  2.3422 -1.7042
  777MOL0     H 2534   2.763   4.241  10.837 -0.3742  0.3506  1.3777
  777MOL0     H 2535   2.618   4.242  10.728 -1.7481 -0.0555  0.2387
  777MOL0     H 2536   2.643   4.378  11.002  0.0137 -1.4361  2.0739
  777MOL0     H 2537   2.509   4.403  10.884 -2.0245 -1.4814  4.1646
  777MOL0     H 2538   2.451   4.235  11.074 -0.9313  0.5337  0.7681
  777MOL0     H 2539   2.563   4.122  10.992  1.1540  2.1444  2.0553
  777MOL0     H 2540   2.342   4.071  10.911 -0.6308 -0.0473 -1.9900
  777MOL0     H 2541   2.395   4.187  10.780  0.2127 -0.5703 -0.2136
  777MOL0     H 2542   2.254   4.284  11.023  4.0404  2.1918  0.3295
  777MOL0     H 2543   2.283   4.371  10.878 -1.1187 -0.5157 -3.0200
  777MOL0     H 2544   2.132   4.093  10.863  2.2125  0.3349 -1.1215
  777MOL0     H 2545   2.136   4.198  10.738 -0.1606 -1.7235  0.7575
  777MOL0     H 2546   3.015   4.593  10.738  0.0532 -0.0477  3.2937
  777MOL0     H 2547   3.254   4.653  10.814 -0.3535  1.1818 -1.9365
  777MOL0     H 2548   3.547   4.750  10.849 -1.1082 -1.2114 -0.8660
  777MOL0     H 2549   3.725   4.908  10.912  2.1059 -0.1834  0.4992
  777MOL0     H 2550   5.329   5.901  11.348 -1.7668 -0.0560 -0.7036
  777MOL0     H 2551   5.587   5.962  11.327 -1.7929 -0.0662  1.3153
  777MOL0     H 2552   5.933   6.114  11.224 -2.4342 -3.1895  0.0608
  777MOL0     H 2553   6.175   6.133  11.221  0.3493  0.1479 -0.5629
  777MOL0     H 2554   6.524   5.938  10.991  0.3503  1.8907  1.3065
  777MOL0     H 2555   6.376   5.864  10.908 -2.2299 -1.0608  0.7691
  777MOL0     H 2556   6.437   5.804  11.205  4.7914  0.3270 -0.3570
  777MOL0     H 2557   6.297   5.756  11.104  0.6821 -1.1771  2.2609
  777MOL0     H 2558   6.475   5.666  10.934 -2.1005 -3.3125 -1.2615
  777MOL0     H 2559   6.455   5.572  11.080  1.9760 -0.0811  0.6697
  777MOL0     H 2560   6.698   5.656  11.010 -1.0631 -2.8772 -0.6352
  777MOL0     H 2561   6.647   5.787  11.127 -1.7549  0.3000 -0.0693
  777MOL0     H 2562   6.696   5.426  11.372  1.5875  0.8386  0.0581
  777MOL0     H 2563   6.179   5.932  10.842 -0.9460 -1.8489  0.6355
  777MOL0     H 2564   5.955   5.953  10.827  0.7385  1.0155 -1.3120
  778MOL0     O 2565   3.385   1.266  10.272 -0.0589 -0.3471  0.7429
  778MOL0     C 2566   3.281   1.266  10.333  0.0909  0.2293  0.5402
  778MOL0     O 2567   3.257   1.239  10.460  0.7964 -0.8270 -0.3966
  778MOL0     C 2568   3.359   1.170  10.521 -0.4502  0.4774  0.4386
  778MOL0     C 2569   3.439   1.236  10.611 -0.4734  0.1927  0.7711
  778MOL0     C 2570   3.547   1.169  10.680 -0.3203 -0.2549  0.3829
  778MOL0     C 2571   3.583   1.038  10.642  0.8680 -0.7000 -0.2307
  778MOL0     O 2572   3.683   0.968  10.694 -0.1852  0.5038 -0.0480
  778MOL0     C 2573   3.805   1.042  10.699  0.3664 -0.3428  0.0680
  778MOL0     C 2574   3.854   1.065  10.846 -0.5721 -0.9358 -0.4828
  778MOL0     C 2575   3.937   0.948  10.920  0.7319 -0.3749  0.3232
  778MOL0     C 2576   3.906   0.810  10.853 -0.8920  0.3810 -0.1555
  778MOL0     C 2577   3.982   0.696  10.925  0.4500  0.5982  0.0200
  778MOL0     C 2578   3.901   0.576  10.906 -0.5531  0.2247 -0.0731
  778MOL0     C 2579   3.955   0.466  10.995 -0.4519  0.8589  0.0507
  778MOL0     C 2580   3.884   0.336  10.963 -0.4946  0.5133 -0.5555
  778MOL0     N 2581   3.917   0.223  11.055  0.6168 -0.5004 -0.3286
  778MOL0     C 2582   4.036   0.223  11.127 -0.1090 -0.1352  0.9402
  778MOL0     C 2583   4.014   0.118  11.207 -0.2842  0.2833  0.4561
  778MOL0     C 2584   4.117   0.075  11.299 -0.2604 -1.1060 -0.9366
  778MOL0     C 2585   4.180  -0.061  11.268 -0.7828  0.3576 -0.4126
  778MOL0     C 2586   4.275  -0.102  11.375  0.6870 -1.0133  0.4716
  778MOL0     C 2587   4.327  -0.236  11.346  0.3858  0.4756  0.0174
  778MOL0     O 2588   4.411  -0.263  11.459  0.2479  0.4187 -0.2439
  778MOL0     C 2589   4.499  -0.364  11.448  0.6511 -0.7516  1.0755
  778MOL0     C 2590   4.524  -0.465  11.347 -0.4379 -0.0447  0.6773
  778MOL0     C 2591   4.616  -0.573  11.369  0.4124 -0.5918  0.4069
  778MOL0     C 2592   4.691  -0.569  11.485 -0.1661  0.7011 -0.0408
  778MOL0     C 2593   4.793  -0.668  11.509 -0.6040 -0.4132 -0.2587
  778MOL0     O 2594   4.908  -0.632  11.565 -0.5216 -0.1086  0.5222
  778MOL0     C 2595   5.022  -0.709  11.543  0.5915 -0.3600 -0.1180
  778MOL0     C 2596   5.132  -0.728  11.632  0.4800 -0.1509  0.3626
  778MOL0     C 2597   5.253  -0.776  11.599  0.0554  0.5476 -0.2954
  778MOL0     C 2598   5.280  -0.806  11.463  0.0258  0.5650  0.0426
  778MOL0     O 2599   5.392  -0.868  11.409 -0.6860 -1.2568  0.4830
  778MOL0     C 2600   5.499  -0.903  11.504 -0.0838  0.6255 -0.1348
  778MOL0     C 2601   5.601  -0.993  11.430  1.3269 -0.0611  0.5508
  778MOL0     C 2602   5.734  -1.014  11.510 -0.0614  0.6237 -0.6501
  778MOL0     C 2603   5.839  -1.094  11.435  0.0961  0.9117 -0.0836
  778MOL0     C 2604   5.953  -1.164  11.517 -0.6874 -0.8450  0.6355
  778MOL0     C 2605   6.064  -1.205  11.417 -1.1935 -0.3348 -0.2187
  778MOL0     C 2606   6.176  -1.283  11.491  0.0527  1.1670  1.0313
  778MOL0     C 2607   6.309  -1.293  11.405 -0.3406  0.8169  0.4215
  778MOL0    Cl 2608   6.310  -1.347  11.231  0.3946  0.3068  0.0699
  778MOL0     C 2609   5.171  -0.806  11.377 -0.4224 -1.1972 -0.0082
  778MOL0     C 2610   5.048  -0.755  11.416  1.0816 -0.0655  0.0825
  778MOL0     O 2611   4.767  -0.784  11.488  0.5599  1.0950  0.9645
  778MOL0     C 2612   4.675  -0.469  11.586 -0.2279 -0.4106  0.6046
  778MOL0     C 2613   4.579  -0.374  11.563 -0.5034 -0.4387  0.3945
  778MOL0     N 2614   3.894   0.058  11.176 -0.7451  0.1363 -0.0700
  778MOL0     N 2615   3.828   0.128  11.081  0.0030  0.1823 -0.2533
  778MOL0     C 2616   3.497   0.975  10.545 -0.2664  0.4674 -0.4206
  778MOL0     C 2617   3.385   1.031  10.485 -0.1567  0.6733  0.5412
  778MOL0     C 2618   3.161   1.296  10.252 -0.0666  0.1208 -0.8429
  778MOL0     C 2619   3.175   1.366  10.135 -0.5755  0.2736  0.7765
  778MOL0     C 2620   3.072   1.396  10.045 -0.2841  0.5244 -0.2366
  778MOL0     C 2621   2.944   1.353  10.082  0.0808 -0.0711  0.2302
  778MOL0     O 2622   2.832   1.371  10.002  0.6029  0.2858 -0.9940
  778MOL0     C 2623   2.840   1.414   9.866 -0.3732  0.0268 -1.3581
  778MOL0     C 2624   2.889   1.288   9.786  0.5992 -0.1280 -0.9133
  778MOL0     C 2625   2.926   1.307   9.635  0.1875 -0.2520  0.2786
  778MOL0     C 2626   2.855   1.200   9.553  1.0701  0.4671 -0.0663
  778MOL0     C 2627   2.904   1.185   9.417 -0.2872 -0.1932  0.2958
  778MOL0     C 2628   2.925   1.188   9.297  0.4271 -0.5290 -0.2213
  778MOL0     C 2629   2.922   1.292  10.210  0.7047 -0.7035 -0.0111
  778MOL0     C 2630   3.033   1.266  10.288 -0.1603  0.1246 -0.4219
  778MOL0     H 2631   3.407   1.338  10.632 -0.5432 -0.1507  2.4933
  778MOL0     H 2632   3.619   1.213  10.748  0.8904 -0.5668 -0.6638
  778MOL0     H 2633   3.794   1.136  10.643  0.5118 -0.3611  0.0098
  778MOL0     H 2634   3.886   0.988  10.649  3.5360  3.6337  0.3060
  778MOL0     H 2635   3.774   1.102  10.912 -1.5480 -1.0755 -1.5495
  778MOL0     H 2636   3.918   1.154  10.848 -0.5740 -0.7725 -3.2864
  778MOL0     H 2637   3.927   0.962  11.028 -1.3342  3.1688 -0.1539
  778MOL0     H 2638   4.042   0.974  10.909  0.8326 -1.1725 -0.6578
  778MOL0     H 2639   3.797   0.803  10.864 -1.1018  1.5090 -1.2775
  778MOL0     H 2640   3.934   0.802  10.748 -0.1179 -0.9405  0.1205
  778MOL0     H 2641   3.984   0.722  11.031  0.2523 -0.5109  0.3064
  778MOL0     H 2642   4.081   0.688  10.879 -0.2587  1.8999 -1.8455
  778MOL0     H 2643   3.892   0.530  10.808  1.8703 -0.2776 -0.1210
  778MOL0     H 2644   3.798   0.602  10.935 -0.6062 -0.2902  0.2260
  778MOL0     H 2645   4.060   0.457  10.965 -0.1990  1.0287  0.8748
  778MOL0     H 2646   3.955   0.499  11.099  1.1526 -1.1341  0.7532
  778MOL0     H 2647   3.915   0.313  10.860  2.1105 -0.1665  0.3029
  778MOL0     H 2648   3.779   0.365  10.956 -0.7464 -0.1629  0.2661
  778MOL0     H 2649   4.126   0.281  11.114 -1.6513  1.6396 -5.0899
  778MOL0     H 2650   4.084   0.065  11.403  2.7772  3.3804  0.7910
  778MOL0     H 2651   4.193   0.154  11.304  0.0607 -1.4775  1.2937
  778MOL0     H 2652   4.236  -0.054  11.174 -2.9763  0.1864 -1.7936
  778MOL0     H 2653   4.107  -0.142  11.267 -1.2420  0.7309  0.9666
  778MOL0     H 2654   4.350  -0.030  11.408 -1.5597  0.5170  2.5672
  778MOL0     H 2655   4.215  -0.115  11.466  0.4549 -4.5386 -0.0362
  778MOL0     H 2656   4.365  -0.241  11.243  2.7158 -1.3599  0.8674
  778MOL0     H 2657   4.245  -0.307  11.341  0.5266  0.1328  2.0556
  778MOL0     H 2658   4.464  -0.473  11.257  2.1938  0.3329 -1.2255
  778MOL0     H 2659   4.620  -0.653  11.296  1.0533  1.2830 -1.7276
  778MOL0     H 2660   5.110  -0.700  11.735 -1.0828  1.5693 -0.3842
  778MOL0     H 2661   5.336  -0.772  11.669  1.1193 -3.4961 -1.0962
  778MOL0     H 2662   5.453  -0.956  11.589 -0.8458  1.2261 -0.1614
  778MOL0     H 2663   5.546  -0.810  11.536  3.4262  0.6335 -4.4054
  778MOL0     H 2664   5.621  -0.944  11.334  2.0482 -0.3872  0.5274
  778MOL0     H 2665   5.549  -1.089  11.422  3.9260 -1.5161  0.0136
  778MOL0     H 2666   5.696  -1.075  11.593 -0.2485  0.3550 -0.9320
  778MOL0     H 2667   5.754  -0.916  11.553 -0.9469 -0.3365  2.1756
  778MOL0     H 2668   5.778  -1.175  11.394 -1.5114  1.6664  0.7330
  778MOL0     H 2669   5.883  -1.035  11.354  0.7588  1.0088  0.3404
  778MOL0     H 2670   5.913  -1.248  11.575 -0.5094 -4.1078 -3.4608
  778MOL0     H 2671   5.993  -1.100  11.596 -1.6925  0.4171  0.1438
  778MOL0     H 2672   6.116  -1.114  11.386  1.2644 -1.6156 -0.0476
  778MOL0     H 2673   6.039  -1.265  11.329 -2.5660  0.0392 -0.1148
  778MOL0     H 2674   6.199  -1.214  11.573  1.8636  5.2853 -2.5033
  778MOL0     H 2675   6.156  -1.388  11.514  2.8168  0.5818  1.0824
  778MOL0     H 2676   6.379  -1.351  11.466  1.4513  2.8164  0.4126
  778MOL0     H 2677   6.354  -1.193  11.397  1.8412 -0.1927 -0.9846
  778MOL0     H 2678   5.171  -0.858  11.282 -1.4805 -0.4759 -0.4121
  778MOL0     H 2679   4.968  -0.744  11.343  0.8985 -0.9168  0.1413
  778MOL0     H 2680   4.741  -0.454  11.671  0.6606 -1.4134  0.1108
  778MOL0     H 2681   4.589  -0.301  11.643 -0.8868  0.7482 -0.6084
  778MOL0     H 2682   3.529   0.884  10.495 -1.0877  0.4604 -0.9561
  778MOL0     H 2683   3.313   0.976  10.425  3.1387 -1.4662 -1.8180
  778MOL0     H 2684   3.272   1.408  10.109 -0.0153 -1.7574 -0.6201
  778MOL0     H 2685   3.088   1.457   9.957  1.2824  0.1690 -0.2256
  778MOL0     H 2686   2.905   1.502   9.870  0.4413 -0.6026  0.5670
  778MOL0     H 2687   2.739   1.448   9.845 -0.4612  2.7783  2.5459
  778MOL0     H 2688   2.979   1.253   9.837  1.9730  3.1414 -0.8737
  778MOL0     H 2689   2.813   1.210   9.799 -3.1938  3.4569  0.6521
  778MOL0     H 2690   3.034   1.303   9.620  0.1522 -0.6436  0.1126
  778MOL0     H 2691   2.883   1.402   9.603  0.6543  0.0309  0.4783
  778MOL0     H 2692   2.882   1.105   9.602  0.0362 -0.4593 -1.2333
  778MOL0     H 2693   2.747   1.213   9.559  0.2058 -4.2316 -1.1775
  778MOL0     H 2694   2.959   1.191   9.196 -0.6926 -1.7064 -0.6741
  778MOL0     H 2695   2.818   1.276  10.237  0.9455 -0.4585  1.1089
  778MOL0     H 2696   3.013   1.237  10.391  0.6328 -0.0176 -0.3035
  779MOL0     O 2697   2.117   3.464   4.418 -0.2316  0.2084  0.1618
  779MOL0     C 2698   2.062   3.350   4.426  0.5030 -0.9180  0.5071
  779MOL0     O 2699   1.924   3.331   4.423 -0.9425  0.0088 -0.2829
  779MOL0     C 2700   1.845   3.448   4.422 -0.1152  0.6817  0.3116
  779MOL0     C 2701   1.856   3.553   4.327 -0.2463  0.4774 -0.4107
  779MOL0     C 2702   1.749   3.642   4.319 -0.0204 -0.9244 -0.5318
  779MOL0     C 2703   1.639   3.637   4.410 -0.1331 -0.7341  0.3826
  779MOL0     O 2704   1.540   3.736   4.405 -0.2640 -0.1071  1.0853
  779MOL0     C 2705   1.449   3.752   4.521 -0.6000 -0.2061  0.2403
  779MOL0     C 2706   1.356   3.869   4.495  0.2669 -0.0603 -0.5107
  779MOL0     C 2707   1.254   3.843   4.390 -0.3255  0.4699 -0.0692
  779MOL0     C 2708   1.145   3.946   4.359 -0.6339 -0.4032  0.6070
  779MOL0     C 2709   1.048   3.986   4.470  0.6315 -0.6847 -0.3704
  779MOL0     C 2710   0.984   4.120   4.425  0.1240  0.0589 -0.4269
  779MOL0     C 2711   0.876   4.150   4.523  0.5297  0.0658 -0.4033
  779MOL0     C 2712   0.792   4.265   4.475 -0.6084 -0.0856  0.2001
  779MOL0     N 2713   0.697   4.310   4.573  0.7717  0.4347  0.2681
  779MOL0     C 2714   0.581   4.238   4.595 -0.3256 -0.2927 -0.3304
  779MOL0     C 2715   0.521   4.308   4.700 -0.2168  0.3441 -0.2290
  779MOL0     C 2716   0.420   4.242   4.780  0.7369  0.3047  0.3182
  779MOL0     C 2717   0.277   4.282   4.734 -0.8045  0.7437  0.4679
  779MOL0     C 2718   0.251   4.429   4.764  0.1234  1.3009  0.0985
  779MOL0     C 2719   0.141   4.484   4.682  0.8765  0.5883  0.1991
  779MOL0     O 2720   0.101   4.623   4.710  0.1570 -0.2462  0.3100
  779MOL0     C 2721   0.014   4.641   4.824  0.1710 -1.1039  0.4832
  779MOL0     C 2722  -0.040   4.775   4.834  0.3610  0.2401  1.1027
  779MOL0     C 2723  -0.133   4.805   4.934  0.5626  0.2719  0.2090
  779MOL0     C 2724  -0.176   4.706   5.029 -0.9993  0.3725  0.8821
  779MOL0     C 2725  -0.260   4.744   5.139 -0.1840 -0.0032  0.0467
  779MOL0     O 2726  -0.261   4.663   5.249  0.8679 -0.3946  0.1447
  779MOL0     C 2727  -0.374   4.667   5.334 -1.0609 -0.5396  0.1249
  779MOL0     C 2728  -0.496   4.599   5.310  0.1202 -0.4248 -0.1143
  779MOL0     C 2729  -0.593   4.593   5.410  0.1448 -0.7948  0.5856
  779MOL0     C 2730  -0.580   4.671   5.531 -0.0124 -0.0658  0.5750
  779MOL0     O 2731  -0.672   4.680   5.634  0.3989  0.2426 -0.5232
  779MOL0     C 2732  -0.798   4.619   5.611 -1.0672 -1.2405 -0.7990
  779MOL0     C 2733  -0.893   4.652   5.732 -0.0956  0.4348  0.1534
  779MOL0     C 2734  -0.875   4.583   5.865  0.8926 -1.1404 -0.0099
  779MOL0     C 2735  -0.991   4.624   5.962 -0.1132  0.3484  0.3817
  779MOL0     C 2736  -0.971   4.560   6.101 -0.2914 -0.2540 -0.6685
  779MOL0     C 2737  -0.971   4.394   6.091  0.2913  0.4980 -0.5585
  779MOL0     C 2738  -1.095   4.337   6.018 -0.8794  0.4650  0.1948
  779MOL0     C 2739  -1.137   4.202   6.064  0.1060 -0.0765 -0.2203
  779MOL0    Cl 2740  -1.265   4.128   5.967  0.4512 -0.3547  0.5217
  779MOL0     C 2741  -0.461   4.740   5.545 -0.4301  0.0329 -1.0730
  779MOL0     C 2742  -0.360   4.743   5.452 -0.5420  0.3426 -0.2455
  779MOL0     O 2743  -0.330   4.840   5.120  0.3604 -0.5436 -0.7547
  779MOL0     C 2744  -0.114   4.582   5.015  0.2736  0.7953  0.4118
  779MOL0     C 2745  -0.024   4.545   4.912  0.0851  1.1623 -0.0777
  779MOL0     N 2746   0.597   4.422   4.714  0.2536  0.9616  0.0565
  779MOL0     N 2747   0.701   4.424   4.642 -0.3234 -0.4530  0.0713
  779MOL0     C 2748   1.627   3.535   4.492 -0.7467 -0.7139 -0.0619
  779MOL0     C 2749   1.728   3.437   4.496 -0.5642 -0.0594 -0.0205
  779MOL0     C 2750   2.154   3.232   4.431 -1.4151 -0.5526 -0.1286
  779MOL0     C 2751   2.105   3.102   4.456 -0.2408 -0.2203 -0.2349
  779MOL0     C 2752   2.189   2.988   4.452 -0.4051 -0.8051  0.6145
  779MOL0     C 2753   2.320   3.003   4.420 -0.4486 -0.9946  0.1352
  779MOL0     O 2754   2.400   2.895   4.414 -0.1412  0.2483  0.1367
  779MOL0     C 2755   2.444   2.841   4.543 -0.0171 -0.6755  1.2846
  779MOL0     C 2756   2.534   2.936   4.621 -0.0521  0.5786 -0.5537
  779MOL0     C 2757   2.569   2.876   4.763  0.1016 -1.1741 -0.2600
  779MOL0     C 2758   2.581   3.003   4.850 -0.1690  1.2209 -0.2080
  779MOL0     C 2759   2.622   2.940   4.979 -0.9915 -0.1649 -0.1152
  779MOL0     C 2760   2.649   2.860   5.067 -0.6170  0.2270 -0.2789
  779MOL0     C 2761   2.371   3.133   4.410 -0.5981 -0.1685  0.0974
  779MOL0     C 2762   2.296   3.247   4.416 -0.2614  0.1527  0.5945
  779MOL0     H 2763   1.932   3.552   4.249  1.9144  0.6068  1.5794
  779MOL0     H 2764   1.747   3.723   4.247 -1.3873 -2.1064 -1.8984
  779MOL0     H 2765   1.513   3.765   4.609 -0.2562 -2.9476  0.4950
  779MOL0     H 2766   1.389   3.662   4.539 -3.1046  1.1923 -0.6661
  779MOL0     H 2767   1.410   3.963   4.479  0.1101  0.1822  0.3232
  779MOL0     H 2768   1.297   3.882   4.586  0.6343 -2.1868  0.0827
  779MOL0     H 2769   1.194   3.768   4.443 -0.7717  1.9922  1.7100
  779MOL0     H 2770   1.303   3.799   4.303  0.0442 -1.6105  1.1311
  779MOL0     H 2771   1.205   4.033   4.331 -0.7165 -1.1232 -2.0870
  779MOL0     H 2772   1.089   3.926   4.267 -1.5110  2.7235  0.3536
  779MOL0     H 2773   1.094   4.018   4.564 -0.5896 -2.2608  0.8141
  779MOL0     H 2774   0.967   3.918   4.496 -1.0177  1.4598  0.4614
  779MOL0     H 2775   0.947   4.112   4.322  1.8180 -1.4079 -0.9769
  779MOL0     H 2776   1.063   4.195   4.421  0.6968 -0.4776  0.5642
  779MOL0     H 2777   0.829   4.056   4.553  0.8865 -0.6218 -1.9254
  779MOL0     H 2778   0.933   4.188   4.609 -0.5491 -0.3024  0.5009
  779MOL0     H 2779   0.744   4.232   4.382 -1.6247 -1.0831  1.0444
  779MOL0     H 2780   0.854   4.348   4.440 -3.5302  2.2894  0.2810
  779MOL0     H 2781   0.544   4.143   4.558  2.3167 -2.6588  2.5103
  779MOL0     H 2782   0.427   4.261   4.887  0.2957 -3.0074  1.0436
  779MOL0     H 2783   0.437   4.136   4.758  0.1742 -0.3174  2.6393
  779MOL0     H 2784   0.199   4.227   4.788 -0.8808  0.3469 -0.0438
  779MOL0     H 2785   0.268   4.267   4.626 -1.9283  2.5288  0.2670
  779MOL0     H 2786   0.225   4.447   4.869 -0.5611  1.4968 -0.0971
  779MOL0     H 2787   0.343   4.486   4.753  0.9976  0.1723  1.2714
  779MOL0     H 2788   0.054   4.418   4.688  1.5909 -0.4258 -0.4927
  779MOL0     H 2789   0.163   4.488   4.575 -1.5220 -0.0014 -0.3825
  779MOL0     H 2790  -0.013   4.843   4.754 -0.2014 -1.7525 -0.8688
  779MOL0     H 2791  -0.168   4.908   4.930 -2.1878 -0.5584  0.4176
  779MOL0     H 2792  -0.514   4.530   5.229  0.1189  0.4813 -0.9011
  779MOL0     H 2793  -0.676   4.526   5.390  1.5163 -2.0912 -1.1720
  779MOL0     H 2794  -0.785   4.511   5.603  2.7200 -0.9124 -0.7400
  779MOL0     H 2795  -0.855   4.661   5.527 -4.2155 -0.3328  1.5944
  779MOL0     H 2796  -0.993   4.632   5.694  0.0988 -0.8877  0.2751
  779MOL0     H 2797  -0.899   4.760   5.750  1.0482  0.3617  1.0964
  779MOL0     H 2798  -0.777   4.619   5.899 -0.5281  1.2841  1.8995
  779MOL0     H 2799  -0.874   4.475   5.851 -0.1573 -1.5684  2.6487
  779MOL0     H 2800  -0.997   4.733   5.974 -0.7030  0.3917 -0.2359
  779MOL0     H 2801  -1.078   4.587   5.907 -0.5028  0.1241  1.1367
  779MOL0     H 2802  -1.046   4.600   6.170  2.0130 -0.5452  2.1767
  779MOL0     H 2803  -0.875   4.594   6.141  0.2863  2.6036 -4.0159
  779MOL0     H 2804  -0.961   4.350   6.191 -0.9814 -0.2481 -0.7453
  779MOL0     H 2805  -0.876   4.364   6.045  0.5469  0.6995 -0.1691
  779MOL0     H 2806  -1.175   4.411   6.028 -0.3718  1.2614 -1.3314
  779MOL0     H 2807  -1.073   4.329   5.911 -1.8434  0.5572 -0.0284
  779MOL0     H 2808  -1.176   4.203   6.166  0.9740  1.0872  0.1185
  779MOL0     H 2809  -1.049   4.137   6.072 -0.4534 -0.6518  2.4969
  779MOL0     H 2810  -0.444   4.793   5.638 -1.5741 -0.6389 -0.4553
  779MOL0     H 2811  -0.267   4.798   5.461 -1.5777  2.0368  0.5073
  779MOL0     H 2812  -0.149   4.510   5.088 -4.3494 -1.6261 -3.6106
  779MOL0     H 2813   0.006   4.442   4.893 -0.0109  1.3027 -1.0664
  779MOL0     H 2814   1.547   3.522   4.564 -0.7475 -0.4962 -0.0219
  779MOL0     H 2815   1.718   3.341   4.544 -0.5177 -0.3443 -0.5729
  779MOL0     H 2816   1.997   3.100   4.459 -0.1993 -1.1586  1.2835
  779MOL0     H 2817   2.150   2.887   4.459  0.2645 -1.0060  1.6556
  779MOL0     H 2818   2.507   2.755   4.516  1.9748  1.2515 -0.6593
  779MOL0     H 2819   2.351   2.806   4.589 -0.1004  1.7112  3.1269
  779MOL0     H 2820   2.616   2.953   4.551  0.0679 -1.2769 -0.9152
  779MOL0     H 2821   2.471   3.021   4.647  0.2425  0.6769 -0.1627
  779MOL0     H 2822   2.669   2.833   4.757  0.1582 -0.9723 -0.9130
  779MOL0     H 2823   2.492   2.807   4.800 -0.8251  1.5083  3.3818
  779MOL0     H 2824   2.658   3.072   4.814  1.0659  0.7460  1.3906
  779MOL0     H 2825   2.485   3.052   4.866  0.3465  1.3408  3.1935
  779MOL0     H 2826   2.683   2.809   5.156 -1.5525  0.4782  0.2369
  779MOL0     H 2827   2.478   3.132   4.390 -0.4718 -1.0268  0.7529
  779MOL0     H 2828   2.343   3.343   4.400  5.0389 -2.4721 -2.3160
  780MOL0     O 2829   4.659   5.325   4.792 -0.5350  0.5823  0.3697
  780MOL0     C 2830   4.653   5.345   4.671  0.1231  0.2810  0.0291
  780MOL0     O 2831   4.754   5.356   4.586  0.3030  0.2162 -0.9771
  780MOL0     C 2832   4.880   5.342   4.633 -0.7471  0.2074 -0.0739
  780MOL0     C 2833   4.961   5.456   4.616 -0.5070  0.5346  0.8899
  780MOL0     C 2834   5.101   5.446   4.644  0.2396  0.0007 -0.1026
  780MOL0     C 2835   5.141   5.330   4.719 -0.5260 -0.4670  0.8030
  780MOL0     O 2836   5.282   5.319   4.754 -0.6695 -0.5806  0.6628
  780MOL0     C 2837   5.377   5.380   4.657 -1.0590 -0.5794 -0.3624
  780MOL0     C 2838   5.513   5.314   4.674  0.2325 -0.3674 -0.1572
  780MOL0     C 2839   5.585   5.373   4.799 -0.3383 -0.2766 -0.3356
  780MOL0     C 2840   5.715   5.312   4.832  0.9272  0.6261  0.5664
  780MOL0     C 2841   5.791   5.375   4.946 -0.8483  0.0780  0.2633
  780MOL0     C 2842   5.936   5.316   4.970  0.3772  0.1090  0.1602
  780MOL0     C 2843   6.029   5.415   5.041 -0.1520 -0.2952  0.0026
  780MOL0     C 2844   6.124   5.478   4.942 -0.8460 -0.6298 -0.5050
  780MOL0     N 2845   6.073   5.592   4.865  0.0333 -0.0834 -0.1978
  780MOL0     C 2846   5.964   5.606   4.781  0.3239 -0.6440  0.2168
  780MOL0     C 2847   5.977   5.737   4.739 -0.2085 -0.1813 -0.3775
  780MOL0     C 2848   5.888   5.801   4.628  0.5300  0.5546 -1.0664
  780MOL0     C 2849   5.863   5.714   4.513 -1.0156  0.0539  0.4166
  780MOL0     C 2850   5.756   5.771   4.419 -0.3362 -0.7725  0.1953
  780MOL0     C 2851   5.754   5.701   4.288 -0.1396 -0.1816 -0.1794
  780MOL0     O 2852   5.681   5.782   4.201  0.1731 -0.7382  0.2160
  780MOL0     C 2853   5.638   5.735   4.084  0.2439 -0.6490 -0.8758
  780MOL0     C 2854   5.696   5.619   4.037  0.2620  0.8016 -0.8643
  780MOL0     C 2855   5.634   5.546   3.927 -0.5358 -0.4743 -0.8864
  780MOL0     C 2856   5.523   5.601   3.865 -0.2636 -0.8225  0.9273
  780MOL0     C 2857   5.451   5.537   3.750  0.9767 -0.5208  1.3334
  780MOL0     O 2858   5.395   5.623   3.659  0.8434  0.4584 -0.2618
  780MOL0     C 2859   5.340   5.593   3.532  0.7002  1.7605 -0.3775
  780MOL0     C 2860   5.335   5.694   3.435  0.6093  0.8598  0.4561
  780MOL0     C 2861   5.280   5.674   3.303  0.2297  0.2851 -0.0210
  780MOL0     C 2862   5.219   5.551   3.271 -0.3903  0.2334  0.1384
  780MOL0     O 2863   5.190   5.524   3.136  0.5369  0.7030  0.0593
  780MOL0     C 2864   5.152   5.392   3.096  0.6336  0.2848 -0.4006
  780MOL0     C 2865   4.999   5.379   3.107 -0.7464  0.0626 -1.0311
  780MOL0     C 2866   4.963   5.235   3.057 -0.6194 -0.0186  0.5460
  780MOL0     C 2867   4.963   5.228   2.902  0.6913  0.1146 -0.6704
  780MOL0     C 2868   4.932   5.089   2.845 -0.2669 -1.1245  0.2607
  780MOL0     C 2869   4.979   5.092   2.695 -0.0847 -0.3564  0.4485
  780MOL0     C 2870   4.976   4.953   2.634  0.1851 -0.4823 -0.2179
  780MOL0     C 2871   5.015   4.935   2.489  0.2795  0.6365 -1.0599
  780MOL0    Cl 2872   5.169   5.019   2.450  0.3599  0.6370  0.2380
  780MOL0     C 2873   5.222   5.446   3.365 -0.7340  0.7624  0.2211
  780MOL0     C 2874   5.284   5.465   3.490 -0.3614 -0.0841 -0.0738
  780MOL0     O 2875   5.462   5.416   3.730  0.0054 -0.4817 -0.2946
  780MOL0     C 2876   5.470   5.726   3.915  0.5097  0.5129 -0.1010
  780MOL0     C 2877   5.522   5.792   4.024  0.0848  1.0082 -0.2249
  780MOL0     N 2878   6.074   5.800   4.802  0.1373  0.7393 -0.5299
  780MOL0     N 2879   6.131   5.713   4.878 -0.1977 -0.0898  0.2807
  780MOL0     C 2880   5.058   5.218   4.748 -0.1192  0.5699 -0.6243
  780MOL0     C 2881   4.926   5.231   4.702 -0.8866  0.1277  0.4698
  780MOL0     C 2882   4.517   5.388   4.625  0.2142  0.3072  0.1615
  780MOL0     C 2883   4.499   5.392   4.485  0.4003 -0.4826  0.1758
  780MOL0     C 2884   4.386   5.448   4.431 -0.0038 -0.3049  0.0776
  780MOL0     C 2885   4.279   5.485   4.514 -0.3792 -0.1016 -1.1547
  780MOL0     O 2886   4.167   5.536   4.454 -0.4967  0.0211 -0.4925
  780MOL0     C 2887   4.032   5.486   4.481  0.5831  1.6062 -0.1709
  780MOL0     C 2888   4.012   5.350   4.424 -0.0833  0.1998  0.2114
  780MOL0     C 2889   3.881   5.287   4.477  0.7072 -0.1956  0.4913
  780MOL0     C 2890   3.861   5.144   4.413  0.1198 -0.3274 -0.3592
  780MOL0     C 2891   3.739   5.075   4.460  0.4557 -0.1575 -0.2547
  780MOL0     C 2892   3.642   5.023   4.505  0.8101  0.1768 -0.7018
  780MOL0     C 2893   4.283   5.462   4.650  0.3199 -0.6379 -0.4860
  780MOL0     C 2894   4.405   5.421   4.709 -0.2475  0.1129  0.0372
  780MOL0     H 2895   4.910   5.539   4.570  1.8247  1.6991  0.2820
  780MOL0     H 2896   5.169   5.524   4.608 -1.5178  0.9839 -1.4404
  780MOL0     H 2897   5.396   5.485   4.679 -1.5457 -0.7491  0.9568
  780MOL0     H 2898   5.343   5.369   4.553 -1.1041 -0.7020 -0.3353
  780MOL0     H 2899   5.582   5.341   4.593 -0.0145  1.0045  0.0726
  780MOL0     H 2900   5.497   5.207   4.689 -2.3219  0.0272  0.3794
  780MOL0     H 2901   5.517   5.373   4.884 -2.6011  0.4757 -2.0516
  780MOL0     H 2902   5.604   5.477   4.767  0.6094 -0.4509 -0.3859
  780MOL0     H 2903   5.716   5.204   4.848  0.4860  0.3098 -1.3378
  780MOL0     H 2904   5.783   5.328   4.748  1.1746 -0.5487  0.5367
  780MOL0     H 2905   5.738   5.358   5.040 -1.5221  4.8239  0.9662
  780MOL0     H 2906   5.789   5.482   4.926 -2.7925  0.3463  1.6544
  780MOL0     H 2907   5.982   5.272   4.881 -0.3587 -3.0252  1.2139
  780MOL0     H 2908   5.921   5.236   5.043  2.4359 -0.0970  0.4222
  780MOL0     H 2909   5.971   5.498   5.081 -0.2013  0.7401 -2.1049
  780MOL0     H 2910   6.093   5.360   5.111  1.7084 -2.0792 -2.8412
  780MOL0     H 2911   6.168   5.403   4.875 -0.8415 -0.3483 -0.8220
  780MOL0     H 2912   6.209   5.512   5.002 -1.5176 -2.1618  1.4131
  780MOL0     H 2913   5.892   5.540   4.736  0.0775  0.5791 -1.2419
  780MOL0     H 2914   5.939   5.891   4.594  1.6331 -0.2574 -1.6028
  780MOL0     H 2915   5.797   5.832   4.680 -0.7478 -0.3834 -2.6637
  780MOL0     H 2916   5.830   5.613   4.540 -0.5841  0.0458  0.9260
  780MOL0     H 2917   5.961   5.713   4.463 -1.4251  0.1122 -0.4040
  780MOL0     H 2918   5.657   5.753   4.461 -0.0582  0.5708  1.5062
  780MOL0     H 2919   5.774   5.877   4.400  2.7683 -0.8039  2.1988
  780MOL0     H 2920   5.723   5.597   4.298  5.0732 -1.9451  0.9089
  780MOL0     H 2921   5.849   5.694   4.234  0.5586 -2.4139  1.1809
  780MOL0     H 2922   5.781   5.568   4.080 -1.1570 -2.1803 -1.3162
  780MOL0     H 2923   5.676   5.450   3.901 -2.2369 -1.0018 -1.7964
  780MOL0     H 2924   5.381   5.789   3.462  2.6089 -0.6401  2.8150
  780MOL0     H 2925   5.273   5.747   3.223 -2.1337 -1.6596 -1.7195
  780MOL0     H 2926   5.189   5.306   3.152 -2.7943 -2.0545 -1.3683
  780MOL0     H 2927   5.199   5.376   2.998  1.2324  1.2135 -0.2771
  780MOL0     H 2928   4.941   5.456   3.055 -0.0073  2.7132  1.7424
  780MOL0     H 2929   4.970   5.379   3.212 -1.6299  2.4115 -1.2055
  780MOL0     H 2930   4.861   5.213   3.091  0.0063 -2.2982  1.1299
  780MOL0     H 2931   5.026   5.157   3.101 -1.2657 -2.4094 -2.3669
  780MOL0     H 2932   4.888   5.295   2.859  0.5744 -0.4665 -1.3721
  780MOL0     H 2933   5.063   5.264   2.877 -0.5218  3.7856 -0.9066
  780MOL0     H 2934   4.832   5.051   2.867 -0.5238  0.7832  2.7702
  780MOL0     H 2935   4.999   5.016   2.892  2.3121  1.5410  0.9475
  780MOL0     H 2936   5.075   5.142   2.686  0.1402 -0.5793  1.4538
  780MOL0     H 2937   4.905   5.148   2.637 -0.8336 -1.7569 -0.0071
  780MOL0     H 2938   5.051   4.899   2.693 -0.5428 -0.3984  0.8274
  780MOL0     H 2939   4.877   4.910   2.655  0.7383 -0.7051  2.3254
  780MOL0     H 2940   4.930   4.985   2.441 -0.8364  0.6970  0.8878
  780MOL0     H 2941   5.016   4.830   2.460  1.7654  0.5167 -0.6727
  780MOL0     H 2942   5.169   5.352   3.357  2.6288 -1.5652  2.7885
  780MOL0     H 2943   5.285   5.396   3.573 -1.8031  1.0081  0.9058
  780MOL0     H 2944   5.382   5.768   3.867  0.0634 -1.9240 -1.5656
  780MOL0     H 2945   5.466   5.870   4.075  0.0717  0.5838  0.4143
  780MOL0     H 2946   5.096   5.127   4.793 -0.9424  1.5934  2.4002
  780MOL0     H 2947   4.863   5.146   4.726 -0.9787  0.0090 -0.1743
  780MOL0     H 2948   4.575   5.370   4.411  0.6167 -0.5910  0.4284
  780MOL0     H 2949   4.363   5.458   4.325  0.8759 -1.0576 -0.1940
  780MOL0     H 2950   3.957   5.550   4.433 -2.0741 -1.2244 -0.0549
  780MOL0     H 2951   4.007   5.491   4.587 -0.8747  1.4169 -0.4756
  780MOL0     H 2952   4.007   5.362   4.315 -1.7134  2.3240  0.4608
  780MOL0     H 2953   4.089   5.283   4.463  2.1319  0.2210 -3.6655
  780MOL0     H 2954   3.792   5.347   4.454 -1.5891 -2.4950  2.6568
  780MOL0     H 2955   3.886   5.285   4.586 -0.3073 -3.3023  0.5820
  780MOL0     H 2956   3.873   5.138   4.305 -0.2478  3.5247 -0.7777
  780MOL0     H 2957   3.946   5.084   4.449 -1.5815 -3.1864 -0.8426
  780MOL0     H 2958   3.554   4.975   4.544 -0.0755  0.4247 -2.3066
  780MOL0     H 2959   4.193   5.493   4.702  0.5458  0.4823 -0.7209
  780MOL0     H 2960   4.424   5.410   4.816 -2.6553 -0.2920  0.4805
  781MOL0     O 2961   5.306   6.734   7.414 -0.2637  0.0895  0.4591
  781MOL0     C 2962   5.324   6.825   7.335  0.5063 -0.1351 -0.8084
  781MOL0     O 2963   5.232   6.899   7.267 -0.1350 -0.4846 -0.4265
  781MOL0     C 2964   5.109   6.856   7.271  0.7475 -0.4818  0.4646
  781MOL0     C 2965   5.027   6.897   7.371  0.5870  0.7748 -0.2718
  781MOL0     C 2966   4.886   6.862   7.373  0.8303 -0.0478 -0.6606
  781MOL0     C 2967   4.844   6.778   7.269 -0.1221 -0.0389 -0.1162
  781MOL0     O 2968   4.713   6.737   7.253 -0.2593  0.3891  0.0865
  781MOL0     C 2969   4.672   6.613   7.292  0.1246 -0.0691  0.0550
  781MOL0     C 2970   4.532   6.594   7.244  0.1138  0.2481  0.4621
  781MOL0     C 2971   4.448   6.520   7.353  0.7609 -0.4894  0.0061
  781MOL0     C 2972   4.315   6.463   7.289 -0.1867  0.8271  0.2302
  781MOL0     C 2973   4.226   6.404   7.397 -0.1342 -1.0225  0.4526
  781MOL0     C 2974   4.115   6.314   7.339 -0.2484  0.0980  0.2554
  781MOL0     C 2975   3.983   6.339   7.413 -0.0570  0.5470 -0.1644
  781MOL0     C 2976   3.947   6.215   7.495  0.6651 -0.6475  0.3707
  781MOL0     N 2977   3.816   6.234   7.564 -0.8554  0.1597  0.9171
  781MOL0     C 2978   3.809   6.283   7.691  0.8568 -1.6701  0.1814
  781MOL0     C 2979   3.679   6.266   7.734  1.1501  0.2976  0.6512
  781MOL0     C 2980   3.636   6.284   7.879  0.5511  0.1060 -0.2402
  781MOL0     C 2981   3.477   6.303   7.904  0.3146  0.3673 -0.0457
  781MOL0     C 2982   3.426   6.157   7.924 -0.0855  0.5707 -0.9491
  781MOL0     C 2983   3.275   6.158   7.933  1.0205 -0.5131  0.1556
  781MOL0     O 2984   3.230   6.266   8.017 -0.1686 -0.1347  0.0328
  781MOL0     C 2985   3.110   6.326   7.994 -0.3044  0.8538  0.1792
  781MOL0     C 2986   3.007   6.256   7.948  0.3396 -0.3735 -0.1537
  781MOL0     C 2987   2.882   6.318   7.920 -0.3355  0.0487  0.0342
  781MOL0     C 2988   2.858   6.452   7.940 -0.4534  0.7178  0.0287
  781MOL0     C 2989   2.720   6.500   7.931 -0.8465 -0.1204  0.4798
  781MOL0     O 2990   2.685   6.589   8.024  0.8977 -0.2254 -0.2116
  781MOL0     C 2991   2.555   6.621   8.027 -0.3032 -0.5842 -0.0678
  781MOL0     C 2992   2.492   6.705   7.939  1.1776  0.3326  0.0080
  781MOL0     C 2993   2.363   6.757   7.976 -0.3875 -0.1990  0.2928
  781MOL0     C 2994   2.292   6.723   8.091 -0.8928 -0.3020  0.5222
  781MOL0     O 2995   2.161   6.759   8.119 -1.0399  1.0728 -0.7522
  781MOL0     C 2996   2.120   6.884   8.072 -0.5882  0.9830 -0.0040
  781MOL0     C 2997   2.003   6.920   8.158 -0.4948 -0.2977  0.7772
  781MOL0     C 2998   1.887   6.820   8.119 -0.5724 -0.4656 -0.1984
  781MOL0     C 2999   1.762   6.859   8.192  0.2577  0.1452 -0.4941
  781MOL0     C 3000   1.647   6.757   8.196  0.7992 -0.4340 -0.0615
  781MOL0     C 3001   1.513   6.815   8.160 -0.2419  0.3791  0.5030
  781MOL0     C 3002   1.472   6.848   8.009 -0.6164  0.3879 -0.5635
  781MOL0     C 3003   1.556   6.949   7.938 -0.2440 -0.6602 -0.0036
  781MOL0    Cl 3004   1.505   7.103   7.978  0.1612 -0.0085  0.0571
  781MOL0     C 3005   2.358   6.628   8.174 -0.3382 -0.2470  0.1087
  781MOL0     C 3006   2.487   6.576   8.138 -0.3697 -0.1079 -1.1376
  781MOL0     O 3007   2.648   6.440   7.853 -0.2120 -0.1948 -0.4008
  781MOL0     C 3008   2.965   6.521   8.012  1.3283  0.2683  0.1764
  781MOL0     C 3009   3.090   6.463   8.027 -0.0455 -0.9985  0.4384
  781MOL0     N 3010   3.613   6.210   7.623  0.7263  0.1612 -0.5149
  781MOL0     N 3011   3.694   6.190   7.523  0.2513 -0.3971  0.3578
  781MOL0     C 3012   4.925   6.738   7.168  0.1949  0.1429 -0.3324
  781MOL0     C 3013   5.059   6.770   7.173 -0.6693 -0.2746 -0.7653
  781MOL0     C 3014   5.454   6.893   7.329 -1.4455  0.2636  0.8822
  781MOL0     C 3015   5.487   7.030   7.294  1.5575  0.8414 -0.1667
  781MOL0     C 3016   5.613   7.076   7.311  0.8123 -1.2616 -0.0038
  781MOL0     C 3017   5.714   7.000   7.361  0.4775 -0.6593  0.6077
  781MOL0     O 3018   5.830   7.073   7.372  0.3073 -0.3533  0.4128
  781MOL0     C 3019   5.935   7.005   7.453 -0.3300  0.8209 -0.9995
  781MOL0     C 3020   5.897   7.022   7.598  0.4986  0.0948 -0.1941
  781MOL0     C 3021   5.907   7.174   7.638 -0.3620  1.1619  0.2017
  781MOL0     C 3022   6.033   7.223   7.705 -1.0075 -0.5233 -0.4332
  781MOL0     C 3023   6.047   7.154   7.830  0.4318 -0.3242 -0.0648
  781MOL0     C 3024   6.076   7.105   7.940  0.4317 -0.8925 -0.2302
  781MOL0     C 3025   5.690   6.869   7.394 -0.3002  1.0164  0.7226
  781MOL0     C 3026   5.561   6.818   7.376  0.5312 -0.1640 -1.0681
  781MOL0     H 3027   5.073   6.961   7.446  0.1943  0.8085 -0.0555
  781MOL0     H 3028   4.813   6.892   7.448  0.9497  3.2580 -1.7037
  781MOL0     H 3029   4.673   6.599   7.401 -0.3244 -1.7245 -0.1128
  781MOL0     H 3030   4.730   6.535   7.242 -0.2375  0.5724 -1.4160
  781MOL0     H 3031   4.522   6.529   7.156 -3.1868  1.8133 -0.4743
  781MOL0     H 3032   4.490   6.684   7.198  2.1988 -0.6970 -3.8243
  781MOL0     H 3033   4.419   6.585   7.436 -0.7814  1.4299 -1.9228
  781MOL0     H 3034   4.513   6.444   7.397  2.6227  1.5688  1.0296
  781MOL0     H 3035   4.263   6.543   7.235 -0.2658 -0.4940 -1.7575
  781MOL0     H 3036   4.356   6.394   7.215  0.0108 -0.1180  1.1936
  781MOL0     H 3037   4.187   6.492   7.450  1.1746 -0.8085  1.1009
  781MOL0     H 3038   4.286   6.352   7.473 -1.9519  1.9353  4.2302
  781MOL0     H 3039   4.156   6.215   7.357  2.8687  1.2022 -0.2138
  781MOL0     H 3040   4.105   6.338   7.232  1.4153 -2.6876 -0.6280
  781MOL0     H 3041   3.973   6.432   7.470 -3.5917 -1.7633  3.5297
  781MOL0     H 3042   3.905   6.363   7.340 -1.1614  0.1551  0.8628
  781MOL0     H 3043   4.018   6.199   7.576  0.3264  2.1361  1.3329
  781MOL0     H 3044   3.931   6.128   7.430 -2.3888  0.5707 -0.7159
  781MOL0     H 3045   3.879   6.349   7.741 -0.6488  1.7750 -1.8870
  781MOL0     H 3046   3.688   6.375   7.908 -0.3180  0.8432 -0.9394
  781MOL0     H 3047   3.669   6.195   7.933  1.1247  0.9658  0.8673
  781MOL0     H 3048   3.435   6.353   7.817 -0.6156  1.1879  0.8531
  781MOL0     H 3049   3.457   6.365   7.992  0.6348  3.7603 -2.1832
  781MOL0     H 3050   3.462   6.096   7.841 -1.8014 -2.0952  0.1416
  781MOL0     H 3051   3.471   6.114   8.013 -3.1685  1.5879  1.3107
  781MOL0     H 3052   3.242   6.060   7.968  1.4618 -0.3093  1.1576
  781MOL0     H 3053   3.233   6.170   7.832 -2.2054  0.3681  1.4714
  781MOL0     H 3054   3.024   6.149   7.949  3.0771 -0.0406 -1.6232
  781MOL0     H 3055   2.805   6.250   7.885 -0.1996 -0.8277  1.3902
  781MOL0     H 3056   2.541   6.751   7.854 -1.1073  1.0559 -0.9809
  781MOL0     H 3057   2.320   6.833   7.912 -1.1122  0.9123  2.0060
  781MOL0     H 3058   2.113   6.883   7.963  1.3056  1.7852 -0.1655
  781MOL0     H 3059   2.198   6.957   8.093 -0.1639  0.5527 -0.0802
  781MOL0     H 3060   1.980   7.024   8.135 -2.2452 -0.9692 -0.7465
  781MOL0     H 3061   2.025   6.907   8.265 -0.5869 -1.7207  0.6498
  781MOL0     H 3062   1.910   6.716   8.143 -2.8580 -0.8696  0.3713
  781MOL0     H 3063   1.876   6.820   8.010  3.9348 -3.5221 -0.9344
  781MOL0     H 3064   1.787   6.875   8.298 -1.2817  0.2282 -0.1107
  781MOL0     H 3065   1.738   6.960   8.157 -0.7743  0.0898  0.0026
  781MOL0     H 3066   1.630   6.730   8.300  1.1102 -1.2212 -0.2088
  781MOL0     H 3067   1.654   6.674   8.125 -1.6645 -1.1582  0.4587
  781MOL0     H 3068   1.506   6.902   8.226 -0.4718 -1.5115  3.1040
  781MOL0     H 3069   1.444   6.736   8.189  0.9899 -1.5398 -1.4862
  781MOL0     H 3070   1.500   6.751   7.967 -1.6664  0.3955 -1.3392
  781MOL0     H 3071   1.365   6.871   8.003 -0.8719 -0.8811 -1.0743
  781MOL0     H 3072   1.535   6.940   7.831 -0.1459  0.6832 -0.1494
  781MOL0     H 3073   1.661   6.924   7.957 -0.4881  0.2671  3.1554
  781MOL0     H 3074   2.318   6.586   8.266  1.6882  0.7013  1.4785
  781MOL0     H 3075   2.516   6.490   8.198  2.4889  1.3712 -0.2057
  781MOL0     H 3076   2.957   6.616   8.063  0.8011  1.5924 -2.1990
  781MOL0     H 3077   3.172   6.514   8.076  0.2538 -0.0371 -0.9862
  781MOL0     H 3078   4.882   6.679   7.088 -0.0849 -1.1763  0.7550
  781MOL0     H 3079   5.103   6.718   7.088 -1.5070  0.1040 -1.4429
  781MOL0     H 3080   5.405   7.095   7.267 -0.3556 -1.4528 -0.2338
  781MOL0     H 3081   5.621   7.180   7.282  0.4631 -0.7705  1.5624
  781MOL0     H 3082   6.022   7.068   7.429  1.5584  0.3674  3.6774
  781MOL0     H 3083   5.936   6.901   7.419 -1.7023  0.4236  0.0972
  781MOL0     H 3084   5.800   6.983   7.630  1.1308 -1.3378  0.0508
  781MOL0     H 3085   5.968   6.964   7.657 -0.0912  0.1890  0.6227
  781MOL0     H 3086   5.829   7.195   7.711  0.9243  2.1687  1.3551
  781MOL0     H 3087   5.891   7.232   7.547 -0.2297  1.3017  0.2660
  781MOL0     H 3088   6.123   7.210   7.644 -1.0097 -1.4785 -0.2529
  781MOL0     H 3089   6.019   7.330   7.720  2.3253 -0.3267  2.4375
  781MOL0     H 3090   6.095   7.073   8.040 -2.1685  1.3957  1.1242
  781MOL0     H 3091   5.763   6.803   7.439 -0.6651 -0.6574 -1.0048
  781MOL0     H 3092   5.541   6.714   7.400 -0.5219  0.5094  1.3267
  782MOL0     O 3093   6.446   7.190   1.486 -0.1700 -0.5015  0.8350
  782MOL0     C 3094   6.368   7.245   1.400 -0.5321  0.2858 -0.0951
  782MOL0     O 3095   6.396   7.271   1.269 -0.3169 -0.0193 -0.0855
  782MOL0     C 3096   6.529   7.266   1.239  0.2501  0.9133  0.6577
  782MOL0     C 3097   6.578   7.163   1.151 -0.1533 -0.2786 -0.0403
  782MOL0     C 3098   6.714   7.169   1.113 -0.3754 -0.8715  0.4644
  782MOL0     C 3099   6.806   7.260   1.175  0.4691 -0.4767  0.0093
  782MOL0     O 3100   6.938   7.272   1.141 -0.0534 -0.3603  0.6333
  782MOL0     C 3101   6.986   7.222   1.016 -1.0145  0.0777  0.1792
  782MOL0     C 3102   7.136   7.259   1.002  0.9891  0.4465  0.9708
  782MOL0     C 3103   7.159   7.403   1.020  0.1521  0.4001  0.2364
  782MOL0     C 3104   7.311   7.412   1.008  0.3769 -0.0795 -0.1222
  782MOL0     C 3105   7.363   7.551   1.032  0.6315 -0.1121 -0.1293
  782MOL0     C 3106   7.335   7.659   0.925 -0.0589 -0.3169  0.9497
  782MOL0     C 3107   7.400   7.802   0.956  0.6937  0.0691 -0.1551
  782MOL0     C 3108   7.370   7.896   0.842 -1.1246 -0.1622  0.3440
  782MOL0     N 3109   7.439   8.030   0.869 -0.9894  0.3773  0.2358
  782MOL0     C 3110   7.444   8.116   0.977  0.7916 -0.8602  0.0030
  782MOL0     C 3111   7.541   8.208   0.958 -0.1854  0.4564  0.0120
  782MOL0     C 3112   7.584   8.312   1.064  0.8847  0.3206 -0.0490
  782MOL0     C 3113   7.701   8.399   1.017 -0.9548 -0.0711 -0.4537
  782MOL0     C 3114   7.720   8.516   1.111 -1.4022  0.5529  0.2378
  782MOL0     C 3115   7.781   8.642   1.051  0.6310 -0.4253  0.1806
  782MOL0     O 3116   7.693   8.687   0.952 -0.2597 -0.4707  1.0857
  782MOL0     C 3117   7.737   8.796   0.876  0.0292 -0.6353 -0.4402
  782MOL0     C 3118   7.857   8.882   0.893  0.2137  0.1945 -1.3049
  782MOL0     C 3119   7.871   8.988   0.803  0.0368 -0.6838  0.2172
  782MOL0     C 3120   7.785   9.017   0.695  0.5237  0.7916  0.9899
  782MOL0     C 3121   7.812   9.138   0.607 -0.2002 -0.0470 -0.5651
  782MOL0     O 3122   7.914   9.233   0.640  0.6303  0.6341  0.2152
  782MOL0     C 3123   7.937   9.353   0.570  0.6229  0.3984 -0.5862
  782MOL0     C 3124   8.046   9.426   0.602 -0.9387 -0.3328 -0.1974
  782MOL0     C 3125   8.095   9.534   0.520  0.8127 -0.7841 -0.6058
  782MOL0     C 3126   8.004   9.592   0.419 -0.7645  0.3479 -1.1974
  782MOL0     O 3127   8.021   9.708   0.352 -0.8912 -0.8629 -0.9227
  782MOL0     C 3128   8.109   9.813   0.391 -0.1908  0.5222 -0.2987
  782MOL0     C 3129   8.052   9.871   0.521  0.3141  0.3620 -0.7768
  782MOL0     C 3130   8.159   9.965   0.587  0.2927  0.2127 -0.8251
  782MOL0     C 3131   8.285   9.900   0.641 -0.7326  0.2863 -1.8614
  782MOL0     C 3132   8.370  10.009   0.722 -0.4793  0.1676 -0.3973
  782MOL0     C 3133   8.502   9.954   0.767 -0.0203 -0.0264  0.2647
  782MOL0     C 3134   8.620   9.930   0.661  0.8850 -0.1553 -0.3452
  782MOL0     C 3135   8.742   9.870   0.744  0.3108  0.6760  0.1139
  782MOL0    Cl 3136   8.713   9.702   0.784  0.1490  0.3473 -0.4786
  782MOL0     C 3137   7.895   9.516   0.394 -0.8923 -0.4878  0.5884
  782MOL0     C 3138   7.869   9.394   0.452  0.7239  0.7881  0.3095
  782MOL0     O 3139   7.729   9.158   0.510  0.6646 -0.2758  0.3037
  782MOL0     C 3140   7.681   8.921   0.681 -0.5336  0.5522  0.2046
  782MOL0     C 3141   7.655   8.821   0.770  0.1971  0.0185 -0.1068
  782MOL0     N 3142   7.579   8.183   0.831  0.3895 -0.1152  0.5055
  782MOL0     N 3143   7.525   8.081   0.775  0.5631 -0.2093  0.1052
  782MOL0     C 3144   6.765   7.351   1.270  0.8358  0.3686 -0.4260
  782MOL0     C 3145   6.622   7.353   1.298  0.3402 -0.5284 -0.1237
  782MOL0     C 3146   6.224   7.256   1.438  1.0894 -0.2220  0.7208
  782MOL0     C 3147   6.156   7.358   1.364 -0.3696  0.0577  0.8777
  782MOL0     C 3148   6.018   7.378   1.392 -0.1971 -0.0654 -0.2429
  782MOL0     C 3149   5.957   7.330   1.508  0.5155  0.1065  0.1045
  782MOL0     O 3150   5.831   7.371   1.559 -0.4888 -0.5544  0.4513
  782MOL0     C 3151   5.742   7.433   1.465 -0.4208  0.4883  0.2660
  782MOL0     C 3152   5.602   7.469   1.525 -1.0209 -0.1645 -0.1037
  782MOL0     C 3153   5.516   7.570   1.441 -0.1906 -0.1526 -0.5099
  782MOL0     C 3154   5.496   7.525   1.294 -0.2118 -1.0146  0.2451
  782MOL0     C 3155   5.605   7.570   1.212  0.4226  0.3557 -0.5426
  782MOL0     C 3156   5.692   7.606   1.136  0.8348  0.1398 -0.1415
  782MOL0     C 3157   6.034   7.234   1.576 -1.2880  0.0953 -0.8982
  782MOL0     C 3158   6.166   7.198   1.544  0.7857  0.6485  0.2380
  782MOL0     H 3159   6.497   7.103   1.110  1.3947 -3.2890  1.0282
  782MOL0     H 3160   6.740   7.092   1.040  0.1023  0.9374 -1.3767
  782MOL0     H 3161   6.937   7.268   0.930  0.5756  0.2493 -0.6613
  782MOL0     H 3162   6.963   7.115   1.009 -1.3277  0.2417 -1.9053
  782MOL0     H 3163   7.157   7.215   0.904 -0.6500  4.5907 -1.5021
  782MOL0     H 3164   7.186   7.200   1.079  0.2529 -1.8509 -0.2239
  782MOL0     H 3165   7.127   7.445   1.115 -2.6757  0.4678 -0.6664
  782MOL0     H 3166   7.105   7.456   0.941 -0.5051  0.8100  0.9531
  782MOL0     H 3167   7.368   7.350   1.078 -2.2777  1.1743  3.4432
  782MOL0     H 3168   7.355   7.378   0.913 -1.6172  1.7674 -1.8320
  782MOL0     H 3169   7.471   7.534   1.033  0.7791  0.4886 -2.0472
  782MOL0     H 3170   7.341   7.570   1.137  1.8983  1.9444 -0.1799
  782MOL0     H 3171   7.230   7.664   0.896 -0.1316  0.6288  1.3183
  782MOL0     H 3172   7.392   7.625   0.838  1.6262  2.5661  0.7797
  782MOL0     H 3173   7.361   7.840   1.051  1.6885 -0.0804  0.3210
  782MOL0     H 3174   7.509   7.798   0.957  0.7360 -1.2013 -2.5913
  782MOL0     H 3175   7.266   7.928   0.834 -0.3570  2.3529 -0.6865
  782MOL0     H 3176   7.399   7.854   0.745 -1.7959 -1.8101  0.8347
  782MOL0     H 3177   7.379   8.110   1.064  1.0034  0.0221  0.2316
  782MOL0     H 3178   7.627   8.265   1.153  0.6984  1.5414  0.7169
  782MOL0     H 3179   7.494   8.361   1.103  2.5830  2.0012  2.0108
  782MOL0     H 3180   7.674   8.450   0.924  1.0239  1.7264 -0.1187
  782MOL0     H 3181   7.796   8.345   1.022 -0.4870  0.7427 -0.3513
  782MOL0     H 3182   7.624   8.550   1.149 -1.6575  0.7866 -0.6212
  782MOL0     H 3183   7.777   8.478   1.197  0.8378 -1.0378 -1.7927
  782MOL0     H 3184   7.878   8.627   1.002  0.4647 -0.8330 -0.0227
  782MOL0     H 3185   7.791   8.726   1.121  3.0831  1.2610 -1.9899
  782MOL0     H 3186   7.926   8.859   0.973 -0.9776 -2.1838 -0.8861
  782MOL0     H 3187   7.956   9.054   0.815 -1.3771  0.8263  3.5959
  782MOL0     H 3188   8.101   9.390   0.688 -2.0831 -4.9168 -1.1187
  782MOL0     H 3189   8.182   9.586   0.558 -0.7842  1.9151 -0.3824
  782MOL0     H 3190   8.129   9.880   0.306  2.2369  0.8820  0.4802
  782MOL0     H 3191   8.207   9.768   0.407  0.5838  2.4771  0.8501
  782MOL0     H 3192   8.025   9.798   0.598 -0.7038 -0.2922 -1.7190
  782MOL0     H 3193   7.956   9.913   0.489 -1.4213 -3.1747 -0.7088
  782MOL0     H 3194   8.110  10.009   0.675 -1.6861 -1.3539 -1.0870
  782MOL0     H 3195   8.177  10.053   0.524  2.3835  1.3881  1.2556
  782MOL0     H 3196   8.255   9.819   0.707 -2.2722  0.9719 -1.6822
  782MOL0     H 3197   8.350   9.852   0.567 -0.4569 -0.6844 -1.0070
  782MOL0     H 3198   8.313  10.040   0.810 -0.7525 -1.9596  0.2556
  782MOL0     H 3199   8.388  10.096   0.659  2.6777  0.7462  1.0679
  782MOL0     H 3200   8.470   9.859   0.811 -4.7278  1.6974  1.1643
  782MOL0     H 3201   8.542  10.026   0.839 -0.9818  2.0304 -1.1364
  782MOL0     H 3202   8.588   9.848   0.596 -1.7128 -1.2663  2.1087
  782MOL0     H 3203   8.651  10.023   0.613  3.3212  0.1397  1.5751
  782MOL0     H 3204   8.753   9.932   0.833 -1.8586 -0.6692  1.4264
  782MOL0     H 3205   8.829   9.861   0.679 -0.0928 -2.7166 -0.1508
  782MOL0     H 3206   7.847   9.553   0.305  0.5410  0.6777  0.2572
  782MOL0     H 3207   7.781   9.346   0.410  0.6289  0.6327  0.6783
  782MOL0     H 3208   7.635   8.923   0.582 -1.3001 -1.4583  0.4736
  782MOL0     H 3209   7.584   8.740   0.757  0.9496 -1.2248  2.7439
  782MOL0     H 3210   6.835   7.423   1.310  2.5032 -2.3103  1.8875
  782MOL0     H 3211   6.589   7.420   1.376 -0.2735 -0.1687 -0.6854
  782MOL0     H 3212   6.199   7.411   1.280 -1.5174 -2.2686 -1.3497
  782MOL0     H 3213   5.968   7.440   1.318  1.1458 -0.4869 -1.5673
  782MOL0     H 3214   5.730   7.373   1.374  3.5718  2.7847 -2.0613
  782MOL0     H 3215   5.800   7.522   1.437 -1.7294  0.2111 -3.9823
  782MOL0     H 3216   5.553   7.375   1.553 -2.4302  0.9469  1.3467
  782MOL0     H 3217   5.626   7.520   1.619 -0.7296 -0.6699  0.1061
  782MOL0     H 3218   5.569   7.665   1.452  2.3940 -1.5985  0.5294
  782MOL0     H 3219   5.419   7.570   1.493 -0.8438 -2.2555 -1.6201
  782MOL0     H 3220   5.493   7.416   1.284 -1.3404 -0.7905 -2.9435
  782MOL0     H 3221   5.399   7.557   1.254  0.3080  1.7843  1.0114
  782MOL0     H 3222   5.777   7.628   1.074  0.1612 -1.6458 -1.7830
  782MOL0     H 3223   5.983   7.184   1.658  0.9398 -0.7147  0.0873
  782MOL0     H 3224   6.215   7.129   1.611  1.0923 -0.2324 -0.8795
  783MOL0     O 3225   0.515   4.323   3.279  0.2736  0.2410 -0.3332
  783MOL0     C 3226   0.478   4.417   3.344 -0.8235  0.1614 -0.4149
  783MOL0     O 3227   0.569   4.486   3.420  0.9335 -0.1052  0.0165
  783MOL0     C 3228   0.703   4.470   3.397  0.4204 -0.1060  0.1495
  783MOL0     C 3229   0.748   4.467   3.260  0.3579 -0.4674 -0.2375
  783MOL0     C 3230   0.883   4.456   3.231 -0.8796 -1.1651 -0.2398
  783MOL0     C 3231   0.978   4.465   3.335  0.7367 -0.5030  0.1593
  783MOL0     O 3232   1.115   4.473   3.340  0.0071  0.5367  0.8080
  783MOL0     C 3233   1.169   4.561   3.238 -0.3627 -0.4863 -0.6580
  783MOL0     C 3234   1.303   4.617   3.302  1.2274  0.2245  0.2863
  783MOL0     C 3235   1.292   4.756   3.375  0.1110 -0.3713  0.2988
  783MOL0     C 3236   1.431   4.828   3.372 -0.3002 -0.2872  0.2237
  783MOL0     C 3237   1.434   4.965   3.449  1.0461  0.2033 -0.2594
  783MOL0     C 3238   1.563   5.045   3.426 -0.9409  0.6943  0.5303
  783MOL0     C 3239   1.570   5.160   3.527  0.9390 -0.2460 -0.0929
  783MOL0     C 3240   1.720   5.197   3.548  0.7943  0.5586  0.2975
  783MOL0     N 3241   1.806   5.093   3.615 -0.1395  0.5375 -0.2688
  783MOL0     C 3242   1.785   5.063   3.748  0.6072  0.4387 -0.9944
  783MOL0     C 3243   1.868   4.949   3.757  0.7228  0.1457 -0.2951
  783MOL0     C 3244   1.905   4.871   3.878  1.3852  0.5341 -0.3425
  783MOL0     C 3245   2.005   4.760   3.852 -1.1315  0.7424  0.6255
  783MOL0     C 3246   2.155   4.799   3.820  0.2126 -0.1709 -0.1087
  783MOL0     C 3247   2.239   4.692   3.745  1.1228  0.7491 -0.4307
  783MOL0     O 3248   2.211   4.569   3.823 -0.6917 -0.0377 -0.5138
  783MOL0     C 3249   2.271   4.448   3.811  0.6447  0.2300  0.3148
  783MOL0     C 3250   2.210   4.337   3.882 -0.3840  0.2529 -0.3321
  783MOL0     C 3251   2.255   4.206   3.863 -0.7459  0.8850 -0.2271
  783MOL0     C 3252   2.372   4.186   3.791  0.0409  0.5067 -0.4960
  783MOL0     C 3253   2.438   4.055   3.791  0.0006  0.5986  0.4886
  783MOL0     O 3254   2.573   4.035   3.748  0.3562  0.0994 -0.1598
  783MOL0     C 3255   2.616   3.902   3.757 -0.3148 -0.4372  0.0941
  783MOL0     C 3256   2.545   3.802   3.688  0.1193 -0.1974 -0.0200
  783MOL0     C 3257   2.581   3.672   3.716 -0.2902 -0.0381 -0.1560
  783MOL0     C 3258   2.676   3.630   3.807  0.5653 -0.7911 -0.1937
  783MOL0     O 3259   2.706   3.503   3.850  0.4405 -0.1482  0.6862
  783MOL0     C 3260   2.786   3.436   3.751 -0.2163 -0.5812 -0.3096
  783MOL0     C 3261   2.868   3.340   3.833  0.0517 -0.3908  1.0945
  783MOL0     C 3262   2.968   3.267   3.748  0.0777  0.3482  0.4099
  783MOL0     C 3263   3.111   3.248   3.808  0.4177 -0.1773  0.1486
  783MOL0     C 3264   3.200   3.151   3.735  0.3745 -0.0717 -0.1322
  783MOL0     C 3265   3.338   3.136   3.783  0.7004  0.3223  0.6618
  783MOL0     C 3266   3.421   3.068   3.681  0.6526  0.1894 -0.6231
  783MOL0     C 3267   3.569   3.054   3.727  0.0765  0.6641  0.1076
  783MOL0    Cl 3268   3.658   2.940   3.625 -0.4601 -0.1399  0.2729
  783MOL0     C 3269   2.753   3.734   3.862  0.4931  0.4665  0.0265
  783MOL0     C 3270   2.719   3.869   3.839 -1.3157 -0.8998  0.5351
  783MOL0     O 3271   2.363   3.963   3.826  0.4882  0.2861 -0.4322
  783MOL0     C 3272   2.436   4.297   3.729  0.5221 -0.6490 -0.2041
  783MOL0     C 3273   2.386   4.428   3.734  0.3463  0.2876  0.2544
  783MOL0     N 3274   1.923   4.920   3.632 -0.6072  0.4400  0.5958
  783MOL0     N 3275   1.881   5.003   3.546 -0.1328 -1.1650  0.0324
  783MOL0     C 3276   0.933   4.455   3.461 -0.3059 -0.1950 -0.0255
  783MOL0     C 3277   0.797   4.460   3.499  0.4648  0.5663 -0.4933
  783MOL0     C 3278   0.330   4.449   3.346  1.0624  0.3749 -0.1021
  783MOL0     C 3279   0.242   4.410   3.238 -0.4445 -0.6867  0.2016
  783MOL0     C 3280   0.105   4.450   3.243 -0.0994  0.2827  0.8522
  783MOL0     C 3281   0.055   4.526   3.350 -0.0901  0.2000 -0.5128
  783MOL0     O 3282  -0.072   4.555   3.348  0.2603 -0.0833  0.6230
  783MOL0     C 3283  -0.130   4.667   3.428  0.2153 -0.0399  0.7763
  783MOL0     C 3284  -0.167   4.599   3.563  0.5168 -1.2538  0.0277
  783MOL0     C 3285  -0.296   4.682   3.608  0.6844  0.3257  0.5933
  783MOL0     C 3286  -0.316   4.705   3.750 -0.3147 -0.7583 -0.1597
  783MOL0     C 3287  -0.230   4.819   3.804  0.8661 -0.9489 -0.4726
  783MOL0     C 3288  -0.155   4.913   3.842  0.0627  0.2855  0.2894
  783MOL0     C 3289   0.145   4.575   3.443  0.6399  0.0008 -0.9845
  783MOL0     C 3290   0.273   4.531   3.446  0.2673 -0.2487 -0.2881
  783MOL0     H 3291   0.677   4.478   3.178  1.0206  2.0130 -0.5448
  783MOL0     H 3292   0.915   4.456   3.127 -2.3436 -2.3206 -0.7280
  783MOL0     H 3293   1.091   4.634   3.215 -0.6012 -0.9882 -1.4696
  783MOL0     H 3294   1.191   4.507   3.146  1.0904  2.7282 -2.3239
  783MOL0     H 3295   1.372   4.632   3.218  0.0462  1.6645 -0.4765
  783MOL0     H 3296   1.354   4.537   3.357 -0.7775  1.1903  3.8909
  783MOL0     H 3297   1.255   4.742   3.477 -3.1924  0.3500 -0.6687
  783MOL0     H 3298   1.217   4.815   3.321 -2.2341 -1.9902  1.5750
  783MOL0     H 3299   1.503   4.756   3.414 -2.3351 -2.2842  0.4959
  783MOL0     H 3300   1.440   4.854   3.266  1.2362  5.9283  1.4876
  783MOL0     H 3301   1.423   4.939   3.554 -0.8138 -2.7182 -1.0419
  783MOL0     H 3302   1.339   5.008   3.415  0.0521 -0.7283  1.2127
  783MOL0     H 3303   1.579   5.086   3.326 -3.0587  3.2318  1.1090
  783MOL0     H 3304   1.641   4.975   3.459 -0.1038  0.7941 -1.1724
  783MOL0     H 3305   1.528   5.255   3.491  1.6096  0.0135 -0.1966
  783MOL0     H 3306   1.526   5.122   3.620 -1.6731 -1.6835 -1.7980
  783MOL0     H 3307   1.719   5.293   3.601 -3.2821  0.8112  0.0884
  783MOL0     H 3308   1.761   5.206   3.447 -1.1912 -0.1441 -0.6241
  783MOL0     H 3309   1.733   5.127   3.819  2.1817  2.6314 -1.7057
  783MOL0     H 3310   1.812   4.832   3.920  1.2393 -0.7290 -1.7982
  783MOL0     H 3311   1.954   4.939   3.949  1.0045  0.8901 -0.4147
  783MOL0     H 3312   1.959   4.705   3.769 -3.3761  2.1732  0.8343
  783MOL0     H 3313   2.001   4.691   3.936 -1.7825 -0.3554 -0.2707
  783MOL0     H 3314   2.154   4.891   3.760  0.8473  1.6025  2.4529
  783MOL0     H 3315   2.205   4.825   3.914 -1.2233 -0.4342  0.7581
  783MOL0     H 3316   2.345   4.717   3.740  1.1696  1.4768  2.3413
  783MOL0     H 3317   2.210   4.670   3.642 -2.1833  0.0228  0.5201
  783MOL0     H 3318   2.132   4.372   3.948 -0.8929 -1.9193  0.3088
  783MOL0     H 3319   2.184   4.143   3.916 -1.9914  1.4088 -1.2295
  783MOL0     H 3320   2.467   3.837   3.622  0.4257  1.9303  0.6652
  783MOL0     H 3321   2.529   3.595   3.660  1.3223  0.1376 -1.9936
  783MOL0     H 3322   2.870   3.500   3.721  0.2291  0.9308  3.4767
  783MOL0     H 3323   2.730   3.391   3.669  2.7578 -1.4453 -2.0401
  783MOL0     H 3324   2.800   3.270   3.882  1.5874 -1.9138  1.1439
  783MOL0     H 3325   2.909   3.396   3.918 -0.0516  0.3400  0.6668
  783MOL0     H 3326   2.970   3.305   3.645  0.9418 -2.8561 -0.8995
  783MOL0     H 3327   2.924   3.167   3.748  3.5776 -1.3841 -1.3215
  783MOL0     H 3328   3.164   3.343   3.804  0.0659 -0.0242 -1.9209
  783MOL0     H 3329   3.085   3.222   3.911 -1.9749 -2.6052 -0.9438
  783MOL0     H 3330   3.194   3.198   3.636 -2.5842 -0.9855 -0.4844
  783MOL0     H 3331   3.153   3.052   3.730 -1.6331  0.6079  2.7181
  783MOL0     H 3332   3.327   3.072   3.871  0.2958  0.8583  1.0057
  783MOL0     H 3333   3.380   3.235   3.802  1.2826 -0.0380  1.2722
  783MOL0     H 3334   3.384   2.967   3.658  3.5012 -0.9271 -0.6436
  783MOL0     H 3335   3.423   3.125   3.587  0.1422  1.4303  0.0960
  783MOL0     H 3336   3.574   3.034   3.834 -2.9180  3.1828  0.8753
  783MOL0     H 3337   3.626   3.148   3.728  1.6464 -0.2040  2.4807
  783MOL0     H 3338   2.822   3.689   3.932 -2.9708 -2.3576  1.9318
  783MOL0     H 3339   2.769   3.943   3.900 -1.7249 -0.1694 -0.0006
  783MOL0     H 3340   2.526   4.277   3.671  0.3721  2.3015 -1.6310
  783MOL0     H 3341   2.431   4.502   3.669 -0.3226 -3.8502 -5.7336
  783MOL0     H 3342   1.012   4.443   3.534  2.1234 -2.4806 -2.7857
  783MOL0     H 3343   0.757   4.447   3.598  0.7520  2.4921 -0.0872
  783MOL0     H 3344   0.273   4.353   3.151  1.0744 -1.1799  1.0286
  783MOL0     H 3345   0.047   4.417   3.157  0.1058 -0.8560  1.1397
  783MOL0     H 3346  -0.213   4.711   3.372  0.5308 -0.3459  0.0484
  783MOL0     H 3347  -0.064   4.753   3.443 -0.8788  1.3659 -1.8210
  783MOL0     H 3348  -0.216   4.502   3.547 -2.4938  0.7346 -6.1482
  783MOL0     H 3349  -0.083   4.605   3.633  0.2380  1.0245  0.2404
  783MOL0     H 3350  -0.383   4.635   3.562 -3.1104  4.4447  2.8387
  783MOL0     H 3351  -0.292   4.780   3.561  0.8371 -0.1157 -0.3501
  783MOL0     H 3352  -0.422   4.728   3.762 -0.8770 -2.4806 -1.6201
  783MOL0     H 3353  -0.291   4.619   3.813 -1.5564 -1.4274 -0.5544
  783MOL0     H 3354  -0.091   4.991   3.877  0.6653  0.4623 -1.1479
  783MOL0     H 3355   0.096   4.633   3.520 -0.4180 -1.0459 -0.8326
  783MOL0     H 3356   0.340   4.553   3.529  0.5946 -0.7324 -0.4220
  784MOL0     O 3357  10.387   6.844   6.444  0.0888 -0.4330  0.4637
  784MOL0     C 3358  10.455   6.802   6.348  0.9102 -0.1172  0.2284
  784MOL0     O 3359  10.565   6.728   6.355  0.3729  0.0728  0.3250
  784MOL0     C 3360  10.669   6.781   6.425 -0.5025  0.4123 -0.1927
  784MOL0     C 3361  10.792   6.763   6.368  0.2319  0.7361  0.6777
  784MOL0     C 3362  10.906   6.826   6.410  0.1210 -0.1672 -0.1604
  784MOL0     C 3363  10.902   6.904   6.524  0.6761  0.2248  0.1242
  784MOL0     O 3364  11.009   6.981   6.559  0.3347 -0.7152  0.0321
  784MOL0     C 3365  11.078   6.956   6.674 -0.4267  0.4803 -0.5127
  784MOL0     C 3366  11.148   6.820   6.699  0.1932 -0.1650  0.7290
  784MOL0     C 3367  11.240   6.821   6.807 -0.3745  0.0123 -0.2057
  784MOL0     C 3368  11.300   6.674   6.827 -0.2113 -0.7670  0.0500
  784MOL0     C 3369  11.356   6.658   6.964  0.6454 -0.6688 -0.6326
  784MOL0     C 3370  11.507   6.674   6.964  0.1700  0.7609 -0.4428
  784MOL0     C 3371  11.565   6.597   7.091  0.5444  0.4353  0.2033
  784MOL0     C 3372  11.715   6.626   7.126  0.4960  0.3381  0.6205
  784MOL0     N 3373  11.754   6.540   7.234 -0.5566  0.1553  0.6991
  784MOL0     C 3374  11.694   6.556   7.361 -0.1408 -0.7944 -0.6623
  784MOL0     C 3375  11.697   6.439   7.418 -0.6087 -0.5907 -0.3337
  784MOL0     C 3376  11.639   6.416   7.551  0.6665  0.3521 -0.4336
  784MOL0     C 3377  11.756   6.367   7.648  1.1443 -0.1073  0.0283
  784MOL0     C 3378  11.849   6.482   7.686  0.2212 -0.1221 -0.4640
  784MOL0     C 3379  11.812   6.540   7.821 -0.5617  0.5364 -0.4463
  784MOL0     O 3380  11.669   6.574   7.820  0.2047 -0.2303 -0.0765
  784MOL0     C 3381  11.594   6.626   7.925 -0.4185  0.2804 -0.1315
  784MOL0     C 3382  11.653   6.678   8.040  1.0670 -0.3829 -0.2352
  784MOL0     C 3383  11.573   6.715   8.148 -0.2136 -0.1389 -0.3357
  784MOL0     C 3384  11.432   6.709   8.144  0.3702  0.2687 -0.2454
  784MOL0     C 3385  11.348   6.733   8.262 -0.4417  0.5818 -0.0821
  784MOL0     O 3386  11.413   6.700   8.373 -0.9175 -0.4231 -0.2245
  784MOL0     C 3387  11.350   6.736   8.493  0.2958  0.1747 -0.2856
  784MOL0     C 3388  11.394   6.839   8.570 -0.3282 -0.9214  0.6032
  784MOL0     C 3389  11.335   6.875   8.692  0.2815  0.5032  0.2036
  784MOL0     C 3390  11.226   6.802   8.739  0.5497  1.2522 -1.0528
  784MOL0     O 3391  11.170   6.814   8.859  0.6141  0.1187 -0.4624
  784MOL0     C 3392  11.266   6.816   8.968 -0.6742 -0.5204 -1.0716
  784MOL0     C 3393  11.205   6.786   9.108 -0.1353  0.1232 -0.1683
  784MOL0     C 3394  11.220   6.634   9.150 -1.0764  0.1450  0.7323
  784MOL0     C 3395  11.363   6.609   9.201  0.0294 -0.8116 -0.5445
  784MOL0     C 3396  11.378   6.485   9.286 -0.1794  0.7921 -0.8257
  784MOL0     C 3397  11.324   6.518   9.440  0.1449  0.2698  0.0565
  784MOL0     C 3398  11.424   6.601   9.524  0.2330 -0.4329 -0.4106
  784MOL0     C 3399  11.557   6.540   9.539  0.3349  0.5633  0.2414
  784MOL0    Cl 3400  11.653   6.642   9.431 -0.1540  0.1136  0.4555
  784MOL0     C 3401  11.176   6.701   8.652  0.5205 -0.0473  0.3577
  784MOL0     C 3402  11.235   6.668   8.537 -0.2946 -0.2436 -0.7733
  784MOL0     O 3403  11.236   6.784   8.253 -0.1863  0.5581 -0.0846
  784MOL0     C 3404  11.374   6.657   8.028 -0.0567 -1.0017  0.2493
  784MOL0     C 3405  11.455   6.615   7.924  0.0729  0.7304 -0.2111
  784MOL0     N 3406  11.743   6.349   7.322 -0.1032 -0.1095  0.1115
  784MOL0     N 3407  11.794   6.409   7.211  0.0023 -0.7623 -0.9397
  784MOL0     C 3408  10.781   6.913   6.595  0.6036 -0.5642 -0.3348
  784MOL0     C 3409  10.662   6.852   6.549 -1.0310 -0.7836 -1.1031
  784MOL0     C 3410  10.400   6.821   6.206  0.0831 -0.7433 -0.5901
  784MOL0     C 3411  10.296   6.915   6.189 -0.2871 -0.8394  0.8498
  784MOL0     C 3412  10.247   6.952   6.062 -0.7146 -0.3795 -0.9281
  784MOL0     C 3413  10.283   6.872   5.960 -0.3618 -0.4072  0.1912
  784MOL0     O 3414  10.205   6.887   5.844 -0.2589 -0.3231  0.7429
  784MOL0     C 3415  10.273   6.869   5.718 -0.0670 -0.2177 -0.0097
  784MOL0     C 3416  10.167   6.836   5.613  0.3268 -0.6825  0.2396
  784MOL0     C 3417  10.059   6.940   5.583  0.2652 -0.1525 -0.1411
  784MOL0     C 3418  10.099   7.081   5.563  0.7457 -0.3197 -0.7121
  784MOL0     C 3419  10.209   7.092   5.463 -0.1864  0.3099 -0.9739
  784MOL0     C 3420  10.302   7.107   5.377  0.2002 -0.2599  0.1369
  784MOL0     C 3421  10.382   6.767   5.977 -0.0918  0.5153 -0.0145
  784MOL0     C 3422  10.452   6.749   6.108 -0.3413 -0.6216  1.3051
  784MOL0     H 3423  10.792   6.709   6.274 -2.7671 -3.3505  2.7356
  784MOL0     H 3424  10.995   6.829   6.348 -0.6802  4.3111 -1.4817
  784MOL0     H 3425  11.029   6.984   6.768 -1.0143 -0.3553 -0.5603
  784MOL0     H 3426  11.168   7.018   6.668  0.5374 -1.0155 -2.6917
  784MOL0     H 3427  11.201   6.783   6.611 -0.2133 -2.0291  1.2362
  784MOL0     H 3428  11.077   6.739   6.720  0.1121  0.4150  2.9363
  784MOL0     H 3429  11.198   6.856   6.901  1.9930 -0.1183  0.9594
  784MOL0     H 3430  11.324   6.881   6.771  2.0432 -2.9747  0.0939
  784MOL0     H 3431  11.211   6.611   6.816 -1.9204  1.9927 -4.8691
  784MOL0     H 3432  11.362   6.647   6.741 -1.5295 -1.7527 -0.6221
  784MOL0     H 3433  11.317   6.562   7.000 -0.8684  1.0268  2.7372
  784MOL0     H 3434  11.307   6.724   7.036 -3.2646 -3.6111 -0.2680
  784MOL0     H 3435  11.523   6.782   6.974  4.0835  0.1728  1.6753
  784MOL0     H 3436  11.546   6.639   6.868 -1.3536 -2.2883 -0.0789
  784MOL0     H 3437  11.502   6.621   7.177  1.9678 -2.2912  2.1684
  784MOL0     H 3438  11.554   6.489   7.078 -0.1613  0.5156  0.0538
  784MOL0     H 3439  11.736   6.728   7.160  1.1971  0.7543 -0.9892
  784MOL0     H 3440  11.777   6.605   7.039  1.8684  1.9636  1.1547
  784MOL0     H 3441  11.662   6.648   7.409  1.5200  0.9925 -2.7738
  784MOL0     H 3442  11.570   6.331   7.551 -2.8615  2.9901  0.8947
  784MOL0     H 3443  11.572   6.497   7.580 -0.7821 -0.3991 -1.5609
  784MOL0     H 3444  11.815   6.295   7.591 -1.3238 -0.5169 -2.1866
  784MOL0     H 3445  11.714   6.314   7.734  2.0026 -1.5323 -0.3949
  784MOL0     H 3446  11.957   6.461   7.683  0.4391  1.0094 -0.8320
  784MOL0     H 3447  11.840   6.569   7.621 -0.5685  0.6704  0.6729
  784MOL0     H 3448  11.876   6.626   7.843 -1.9983  1.5996 -0.2648
  784MOL0     H 3449  11.822   6.463   7.899 -0.1423  1.4197  0.3942
  784MOL0     H 3450  11.760   6.698   8.041  0.9996  0.2772  2.3227
  784MOL0     H 3451  11.624   6.736   8.241 -2.2499  0.0683  0.7854
  784MOL0     H 3452  11.482   6.893   8.535 -0.8771  1.4937  2.6280
  784MOL0     H 3453  11.379   6.958   8.746 -0.4944 -1.4799  4.1969
  784MOL0     H 3454  11.312   6.913   8.988 -2.2193  0.1752 -0.7073
  784MOL0     H 3455  11.353   6.751   8.954  3.5834  3.3244  3.7820
  784MOL0     H 3456  11.098   6.809   9.104  0.5858  4.1393  0.0124
  784MOL0     H 3457  11.245   6.845   9.190 -2.2793  2.1861 -0.5272
  784MOL0     H 3458  11.201   6.580   9.056 -2.0611  0.1728  0.9016
  784MOL0     H 3459  11.136   6.606   9.215  0.2134 -2.7413  1.3220
  784MOL0     H 3460  11.420   6.599   9.107 -2.0310 -1.4976 -1.7855
  784MOL0     H 3461  11.411   6.689   9.258  0.3061 -1.9619  0.8779
  784MOL0     H 3462  11.479   6.445   9.293 -1.0012 -1.1599  1.4311
  784MOL0     H 3463  11.310   6.407   9.250  0.9641 -1.2204  1.1044
  784MOL0     H 3464  11.298   6.426   9.494 -0.2371 -1.8396 -3.4468
  784MOL0     H 3465  11.229   6.570   9.420  0.6622  1.0720 -0.3617
  784MOL0     H 3466  11.440   6.704   9.492  1.8694 -0.3570  0.5503
  784MOL0     H 3467  11.384   6.599   9.626  2.0488 -0.6801  0.3231
  784MOL0     H 3468  11.548   6.434   9.513  0.8759  0.5555  0.0829
  784MOL0     H 3469  11.572   6.567   9.644 -0.4304  2.2740 -0.0630
  784MOL0     H 3470  11.089   6.646   8.685 -0.2152  0.9967  0.2231
  784MOL0     H 3471  11.186   6.591   8.477 -1.0544  0.0903 -0.5886
  784MOL0     H 3472  11.267   6.641   8.027 -0.1503 -0.6220 -1.7952
  784MOL0     H 3473  11.412   6.583   7.830 -2.0650  4.3359 -0.6740
  784MOL0     H 3474  10.769   6.991   6.669 -1.2034 -0.6410 -0.4951
  784MOL0     H 3475  10.571   6.870   6.605 -0.4623 -3.9413  1.1253
  784MOL0     H 3476  10.258   6.956   6.282  0.8954 -0.9921  1.4150
  784MOL0     H 3477  10.172   7.030   6.051  0.6717  1.0423 -0.6838
  784MOL0     H 3478  10.340   6.783   5.724 -0.4015 -0.7363 -2.6922
  784MOL0     H 3479  10.333   6.955   5.688  0.0708 -0.6268 -0.9282
  784MOL0     H 3480  10.217   6.807   5.520 -0.5309 -2.3803  0.2644
  784MOL0     H 3481  10.114   6.747   5.648  0.8564 -0.6844  1.0532
  784MOL0     H 3482   9.978   6.923   5.654  2.4413  2.1472  3.1407
  784MOL0     H 3483  10.024   6.917   5.481  1.7096 -2.9069 -0.1094
  784MOL0     H 3484  10.011   7.133   5.525  0.8464 -1.2034 -2.2059
  784MOL0     H 3485  10.130   7.130   5.656  1.8074 -1.3341 -0.5136
  784MOL0     H 3486  10.380   7.111   5.304  1.5019 -6.3188  0.6543
  784MOL0     H 3487  10.419   6.706   5.895 -0.7415 -0.5310  0.4495
  784MOL0     H 3488  10.533   6.677   6.116  0.0666 -0.1831  1.1918
  785MOL0     O 3489   4.316   6.924   1.025  0.4670  0.3562 -0.3678
  785MOL0     C 3490   4.289   6.801   1.053  0.6975 -0.0204  0.5984
  785MOL0     O 3491   4.171   6.742   1.030  1.1751 -0.9987  0.1477
  785MOL0     C 3492   4.068   6.822   0.982 -0.0010 -0.0923 -0.0221
  785MOL0     C 3493   4.023   6.918   1.065 -0.3427 -0.2130  0.3379
  785MOL0     C 3494   3.908   6.991   1.028 -0.9587 -0.8584 -0.2743
  785MOL0     C 3495   3.847   6.971   0.900 -0.2908 -0.4821 -0.6885
  785MOL0     O 3496   3.742   7.040   0.838 -0.4774  0.9019 -0.6420
  785MOL0     C 3497   3.741   7.181   0.878 -0.5939 -0.1514 -0.2589
  785MOL0     C 3498   3.658   7.218   1.004  0.3691 -0.4297  0.0566
  785MOL0     C 3499   3.505   7.215   0.978 -0.8582 -0.2406  0.5255
  785MOL0     C 3500   3.444   7.283   1.101  0.6368  0.8593  0.4085
  785MOL0     C 3501   3.292   7.311   1.101 -0.1854 -0.5236  0.0604
  785MOL0     C 3502   3.209   7.187   1.105 -0.1310 -0.0747  0.3409
  785MOL0     C 3503   3.060   7.197   1.153 -0.2125  0.3254  0.8571
  785MOL0     C 3504   2.983   7.245   1.033  0.6686  0.6330 -0.1271
  785MOL0     N 3505   2.833   7.251   1.066 -0.9492  0.1155 -0.6161
  785MOL0     C 3506   2.727   7.215   0.988 -0.6730  0.4720 -0.1676
  785MOL0     C 3507   2.621   7.241   1.064  0.6322 -0.3157  0.0862
  785MOL0     C 3508   2.486   7.211   1.013  0.0467 -0.6549  0.2922
  785MOL0     C 3509   2.441   7.064   1.052 -0.5913 -1.0884 -0.6985
  785MOL0     C 3510   2.334   6.999   0.968 -0.0549 -0.4499  0.1231
  785MOL0     C 3511   2.294   6.863   1.028  0.3541 -0.7696  0.8136
  785MOL0     O 3512   2.188   6.822   0.943 -0.2445 -0.5072  0.8852
  785MOL0     C 3513   2.057   6.802   0.994  0.1258  0.1260  0.4039
  785MOL0     C 3514   2.006   6.864   1.111  0.2042  0.3653 -0.3815
  785MOL0     C 3515   1.873   6.836   1.156  0.7372 -1.4708  0.1959
  785MOL0     C 3516   1.797   6.733   1.094 -0.9157 -0.7023 -0.0897
  785MOL0     C 3517   1.685   6.667   1.166  0.7915  0.4522 -0.1100
  785MOL0     O 3518   1.641   6.550   1.101 -0.4361  0.1795  0.1023
  785MOL0     C 3519   1.540   6.477   1.160  0.0872  0.7696 -0.7389
  785MOL0     C 3520   1.424   6.483   1.093 -0.0184 -0.7488 -0.6451
  785MOL0     C 3521   1.316   6.408   1.132  0.1209  0.1764 -1.1295
  785MOL0     C 3522   1.325   6.332   1.254 -0.6464 -0.1274  0.0194
  785MOL0     O 3523   1.217   6.263   1.305 -0.4309  1.1457  0.2375
  785MOL0     C 3524   1.250   6.119   1.320  0.5692  0.6949 -0.6674
  785MOL0     C 3525   1.122   6.032   1.330 -0.6429  0.4375  0.4380
  785MOL0     C 3526   1.129   5.911   1.415  0.6060 -1.1801  0.3227
  785MOL0     C 3527   1.002   5.829   1.385 -0.4427 -0.3605  0.4158
  785MOL0     C 3528   0.864   5.892   1.379  0.3983  0.1910 -0.1068
  785MOL0     C 3529   0.805   5.936   1.522 -0.2321 -0.1185  0.2008
  785MOL0     C 3530   0.665   5.984   1.508  0.1502 -0.4469 -0.3411
  785MOL0     C 3531   0.560   5.882   1.549 -0.3660  0.0866  0.1514
  785MOL0    Cl 3532   0.512   5.774   1.416 -0.2687  0.9160 -0.0495
  785MOL0     C 3533   1.443   6.333   1.324  0.3395 -0.2838 -0.4038
  785MOL0     C 3534   1.548   6.418   1.289 -0.1710  0.8752  0.5164
  785MOL0     O 3535   1.631   6.721   1.265 -0.5920 -0.7561  0.0274
  785MOL0     C 3536   1.850   6.672   0.982  0.2699 -0.1816  0.8083
  785MOL0     C 3537   1.980   6.710   0.931  0.6182 -0.6429 -0.1419
  785MOL0     N 3538   2.656   7.295   1.188 -0.9393  0.0131 -0.3892
  785MOL0     N 3539   2.788   7.301   1.187  0.4944  0.1471  0.4611
  785MOL0     C 3540   3.890   6.865   0.821  0.8985 -0.4414 -0.8153
  785MOL0     C 3541   4.002   6.792   0.860  0.2355  0.5317  0.9934
  785MOL0     C 3542   4.384   6.711   1.101  0.0811 -0.1758  0.4426
  785MOL0     C 3543   4.354   6.598   1.184  0.6980  0.4411 -0.1925
  785MOL0     C 3544   4.454   6.521   1.251  0.5477 -0.2422  0.5470
  785MOL0     C 3545   4.592   6.554   1.237  0.1914 -0.1345  1.3216
  785MOL0     O 3546   4.703   6.503   1.302 -1.2384 -0.3497 -0.4486
  785MOL0     C 3547   4.680   6.460   1.437  0.6109 -0.6176  0.6872
  785MOL0     C 3548   4.815   6.473   1.508 -0.2950  0.9492 -0.3381
  785MOL0     C 3549   4.904   6.360   1.458 -0.0331 -0.0929 -0.1877
  785MOL0     C 3550   5.053   6.381   1.504  0.6674 -0.4018 -0.4691
  785MOL0     C 3551   5.105   6.248   1.484 -0.2715  0.4137 -0.2888
  785MOL0     C 3552   5.150   6.137   1.469 -0.5493 -0.4059  0.4531
  785MOL0     C 3553   4.615   6.667   1.153 -0.6511 -0.5842 -0.6276
  785MOL0     C 3554   4.517   6.739   1.086 -0.4050  1.1769  1.0983
  785MOL0     H 3555   4.068   6.952   1.157 -3.5485  3.0895  0.9086
  785MOL0     H 3556   3.877   7.066   1.101  1.2355  1.1834 -1.2720
  785MOL0     H 3557   3.698   7.242   0.798  0.1430  0.6790 -0.0318
  785MOL0     H 3558   3.843   7.218   0.890 -0.7209 -0.2627  1.3156
  785MOL0     H 3559   3.689   7.320   1.028  1.0467 -0.2823 -1.3585
  785MOL0     H 3560   3.668   7.149   1.089  3.1338  0.4241  0.5426
  785MOL0     H 3561   3.478   7.110   0.966  0.8862 -0.4662 -2.3431
  785MOL0     H 3562   3.496   7.260   0.879 -3.5208 -1.2025  0.2644
  785MOL0     H 3563   3.464   7.234   1.197  0.3663 -0.5564 -0.2230
  785MOL0     H 3564   3.487   7.382   1.115  1.5518  0.4192  0.7661
  785MOL0     H 3565   3.270   7.375   1.016  0.3709 -0.8416 -0.3320
  785MOL0     H 3566   3.280   7.375   1.189  1.4923  1.5990 -1.1546
  785MOL0     H 3567   3.255   7.122   1.180 -0.8164 -0.0608  0.7715
  785MOL0     H 3568   3.203   7.142   1.005 -2.6757  1.6357 -0.3677
  785MOL0     H 3569   3.011   7.108   1.194 -0.7998  0.6176  0.7979
  785MOL0     H 3570   3.066   7.280   1.225 -1.1992  1.1261  0.0455
  785MOL0     H 3571   2.984   7.165   0.959 -0.2244  2.4160 -2.1877
  785MOL0     H 3572   3.012   7.343   0.995  0.6708  1.0555  0.9224
  785MOL0     H 3573   2.729   7.171   0.889 -3.7958  0.8435 -0.5039
  785MOL0     H 3574   2.483   7.223   0.905 -2.6097 -1.8555  0.1509
  785MOL0     H 3575   2.404   7.276   1.047 -0.4226 -3.4022  5.6193
  785MOL0     H 3576   2.424   7.067   1.160 -3.4585  1.7758 -1.0915
  785MOL0     H 3577   2.532   7.004   1.039  1.2313  1.3045  0.1022
  785MOL0     H 3578   2.254   7.073   0.961  1.2935  1.4311  2.6811
  785MOL0     H 3579   2.377   6.977   0.870  1.3704 -3.2930  1.2532
  785MOL0     H 3580   2.255   6.873   1.130 -1.4026 -1.1183  0.2187
  785MOL0     H 3581   2.387   6.806   1.022  1.7841  1.6034 -2.8769
  785MOL0     H 3582   2.062   6.933   1.173 -1.8608 -0.0323  2.1071
  785MOL0     H 3583   1.833   6.884   1.245 -2.3104 -2.2773 -0.6171
  785MOL0     H 3584   1.419   6.538   0.999 -2.2530 -0.2680 -0.2937
  785MOL0     H 3585   1.221   6.412   1.079  0.4776  1.6413 -1.7105
  785MOL0     H 3586   1.298   6.117   1.418 -0.0739  0.8013 -0.3409
  785MOL0     H 3587   1.314   6.086   1.238  1.0421  0.5047 -0.2191
  785MOL0     H 3588   1.101   5.989   1.232 -0.3237  0.5187  0.3323
  785MOL0     H 3589   1.043   6.097   1.370  0.0799  2.5178 -1.3467
  785MOL0     H 3590   1.135   5.941   1.520 -1.7408 -0.3168  0.2852
  785MOL0     H 3591   1.223   5.861   1.392  1.1921  0.0604 -0.0069
  785MOL0     H 3592   1.012   5.780   1.288 -2.1809  1.8788 -0.9889
  785MOL0     H 3593   0.995   5.750   1.461  1.4395  1.0927  2.2125
  785MOL0     H 3594   0.797   5.816   1.340  2.7511 -1.5267 -1.0734
  785MOL0     H 3595   0.860   5.981   1.314  0.2015  1.2971  1.3600
  785MOL0     H 3596   0.863   6.018   1.565  0.7216  1.1295 -3.1643
  785MOL0     H 3597   0.816   5.856   1.596  0.2873  2.9945  3.7729
  785MOL0     H 3598   0.661   6.058   1.589 -1.0241 -3.4946  2.6406
  785MOL0     H 3599   0.635   6.029   1.413  0.6286 -1.6252 -1.0708
  785MOL0     H 3600   0.465   5.933   1.569 -1.2058 -1.6137  0.7423
  785MOL0     H 3601   0.581   5.821   1.637 -1.7973  0.0448  0.4870
  785MOL0     H 3602   1.458   6.272   1.412  2.7917  3.6191  2.1834
  785MOL0     H 3603   1.636   6.435   1.350 -1.5143  3.7593  1.8172
  785MOL0     H 3604   1.806   6.584   0.936  3.2340 -1.6525  0.5104
  785MOL0     H 3605   2.037   6.657   0.856  1.0155  0.8415 -0.9334
  785MOL0     H 3606   3.837   6.843   0.729  1.4477  0.2253 -1.3021
  785MOL0     H 3607   4.038   6.711   0.797 -0.7398 -1.0010  2.2969
  785MOL0     H 3608   4.252   6.572   1.210  0.7257  0.5644  0.0430
  785MOL0     H 3609   4.420   6.444   1.321  2.8627  0.8158  2.9727
  785MOL0     H 3610   4.627   6.366   1.458 -5.1917  2.3293  1.2203
  785MOL0     H 3611   4.608   6.529   1.481 -1.9794 -2.6318 -0.1485
  785MOL0     H 3612   4.861   6.570   1.487  2.1548  0.2280  1.1991
  785MOL0     H 3613   4.812   6.465   1.617  6.0892 -1.1188  0.1380
  785MOL0     H 3614   4.896   6.351   1.349 -4.3605 -3.5985  0.1388
  785MOL0     H 3615   4.875   6.266   1.505  3.3382 -1.8852 -1.3870
  785MOL0     H 3616   5.093   6.453   1.431  0.8058 -1.1562 -1.1520
  785MOL0     H 3617   5.051   6.425   1.604 -0.2279  3.0959 -1.8821
  785MOL0     H 3618   5.193   6.040   1.460  1.2474  0.4875 -1.4612
  785MOL0     H 3619   4.720   6.696   1.151 -0.8906  0.6304  1.1117
  785MOL0     H 3620   4.562   6.824   1.035 -2.4562  0.6850 -1.7670
  786MOL0     O 3621   1.932   9.192  10.547 -0.0516 -0.8763  0.2620
  786MOL0     C 3622   1.862   9.285  10.505  0.4876  0.2013  0.8748
  786MOL0     O 3623   1.904   9.380  10.421 -0.0573  0.1184  0.6199
  786MOL0     C 3624   2.021   9.377  10.355  0.1954 -0.1421  0.7725
  786MOL0     C 3625   2.116   9.479  10.380 -0.8506  0.2467 -0.2666
  786MOL0     C 3626   2.232   9.474  10.298  0.2373 -0.3582 -0.4734
  786MOL0     C 3627   2.261   9.368  10.209  0.3267 -0.1684 -0.6253
  786MOL0     O 3628   2.377   9.361  10.134  0.7765  0.3357  0.4468
  786MOL0     C 3629   2.480   9.456  10.153  0.4169 -0.6529  0.1153
  786MOL0     C 3630   2.603   9.437  10.069 -0.2200  0.4898 -0.2003
  786MOL0     C 3631   2.692   9.328  10.145 -0.2812 -1.1041 -0.8814
  786MOL0     C 3632   2.803   9.272  10.058 -0.2658  0.6363 -0.3066
  786MOL0     C 3633   2.901   9.180  10.135 -0.6826  0.6324  0.1950
  786MOL0     C 3634   2.998   9.257  10.225 -0.2550  0.3671  1.4875
  786MOL0     C 3635   3.094   9.159  10.294  0.4751 -0.6803 -0.5530
  786MOL0     C 3636   3.215   9.215  10.383 -0.2558 -0.1690  0.0728
  786MOL0     N 3637   3.302   9.284  10.285  0.1019 -0.1822  0.4575
  786MOL0     C 3638   3.295   9.417  10.250  0.6954 -0.0364 -0.9551
  786MOL0     C 3639   3.402   9.447  10.176  0.2180 -0.3944  0.2507
  786MOL0     C 3640   3.438   9.591  10.130 -0.5328  0.0235 -0.5602
  786MOL0     C 3641   3.594   9.601  10.082 -0.0912 -0.5864 -0.5354
  786MOL0     C 3642   3.613   9.706   9.966  0.1769  0.1228  0.1344
  786MOL0     C 3643   3.757   9.728   9.941 -0.1808  0.1630  0.1029
  786MOL0     O 3644   3.820   9.775  10.062  0.5661  0.2765  0.2457
  786MOL0     C 3645   3.949   9.739  10.075 -0.3117  0.5391  0.8968
  786MOL0     C 3646   4.051   9.787   9.992  0.4043  1.8255  0.6376
  786MOL0     C 3647   4.181   9.736   9.994  0.4422  1.2631 -0.1795
  786MOL0     C 3648   4.207   9.620  10.063 -0.2997 -0.1901 -0.3405
  786MOL0     C 3649   4.347   9.557  10.072  0.4877  0.7259  0.4602
  786MOL0     O 3650   4.427   9.591   9.974 -0.1599  0.3683 -0.4917
  786MOL0     C 3651   4.555   9.550   9.962  1.4702  0.7429 -0.2131
  786MOL0     C 3652   4.644   9.518  10.064  0.0884 -0.6128 -0.0744
  786MOL0     C 3653   4.763   9.458  10.038 -0.9054  0.5219 -0.3922
  786MOL0     C 3654   4.803   9.429   9.902  0.2617 -0.3525 -1.1938
  786MOL0     O 3655   4.926   9.366   9.909  0.0931  1.4411 -0.3959
  786MOL0     C 3656   4.996   9.339   9.787  0.2898 -0.0123 -0.2528
  786MOL0     C 3657   4.936   9.221   9.700  0.1517 -0.3886  0.1963
  786MOL0     C 3658   4.998   9.237   9.555 -0.0038  0.5983  0.3339
  786MOL0     C 3659   5.104   9.128   9.525  0.1438 -0.3784  0.1598
  786MOL0     C 3660   5.138   9.141   9.374  0.7023  0.3400  0.7102
  786MOL0     C 3661   5.206   9.008   9.332 -0.5752  0.3402 -0.1298
  786MOL0     C 3662   5.104   8.889   9.348 -0.6493  0.6939  0.6752
  786MOL0     C 3663   5.111   8.796   9.230  0.9261  1.0014  0.7895
  786MOL0    Cl 3664   5.045   8.640   9.276  0.3695 -0.1291  0.0956
  786MOL0     C 3665   4.725   9.480   9.801 -0.1386  0.8617 -0.0424
  786MOL0     C 3666   4.600   9.539   9.825  0.2316  0.1794 -0.8125
  786MOL0     O 3667   4.367   9.481  10.165  0.0666  0.6014 -0.5611
  786MOL0     C 3668   4.111   9.581  10.159  0.2227  0.2647  0.0719
  786MOL0     C 3669   3.979   9.629  10.155 -0.1742 -1.3686 -1.0635
  786MOL0     N 3670   3.467   9.334  10.161 -0.6057 -0.1118  0.7224
  786MOL0     N 3671   3.415   9.239  10.219  0.0380 -0.5525  0.2240
  786MOL0     C 3672   2.160   9.270  10.197  0.2512 -0.6698 -0.2162
  786MOL0     C 3673   2.048   9.277  10.266  0.1052  0.1114  0.1683
  786MOL0     C 3674   1.719   9.291  10.559 -0.2225 -0.8316  0.6896
  786MOL0     C 3675   1.694   9.257  10.691  0.9523  0.5344 -0.2024
  786MOL0     C 3676   1.566   9.280  10.748  0.3073  0.1771  0.2706
  786MOL0     C 3677   1.465   9.347  10.682 -0.9329  0.2153 -0.8375
  786MOL0     O 3678   1.348   9.367  10.751  0.3788  0.0763 -0.0104
  786MOL0     C 3679   1.224   9.388  10.683 -0.4603 -0.5826 -0.0099
  786MOL0     C 3680   1.126   9.381  10.800  0.1681  0.4644  0.6632
  786MOL0     C 3681   0.988   9.380  10.747  0.4224 -0.2370  0.8249
  786MOL0     C 3682   0.890   9.367  10.857  0.5239 -0.2816  0.1367
  786MOL0     C 3683   0.761   9.413  10.797 -1.1009 -0.5881 -0.1836
  786MOL0     C 3684   0.658   9.457  10.748 -1.4728  0.3370 -0.2068
  786MOL0     C 3685   1.497   9.389  10.553 -0.0635 -0.9908  0.7526
  786MOL0     C 3686   1.621   9.362  10.488  0.3719 -0.6546 -0.0872
  786MOL0     H 3687   2.095   9.566  10.441  0.0425 -0.3099  0.8687
  786MOL0     H 3688   2.291   9.566  10.299  2.2974 -1.6132  0.0999
  786MOL0     H 3689   2.503   9.469  10.259 -1.6439  1.4710  0.3871
  786MOL0     H 3690   2.433   9.549  10.121 -0.6895 -1.7321 -1.5561
  786MOL0     H 3691   2.665   9.527  10.065  1.2357 -0.4557  0.2718
  786MOL0     H 3692   2.582   9.416   9.964 -3.3397 -0.9414  0.5867
  786MOL0     H 3693   2.622   9.248  10.172 -2.4323  0.8638 -0.3246
  786MOL0     H 3694   2.724   9.383  10.235 -0.1099 -0.3129 -1.4138
  786MOL0     H 3695   2.760   9.212   9.977  0.7637  1.1523 -1.2646
  786MOL0     H 3696   2.873   9.341  10.011  2.3381 -2.7575 -1.8805
  786MOL0     H 3697   2.968   9.130  10.064 -2.6695  1.1174 -2.1345
  786MOL0     H 3698   2.841   9.111  10.196 -0.0397  1.2602  1.5819
  786MOL0     H 3699   2.948   9.314  10.304  1.4653 -0.7039  3.4498
  786MOL0     H 3700   3.065   9.324  10.171 -1.4632  3.7193  3.8343
  786MOL0     H 3701   3.028   9.094  10.352  2.3154 -1.2024  1.0935
  786MOL0     H 3702   3.133   9.094  10.215 -0.4855  0.7184 -2.2260
  786MOL0     H 3703   3.267   9.130  10.428  0.2661 -0.8171 -1.6801
  786MOL0     H 3704   3.171   9.279  10.460 -1.9318 -2.5076  1.1457
  786MOL0     H 3705   3.231   9.497  10.286  0.8948  0.0327 -0.7475
  786MOL0     H 3706   3.422   9.666  10.207  0.4803 -0.6608  0.3526
  786MOL0     H 3707   3.376   9.619  10.044 -1.6476  1.7667  0.7339
  786MOL0     H 3708   3.630   9.510  10.035  1.9218  0.0719 -0.3974
  786MOL0     H 3709   3.662   9.609  10.168 -0.6833 -4.6319  0.4709
  786MOL0     H 3710   3.561   9.672   9.876  0.5694  0.9219 -0.4026
  786MOL0     H 3711   3.576   9.803   9.998 -0.0095  0.1936 -0.2885
  786MOL0     H 3712   3.759   9.799   9.858 -2.0706  1.0949  0.7657
  786MOL0     H 3713   3.797   9.631   9.912 -2.1493 -1.0598  1.2296
  786MOL0     H 3714   4.020   9.868   9.927  0.9578  1.3918 -0.2003
  786MOL0     H 3715   4.247   9.798   9.934  0.6621  2.4676  1.2353
  786MOL0     H 3716   4.619   9.551  10.164 -1.0681 -2.3568  0.2557
  786MOL0     H 3717   4.833   9.428  10.116 -3.9212  2.1697  3.2777
  786MOL0     H 3718   5.099   9.312   9.811 -0.3151 -1.5025  0.7736
  786MOL0     H 3719   4.994   9.439   9.741  2.2634 -0.2493 -0.9956
  786MOL0     H 3720   4.829   9.235   9.678 -0.0110 -0.1556  1.1167
  786MOL0     H 3721   4.960   9.122   9.741 -2.5730 -2.1767 -2.0641
  786MOL0     H 3722   5.057   9.329   9.548  3.2702 -1.4206 -1.0527
  786MOL0     H 3723   4.924   9.236   9.475  0.4445 -2.3627 -0.1928
  786MOL0     H 3724   5.200   9.121   9.577  1.4802 -1.4577 -2.2978
  786MOL0     H 3725   5.066   9.028   9.549  0.4122 -0.7537 -0.9291
  786MOL0     H 3726   5.199   9.229   9.350 -0.4322  0.9703  0.0484
  786MOL0     H 3727   5.050   9.146   9.310 -0.0154 -0.2034  1.6379
  786MOL0     H 3728   5.293   8.991   9.396 -1.4838  2.4196  1.7809
  786MOL0     H 3729   5.244   9.009   9.229  3.3608 -0.3248  1.1456
  786MOL0     H 3730   5.134   8.838   9.440  0.4671  0.6750  0.3126
  786MOL0     H 3731   4.999   8.917   9.358 -1.2723  2.4085 -5.7907
  786MOL0     H 3732   5.211   8.795   9.186  0.1587 -0.1753 -1.0640
  786MOL0     H 3733   5.041   8.843   9.160  2.1550  0.5162 -0.8071
  786MOL0     H 3734   4.755   9.453   9.700  2.1077  2.5431  0.1124
  786MOL0     H 3735   4.535   9.556   9.740  0.1936 -0.4048 -0.9083
  786MOL0     H 3736   4.135   9.494  10.220 -2.1842 -0.3499  0.2470
  786MOL0     H 3737   3.897   9.593  10.218 -2.0838 -1.0855 -3.2439
  786MOL0     H 3738   2.164   9.189  10.125 -0.6413 -0.4882 -0.4824
  786MOL0     H 3739   1.981   9.194  10.245  3.3818 -2.3387 -1.6437
  786MOL0     H 3740   1.773   9.201  10.741  3.1554  3.7290  0.2055
  786MOL0     H 3741   1.557   9.239  10.849 -0.3433  0.3135  0.2710
  786MOL0     H 3742   1.210   9.302  10.617  2.5251 -1.0144 -0.1900
  786MOL0     H 3743   1.224   9.484  10.629  2.9150 -0.1002  0.6524
  786MOL0     H 3744   1.138   9.286  10.855  0.0766  0.4105  0.5894
  786MOL0     H 3745   1.151   9.462  10.869  1.6338 -1.0224  1.9698
  786MOL0     H 3746   0.975   9.303  10.670  1.5075  1.2405 -0.9048
  786MOL0     H 3747   0.977   9.477  10.698  2.5102 -0.6956 -0.6904
  786MOL0     H 3748   0.886   9.260  10.877  2.1313 -0.1410  1.3893
  786MOL0     H 3749   0.925   9.416  10.949 -0.1526 -1.8942  1.3020
  786MOL0     H 3750   0.570   9.496  10.699 -1.9196  0.1221  0.4078
  786MOL0     H 3751   1.424   9.455  10.506  1.2076 -0.1469 -0.0761
  786MOL0     H 3752   1.642   9.411  10.394 -1.3561  0.4140  0.0286
  787MOL0     O 3753   1.855   0.675  11.111 -0.5255 -0.0139 -0.1671
  787MOL0     C 3754   1.891   0.594  11.028 -0.4847 -0.6702  0.1482
  787MOL0     O 3755   1.853   0.602  10.899  0.3547 -0.3388  0.6164
  787MOL0     C 3756   1.763   0.701  10.863  0.7762  0.1701  0.0104
  787MOL0     C 3757   1.628   0.704  10.904  0.5162  0.0291  1.1971
  787MOL0     C 3758   1.524   0.793  10.849  0.1670  0.5336  0.4536
  787MOL0     C 3759   1.574   0.894  10.769  0.1027 -1.2195 -0.2699
  787MOL0     O 3760   1.478   0.994  10.732 -0.0488  0.0060  0.3846
  787MOL0     C 3761   1.523   1.127  10.691 -0.2583 -0.4023 -0.3457
  787MOL0     C 3762   1.416   1.228  10.652 -1.0401  0.3982  0.0594
  787MOL0     C 3763   1.310   1.252  10.764 -0.5400 -0.5649  0.2163
  787MOL0     C 3764   1.223   1.369  10.707  0.1036  0.0486  0.1504
  787MOL0     C 3765   1.098   1.397  10.793  0.2869 -0.8829  0.0896
  787MOL0     C 3766   0.980   1.468  10.719  0.0823 -0.1993 -0.2888
  787MOL0     C 3767   0.853   1.467  10.812  0.6564 -0.1241 -0.0366
  787MOL0     C 3768   0.739   1.552  10.758 -1.3430  0.1656 -0.3308
  787MOL0     N 3769   0.702   1.540  10.611 -0.1754  0.1271  0.3338
  787MOL0     C 3770   0.686   1.431  10.533  0.5674  0.4535  0.1818
  787MOL0     C 3771   0.644   1.485  10.417 -0.0233 -0.2028  0.9195
  787MOL0     C 3772   0.579   1.417  10.296  1.2616 -0.8718  0.3823
  787MOL0     C 3773   0.468   1.325  10.333 -0.3807 -0.3675  0.1382
  787MOL0     C 3774   0.353   1.339  10.231 -0.0697 -0.1105  0.3421
  787MOL0     C 3775   0.256   1.214  10.258 -0.5484 -0.4865  0.2166
  787MOL0     O 3776   0.200   1.211  10.391 -0.6401 -0.3657  0.2360
  787MOL0     C 3777   0.146   1.086  10.419 -0.0550 -0.0547  0.4871
  787MOL0     C 3778   0.103   0.991  10.327 -0.2203 -0.6439 -0.3494
  787MOL0     C 3779   0.035   0.875  10.365 -0.3294  0.2893  0.2638
  787MOL0     C 3780   0.004   0.848  10.502 -0.4911 -0.6122 -0.1547
  787MOL0     C 3781  -0.064   0.721  10.546 -0.6372 -0.0917  0.0791
  787MOL0     O 3782  -0.098   0.716  10.678  0.1381  0.4488  0.2631
  787MOL0     C 3783  -0.153   0.612  10.747 -0.2095  0.1023  0.1612
  787MOL0     C 3784  -0.153   0.476  10.701  0.3073 -0.2915 -0.2395
  787MOL0     C 3785  -0.222   0.381  10.769 -1.0917  0.1573 -0.0911
  787MOL0     C 3786  -0.301   0.409  10.880 -0.9471 -0.9844 -0.4355
  787MOL0     O 3787  -0.386   0.324  10.940  0.6172  0.3941 -1.3649
  787MOL0     C 3788  -0.374   0.182  10.925  0.5391  0.3068 -0.2175
  787MOL0     C 3789  -0.482   0.126  11.008 -0.3350 -0.2362 -0.0878
  787MOL0     C 3790  -0.474  -0.022  11.043  0.6102  0.1997 -0.3147
  787MOL0     C 3791  -0.608  -0.048  11.122 -1.0233 -0.2923  0.6175
  787MOL0     C 3792  -0.619  -0.193  11.172 -0.4741 -0.2894  0.6018
  787MOL0     C 3793  -0.749  -0.197  11.246  0.5620 -0.8865 -0.9050
  787MOL0     C 3794  -0.794  -0.337  11.295 -0.3547  0.0164 -0.4071
  787MOL0     C 3795  -0.911  -0.342  11.392 -0.3579 -0.6063 -0.4227
  787MOL0    Cl 3796  -0.997  -0.493  11.403 -0.0749  0.4390 -0.2435
  787MOL0     C 3797  -0.302   0.540  10.929  0.4036  0.1035  0.5785
  787MOL0     C 3798  -0.221   0.643  10.868  0.3481  0.2638 -0.3973
  787MOL0     O 3799  -0.077   0.628  10.468  0.1840  0.2690 -0.1427
  787MOL0     C 3800   0.037   0.946  10.592  0.5708 -0.4671 -0.7029
  787MOL0     C 3801   0.109   1.065  10.551  0.2927  0.5837 -0.7933
  787MOL0     N 3802   0.645   1.622  10.423 -0.0419 -0.1717 -0.8852
  787MOL0     N 3803   0.684   1.657  10.543 -0.3481  0.0802  0.3462
  787MOL0     C 3804   1.711   0.915  10.745  0.7105 -0.7768 -0.1323
  787MOL0     C 3805   1.805   0.813  10.784  0.1368 -0.0428  0.8109
  787MOL0     C 3806   1.974   0.478  11.069  0.9672 -0.4898 -0.0048
  787MOL0     C 3807   1.979   0.379  10.969  0.3945 -0.5328 -0.7393
  787MOL0     C 3808   2.049   0.258  10.993  0.0425 -0.2661  0.5555
  787MOL0     C 3809   2.097   0.234  11.117  0.0397  0.0128 -0.1815
  787MOL0     O 3810   2.154   0.114  11.133  0.2786  0.4479 -0.4998
  787MOL0     C 3811   2.247   0.098  11.248 -0.2933  0.2409  0.1825
  787MOL0     C 3812   2.300  -0.041  11.260 -0.3259  0.5893 -0.2437
  787MOL0     C 3813   2.388  -0.081  11.143  0.3552 -0.2730 -0.3570
  787MOL0     C 3814   2.471  -0.208  11.176  0.9311 -0.1846  0.6961
  787MOL0     C 3815   2.553  -0.185  11.288 -0.4007 -0.2193 -0.1212
  787MOL0     C 3816   2.638  -0.154  11.371  0.5490  0.4710  0.5351
  787MOL0     C 3817   2.086   0.325  11.226 -0.2526 -0.4702 -0.5061
  787MOL0     C 3818   2.027   0.451  11.202  0.4857  0.8770  0.5001
  787MOL0     H 3819   1.610   0.620  10.969  0.3722 -1.8658 -1.1404
  787MOL0     H 3820   1.419   0.799  10.877 -1.0698  1.4022 -3.6836
  787MOL0     H 3821   1.573   1.130  10.593 -1.2184  2.2434 -0.8141
  787MOL0     H 3822   1.587   1.168  10.770 -0.4436 -1.5663  0.4368
  787MOL0     H 3823   1.360   1.202  10.562 -1.8689  0.0089  0.6757
  787MOL0     H 3824   1.468   1.322  10.632 -0.8674  0.5443  1.1400
  787MOL0     H 3825   1.358   1.294  10.853  2.2645  0.3098 -1.6108
  787MOL0     H 3826   1.259   1.160  10.795  1.2976 -1.1814  1.6323
  787MOL0     H 3827   1.279   1.463  10.702 -1.7559  1.5598  3.6750
  787MOL0     H 3828   1.181   1.348  10.609 -0.3967 -2.2401  0.8076
  787MOL0     H 3829   1.127   1.459  10.879  0.6399 -1.0491  0.0898
  787MOL0     H 3830   1.064   1.300  10.832  2.9482 -2.4282 -1.1384
  787MOL0     H 3831   0.960   1.418  10.624 -1.8909 -1.1528  0.5615
  787MOL0     H 3832   1.012   1.569  10.693 -1.0382  0.3070  0.2000
  787MOL0     H 3833   0.808   1.368  10.828 -2.0417  1.1974  1.0861
  787MOL0     H 3834   0.866   1.506  10.914 -2.5741 -0.4117  0.5898
  787MOL0     H 3835   0.757   1.657  10.784  0.6064 -0.9220  3.3701
  787MOL0     H 3836   0.646   1.511  10.799 -1.2555  0.2626 -0.0410
  787MOL0     H 3837   0.685   1.332  10.578  0.3726  0.7751  0.9072
  787MOL0     H 3838   0.645   1.361  10.230 -0.1086 -0.6228 -1.2525
  787MOL0     H 3839   0.550   1.496  10.227  0.2589  1.3466  3.1131
  787MOL0     H 3840   0.430   1.332  10.435  0.7418  0.7391  0.5209
  787MOL0     H 3841   0.510   1.224  10.328  0.5361 -0.0305  0.6601
  787MOL0     H 3842   0.310   1.438  10.254  1.6194  0.5650  0.7421
  787MOL0     H 3843   0.385   1.339  10.127 -2.3530 -0.3753 -0.4254
  787MOL0     H 3844   0.317   1.125  10.239 -1.2037 -0.4241 -2.6383
  787MOL0     H 3845   0.171   1.213  10.189 -0.5954  0.9738  0.2385
  787MOL0     H 3846   0.139   1.011  10.227  4.2191 -0.0175  1.1426
  787MOL0     H 3847  -0.007   0.812  10.287  0.7997  1.5272 -1.3877
  787MOL0     H 3848  -0.105   0.439  10.611 -2.5610 -2.9391 -0.8476
  787MOL0     H 3849  -0.200   0.285  10.723  1.1087  0.7282 -0.3367
  787MOL0     H 3850  -0.273   0.149  10.951  1.7207  2.5373 -1.6761
  787MOL0     H 3851  -0.397   0.154  10.822  1.8349 -0.0679 -0.4123
  787MOL0     H 3852  -0.565   0.131  10.937  0.9555  1.5909 -1.5764
  787MOL0     H 3853  -0.499   0.194  11.092 -0.6449 -0.7043  0.2271
  787MOL0     H 3854  -0.388  -0.048  11.104  1.7061  0.9090 -1.4897
  787MOL0     H 3855  -0.467  -0.090  10.957  2.1373  2.5829 -2.2215
  787MOL0     H 3856  -0.607   0.028  11.201 -0.8628  3.4568 -2.7243
  787MOL0     H 3857  -0.694  -0.029  11.057  0.2946  0.0434 -1.0756
  787MOL0     H 3858  -0.537  -0.216  11.241 -1.6936  1.5581  2.8274
  787MOL0     H 3859  -0.621  -0.263  11.089  1.4815 -2.1849  2.0227
  787MOL0     H 3860  -0.823  -0.161  11.173  0.5094 -1.6377 -1.2343
  787MOL0     H 3861  -0.760  -0.128  11.330 -2.1942 -1.2198 -0.8934
  787MOL0     H 3862  -0.814  -0.393  11.202  0.4384 -0.7246 -0.1423
  787MOL0     H 3863  -0.696  -0.368  11.331  0.7488  4.2978  0.7811
  787MOL0     H 3864  -0.992  -0.271  11.370 -1.5820 -0.8177  2.7714
  787MOL0     H 3865  -0.890  -0.307  11.494 -1.5318  5.6330 -1.9141
  787MOL0     H 3866  -0.364   0.558  11.016 -0.9858 -1.8757  0.0574
  787MOL0     H 3867  -0.237   0.742  10.910  0.0297 -0.3314  0.9269
  787MOL0     H 3868  -0.004   0.947  10.692 -0.3626  0.1270 -1.0745
  787MOL0     H 3869   0.137   1.138  10.626 -2.7402  1.2195 -0.1317
  787MOL0     H 3870   1.745   1.006  10.698  0.4747  2.4652  5.1099
  787MOL0     H 3871   1.913   0.817  10.775  0.0923 -0.7268 -0.2071
  787MOL0     H 3872   1.943   0.390  10.867  0.5425  2.0460 -0.5898
  787MOL0     H 3873   2.064   0.178  10.921 -0.7139 -1.3740  1.5815
  787MOL0     H 3874   2.184   0.100  11.338  0.9763 -0.2170  1.1192
  787MOL0     H 3875   2.318   0.180  11.257  0.0998 -0.1256  0.4621
  787MOL0     H 3876   2.360  -0.034  11.351  0.8425  3.3233 -1.1056
  787MOL0     H 3877   2.221  -0.116  11.274  1.4633 -1.3094  0.1433
  787MOL0     H 3878   2.462  -0.003  11.121 -0.4437  0.7365  0.4059
  787MOL0     H 3879   2.323  -0.086  11.055 -1.1906 -1.0087  0.7844
  787MOL0     H 3880   2.412  -0.300  11.172  1.0075 -0.2663 -3.1440
  787MOL0     H 3881   2.533  -0.219  11.086  0.0686 -3.5127  0.3557
  787MOL0     H 3882   2.718  -0.148  11.441  1.9802 -0.5337 -0.9379
  787MOL0     H 3883   2.112   0.318  11.331 -2.4092  4.2405  0.6458
  787MOL0     H 3884   2.017   0.529  11.276  4.7978  2.6753 -0.4741
  788MOL0     O 3885   1.953   6.002  10.789 -0.8724 -0.3474 -0.6758
  788MOL0     C 3886   1.991   6.087  10.709 -0.2845  0.2308  0.4410
  788MOL0     O 3887   1.917   6.178  10.644  0.1548 -0.0950 -0.0310
  788MOL0     C 3888   1.783   6.185  10.656  0.8563 -0.0098 -0.4246
  788MOL0     C 3889   1.686   6.086  10.664 -0.4019  0.2318 -1.0797
  788MOL0     C 3890   1.552   6.121  10.664  0.5819  0.5891  0.4759
  788MOL0     C 3891   1.498   6.246  10.641 -0.3709  1.1665  1.0579
  788MOL0     O 3892   1.362   6.261  10.629  0.5554 -0.3240  0.6351
  788MOL0     C 3893   1.308   6.385  10.566  0.2840 -0.0763  0.0249
  788MOL0     C 3894   1.155   6.389  10.575 -0.4161  0.2443  0.2854
  788MOL0     C 3895   1.098   6.511  10.508  0.2501 -0.3975 -0.0088
  788MOL0     C 3896   0.945   6.505  10.508 -0.9867 -0.7774 -0.5019
  788MOL0     C 3897   0.874   6.621  10.435  0.5266  0.6514 -0.0380
  788MOL0     C 3898   0.904   6.629  10.285  0.1106 -0.4440  0.3722
  788MOL0     C 3899   0.787   6.642  10.188  0.3531  0.4300  0.1434
  788MOL0     C 3900   0.671   6.748  10.233 -0.8241  0.0517 -1.2312
  788MOL0     N 3901   0.712   6.885  10.195 -0.5869 -0.3579  1.1719
  788MOL0     C 3902   0.813   6.963  10.257 -0.3280  1.0410  0.8426
  788MOL0     C 3903   0.787   7.081  10.196 -0.0957  0.1845  0.4665
  788MOL0     C 3904   0.850   7.212  10.223 -0.5171  0.8941  0.1098
  788MOL0     C 3905   0.931   7.268  10.114 -0.0980 -0.9819  0.4387
  788MOL0     C 3906   1.072   7.230  10.112 -0.3985 -0.1397  0.2969
  788MOL0     C 3907   1.096   7.097  10.044 -0.0439  0.6990 -0.0551
  788MOL0     O 3908   1.207   7.035  10.108  0.2914 -0.0474 -0.3767
  788MOL0     C 3909   1.250   6.928  10.034 -0.1770 -0.4395  0.5237
  788MOL0     C 3910   1.160   6.818  10.032 -0.5167  0.2079 -0.0168
  788MOL0     C 3911   1.191   6.714   9.950  0.5995 -0.3550 -0.1520
  788MOL0     C 3912   1.309   6.712   9.868  0.0714  0.3186 -0.8600
  788MOL0     C 3913   1.322   6.610   9.768  0.2736 -0.1132  0.1555
  788MOL0     O 3914   1.445   6.616   9.701  0.0250  0.3125  0.1182
  788MOL0     C 3915   1.503   6.519   9.623 -0.6712  0.0342 -0.8756
  788MOL0     C 3916   1.643   6.535   9.595  0.6208 -0.5424  0.2311
  788MOL0     C 3917   1.711   6.443   9.523  0.8331  0.9346  0.5902
  788MOL0     C 3918   1.650   6.328   9.471 -0.1138 -0.2329 -0.7277
  788MOL0     O 3919   1.726   6.223   9.420 -0.3128 -0.4391  0.1075
  788MOL0     C 3920   1.677   6.136   9.322 -0.5420 -0.4873  0.1009
  788MOL0     C 3921   1.779   6.108   9.206  0.5864  0.5862  1.0215
  788MOL0     C 3922   1.860   6.227   9.163 -0.1632  0.2490 -0.6651
  788MOL0     C 3923   1.892   6.220   9.013  0.3157  0.1744  0.9678
  788MOL0     C 3924   1.965   6.346   8.951 -1.2413  0.5286  0.0048
  788MOL0     C 3925   1.892   6.427   8.848 -0.1390  0.0942 -0.7710
  788MOL0     C 3926   1.984   6.503   8.748  0.0690  0.0845 -0.3569
  788MOL0     C 3927   1.900   6.597   8.658 -0.5590  0.0563  0.0617
  788MOL0    Cl 3928   2.019   6.699   8.561  0.2584 -0.4608 -0.0257
  788MOL0     C 3929   1.507   6.312   9.492 -0.9615  1.2156  0.4436
  788MOL0     C 3930   1.442   6.407   9.567 -0.5696 -1.0216 -0.8932
  788MOL0     O 3931   1.241   6.515   9.768  0.3059 -1.1097 -0.7496
  788MOL0     C 3932   1.395   6.817   9.890 -0.3173  0.1767  1.6285
  788MOL0     C 3933   1.366   6.927   9.967 -0.9164 -0.7487  0.4950
  788MOL0     N 3934   0.684   7.062  10.096 -0.0580  0.0605 -0.3233
  788MOL0     N 3935   0.640   6.949  10.102  0.8227  0.1242 -0.3682
  788MOL0     C 3936   1.597   6.345  10.615 -0.3073 -0.0677  0.5292
  788MOL0     C 3937   1.731   6.319  10.625  0.0496  0.4441 -0.1409
  788MOL0     C 3938   2.134   6.093  10.691  1.0005  0.2423  0.3200
  788MOL0     C 3939   2.219   6.013  10.770  0.3699  0.9267 -0.2419
  788MOL0     C 3940   2.357   6.009  10.750  0.4139 -0.1283 -0.7069
  788MOL0     C 3941   2.411   6.095  10.652 -0.4925 -0.1191  0.3974
  788MOL0     O 3942   2.540   6.095  10.613  0.0367  0.3643 -0.6343
  788MOL0     C 3943   2.630   6.009  10.684  0.2890  0.8194 -0.0626
  788MOL0     C 3944   2.769   6.034  10.628  0.2675  0.7582 -0.6388
  788MOL0     C 3945   2.855   5.912  10.680 -0.2227 -0.4482  0.2445
  788MOL0     C 3946   3.003   5.920  10.637  1.2982  0.6404 -0.3436
  788MOL0     C 3947   3.077   6.022  10.710 -0.4206  0.2805 -0.1974
  788MOL0     C 3948   3.138   6.103  10.779  0.0680 -0.0869  0.4714
  788MOL0     C 3949   2.330   6.186  10.591 -0.2510 -0.3929  0.1441
  788MOL0     C 3950   2.198   6.181  10.609  0.2902  0.3138 -0.8259
  788MOL0     H 3951   1.711   5.981  10.671  1.6270  0.6553 -1.3968
  788MOL0     H 3952   1.485   6.036  10.665  0.9267  0.2737 -0.7054
  788MOL0     H 3953   1.332   6.399  10.461 -0.3694  1.2747  0.0361
  788MOL0     H 3954   1.351   6.475  10.611  3.2061 -0.3036 -2.0018
  788MOL0     H 3955   1.116   6.382  10.676 -1.4819 -0.7932 -0.1759
  788MOL0     H 3956   1.126   6.303  10.514 -0.3382  0.9520 -0.7972
  788MOL0     H 3957   1.127   6.511  10.403 -2.2735  2.0191 -0.8263
  788MOL0     H 3958   1.130   6.608  10.549  0.0067  1.2863 -3.4679
  788MOL0     H 3959   0.904   6.412  10.467 -0.3261 -2.0736  1.6529
  788MOL0     H 3960   0.920   6.516  10.613  3.3479 -0.0222  0.6717
  788MOL0     H 3961   0.891   6.716  10.485  0.7729  2.0065 -2.5488
  788MOL0     H 3962   0.769   6.588  10.439  0.7603 -0.1654 -0.3803
  788MOL0     H 3963   0.962   6.542  10.253 -0.9693 -0.9212 -0.3099
  788MOL0     H 3964   0.966   6.719  10.278 -1.2529  0.4096 -1.8994
  788MOL0     H 3965   0.823   6.662  10.086 -0.0860  1.4927  0.1846
  788MOL0     H 3966   0.740   6.544  10.181  3.8055 -1.2496 -2.9975
  788MOL0     H 3967   0.647   6.748  10.339  2.3009  0.5580 -0.4237
  788MOL0     H 3968   0.582   6.712  10.180  0.2158 -0.3434 -2.7983
  788MOL0     H 3969   0.867   6.948  10.349 -0.1107  1.2080  0.7423
  788MOL0     H 3970   0.924   7.201  10.304  0.4386 -3.2360 -1.1279
  788MOL0     H 3971   0.766   7.279  10.243 -3.0827 -1.8559 -0.8569
  788MOL0     H 3972   0.926   7.378  10.119  0.2890 -0.9842  0.9867
  788MOL0     H 3973   0.897   7.247  10.012  0.4597 -1.5054  0.3551
  788MOL0     H 3974   1.133   7.311  10.070  0.0993  0.0870  1.4109
  788MOL0     H 3975   1.114   7.206  10.211  0.5579  0.0792 -0.0385
  788MOL0     H 3976   1.120   7.115   9.939 -0.5714  0.8112 -0.1565
  788MOL0     H 3977   1.001   7.043  10.040 -0.8628  2.1499 -3.4999
  788MOL0     H 3978   1.067   6.823  10.088 -1.5766  1.4778 -1.8100
  788MOL0     H 3979   1.119   6.634   9.934 -1.3719  1.3438 -0.1415
  788MOL0     H 3980   1.691   6.629   9.623 -1.4794  1.5231 -2.5289
  788MOL0     H 3981   1.817   6.459   9.509  0.6916  3.8091  2.0104
  788MOL0     H 3982   1.591   6.189   9.281  1.6428  2.3165 -1.2579
  788MOL0     H 3983   1.645   6.040   9.363  1.3144 -0.2980  2.2202
  788MOL0     H 3984   1.715   6.085   9.120 -0.3567 -0.7500  2.0362
  788MOL0     H 3985   1.842   6.024   9.235  0.4116  0.1593  0.1903
  788MOL0     H 3986   1.945   6.241   9.230 -0.0396  2.4190 -1.1945
  788MOL0     H 3987   1.805   6.321   9.180 -2.3438 -0.2061 -4.1907
  788MOL0     H 3988   1.938   6.124   8.989 -1.7911 -0.4395 -0.8977
  788MOL0     H 3989   1.798   6.211   8.958  0.4113  1.4463  0.5552
  788MOL0     H 3990   2.062   6.314   8.910 -1.1325 -0.9357  1.3287
  788MOL0     H 3991   1.994   6.402   9.040  0.1013 -1.7885  1.1084
  788MOL0     H 3992   1.840   6.501   8.909 -1.9952 -1.1561 -0.7578
  788MOL0     H 3993   1.819   6.364   8.797  0.3220 -2.5054  1.5300
  788MOL0     H 3994   2.050   6.569   8.806 -1.6378  1.4026  0.1895
  788MOL0     H 3995   2.052   6.432   8.700  1.0491 -2.2546  3.9481
  788MOL0     H 3996   1.836   6.659   8.721  2.2158  1.0944  2.0834
  788MOL0     H 3997   1.857   6.539   8.576  0.6255 -0.9626  0.1367
  788MOL0     H 3998   1.455   6.220   9.463  1.3412  0.7151 -2.6116
  788MOL0     H 3999   1.337   6.391   9.586 -0.3813  0.2272  1.5313
  788MOL0     H 4000   1.479   6.812   9.822 -3.1881 -2.8048 -2.1099
  788MOL0     H 4001   1.438   7.009   9.965  0.1894 -1.6952 -0.7826
  788MOL0     H 4002   1.568   6.446  10.589 -0.0004 -0.7652 -2.9405
  788MOL0     H 4003   1.804   6.391  10.590 -1.3828  1.0117 -2.1465
  788MOL0     H 4004   2.186   5.942  10.845  1.1380  0.3722 -0.4259
  788MOL0     H 4005   2.417   5.936  10.803  4.0478  2.6152 -0.6446
  788MOL0     H 4006   2.617   5.901  10.672  3.5876  0.2925 -0.0097
  788MOL0     H 4007   2.624   6.027  10.792 -2.3230  1.8033 -0.3140
  788MOL0     H 4008   2.761   6.037  10.519  1.7914 -3.7076 -1.0910
  788MOL0     H 4009   2.795   6.137  10.652  0.5063  0.7317 -0.7805
  788MOL0     H 4010   2.813   5.826  10.627  2.0323  0.0124 -2.5416
  788MOL0     H 4011   2.860   5.905  10.789 -0.6693 -1.9903  0.1815
  788MOL0     H 4012   3.052   5.823  10.642  1.9474  0.9900  0.5750
  788MOL0     H 4013   3.000   5.940  10.530  2.0081  0.0478 -0.4811
  788MOL0     H 4014   3.184   6.184  10.832 -0.0494 -0.9957  2.0068
  788MOL0     H 4015   2.373   6.264  10.528  1.1909 -0.1242  1.4031
  788MOL0     H 4016   2.137   6.262  10.571 -0.4015 -0.8815 -2.3608
  789MOL0     O 4017   3.166   9.752   7.978 -0.3445  0.3187 -0.9152
  789MOL0     C 4018   3.100   9.645   8.003 -0.0211 -0.3715 -0.1147
  789MOL0     O 4019   3.145   9.552   8.090 -0.1973 -0.7377 -0.3011
  789MOL0     C 4020   3.260   9.590   8.165  1.0875 -0.4243 -0.6427
  789MOL0     C 4021   3.390   9.549   8.134  0.6510  0.3756  0.1856
  789MOL0     C 4022   3.495   9.568   8.212 -0.4517 -1.1755 -0.5453
  789MOL0     C 4023   3.484   9.642   8.333 -0.3152 -0.2851  0.6741
  789MOL0     O 4024   3.582   9.670   8.413 -0.7263  0.7678 -0.8155
  789MOL0     C 4025   3.720   9.634   8.371 -0.2925  0.6232 -0.6796
  789MOL0     C 4026   3.834   9.694   8.460  0.7023  0.3380 -0.4018
  789MOL0     C 4027   3.823   9.844   8.503  1.3940 -0.5049  0.7286
  789MOL0     C 4028   3.937   9.887   8.585 -0.1928  0.6151  0.1588
  789MOL0     C 4029   4.067   9.888   8.511  0.0136  0.0505  0.4287
  789MOL0     C 4030   4.181   9.949   8.592  0.2065  0.3379 -0.1087
  789MOL0     C 4031   4.315   9.962   8.521  1.0162  0.2698  0.4239
  789MOL0     C 4032   4.406  10.064   8.596 -0.3629  0.7735  0.0863
  789MOL0     N 4033   4.363  10.201   8.595  0.1018  0.4200  0.7206
  789MOL0     C 4034   4.297  10.251   8.698  1.8766  1.0900 -0.0995
  789MOL0     C 4035   4.290  10.382   8.690  1.0630 -1.3083 -0.6510
  789MOL0     C 4036   4.229  10.467   8.783 -0.2857  0.1223 -0.0644
  789MOL0     C 4037   4.102  10.518   8.729 -0.5509 -0.0372  0.0305
  789MOL0     C 4038   4.031  10.599   8.832  0.7160  0.0942 -0.2893
  789MOL0     C 4039   3.896  10.652   8.783  0.7715  0.1999 -0.4056
  789MOL0     O 4040   3.781  10.613   8.867  0.1390  0.1817  0.3975
  789MOL0     C 4041   3.661  10.618   8.808  0.6357 -0.8368  0.6834
  789MOL0     C 4042   3.556  10.569   8.879  0.1865 -0.3330  0.6020
  789MOL0     C 4043   3.428  10.558   8.819 -0.4254 -0.5058  0.0544
  789MOL0     C 4044   3.407  10.602   8.690 -0.4451 -1.0701 -0.6349
  789MOL0     C 4045   3.276  10.626   8.646  0.7896 -0.0299  0.4433
  789MOL0     O 4046   3.257  10.715   8.541 -0.2170 -0.2035 -0.4002
  789MOL0     C 4047   3.135  10.730   8.475 -0.0191 -0.1594 -0.6182
  789MOL0     C 4048   3.011  10.726   8.527  0.1529 -0.2507 -0.3589
  789MOL0     C 4049   2.901  10.757   8.449 -0.2995 -0.8913 -0.6057
  789MOL0     C 4050   2.911  10.799   8.314  0.3553  0.2935  0.3640
  789MOL0     O 4051   2.797  10.825   8.251 -0.4839  0.3418  0.1672
  789MOL0     C 4052   2.799  10.850   8.104  0.3584  0.5678  0.0455
  789MOL0     C 4053   2.668  10.895   8.058 -0.5655 -0.0026  0.1009
  789MOL0     C 4054   2.623  11.022   8.129  0.5024 -0.7169  0.4088
  789MOL0     C 4055   2.497  11.071   8.067  0.1268 -0.2373  0.2141
  789MOL0     C 4056   2.476  11.209   8.132 -0.0477  0.7020 -1.1331
  789MOL0     C 4057   2.340  11.268   8.109  0.1613 -0.3506 -0.9829
  789MOL0     C 4058   2.252  11.201   8.218  0.5677  0.8871  0.0338
  789MOL0     C 4059   2.103  11.237   8.200 -0.1316 -0.8061 -0.0524
  789MOL0    Cl 4060   1.978  11.203   8.336 -0.0265 -0.1905 -0.1455
  789MOL0     C 4061   3.044  10.802   8.262  0.1213  0.0282  0.3492
  789MOL0     C 4062   3.151  10.763   8.338  0.0108  0.1870  0.8934
  789MOL0     O 4063   3.187  10.565   8.706 -0.0864 -0.3459  0.2579
  789MOL0     C 4064   3.512  10.650   8.616  0.0677 -0.0979 -0.1814
  789MOL0     C 4065   3.634  10.661   8.675 -0.5997 -0.4039  0.2633
  789MOL0     N 4066   4.361  10.416   8.573  0.0341 -0.6882 -0.3372
  789MOL0     N 4067   4.406  10.305   8.516 -0.7306 -0.4616 -0.1312
  789MOL0     C 4068   3.354   9.671   8.379 -0.8919  0.4449 -0.1241
  789MOL0     C 4069   3.248   9.658   8.291 -0.5001 -0.2348  0.7270
  789MOL0     C 4070   2.953   9.653   7.976  0.0806  0.5998  0.1489
  789MOL0     C 4071   2.895   9.762   7.903  0.1929  0.4247  0.4150
  789MOL0     C 4072   2.758   9.768   7.865 -0.5458 -0.1182 -0.4250
  789MOL0     C 4073   2.677   9.676   7.919  0.5661 -0.9307 -0.5087
  789MOL0     O 4074   2.546   9.711   7.893  0.0546  0.0343 -0.8789
  789MOL0     C 4075   2.457   9.605   7.859  0.5562  0.0274 -0.1561
  789MOL0     C 4076   2.479   9.552   7.714  0.2421 -0.5535 -0.2412
  789MOL0     C 4077   2.402   9.635   7.613  0.8324 -0.4255  0.1748
  789MOL0     C 4078   2.249   9.617   7.605  0.2801 -0.2123 -0.1451
  789MOL0     C 4079   2.187   9.736   7.540  0.5829 -1.1594 -0.9037
  789MOL0     C 4080   2.122   9.836   7.507  0.2016 -0.5529  0.0226
  789MOL0     C 4081   2.721   9.559   7.987  0.2942 -0.1205 -0.5457
  789MOL0     C 4082   2.859   9.555   8.016  0.3502 -0.4474  0.2058
  789MOL0     H 4083   3.405   9.499   8.038  2.6744 -0.1151  0.6966
  789MOL0     H 4084   3.596   9.537   8.189  0.2538  0.4876  0.1073
  789MOL0     H 4085   3.731   9.677   8.271  1.3779  1.5959 -0.1141
  789MOL0     H 4086   3.731   9.525   8.372 -2.9349  0.2929  0.8655
  789MOL0     H 4087   3.929   9.688   8.406 -0.1930 -0.6192 -1.9545
  789MOL0     H 4088   3.833   9.628   8.547 -3.9722  1.0852  0.3941
  789MOL0     H 4089   3.730   9.860   8.559 -0.0920  1.6747 -2.1069
  789MOL0     H 4090   3.808   9.897   8.408  0.8048  0.9537  1.5901
  789MOL0     H 4091   3.907   9.986   8.621 -0.5959  0.9120 -0.9521
  789MOL0     H 4092   3.959   9.819   8.668  1.1906  0.8586  0.0160
  789MOL0     H 4093   4.042   9.937   8.416 -2.7597 -1.9273  0.0127
  789MOL0     H 4094   4.097   9.790   8.473 -1.1607 -0.4161  0.6591
  789MOL0     H 4095   4.195   9.892   8.685  0.8165  0.3880 -0.1707
  789MOL0     H 4096   4.143  10.044   8.630 -2.2352 -1.1342  1.4276
  789MOL0     H 4097   4.359   9.862   8.526 -0.3736 -0.5003 -1.5926
  789MOL0     H 4098   4.302  10.001   8.420  1.8398  0.8259  0.5198
  789MOL0     H 4099   4.507  10.062   8.552 -1.1077  1.0394 -1.7357
  789MOL0     H 4100   4.413  10.011   8.692 -0.1262  3.4519  1.6228
  789MOL0     H 4101   4.257  10.188   8.777  1.4858  0.8907 -0.4532
  789MOL0     H 4102   4.297  10.553   8.792  0.3022 -0.5669  3.4385
  789MOL0     H 4103   4.210  10.420   8.880  0.3826 -1.0193 -0.4706
  789MOL0     H 4104   4.056  10.424   8.697  3.8152 -1.2589 -3.7174
  789MOL0     H 4105   4.133  10.572   8.639 -1.1463  0.2304 -0.0246
  789MOL0     H 4106   4.019  10.522   8.909  0.6615  0.1552 -0.2371
  789MOL0     H 4107   4.093  10.680   8.871  1.1707 -0.7493  0.7843
  789MOL0     H 4108   3.876  10.630   8.678 -1.1429 -1.2105  0.2071
  789MOL0     H 4109   3.900  10.761   8.789  0.6266  0.2333 -0.8867
  789MOL0     H 4110   3.581  10.537   8.980  1.1383 -0.6210  0.2833
  789MOL0     H 4111   3.346  10.521   8.880 -1.6651  2.6061  0.4659
  789MOL0     H 4112   2.984  10.701   8.630  1.7284  3.8188  1.2455
  789MOL0     H 4113   2.803  10.761   8.496 -0.5458 -3.2572 -0.8225
  789MOL0     H 4114   2.813  10.753   8.055 -3.3948 -1.0483  1.8069
  789MOL0     H 4115   2.873  10.928   8.084  0.5642  0.6363  1.0211
  789MOL0     H 4116   2.595  10.814   8.062 -3.3646  2.4376  2.3784
  789MOL0     H 4117   2.670  10.919   7.951 -1.9592  0.7747  0.2230
  789MOL0     H 4118   2.707  11.092   8.137  0.6563 -0.9545  0.8485
  789MOL0     H 4119   2.611  10.986   8.231 -3.2218  0.3353  0.5159
  789MOL0     H 4120   2.515  11.094   7.962  1.6766  2.3507  0.9804
  789MOL0     H 4121   2.411  11.005   8.087 -0.7382  1.1451  1.2306
  789MOL0     H 4122   2.557  11.268   8.090 -0.7341  3.7994  1.5144
  789MOL0     H 4123   2.484  11.203   8.241 -0.1087 -0.0430 -1.1645
  789MOL0     H 4124   2.296  11.240   8.013 -0.0716  1.0985 -1.3250
  789MOL0     H 4125   2.328  11.371   8.142  1.0716 -1.0523  1.9342
  789MOL0     H 4126   2.241  11.092   8.209 -1.0998  0.9620  0.7391
  789MOL0     H 4127   2.291  11.220   8.319 -0.5914 -1.2510  0.9552
  789MOL0     H 4128   2.078  11.207   8.097  1.8247 -1.3069 -0.4223
  789MOL0     H 4129   2.112  11.345   8.194  0.2596 -0.6640  2.1848
  789MOL0     H 4130   3.070  10.835   8.162  2.5160 -2.0286  0.1970
  789MOL0     H 4131   3.254  10.786   8.315 -0.5630  3.0292  0.7752
  789MOL0     H 4132   3.500  10.700   8.520  2.8948 -1.3199 -1.3043
  789MOL0     H 4133   3.706  10.705   8.606 -2.0531  1.0633 -0.3842
  789MOL0     H 4134   3.339   9.735   8.465  1.1606  2.0707 -0.8806
  789MOL0     H 4135   3.149   9.690   8.323 -1.4381  0.3081 -2.3483
  789MOL0     H 4136   2.969   9.836   7.871  0.9971  1.2480  3.7995
  789MOL0     H 4137   2.711   9.845   7.805 -1.6427 -2.3725 -2.6696
  789MOL0     H 4138   2.351   9.626   7.873  0.8119  2.4506 -1.3830
  789MOL0     H 4139   2.464   9.528   7.936 -0.2757  0.6908  0.5992
  789MOL0     H 4140   2.584   9.553   7.683  0.3604 -4.0083 -0.3162
  789MOL0     H 4141   2.453   9.446   7.707  4.5248 -1.9803  1.8754
  789MOL0     H 4142   2.441   9.626   7.511  0.9532 -1.7951  0.3281
  789MOL0     H 4143   2.421   9.741   7.635 -0.0258  0.2018 -1.8589
  789MOL0     H 4144   2.228   9.528   7.544  3.7455  0.1537 -2.1130
  789MOL0     H 4145   2.218   9.605   7.710  0.7560 -0.5124 -0.0345
  789MOL0     H 4146   2.072   9.929   7.492  0.8181  0.0136  1.2789
  789MOL0     H 4147   2.654   9.486   8.032  0.1995  0.1270 -0.2886
  789MOL0     H 4148   2.903   9.480   8.081  1.9445 -1.2651 -1.6940
  790MOL0     O 4149   0.238   8.256   4.094 -0.1801  0.0244 -0.1669
  790MOL0     C 4150   0.322   8.166   4.088 -0.0678  0.9381 -0.6429
  790MOL0     O 4151   0.354   8.088   4.193  0.2222  0.6920  0.6519
  790MOL0     C 4152   0.323   8.130   4.318  0.6492  0.3382 -0.1574
  790MOL0     C 4153   0.237   8.053   4.395  0.4481 -0.7567  0.0900
  790MOL0     C 4154   0.194   8.103   4.521 -0.3267 -0.6900  0.8836
  790MOL0     C 4155   0.250   8.224   4.584  0.3818  0.5584  0.9783
  790MOL0     O 4156   0.204   8.281   4.700  0.1349 -0.2692  0.7018
  790MOL0     C 4157   0.103   8.207   4.782  0.2847  0.0014  0.3085
  790MOL0     C 4158   0.089   8.283   4.914 -1.6789  0.2534  0.4551
  790MOL0     C 4159   0.048   8.434   4.898  0.7290  0.7253  0.0577
  790MOL0     C 4160  -0.106   8.447   4.910 -0.0255 -0.5420  0.8729
  790MOL0     C 4161  -0.152   8.485   4.769  0.0871  0.0395  0.0778
  790MOL0     C 4162  -0.301   8.504   4.770  0.0284  0.9702 -0.7508
  790MOL0     C 4163  -0.349   8.621   4.861 -0.5848 -0.3844  0.2748
  790MOL0     C 4164  -0.488   8.670   4.810 -0.1754 -0.9482  0.3568
  790MOL0     N 4165  -0.497   8.815   4.846  0.2351  0.7592  0.4456
  790MOL0     C 4166  -0.452   8.917   4.775  1.2418  0.1156  1.2843
  790MOL0     C 4167  -0.486   9.017   4.853 -0.9310  0.7629 -0.1214
  790MOL0     C 4168  -0.471   9.165   4.827  0.1911  0.3913 -0.4765
  790MOL0     C 4169  -0.325   9.196   4.794  0.0045 -0.6672  0.8655
  790MOL0     C 4170  -0.317   9.326   4.705 -0.2339 -0.1106  0.2094
  790MOL0     C 4171  -0.184   9.390   4.717 -0.3014 -0.0811 -0.0405
  790MOL0     O 4172  -0.077   9.296   4.695 -0.0599 -0.4686  0.0099
  790MOL0     C 4173   0.045   9.306   4.754 -0.1956 -0.3103  0.7008
  790MOL0     C 4174   0.096   9.409   4.832  0.0108 -0.0330 -0.8488
  790MOL0     C 4175   0.230   9.403   4.879 -0.3858 -0.1753  1.3237
  790MOL0     C 4176   0.314   9.290   4.847  0.4716  0.9803  0.1981
  790MOL0     C 4177   0.454   9.284   4.895  0.6325 -0.7885  0.5140
  790MOL0     O 4178   0.527   9.166   4.877  0.3832 -0.5278 -0.2650
  790MOL0     C 4179   0.667   9.191   4.889  0.8395  0.0297  0.0635
  790MOL0     C 4180   0.740   9.139   4.985 -1.0796  1.0642  0.4607
  790MOL0     C 4181   0.881   9.154   5.000  0.2091  0.4997  0.5410
  790MOL0     C 4182   0.943   9.238   4.904  0.4184 -0.3702 -1.1304
  790MOL0     O 4183   1.079   9.259   4.910 -0.7068  0.2192 -0.2523
  790MOL0     C 4184   1.123   9.383   4.973  0.1444  0.7730 -0.2632
  790MOL0     C 4185   1.129   9.383   5.124  0.5410 -1.2488  0.4538
  790MOL0     C 4186   1.222   9.295   5.193 -0.4972 -0.8379 -0.4284
  790MOL0     C 4187   1.198   9.280   5.346  0.4569 -0.8544 -0.3955
  790MOL0     C 4188   1.213   9.139   5.395 -0.7264  0.5108  0.5636
  790MOL0     C 4189   1.358   9.075   5.349  0.9797  0.7438  0.2014
  790MOL0     C 4190   1.375   8.937   5.406  0.5670 -0.5159  0.5634
  790MOL0     C 4191   1.438   8.932   5.544  0.5400  0.2514  0.2781
  790MOL0    Cl 4192   1.615   8.925   5.532  0.0859  0.1677  0.5676
  790MOL0     C 4193   0.867   9.293   4.799  0.5331 -0.2261  0.3312
  790MOL0     C 4194   0.730   9.269   4.789 -0.2075 -0.0066  0.7066
  790MOL0     O 4195   0.500   9.389   4.944 -0.6208  0.2652  0.3252
  790MOL0     C 4196   0.259   9.197   4.768 -0.2317  0.0600  0.8956
  790MOL0     C 4197   0.128   9.203   4.724 -0.4218 -0.9106  0.0333
  790MOL0     N 4198  -0.546   8.983   4.972  0.5606 -0.1926  0.5022
  790MOL0     N 4199  -0.566   8.862   4.951 -0.2286  1.1067  0.0163
  790MOL0     C 4200   0.339   8.295   4.498  0.6026  0.4277  0.0935
  790MOL0     C 4201   0.378   8.251   4.368 -0.3125 -0.0124 -0.3840
  790MOL0     C 4202   0.382   8.115   3.967 -0.3025 -0.1991 -0.6601
  790MOL0     C 4203   0.315   8.159   3.848  0.5568  0.8830  0.2820
  790MOL0     C 4204   0.357   8.100   3.722  0.1305  0.4582 -0.0898
  790MOL0     C 4205   0.465   8.009   3.723 -0.8651  0.8897  0.3590
  790MOL0     O 4206   0.513   7.960   3.597  0.5190 -0.0084 -0.3829
  790MOL0     C 4207   0.486   7.826   3.582  0.1383  0.2639 -0.0964
  790MOL0     C 4208   0.619   7.742   3.612  0.1789  0.5532 -0.4860
  790MOL0     C 4209   0.740   7.801   3.543  0.6244  0.4950  0.3071
  790MOL0     C 4210   0.866   7.705   3.556 -0.5946 -0.1077  0.5515
  790MOL0     C 4211   0.819   7.566   3.521  0.7613 -0.4086 -0.1833
  790MOL0     C 4212   0.797   7.460   3.474  0.2976  0.9470 -0.2418
  790MOL0     C 4213   0.539   7.974   3.842 -0.3032  0.1852 -0.0186
  790MOL0     C 4214   0.504   8.035   3.960  0.2707 -1.0135 -0.8152
  790MOL0     H 4215   0.200   7.962   4.349  1.1160 -1.9625  1.8468
  790MOL0     H 4216   0.119   8.050   4.579 -0.6808 -0.8704  0.2689
  790MOL0     H 4217   0.148   8.109   4.799  0.5126 -0.2038 -1.3354
  790MOL0     H 4218   0.007   8.214   4.731 -1.6123  2.1846  3.7778
  790MOL0     H 4219   0.188   8.299   4.956 -0.8582  1.0611 -1.6708
  790MOL0     H 4220   0.030   8.227   4.988 -0.4337 -0.5540  0.8702
  790MOL0     H 4221   0.088   8.480   4.806  3.1058  0.5095  0.9321
  790MOL0     H 4222   0.091   8.489   4.982  2.8436  1.2745 -1.3039
  790MOL0     H 4223  -0.164   8.358   4.936 -2.7035  0.8574  0.0765
  790MOL0     H 4224  -0.116   8.524   4.987  5.6044 -0.1570  1.6268
  790MOL0     H 4225  -0.126   8.412   4.692  2.9911  0.7655  0.2677
  790MOL0     H 4226  -0.114   8.584   4.742 -1.3331  0.1934 -1.5548
  790MOL0     H 4227  -0.361   8.420   4.805  0.3905  1.3347  0.8191
  790MOL0     H 4228  -0.338   8.511   4.667 -1.4937 -0.4600 -0.3484
  790MOL0     H 4229  -0.344   8.601   4.968  3.4671 -0.3019  0.2427
  790MOL0     H 4230  -0.282   8.706   4.844  0.7773 -1.3795  0.5219
  790MOL0     H 4231  -0.569   8.612   4.854 -2.5811 -0.2814 -2.8744
  790MOL0     H 4232  -0.502   8.656   4.703 -1.3629 -0.3491  0.4196
  790MOL0     H 4233  -0.403   8.918   4.678 -3.1666 -1.5551 -1.2538
  790MOL0     H 4234  -0.499   9.220   4.918  0.5374  1.2562 -0.8886
  790MOL0     H 4235  -0.545   9.188   4.750 -1.1482  2.1037  1.1977
  790MOL0     H 4236  -0.289   9.116   4.730 -3.1574 -0.0985 -1.8974
  790MOL0     H 4237  -0.272   9.207   4.889  0.6771  1.7421  0.2903
  790MOL0     H 4238  -0.329   9.311   4.597  2.8131  3.5015 -0.8185
  790MOL0     H 4239  -0.398   9.396   4.727  1.3903  2.3014 -1.0922
  790MOL0     H 4240  -0.174   9.438   4.815  0.0442 -1.4759  0.6265
  790MOL0     H 4241  -0.178   9.472   4.644 -0.9514 -1.6996 -1.9869
  790MOL0     H 4242   0.045   9.504   4.825 -0.2980 -0.0793  0.5287
  790MOL0     H 4243   0.262   9.491   4.932 -2.6808 -0.8062  3.9751
  790MOL0     H 4244   0.690   9.080   5.061 -1.5315 -0.0690 -0.6724
  790MOL0     H 4245   0.941   9.112   5.081 -0.7486  0.7206  1.3849
  790MOL0     H 4246   1.056   9.463   4.939  1.3404  1.4642 -1.0730
  790MOL0     H 4247   1.221   9.407   4.931 -0.4216  0.8897 -1.5728
  790MOL0     H 4248   1.028   9.367   5.163 -0.4503  1.3839 -0.8488
  790MOL0     H 4249   1.160   9.483   5.155 -2.6392  0.1559 -0.4361
  790MOL0     H 4250   1.324   9.331   5.176 -1.1869  0.4740 -1.9852
  790MOL0     H 4251   1.218   9.202   5.136  0.5682  0.0188 -1.9820
  790MOL0     H 4252   1.255   9.334   5.422  0.1083 -1.0390 -0.0062
  790MOL0     H 4253   1.095   9.315   5.358  0.6264 -0.6857  0.6327
  790MOL0     H 4254   1.131   9.086   5.346 -0.5773 -0.1136  0.9737
  790MOL0     H 4255   1.190   9.130   5.501  3.4390  0.2162  1.6347
  790MOL0     H 4256   1.438   9.137   5.391  1.8839 -1.1964  1.4889
  790MOL0     H 4257   1.373   9.079   5.241  3.6392  3.4534  0.5230
  790MOL0     H 4258   1.280   8.883   5.400 -2.0800  3.7614 -1.4990
  790MOL0     H 4259   1.443   8.879   5.343 -1.9498 -1.3658 -1.5409
  790MOL0     H 4260   1.390   8.841   5.582 -2.2729  0.2779 -2.7531
  790MOL0     H 4261   1.400   9.012   5.609 -4.5266 -0.6077 -1.1524
  790MOL0     H 4262   0.928   9.338   4.722  2.0779 -2.2910  0.2651
  790MOL0     H 4263   0.684   9.308   4.699  0.0288 -1.4973 -0.0988
  790MOL0     H 4264   0.328   9.119   4.736  0.8188  1.3631 -0.1503
  790MOL0     H 4265   0.085   9.115   4.678 -1.2665 -1.1970  1.3511
  790MOL0     H 4266   0.380   8.382   4.548 -0.0119  2.0284 -2.0709
  790MOL0     H 4267   0.427   8.331   4.312  1.7910 -0.4414  0.7423
  790MOL0     H 4268   0.225   8.218   3.861  0.7503  1.0558  0.8508
  790MOL0     H 4269   0.320   8.139   3.628  2.4525  1.8543 -0.4963
  790MOL0     H 4270   0.445   7.807   3.483  0.9359  1.6254 -0.7197
  790MOL0     H 4271   0.409   7.795   3.654  0.3828 -2.2453 -0.8339
  790MOL0     H 4272   0.629   7.740   3.721 -3.0555  0.5644 -0.0796
  790MOL0     H 4273   0.594   7.641   3.578 -1.6714  0.8478 -0.0907
  790MOL0     H 4274   0.752   7.902   3.585 -1.1234  0.4283  1.0115
  790MOL0     H 4275   0.710   7.791   3.438 -2.3526 -2.1172  1.2706
  790MOL0     H 4276   0.955   7.738   3.501 -1.4623  2.5019  0.5971
  790MOL0     H 4277   0.889   7.707   3.663  0.3850 -0.9183  0.3798
  790MOL0     H 4278   0.784   7.360   3.438  1.0140 -0.6783  3.5068
  790MOL0     H 4279   0.635   7.923   3.835  0.0194  0.9957 -3.9392
  790MOL0     H 4280   0.552   8.003   4.053  0.4860 -0.3914 -0.7027
  791MOL0     O 4281   1.224   7.065   2.858  0.5041  0.0167  0.5928
  791MOL0     C 4282   1.259   7.119   2.964 -0.2824  0.0382  0.9221
  791MOL0     O 4283   1.277   7.054   3.082  0.8073 -0.1069  0.0060
  791MOL0     C 4284   1.223   6.926   3.088 -0.6668  0.5820 -0.7911
  791MOL0     C 4285   1.087   6.899   3.112 -0.3511 -0.3833  0.0700
  791MOL0     C 4286   1.039   6.772   3.114  0.3830  0.4295 -0.2501
  791MOL0     C 4287   1.125   6.672   3.076 -1.5290  0.4194  0.5243
  791MOL0     O 4288   1.085   6.538   3.071 -0.3993 -0.6467 -0.2298
  791MOL0     C 4289   0.952   6.507   3.050  0.2791  0.0278 -0.0170
  791MOL0     C 4290   0.944   6.354   3.079  0.4029  0.3942  1.2073
  791MOL0     C 4291   0.985   6.309   3.221 -0.1706  0.1130 -0.5136
  791MOL0     C 4292   0.891   6.360   3.333 -1.4784  0.6673  0.1699
  791MOL0     C 4293   0.951   6.352   3.470 -0.7989  0.6452 -0.2934
  791MOL0     C 4294   0.952   6.209   3.521 -0.4280  0.0183 -1.7391
  791MOL0     C 4295   0.817   6.152   3.563  0.2078  0.3489  0.7045
  791MOL0     C 4296   0.831   6.053   3.683  0.1820  1.0175  0.8014
  791MOL0     N 4297   0.689   6.003   3.717 -0.3278 -0.2827  0.1975
  791MOL0     C 4298   0.623   6.031   3.835  0.2870  0.5165 -0.0241
  791MOL0     C 4299   0.500   6.002   3.818  0.5430  0.3609 -0.2746
  791MOL0     C 4300   0.388   5.996   3.924 -0.3140  0.2528  0.0425
  791MOL0     C 4301   0.326   5.860   3.929 -0.3998  0.2970  0.3059
  791MOL0     C 4302   0.202   5.882   4.024 -0.9281 -0.0190 -0.2721
  791MOL0     C 4303   0.094   5.772   4.030 -0.1551 -0.4838 -0.5582
  791MOL0     O 4304   0.023   5.776   3.904  0.8809 -0.0331 -0.6397
  791MOL0     C 4305  -0.114   5.746   3.906  0.2172  0.2619  0.2368
  791MOL0     C 4306  -0.160   5.614   3.934  0.5675 -0.5040  0.4325
  791MOL0     C 4307  -0.303   5.585   3.923  0.4645  0.6113 -0.4018
  791MOL0     C 4308  -0.398   5.682   3.875 -0.4538  0.1112  0.3518
  791MOL0     C 4309  -0.538   5.650   3.868  0.5974 -0.4928  0.3682
  791MOL0     O 4310  -0.578   5.520   3.852 -0.0557 -0.8636 -0.0289
  791MOL0     C 4311  -0.714   5.502   3.856 -0.2099  0.1168 -0.3875
  791MOL0     C 4312  -0.786   5.443   3.761 -0.2202  0.0352 -0.3255
  791MOL0     C 4313  -0.922   5.451   3.754  0.6380  0.6951 -0.4295
  791MOL0     C 4314  -0.992   5.497   3.863  0.9633  0.1967 -0.4200
  791MOL0     O 4315  -1.133   5.497   3.864  0.3931  0.3259  0.2951
  791MOL0     C 4316  -1.209   5.457   3.752  0.0488 -0.0701  1.1743
  791MOL0     C 4317  -1.354   5.469   3.757  0.0859  0.6469 -0.6319
  791MOL0     C 4318  -1.422   5.345   3.816  0.5899  0.1329  0.3471
  791MOL0     C 4319  -1.564   5.329   3.752  1.2725  0.5680  0.0664
  791MOL0     C 4320  -1.674   5.289   3.861 -0.0370  0.0246  0.2211
  791MOL0     C 4321  -1.813   5.260   3.810 -0.3908 -0.7317  0.2001
  791MOL0     C 4322  -1.826   5.183   3.680  0.4273 -0.1127  0.4056
  791MOL0     C 4323  -1.965   5.145   3.637  0.9786 -0.6129 -0.3954
  791MOL0    Cl 4324  -2.083   5.273   3.642 -0.0208  0.1133 -0.4591
  791MOL0     C 4325  -0.922   5.551   3.968  0.1639  0.3946  0.4630
  791MOL0     C 4326  -0.788   5.550   3.970 -0.2434 -0.4579 -0.2980
  791MOL0     O 4327  -0.613   5.751   3.869 -0.2583  0.4293  0.0408
  791MOL0     C 4328  -0.346   5.806   3.842  0.3477  0.1415 -0.9786
  791MOL0     C 4329  -0.209   5.834   3.845 -0.2490  0.9509  0.0483
  791MOL0     N 4330   0.494   5.949   3.688 -0.6226 -0.1274 -0.1168
  791MOL0     N 4331   0.610   5.941   3.628 -0.2897 -0.1815 -0.4939
  791MOL0     C 4332   1.255   6.688   3.042 -0.9953  0.2133  0.4440
  791MOL0     C 4333   1.307   6.816   3.052 -0.1417 -0.0471  0.3869
  791MOL0     C 4334   1.295   7.257   2.957  0.4435  0.0061  0.9241
  791MOL0     C 4335   1.262   7.338   2.844 -0.4523  0.2372  0.2669
  791MOL0     C 4336   1.326   7.459   2.823  0.3062 -0.2538 -0.7021
  791MOL0     C 4337   1.424   7.507   2.908 -0.2645  0.2815  0.6604
  791MOL0     O 4338   1.489   7.626   2.880  0.1806 -0.4991 -0.3959
  791MOL0     C 4339   1.491   7.678   2.741  0.6929  0.0885  0.3088
  791MOL0     C 4340   1.610   7.767   2.711  0.4023  0.1294  0.0710
  791MOL0     C 4341   1.561   7.912   2.728 -0.2314  0.3805 -0.4779
  791MOL0     C 4342   1.678   8.007   2.754 -0.8848 -0.1655 -0.0056
  791MOL0     C 4343   1.634   8.140   2.734 -0.0313 -0.2694 -0.5885
  791MOL0     C 4344   1.608   8.258   2.699  0.4217  0.8926 -0.5502
  791MOL0     C 4345   1.459   7.432   3.020  0.4329 -0.3489  0.5435
  791MOL0     C 4346   1.398   7.313   3.038  0.3461 -0.4185  0.0795
  791MOL0     H 4347   1.022   6.982   3.137 -1.3219 -1.1261  0.0513
  791MOL0     H 4348   0.936   6.765   3.148 -0.2401  2.2766 -1.6016
  791MOL0     H 4349   0.924   6.518   2.945  0.6526  3.3234  0.1029
  791MOL0     H 4350   0.884   6.564   3.115  1.2635  1.2017  0.0270
  791MOL0     H 4351   1.005   6.296   3.011  0.2612  3.2864 -1.6136
  791MOL0     H 4352   0.839   6.325   3.066  0.5792 -0.3592  1.4552
  791MOL0     H 4353   1.089   6.334   3.242 -0.7404  1.4467  0.8966
  791MOL0     H 4354   0.968   6.201   3.224 -2.7916  0.4728  1.5093
  791MOL0     H 4355   0.858   6.465   3.333 -3.6560  0.0724  2.3577
  791MOL0     H 4356   0.802   6.296   3.328  0.6041 -2.5341 -5.8882
  791MOL0     H 4357   0.892   6.415   3.537 -1.9960 -2.0234  1.3397
  791MOL0     H 4358   1.055   6.382   3.477 -0.6432 -0.0676  0.7962
  791MOL0     H 4359   1.007   6.200   3.614  2.3902  2.8645 -2.9605
  791MOL0     H 4360   1.003   6.142   3.451  3.3911 -1.7312  2.2671
  791MOL0     H 4361   0.732   6.217   3.585  0.1100  0.2039  0.7496
  791MOL0     H 4362   0.783   6.088   3.482  0.4353 -1.0702  1.6808
  791MOL0     H 4363   0.881   6.087   3.774 -1.1965  1.8482  1.2732
  791MOL0     H 4364   0.877   5.958   3.652 -2.6356  0.0033 -0.5601
  791MOL0     H 4365   0.669   6.068   3.925  1.1921 -2.6154  0.9316
  791MOL0     H 4366   0.316   6.078   3.914 -0.2803  0.4695  1.3758
  791MOL0     H 4367   0.441   6.010   4.019  1.1787 -2.5776 -0.2588
  791MOL0     H 4368   0.403   5.788   3.956 -0.4639  0.0881 -0.0581
  791MOL0     H 4369   0.298   5.823   3.830 -2.5919 -2.2826  1.7650
  791MOL0     H 4370   0.238   5.885   4.127 -2.7646 -3.3632  0.6249
  791MOL0     H 4371   0.146   5.975   4.012 -2.2525 -0.8784 -1.1127
  791MOL0     H 4372   0.023   5.786   4.112  0.5582 -0.9872  0.1626
  791MOL0     H 4373   0.143   5.676   4.051 -2.1983 -1.1401  1.7059
  791MOL0     H 4374  -0.091   5.535   3.960 -0.3384 -1.7858 -0.8304
  791MOL0     H 4375  -0.347   5.487   3.942  1.4641  0.3939  0.9336
  791MOL0     H 4376  -0.735   5.385   3.684  0.6115  0.7902 -0.3579
  791MOL0     H 4377  -0.965   5.409   3.663  0.3502  1.1550 -0.5114
  791MOL0     H 4378  -1.183   5.351   3.741  1.9921 -0.2117  5.2261
  791MOL0     H 4379  -1.161   5.517   3.674  1.1578  0.3532  2.1411
  791MOL0     H 4380  -1.404   5.483   3.660 -1.8787  1.1582  0.3950
  791MOL0     H 4381  -1.384   5.558   3.813  0.3201 -1.2499  2.7806
  791MOL0     H 4382  -1.445   5.381   3.917  0.3662  1.0312 -0.0208
  791MOL0     H 4383  -1.370   5.250   3.800 -0.3023 -0.1546 -0.9919
  791MOL0     H 4384  -1.608   5.422   3.715 -2.6657 -1.4394 -0.8894
  791MOL0     H 4385  -1.573   5.253   3.674  2.5273  1.0949 -0.6171
  791MOL0     H 4386  -1.676   5.368   3.938  2.8394  0.3153  0.0889
  791MOL0     H 4387  -1.637   5.197   3.907  2.0800  0.1013 -1.2160
  791MOL0     H 4388  -1.848   5.361   3.785 -0.0094  0.0174  2.4695
  791MOL0     H 4389  -1.877   5.215   3.887 -1.7946  0.4946 -0.1911
  791MOL0     H 4390  -1.766   5.235   3.606  0.5191  0.9273  1.1918
  791MOL0     H 4391  -1.771   5.090   3.702 -0.7674 -1.5944 -2.3778
  791MOL0     H 4392  -2.005   5.067   3.702  2.1254  0.4707  1.6917
  791MOL0     H 4393  -1.967   5.113   3.532 -0.2460 -0.6481 -0.3816
  791MOL0     H 4394  -0.981   5.595   4.048 -0.7530  2.6089 -1.3121
  791MOL0     H 4395  -0.736   5.591   4.056 -1.1315  0.1148 -0.0244
  791MOL0     H 4396  -0.422   5.870   3.798 -0.9843 -1.5813 -1.3032
  791MOL0     H 4397  -0.162   5.919   3.796  3.8414 -3.2129 -4.2981
  791MOL0     H 4398   1.313   6.601   3.015 -0.2866  1.5828 -2.9933
  791MOL0     H 4399   1.409   6.836   3.018 -0.4534  2.8047  0.8708
  791MOL0     H 4400   1.207   7.287   2.766 -1.5372 -0.0354  1.1879
  791MOL0     H 4401   1.282   7.524   2.748  2.2923 -0.0949 -1.8091
  791MOL0     H 4402   1.397   7.731   2.724  1.6835  1.7194 -0.3188
  791MOL0     H 4403   1.491   7.602   2.662  0.2625 -1.0337  1.3547
  791MOL0     H 4404   1.699   7.740   2.768 -1.0320 -3.6055  0.8350
  791MOL0     H 4405   1.630   7.763   2.603 -0.3751 -1.1081 -0.0489
  791MOL0     H 4406   1.506   7.904   2.823  3.4940 -1.1543  1.7691
  791MOL0     H 4407   1.516   7.955   2.638  2.2104  2.6596 -0.7442
  791MOL0     H 4408   1.721   7.993   2.854  0.4621 -2.2738 -0.8176
  791MOL0     H 4409   1.760   7.999   2.682 -0.3033  1.6985  0.3887
  791MOL0     H 4410   1.599   8.358   2.663  4.1174  1.3230 -0.6724
  791MOL0     H 4411   1.540   7.460   3.087  1.0355  1.3610 -0.8234
  791MOL0     H 4412   1.429   7.250   3.120  0.6866  2.3632  2.2114
  792MOL0     O 4413   1.554   6.144   3.864  0.1957 -0.0089  0.0518
  792MOL0     C 4414   1.660   6.129   3.801  0.1789  0.9076 -0.2417
  792MOL0     O 4415   1.680   6.169   3.673 -0.4129 -0.1994 -0.3430
  792MOL0     C 4416   1.580   6.220   3.600 -0.0791  0.7601  0.9036
  792MOL0     C 4417   1.443   6.188   3.612 -0.2514  0.3463  0.2318
  792MOL0     C 4418   1.343   6.251   3.534 -0.6156  0.7022 -0.2902
  792MOL0     C 4419   1.381   6.354   3.455  0.6419  0.1146  0.6210
  792MOL0     O 4420   1.277   6.427   3.401  0.6401 -0.7043 -0.6859
  792MOL0     C 4421   1.300   6.563   3.355 -0.1590  0.5161  0.1381
  792MOL0     C 4422   1.341   6.663   3.460 -0.4005 -0.3761  1.0391
  792MOL0     C 4423   1.379   6.802   3.410  0.3516 -0.3149 -0.9495
  792MOL0     C 4424   1.518   6.809   3.350 -1.3287  0.4812 -0.8033
  792MOL0     C 4425   1.551   6.957   3.332  0.4166 -0.2809 -0.5737
  792MOL0     C 4426   1.685   6.989   3.268  0.5173 -0.2572 -0.0202
  792MOL0     C 4427   1.707   7.143   3.253  0.2101  0.0514  1.0983
  792MOL0     C 4428   1.836   7.167   3.174  0.3588  0.3095  0.0103
  792MOL0     N 4429   1.846   7.305   3.122  0.4587  0.2603  1.3469
  792MOL0     C 4430   1.861   7.424   3.190 -0.2383  0.5185 -0.2304
  792MOL0     C 4431   1.829   7.523   3.095 -0.7641 -0.5355  0.1585
  792MOL0     C 4432   1.813   7.663   3.106 -0.6182 -0.8209  0.0343
  792MOL0     C 4433   1.922   7.747   3.038  0.6334 -0.2226 -0.3712
  792MOL0     C 4434   2.069   7.736   3.092  0.8695  0.0874 -0.2366
  792MOL0     C 4435   2.157   7.846   3.028  0.1618 -0.4776 -0.5542
  792MOL0     O 4436   2.138   7.835   2.887 -0.0124 -0.2424 -0.1578
  792MOL0     C 4437   2.170   7.940   2.802 -0.1207  0.1649  0.7823
  792MOL0     C 4438   2.287   8.016   2.802 -0.2553 -0.3438 -1.0461
  792MOL0     C 4439   2.296   8.123   2.707  0.0826 -0.2406  0.3112
  792MOL0     C 4440   2.201   8.157   2.616 -1.0637  0.1138 -0.5609
  792MOL0     C 4441   2.204   8.267   2.514 -0.4796  0.6405 -0.3849
  792MOL0     O 4442   2.326   8.320   2.495  0.5200 -0.0257  0.2839
  792MOL0     C 4443   2.346   8.428   2.404  0.1312  0.4483  1.5031
  792MOL0     C 4444   2.440   8.424   2.301 -0.3308  0.1429 -1.0743
  792MOL0     C 4445   2.447   8.522   2.214  0.3319 -1.1879  0.5743
  792MOL0     C 4446   2.374   8.644   2.235  0.4825  0.2076  0.4532
  792MOL0     O 4447   2.369   8.746   2.140 -0.0184 -0.3161 -0.7794
  792MOL0     C 4448   2.444   8.738   2.019  0.4950 -0.1342  0.1954
  792MOL0     C 4449   2.375   8.835   1.913  0.1668 -0.8819  0.6760
  792MOL0     C 4450   2.228   8.802   1.874  0.4043  0.1727 -0.1767
  792MOL0     C 4451   2.194   8.823   1.734 -0.5019  0.2949  0.8670
  792MOL0     C 4452   2.081   8.739   1.683 -0.7594 -0.3840 -0.2202
  792MOL0     C 4453   1.944   8.785   1.744 -0.5179 -0.0642 -0.5595
  792MOL0     C 4454   1.817   8.730   1.674  0.1485 -0.1753  0.1128
  792MOL0     C 4455   1.783   8.587   1.706 -0.0380  1.1885 -0.5018
  792MOL0    Cl 4456   1.655   8.533   1.613  0.8127 -0.3000  0.1191
  792MOL0     C 4457   2.284   8.655   2.343 -0.1541  0.6916 -0.2390
  792MOL0     C 4458   2.274   8.550   2.428 -0.6547  0.4134 -0.7415
  792MOL0     O 4459   2.103   8.303   2.451 -0.3324  0.0462 -0.3557
  792MOL0     C 4460   2.087   8.075   2.629  0.4876  0.5577  0.4756
  792MOL0     C 4461   2.064   7.976   2.725 -0.4581 -0.4296 -0.0421
  792MOL0     N 4462   1.818   7.458   2.971  0.3285 -0.2417 -0.8437
  792MOL0     N 4463   1.830   7.336   2.987  0.1109 -0.9824  0.2116
  792MOL0     C 4464   1.517   6.366   3.420  0.4757 -0.2138 -0.4905
  792MOL0     C 4465   1.615   6.319   3.501  0.7143 -0.6135 -0.0058
  792MOL0     C 4466   1.769   6.073   3.882 -0.2395 -0.3280 -1.3530
  792MOL0     C 4467   1.767   6.061   4.022  0.3934  1.3445 -0.6403
  792MOL0     C 4468   1.876   5.981   4.080 -0.1259 -0.4060  0.1996
  792MOL0     C 4469   1.963   5.916   3.999 -0.5431  0.0112 -0.8348
  792MOL0     O 4470   2.065   5.834   4.045 -0.1859 -0.2056 -0.6960
  792MOL0     C 4471   2.057   5.782   4.180 -0.6596 -0.3594 -0.3503
  792MOL0     C 4472   2.150   5.859   4.280  0.9397  0.3149  0.1750
  792MOL0     C 4473   2.132   5.816   4.425 -1.1184  1.3391 -0.0919
  792MOL0     C 4474   2.174   5.932   4.519  0.0698 -0.0790  0.1588
  792MOL0     C 4475   2.319   5.968   4.507  0.0804 -0.0172 -0.2292
  792MOL0     C 4476   2.427   6.009   4.490  0.7827  0.3201  0.6327
  792MOL0     C 4477   1.968   5.938   3.864  1.3544  0.2240  0.4578
  792MOL0     C 4478   1.875   6.028   3.810  0.4338 -1.0054 -0.1895
  792MOL0     H 4479   1.421   6.105   3.678 -0.7418 -0.7556 -1.2739
  792MOL0     H 4480   1.238   6.227   3.539 -0.4858  0.1164 -0.2391
  792MOL0     H 4481   1.205   6.603   3.318  0.4813  1.7874 -0.1534
  792MOL0     H 4482   1.377   6.552   3.278  1.3983  0.4277  1.6657
  792MOL0     H 4483   1.436   6.623   3.496  0.1662 -1.5857 -1.5838
  792MOL0     H 4484   1.261   6.655   3.534 -1.6361  0.5164 -0.1385
  792MOL0     H 4485   1.391   6.857   3.504  2.1506 -2.0259 -0.1067
  792MOL0     H 4486   1.306   6.850   3.344  1.3624  1.7895 -0.6137
  792MOL0     H 4487   1.601   6.781   3.416 -1.5235  2.1939  0.2293
  792MOL0     H 4488   1.507   6.753   3.257 -0.6200  0.7116 -1.0353
  792MOL0     H 4489   1.557   7.004   3.430  3.0750  0.6305 -1.0893
  792MOL0     H 4490   1.469   6.993   3.269 -0.2715  0.7125  0.8267
  792MOL0     H 4491   1.690   6.934   3.174 -1.7782 -1.9409  0.7465
  792MOL0     H 4492   1.767   6.950   3.329 -0.0850 -0.6925  0.5381
  792MOL0     H 4493   1.627   7.182   3.189  2.0621  2.6292  0.1970
  792MOL0     H 4494   1.733   7.207   3.337  2.8009  0.5097  0.0458
  792MOL0     H 4495   1.870   7.094   3.100  4.8818  0.8391  1.2887
  792MOL0     H 4496   1.920   7.155   3.242 -0.5741  2.0635  1.5881
  792MOL0     H 4497   1.890   7.440   3.294 -1.4048 -2.9756  0.7973
  792MOL0     H 4498   1.824   7.685   3.213  3.8337  1.3622 -0.6371
  792MOL0     H 4499   1.714   7.695   3.072  1.2130  3.4825 -1.9417
  792MOL0     H 4500   1.892   7.852   3.037  1.6874  0.1350 -2.8867
  792MOL0     H 4501   1.919   7.725   2.931  0.7851 -0.3399 -0.3524
  792MOL0     H 4502   2.080   7.721   3.200 -0.6249 -0.5500 -0.1550
  792MOL0     H 4503   2.101   7.640   3.049  0.3495 -0.8335  1.3567
  792MOL0     H 4504   2.263   7.827   3.047 -0.4576 -2.3419  1.3848
  792MOL0     H 4505   2.123   7.944   3.061 -3.7192 -0.8624 -2.8034
  792MOL0     H 4506   2.366   8.018   2.877  0.6906  1.6283 -2.0043
  792MOL0     H 4507   2.371   8.200   2.721  0.2083  0.0758 -1.7150
  792MOL0     H 4508   2.500   8.334   2.304  2.6659  2.0139  1.5929
  792MOL0     H 4509   2.497   8.498   2.121 -2.9006 -1.0195 -1.3734
  792MOL0     H 4510   2.444   8.639   1.973 -0.2890  0.2982 -0.7761
  792MOL0     H 4511   2.548   8.770   2.033  0.3468  0.6789 -0.5113
  792MOL0     H 4512   2.445   8.851   1.831 -0.0860  1.8160  0.9002
  792MOL0     H 4513   2.374   8.932   1.963 -3.0345  0.0719 -0.9818
  792MOL0     H 4514   2.164   8.857   1.944  1.6042  1.8175 -0.3036
  792MOL0     H 4515   2.217   8.696   1.898 -0.6919  0.6383  1.6005
  792MOL0     H 4516   2.157   8.926   1.726 -2.6584 -0.5458 -2.0835
  792MOL0     H 4517   2.285   8.804   1.677 -0.7665  0.6909  0.2997
  792MOL0     H 4518   2.091   8.632   1.702 -2.6021 -0.7402 -1.0397
  792MOL0     H 4519   2.070   8.750   1.575 -0.2291  1.1563 -0.1446
  792MOL0     H 4520   1.944   8.894   1.732 -3.3780  0.3999  2.3117
  792MOL0     H 4521   1.948   8.784   1.853 -1.4814  2.2960 -0.4359
  792MOL0     H 4522   1.734   8.791   1.710  0.6875  2.5430 -2.7593
  792MOL0     H 4523   1.820   8.752   1.567 -2.0405  2.6964  0.5226
  792MOL0     H 4524   1.752   8.574   1.810 -1.1272  0.7137 -0.8661
  792MOL0     H 4525   1.865   8.519   1.682 -2.9779 -3.3895  1.1055
  792MOL0     H 4526   2.226   8.747   2.348  1.0253  1.4333  0.8711
  792MOL0     H 4527   2.207   8.556   2.514 -0.1976 -0.3559 -0.3218
  792MOL0     H 4528   2.004   8.094   2.563 -0.8814  1.6691  2.4089
  792MOL0     H 4529   1.980   7.906   2.724  1.2192 -2.5996  1.1711
  792MOL0     H 4530   1.548   6.438   3.345 -0.1105  1.6207  0.9654
  792MOL0     H 4531   1.720   6.345   3.498  0.8810 -1.2103  0.4891
  792MOL0     H 4532   1.686   6.105   4.079 -0.5231 -0.0954 -0.7698
  792MOL0     H 4533   1.877   5.968   4.188  0.1883  3.0263  0.7025
  792MOL0     H 4534   2.105   5.684   4.183  0.2834  0.1099  0.5587
  792MOL0     H 4535   1.958   5.778   4.227 -0.4470 -1.5806  0.0223
  792MOL0     H 4536   2.255   5.851   4.253  1.2480 -3.5760  1.8239
  792MOL0     H 4537   2.093   5.952   4.286 -1.9796 -1.2454 -1.0553
  792MOL0     H 4538   2.199   5.735   4.452 -1.8106  0.9693  0.5347
  792MOL0     H 4539   2.032   5.779   4.450  0.5040 -2.7197  1.1060
  792MOL0     H 4540   2.106   6.016   4.499 -0.0716 -0.2845 -0.2328
  792MOL0     H 4541   2.145   5.908   4.622  1.6783  0.5532  0.7879
  792MOL0     H 4542   2.531   6.033   4.480  0.6544  2.2588  2.8733
  792MOL0     H 4543   2.050   5.890   3.811  1.3866  1.4706 -0.6667
  792MOL0     H 4544   1.876   6.045   3.702  0.1829  1.0018  0.0811
  793MOL0     O 4545   7.742   0.667   9.605 -0.3167  0.0568  0.4023
  793MOL0     C 4546   7.696   0.617   9.498  0.3265  0.2360  0.2413
  793MOL0     O 4547   7.591   0.531   9.492 -0.3310  0.1958 -0.2077
  793MOL0     C 4548   7.531   0.494   9.607  0.2449 -0.0332  0.2628
  793MOL0     C 4549   7.587   0.415   9.703 -1.0449  0.2371 -0.0171
  793MOL0     C 4550   7.537   0.401   9.826 -1.3893  0.3160  0.2029
  793MOL0     C 4551   7.411   0.442   9.852 -0.2568  0.0828  0.3770
  793MOL0     O 4552   7.371   0.420   9.979 -0.4143  0.3898  0.8929
  793MOL0     C 4553   7.245   0.478  10.018  0.0017  0.0781 -1.0039
  793MOL0     C 4554   7.220   0.422  10.156  0.7098  0.5626 -0.0518
  793MOL0     C 4555   7.075   0.439  10.203 -0.3627 -0.3113  0.3265
  793MOL0     C 4556   7.075   0.574  10.282 -0.7357  0.0492  0.7862
  793MOL0     C 4557   6.942   0.612  10.358 -0.8254 -0.7412 -0.0625
  793MOL0     C 4558   6.950   0.759  10.412 -1.2521  0.3141 -1.1346
  793MOL0     C 4559   6.821   0.797  10.475 -0.0036 -0.4757  1.1555
  793MOL0     C 4560   6.836   0.915  10.563  0.6983 -0.3713 -0.3014
  793MOL0     N 4561   6.876   0.870  10.702 -0.1539 -0.0162  0.0508
  793MOL0     C 4562   6.987   0.913  10.770  0.3124  0.0139  0.4087
  793MOL0     C 4563   6.968   0.881  10.901 -0.2077 -0.5205  1.4843
  793MOL0     C 4564   7.069   0.901  11.009  0.4260  0.1216  0.4342
  793MOL0     C 4565   7.021   1.018  11.104 -0.8829 -0.2880 -1.4992
  793MOL0     C 4566   7.148   1.082  11.169  0.5815  0.3378  0.1056
  793MOL0     C 4567   7.221   0.985  11.268  0.5232 -0.3359  0.1380
  793MOL0     O 4568   7.344   1.049  11.297 -0.3288 -0.6676  0.1935
  793MOL0     C 4569   7.452   1.004  11.236  0.3041 -0.6417  0.2746
  793MOL0     C 4570   7.560   1.096  11.234  0.5684  0.0732  0.4811
  793MOL0     C 4571   7.680   1.056  11.169  0.7352  0.2462  1.3207
  793MOL0     C 4572   7.686   0.930  11.102  0.4913 -0.5226 -0.4422
  793MOL0     C 4573   7.814   0.890  11.043 -0.6627  0.7385  0.1076
  793MOL0     O 4574   7.921   0.971  11.053 -0.6388  0.6113  0.2400
  793MOL0     C 4575   8.035   0.963  10.969  0.0072  1.1192  0.2111
  793MOL0     C 4576   8.162   0.991  11.007 -0.5076 -0.5601  0.5527
  793MOL0     C 4577   8.262   0.996  10.904 -0.2925 -0.3227  0.6791
  793MOL0     C 4578   8.228   1.012  10.765  0.1895  0.1667  0.4107
  793MOL0     O 4579   8.337   1.023  10.676 -0.6720 -0.3086  0.0343
  793MOL0     C 4580   8.346   0.913  10.592 -0.0612 -0.3290 -0.7480
  793MOL0     C 4581   8.392   0.984  10.456 -0.7173 -0.3063  0.1770
  793MOL0     C 4582   8.543   1.024  10.478  0.3498  0.9044 -0.4416
  793MOL0     C 4583   8.620   1.028  10.350 -0.2848 -0.1201 -0.0722
  793MOL0     C 4584   8.763   1.075  10.368  0.1118  0.0661  0.2413
  793MOL0     C 4585   8.823   1.123  10.233  0.3047 -0.4859 -0.7589
  793MOL0     C 4586   8.953   1.200  10.249 -0.8621  0.3966  0.5908
  793MOL0     C 4587   8.932   1.342  10.274 -0.2169  0.7829 -0.9319
  793MOL0    Cl 4588   8.841   1.416  10.149  0.1231  0.5183  0.0947
  793MOL0     C 4589   8.094   0.993  10.731 -0.8088 -0.1973  0.7361
  793MOL0     C 4590   7.999   0.965  10.831 -0.6776 -0.0020 -0.3647
  793MOL0     O 4591   7.820   0.768  11.008  0.0460 -0.4641 -0.1476
  793MOL0     C 4592   7.578   0.840  11.105  0.1573  0.3372  0.5703
  793MOL0     C 4593   7.464   0.881  11.178  0.1192  0.8800  0.6885
  793MOL0     N 4594   6.853   0.808  10.906  0.2600  0.0049  0.2899
  793MOL0     N 4595   6.799   0.800  10.787  0.3893 -0.3722 -0.7552
  793MOL0     C 4596   7.340   0.514   9.750  0.0815  0.2142  0.1518
  793MOL0     C 4597   7.397   0.542   9.626  0.7335  0.0081  0.3280
  793MOL0     C 4598   7.745   0.660   9.366 -0.2378 -0.5782  0.7868
  793MOL0     C 4599   7.684   0.625   9.243  0.6460  0.0234  0.0251
  793MOL0     C 4600   7.726   0.673   9.116 -0.6396  0.2646 -0.4829
  793MOL0     C 4601   7.828   0.766   9.116 -0.1964 -0.5180  0.0947
  793MOL0     O 4602   7.864   0.826   9.001 -0.2734 -0.1394  0.1554
  793MOL0     C 4603   7.857   0.739   8.890  0.9777  0.5648  1.2606
  793MOL0     C 4604   7.931   0.801   8.775  0.1002 -0.2570  0.4336
  793MOL0     C 4605   7.843   0.898   8.690 -0.1773  0.1168 -0.2067
  793MOL0     C 4606   7.921   1.010   8.624 -0.2693 -0.0035 -1.0530
  793MOL0     C 4607   7.984   1.109   8.707 -0.5128  0.0143  0.2031
  793MOL0     C 4608   8.035   1.192   8.779 -0.1036 -0.0473 -0.2848
  793MOL0     C 4609   7.881   0.811   9.238  0.4962 -0.0106  0.3338
  793MOL0     C 4610   7.853   0.752   9.358  0.1715 -0.3018 -1.2303
  793MOL0     H 4611   7.687   0.385   9.677  0.0892  3.3305  0.3197
  793MOL0     H 4612   7.595   0.352   9.903  1.0457 -1.8257 -2.7692
  793MOL0     H 4613   7.166   0.439   9.954 -0.1048  0.6852 -1.2486
  793MOL0     H 4614   7.241   0.587  10.022 -3.1076  0.0314  0.7581
  793MOL0     H 4615   7.304   0.442  10.223  0.6659  0.2363  0.1050
  793MOL0     H 4616   7.230   0.313  10.153  0.0527  0.4661  0.8889
  793MOL0     H 4617   7.040   0.360  10.270 -0.2731  0.5767  1.4566
  793MOL0     H 4618   7.008   0.436  10.116 -2.0308  2.0213  1.4217
  793MOL0     H 4619   7.154   0.569  10.357  0.1681  0.5224 -0.1281
  793MOL0     H 4620   7.097   0.654  10.211  0.1827 -0.4100  0.5470
  793MOL0     H 4621   6.923   0.541  10.439  1.9604 -1.3789  0.1409
  793MOL0     H 4622   6.861   0.598  10.286 -0.4420  2.0486 -1.1385
  793MOL0     H 4623   6.971   0.818  10.323  0.7527 -0.6861 -1.3761
  793MOL0     H 4624   7.036   0.774  10.478 -2.3147  0.5895  0.2361
  793MOL0     H 4625   6.761   0.841  10.394  1.5364 -0.6547 -0.1472
  793MOL0     H 4626   6.756   0.719  10.516 -0.8635  0.4589  1.6048
  793MOL0     H 4627   6.738   0.964  10.565 -0.3945 -2.3922 -0.8212
  793MOL0     H 4628   6.913   0.979  10.518  0.3758 -0.0902 -0.4587
  793MOL0     H 4629   7.072   0.958  10.719 -0.1734 -1.4870 -1.8580
  793MOL0     H 4630   7.163   0.929  10.962  0.6937  0.5892  1.2439
  793MOL0     H 4631   7.082   0.810  11.068 -0.2478  1.3923  2.6452
  793MOL0     H 4632   6.952   0.979  11.179  0.0903  0.9838  0.1334
  793MOL0     H 4633   6.960   1.094  11.055 -2.2981 -0.3174  0.1270
  793MOL0     H 4634   7.222   1.127  11.102  0.4559  0.4192  0.0208
  793MOL0     H 4635   7.123   1.167  11.234 -0.6827 -1.3480  1.9306
  793MOL0     H 4636   7.226   0.881  11.234 -1.6348 -0.3706 -0.2295
  793MOL0     H 4637   7.155   0.992  11.355 -0.9714 -2.0241 -0.7863
  793MOL0     H 4638   7.556   1.184  11.297 -0.8775 -1.8439  3.2753
  793MOL0     H 4639   7.773   1.110  11.175  1.4466 -0.9180  1.1550
  793MOL0     H 4640   8.192   0.997  11.111  1.3002 -2.5725  0.2287
  793MOL0     H 4641   8.368   1.006  10.923  0.3172 -0.7972 -2.0074
  793MOL0     H 4642   8.249   0.862  10.587  0.3289 -1.1154 -0.4243
  793MOL0     H 4643   8.425   0.841  10.615  1.7764  1.5422 -0.9030
  793MOL0     H 4644   8.328   1.072  10.451 -0.5657 -0.0258  2.4097
  793MOL0     H 4645   8.378   0.917  10.370  2.7860  1.3515 -1.9087
  793MOL0     H 4646   8.590   0.943  10.536  2.9019  0.6778 -2.6593
  793MOL0     H 4647   8.535   1.121  10.528 -2.5072 -0.0803  1.2382
  793MOL0     H 4648   8.613   0.930  10.302  1.8648 -0.4427  0.1990
  793MOL0     H 4649   8.578   1.101  10.280  1.1068  0.9511  0.1688
  793MOL0     H 4650   8.823   0.989  10.398 -1.5198 -2.1456 -2.3896
  793MOL0     H 4651   8.759   1.148  10.449  0.1535 -2.4628  2.6609
  793MOL0     H 4652   8.742   1.182  10.190 -0.5058  1.3183  2.8308
  793MOL0     H 4653   8.831   1.033  10.171  2.4718 -0.7598 -0.1491
  793MOL0     H 4654   9.019   1.158  10.326  0.5405  2.1489  0.4245
  793MOL0     H 4655   9.014   1.180  10.160  1.6665  2.3852  1.7437
  793MOL0     H 4656   9.029   1.388  10.295 -0.5348  0.4403  1.6032
  793MOL0     H 4657   8.887   1.341  10.374  0.7273 -1.6113 -0.4700
  793MOL0     H 4658   8.072   1.019  10.628  3.5429 -0.0417 -0.3547
  793MOL0     H 4659   7.896   0.947  10.803 -0.4263  0.5521 -1.7484
  793MOL0     H 4660   7.579   0.741  11.058  2.3434  0.7696 -0.4435
  793MOL0     H 4661   7.388   0.804  11.190  1.4721 -0.6693 -0.2893
  793MOL0     H 4662   7.234   0.534   9.757 -1.1000 -3.9530 -2.3482
  793MOL0     H 4663   7.349   0.595   9.545  0.8401 -2.9301 -1.8186
  793MOL0     H 4664   7.606   0.550   9.240  3.4935 -3.2392  1.3520
  793MOL0     H 4665   7.686   0.631   9.023 -0.1860 -0.7451 -0.2312
  793MOL0     H 4666   7.751   0.730   8.866  1.1363  3.5656 -1.0901
  793MOL0     H 4667   7.888   0.635   8.908 -0.2141  0.0110  0.2775
  793MOL0     H 4668   8.009   0.860   8.824 -1.3795  1.8960  0.3075
  793MOL0     H 4669   7.968   0.729   8.701  0.5487 -0.1227  0.5248
  793MOL0     H 4670   7.782   0.943   8.769  3.2720  0.0553  2.7977
  793MOL0     H 4671   7.791   0.836   8.617 -1.4936  0.1110  0.7108
  793MOL0     H 4672   8.007   0.972   8.569  0.8419  1.1883 -0.2004
  793MOL0     H 4673   7.857   1.054   8.547 -0.7063  1.9265  0.3255
  793MOL0     H 4674   8.082   1.258   8.849 -1.3486 -0.9304  1.4599
  793MOL0     H 4675   7.958   0.887   9.231 -0.3197  0.9483  1.3977
  793MOL0     H 4676   7.909   0.772   9.449  0.7497  1.7266 -1.9817
  794MOL0     O 4677   3.383   6.156   3.602 -1.1521  0.6076 -0.1173
  794MOL0     C 4678   3.492   6.178   3.542 -0.6960  0.8498 -0.1990
  794MOL0     O 4679   3.600   6.251   3.594  0.7310  0.5038  0.1179
  794MOL0     C 4680   3.585   6.309   3.713  0.6502  0.7439  0.5111
  794MOL0     C 4681   3.547   6.444   3.731 -0.3828  0.4086 -0.1459
  794MOL0     C 4682   3.544   6.503   3.854  0.3093  0.3637 -0.0871
  794MOL0     C 4683   3.575   6.440   3.967 -0.3424 -0.2781  0.7365
  794MOL0     O 4684   3.568   6.483   4.091 -0.0943  0.0475  0.9589
  794MOL0     C 4685   3.455   6.573   4.115  1.3730  0.4718 -0.6630
  794MOL0     C 4686   3.467   6.627   4.265 -0.2586 -0.1802 -0.6810
  794MOL0     C 4687   3.581   6.730   4.269  0.5076 -0.3175  0.6643
  794MOL0     C 4688   3.625   6.779   4.404 -0.2435 -0.8652 -0.6069
  794MOL0     C 4689   3.715   6.907   4.390  0.4294  0.0016  0.4963
  794MOL0     C 4690   3.776   6.962   4.518  0.5440  0.2986  0.0111
  794MOL0     C 4691   3.676   6.998   4.628  0.3093  0.8318  0.8233
  794MOL0     C 4692   3.719   7.124   4.710 -0.5765  0.2112 -0.0886
  794MOL0     N 4693   3.591   7.178   4.773  0.6967  0.3783 -0.7402
  794MOL0     C 4694   3.527   7.124   4.889 -0.1655  0.8686 -0.0994
  794MOL0     C 4695   3.452   7.226   4.943 -0.1446 -1.1564  1.0020
  794MOL0     C 4696   3.339   7.240   5.047 -1.5501  1.0798  0.4140
  794MOL0     C 4697   3.206   7.203   5.002  0.0628  0.5544  0.8438
  794MOL0     C 4698   3.113   7.229   5.119  0.2815 -0.5853  0.2701
  794MOL0     C 4699   2.967   7.209   5.084 -0.1736  0.4578  1.2905
  794MOL0     O 4700   2.896   7.280   5.183  0.0823  0.6469 -0.5588
  794MOL0     C 4701   2.760   7.293   5.165  1.9174  0.1876 -0.5639
  794MOL0     C 4702   2.701   7.366   5.267 -1.0582 -0.7572 -0.0787
  794MOL0     C 4703   2.562   7.370   5.280 -1.0340 -0.6460  1.0537
  794MOL0     C 4704   2.478   7.304   5.182 -0.3533 -0.3142  0.4529
  794MOL0     C 4705   2.330   7.307   5.199 -0.2559 -0.0026  0.3205
  794MOL0     O 4706   2.286   7.398   5.290  0.3029 -0.4329  0.2339
  794MOL0     C 4707   2.152   7.433   5.305  0.1620 -0.6941  0.0695
  794MOL0     C 4708   2.130   7.573   5.297  0.5002 -0.3447  1.0462
  794MOL0     C 4709   1.994   7.621   5.291 -0.2617 -0.1298  0.3995
  794MOL0     C 4710   1.891   7.534   5.311 -0.1134 -0.2033  0.2280
  794MOL0     O 4711   1.767   7.592   5.307  0.0684 -0.1100 -0.1468
  794MOL0     C 4712   1.691   7.566   5.421  1.2701 -0.1088  0.2793
  794MOL0     C 4713   1.554   7.652   5.428 -0.1880 -0.8267 -0.5726
  794MOL0     C 4714   1.439   7.588   5.508  0.2917 -1.1433  0.1467
  794MOL0     C 4715   1.474   7.565   5.654  1.1894  0.7546 -0.5303
  794MOL0     C 4716   1.545   7.678   5.728 -0.7120  0.1645  0.0061
  794MOL0     C 4717   1.472   7.815   5.722  0.1752 -0.9724  0.8171
  794MOL0     C 4718   1.446   7.886   5.857  0.5551 -0.2059 -0.5623
  794MOL0     C 4719   1.573   7.911   5.950  0.0916 -0.0938  0.1597
  794MOL0    Cl 4720   1.710   7.998   5.865 -0.0547 -0.4409 -0.0265
  794MOL0     C 4721   1.918   7.405   5.345  0.4294 -0.1263 -1.1951
  794MOL0     C 4722   2.043   7.348   5.335 -0.1962  0.4062  0.1822
  794MOL0     O 4723   2.268   7.240   5.117 -0.0896 -0.7962  0.2465
  794MOL0     C 4724   2.543   7.231   5.080  0.6459 -0.6814 -0.4422
  794MOL0     C 4725   2.677   7.228   5.069  0.7577  0.5318 -0.8053
  794MOL0     N 4726   3.488   7.339   4.875 -0.5387  0.3731  0.2421
  794MOL0     N 4727   3.573   7.312   4.785 -1.4688 -0.7279 -0.6935
  794MOL0     C 4728   3.610   6.307   3.957  1.0021  0.3387 -0.6141
  794MOL0     C 4729   3.613   6.234   3.835 -0.3204 -0.1070  1.2209
  794MOL0     C 4730   3.501   6.114   3.417  0.3636 -0.0685 -0.8494
  794MOL0     C 4731   3.390   6.047   3.354 -0.3898  0.3628 -0.1271
  794MOL0     C 4732   3.403   5.988   3.228 -0.3439 -0.3475 -0.0726
  794MOL0     C 4733   3.521   5.990   3.153 -0.2146  0.5830  1.0013
  794MOL0     O 4734   3.537   5.961   3.017 -0.0864 -0.4277 -0.4967
  794MOL0     C 4735   3.473   5.844   2.970 -0.2717  0.5576 -0.3775
  794MOL0     C 4736   3.507   5.814   2.821  0.7310  0.6427  0.5164
  794MOL0     C 4737   3.445   5.913   2.721  0.3496  0.7718 -0.4259
  794MOL0     C 4738   3.542   5.976   2.614  0.2288  0.0236 -0.6257
  794MOL0     C 4739   3.603   5.883   2.521  0.0471 -1.2788  0.2422
  794MOL0     C 4740   3.656   5.821   2.431  0.4780 -0.6911 -0.1031
  794MOL0     C 4741   3.633   6.056   3.217 -0.0775  1.1270 -0.7578
  794MOL0     C 4742   3.623   6.112   3.348 -0.0633  0.2685  0.7644
  794MOL0     H 4743   3.518   6.495   3.640 -2.2031  0.0684  0.2060
  794MOL0     H 4744   3.506   6.602   3.833 -1.7654 -0.6027 -1.1554
  794MOL0     H 4745   3.368   6.508   4.100  2.2869 -0.1269 -4.1492
  794MOL0     H 4746   3.445   6.649   4.037 -1.0047  1.5512  0.5861
  794MOL0     H 4747   3.498   6.545   4.330  1.0801 -0.8417 -2.0735
  794MOL0     H 4748   3.377   6.679   4.297 -0.2508 -0.4019 -0.2978
  794MOL0     H 4749   3.538   6.818   4.219  0.3348  1.7453  4.0987
  794MOL0     H 4750   3.672   6.695   4.221  1.0714 -1.9273  2.7688
  794MOL0     H 4751   3.544   6.812   4.469  1.6885  1.1771  0.9281
  794MOL0     H 4752   3.678   6.693   4.445  2.0563  0.5365 -0.4511
  794MOL0     H 4753   3.650   6.979   4.338 -1.7615 -2.1226  0.1090
  794MOL0     H 4754   3.791   6.883   4.316 -2.2210 -2.8071 -1.5727
  794MOL0     H 4755   3.843   7.046   4.498  0.4334 -0.1521 -2.6066
  794MOL0     H 4756   3.829   6.869   4.545 -1.6558 -0.9832  0.1300
  794MOL0     H 4757   3.574   7.010   4.591 -0.2669 -2.2534  1.1172
  794MOL0     H 4758   3.669   6.917   4.701  1.3771 -1.4978 -1.4842
  794MOL0     H 4759   3.749   7.205   4.643 -2.9854  0.8858 -0.4380
  794MOL0     H 4760   3.796   7.095   4.782  0.3869 -1.5679 -1.7444
  794MOL0     H 4761   3.517   7.023   4.926 -3.6851  0.3204 -2.1210
  794MOL0     H 4762   3.336   7.343   5.081  0.1379  0.6898  1.8761
  794MOL0     H 4763   3.380   7.179   5.128  1.2246 -2.0762 -2.9647
  794MOL0     H 4764   3.200   7.097   4.974 -0.9068  1.1778 -1.6415
  794MOL0     H 4765   3.183   7.265   4.915  0.1914 -2.0396 -1.1652
  794MOL0     H 4766   3.130   7.178   5.214 -1.6793  0.3871  1.2012
  794MOL0     H 4767   3.121   7.338   5.129 -1.6841 -0.4955  1.3864
  794MOL0     H 4768   2.947   7.101   5.086 -2.0023  0.7193 -0.0094
  794MOL0     H 4769   2.966   7.234   4.978  2.2417 -1.0137  0.8458
  794MOL0     H 4770   2.762   7.413   5.343 -0.0825 -2.7851  0.4687
  794MOL0     H 4771   2.511   7.427   5.357 -0.3517  0.3968  0.7487
  794MOL0     H 4772   2.204   7.647   5.267  0.2441  1.5304  4.4539
  794MOL0     H 4773   1.975   7.724   5.264  1.8767  0.1934 -0.0371
  794MOL0     H 4774   1.744   7.608   5.507  0.5489  1.7517 -0.1388
  794MOL0     H 4775   1.665   7.460   5.425  2.7259 -0.6168 -2.1081
  794MOL0     H 4776   1.527   7.662   5.322 -0.0742 -1.2545 -0.6441
  794MOL0     H 4777   1.574   7.756   5.454  1.6702 -0.5317 -2.8167
  794MOL0     H 4778   1.426   7.486   5.470 -1.5614 -0.5954 -0.8298
  794MOL0     H 4779   1.342   7.638   5.498  0.9313 -0.0061 -0.5074
  794MOL0     H 4780   1.378   7.539   5.700  3.8049 -3.3414  3.4464
  794MOL0     H 4781   1.531   7.472   5.660 -1.9834 -1.6088 -3.4716
  794MOL0     H 4782   1.650   7.690   5.699 -1.5037  0.8531 -2.9313
  794MOL0     H 4783   1.553   7.649   5.833  2.0991 -1.6470 -0.6176
  794MOL0     H 4784   1.374   7.797   5.678  0.9102 -0.6751 -1.0698
  794MOL0     H 4785   1.528   7.879   5.653 -0.6156 -0.0062  1.0584
  794MOL0     H 4786   1.399   7.983   5.840  3.3236  1.1539 -1.0721
  794MOL0     H 4787   1.383   7.816   5.913 -0.3006  1.8715  1.2109
  794MOL0     H 4788   1.616   7.816   5.982 -0.1132  1.0392  4.3391
  794MOL0     H 4789   1.532   7.956   6.041  1.8182  2.2626 -0.1426
  794MOL0     H 4790   1.855   7.329   5.389  3.0700 -1.4241  0.5906
  794MOL0     H 4791   2.063   7.244   5.359 -2.2151 -0.0731 -0.0785
  794MOL0     H 4792   2.482   7.195   4.998 -0.0649  1.3807 -0.8851
  794MOL0     H 4793   2.723   7.178   4.984  2.1830  0.7113 -0.1799
  794MOL0     H 4794   3.634   6.249   4.046 -1.6464  0.3953  0.2031
  794MOL0     H 4795   3.656   6.134   3.836 -0.9274 -0.3693  1.5838
  794MOL0     H 4796   3.288   6.054   3.390 -0.8085  1.8540 -1.4924
  794MOL0     H 4797   3.312   5.953   3.181  0.8444 -0.9771 -1.9963
  794MOL0     H 4798   3.365   5.862   2.976 -0.8536 -1.8086 -2.4191
  794MOL0     H 4799   3.494   5.755   3.031 -1.4063  0.3516 -0.2707
  794MOL0     H 4800   3.616   5.809   2.810  0.6840 -0.8572  0.6561
  794MOL0     H 4801   3.471   5.716   2.791  1.1573  1.2005 -2.0828
  794MOL0     H 4802   3.399   6.000   2.768  0.7462  2.1775 -2.4831
  794MOL0     H 4803   3.374   5.851   2.665  1.6120  1.5098 -3.0045
  794MOL0     H 4804   3.480   6.049   2.561 -1.3893 -0.9054 -0.1211
  794MOL0     H 4805   3.629   6.035   2.641 -1.0593  2.8918 -2.2558
  794MOL0     H 4806   3.703   5.756   2.360  2.7235  1.9159 -1.1403
  794MOL0     H 4807   3.734   6.061   3.178  1.2235  0.4262  2.2419
  794MOL0     H 4808   3.713   6.162   3.383 -0.1831  3.3602 -2.6309
  795MOL0     O 4809   7.395   7.671   6.267  0.4565  0.2469 -0.0350
  795MOL0     C 4810   7.336   7.726   6.366 -0.3104  0.4297  0.3964
  795MOL0     O 4811   7.221   7.798   6.358  0.4977 -0.3635  0.0730
  795MOL0     C 4812   7.133   7.781   6.249  0.4895 -0.5292 -0.3266
  795MOL0     C 4813   7.110   7.896   6.167 -0.2298  0.2652 -0.4183
  795MOL0     C 4814   7.039   7.892   6.053 -0.3001  0.7119  0.3179
  795MOL0     C 4815   6.969   7.777   6.015  0.8360  0.0105  0.3304
  795MOL0     O 4816   6.883   7.792   5.908  0.4270 -0.2586  0.1781
  795MOL0     C 4817   6.747   7.751   5.919 -1.1628 -0.3892  0.4450
  795MOL0     C 4818   6.726   7.624   5.828 -0.6980 -0.0462  0.1800
  795MOL0     C 4819   6.587   7.566   5.831  0.9000 -0.0456  0.0616
  795MOL0     C 4820   6.474   7.667   5.793 -1.5458  0.9811 -0.2168
  795MOL0     C 4821   6.341   7.599   5.795 -0.4087  0.7848  0.5944
  795MOL0     C 4822   6.225   7.683   5.727 -0.4804 -0.0059 -1.2298
  795MOL0     C 4823   6.097   7.587   5.727  0.0406  0.8504 -0.6859
  795MOL0     C 4824   6.033   7.625   5.589  0.2031 -0.5251  0.3029
  795MOL0     N 4825   5.901   7.571   5.573 -0.2334  0.2492 -0.2716
  795MOL0     C 4826   5.875   7.447   5.512 -0.7003 -0.0307 -0.2067
  795MOL0     C 4827   5.737   7.450   5.511  0.3695 -0.2998 -0.7116
  795MOL0     C 4828   5.648   7.358   5.445  0.2792 -1.5170  1.0537
  795MOL0     C 4829   5.610   7.245   5.534 -0.2197  0.0956  0.7574
  795MOL0     C 4830   5.538   7.293   5.656  0.2549  0.0444 -0.0378
  795MOL0     C 4831   5.407   7.355   5.628 -0.3145 -0.9491  0.0013
  795MOL0     O 4832   5.337   7.232   5.603  0.6641  0.0273 -0.3971
  795MOL0     C 4833   5.229   7.236   5.519 -0.0602  0.1203 -0.3511
  795MOL0     C 4834   5.162   7.345   5.461 -0.6272  0.9781 -0.2346
  795MOL0     C 4835   5.060   7.330   5.362  0.0685  1.4281  0.2475
  795MOL0     C 4836   5.010   7.197   5.331 -1.2206  0.6276 -0.5699
  795MOL0     C 4837   4.923   7.161   5.208 -0.2602 -0.1694  0.5286
  795MOL0     O 4838   4.887   7.275   5.138 -0.7299  0.0734 -0.7983
  795MOL0     C 4839   4.783   7.260   5.054 -0.4285  0.6001 -0.4273
  795MOL0     C 4840   4.808   7.214   4.924  0.1350 -0.0503 -0.1309
  795MOL0     C 4841   4.714   7.222   4.824  0.7772 -0.6028  0.7899
  795MOL0     C 4842   4.578   7.260   4.852 -0.2834  0.2565  0.2080
  795MOL0     O 4843   4.487   7.258   4.746 -0.4727  0.2346 -0.6491
  795MOL0     C 4844   4.365   7.328   4.769 -0.1739 -0.2612  0.1284
  795MOL0     C 4845   4.286   7.316   4.638  0.1037 -0.0134 -0.0175
  795MOL0     C 4846   4.192   7.191   4.639  0.8716  0.4759 -0.2004
  795MOL0     C 4847   4.246   7.053   4.582 -0.0914 -0.0469  1.1371
  795MOL0     C 4848   4.145   6.940   4.566 -0.5114 -0.2037  1.0634
  795MOL0     C 4849   4.234   6.819   4.521 -0.3461 -0.0400 -0.7280
  795MOL0     C 4850   4.147   6.690   4.480 -1.2233 -0.0628 -0.6270
  795MOL0     C 4851   4.113   6.616   4.610 -0.2812  1.4316  0.3532
  795MOL0    Cl 4852   3.963   6.673   4.681 -0.4195  0.0686 -0.4260
  795MOL0     C 4853   4.552   7.287   4.990 -0.0427 -0.3791 -0.0905
  795MOL0     C 4854   4.660   7.301   5.082  1.0389  0.3755  0.1399
  795MOL0     O 4855   4.865   7.052   5.210  0.0645 -0.2977  0.0259
  795MOL0     C 4856   5.063   7.087   5.406 -0.6355  0.8016  1.4509
  795MOL0     C 4857   5.165   7.111   5.498  0.6309 -0.1428  0.2714
  795MOL0     N 4858   5.685   7.561   5.569  0.2232 -0.4692 -1.2464
  795MOL0     N 4859   5.786   7.639   5.594  0.7841  0.6283  0.0930
  795MOL0     C 4860   6.984   7.659   6.095 -0.3815 -0.6022  0.6249
  795MOL0     C 4861   7.076   7.660   6.206  0.3851  0.5626 -0.1304
  795MOL0     C 4862   7.420   7.735   6.490  0.2781 -0.3986 -0.5284
  795MOL0     C 4863   7.405   7.844   6.585 -0.4362  0.1024  0.4952
  795MOL0     C 4864   7.498   7.854   6.689  0.0110  0.5979  0.8877
  795MOL0     C 4865   7.596   7.756   6.716 -0.2640 -0.3764  0.0015
  795MOL0     O 4866   7.678   7.751   6.830  0.1909  0.0389  0.3793
  795MOL0     C 4867   7.706   7.875   6.898  0.7011  0.1482 -0.8127
  795MOL0     C 4868   7.816   7.859   7.007 -0.3155  0.1471  0.0168
  795MOL0     C 4869   7.838   7.983   7.096 -0.2959  0.1134 -0.6064
  795MOL0     C 4870   7.981   8.024   7.113 -0.0922 -0.3777  0.2977
  795MOL0     C 4871   8.075   7.945   7.184  0.1104  0.5015 -0.7035
  795MOL0     C 4872   8.154   7.867   7.251  0.2970 -0.0120 -0.8805
  795MOL0     C 4873   7.612   7.658   6.620 -0.1620  0.2747  0.1638
  795MOL0     C 4874   7.521   7.636   6.513  0.2498 -0.4710  0.3323
  795MOL0     H 4875   7.151   7.995   6.187  0.6717 -0.4952  1.8039
  795MOL0     H 4876   7.030   7.987   6.002  0.1034 -0.0228 -1.1783
  795MOL0     H 4877   6.670   7.824   5.894 -0.5456 -0.3798 -1.6132
  795MOL0     H 4878   6.726   7.727   6.024 -0.4067  2.6099  1.3944
  795MOL0     H 4879   6.809   7.564   5.867 -2.1025 -1.8296  0.5474
  795MOL0     H 4880   6.753   7.651   5.726  0.6209 -0.3162  0.4455
  795MOL0     H 4881   6.577   7.535   5.935  1.6603  0.0989  0.1834
  795MOL0     H 4882   6.576   7.476   5.771 -0.8870  0.6094 -0.6684
  795MOL0     H 4883   6.485   7.746   5.868  1.5357 -0.2440  0.8158
  795MOL0     H 4884   6.497   7.711   5.696 -0.4902 -0.0861 -0.4727
  795MOL0     H 4885   6.317   7.572   5.898  1.1996  1.6226  1.2356
  795MOL0     H 4886   6.350   7.501   5.747  3.2743  1.1254  0.2825
  795MOL0     H 4887   6.263   7.704   5.626  0.7193 -1.1600 -1.0541
  795MOL0     H 4888   6.199   7.781   5.769  0.9321  2.3325 -5.2203
  795MOL0     H 4889   6.113   7.480   5.739  0.3138  1.1362  2.2488
  795MOL0     H 4890   6.029   7.611   5.810 -1.7980 -1.2279 -1.4761
  795MOL0     H 4891   6.095   7.585   5.509 -0.8797 -1.2975 -0.1651
  795MOL0     H 4892   6.026   7.734   5.584 -0.5160 -0.5651  0.3552
  795MOL0     H 4893   5.949   7.380   5.471 -1.4807 -0.7091 -0.5161
  795MOL0     H 4894   5.703   7.313   5.363 -0.3758 -1.5561  0.6257
  795MOL0     H 4895   5.559   7.414   5.414 -0.8323 -0.1770  5.8387
  795MOL0     H 4896   5.704   7.198   5.564  0.6276  0.7708 -0.7112
  795MOL0     H 4897   5.556   7.167   5.481 -1.3931  1.0693  0.4641
  795MOL0     H 4898   5.527   7.209   5.725 -0.7241  0.5824  0.4849
  795MOL0     H 4899   5.608   7.360   5.708  1.3409 -1.0220 -0.0912
  795MOL0     H 4900   5.409   7.420   5.540 -1.9969 -1.2421 -0.3001
  795MOL0     H 4901   5.370   7.413   5.713  1.8359 -1.7487  1.5678
  795MOL0     H 4902   5.189   7.445   5.496 -0.0608  1.3006 -1.5181
  795MOL0     H 4903   5.026   7.420   5.310  1.1749  2.1619  0.7576
  795MOL0     H 4904   4.901   7.174   4.887 -0.4650 -3.1136  1.3911
  795MOL0     H 4905   4.726   7.177   4.726 -1.2925  1.4198 -0.4831
  795MOL0     H 4906   4.392   7.429   4.800 -0.8988  0.4412 -1.3856
  795MOL0     H 4907   4.307   7.278   4.846 -0.2618  0.0341  0.2571
  795MOL0     H 4908   4.339   7.316   4.543 -1.5586  3.2574 -1.0943
  795MOL0     H 4909   4.224   7.406   4.633  0.9102  0.7127  1.9602
  795MOL0     H 4910   4.113   7.234   4.577  2.9137 -0.8444 -4.0383
  795MOL0     H 4911   4.151   7.184   4.740  0.1758  0.8460 -0.4502
  795MOL0     H 4912   4.291   7.079   4.485 -0.5852  2.0016  1.4123
  795MOL0     H 4913   4.326   7.012   4.645 -1.9843 -2.6006  2.0532
  795MOL0     H 4914   4.078   6.968   4.484  3.6784  0.7755 -2.4125
  795MOL0     H 4915   4.096   6.914   4.660  2.9428 -1.9480  2.5638
  795MOL0     H 4916   4.312   6.780   4.588 -1.9932 -3.1061 -0.4015
  795MOL0     H 4917   4.290   6.843   4.431 -1.4592  0.0249 -1.4142
  795MOL0     H 4918   4.064   6.722   4.417 -1.2211  2.6297  0.6162
  795MOL0     H 4919   4.221   6.629   4.427  1.3325  3.5688 -1.6155
  795MOL0     H 4920   4.183   6.620   4.694  1.2004 -0.1845 -0.7462
  795MOL0     H 4921   4.095   6.509   4.595 -0.1845  1.6867 -1.8286
  795MOL0     H 4922   4.454   7.326   5.016  0.0217 -0.6694  0.5982
  795MOL0     H 4923   4.652   7.332   5.185 -0.6147 -3.6848  1.4587
  795MOL0     H 4924   5.036   6.986   5.377 -1.3331  1.1896  0.7170
  795MOL0     H 4925   5.204   7.023   5.548  1.0772  0.4466  0.9866
  795MOL0     H 4926   6.933   7.566   6.071 -0.7452 -0.5062  1.0105
  795MOL0     H 4927   7.096   7.572   6.266  4.7816  0.6060 -1.1266
  795MOL0     H 4928   7.331   7.923   6.578  0.3969  1.3891  4.0068
  795MOL0     H 4929   7.473   7.935   6.757 -1.3176  0.6068  0.4182
  795MOL0     H 4930   7.605   7.906   6.927 -0.5018 -1.9849 -2.4242
  795MOL0     H 4931   7.750   7.941   6.823  1.0523  1.8188  0.7969
  795MOL0     H 4932   7.777   7.776   7.068 -2.6108  0.7252 -0.5551
  795MOL0     H 4933   7.912   7.826   6.966 -0.2100 -1.1475  1.2242
  795MOL0     H 4934   7.783   7.957   7.187  1.4646  1.3909  0.8939
  795MOL0     H 4935   7.783   8.070   7.061 -1.7370 -0.8054 -0.7176
  795MOL0     H 4936   8.021   8.041   7.013 -1.5518 -3.2819 -0.9051
  795MOL0     H 4937   7.973   8.117   7.170  1.9538 -0.2772  0.5009
  795MOL0     H 4938   8.229   7.805   7.294  0.1307  0.5130  0.1837
  795MOL0     H 4939   7.700   7.597   6.639  0.7989  0.8487 -2.0935
  795MOL0     H 4940   7.539   7.553   6.446 -1.1893  0.4873 -1.3381
  796MOL0     O 4941   6.795   4.237   2.443 -0.7934 -0.0097  0.2836
  796MOL0     C 4942   6.861   4.325   2.502 -0.3761 -0.2991 -0.0106
  796MOL0     O 4943   6.975   4.308   2.571 -0.8466  0.0534  0.2385
  796MOL0     C 4944   7.030   4.181   2.575  0.4391 -0.6490  0.7056
  796MOL0     C 4945   7.169   4.172   2.606  0.6945 -0.1986 -0.4750
  796MOL0     C 4946   7.245   4.059   2.584 -0.0424 -0.4756 -0.1153
  796MOL0     C 4947   7.181   3.942   2.556  0.4298  0.4736  0.1705
  796MOL0     O 4948   7.257   3.831   2.549 -0.0669  0.4744 -0.0343
  796MOL0     C 4949   7.313   3.783   2.670 -0.7040  0.7836  0.7653
  796MOL0     C 4950   7.375   3.649   2.629 -0.2241  0.2938 -0.5417
  796MOL0     C 4951   7.453   3.596   2.758  0.2369 -0.3087  1.3105
  796MOL0     C 4952   7.361   3.578   2.881 -1.3113 -0.6805  1.0071
  796MOL0     C 4953   7.419   3.461   2.962 -0.3063 -0.0842  0.5059
  796MOL0     C 4954   7.558   3.495   3.023 -0.1319  0.3603 -0.5511
  796MOL0     C 4955   7.614   3.386   3.117 -0.1907  0.3801 -0.0152
  796MOL0     C 4956   7.694   3.277   3.058 -0.3115 -0.1405 -0.2140
  796MOL0     N 4957   7.697   3.140   3.128  0.0968 -0.1935 -0.0157
  796MOL0     C 4958   7.661   3.013   3.077  0.0558 -0.1319 -0.5862
  796MOL0     C 4959   7.736   2.927   3.150 -1.0636  0.2088 -0.8960
  796MOL0     C 4960   7.735   2.777   3.156 -1.4925  0.2658 -0.8103
  796MOL0     C 4961   7.787   2.701   3.039 -0.0967  0.6841  0.2442
  796MOL0     C 4962   7.756   2.558   3.072 -0.6663 -0.6575 -0.2000
  796MOL0     C 4963   7.835   2.489   3.182 -0.7854  0.0314 -0.4972
  796MOL0     O 4964   7.786   2.361   3.191  0.2012 -0.2571 -0.6393
  796MOL0     C 4965   7.658   2.333   3.235  0.6872 -0.7345  0.0962
  796MOL0     C 4966   7.582   2.429   3.297  0.8012  0.2386 -0.5504
  796MOL0     C 4967   7.449   2.405   3.329 -0.4911 -0.1257 -0.4756
  796MOL0     C 4968   7.383   2.291   3.296  0.0363  0.1994 -0.4228
  796MOL0     C 4969   7.237   2.265   3.322  0.5008  0.1504 -0.6172
  796MOL0     O 4970   7.176   2.158   3.271 -0.4331 -0.9290 -0.5054
  796MOL0     C 4971   7.042   2.177   3.249  0.5261  0.2261 -0.0745
  796MOL0     C 4972   6.994   2.294   3.189 -1.4192  0.2674 -0.6237
  796MOL0     C 4973   6.861   2.319   3.176 -0.9616  0.2442 -0.3562
  796MOL0     C 4974   6.771   2.215   3.212  0.3275  0.1585  0.1384
  796MOL0     O 4975   6.643   2.235   3.176 -0.5865  0.1738  0.0259
  796MOL0     C 4976   6.555   2.304   3.263 -0.0960 -0.0503 -0.1926
  796MOL0     C 4977   6.481   2.201   3.347 -0.4134 -0.5952  0.2002
  796MOL0     C 4978   6.366   2.271   3.436  0.1149  0.2937 -0.1729
  796MOL0     C 4979   6.256   2.342   3.350  0.7263  0.3153  0.1552
  796MOL0     C 4980   6.135   2.367   3.454  1.1100  1.3139  0.8390
  796MOL0     C 4981   6.055   2.233   3.485 -0.4875 -0.6725  0.2334
  796MOL0     C 4982   5.940   2.280   3.569  0.0215 -0.9000  0.0357
  796MOL0     C 4983   5.863   2.159   3.628 -0.0085  0.0672 -0.7458
  796MOL0    Cl 4984   5.744   2.098   3.511 -0.4942  0.1228  0.1717
  796MOL0     C 4985   6.819   2.096   3.269 -0.3510 -0.4201 -0.1119
  796MOL0     C 4986   6.953   2.073   3.288 -0.1158  0.6388  1.3657
  796MOL0     O 4987   7.191   2.334   3.415  0.1825 -0.2631  0.1045
  796MOL0     C 4988   7.453   2.193   3.220 -0.1883 -0.5683 -0.4954
  796MOL0     C 4989   7.591   2.205   3.192 -1.2695 -0.8498  0.5309
  796MOL0     N 4990   7.819   2.998   3.235 -0.3574  0.2004 -0.5151
  796MOL0     N 4991   7.796   3.123   3.221 -1.1397  1.0006  0.4997
  796MOL0     C 4992   7.048   3.937   2.531  0.2970 -0.3468 -0.2141
  796MOL0     C 4993   6.976   4.055   2.542 -0.2283  0.1769 -0.7070
  796MOL0     C 4994   6.812   4.455   2.509 -0.0079  0.5412 -0.2917
  796MOL0     C 4995   6.885   4.576   2.550  0.1079  0.0178  0.3214
  796MOL0     C 4996   6.838   4.699   2.519 -0.7105 -0.0272  0.1866
  796MOL0     C 4997   6.719   4.731   2.464  0.1140 -0.1804 -1.1218
  796MOL0     O 4998   6.692   4.864   2.458 -0.5419  0.2905  0.1396
  796MOL0     C 4999   6.564   4.915   2.404  0.7104  0.1583 -0.3326
  796MOL0     C 5000   6.547   4.882   2.249 -0.5662 -0.4839 -0.6567
  796MOL0     C 5001   6.395   4.873   2.197  0.8780  0.8688 -1.2470
  796MOL0     C 5002   6.332   5.000   2.155 -0.0012 -0.4397  0.3426
  796MOL0     C 5003   6.271   5.072   2.271 -0.3230  1.0709 -0.2882
  796MOL0     C 5004   6.205   5.106   2.362  0.7307 -0.6767 -0.6567
  796MOL0     C 5005   6.639   4.616   2.439  0.2545  0.0724 -0.0838
  796MOL0     C 5006   6.687   4.483   2.452  0.0238 -0.6016 -0.1025
  796MOL0     H 5007   7.199   4.276   2.622 -0.7602  0.1305  0.2986
  796MOL0     H 5008   7.351   4.041   2.595 -0.5146 -3.1372  0.6160
  796MOL0     H 5009   7.245   3.771   2.754  0.8506 -2.5003  1.7384
  796MOL0     H 5010   7.401   3.841   2.699  0.6555 -0.1121 -1.3010
  796MOL0     H 5011   7.443   3.663   2.545  2.8251 -0.7122  1.6083
  796MOL0     H 5012   7.287   3.586   2.612 -1.3598  1.9608 -1.1838
  796MOL0     H 5013   7.527   3.672   2.788  2.5302 -2.4657  1.4739
  796MOL0     H 5014   7.509   3.505   2.736 -1.1259 -1.1812  1.3975
  796MOL0     H 5015   7.339   3.673   2.931  2.1052  2.4967 -2.8596
  796MOL0     H 5016   7.267   3.542   2.838 -0.6636 -2.5347  1.0387
  796MOL0     H 5017   7.418   3.380   2.888 -1.7162 -1.3430  1.8417
  796MOL0     H 5018   7.337   3.445   3.033 -3.5375  1.2314 -2.5926
  796MOL0     H 5019   7.528   3.577   3.089  1.5957  0.7835 -0.2602
  796MOL0     H 5020   7.640   3.520   2.956 -0.2546 -1.8194 -1.6153
  796MOL0     H 5021   7.676   3.436   3.191 -1.6289  1.7046  0.3637
  796MOL0     H 5022   7.533   3.341   3.176  0.0506 -0.4783 -0.3264
  796MOL0     H 5023   7.795   3.319   3.055 -0.4246  0.3238  1.2850
  796MOL0     H 5024   7.661   3.259   2.956 -0.3952  1.8726 -0.5957
  796MOL0     H 5025   7.595   2.996   2.993 -0.2019  1.7674 -0.8150
  796MOL0     H 5026   7.632   2.755   3.185 -0.9146 -3.8464 -1.2892
  796MOL0     H 5027   7.799   2.747   3.239 -1.4066  1.1234 -0.5618
  796MOL0     H 5028   7.896   2.703   3.031  0.1449 -2.0739  1.6937
  796MOL0     H 5029   7.727   2.720   2.950  0.3439  0.3205 -0.1328
  796MOL0     H 5030   7.647   2.551   3.083 -0.5768 -1.6299  0.1848
  796MOL0     H 5031   7.773   2.495   2.984  2.5348 -1.5480  0.9326
  796MOL0     H 5032   7.821   2.533   3.281  2.0186  0.8776 -0.3863
  796MOL0     H 5033   7.937   2.489   3.145 -0.3405 -2.1081  0.5799
  796MOL0     H 5034   7.619   2.529   3.319  2.6328 -0.8358  1.8198
  796MOL0     H 5035   7.397   2.491   3.369  0.4272 -0.1691  0.8810
  796MOL0     H 5036   7.058   2.371   3.145 -2.6624  0.4167 -2.2662
  796MOL0     H 5037   6.832   2.417   3.140  4.0582  1.6576 -1.2875
  796MOL0     H 5038   6.488   2.368   3.205 -0.1162  1.3652  1.3278
  796MOL0     H 5039   6.613   2.373   3.325  2.7975 -3.3399  1.1299
  796MOL0     H 5040   6.555   2.164   3.419 -1.5527  0.8556  2.2481
  796MOL0     H 5041   6.436   2.123   3.285  0.2419  1.4835 -3.1459
  796MOL0     H 5042   6.398   2.349   3.506 -0.9655  1.6186 -1.1038
  796MOL0     H 5043   6.332   2.186   3.495  2.6433 -0.2014  0.7168
  796MOL0     H 5044   6.287   2.442   3.316 -2.4327  0.9000 -1.3335
  796MOL0     H 5045   6.223   2.287   3.261 -1.3351  4.1917 -1.7371
  796MOL0     H 5046   6.049   2.420   3.411  2.1747  1.4549 -1.2718
  796MOL0     H 5047   6.173   2.413   3.545  0.0676  2.9640  0.4999
  796MOL0     H 5048   6.116   2.158   3.537 -0.4490 -2.6708 -2.4476
  796MOL0     H 5049   6.022   2.179   3.396 -1.4099 -0.1044  0.2164
  796MOL0     H 5050   5.977   2.342   3.651  0.5242  1.3858 -1.8005
  796MOL0     H 5051   5.861   2.325   3.509 -0.3169  0.7305  1.6103
  796MOL0     H 5052   5.804   2.200   3.710  0.3620 -0.9524  0.0496
  796MOL0     H 5053   5.927   2.082   3.671 -2.0638 -1.4619 -0.2273
  796MOL0     H 5054   6.761   2.015   3.312  2.5982 -3.2228 -0.9964
  796MOL0     H 5055   6.984   1.981   3.337  0.0211 -0.4842 -0.7211
  796MOL0     H 5056   7.406   2.101   3.185 -0.0566 -0.6916 -0.3507
  796MOL0     H 5057   7.649   2.129   3.141 -0.0273  0.6907 -0.4496
  796MOL0     H 5058   7.002   3.842   2.508 -2.0239  0.8057 -0.6121
  796MOL0     H 5059   6.872   4.029   2.525  0.4617 -1.8825 -2.1170
  796MOL0     H 5060   6.982   4.562   2.596 -0.1711 -3.6934  0.0271
  796MOL0     H 5061   6.895   4.788   2.541 -0.0576 -0.5939  0.8518
  796MOL0     H 5062   6.570   5.022   2.424  2.5784 -0.4421  3.2333
  796MOL0     H 5063   6.479   4.882   2.465  2.0286 -0.0738  1.4683
  796MOL0     H 5064   6.604   4.945   2.181 -1.4469 -0.1905 -1.1415
  796MOL0     H 5065   6.596   4.784   2.242  1.1735  0.2891  0.1611
  796MOL0     H 5066   6.334   4.827   2.275  1.6139  0.2625 -1.0088
  796MOL0     H 5067   6.395   4.807   2.109 -1.8883 -0.5595 -0.2927
  796MOL0     H 5068   6.414   5.058   2.111  0.6898 -0.6518  1.3213
  796MOL0     H 5069   6.262   4.977   2.074  0.1539  4.7239 -1.6812
  796MOL0     H 5070   6.171   5.130   2.460  3.9614 -0.5177  0.5652
  796MOL0     H 5071   6.542   4.636   2.396 -0.9618  1.8619  3.1311
  796MOL0     H 5072   6.634   4.395   2.418  4.7576 -3.4148 -1.2429
  797MOL0     O 5073   6.894   8.883   6.824  0.8229  0.3276  0.1789
  797MOL0     C 5074   6.950   8.973   6.881  0.5443  0.6527 -1.0680
  797MOL0     O 5075   6.981   8.980   7.018 -0.2228 -0.5195  0.0097
  797MOL0     C 5076   6.907   8.912   7.104 -0.6110 -0.6158 -1.1798
  797MOL0     C 5077   6.768   8.875   7.088  0.4510  0.5248  0.1528
  797MOL0     C 5078   6.699   8.810   7.195 -0.5543  0.7628 -0.0588
  797MOL0     C 5079   6.763   8.766   7.307  0.3631  0.2244 -0.5263
  797MOL0     O 5080   6.711   8.689   7.402 -0.2748 -0.2786 -0.4398
  797MOL0     C 5081   6.572   8.657   7.403  0.4075  0.3572 -0.6680
  797MOL0     C 5082   6.527   8.578   7.519  0.5850 -0.0343 -0.2066
  797MOL0     C 5083   6.584   8.430   7.525 -0.1012  1.4113  0.3611
  797MOL0     C 5084   6.558   8.364   7.658  0.7338 -0.0963 -0.6965
  797MOL0     C 5085   6.630   8.226   7.662 -0.2450  0.5655 -0.3117
  797MOL0     C 5086   6.783   8.227   7.669 -0.0352 -0.3305  0.0774
  797MOL0     C 5087   6.847   8.278   7.803  0.3320  0.5979 -0.6012
  797MOL0     C 5088   6.996   8.235   7.780 -0.7413 -0.7429  0.2772
  797MOL0     N 5089   7.062   8.221   7.909 -0.6004  0.0465 -0.2913
  797MOL0     C 5090   7.054   8.119   7.994 -0.1955  0.2074  0.0804
  797MOL0     C 5091   7.161   8.131   8.090 -0.6631 -1.1657 -0.2751
  797MOL0     C 5092   7.201   8.062   8.211 -0.6048 -0.2467  0.0712
  797MOL0     C 5093   7.083   8.036   8.310 -0.8409  0.3508  0.3234
  797MOL0     C 5094   7.044   8.166   8.389 -0.0968  0.5635  0.2053
  797MOL0     C 5095   6.923   8.170   8.487 -1.0767 -0.2794  0.7058
  797MOL0     O 5096   6.829   8.089   8.417 -0.6077 -0.7740  0.1809
  797MOL0     C 5097   6.744   8.132   8.321  0.0211 -0.9373  0.7455
  797MOL0     C 5098   6.625   8.061   8.304 -0.2440 -0.2870 -0.3310
  797MOL0     C 5099   6.525   8.090   8.220  0.2866  0.6365 -0.3287
  797MOL0     C 5100   6.536   8.203   8.133 -0.0742 -0.3181  0.5011
  797MOL0     C 5101   6.423   8.236   8.035 -0.3568 -0.1805  0.2279
  797MOL0     O 5102   6.308   8.154   8.050  0.2052 -0.5507  0.5261
  797MOL0     C 5103   6.217   8.180   7.950 -0.4745  0.2847  0.8214
  797MOL0     C 5104   6.238   8.118   7.823 -0.5521  0.0764 -0.3200
  797MOL0     C 5105   6.148   8.144   7.715 -0.3929  0.3042 -0.1430
  797MOL0     C 5106   6.033   8.211   7.749 -1.5087 -0.4212  0.9371
  797MOL0     O 5107   5.953   8.255   7.646  0.3526 -0.4607 -0.5226
  797MOL0     C 5108   5.991   8.394   7.609  0.5369 -0.1213  1.0507
  797MOL0     C 5109   5.879   8.451   7.507  0.0401 -0.6598  1.1267
  797MOL0     C 5110   5.750   8.485   7.576 -0.1103  0.3989 -1.2007
  797MOL0     C 5111   5.761   8.595   7.680  0.5992  0.4199  0.3556
  797MOL0     C 5112   5.634   8.596   7.764 -0.0069  0.7322 -0.0208
  797MOL0     C 5113   5.634   8.713   7.859 -0.7104 -0.0674 -0.3545
  797MOL0     C 5114   5.538   8.699   7.969  1.2311 -1.4886  0.2803
  797MOL0     C 5115   5.474   8.839   7.992 -0.0102  0.1525  0.7405
  797MOL0    Cl 5116   5.374   8.831   8.134 -0.5744  0.5358  0.2496
  797MOL0     C 5117   6.004   8.264   7.873 -0.2469 -0.4019 -0.5048
  797MOL0     C 5118   6.100   8.232   7.972  0.4510  0.2622 -0.5032
  797MOL0     O 5119   6.440   8.321   7.951 -0.0379 -0.0734  0.4415
  797MOL0     C 5120   6.653   8.276   8.144  0.7358  0.2706  0.4189
  797MOL0     C 5121   6.753   8.241   8.238 -0.1587 -0.0630  0.2497
  797MOL0     N 5122   7.221   8.250   8.067  0.8837 -0.7848  0.2582
  797MOL0     N 5123   7.169   8.304   7.954 -0.1348  0.3863 -0.3659
  797MOL0     C 5124   6.897   8.803   7.318 -0.2942  0.4172  0.0134
  797MOL0     C 5125   6.969   8.884   7.227 -0.9977 -0.8505 -0.0692
  797MOL0     C 5126   7.013   9.078   6.793 -0.6376 -0.2422 -0.7955
  797MOL0     C 5127   7.025   9.059   6.652 -1.0811 -1.1606 -0.0435
  797MOL0     C 5128   7.079   9.150   6.569 -0.1719  0.5741 -0.2135
  797MOL0     C 5129   7.132   9.272   6.615  0.0048 -0.3262  0.0542
  797MOL0     O 5130   7.183   9.372   6.532 -0.4241  0.6262 -0.2036
  797MOL0     C 5131   7.291   9.324   6.439 -0.5530 -0.4308 -1.4349
  797MOL0     C 5132   7.426   9.332   6.507  0.3148 -0.4317  0.5328
  797MOL0     C 5133   7.475   9.480   6.542  0.3780  0.0258 -0.2129
  797MOL0     C 5134   7.630   9.467   6.574  1.3678  0.2877  0.3652
  797MOL0     C 5135   7.705   9.584   6.537 -0.6080  0.1405  0.0553
  797MOL0     C 5136   7.774   9.682   6.498 -0.0267  0.4855  0.6738
  797MOL0     C 5137   7.116   9.298   6.755  0.7391 -0.1366  0.3056
  797MOL0     C 5138   7.068   9.197   6.847 -0.0551  0.1207 -0.1276
  797MOL0     H 5139   6.712   8.911   7.002  0.2328  1.5151  0.6979
  797MOL0     H 5140   6.593   8.788   7.184 -1.2040  2.2830  2.3273
  797MOL0     H 5141   6.523   8.603   7.321 -2.2862 -0.0640  1.1009
  797MOL0     H 5142   6.529   8.758   7.405  2.0101  1.0793 -1.0563
  797MOL0     H 5143   6.418   8.566   7.523  0.6819 -4.8432 -3.2882
  797MOL0     H 5144   6.556   8.636   7.607 -0.3244 -2.2850  1.7293
  797MOL0     H 5145   6.691   8.448   7.505  0.2080 -0.8965 -0.2753
  797MOL0     H 5146   6.541   8.370   7.445 -0.3413  3.4169 -1.1079
  797MOL0     H 5147   6.608   8.422   7.736  4.0206 -2.3305 -0.9646
  797MOL0     H 5148   6.449   8.352   7.662  0.7281 -1.2469 -2.8339
  797MOL0     H 5149   6.593   8.173   7.574 -7.3136  3.5278  0.1822
  797MOL0     H 5150   6.601   8.171   7.752  1.1612 -0.8509 -0.6853
  797MOL0     H 5151   6.817   8.288   7.585  0.3255 -0.1896  0.3242
  797MOL0     H 5152   6.825   8.127   7.651  0.3463 -0.4332  1.4414
  797MOL0     H 5153   6.844   8.387   7.808 -2.0932  0.5729 -0.5489
  797MOL0     H 5154   6.804   8.241   7.896 -0.1989 -1.0626 -1.4736
  797MOL0     H 5155   7.038   8.320   7.726 -0.5623 -0.1697  1.3016
  797MOL0     H 5156   7.002   8.151   7.710  1.1554  0.0584 -0.5889
  797MOL0     H 5157   6.975   8.045   7.994 -0.3492  0.3476 -1.5771
  797MOL0     H 5158   7.279   8.126   8.254  1.5032 -1.6395 -1.4861
  797MOL0     H 5159   7.246   7.966   8.183 -1.1323 -0.2844 -0.6765
  797MOL0     H 5160   7.098   7.959   8.386 -3.4909  0.9022  1.5338
  797MOL0     H 5161   7.002   8.006   8.243  0.1359 -1.5056 -0.0995
  797MOL0     H 5162   7.132   8.187   8.451  1.2948 -2.7685 -0.4144
  797MOL0     H 5163   7.037   8.250   8.319  1.4310 -0.1502 -0.8619
  797MOL0     H 5164   6.879   8.269   8.501  1.2157  1.5419 -3.3089
  797MOL0     H 5165   6.954   8.115   8.577 -2.8565  0.6179  1.9325
  797MOL0     H 5166   6.608   7.972   8.364 -0.5713  0.1865  0.2776
  797MOL0     H 5167   6.429   8.038   8.220 -0.7202  2.4159 -1.5115
  797MOL0     H 5168   6.324   8.058   7.794 -1.6253 -2.4336  1.3546
  797MOL0     H 5169   6.179   8.109   7.617 -0.2384  0.5912 -0.1978
  797MOL0     H 5170   6.085   8.388   7.554 -0.3602  0.2972 -0.5884
  797MOL0     H 5171   6.023   8.452   7.696  2.4538  3.1394 -1.5747
  797MOL0     H 5172   5.866   8.379   7.426  1.3869 -0.8435  1.0528
  797MOL0     H 5173   5.916   8.543   7.461 -0.8595 -0.9395 -0.2276
  797MOL0     H 5174   5.713   8.399   7.633 -1.7420 -0.1550 -2.9487
  797MOL0     H 5175   5.673   8.507   7.501  0.2756 -0.4615 -1.8605
  797MOL0     H 5176   5.850   8.578   7.742  0.1688  0.2867  0.9438
  797MOL0     H 5177   5.779   8.682   7.615 -0.5707  0.3707 -0.0463
  797MOL0     H 5178   5.636   8.499   7.815 -1.1835 -0.1495 -1.5491
  797MOL0     H 5179   5.545   8.597   7.701  0.0418  3.1330 -0.1435
  797MOL0     H 5180   5.614   8.798   7.793  0.7695  0.2875 -0.3846
  797MOL0     H 5181   5.738   8.719   7.891 -1.0468  1.8612  0.4722
  797MOL0     H 5182   5.459   8.629   7.939  2.5888 -2.6922 -0.6474
  797MOL0     H 5183   5.596   8.668   8.056  0.2570 -0.3346  1.3732
  797MOL0     H 5184   5.423   8.878   7.903  0.5372  4.6094  2.1714
  797MOL0     H 5185   5.555   8.911   8.002  0.6678 -0.4992  0.1397
  797MOL0     H 5186   5.914   8.323   7.888 -0.0640 -0.1644 -0.3319
  797MOL0     H 5187   6.074   8.257   8.075 -4.1713 -1.6471 -0.9383
  797MOL0     H 5188   6.657   8.374   8.097 -0.2511  0.5384  0.8832
  797MOL0     H 5189   6.838   8.307   8.246  0.9961 -1.3626 -0.8193
  797MOL0     H 5190   6.946   8.768   7.408  1.8076  0.1744 -1.1653
  797MOL0     H 5191   7.066   8.927   7.251 -1.5816  1.6522 -1.8180
  797MOL0     H 5192   6.991   8.972   6.597  0.3220  0.1794 -3.3134
  797MOL0     H 5193   7.098   9.128   6.465  1.1997  1.5169 -0.1935
  797MOL0     H 5194   7.289   9.388   6.351  0.6953  0.5773 -0.7756
  797MOL0     H 5195   7.271   9.220   6.413  0.7098 -0.8522 -0.7961
  797MOL0     H 5196   7.438   9.273   6.598 -1.5430 -2.3681 -0.3962
  797MOL0     H 5197   7.498   9.287   6.437 -0.1754  0.3099 -0.4861
  797MOL0     H 5198   7.426   9.499   6.637  1.8683  0.1177  0.5692
  797MOL0     H 5199   7.452   9.553   6.464 -1.0080 -0.8388 -0.6501
  797MOL0     H 5200   7.632   9.457   6.682  0.2867  1.3260  0.5016
  797MOL0     H 5201   7.683   9.381   6.532  1.1716 -0.4811  1.6429
  797MOL0     H 5202   7.824   9.768   6.460 -0.3979 -1.1352 -4.2129
  797MOL0     H 5203   7.157   9.390   6.795  1.9977 -0.1940 -0.7992
  797MOL0     H 5204   7.047   9.219   6.951 -1.9944  0.4421 -0.5411
  798MOL0     O 5205  11.016  11.064  10.856 -0.1576  0.4023 -0.4290
  798MOL0     C 5206  11.138  11.088  10.862  0.2560  0.1349 -0.5702
  798MOL0     O 5207  11.221  11.012  10.923 -0.0713 -0.1453  0.0744
  798MOL0     C 5208  11.173  10.920  11.017 -1.1913 -0.4786 -0.6351
  798MOL0     C 5209  11.257  10.798  11.027  0.7983  0.4537 -1.1288
  798MOL0     C 5210  11.237  10.711  11.139 -1.0916  0.0571  0.6068
  798MOL0     C 5211  11.150  10.745  11.239 -0.8730  0.1616 -0.6004
  798MOL0     O 5212  11.143  10.657  11.346  0.0777 -0.6310  0.4377
  798MOL0     C 5213  11.029  10.661  11.425 -0.2184  0.4128  0.1340
  798MOL0     C 5214  11.005  10.548  11.521  0.2897  0.4212 -0.5967
  798MOL0     C 5215  10.980  10.421  11.438 -0.2100  0.3674 -0.7534
  798MOL0     C 5216  11.019  10.296  11.526  0.3439 -0.4422  0.0134
  798MOL0     C 5217  10.974  10.164  11.458  0.4173  0.5981 -0.7649
  798MOL0     C 5218  10.996  10.053  11.564 -0.0733 -0.9048  0.1257
  798MOL0     C 5219  10.949   9.920  11.495  0.4322  0.1104  0.2369
  798MOL0     C 5220  10.796   9.918  11.448 -1.1519 -0.4935 -0.5386
  798MOL0     N 5221  10.766   9.785  11.402  0.1688  0.1480  0.6992
  798MOL0     C 5222  10.839   9.708  11.312  0.6153  0.5593  0.1224
  798MOL0     C 5223  10.788   9.585  11.312 -0.0163 -0.1901  0.8618
  798MOL0     C 5224  10.807   9.469  11.226  0.0434 -0.7954  0.9995
  798MOL0     C 5225  10.710   9.460  11.110  1.0243 -0.2392  0.5590
  798MOL0     C 5226  10.750   9.347  11.004  0.2489 -0.1050  0.3055
  798MOL0     C 5227  10.772   9.211  11.066 -0.5197 -1.4029  0.4268
  798MOL0     O 5228  10.755   9.097  10.984 -0.2860 -0.2743  0.2012
  798MOL0     C 5229  10.627   9.063  10.965 -0.1703 -0.3880  0.6674
  798MOL0     C 5230  10.612   8.948  10.878 -0.8690  0.2296 -0.0619
  798MOL0     C 5231  10.485   8.906  10.838 -0.0669 -0.2088 -0.2653
  798MOL0     C 5232  10.371   8.965  10.893  0.5681  0.8962  0.0152
  798MOL0     C 5233  10.230   8.923  10.844  0.5032 -0.7713  0.3400
  798MOL0     O 5234  10.222   8.827  10.755  0.9517  1.0304 -0.2239
  798MOL0     C 5235  10.088   8.808  10.684 -0.4855  0.1636 -1.2082
  798MOL0     C 5236  10.018   8.914  10.628  0.1389 -0.6558  0.9348
  798MOL0     C 5237   9.890   8.890  10.561 -0.0319  0.4423  0.8863
  798MOL0     C 5238   9.851   8.755  10.536  0.1180 -0.0308 -0.9188
  798MOL0     O 5239   9.729   8.741  10.478 -0.1230  0.6276  0.0055
  798MOL0     C 5240   9.635   8.644  10.529  0.4166 -0.8165  0.4976
  798MOL0     C 5241   9.505   8.685  10.465  0.7679 -0.3968 -0.5157
  798MOL0     C 5242   9.400   8.601  10.531  0.2817 -0.0437  0.0188
  798MOL0     C 5243   9.260   8.629  10.464 -0.1504 -0.2325  0.3242
  798MOL0     C 5244   9.157   8.511  10.473  0.3557  0.6723  0.0098
  798MOL0     C 5245   9.028   8.540  10.393 -0.0749 -0.0108  0.3018
  798MOL0     C 5246   8.919   8.433  10.408  0.7073 -0.2613  0.7498
  798MOL0     C 5247   8.945   8.317  10.311 -0.2195 -0.2538 -0.0333
  798MOL0    Cl 5248   8.802   8.207  10.321 -0.0632 -0.5555  0.2490
  798MOL0     C 5249   9.932   8.648  10.580  0.5683  1.4879  0.1902
  798MOL0     C 5250  10.053   8.678  10.650 -0.6230 -1.1981  0.7234
  798MOL0     O 5251  10.131   8.990  10.883  0.0959 -0.1633  0.2837
  798MOL0     C 5252  10.381   9.074  10.981 -1.0169  0.9408  0.3527
  798MOL0     C 5253  10.512   9.125  11.016  0.4076  0.4319 -0.3245
  798MOL0     N 5254  10.685   9.582  11.403  0.5761 -0.3070  0.3465
  798MOL0     N 5255  10.673   9.696  11.450 -0.2376 -0.1076  0.6748
  798MOL0     C 5256  11.069  10.861  11.235  0.8381  0.4297  0.3927
  798MOL0     C 5257  11.073  10.945  11.118 -0.4956 -0.6587 -0.4932
  798MOL0     C 5258  11.180  11.203  10.786 -0.2100 -0.1629  0.1292
  798MOL0     C 5259  11.086  11.285  10.710  0.3360 -0.4156  0.9932
  798MOL0     C 5260  11.124  11.398  10.637  1.0151  1.1457 -0.8207
  798MOL0     C 5261  11.262  11.432  10.628 -0.2054  0.5949  0.6884
  798MOL0     O 5262  11.324  11.521  10.557  0.1714  0.2193  0.1202
  798MOL0     C 5263  11.260  11.553  10.440 -0.7242 -1.2246  0.1223
  798MOL0     C 5264  11.353  11.615  10.335  0.8843 -0.3571  0.0188
  798MOL0     C 5265  11.502  11.607  10.370 -0.1738 -0.3398  0.6713
  798MOL0     C 5266  11.570  11.467  10.390  1.2144  0.1483  1.2081
  798MOL0     C 5267  11.566  11.387  10.269  0.9617  0.1388  0.8989
  798MOL0     C 5268  11.561  11.315  10.170  1.0087  0.3940  0.1127
  798MOL0     C 5269  11.352  11.350  10.704 -0.0200 -0.4827 -0.1835
  798MOL0     C 5270  11.313  11.242  10.783 -0.7991 -0.0655 -0.1645
  798MOL0     H 5271  11.326  10.774  10.947  0.5300 -3.8164 -0.2964
  798MOL0     H 5272  11.286  10.614  11.134  1.9903  1.4802  0.6567
  798MOL0     H 5273  10.946  10.672  11.355  0.9609 -0.1029 -1.3994
  798MOL0     H 5274  11.023  10.747  11.492 -1.4755  0.2114  0.3047
  798MOL0     H 5275  10.913  10.574  11.574  0.4390  1.2169 -0.7204
  798MOL0     H 5276  11.089  10.545  11.591 -0.6939 -0.2144  0.5916
  798MOL0     H 5277  11.052  10.424  11.356  0.7293  0.1786  0.0396
  798MOL0     H 5278  10.873  10.402  11.421 -0.2060 -1.1649  0.6320
  798MOL0     H 5279  11.129  10.298  11.522  0.4123 -2.3355  0.2884
  798MOL0     H 5280  10.978  10.316  11.625  1.5122  0.8117  0.2738
  798MOL0     H 5281  11.036  10.129  11.376  1.7827 -1.8451  1.1672
  798MOL0     H 5282  10.870  10.179  11.428 -0.0452  1.4735  1.0831
  798MOL0     H 5283  10.939  10.079  11.653 -0.8307  2.5081 -1.2055
  798MOL0     H 5284  11.101  10.032  11.586 -0.4616 -0.7629  2.3199
  798MOL0     H 5285  11.008   9.886  11.410 -0.8136 -7.0094  1.5259
  798MOL0     H 5286  10.964   9.845  11.573 -1.7208 -0.7672 -0.1012
  798MOL0     H 5287  10.783   9.983  11.361 -1.5587  1.6505  1.0556
  798MOL0     H 5288  10.729   9.949  11.528 -2.6080 -1.9453 -1.1186
  798MOL0     H 5289  10.919   9.752  11.253 -0.2404  1.5503 -0.3294
  798MOL0     H 5290  10.808   9.380  11.289 -1.1433  0.4534  2.8545
  798MOL0     H 5291  10.906   9.480  11.180 -1.3040  1.6576 -1.6891
  798MOL0     H 5292  10.715   9.547  11.043 -0.0670 -0.2615  0.4349
  798MOL0     H 5293  10.605   9.440  11.133  1.4947 -2.5659  0.9182
  798MOL0     H 5294  10.669   9.345  10.931  0.5605  1.0924 -0.1097
  798MOL0     H 5295  10.837   9.378  10.946  0.3471 -3.6358 -1.6981
  798MOL0     H 5296  10.718   9.203  11.162 -4.5425  2.0473 -1.2124
  798MOL0     H 5297  10.879   9.207  11.086 -0.1746  0.0716 -0.9397
  798MOL0     H 5298  10.703   8.897  10.850 -1.0434  0.0419 -0.2952
  798MOL0     H 5299  10.466   8.819  10.776 -5.2377  1.6272 -1.7729
  798MOL0     H 5300  10.046   9.017  10.642 -0.1906 -0.4154 -0.1019
  798MOL0     H 5301   9.824   8.972  10.534 -4.3265 -2.6916  0.8407
  798MOL0     H 5302   9.619   8.655  10.637 -3.8556  0.6862 -0.0939
  798MOL0     H 5303   9.670   8.541  10.519  1.0011 -0.4291 -1.9504
  798MOL0     H 5304   9.512   8.663  10.358 -1.9673  0.3452 -0.9164
  798MOL0     H 5305   9.473   8.789  10.471 -2.6488 -1.2484 -1.5810
  798MOL0     H 5306   9.396   8.620  10.639 -1.8207  0.0757 -0.0326
  798MOL0     H 5307   9.424   8.495  10.523  0.9336 -0.2281  3.1241
  798MOL0     H 5308   9.215   8.709  10.523 -2.7132 -2.0869  1.0565
  798MOL0     H 5309   9.272   8.666  10.362 -1.8411 -1.3495 -0.3261
  798MOL0     H 5310   9.121   8.502  10.576 -1.9055  1.7925 -0.6123
  798MOL0     H 5311   9.202   8.418  10.436  0.7948  0.7523  0.3494
  798MOL0     H 5312   9.062   8.557  10.291 -1.8152 -1.5417 -0.6040
  798MOL0     H 5313   8.998   8.641  10.421  1.8775  1.7606 -3.3358
  798MOL0     H 5314   8.893   8.392  10.505 -2.5891  2.1402  1.0581
  798MOL0     H 5315   8.834   8.495  10.375  1.5133  0.8012  0.6023
  798MOL0     H 5316   9.037   8.265  10.337 -0.3622 -1.7016 -2.1398
  798MOL0     H 5317   8.950   8.360  10.210  1.2456  1.4090  0.6878
  798MOL0     H 5318   9.912   8.542  10.572 -0.9284  1.8483 -1.3123
  798MOL0     H 5319  10.127   8.603  10.676  2.9076  2.1728  1.3608
  798MOL0     H 5320  10.294   9.127  11.017 -0.5353  1.4710  0.7500
  798MOL0     H 5321  10.529   9.201  11.092  2.4041 -1.3181  1.1343
  798MOL0     H 5322  10.990  10.880  11.307  1.8895 -0.5858  1.8864
  798MOL0     H 5323  10.996  11.018  11.092 -1.6131 -1.4429  0.5240
  798MOL0     H 5324  10.980  11.264  10.702  0.0290  1.7174 -2.0462
  798MOL0     H 5325  11.036  11.439  10.588 -1.3733 -0.3898  1.8852
  798MOL0     H 5326  11.190  11.630  10.473 -0.4775 -1.1868  0.5666
  798MOL0     H 5327  11.216  11.468  10.388  2.6493 -1.6664 -2.3167
  798MOL0     H 5328  11.325  11.573  10.238 -2.0417 -2.4300  1.5846
  798MOL0     H 5329  11.317  11.718  10.338  0.0755 -0.6380  0.3034
  798MOL0     H 5330  11.513  11.648  10.471  1.4844 -1.3121  0.9285
  798MOL0     H 5331  11.559  11.660  10.293  1.1527 -0.1654  1.7361
  798MOL0     H 5332  11.674  11.489  10.417  0.9778  1.5961  1.0355
  798MOL0     H 5333  11.523  11.408  10.469 -1.6616 -0.9716 -1.1529
  798MOL0     H 5334  11.569  11.242  10.092 -3.8034 -1.0605  0.6574
  798MOL0     H 5335  11.456  11.381  10.701 -0.0651 -0.0415  1.4579
  798MOL0     H 5336  11.386  11.199  10.851  1.5304  0.2954 -2.2753
  799MOL0     O 5337   1.220   1.386   2.255 -0.3906  1.0440  0.0938
  799MOL0     C 5338   1.308   1.395   2.346  0.5814  0.4690 -0.5539
  799MOL0     O 5339   1.303   1.332   2.462 -0.6626 -0.0405  0.2099
  799MOL0     C 5340   1.206   1.242   2.473 -0.5938  0.8868 -0.0292
  799MOL0     C 5341   1.225   1.120   2.406  0.0576 -0.7619  0.6074
  799MOL0     C 5342   1.144   1.008   2.439  1.3038 -0.0190 -0.4078
  799MOL0     C 5343   1.031   1.026   2.524  0.0780 -0.1979  0.9093
  799MOL0     O 5344   0.946   0.925   2.551  0.4759  0.1100  0.0467
  799MOL0     C 5345   0.814   0.947   2.610 -0.3138 -0.1568  0.1829
  799MOL0     C 5346   0.706   0.964   2.505  0.2943 -0.2823 -0.1223
  799MOL0     C 5347   0.576   1.008   2.571 -0.1292 -0.8672  0.2044
  799MOL0     C 5348   0.506   0.909   2.655 -0.4602 -0.5109  0.1345
  799MOL0     C 5349   0.357   0.940   2.655 -0.1196 -0.6150 -0.0449
  799MOL0     C 5350   0.306   1.069   2.721 -0.1975 -0.2922 -0.2971
  799MOL0     C 5351   0.300   1.055   2.877  0.1571  0.4246  0.2178
  799MOL0     C 5352   0.303   1.191   2.942  0.0611 -0.3955 -0.3628
  799MOL0     N 5353   0.164   1.247   2.921 -0.0382  0.2140 -0.2343
  799MOL0     C 5354   0.126   1.342   2.827 -0.6297  0.1167 -0.6793
  799MOL0     C 5355   0.014   1.387   2.870  0.1552 -0.2141 -0.0318
  799MOL0     C 5356  -0.061   1.498   2.797  0.5052  1.7069  0.6025
  799MOL0     C 5357  -0.202   1.455   2.761 -0.3537  0.8067 -0.2923
  799MOL0     C 5358  -0.292   1.568   2.732  0.7084 -0.3858  0.9341
  799MOL0     C 5359  -0.242   1.655   2.611  0.4543 -0.0268 -0.3608
  799MOL0     O 5360  -0.338   1.763   2.584 -0.4129 -0.6416  0.3515
  799MOL0     C 5361  -0.473   1.727   2.551 -0.3775 -0.4260 -0.1308
  799MOL0     C 5362  -0.504   1.652   2.441 -0.8137 -0.1822 -0.2133
  799MOL0     C 5363  -0.635   1.614   2.402  0.6206 -1.2504 -0.0861
  799MOL0     C 5364  -0.743   1.660   2.484  0.3631 -0.3801  0.2851
  799MOL0     C 5365  -0.885   1.634   2.444  0.1791  0.3394  0.1323
  799MOL0     O 5366  -0.911   1.564   2.332 -0.5179  0.2267  0.0181
  799MOL0     C 5367  -1.040   1.564   2.290 -0.4326  1.4252 -0.1010
  799MOL0     C 5368  -1.149   1.499   2.345 -0.4569  0.4786  0.4532
  799MOL0     C 5369  -1.274   1.502   2.281 -1.1756  0.5791 -0.7774
  799MOL0     C 5370  -1.288   1.584   2.166  0.2440  0.7505 -0.7383
  799MOL0     O 5371  -1.409   1.607   2.110  0.2792 -0.0275 -0.0304
  799MOL0     C 5372  -1.511   1.504   2.134 -0.4238  0.2276  0.1434
  799MOL0     C 5373  -1.628   1.540   2.035 -1.0715  0.1061 -0.5251
  799MOL0     C 5374  -1.741   1.430   2.049 -0.8737 -0.8672  0.5834
  799MOL0     C 5375  -1.865   1.475   1.978 -0.4953  0.4878  0.7140
  799MOL0     C 5376  -1.987   1.391   2.013 -0.4065 -0.2028 -1.1695
  799MOL0     C 5377  -1.966   1.245   1.976  0.4134 -0.0853  0.1337
  799MOL0     C 5378  -2.092   1.165   2.003 -0.7824  0.0321  0.2163
  799MOL0     C 5379  -2.102   1.039   1.913  0.5425  0.1786  0.1354
  799MOL0    Cl 5380  -1.972   0.914   1.950  0.2982 -0.0134 -0.2711
  799MOL0     C 5381  -1.184   1.658   2.114 -0.0583  0.6987 -0.9355
  799MOL0     C 5382  -1.066   1.640   2.172 -0.3806 -0.7118  0.1021
  799MOL0     O 5383  -0.971   1.696   2.506 -0.4681 -0.0992  0.9736
  799MOL0     C 5384  -0.706   1.735   2.601 -0.3320 -0.7153  0.1325
  799MOL0     C 5385  -0.572   1.762   2.643  0.5351  0.1503  1.1492
  799MOL0     N 5386  -0.018   1.317   2.990 -0.0884 -0.4552 -0.4013
  799MOL0     N 5387   0.077   1.239   3.026 -0.2720 -0.4165 -0.2656
  799MOL0     C 5388   1.014   1.153   2.589  0.2186  1.4530 -0.5050
  799MOL0     C 5389   1.099   1.260   2.561 -0.4789 -0.1194 -0.0376
  799MOL0     C 5390   1.417   1.488   2.315  0.2711 -0.0595  0.2761
  799MOL0     C 5391   1.547   1.476   2.387  0.9342  0.3050  0.0399
  799MOL0     C 5392   1.654   1.559   2.355  0.3583 -0.3280  0.2933
  799MOL0     C 5393   1.648   1.642   2.246 -0.5177 -0.7642  0.1900
  799MOL0     O 5394   1.755   1.716   2.219 -0.4880 -0.2617 -0.3548
  799MOL0     C 5395   1.801   1.723   2.083 -0.4424 -0.2642  0.0846
  799MOL0     C 5396   1.881   1.856   2.077 -0.0180  0.7690 -0.0065
  799MOL0     C 5397   1.948   1.890   1.941 -0.4265 -0.4348  0.1566
  799MOL0     C 5398   2.020   2.034   1.929 -0.3710 -0.3127 -0.3684
  799MOL0     C 5399   2.126   2.053   2.029  0.2882 -0.2448 -0.2957
  799MOL0     C 5400   2.222   2.060   2.101 -0.5380 -0.0142 -0.1597
  799MOL0     C 5401   1.534   1.663   2.182 -0.0573  0.2123  0.3638
  799MOL0     C 5402   1.416   1.589   2.216  0.7975 -0.5641  1.0085
  799MOL0     H 5403   1.296   1.099   2.327  0.5475  0.7099  0.6268
  799MOL0     H 5404   1.148   0.910   2.393  0.4930 -0.1234 -0.2776
  799MOL0     H 5405   0.818   1.018   2.693  3.5028  0.9633 -0.7610
  799MOL0     H 5406   0.802   0.855   2.667 -0.3194  1.0350  2.1804
  799MOL0     H 5407   0.680   0.874   2.448 -1.7239  0.1546  0.0495
  799MOL0     H 5408   0.738   1.037   2.430 -6.4040 -0.1879 -3.6743
  799MOL0     H 5409   0.524   1.036   2.479  1.2081 -3.3125 -1.4139
  799MOL0     H 5410   0.591   1.104   2.622  2.4693 -0.6833 -0.7547
  799MOL0     H 5411   0.524   0.809   2.614  3.5816 -0.2461  0.8808
  799MOL0     H 5412   0.548   0.908   2.756  1.4198 -0.0336 -0.5946
  799MOL0     H 5413   0.305   0.856   2.703  1.5076 -0.6731  1.7431
  799MOL0     H 5414   0.325   0.945   2.551 -0.7576  0.6359  0.2011
  799MOL0     H 5415   0.204   1.082   2.682  0.6805 -1.7505 -3.4079
  799MOL0     H 5416   0.369   1.153   2.688  1.3133 -1.2381  0.0946
  799MOL0     H 5417   0.210   1.003   2.911  2.4881 -3.9399  0.5345
  799MOL0     H 5418   0.380   0.995   2.922  1.6512  1.5387 -0.8774
  799MOL0     H 5419   0.370   1.263   2.892 -1.7609  1.1882 -0.6435
  799MOL0     H 5420   0.325   1.189   3.049 -3.8497  1.7854  0.6826
  799MOL0     H 5421   0.190   1.381   2.748  0.9616  2.2052  1.5370
  799MOL0     H 5422  -0.015   1.522   2.701 -1.3866 -1.0100 -1.1316
  799MOL0     H 5423  -0.068   1.583   2.865 -0.4326  0.0086  2.7727
  799MOL0     H 5424  -0.242   1.398   2.847 -0.5000 -3.6996 -3.0227
  799MOL0     H 5425  -0.184   1.378   2.685  1.2114  1.6544 -0.8205
  799MOL0     H 5426  -0.387   1.517   2.711  2.6620 -4.3282  0.6468
  799MOL0     H 5427  -0.305   1.635   2.818 -0.1026 -1.3227  1.5754
  799MOL0     H 5428  -0.241   1.587   2.525 -1.4390 -2.8433  1.6128
  799MOL0     H 5429  -0.142   1.697   2.619 -0.2896  3.7267 -5.5098
  799MOL0     H 5430  -0.419   1.618   2.383  0.6705  0.1331  1.6567
  799MOL0     H 5431  -0.640   1.556   2.310 -1.4955 -0.4177 -0.5325
  799MOL0     H 5432  -1.110   1.435   2.424 -0.4250 -2.0811 -1.5121
  799MOL0     H 5433  -1.357   1.444   2.320 -0.2054 -1.8040 -2.0549
  799MOL0     H 5434  -1.550   1.509   2.237 -1.4205  2.4454 -0.2712
  799MOL0     H 5435  -1.476   1.408   2.097 -1.6344  0.2375 -1.0890
  799MOL0     H 5436  -1.605   1.543   1.928  0.9152 -0.7404 -0.1685
  799MOL0     H 5437  -1.676   1.632   2.069 -0.2837 -0.0266  1.0091
  799MOL0     H 5438  -1.771   1.398   2.149 -0.0512  1.6889  1.7224
  799MOL0     H 5439  -1.698   1.340   2.003 -0.4294 -2.2545  3.4882
  799MOL0     H 5440  -1.877   1.580   2.006  2.4559  0.4398  2.6146
  799MOL0     H 5441  -1.847   1.472   1.870 -1.3066  1.5349  0.5323
  799MOL0     H 5442  -2.070   1.437   1.958 -0.1967  2.7438  0.7269
  799MOL0     H 5443  -2.009   1.407   2.119 -0.2967  1.3514 -1.3527
  799MOL0     H 5444  -1.883   1.198   2.030  0.0194 -1.7645 -0.6698
  799MOL0     H 5445  -1.936   1.242   1.870  2.7631 -1.1865  0.7685
  799MOL0     H 5446  -2.101   1.138   2.109  2.5113  1.9322  1.1281
  799MOL0     H 5447  -2.178   1.223   1.968  0.5479  2.5786  0.9124
  799MOL0     H 5448  -2.107   1.056   1.805 -4.6239 -1.4716 -0.1454
  799MOL0     H 5449  -2.197   0.991   1.939  0.7802  0.3513  1.4181
  799MOL0     H 5450  -1.205   1.737   2.041 -0.0105  2.3140  0.7315
  799MOL0     H 5451  -0.980   1.691   2.131  0.2476  0.1263  2.3107
  799MOL0     H 5452  -0.786   1.767   2.667  1.2347 -0.0386  1.7872
  799MOL0     H 5453  -0.542   1.788   2.744 -1.7079 -1.9583  2.4748
  799MOL0     H 5454   0.930   1.185   2.650 -0.8284  1.1695 -1.7654
  799MOL0     H 5455   1.083   1.356   2.609  2.9426  1.1825 -1.2038
  799MOL0     H 5456   1.565   1.409   2.469 -0.6898 -0.1716  0.0402
  799MOL0     H 5457   1.738   1.570   2.422  2.3575 -0.9695 -1.9901
  799MOL0     H 5458   1.736   1.700   1.998 -0.5309 -1.3572  0.4333
  799MOL0     H 5459   1.878   1.645   2.083 -0.8062 -0.6277 -0.5944
  799MOL0     H 5460   1.818   1.942   2.100  1.8678  1.4804  3.0348
  799MOL0     H 5461   1.965   1.858   2.147  0.9221  2.8584 -1.1229
  799MOL0     H 5462   1.880   1.886   1.856 -0.1996  0.5942 -0.0798
  799MOL0     H 5463   2.030   1.823   1.913  0.0488  1.2105 -2.8008
  799MOL0     H 5464   2.053   2.038   1.825 -0.9741 -1.3589 -0.6273
  799MOL0     H 5465   1.940   2.106   1.949 -0.0793  0.3596 -1.5179
  799MOL0     H 5466   2.312   2.062   2.159 -0.1736 -2.3573 -0.5281
  799MOL0     H 5467   1.530   1.744   2.109  2.4770  0.1860  0.0994
  799MOL0     H 5468   1.335   1.602   2.146  2.5787 -0.8030 -1.2219
  800MOL0     O 5469   6.533  10.101   4.802 -0.0115 -0.2269  0.6261
  800MOL0     C 5470   6.527  10.165   4.692  0.1677  0.5325 -0.6611
  800MOL0     O 5471   6.487  10.122   4.568 -1.2495 -0.3298 -1.1644
  800MOL0     C 5472   6.456   9.990   4.553  0.5970 -0.0543  0.1718
  800MOL0     C 5473   6.355   9.966   4.471  0.4979  0.5522  0.3466
  800MOL0     C 5474   6.314   9.835   4.445  0.3209 -0.2384 -0.1343
  800MOL0     C 5475   6.383   9.720   4.492  0.4223  0.9027 -0.3240
  800MOL0     O 5476   6.322   9.591   4.476  0.0387  0.9707 -0.3234
  800MOL0     C 5477   6.379   9.489   4.570  0.6907 -0.4752 -0.0306
  800MOL0     C 5478   6.285   9.373   4.562  0.0916 -0.4187  0.1225
  800MOL0     C 5479   6.311   9.294   4.431  0.1343 -0.1309  0.4960
  800MOL0     C 5480   6.227   9.170   4.435  0.0651  0.6592 -0.4528
  800MOL0     C 5481   6.256   9.077   4.314  1.8017 -0.8941  0.7562
  800MOL0     C 5482   6.395   9.018   4.326 -0.2854 -0.2515  0.5839
  800MOL0     C 5483   6.416   8.928   4.200  0.1688  0.1731  0.1931
  800MOL0     C 5484   6.333   8.803   4.208  0.3689 -0.3654  0.6870
  800MOL0     N 5485   6.260   8.764   4.090  0.6352  0.2228 -0.8025
  800MOL0     C 5486   6.161   8.842   4.044  1.1666  0.1020 -0.2418
  800MOL0     C 5487   6.123   8.783   3.927  0.2182  0.7423  0.4107
  800MOL0     C 5488   6.009   8.811   3.831 -0.2208  0.0962 -0.0717
  800MOL0     C 5489   6.034   8.940   3.760  0.7592 -0.5148  0.4890
  800MOL0     C 5490   5.970   9.058   3.842 -0.4758 -0.0062  0.3069
  800MOL0     C 5491   5.955   9.187   3.762  0.4492 -0.7241 -0.6273
  800MOL0     O 5492   5.931   9.294   3.861  0.2028 -0.7502  0.0560
  800MOL0     C 5493   5.936   9.426   3.810 -0.7961  0.0915 -0.3057
  800MOL0     C 5494   5.908   9.530   3.894 -0.3141 -0.1050 -0.0337
  800MOL0     C 5495   5.909   9.663   3.857  0.1402  0.6945 -0.0120
  800MOL0     C 5496   5.951   9.699   3.730  0.2841 -0.3064 -0.1045
  800MOL0     C 5497   5.948   9.840   3.685 -0.7254  1.6432 -0.0134
  800MOL0     O 5498   5.934   9.856   3.550  0.3826 -0.1911  0.1606
  800MOL0     C 5499   5.940   9.988   3.511  0.4870 -0.5016 -0.5477
  800MOL0     C 5500   5.826  10.041   3.439  0.5706  1.1441  0.1756
  800MOL0     C 5501   5.830  10.163   3.380 -0.7474 -0.6450 -0.3558
  800MOL0     C 5502   5.940  10.251   3.410 -0.0770  0.4178  0.7430
  800MOL0     O 5503   5.935  10.380   3.370  0.4400 -0.6220 -0.3579
  800MOL0     C 5504   5.968  10.470   3.464 -0.1486 -0.6120 -0.0929
  800MOL0     C 5505   5.961  10.607   3.395 -0.4595  0.1034  0.3291
  800MOL0     C 5506   5.935  10.731   3.486  0.3330  0.0675 -1.2178
  800MOL0     C 5507   6.063  10.759   3.569 -0.4435 -0.3002  0.2600
  800MOL0     C 5508   6.142  10.880   3.547  0.3983 -0.4051 -0.5562
  800MOL0     C 5509   6.225  10.924   3.669  1.0844 -0.3714  0.5962
  800MOL0     C 5510   6.335  10.832   3.703 -0.0121  0.0163 -0.6739
  800MOL0     C 5511   6.467  10.913   3.753  0.1517  0.1174  0.0609
  800MOL0    Cl 5512   6.417  11.026   3.898 -0.1991  0.0835 -0.3454
  800MOL0     C 5513   6.049  10.198   3.477 -1.0899 -0.6813  1.0665
  800MOL0     C 5514   6.058  10.062   3.517 -0.5918 -0.3799  0.2958
  800MOL0     O 5515   5.946   9.924   3.768 -0.0905 -0.0535  0.4191
  800MOL0     C 5516   5.992   9.598   3.640 -0.1353  1.2206  0.2182
  800MOL0     C 5517   5.978   9.459   3.677  0.5826 -0.1522 -0.0676
  800MOL0     N 5518   6.207   8.674   3.916 -0.3967  0.0417  0.6399
  800MOL0     N 5519   6.293   8.656   4.006  0.2848  0.6968  0.2870
  800MOL0     C 5520   6.496   9.744   4.572  0.1366 -0.1113  0.1286
  800MOL0     C 5521   6.528   9.880   4.599  0.6969  0.7628  0.8863
  800MOL0     C 5522   6.554  10.307   4.707 -0.0738 -0.3353 -0.1855
  800MOL0     C 5523   6.528  10.391   4.598  0.8040  0.5474 -0.4374
  800MOL0     C 5524   6.579  10.523   4.595 -1.2471 -0.3953 -0.0953
  800MOL0     C 5525   6.640  10.588   4.709  0.2832  0.4361  0.6322
  800MOL0     O 5526   6.669  10.713   4.733  1.1713 -0.2760  0.5074
  800MOL0     C 5527   6.639  10.806   4.623  0.2748 -0.1584  0.1939
  800MOL0     C 5528   6.668  10.942   4.671 -0.3089 -0.8875 -0.3180
  800MOL0     C 5529   6.539  10.990   4.743  0.7183 -0.1216  0.5542
  800MOL0     C 5530   6.505  10.926   4.882 -0.1533  0.3830  0.0787
  800MOL0     C 5531   6.598  10.970   4.988 -0.5076 -0.5848  0.9505
  800MOL0     C 5532   6.670  10.990   5.083  0.2816 -0.3863 -0.4236
  800MOL0     C 5533   6.666  10.502   4.815 -0.0434 -0.3374  0.3649
  800MOL0     C 5534   6.627  10.371   4.811 -0.8439 -0.7985  0.0035
  800MOL0     H 5535   6.315  10.061   4.436 -1.7758 -0.1863  0.7403
  800MOL0     H 5536   6.233   9.820   4.374  1.3247 -1.6107 -1.0499
  800MOL0     H 5537   6.380   9.529   4.672 -0.2484 -0.8051  0.1180
  800MOL0     H 5538   6.479   9.471   4.530 -0.4288 -0.3119 -3.1819
  800MOL0     H 5539   6.179   9.388   4.585  0.5654 -2.0685  4.2946
  800MOL0     H 5540   6.321   9.302   4.638  0.1699 -1.6715 -1.0540
  800MOL0     H 5541   6.417   9.278   4.407 -0.4716 -1.7147 -1.4621
  800MOL0     H 5542   6.286   9.344   4.337  2.2238 -0.4571 -0.2857
  800MOL0     H 5543   6.248   9.125   4.532  1.5920  4.4039  1.1232
  800MOL0     H 5544   6.120   9.194   4.430 -0.4917 -1.3977  0.3623
  800MOL0     H 5545   6.241   9.131   4.219 -2.6374 -2.6266  0.2352
  800MOL0     H 5546   6.174   9.005   4.315 -0.8963  1.9010 -0.3805
  800MOL0     H 5547   6.407   8.955   4.415  0.9151  1.8042  1.9676
  800MOL0     H 5548   6.477   9.090   4.334 -1.4627  1.4519 -1.6141
  800MOL0     H 5549   6.401   8.986   4.108 -1.0772 -2.2267 -1.2169
  800MOL0     H 5550   6.520   8.897   4.197  0.0447 -0.1706 -2.4517
  800MOL0     H 5551   6.261   8.807   4.290  0.5262  1.6977  0.7740
  800MOL0     H 5552   6.405   8.725   4.235  0.7218  0.0305  0.8857
  800MOL0     H 5553   6.115   8.931   4.085  2.0672  1.6549 -2.4466
  800MOL0     H 5554   5.911   8.803   3.880 -0.4740 -2.2630 -0.8294
  800MOL0     H 5555   6.001   8.729   3.758  1.8950  0.2117 -0.5007
  800MOL0     H 5556   6.003   8.940   3.655  1.2473 -1.2019  0.3401
  800MOL0     H 5557   6.141   8.954   3.742  0.8449 -3.8097 -2.6302
  800MOL0     H 5558   5.869   9.037   3.879 -2.3860  4.2588 -1.7647
  800MOL0     H 5559   6.045   9.061   3.922  2.3680 -2.2331 -2.0065
  800MOL0     H 5560   5.867   9.174   3.698 -0.7095 -3.7667  1.3224
  800MOL0     H 5561   6.048   9.196   3.705 -0.1074  0.0621 -1.4246
  800MOL0     H 5562   5.873   9.492   3.990 -1.6917  0.5107 -0.2641
  800MOL0     H 5563   5.860   9.738   3.918 -2.4427  1.2818 -2.5908
  800MOL0     H 5564   5.736   9.980   3.428  1.9340 -0.7439 -1.1809
  800MOL0     H 5565   5.750  10.211   3.324  1.2734  2.5829 -0.7174
  800MOL0     H 5566   6.061  10.439   3.511  0.1450 -1.3075 -1.0897
  800MOL0     H 5567   5.889  10.472   3.539 -2.1866  1.4976 -2.1130
  800MOL0     H 5568   5.877  10.598   3.326 -3.1020  1.4771  3.1009
  800MOL0     H 5569   6.060  10.634   3.357 -1.0387  2.7992  0.5340
  800MOL0     H 5570   5.850  10.701   3.548  0.9301 -4.6135 -2.2855
  800MOL0     H 5571   5.906  10.820   3.429  0.9136  1.4730  0.5826
  800MOL0     H 5572   6.026  10.766   3.672  0.0199 -1.8117  0.5523
  800MOL0     H 5573   6.126  10.670   3.575  1.2840  0.9169  1.0321
  800MOL0     H 5574   6.077  10.966   3.531  0.4958  0.4197  2.6518
  800MOL0     H 5575   6.205  10.866   3.459  0.7395 -1.1339 -0.2076
  800MOL0     H 5576   6.159  10.928   3.756 -0.0062 -1.8926 -0.1190
  800MOL0     H 5577   6.267  11.024   3.652 -0.0026  0.1498  0.8923
  800MOL0     H 5578   6.302  10.752   3.770 -1.5738  1.7567  0.7793
  800MOL0     H 5579   6.374  10.781   3.615 -2.2214 -2.0208 -0.5732
  800MOL0     H 5580   6.490  10.981   3.671 -2.5323 -0.4370 -1.2755
  800MOL0     H 5581   6.552  10.851   3.783 -0.1364  0.7409  2.4168
  800MOL0     H 5582   6.130  10.267   3.499 -1.6693 -0.3381  2.1712
  800MOL0     H 5583   6.134  10.010   3.574 -3.6178 -1.5182  3.7047
  800MOL0     H 5584   6.023   9.630   3.540 -2.0890  2.4558 -0.0628
  800MOL0     H 5585   5.986   9.386   3.598 -1.0916  0.9324 -1.2791
  800MOL0     H 5586   6.555   9.672   4.629  0.5463  0.3969  0.3565
  800MOL0     H 5587   6.618   9.893   4.658  0.0018  1.3674  1.8449
  800MOL0     H 5588   6.493  10.347   4.505  1.3930  0.1516 -0.4790
  800MOL0     H 5589   6.570  10.573   4.498  2.6031 -3.2319 -2.2047
  800MOL0     H 5590   6.534  10.801   4.592  0.1207  0.9078  0.5090
  800MOL0     H 5591   6.709  10.779   4.543  2.2816  0.2044  1.7220
  800MOL0     H 5592   6.751  10.939   4.743 -0.0057 -2.5258 -0.6834
  800MOL0     H 5593   6.700  11.017   4.598  2.0013  0.5330  1.9505
  800MOL0     H 5594   6.447  10.982   4.684  3.0848 -0.2587 -3.4302
  800MOL0     H 5595   6.557  11.095   4.770  2.5521 -0.4641  0.8237
  800MOL0     H 5596   6.413  10.974   4.916 -0.1036  1.2679 -0.9733
  800MOL0     H 5597   6.491  10.818   4.878 -1.5375  0.5400  0.0354
  800MOL0     H 5598   6.732  10.979   5.169  0.8698 -2.1819 -1.0326
  800MOL0     H 5599   6.725  10.544   4.895  1.1941  0.6851 -1.0296
  800MOL0     H 5600   6.658  10.307   4.893  4.1729 -0.4335 -1.3271
  801MOL0     O 5601   2.043   2.023   7.069  0.2540 -0.1962 -0.0829
  801MOL0     C 5602   2.130   2.072   7.134  0.2972 -0.1110 -0.0450
  801MOL0     O 5603   2.178   2.197   7.121  0.8461  0.1604  0.3753
  801MOL0     C 5604   2.101   2.288   7.063  1.2413  0.8497  0.0480
  801MOL0     C 5605   2.121   2.330   6.931 -0.4409 -0.3538  0.6742
  801MOL0     C 5606   2.058   2.440   6.877  0.1407  0.3672  0.6875
  801MOL0     C 5607   1.956   2.500   6.954  0.9076  0.2235 -0.1684
  801MOL0     O 5608   1.890   2.614   6.919  0.3113 -0.5434 -0.3199
  801MOL0     C 5609   1.864   2.642   6.782 -0.5959 -0.5467  0.6830
  801MOL0     C 5610   1.711   2.669   6.786  0.3015  0.1297  0.8891
  801MOL0     C 5611   1.635   2.667   6.649  0.1786  0.3697  0.8373
  801MOL0     C 5612   1.521   2.761   6.651  0.1314 -0.1469  0.4492
  801MOL0     C 5613   1.455   2.756   6.512 -0.0800 -0.6306 -0.0322
  801MOL0     C 5614   1.543   2.780   6.393  0.3116  0.2708 -0.1041
  801MOL0     C 5615   1.442   2.787   6.271 -0.4338  0.1339  0.0682
  801MOL0     C 5616   1.520   2.750   6.137 -0.2572  0.6337 -0.5124
  801MOL0     N 5617   1.533   2.601   6.136 -0.6887  0.7748  0.2020
  801MOL0     C 5618   1.429   2.505   6.136 -0.3730  0.1152  0.8964
  801MOL0     C 5619   1.479   2.386   6.173  0.3083 -0.4360  0.4302
  801MOL0     C 5620   1.414   2.249   6.194 -0.8201  0.7623  0.3942
  801MOL0     C 5621   1.425   2.193   6.340 -0.3377  0.3422  1.1205
  801MOL0     C 5622   1.556   2.107   6.357 -0.7430  0.4637 -0.9798
  801MOL0     C 5623   1.606   2.088   6.498 -0.4099 -0.3686 -0.6999
  801MOL0     O 5624   1.645   2.221   6.556 -0.3225  0.5514 -0.0565
  801MOL0     C 5625   1.603   2.253   6.677 -1.0201  0.4510 -0.6905
  801MOL0     C 5626   1.697   2.283   6.771  0.0657 -0.0876 -0.4275
  801MOL0     C 5627   1.654   2.291   6.907  0.7368 -0.0211  0.5094
  801MOL0     C 5628   1.524   2.282   6.948  0.7498 -0.7657  0.0075
  801MOL0     C 5629   1.486   2.291   7.095 -0.9142  0.0853  0.0126
  801MOL0     O 5630   1.353   2.295   7.122 -0.3105  0.1027 -0.1532
  801MOL0     C 5631   1.305   2.306   7.256  0.4870 -0.8239 -0.0487
  801MOL0     C 5632   1.284   2.190   7.335  0.0211 -0.3264  0.2660
  801MOL0     C 5633   1.247   2.204   7.468 -0.5042  0.5002 -0.0837
  801MOL0     C 5634   1.223   2.327   7.532 -0.6294 -0.5826  0.7557
  801MOL0     O 5635   1.179   2.338   7.660 -0.8405  0.6180 -0.9205
  801MOL0     C 5636   1.276   2.338   7.765  0.9987  0.1265  1.2474
  801MOL0     C 5637   1.206   2.424   7.873  0.4351  0.1092  0.3558
  801MOL0     C 5638   1.140   2.555   7.820  0.7854 -0.0706 -0.7374
  801MOL0     C 5639   1.057   2.638   7.930 -0.9279  0.2881 -0.5299
  801MOL0     C 5640   0.989   2.767   7.881  0.3252 -0.6333 -0.5814
  801MOL0     C 5641   0.950   2.851   8.003  0.1467 -0.0635 -0.5853
  801MOL0     C 5642   0.823   2.783   8.077  0.4976  0.6605 -0.9958
  801MOL0     C 5643   0.738   2.879   8.156  0.4745  0.2483 -0.1507
  801MOL0    Cl 5644   0.820   2.965   8.285  0.2022  0.8318 -0.2564
  801MOL0     C 5645   1.236   2.440   7.454  0.8746  0.8511  0.3746
  801MOL0     C 5646   1.270   2.428   7.319  0.2949  0.0288  0.1286
  801MOL0     O 5647   1.576   2.293   7.177  0.3010  0.5203  0.1080
  801MOL0     C 5648   1.425   2.272   6.840 -0.3278 -0.0503 -0.1096
  801MOL0     C 5649   1.470   2.254   6.709 -0.0728 -0.0575  0.1373
  801MOL0     N 5650   1.616   2.404   6.194  0.4201 -0.5519 -0.2661
  801MOL0     N 5651   1.650   2.530   6.165  0.6663  0.6095 -0.4776
  801MOL0     C 5652   1.929   2.457   7.089 -0.0818 -0.3145  0.1790
  801MOL0     C 5653   2.000   2.348   7.137 -0.4156 -1.0593 -0.6001
  801MOL0     C 5654   2.207   1.991   7.225  0.1142 -0.4075  0.2986
  801MOL0     C 5655   2.171   1.853   7.235  0.1512  0.2322  0.2162
  801MOL0     C 5656   2.216   1.781   7.342 -0.1964 -0.2219 -0.4400
  801MOL0     C 5657   2.314   1.838   7.431 -0.5605 -0.3224  0.6588
  801MOL0     O 5658   2.360   1.754   7.532 -0.9000  0.5642 -0.2742
  801MOL0     C 5659   2.507   1.733   7.540 -0.3293 -0.4996  0.2772
  801MOL0     C 5660   2.576   1.673   7.413 -0.6319  0.3041 -0.2102
  801MOL0     C 5661   2.508   1.551   7.354  0.0708  0.0026 -0.7167
  801MOL0     C 5662   2.577   1.507   7.218  0.5213 -0.9882 -0.1581
  801MOL0     C 5663   2.704   1.427   7.238 -0.0637  0.4287 -0.1988
  801MOL0     C 5664   2.810   1.376   7.270 -0.4777  0.3623 -0.0259
  801MOL0     C 5665   2.359   1.969   7.417 -0.9886  0.0966  1.3570
  801MOL0     C 5666   2.301   2.046   7.313  0.6242  0.7649  0.3343
  801MOL0     H 5667   2.184   2.262   6.873 -0.3837 -0.5948  1.0127
  801MOL0     H 5668   2.087   2.474   6.778 -1.4288  0.5538  0.2637
  801MOL0     H 5669   1.877   2.565   6.705  0.9778  0.7403 -0.3976
  801MOL0     H 5670   1.924   2.723   6.741 -0.8296 -1.0771 -0.7657
  801MOL0     H 5671   1.691   2.760   6.842  1.0472  2.2193 -2.0041
  801MOL0     H 5672   1.666   2.582   6.835  1.1449 -0.7169  0.2077
  801MOL0     H 5673   1.593   2.568   6.627 -1.6231  0.5249  3.1085
  801MOL0     H 5674   1.701   2.698   6.569 -1.3512 -3.5954 -2.3143
  801MOL0     H 5675   1.454   2.734   6.732 -0.7713  1.6829  0.3662
  801MOL0     H 5676   1.557   2.863   6.671 -0.9272  0.9366 -2.4951
  801MOL0     H 5677   1.370   2.824   6.519  0.4737 -0.0543  1.7439
  801MOL0     H 5678   1.411   2.658   6.496 -0.4940 -0.2327 -1.4879
  801MOL0     H 5679   1.614   2.698   6.378 -1.6514 -2.2397  2.9197
  801MOL0     H 5680   1.596   2.875   6.400  2.6176 -1.0476  1.3767
  801MOL0     H 5681   1.356   2.722   6.291  1.4272 -2.9988 -1.3188
  801MOL0     H 5682   1.414   2.892   6.259 -0.7146  0.0220 -0.2790
  801MOL0     H 5683   1.620   2.793   6.138  0.4403 -0.9163 -0.2440
  801MOL0     H 5684   1.467   2.794   6.052 -3.0208 -0.4761  0.4933
  801MOL0     H 5685   1.326   2.530   6.112 -0.1734 -1.2313 -1.6412
  801MOL0     H 5686   1.465   2.182   6.125  1.3123 -1.1310  3.5489
  801MOL0     H 5687   1.309   2.249   6.163 -1.8222  0.5216  3.4575
  801MOL0     H 5688   1.332   2.144   6.371 -1.9257  2.5868  0.1624
  801MOL0     H 5689   1.424   2.283   6.403 -0.5434  0.5058  0.8839
  801MOL0     H 5690   1.552   2.002   6.326  0.3565  0.0406  0.2448
  801MOL0     H 5691   1.633   2.159   6.299  0.8801 -1.5029 -0.6770
  801MOL0     H 5692   1.687   2.016   6.509 -0.2847  0.1317  3.3447
  801MOL0     H 5693   1.528   2.048   6.563 -0.3233  2.0511  1.0315
  801MOL0     H 5694   1.803   2.291   6.750  0.2555 -0.1711  0.4561
  801MOL0     H 5695   1.736   2.283   6.977 -0.3057  0.9435  1.9106
  801MOL0     H 5696   1.319   2.098   7.291  3.6301  0.7874  0.4751
  801MOL0     H 5697   1.226   2.116   7.528 -3.4968  1.8783  1.0208
  801MOL0     H 5698   1.366   2.382   7.723  1.2077 -0.8523  0.6321
  801MOL0     H 5699   1.293   2.234   7.793 -1.3560 -1.8186 -3.3553
  801MOL0     H 5700   1.280   2.450   7.950  2.5989 -2.2668 -0.7465
  801MOL0     H 5701   1.128   2.366   7.923 -1.1642  2.9390  1.3910
  801MOL0     H 5702   1.060   2.520   7.753  2.9416  0.8248 -4.0013
  801MOL0     H 5703   1.202   2.619   7.758 -2.3309  0.1175 -4.0044
  801MOL0     H 5704   0.988   2.572   7.982 -0.7137  0.1874 -0.3744
  801MOL0     H 5705   1.142   2.672   7.991  0.3216  0.5713 -2.3507
  801MOL0     H 5706   0.902   2.739   7.821 -0.9498  0.9437  0.4293
  801MOL0     H 5707   1.049   2.822   7.808  1.7873 -1.8749 -0.3677
  801MOL0     H 5708   0.941   2.955   7.970  2.3140  0.7005  0.9464
  801MOL0     H 5709   1.033   2.852   8.075 -0.1274 -3.5448 -0.0723
  801MOL0     H 5710   0.765   2.733   7.999 -1.9015  2.7410 -0.6556
  801MOL0     H 5711   0.854   2.699   8.140 -2.6451 -1.2359 -1.7588
  801MOL0     H 5712   0.656   2.813   8.184 -1.1110  1.2388 -2.1695
  801MOL0     H 5713   0.694   2.954   8.089 -3.7832 -0.4471  1.5616
  801MOL0     H 5714   1.218   2.537   7.499  0.2274  1.2678 -0.7623
  801MOL0     H 5715   1.294   2.514   7.257  0.2363 -1.8885 -2.7620
  801MOL0     H 5716   1.317   2.270   6.843 -0.3450  0.2691 -0.4320
  801MOL0     H 5717   1.400   2.226   6.630  0.9720 -1.8601 -0.1886
  801MOL0     H 5718   1.858   2.504   7.157 -1.3702 -1.8245 -0.0583
  801MOL0     H 5719   1.978   2.305   7.234  0.3924 -2.0315 -0.8277
  801MOL0     H 5720   2.099   1.807   7.169 -1.1806  3.6226 -0.9413
  801MOL0     H 5721   2.185   1.679   7.365  4.8971 -1.7901  1.0665
  801MOL0     H 5722   2.523   1.671   7.629  0.7216 -0.9107 -0.1825
  801MOL0     H 5723   2.536   1.836   7.564 -2.4274 -0.3942  2.7918
  801MOL0     H 5724   2.592   1.751   7.339 -2.0106 -0.3575 -1.2455
  801MOL0     H 5725   2.680   1.648   7.439  0.2595  1.7161 -2.1277
  801MOL0     H 5726   2.403   1.570   7.334 -0.5040 -4.0336 -2.6780
  801MOL0     H 5727   2.516   1.469   7.427 -2.0527  0.1219 -0.2895
  801MOL0     H 5728   2.507   1.441   7.166 -0.2717 -0.9404  0.8373
  801MOL0     H 5729   2.608   1.594   7.159  0.9515 -0.0515  1.3778
  801MOL0     H 5730   2.902   1.336   7.308 -0.6420  1.2135  1.3444
  801MOL0     H 5731   2.427   2.018   7.486 -2.3705  1.3739  1.8704
  801MOL0     H 5732   2.334   2.147   7.289  1.3567 -0.1135 -2.8501
  802MOL0     O 5733   4.996   6.096   3.690 -0.2574 -0.2315  0.0026
  802MOL0     C 5734   4.986   5.981   3.724  0.0712  0.2694 -0.0192
  802MOL0     O 5735   5.043   5.928   3.841 -0.8100  0.4766  0.3259
  802MOL0     C 5736   5.104   6.021   3.930  0.2101  0.8663 -0.0937
  802MOL0     C 5737   5.012   6.102   4.000 -0.1702 -0.5111 -0.4581
  802MOL0     C 5738   5.058   6.203   4.089 -0.7566  0.7007 -0.0279
  802MOL0     C 5739   5.190   6.219   4.125 -0.3819 -0.3546  0.2898
  802MOL0     O 5740   5.245   6.316   4.208  0.0667 -0.1786  0.4102
  802MOL0     C 5741   5.154   6.377   4.301  0.4821  0.5045  0.1510
  802MOL0     C 5742   5.239   6.480   4.373 -0.4346  0.5544 -0.2465
  802MOL0     C 5743   5.334   6.404   4.482  0.3928 -0.1513  0.0324
  802MOL0     C 5744   5.409   6.495   4.574 -0.9678  0.4504 -0.0279
  802MOL0     C 5745   5.387   6.467   4.724  0.5606  1.2408 -0.2077
  802MOL0     C 5746   5.504   6.530   4.799 -0.6121  0.3548  1.0313
  802MOL0     C 5747   5.468   6.533   4.943 -0.2235  1.1586 -0.7664
  802MOL0     C 5748   5.562   6.628   5.022 -0.4347  0.1127 -0.2890
  802MOL0     N 5749   5.685   6.561   5.078  0.1774  0.7411 -0.2948
  802MOL0     C 5750   5.815   6.563   5.025 -0.4708 -0.3714  0.1532
  802MOL0     C 5751   5.877   6.460   5.087 -0.4948 -1.1592  0.1013
  802MOL0     C 5752   6.020   6.416   5.064 -0.0855 -0.5818 -0.2424
  802MOL0     C 5753   6.042   6.340   4.933 -1.0286 -0.8689 -0.3474
  802MOL0     C 5754   5.994   6.195   4.927 -0.5154  0.4537 -0.2667
  802MOL0     C 5755   5.964   6.154   4.776 -1.2560  0.1763 -0.1001
  802MOL0     O 5756   5.859   6.217   4.694 -0.7784  0.6636  0.4973
  802MOL0     C 5757   5.854   6.177   4.565 -0.1430 -0.7721  1.3347
  802MOL0     C 5758   5.956   6.135   4.470 -0.5971 -0.0175 -0.0205
  802MOL0     C 5759   5.921   6.111   4.333 -0.2580  0.5881 -0.3674
  802MOL0     C 5760   5.785   6.106   4.294 -0.4120  0.3240 -0.6910
  802MOL0     C 5761   5.740   6.087   4.154  1.0896 -0.5854 -0.5246
  802MOL0     O 5762   5.828   6.087   4.055  0.2485 -0.3504  0.0658
  802MOL0     C 5763   5.773   6.080   3.931 -0.3827 -0.7911  1.0874
  802MOL0     C 5764   5.741   6.199   3.877 -0.4379  0.4191 -0.9284
  802MOL0     C 5765   5.679   6.194   3.753  0.3949 -1.0718 -0.7382
  802MOL0     C 5766   5.646   6.086   3.674  0.4006 -0.4984 -1.0782
  802MOL0     O 5767   5.601   6.107   3.552  0.0866 -0.1994  0.3565
  802MOL0     C 5768   5.612   5.997   3.447  0.7898 -0.0717  0.5340
  802MOL0     C 5769   5.576   6.059   3.309  0.2071  0.6471 -0.9442
  802MOL0     C 5770   5.581   5.942   3.203 -0.4783  0.3121  0.1110
  802MOL0     C 5771   5.603   6.003   3.061 -0.9543 -0.7054  0.0397
  802MOL0     C 5772   5.587   5.917   2.949  0.4011 -0.0044 -0.0395
  802MOL0     C 5773   5.440   5.868   2.930 -0.3170 -0.3548 -0.3729
  802MOL0     C 5774   5.354   5.990   2.910  0.2588  0.7922  0.4073
  802MOL0     C 5775   5.206   5.935   2.906  0.0371  0.0563 -0.5712
  802MOL0    Cl 5776   5.145   5.899   3.066 -0.4596  0.0943 -0.2004
  802MOL0     C 5777   5.682   5.962   3.733 -0.2760  0.0127 -0.6716
  802MOL0     C 5778   5.751   5.957   3.856  0.3335  0.4479 -0.2536
  802MOL0     O 5779   5.609   6.084   4.141 -0.6286  1.2808 -0.5249
  802MOL0     C 5780   5.691   6.131   4.390  0.0976 -0.2400 -0.4150
  802MOL0     C 5781   5.723   6.168   4.517 -1.2937 -0.0220  0.4478
  802MOL0     N 5782   5.794   6.398   5.169  0.2269 -0.5172 -1.0711
  802MOL0     N 5783   5.689   6.465   5.179  0.9602 -0.2540 -0.6958
  802MOL0     C 5784   5.283   6.132   4.060 -0.2512 -0.6754  0.7663
  802MOL0     C 5785   5.235   6.029   3.966  0.7291 -0.2593  0.4196
  802MOL0     C 5786   4.907   5.911   3.629  0.1980  0.4298 -0.3010
  802MOL0     C 5787   4.947   5.787   3.563 -0.6465 -0.3729 -0.0334
  802MOL0     C 5788   4.874   5.730   3.456  0.3464  0.7592 -0.6249
  802MOL0     C 5789   4.755   5.785   3.418 -0.6724  0.1645  0.4672
  802MOL0     O 5790   4.666   5.716   3.332 -0.0611  0.5497 -0.2448
  802MOL0     C 5791   4.710   5.609   3.254 -0.4990 -0.2513 -0.1031
  802MOL0     C 5792   4.601   5.563   3.158  0.5452  0.3484 -0.1707
  802MOL0     C 5793   4.556   5.681   3.071  0.8928  0.3233  0.6796
  802MOL0     C 5794   4.417   5.654   3.007  0.4386 -0.0218 -0.4679
  802MOL0     C 5795   4.398   5.742   2.890  0.2229  0.2055  0.1463
  802MOL0     C 5796   4.354   5.823   2.809 -1.0492  0.6724 -1.0248
  802MOL0     C 5797   4.707   5.902   3.480  0.2317  0.6375 -0.0041
  802MOL0     C 5798   4.779   5.959   3.581 -0.2905  0.2591 -0.2737
  802MOL0     H 5799   4.906   6.084   3.984 -0.2919 -0.2355  0.0459
  802MOL0     H 5800   4.982   6.269   4.129  1.2545  1.3986  2.9488
  802MOL0     H 5801   5.110   6.307   4.373  2.5223 -0.7862  0.2302
  802MOL0     H 5802   5.070   6.418   4.244  1.3646  2.2922  0.0893
  802MOL0     H 5803   5.167   6.552   4.413  0.3215  1.4978 -0.5482
  802MOL0     H 5804   5.302   6.535   4.303 -0.7818  0.1439 -0.8928
  802MOL0     H 5805   5.405   6.344   4.425  1.2755  1.1453 -0.2602
  802MOL0     H 5806   5.260   6.339   4.530 -0.2233  0.6950  0.2569
  802MOL0     H 5807   5.514   6.494   4.544  0.1691 -0.7590  3.4604
  802MOL0     H 5808   5.371   6.597   4.561  0.4468  0.9223 -0.7399
  802MOL0     H 5809   5.382   6.362   4.754 -2.1196  2.4163  4.4044
  802MOL0     H 5810   5.293   6.514   4.753 -0.3855  1.1306 -2.7728
  802MOL0     H 5811   5.511   6.635   4.771  0.7639  0.2981  1.0799
  802MOL0     H 5812   5.603   6.486   4.782 -0.1160  1.6628  0.3517
  802MOL0     H 5813   5.368   6.569   4.968 -0.8893 -0.9249 -0.2854
  802MOL0     H 5814   5.476   6.428   4.972 -0.6870  1.5494  0.8858
  802MOL0     H 5815   5.518   6.672   5.111  2.8730  0.9471  1.1107
  802MOL0     H 5816   5.588   6.711   4.955 -1.5296 -0.1195 -1.0324
  802MOL0     H 5817   5.849   6.641   4.958 -1.3295  0.0799  0.2384
  802MOL0     H 5818   6.049   6.347   5.144  1.8075  1.1162  0.6327
  802MOL0     H 5819   6.085   6.503   5.077 -0.5730 -0.4017  1.2034
  802MOL0     H 5820   6.151   6.331   4.931 -0.6564  1.8932  1.3082
  802MOL0     H 5821   6.008   6.402   4.850 -0.7521 -0.4599 -0.1612
  802MOL0     H 5822   6.072   6.127   4.961  0.5407  0.7911 -1.9336
  802MOL0     H 5823   5.904   6.189   4.989  0.2499 -2.3582  0.7272
  802MOL0     H 5824   5.942   6.047   4.788 -1.0645  0.3514  2.4973
  802MOL0     H 5825   6.060   6.154   4.723 -1.0208 -0.5906  0.3007
  802MOL0     H 5826   6.063   6.128   4.488 -0.8594  0.7569  2.1822
  802MOL0     H 5827   6.004   6.094   4.266  1.5438  2.7761  1.1633
  802MOL0     H 5828   5.764   6.292   3.929 -0.5783  1.3224 -2.4150
  802MOL0     H 5829   5.669   6.292   3.708  0.3385  0.5172  2.4454
  802MOL0     H 5830   5.561   5.908   3.486  2.0442 -2.5063 -2.9130
  802MOL0     H 5831   5.718   5.970   3.452  0.6792 -0.7637 -0.6138
  802MOL0     H 5832   5.646   6.141   3.289  1.7420  0.0691  1.5355
  802MOL0     H 5833   5.473   6.095   3.313 -0.0622 -0.1322  2.0287
  802MOL0     H 5834   5.488   5.885   3.204 -0.8116  0.7793 -1.7340
  802MOL0     H 5835   5.666   5.875   3.222  0.2952  0.8635 -1.2582
  802MOL0     H 5836   5.544   6.095   3.052  0.2447  0.3331  2.0147
  802MOL0     H 5837   5.709   6.031   3.060 -0.7747 -0.9572  2.6466
  802MOL0     H 5838   5.638   5.821   2.956 -0.2722 -0.9907 -4.8060
  802MOL0     H 5839   5.631   5.972   2.865  0.8959  0.2025  0.3541
  802MOL0     H 5840   5.415   5.805   3.016  3.7655 -0.4173  1.0015
  802MOL0     H 5841   5.435   5.807   2.839 -0.1704  0.8089 -1.1704
  802MOL0     H 5842   5.365   6.069   2.985  1.6794 -0.0783  1.1620
  802MOL0     H 5843   5.378   6.037   2.814  0.8667 -0.0278  0.1481
  802MOL0     H 5844   5.205   5.853   2.833 -3.7603 -3.3048  2.7447
  802MOL0     H 5845   5.144   6.019   2.874 -0.1900 -0.5273 -1.7045
  802MOL0     H 5846   5.650   5.864   3.699  1.0262 -2.7597  4.9046
  802MOL0     H 5847   5.783   5.862   3.898 -3.3464 -2.1949 -2.8684
  802MOL0     H 5848   5.584   6.131   4.373  0.0423  0.3540 -0.0961
  802MOL0     H 5849   5.637   6.201   4.576 -0.3733  1.1310  1.1962
  802MOL0     H 5850   5.386   6.166   4.053 -1.0942  2.0846  0.4101
  802MOL0     H 5851   5.307   5.974   3.908  0.9513 -0.9694  1.3398
  802MOL0     H 5852   5.035   5.729   3.589  0.2345  1.0470  0.3097
  802MOL0     H 5853   4.917   5.644   3.407  1.9582  0.4301  1.2385
  802MOL0     H 5854   4.747   5.520   3.305  2.2970 -0.5266 -2.3477
  802MOL0     H 5855   4.791   5.642   3.189  0.4038 -3.3397 -0.6970
  802MOL0     H 5856   4.632   5.486   3.087 -0.3987  1.3579 -1.7359
  802MOL0     H 5857   4.514   5.536   3.219  0.6444 -0.0802 -0.2171
  802MOL0     H 5858   4.642   5.694   3.004  1.6983 -3.5777  0.7080
  802MOL0     H 5859   4.542   5.765   3.139  0.2757  0.7007  0.1080
  802MOL0     H 5860   4.418   5.553   2.964 -3.6352 -1.1485  1.5258
  802MOL0     H 5861   4.338   5.653   3.083  0.4767 -1.5616 -0.4188
  802MOL0     H 5862   4.315   5.894   2.740 -0.5873  2.8008  0.7903
  802MOL0     H 5863   4.622   5.963   3.454 -1.6967 -0.8135  2.4084
  802MOL0     H 5864   4.741   6.058   3.604 -1.6525  0.0174 -1.3709
  803MOL0     O 5865   0.486   3.920   8.290  0.7288 -0.2140  0.5883
  803MOL0     C 5866   0.508   3.824   8.218  0.5034 -0.0746  1.9527
  803MOL0     O 5867   0.409   3.766   8.132  0.4066  0.9000 -1.0477
  803MOL0     C 5868   0.280   3.793   8.160  0.3966  0.3112 -0.5845
  803MOL0     C 5869   0.229   3.915   8.128 -1.5069  0.3751 -0.8477
  803MOL0     C 5870   0.093   3.938   8.149  0.3936  0.1024 -0.3657
  803MOL0     C 5871   0.011   3.838   8.196  0.2161 -0.0025  0.1659
  803MOL0     O 5872  -0.116   3.874   8.232 -0.3514  0.1936 -0.0688
  803MOL0     C 5873  -0.227   3.785   8.184 -0.0061 -0.9095 -0.5865
  803MOL0     C 5874  -0.335   3.774   8.290  0.3643  0.6591  0.9648
  803MOL0     C 5875  -0.444   3.682   8.225 -0.0052 -0.3141  0.4879
  803MOL0     C 5876  -0.440   3.538   8.276  0.0146 -0.1262  0.0024
  803MOL0     C 5877  -0.505   3.427   8.186  0.8130 -0.7749 -0.5597
  803MOL0     C 5878  -0.656   3.445   8.167 -0.1021 -0.0255  0.2356
  803MOL0     C 5879  -0.724   3.325   8.124  0.1774 -0.1145 -0.2913
  803MOL0     C 5880  -0.872   3.365   8.102 -0.5892  0.1013  0.3383
  803MOL0     N 5881  -0.951   3.246   8.076  0.7748  0.2498  0.6597
  803MOL0     C 5882  -0.935   3.162   7.966 -0.6694  0.2478 -0.2922
  803MOL0     C 5883  -1.060   3.108   7.953 -0.8609  0.8865 -0.0500
  803MOL0     C 5884  -1.112   3.020   7.837 -0.1581 -0.6578 -0.2192
  803MOL0     C 5885  -1.117   3.095   7.707 -0.1683  0.2284  0.8131
  803MOL0     C 5886  -1.107   3.010   7.577  0.4053 -0.1473 -0.5033
  803MOL0     C 5887  -1.176   2.873   7.587 -0.0174 -0.3748 -0.6173
  803MOL0     O 5888  -1.214   2.833   7.452  0.8014 -0.0361 -0.8421
  803MOL0     C 5889  -1.231   2.699   7.424  0.1561 -0.3562  0.8898
  803MOL0     C 5890  -1.172   2.646   7.316 -0.0182 -0.3575  0.8235
  803MOL0     C 5891  -1.170   2.511   7.289  1.5334 -0.5753 -0.3578
  803MOL0     C 5892  -1.253   2.427   7.368 -0.5053  0.5117  1.0654
  803MOL0     C 5893  -1.260   2.283   7.340 -0.5046 -0.4355 -1.1791
  803MOL0     O 5894  -1.171   2.244   7.237  0.3576 -0.6843 -0.7140
  803MOL0     C 5895  -1.159   2.105   7.214  0.3574 -0.8728 -0.3798
  803MOL0     C 5896  -1.071   2.032   7.299 -0.0293 -0.0410 -0.1272
  803MOL0     C 5897  -1.045   1.900   7.285  0.1111 -0.1916  0.5102
  803MOL0     C 5898  -1.100   1.828   7.173 -1.2135  0.5690 -0.8831
  803MOL0     O 5899  -1.066   1.703   7.136  0.3253 -0.5110 -0.6741
  803MOL0     C 5900  -0.999   1.626   7.227 -0.4446  0.7217  0.0599
  803MOL0     C 5901  -0.985   1.486   7.166  0.5208 -1.2688 -1.0538
  803MOL0     C 5902  -0.926   1.390   7.264 -0.6367  0.5747 -0.5633
  803MOL0     C 5903  -0.927   1.241   7.229  0.9618 -0.1592  0.5100
  803MOL0     C 5904  -0.829   1.143   7.304  0.6383  1.3204 -0.7578
  803MOL0     C 5905  -0.832   1.160   7.458 -0.2594 -0.0710  1.0503
  803MOL0     C 5906  -0.727   1.058   7.528 -0.5978 -0.7135 -0.0122
  803MOL0     C 5907  -0.704   1.082   7.676 -0.1002 -0.7369 -0.2950
  803MOL0    Cl 5908  -0.629   0.947   7.737 -0.3646  0.1866 -0.8095
  803MOL0     C 5909  -1.203   1.896   7.095 -0.3892  0.2033  0.5196
  803MOL0     C 5910  -1.225   2.043   7.107 -0.1422  0.0245  0.2927
  803MOL0     O 5911  -1.332   2.212   7.409  0.4091 -0.1194  0.8042
  803MOL0     C 5912  -1.328   2.482   7.484 -0.4460 -0.7854 -0.0659
  803MOL0     C 5913  -1.309   2.619   7.511 -0.7518 -0.3410 -0.1567
  803MOL0     N 5914  -1.129   3.131   8.067  0.4457  0.6848  0.3181
  803MOL0     N 5915  -1.076   3.221   8.134 -0.4476  0.6912 -0.3278
  803MOL0     C 5916   0.061   3.712   8.222  1.3207 -0.3430 -0.6847
  803MOL0     C 5917   0.194   3.689   8.207  0.2989 -0.0222 -0.2699
  803MOL0     C 5918   0.651   3.783   8.208 -0.5223 -0.6906 -0.4241
  803MOL0     C 5919   0.751   3.837   8.292  1.4067  0.3905 -0.1346
  803MOL0     C 5920   0.880   3.804   8.276  0.8176  0.1727 -0.7922
  803MOL0     C 5921   0.907   3.702   8.183 -0.4302  0.0743 -1.1305
  803MOL0     O 5922   1.034   3.659   8.166 -0.3397  0.0249 -0.0387
  803MOL0     C 5923   1.097   3.625   8.289 -0.6065  0.3881 -0.5335
  803MOL0     C 5924   1.200   3.509   8.290  1.0549 -0.7789  0.2437
  803MOL0     C 5925   1.334   3.546   8.232 -0.4679 -0.9870  0.0278
  803MOL0     C 5926   1.335   3.584   8.087 -1.0546 -0.7073  0.5830
  803MOL0     C 5927   1.473   3.625   8.038  0.8435  0.4632 -0.2955
  803MOL0     C 5928   1.594   3.634   8.016 -0.2057 -0.1214  0.1689
  803MOL0     C 5929   0.814   3.636   8.101 -0.2268  0.5355 -0.6928
  803MOL0     C 5930   0.687   3.687   8.110  0.4184 -0.9544 -0.0672
  803MOL0     H 5931   0.295   4.000   8.115  0.9297 -1.3363 -0.4296
  803MOL0     H 5932   0.052   4.036   8.127 -0.7786 -0.0696  0.9484
  803MOL0     H 5933  -0.182   3.688   8.164 -1.0895 -1.1053 -2.2298
  803MOL0     H 5934  -0.269   3.826   8.092  0.3469 -1.4758 -1.0034
  803MOL0     H 5935  -0.378   3.873   8.304  0.4509  0.5195  2.3330
  803MOL0     H 5936  -0.294   3.744   8.387 -0.5710 -2.0128  0.5958
  803MOL0     H 5937  -0.431   3.689   8.116 -3.9787 -0.2083 -0.1546
  803MOL0     H 5938  -0.539   3.734   8.243  1.3912  2.5746  0.1302
  803MOL0     H 5939  -0.333   3.516   8.277 -0.0443 -0.4984  2.2029
  803MOL0     H 5940  -0.489   3.537   8.373 -0.4722 -2.3484 -0.2032
  803MOL0     H 5941  -0.496   3.333   8.242  1.4268  1.1383  2.7512
  803MOL0     H 5942  -0.473   3.438   8.082 -2.5830  0.9600 -1.5729
  803MOL0     H 5943  -0.677   3.521   8.091 -3.3040 -0.3718  0.6254
  803MOL0     H 5944  -0.699   3.487   8.258 -1.0630 -1.3354  0.4148
  803MOL0     H 5945  -0.669   3.285   8.038  0.8813 -0.5506  0.3491
  803MOL0     H 5946  -0.720   3.251   8.204 -4.9656 -0.3342  0.1112
  803MOL0     H 5947  -0.864   3.421   8.008 -1.0958 -2.3150 -1.2350
  803MOL0     H 5948  -0.921   3.421   8.183 -1.2758 -0.0821  0.0546
  803MOL0     H 5949  -0.858   3.174   7.891 -0.3144  1.1866  0.2013
  803MOL0     H 5950  -1.201   2.968   7.873  0.5298  0.6019  3.8012
  803MOL0     H 5951  -1.056   2.928   7.817 -0.9555 -1.4681  1.1552
  803MOL0     H 5952  -1.036   3.167   7.717  0.7847 -0.7320  0.2519
  803MOL0     H 5953  -1.208   3.153   7.687 -0.8655 -1.1517 -0.1862
  803MOL0     H 5954  -1.140   3.073   7.493 -0.2879 -1.0130 -0.8985
  803MOL0     H 5955  -1.001   2.990   7.561  0.3964 -1.2583  0.6378
  803MOL0     H 5956  -1.262   2.887   7.653 -1.0548 -1.9124 -1.5487
  803MOL0     H 5957  -1.103   2.805   7.633  0.2807  1.2043  1.3422
  803MOL0     H 5958  -1.125   2.717   7.249 -1.0812 -1.6307 -1.3712
  803MOL0     H 5959  -1.098   2.465   7.221  1.1757 -0.3528 -0.8970
  803MOL0     H 5960  -1.011   2.065   7.382  0.4306 -1.8437  0.3012
  803MOL0     H 5961  -0.980   1.849   7.354  1.2113  0.7206  0.1766
  803MOL0     H 5962  -1.056   1.628   7.320  1.1176 -0.0006  1.0698
  803MOL0     H 5963  -0.897   1.663   7.237 -0.0740 -0.2466 -0.0521
  803MOL0     H 5964  -0.940   1.483   7.067  0.2868  1.0167 -1.2869
  803MOL0     H 5965  -1.084   1.441   7.156 -1.0170  1.5707  0.1758
  803MOL0     H 5966  -0.962   1.398   7.367  0.7971 -2.7291  0.3366
  803MOL0     H 5967  -0.823   1.422   7.282 -0.4986  0.6185 -1.4195
  803MOL0     H 5968  -1.029   1.221   7.261  0.0278  0.6502 -1.7601
  803MOL0     H 5969  -0.929   1.216   7.122 -1.6318  0.9667  0.2343
  803MOL0     H 5970  -0.724   1.144   7.272 -0.1882  0.7725 -3.6959
  803MOL0     H 5971  -0.861   1.039   7.293  0.8818  0.8057  2.3964
  803MOL0     H 5972  -0.931   1.144   7.501 -1.3826 -1.8173 -1.9384
  803MOL0     H 5973  -0.790   1.258   7.483  3.8064 -1.3204 -0.0633
  803MOL0     H 5974  -0.758   0.954   7.516  2.3910 -1.5983 -1.0062
  803MOL0     H 5975  -0.635   1.069   7.470 -0.6524 -0.9676 -0.1488
  803MOL0     H 5976  -0.796   1.088   7.735  0.3051 -0.6573  0.3524
  803MOL0     H 5977  -0.650   1.175   7.697  5.8662 -4.0424  1.5179
  803MOL0     H 5978  -1.242   1.844   7.008 -0.4532  0.1754  0.5655
  803MOL0     H 5979  -1.300   2.090   7.044 -0.3137 -0.4847  0.1085
  803MOL0     H 5980  -1.388   2.418   7.548 -1.0409 -3.1545 -2.7487
  803MOL0     H 5981  -1.350   2.660   7.603  1.8138  0.7535  0.5682
  803MOL0     H 5982  -0.014   3.652   8.273  0.2397  2.4426  1.2675
  803MOL0     H 5983   0.229   3.588   8.228 -0.3464 -0.0088  0.9293
  803MOL0     H 5984   0.722   3.909   8.368  2.4432  0.2769  0.3887
  803MOL0     H 5985   0.962   3.840   8.338 -0.6296  0.3660  1.1240
  803MOL0     H 5986   1.014   3.589   8.351 -3.8990  2.8411 -3.1050
  803MOL0     H 5987   1.135   3.712   8.344 -0.4593 -0.5127  0.8268
  803MOL0     H 5988   1.216   3.468   8.391 -1.4457 -0.1309  0.9795
  803MOL0     H 5989   1.155   3.427   8.234 -1.8738  0.4218  0.6392
  803MOL0     H 5990   1.395   3.456   8.237 -0.2821 -1.1045 -2.7035
  803MOL0     H 5991   1.377   3.628   8.290 -1.4059  0.5004 -1.2818
  803MOL0     H 5992   1.294   3.497   8.035 -1.5912 -1.4398  2.1681
  803MOL0     H 5993   1.279   3.676   8.068  3.1142  2.0005 -0.0573
  803MOL0     H 5994   1.692   3.637   7.974  0.3458 -2.3413  1.1298
  803MOL0     H 5995   0.841   3.553   8.036  1.8677  1.0361 -0.5146
  803MOL0     H 5996   0.623   3.638   8.038 -1.3696  2.5564 -1.1173
  804MOL0     O 5997   5.510   3.895   2.302 -0.5807 -0.1368 -0.0352
  804MOL0     C 5998   5.487   3.776   2.292 -0.7733 -0.9687  0.0985
  804MOL0     O 5999   5.366   3.724   2.307 -0.4824  0.1699 -0.6335
  804MOL0     C 6000   5.255   3.800   2.336  0.0860 -0.0906 -0.2275
  804MOL0     C 6001   5.190   3.851   2.225  0.4063 -0.5103 -0.1444
  804MOL0     C 6002   5.076   3.938   2.245 -0.1376  0.4673 -0.2060
  804MOL0     C 6003   5.026   3.961   2.369 -0.8433 -0.0977 -0.0377
  804MOL0     O 6004   4.920   4.043   2.381 -0.7854 -0.2660 -1.0202
  804MOL0     C 6005   4.816   4.029   2.481  0.4050 -0.2819  0.9214
  804MOL0     C 6006   4.678   4.066   2.433 -0.5665 -0.8523 -0.2587
  804MOL0     C 6007   4.624   3.976   2.328 -0.2080  1.0009  0.1140
  804MOL0     C 6008   4.528   3.872   2.387 -1.1174 -0.2563 -0.0935
  804MOL0     C 6009   4.498   3.763   2.285 -0.1570 -0.4598 -0.6898
  804MOL0     C 6010   4.414   3.811   2.168 -0.3235 -0.4855 -1.1083
  804MOL0     C 6011   4.476   3.775   2.027 -0.3606 -0.0544 -0.4359
  804MOL0     C 6012   4.358   3.769   1.932  0.1992  0.8565  0.5345
  804MOL0     N 6013   4.411   3.753   1.801 -0.2008 -0.1780  0.0484
  804MOL0     C 6014   4.430   3.854   1.711  0.2821  0.1809 -0.3222
  804MOL0     C 6015   4.436   3.796   1.595  1.1854  0.8513  0.3779
  804MOL0     C 6016   4.438   3.855   1.456  1.0839 -0.4139  0.2460
  804MOL0     C 6017   4.583   3.859   1.396  0.4555  0.4444  0.2980
  804MOL0     C 6018   4.674   3.964   1.470  0.4365 -0.4728 -0.9793
  804MOL0     C 6019   4.648   4.115   1.439  0.4203  0.0725  1.0110
  804MOL0     O 6020   4.529   4.174   1.498 -0.7509  0.2606 -0.0441
  804MOL0     C 6021   4.487   4.288   1.439  0.6276  0.7227  0.7839
  804MOL0     C 6022   4.349   4.312   1.458 -0.7273 -0.7516  0.1928
  804MOL0     C 6023   4.296   4.428   1.416  0.4099 -0.0395  0.0997
  804MOL0     C 6024   4.373   4.514   1.336  0.0195  0.0801  0.2750
  804MOL0     C 6025   4.306   4.640   1.286 -0.3033  0.0531  0.5603
  804MOL0     O 6026   4.343   4.665   1.156 -0.2167 -0.3627 -0.0313
  804MOL0     C 6027   4.295   4.779   1.096 -0.4501  0.5099 -0.2276
  804MOL0     C 6028   4.328   4.908   1.138 -0.4706  0.2804 -0.5803
  804MOL0     C 6029   4.289   5.018   1.078 -0.1438 -0.2202  1.1606
  804MOL0     C 6030   4.223   5.010   0.951  0.3104 -0.2189  0.0092
  804MOL0     O 6031   4.212   5.134   0.890 -0.1178 -0.3517 -0.1962
  804MOL0     C 6032   4.191   5.126   0.748 -0.0268 -0.7483  0.6641
  804MOL0     C 6033   4.234   5.265   0.702  0.3032  0.6533 -0.6347
  804MOL0     C 6034   4.137   5.378   0.753 -0.0091 -0.6296  0.7296
  804MOL0     C 6035   3.994   5.344   0.720 -0.2435  0.0151  0.8846
  804MOL0     C 6036   3.913   5.470   0.699  0.0621 -0.9995 -0.6051
  804MOL0     C 6037   3.773   5.445   0.647  0.0327 -0.4824  0.5265
  804MOL0     C 6038   3.675   5.401   0.755  0.0594 -0.2686  0.2968
  804MOL0     C 6039   3.618   5.503   0.845  0.0456 -0.1310 -0.1214
  804MOL0    Cl 6040   3.487   5.586   0.767  0.1056  0.3981  0.7336
  804MOL0     C 6041   4.182   4.884   0.906  0.1946  0.2956 -0.2922
  804MOL0     C 6042   4.219   4.763   0.974 -0.5002  0.7477 -0.2410
  804MOL0     O 6043   4.224   4.696   1.357 -0.1148 -0.1240 -0.1923
  804MOL0     C 6044   4.503   4.489   1.310 -0.0154  0.4756  0.0858
  804MOL0     C 6045   4.569   4.374   1.361  0.1553  0.3045 -0.3133
  804MOL0     N 6046   4.436   3.659   1.609  1.0885 -0.0209 -0.7827
  804MOL0     N 6047   4.411   3.635   1.730  0.2354  0.7584  0.9605
  804MOL0     C 6048   5.095   3.911   2.479  0.4278 -0.3489 -0.9955
  804MOL0     C 6049   5.208   3.834   2.462 -0.4642 -0.7589 -0.1192
  804MOL0     C 6050   5.607   3.691   2.250  0.8388 -0.5251  0.5322
  804MOL0     C 6051   5.589   3.558   2.221 -0.6506 -0.4476  0.0068
  804MOL0     C 6052   5.700   3.481   2.191  0.5079  0.5360 -0.1854
  804MOL0     C 6053   5.828   3.540   2.187  1.0545 -0.6127 -1.3619
  804MOL0     O 6054   5.928   3.442   2.161  0.2698 -0.5486  0.5287
  804MOL0     C 6055   6.062   3.499   2.174  0.4145 -0.3457 -0.1739
  804MOL0     C 6056   6.170   3.398   2.157  0.4446  0.5971 -0.0447
  804MOL0     C 6057   6.297   3.466   2.182 -0.8797  0.6897  0.7648
  804MOL0     C 6058   6.418   3.373   2.157  0.5343 -0.6983 -0.1922
  804MOL0     C 6059   6.546   3.444   2.185 -0.2639 -0.1627  0.5773
  804MOL0     C 6060   6.642   3.514   2.188  0.1516 -0.0115  0.3410
  804MOL0     C 6061   5.849   3.683   2.185  0.5130 -0.5348  0.7459
  804MOL0     C 6062   5.729   3.755   2.214  0.2885  0.3628  0.0338
  804MOL0     H 6063   5.224   3.847   2.122  0.4928  3.9950 -0.5060
  804MOL0     H 6064   5.041   3.993   2.159  0.6673 -0.6580 -1.2912
  804MOL0     H 6065   4.847   4.090   2.566  0.8144  0.9359 -0.0691
  804MOL0     H 6066   4.811   3.924   2.513 -0.2155 -0.3381  0.6477
  804MOL0     H 6067   4.672   4.167   2.391  0.8591 -0.6519 -0.0456
  804MOL0     H 6068   4.615   4.070   2.523  0.1835 -2.3648  0.3676
  804MOL0     H 6069   4.711   3.922   2.290 -0.0939  1.1131  0.2158
  804MOL0     H 6070   4.585   4.042   2.250  2.3189  2.4305 -0.0623
  804MOL0     H 6071   4.566   3.832   2.481  2.2597  1.3742 -0.6094
  804MOL0     H 6072   4.431   3.920   2.402 -0.6829  1.7760 -2.8932
  804MOL0     H 6073   4.430   3.695   2.338 -2.5526  2.1503 -0.1681
  804MOL0     H 6074   4.596   3.722   2.259 -0.0009 -2.2496  2.2577
  804MOL0     H 6075   4.391   3.918   2.165 -0.7039 -0.5835 -2.4110
  804MOL0     H 6076   4.317   3.762   2.177  0.0719 -0.9430  5.5025
  804MOL0     H 6077   4.544   3.857   2.000 -0.1533 -0.3158 -0.7133
  804MOL0     H 6078   4.531   3.681   2.032  3.8093  1.8948 -3.4236
  804MOL0     H 6079   4.300   3.861   1.935 -2.3325 -0.3121 -3.6281
  804MOL0     H 6080   4.286   3.691   1.957 -0.9804  0.3805 -3.5516
  804MOL0     H 6081   4.412   3.960   1.726  1.2566  0.6712 -2.3663
  804MOL0     H 6082   4.392   3.954   1.461  0.3112 -0.5648 -2.4277
  804MOL0     H 6083   4.371   3.795   1.393  3.2669 -5.2529  1.9783
  804MOL0     H 6084   4.583   3.868   1.287 -1.1858 -0.7014  0.1688
  804MOL0     H 6085   4.626   3.762   1.422  3.1864  1.2611 -0.8137
  804MOL0     H 6086   4.667   3.955   1.579  0.9229 -0.0095 -0.9083
  804MOL0     H 6087   4.770   3.933   1.428 -1.6145 -3.9375 -3.6986
  804MOL0     H 6088   4.647   4.127   1.331  2.8365  1.7672  1.0927
  804MOL0     H 6089   4.742   4.160   1.473  0.9426  0.0532 -0.3765
  804MOL0     H 6090   4.292   4.241   1.517 -0.4246 -0.6636  0.5984
  804MOL0     H 6091   4.189   4.441   1.431  0.2446 -0.3874 -0.6786
  804MOL0     H 6092   4.381   4.919   1.232  2.7082  2.8955 -2.4932
  804MOL0     H 6093   4.308   5.120   1.112  0.5437  0.1977 -0.3896
  804MOL0     H 6094   4.088   5.101   0.722  0.0705 -0.0057 -0.5606
  804MOL0     H 6095   4.265   5.057   0.706  3.1803  1.3213  2.4657
  804MOL0     H 6096   4.254   5.270   0.595 -0.8654  0.4967 -0.8729
  804MOL0     H 6097   4.333   5.292   0.741  1.2201 -1.3081 -1.4595
  804MOL0     H 6098   4.172   5.471   0.708 -1.3548 -0.0764  0.8068
  804MOL0     H 6099   4.147   5.396   0.861  3.2327  0.2850  0.3810
  804MOL0     H 6100   3.985   5.292   0.623 -1.2735 -1.2066  1.6030
  804MOL0     H 6101   3.957   5.272   0.793 -1.1236 -0.5606 -0.0873
  804MOL0     H 6102   3.959   5.529   0.619 -0.4391  2.4422  1.4599
  804MOL0     H 6103   3.908   5.531   0.789  0.3442 -1.8937  0.0260
  804MOL0     H 6104   3.779   5.374   0.564  0.8362 -0.4578  0.5570
  804MOL0     H 6105   3.734   5.538   0.603 -1.0425 -1.2799 -0.2620
  804MOL0     H 6106   3.584   5.356   0.714 -2.7448  3.8521  1.4378
  804MOL0     H 6107   3.725   5.322   0.812 -0.1941  0.4440  1.5550
  804MOL0     H 6108   3.694   5.577   0.870 -0.8885  0.4507  1.0664
  804MOL0     H 6109   3.584   5.464   0.941 -2.0805 -2.0737 -1.5337
  804MOL0     H 6110   4.134   4.876   0.809  2.0729  0.4128 -1.2799
  804MOL0     H 6111   4.196   4.669   0.926 -1.3968  1.3055 -0.9511
  804MOL0     H 6112   4.559   4.548   1.239  1.8429 -0.5334  0.6523
  804MOL0     H 6113   4.672   4.345   1.347 -0.3068 -1.5575 -0.1174
  804MOL0     H 6114   5.061   3.932   2.580 -0.9964 -0.1501 -1.5022
  804MOL0     H 6115   5.260   3.793   2.548 -2.2486 -0.0136  1.3972
  804MOL0     H 6116   5.492   3.512   2.234 -1.1627  0.0232 -1.8625
  804MOL0     H 6117   5.698   3.372   2.190 -0.9189  0.5143  1.5623
  804MOL0     H 6118   6.062   3.548   2.272 -2.3986  1.2599 -0.9014
  804MOL0     H 6119   6.084   3.573   2.097  4.1799 -0.5975  0.4634
  804MOL0     H 6120   6.166   3.316   2.229  4.1465  0.2661 -0.0088
  804MOL0     H 6121   6.171   3.362   2.054  1.3587  0.6027 -0.0443
  804MOL0     H 6122   6.305   3.497   2.287  0.7603  0.6733  0.6717
  804MOL0     H 6123   6.314   3.554   2.119 -0.2435 -0.3038 -0.4946
  804MOL0     H 6124   6.419   3.286   2.223 -1.6544  0.5602  1.6507
  804MOL0     H 6125   6.425   3.339   2.053  0.0195  1.2505 -0.9120
  804MOL0     H 6126   6.728   3.573   2.164 -0.3797  1.6535  2.3034
  804MOL0     H 6127   5.938   3.742   2.164  0.3847 -0.9327 -1.0614
  804MOL0     H 6128   5.730   3.863   2.222 -0.1964  0.3942 -0.2902
  805MOL0     O 6129   5.086   4.870   9.227 -0.7517 -0.2292  0.2742
  805MOL0     C 6130   5.139   4.913   9.125  0.2014 -0.2070 -0.4860
  805MOL0     O 6131   5.237   5.001   9.123 -0.2006  0.2699 -0.5866
  805MOL0     C 6132   5.317   5.017   9.233 -0.5881  0.5749 -0.3985
  805MOL0     C 6133   5.260   5.090   9.345  0.4473 -0.0440  1.3229
  805MOL0     C 6134   5.356   5.141   9.440  0.2990  0.4080  0.2491
  805MOL0     C 6135   5.488   5.098   9.443 -0.1106 -0.7114  0.2762
  805MOL0     O 6136   5.583   5.142   9.533  1.0272 -0.5745  0.1828
  805MOL0     C 6137   5.553   5.074   9.659  0.5649 -0.1954 -0.6679
  805MOL0     C 6138   5.671   5.105   9.753 -0.8260 -0.3967  0.0717
  805MOL0     C 6139   5.637   5.048   9.895  0.7152 -0.3833  0.2126
  805MOL0     C 6140   5.732   5.068  10.008  0.0906 -0.0830 -0.7101
  805MOL0     C 6141   5.874   5.025   9.961  0.6522  0.2799  0.0620
  805MOL0     C 6142   5.989   5.037  10.060 -0.9944 -0.1277  0.5609
  805MOL0     C 6143   6.121   5.000   9.988 -0.0815  0.4091  0.5504
  805MOL0     C 6144   6.205   5.111   9.964 -0.1969 -0.0619 -0.9308
  805MOL0     N 6145   6.169   5.189   9.843  0.3992 -0.0083 -0.5138
  805MOL0     C 6146   6.178   5.148   9.709  0.6342  0.4890  0.0903
  805MOL0     C 6147   6.122   5.249   9.640 -1.0380 -0.3354  0.1410
  805MOL0     C 6148   6.114   5.252   9.490  0.5718 -1.4694 -0.4414
  805MOL0     C 6149   5.969   5.274   9.429  0.2243 -0.0095  0.3618
  805MOL0     C 6150   5.964   5.256   9.275 -0.0417  0.4372  0.7010
  805MOL0     C 6151   5.818   5.283   9.226  0.4409 -0.2792  0.7754
  805MOL0     O 6152   5.821   5.297   9.086  0.4581 -0.3377 -0.0218
  805MOL0     C 6153   5.710   5.287   9.015 -0.8242 -0.7811  0.4894
  805MOL0     C 6154   5.581   5.271   9.060 -0.9443  0.5288 -0.2887
  805MOL0     C 6155   5.472   5.261   8.981 -0.2258  0.3725 -0.4350
  805MOL0     C 6156   5.483   5.287   8.839  0.3178 -0.7513  0.5265
  805MOL0     C 6157   5.368   5.274   8.746 -0.6646  0.3078 -0.6856
  805MOL0     O 6158   5.405   5.274   8.616  0.6949 -0.6845  0.5895
  805MOL0     C 6159   5.317   5.220   8.520  0.9581 -0.0598  0.8952
  805MOL0     C 6160   5.345   5.108   8.448  0.4992 -0.0375 -0.6225
  805MOL0     C 6161   5.250   5.056   8.353  0.0615 -0.2260  0.1820
  805MOL0     C 6162   5.129   5.124   8.338  0.0104  0.1982 -0.3194
  805MOL0     O 6163   5.043   5.085   8.235  0.5019 -0.5912 -0.3768
  805MOL0     C 6164   4.900   5.091   8.265  0.5042 -0.5353 -0.0474
  805MOL0     C 6165   4.825   4.996   8.172  0.1747  0.3462 -0.4058
  805MOL0     C 6166   4.668   5.004   8.179  0.0817  0.4640 -0.4657
  805MOL0     C 6167   4.612   4.881   8.101  0.4526 -0.4876  0.4640
  805MOL0     C 6168   4.462   4.901   8.054 -0.4075  0.0520  0.8599
  805MOL0     C 6169   4.425   4.814   7.936 -0.0285 -0.1382  0.4570
  805MOL0     C 6170   4.403   4.676   7.992 -0.4219  0.3241 -0.2911
  805MOL0     C 6171   4.404   4.574   7.879  0.2190  0.2563  0.3870
  805MOL0    Cl 6172   4.257   4.609   7.780  0.2053  0.3113 -0.3205
  805MOL0     C 6173   5.102   5.230   8.411 -0.2996  0.1204 -0.6982
  805MOL0     C 6174   5.194   5.280   8.502  0.1304  0.1422 -0.2634
  805MOL0     O 6175   5.252   5.258   8.795  0.2327 -0.2256 -0.4296
  805MOL0     C 6176   5.612   5.318   8.787  0.2121 -0.3395 -0.6917
  805MOL0     C 6177   5.722   5.310   8.875  0.2487  0.4174  0.2545
  805MOL0     N 6178   6.109   5.362   9.728  0.9758  0.3158  0.1371
  805MOL0     N 6179   6.148   5.329   9.847  0.5089 -0.3132 -0.0756
  805MOL0     C 6180   5.536   5.016   9.343  1.2438  0.1940 -0.7463
  805MOL0     C 6181   5.457   4.984   9.232  0.6137  0.1571 -0.2008
  805MOL0     C 6182   5.095   4.862   8.987  0.0089 -0.3211 -0.1778
  805MOL0     C 6183   5.142   4.914   8.864 -0.2944 -0.0613  0.3903
  805MOL0     C 6184   5.101   4.874   8.741 -0.6383 -0.0027 -1.2178
  805MOL0     C 6185   5.014   4.773   8.728  0.0422 -0.3306 -0.4576
  805MOL0     O 6186   4.977   4.739   8.603 -0.6437 -0.4189  0.0654
  805MOL0     C 6187   4.842   4.695   8.585 -0.8690  0.0630  0.2626
  805MOL0     C 6188   4.777   4.763   8.464 -0.5454  0.4204 -0.4290
  805MOL0     C 6189   4.629   4.744   8.452  0.1220 -0.5719 -0.3243
  805MOL0     C 6190   4.543   4.810   8.560  0.1180  0.5291  0.7677
  805MOL0     C 6191   4.586   4.948   8.584  0.3589 -1.0564 -0.5761
  805MOL0     C 6192   4.624   5.062   8.591  0.1804 -0.2383 -0.5137
  805MOL0     C 6193   4.956   4.715   8.851 -0.0489  0.2914  0.4270
  805MOL0     C 6194   5.003   4.755   8.979 -0.9212 -0.1190  0.0625
  805MOL0     H 6195   5.155   5.112   9.326  0.6339 -1.2230 -1.6720
  805MOL0     H 6196   5.326   5.214   9.515  2.1624  0.4796  0.9764
  805MOL0     H 6197   5.533   4.967   9.654  2.3483 -0.5290 -1.2029
  805MOL0     H 6198   5.465   5.126   9.698 -1.5223 -2.3145 -2.2360
  805MOL0     H 6199   5.692   5.212   9.750 -1.0360 -0.3804 -2.4954
  805MOL0     H 6200   5.760   5.052   9.720  0.3433 -0.5178  3.0570
  805MOL0     H 6201   5.606   4.943   9.888  1.0260 -0.4478 -0.2115
  805MOL0     H 6202   5.553   5.115   9.917  0.4479 -0.0500 -1.6540
  805MOL0     H 6203   5.745   5.173  10.037  2.1388 -0.2655 -0.8775
  805MOL0     H 6204   5.694   5.017  10.097  0.8639  1.5650  0.6203
  805MOL0     H 6205   5.889   5.097   9.880 -3.1731  0.0828 -1.0291
  805MOL0     H 6206   5.879   4.927   9.912 -0.6883 -0.8001  1.8933
  805MOL0     H 6207   5.968   4.963  10.137  2.0952 -2.7039 -0.8191
  805MOL0     H 6208   5.996   5.139  10.099 -0.9230 -0.0465  0.3353
  805MOL0     H 6209   6.170   4.923  10.048 -3.2070 -3.1676 -1.0879
  805MOL0     H 6210   6.099   4.948   9.894 -4.5630  1.0250  1.0420
  805MOL0     H 6211   6.307   5.072   9.951 -0.0963 -0.7597  1.3389
  805MOL0     H 6212   6.213   5.174  10.053  2.6565 -2.9325  1.0724
  805MOL0     H 6213   6.218   5.054   9.672 -2.4663 -0.7876 -0.2652
  805MOL0     H 6214   6.149   5.157   9.449  0.9755 -1.8824  0.8116
  805MOL0     H 6215   6.173   5.341   9.467 -0.3087  0.1202  2.9062
  805MOL0     H 6216   5.937   5.373   9.462 -1.5921 -0.7359  0.9138
  805MOL0     H 6217   5.914   5.191   9.475  1.0076 -0.6345  0.1973
  805MOL0     H 6218   6.046   5.314   9.231  0.3342 -0.7640 -0.2502
  805MOL0     H 6219   5.991   5.155   9.243  0.0644  1.3316 -2.4285
  805MOL0     H 6220   5.786   5.378   9.270 -0.1178 -0.2257  0.2625
  805MOL0     H 6221   5.739   5.212   9.251 -2.6726  1.6856 -2.5473
  805MOL0     H 6222   5.561   5.255   9.166 -0.3978 -2.0220 -0.5117
  805MOL0     H 6223   5.374   5.248   9.028 -0.0194 -0.1197 -0.1308
  805MOL0     H 6224   5.439   5.054   8.451  1.0459  0.9325  1.4479
  805MOL0     H 6225   5.275   4.972   8.289 -0.4666 -0.3178  0.0876
  805MOL0     H 6226   4.860   5.188   8.234  1.3107  0.0992  0.8484
  805MOL0     H 6227   4.875   5.088   8.371  0.4428 -1.7430 -0.0847
  805MOL0     H 6228   4.854   4.893   8.194 -0.1722 -0.0866 -1.8790
  805MOL0     H 6229   4.853   5.003   8.066  2.0758 -0.2595  0.0104
  805MOL0     H 6230   4.640   5.096   8.128  3.4466  2.1391  0.3937
  805MOL0     H 6231   4.632   5.015   8.282  2.0060  1.5120  0.1403
  805MOL0     H 6232   4.669   4.873   8.008 -2.2227  0.6463 -1.4020
  805MOL0     H 6233   4.636   4.781   8.140  0.4064 -0.1542  1.3856
  805MOL0     H 6234   4.457   5.007   8.026  1.0451 -0.1088 -0.1161
  805MOL0     H 6235   4.410   4.877   8.148  1.1472 -4.7043  0.7525
  805MOL0     H 6236   4.507   4.816   7.865  1.7893 -0.5689  2.4509
  805MOL0     H 6237   4.335   4.839   7.879 -0.4977 -1.3519  0.6459
  805MOL0     H 6238   4.483   4.650   8.062  0.1155  2.9388  0.1966
  805MOL0     H 6239   4.311   4.670   8.050 -1.2975 -4.4543 -1.7726
  805MOL0     H 6240   4.406   4.475   7.925 -2.9329 -0.4749 -0.8090
  805MOL0     H 6241   4.489   4.589   7.812  0.2965  0.5843  0.5569
  805MOL0     H 6242   5.012   5.291   8.403  1.4942  3.3221  1.3420
  805MOL0     H 6243   5.174   5.363   8.568 -1.1653 -1.1646  1.0787
  805MOL0     H 6244   5.629   5.339   8.682 -2.5921 -1.3773 -1.4372
  805MOL0     H 6245   5.822   5.334   8.841  0.6182 -1.6071 -0.1975
  805MOL0     H 6246   5.643   4.996   9.343  1.5325  1.4206 -3.0487
  805MOL0     H 6247   5.492   4.940   9.139 -3.4645 -4.4641 -0.0166
  805MOL0     H 6248   5.206   5.002   8.861 -1.7875  1.1840 -4.8017
  805MOL0     H 6249   5.164   4.902   8.658  0.3076 -0.0515 -0.5348
  805MOL0     H 6250   4.780   4.717   8.673 -1.8862  2.6099 -0.9810
  805MOL0     H 6251   4.845   4.588   8.565 -2.2105  0.2352 -1.0292
  805MOL0     H 6252   4.804   4.869   8.471  0.5839  0.1073  0.1812
  805MOL0     H 6253   4.823   4.716   8.378  2.7217 -1.2061  1.9875
  805MOL0     H 6254   4.602   4.639   8.445  3.4916 -1.4849 -1.6008
  805MOL0     H 6255   4.601   4.794   8.358  0.6081  3.0594  1.2645
  805MOL0     H 6256   4.438   4.798   8.529  0.6531 -1.3120 -0.5720
  805MOL0     H 6257   4.557   4.752   8.652  1.2785  0.0762  0.3257
  805MOL0     H 6258   4.666   5.160   8.587  0.5336 -0.3720 -0.1438
  805MOL0     H 6259   4.880   4.639   8.843  1.6881 -1.3705 -1.3334
  805MOL0     H 6260   4.952   4.714   9.066 -0.1170 -0.6324  0.3001
  806MOL0     O 6261   6.064  11.091   0.268  0.2784 -0.2889  0.2193
  806MOL0     C 6262   6.156  11.154   0.317 -0.0496 -1.7731  0.8685
  806MOL0     O 6263   6.137  11.277   0.378 -0.0928 -0.7904  0.8505
  806MOL0     C 6264   6.016  11.342   0.358  0.0624 -0.0274 -0.2374
  806MOL0     C 6265   5.889  11.283   0.393 -0.0565  0.4979  0.5789
  806MOL0     C 6266   5.774  11.360   0.400  0.5558 -0.7913  0.2343
  806MOL0     C 6267   5.779  11.498   0.370 -0.0385  0.3034  0.1909
  806MOL0     O 6268   5.663  11.573   0.409 -0.1186 -0.3091 -0.5489
  806MOL0     C 6269   5.678  11.706   0.447  0.3365 -0.2126 -0.3041
  806MOL0     C 6270   5.572  11.801   0.395  0.2486 -0.1979 -0.0443
  806MOL0     C 6271   5.461  11.815   0.499 -0.6715  0.5258 -0.3114
  806MOL0     C 6272   5.354  11.915   0.436  0.2824  0.0586  0.5267
  806MOL0     C 6273   5.215  11.899   0.509  0.2578 -0.4679 -0.6785
  806MOL0     C 6274   5.112  11.983   0.425  0.3521  0.6079 -0.8916
  806MOL0     C 6275   5.110  12.131   0.476  0.2051 -0.0563  0.1715
  806MOL0     C 6276   4.983  12.206   0.431  0.1962 -0.4038 -0.3809
  806MOL0     N 6277   4.992  12.335   0.500 -0.2047  0.6433 -0.1272
  806MOL0     C 6278   4.933  12.369   0.618  0.2413 -0.7985  0.0776
  806MOL0     C 6279   4.965  12.497   0.633 -1.0082  0.2562 -0.3661
  806MOL0     C 6280   4.934  12.588   0.750  0.5096 -0.1929  0.1233
  806MOL0     C 6281   4.998  12.563   0.881 -1.1396 -0.5037 -0.0697
  806MOL0     C 6282   5.144  12.605   0.895 -0.2152  0.3959 -0.5793
  806MOL0     C 6283   5.215  12.519   1.000 -0.3314  0.2360 -0.4098
  806MOL0     O 6284   5.239  12.385   0.942 -0.0697 -0.4933  0.3018
  806MOL0     C 6285   5.354  12.355   0.874 -0.2237  0.2513 -0.3899
  806MOL0     C 6286   5.466  12.427   0.872  0.0756 -0.1306  0.0755
  806MOL0     C 6287   5.576  12.379   0.795 -0.3443 -0.8513  1.0674
  806MOL0     C 6288   5.572  12.259   0.718 -0.1809  1.4142 -1.1247
  806MOL0     C 6289   5.688  12.203   0.645  0.1064  0.6693  0.2679
  806MOL0     O 6290   5.658  12.114   0.538  0.2799 -0.4293 -0.7601
  806MOL0     C 6291   5.774  12.065   0.474 -1.7167  0.1911 -0.8143
  806MOL0     C 6292   5.881  12.005   0.541 -0.5210 -1.1704 -0.5599
  806MOL0     C 6293   5.987  11.941   0.476 -0.7065 -0.5918  0.1786
  806MOL0     C 6294   5.991  11.949   0.336  0.9337  0.1680 -0.2472
  806MOL0     O 6295   6.095  11.892   0.266 -0.1657 -0.1842  0.1283
  806MOL0     C 6296   6.200  11.826   0.331  0.7786  0.1801 -0.1777
  806MOL0     C 6297   6.301  11.799   0.224  0.2386  0.0694 -0.3492
  806MOL0     C 6298   6.432  11.747   0.265  0.7946  0.0267 -1.0117
  806MOL0     C 6299   6.471  11.613   0.195 -0.4000 -0.2214  0.6668
  806MOL0     C 6300   6.632  11.601   0.186 -0.3743  0.7354  0.8354
  806MOL0     C 6301   6.657  11.465   0.115  0.7327  0.7903 -0.1728
  806MOL0     C 6302   6.801  11.447   0.073  0.2957 -0.3847  0.1190
  806MOL0     C 6303   6.828  11.321  -0.005  0.1431 -0.6702 -0.4126
  806MOL0    Cl 6304   7.000  11.285   0.014 -0.2430  0.5685  0.1676
  806MOL0     C 6305   5.891  12.005   0.263 -0.6702 -0.5551 -0.6995
  806MOL0     C 6306   5.782  12.069   0.336 -0.3910 -0.7457  0.0312
  806MOL0     O 6307   5.800  12.243   0.679 -0.9442 -0.4571 -0.3486
  806MOL0     C 6308   5.452  12.183   0.719  0.1249  1.0687 -0.3626
  806MOL0     C 6309   5.346  12.242   0.790 -0.6460 -0.3519 -0.3285
  806MOL0     N 6310   5.050  12.540   0.534  0.5983 -0.6246 -0.5450
  806MOL0     N 6311   5.067  12.436   0.459 -0.5684 -0.2362  0.2692
  806MOL0     C 6312   5.901  11.559   0.324  0.4130  0.0262  0.3265
  806MOL0     C 6313   6.017  11.478   0.317 -0.3471 -0.4214  0.1650
  806MOL0     C 6314   6.284  11.086   0.330 -0.7134  0.1875 -0.5955
  806MOL0     C 6315   6.289  10.946   0.336 -0.8204 -0.0467 -0.0410
  806MOL0     C 6316   6.414  10.883   0.347 -0.3772 -1.1495 -1.2636
  806MOL0     C 6317   6.536  10.960   0.347  0.4367 -0.4042  0.7900
  806MOL0     O 6318   6.649  10.890   0.322 -0.0460  0.7628  1.2487
  806MOL0     C 6319   6.775  10.955   0.312 -0.7895 -0.2265 -1.1993
  806MOL0     C 6320   6.864  10.840   0.345 -0.7318 -0.3019 -0.6585
  806MOL0     C 6321   7.017  10.875   0.348  0.0546 -0.0391 -0.0544
  806MOL0     C 6322   7.093  10.751   0.380 -0.8082  0.0168  0.1249
  806MOL0     C 6323   7.232  10.802   0.402  0.5233  0.2447  0.2815
  806MOL0     C 6324   7.349  10.837   0.432  0.4402 -0.4095 -0.6238
  806MOL0     C 6325   6.523  11.101   0.345  0.0337  0.0274 -0.6269
  806MOL0     C 6326   6.400  11.162   0.341  0.1439  0.6478 -0.0517
  806MOL0     H 6327   5.884  11.185   0.440  0.4483  0.6024  0.8698
  806MOL0     H 6328   5.684  11.319   0.443  2.0209 -1.4611  2.8844
  806MOL0     H 6329   5.768  11.744   0.399  1.6894 -3.9761 -1.1314
  806MOL0     H 6330   5.684  11.715   0.556 -3.4378 -0.9107  0.1122
  806MOL0     H 6331   5.526  11.758   0.306 -0.4286  2.2145 -0.9330
  806MOL0     H 6332   5.618  11.897   0.369 -2.1669  1.0880  0.1778
  806MOL0     H 6333   5.508  11.845   0.593  1.5397  3.0614 -2.0669
  806MOL0     H 6334   5.414  11.718   0.519 -1.0115  0.9666  1.1338
  806MOL0     H 6335   5.388  12.019   0.450 -1.6205  0.4710  2.7070
  806MOL0     H 6336   5.337  11.896   0.330 -0.2569  1.8840  0.2472
  806MOL0     H 6337   5.227  11.960   0.600  1.7246  0.6593 -1.5788
  806MOL0     H 6338   5.190  11.794   0.522  0.9862 -0.8303 -2.0680
  806MOL0     H 6339   5.012  11.943   0.439  1.4785 -2.0379  0.1671
  806MOL0     H 6340   5.139  11.975   0.319  2.7997 -0.0809 -0.2911
  806MOL0     H 6341   5.109  12.129   0.586 -0.4569 -4.2050  0.2618
  806MOL0     H 6342   5.195  12.192   0.445 -0.8876  1.3436 -0.1925
  806MOL0     H 6343   4.886  12.160   0.451  1.4548 -3.2706 -0.3638
  806MOL0     H 6344   4.979  12.239   0.327 -4.1084 -0.1464 -0.3239
  806MOL0     H 6345   4.866  12.315   0.684 -2.5568  2.1964 -0.0828
  806MOL0     H 6346   4.825  12.598   0.762  0.5657 -1.2077  1.8808
  806MOL0     H 6347   4.984  12.680   0.720  2.3992 -0.3046  2.6037
  806MOL0     H 6348   4.982  12.457   0.904  0.2722 -0.3552  1.7213
  806MOL0     H 6349   4.942  12.613   0.961 -1.6088 -2.6215  0.9991
  806MOL0     H 6350   5.197  12.602   0.799 -1.1541 -0.3764 -1.0850
  806MOL0     H 6351   5.152  12.708   0.932 -1.0043  0.6183 -1.0273
  806MOL0     H 6352   5.143  12.518   1.083  0.9249 -1.4282  0.7299
  806MOL0     H 6353   5.308  12.571   1.022  0.1121 -0.4562 -0.6008
  806MOL0     H 6354   5.482  12.520   0.925 -1.2617 -0.4504  1.0865
  806MOL0     H 6355   5.664  12.443   0.802  0.7671 -2.0068 -1.2299
  806MOL0     H 6356   5.872  12.002   0.649  0.5554  2.6376 -0.1958
  806MOL0     H 6357   6.061  11.891   0.538 -2.7113 -2.0589  1.5013
  806MOL0     H 6358   6.155  11.736   0.373  2.1451 -1.0726 -1.2647
  806MOL0     H 6359   6.250  11.876   0.414  1.8693 -2.1062  0.6024
  806MOL0     H 6360   6.316  11.886   0.160 -0.0860 -0.4040 -1.0823
  806MOL0     H 6361   6.266  11.725   0.151  0.0697 -1.0250  0.7967
  806MOL0     H 6362   6.414  11.728   0.371 -2.9723  1.8383 -1.1445
  806MOL0     H 6363   6.511  11.819   0.242 -0.3210  1.3291 -0.8521
  806MOL0     H 6364   6.422  11.535   0.255  0.1324  0.6901  2.3367
  806MOL0     H 6365   6.436  11.612   0.091 -3.0232  0.3178  1.4621
  806MOL0     H 6366   6.668  11.600   0.290 -1.8660  2.4963  1.4257
  806MOL0     H 6367   6.678  11.681   0.128 -0.6701  0.7172  0.5765
  806MOL0     H 6368   6.594  11.480   0.027 -2.0594  1.7081  1.8450
  806MOL0     H 6369   6.626  11.378   0.174  0.6964 -0.5340 -2.0799
  806MOL0     H 6370   6.832  11.535   0.015 -1.8015  0.1143 -0.3401
  806MOL0     H 6371   6.861  11.447   0.164  0.7567 -0.4178 -0.1805
  806MOL0     H 6372   6.792  11.335  -0.108 -1.2665 -0.2043  0.1106
  806MOL0     H 6373   6.766  11.239   0.033 -1.2836  0.0892 -0.9902
  806MOL0     H 6374   5.892  12.014   0.154  1.7236  1.5734 -0.6129
  806MOL0     H 6375   5.699  12.112   0.279  0.6925  1.3693 -0.0588
  806MOL0     H 6376   5.436  12.096   0.656  0.5727 -1.2748  2.5610
  806MOL0     H 6377   5.255  12.186   0.774  0.3641 -1.5684 -2.1991
  806MOL0     H 6378   5.906  11.664   0.298 -0.5553  0.8222  2.9876
  806MOL0     H 6379   6.111  11.524   0.287 -0.9118  0.1563 -0.7855
  806MOL0     H 6380   6.197  10.889   0.326 -1.2727  0.0879  2.7898
  806MOL0     H 6381   6.422  10.775   0.335 -2.4355 -1.4074 -0.6351
  806MOL0     H 6382   6.796  11.022   0.396  2.2325 -2.7481  0.2974
  806MOL0     H 6383   6.792  11.007   0.218  0.1538 -0.8233 -1.3809
  806MOL0     H 6384   6.831  10.817   0.447 -0.7983  1.7570 -0.1683
  806MOL0     H 6385   6.843  10.749   0.288  1.3310 -0.1028 -1.8080
  806MOL0     H 6386   7.035  10.952   0.424 -0.7542 -0.1906  0.2997
  806MOL0     H 6387   7.041  10.918   0.250 -0.3281  2.0192  0.7115
  806MOL0     H 6388   7.056  10.705   0.473 -1.2944 -3.4499 -1.6090
  806MOL0     H 6389   7.091  10.673   0.304  0.3350 -2.5961  2.5700
  806MOL0     H 6390   7.444  10.874   0.465  0.1402 -2.1195  2.6718
  806MOL0     H 6391   6.612  11.161   0.339 -0.8308  1.1975 -2.4947
  806MOL0     H 6392   6.389  11.270   0.345 -3.8519  0.3578  1.2454
  807MOL0     O 6393   2.633   5.780  10.385  0.2380 -0.1290 -0.0148
  807MOL0     C 6394   2.544   5.819  10.322  0.7725 -1.1485  0.4947
  807MOL0     O 6395   2.548   5.898  10.215 -0.5682 -0.2959 -0.2933
  807MOL0     C 6396   2.677   5.936  10.155 -0.3512  0.9554  0.1417
  807MOL0     C 6397   2.737   6.064  10.177 -0.4556  0.8581  1.0349
  807MOL0     C 6398   2.870   6.081  10.127 -0.8619 -0.9394  0.6725
  807MOL0     C 6399   2.946   5.980  10.058  0.5760  0.7325 -0.4134
  807MOL0     O 6400   3.072   6.004  10.009 -0.2111 -0.2677  0.2965
  807MOL0     C 6401   3.149   5.892   9.978 -0.6793 -0.1841 -0.4962
  807MOL0     C 6402   3.293   5.938  10.003  0.0585 -0.0469  0.0814
  807MOL0     C 6403   3.324   5.967  10.152 -0.2014  0.2939 -0.6102
  807MOL0     C 6404   3.452   6.050  10.165 -0.4114 -0.4673 -0.7164
  807MOL0     C 6405   3.476   6.068  10.311 -0.3076 -0.4531 -0.3519
  807MOL0     C 6406   3.616   6.115  10.354 -0.0149 -0.3101  0.4902
  807MOL0     C 6407   3.617   6.266  10.321 -0.6893  0.5996  0.3478
  807MOL0     C 6408   3.658   6.309  10.172  0.5418 -0.0659  1.2512
  807MOL0     N 6409   3.801   6.352  10.160 -0.2840  0.1578 -0.2218
  807MOL0     C 6410   3.916   6.295  10.219 -0.0719  0.8278  0.3336
  807MOL0     C 6411   4.016   6.382  10.193 -0.3410 -0.4209 -1.3111
  807MOL0     C 6412   4.153   6.378  10.224 -0.9762  0.7678  0.5436
  807MOL0     C 6413   4.183   6.440  10.368  0.0292  1.1659  0.8578
  807MOL0     C 6414   4.328   6.460  10.406  0.2086 -0.3561  0.1299
  807MOL0     C 6415   4.372   6.614  10.386  0.5007  0.6023  0.1033
  807MOL0     O 6416   4.402   6.626  10.242  0.0141 -0.3983 -0.0909
  807MOL0     C 6417   4.531   6.606  10.222 -0.0386 -0.0814 -0.1267
  807MOL0     C 6418   4.583   6.477  10.192  0.0524 -0.1762 -0.2056
  807MOL0     C 6419   4.725   6.455  10.185 -0.4250  0.6162  0.2960
  807MOL0     C 6420   4.813   6.566  10.185  0.2315 -0.6742  0.3839
  807MOL0     C 6421   4.947   6.553  10.140 -0.1714  0.1724 -0.0402
  807MOL0     O 6422   5.028   6.653  10.179  0.2522 -0.2476  0.5006
  807MOL0     C 6423   5.163   6.633  10.165 -0.0632 -0.3668 -0.3842
  807MOL0     C 6424   5.240   6.728  10.084 -0.1009  1.0114  0.4562
  807MOL0     C 6425   5.375   6.715  10.071 -0.1656  1.0722 -0.1620
  807MOL0     C 6426   5.439   6.609  10.149 -0.6457 -0.4951  0.2217
  807MOL0     O 6427   5.576   6.583  10.127  1.2140  0.4108  0.4325
  807MOL0     C 6428   5.652   6.544  10.243 -0.1764  0.4344  0.8645
  807MOL0     C 6429   5.785   6.624  10.252 -0.2813 -1.4528  0.8687
  807MOL0     C 6430   5.880   6.583  10.365  0.3679 -0.1994  0.1345
  807MOL0     C 6431   5.988   6.692  10.378 -0.3078  0.2512 -0.7875
  807MOL0     C 6432   6.092   6.654  10.486 -0.2191  0.0913 -0.2759
  807MOL0     C 6433   6.211   6.757  10.480 -0.1443  0.8410  0.3854
  807MOL0     C 6434   6.302   6.729  10.598 -0.9099 -0.0013 -0.0151
  807MOL0     C 6435   6.443   6.803  10.591  0.5413  0.0682 -0.5921
  807MOL0    Cl 6436   6.428   6.971  10.525 -0.5820 -0.6052  0.1571
  807MOL0     C 6437   5.369   6.533  10.239 -0.6646 -0.4073 -0.4910
  807MOL0     C 6438   5.233   6.546  10.249  0.6638 -1.8835  0.8665
  807MOL0     O 6439   4.980   6.459  10.075  0.3517 -0.0589  0.4101
  807MOL0     C 6440   4.762   6.689  10.206 -0.9941 -0.3263 -0.3613
  807MOL0     C 6441   4.625   6.710  10.222  0.8484  0.7159  0.6541
  807MOL0     N 6442   3.964   6.489  10.128 -0.4729 -0.9200  0.8214
  807MOL0     N 6443   3.834   6.474  10.111 -0.7460 -0.3287 -0.4768
  807MOL0     C 6444   2.871   5.862  10.031  0.1182  1.6676  0.0268
  807MOL0     C 6445   2.747   5.841  10.081  0.8888 -0.4242 -0.7423
  807MOL0     C 6446   2.411   5.788  10.380  0.7077  0.7612  0.5275
  807MOL0     C 6447   2.289   5.829  10.324 -0.0931  0.0654  0.3104
  807MOL0     C 6448   2.160   5.781  10.366 -0.1802 -0.5313  0.3044
  807MOL0     C 6449   2.165   5.686  10.477  0.9673  0.2148 -0.2517
  807MOL0     O 6450   2.055   5.629  10.538  0.2007 -0.1656  0.9425
  807MOL0     C 6451   1.937   5.711  10.542  0.1501 -0.1666 -0.0267
  807MOL0     C 6452   1.821   5.616  10.576  0.3577 -0.7463 -0.6645
  807MOL0     C 6453   1.798   5.503  10.476  0.2934 -0.2039 -0.1345
  807MOL0     C 6454   1.706   5.401  10.536  0.4857  0.5386 -0.2575
  807MOL0     C 6455   1.567   5.437  10.537  0.3699 -0.0292  0.3678
  807MOL0     C 6456   1.450   5.476  10.554 -0.8097 -1.0408 -0.9584
  807MOL0     C 6457   2.287   5.636  10.526  0.5773 -0.6496 -0.6662
  807MOL0     C 6458   2.409   5.682  10.480  0.3470  0.0955  0.2355
  807MOL0     H 6459   2.680   6.143  10.224  1.2617  2.8173 -0.0345
  807MOL0     H 6460   2.917   6.178  10.141  2.4349 -2.3416  0.2973
  807MOL0     H 6461   3.143   5.870   9.871  2.7527 -0.9814 -0.6264
  807MOL0     H 6462   3.124   5.801  10.033  0.8071 -0.5299 -0.3594
  807MOL0     H 6463   3.312   6.032   9.950  0.8548 -0.5712 -0.5951
  807MOL0     H 6464   3.367   5.866   9.966 -0.4836 -0.3034 -0.5216
  807MOL0     H 6465   3.345   5.873  10.204  2.7786  1.1401 -0.0609
  807MOL0     H 6466   3.239   6.019  10.195 -0.8223 -0.5096 -0.8464
  807MOL0     H 6467   3.535   5.992  10.124  0.6833  1.0745 -0.7544
  807MOL0     H 6468   3.440   6.145  10.113  2.6958  1.4142  1.6668
  807MOL0     H 6469   3.459   5.977  10.369 -1.5017 -0.6528 -0.9734
  807MOL0     H 6470   3.398   6.134  10.350  2.1760  4.8711 -3.2412
  807MOL0     H 6471   3.696   6.068  10.297  0.8088  2.0952 -0.4341
  807MOL0     H 6472   3.631   6.099  10.462 -1.3507 -0.2644  0.7024
  807MOL0     H 6473   3.518   6.309  10.340 -0.6898  1.6818 -1.7784
  807MOL0     H 6474   3.690   6.310  10.390  1.1029  0.2216 -1.2277
  807MOL0     H 6475   3.588   6.384  10.133 -0.0558  1.5245  4.8915
  807MOL0     H 6476   3.651   6.217  10.113  0.9110  1.3907 -1.1950
  807MOL0     H 6477   3.940   6.196  10.254  0.1648  0.4173 -0.9312
  807MOL0     H 6478   4.199   6.437  10.144 -3.7136  0.0447 -1.7179
  807MOL0     H 6479   4.196   6.278  10.225  3.3348  2.3421 -1.4470
  807MOL0     H 6480   4.143   6.369  10.440 -0.1308  0.0649 -0.2837
  807MOL0     H 6481   4.129   6.535  10.375  1.1028  1.9547 -0.8616
  807MOL0     H 6482   4.329   6.443  10.514  3.9012  0.1164  0.2943
  807MOL0     H 6483   4.406   6.395  10.366  1.6744  0.9736  0.7467
  807MOL0     H 6484   4.453   6.629  10.458  1.3043 -1.4956 -0.2727
  807MOL0     H 6485   4.285   6.676  10.410 -0.1136  0.0569 -0.6684
  807MOL0     H 6486   4.506   6.401  10.197 -2.9495  2.6814  3.9798
  807MOL0     H 6487   4.773   6.362  10.157 -1.2728  1.0429 -3.0639
  807MOL0     H 6488   5.182   6.800  10.027  1.2355  1.1896 -0.7491
  807MOL0     H 6489   5.433   6.784  10.011 -0.1811  1.7455  0.5839
  807MOL0     H 6490   5.680   6.439  10.246 -1.3946  0.0922  1.1530
  807MOL0     H 6491   5.599   6.561  10.338  1.6481  0.3331  1.9506
  807MOL0     H 6492   5.755   6.728  10.261 -0.7563 -1.3582 -1.2959
  807MOL0     H 6493   5.836   6.604  10.157 -3.1201  2.5515 -1.8143
  807MOL0     H 6494   5.910   6.481  10.340 -2.1852 -0.8452 -0.5714
  807MOL0     H 6495   5.811   6.573  10.449  0.0099  1.1681  0.0154
  807MOL0     H 6496   6.030   6.706  10.278  0.1891 -0.0080 -0.6163
  807MOL0     H 6497   5.936   6.783  10.409  0.2316  0.2361  0.1816
  807MOL0     H 6498   6.130   6.554  10.462  0.2239  0.4970 -1.3269
  807MOL0     H 6499   6.049   6.665  10.586 -1.1281 -0.3209 -0.6156
  807MOL0     H 6500   6.183   6.862  10.494  3.9672  2.0844  0.6275
  807MOL0     H 6501   6.258   6.749  10.382 -1.3470  0.9949 -0.2262
  807MOL0     H 6502   6.261   6.752  10.697  3.9010 -1.9695  2.7628
  807MOL0     H 6503   6.322   6.621  10.605  1.2720  0.4710  2.4254
  807MOL0     H 6504   6.504   6.743  10.523  1.3390  0.5539 -0.3071
  807MOL0     H 6505   6.499   6.817  10.684 -2.1897 -0.8241  1.3268
  807MOL0     H 6506   5.413   6.452  10.297 -0.5176 -0.9359 -1.3328
  807MOL0     H 6507   5.173   6.475  10.306 -1.3358  1.2693  3.0571
  807MOL0     H 6508   4.828   6.774  10.192  0.7678 -1.4873  0.5847
  807MOL0     H 6509   4.570   6.801  10.246  0.2792  0.2133  1.2958
  807MOL0     H 6510   2.922   5.788   9.970  0.9511  1.9118  0.4122
  807MOL0     H 6511   2.688   5.752  10.065 -0.7657  0.9817 -3.1205
  807MOL0     H 6512   2.296   5.900  10.242  1.7813 -1.4273 -0.8764
  807MOL0     H 6513   2.076   5.831  10.318  0.7968  1.2987  0.3916
  807MOL0     H 6514   1.924   5.762  10.446  2.3257  3.8209  1.5616
  807MOL0     H 6515   1.929   5.783  10.623 -0.1423 -0.4347  0.1905
  807MOL0     H 6516   1.853   5.571  10.671  0.0808  1.4403  0.5274
  807MOL0     H 6517   1.725   5.668  10.586 -0.1821 -2.0224  1.5408
  807MOL0     H 6518   1.890   5.448  10.452  0.9903  1.6937 -2.1457
  807MOL0     H 6519   1.757   5.536  10.380  1.6482  1.6935 -0.1109
  807MOL0     H 6520   1.710   5.308  10.478  0.7614 -0.3149  1.0841
  807MOL0     H 6521   1.738   5.384  10.639 -0.2146 -0.3206 -0.1716
  807MOL0     H 6522   1.354   5.518  10.572  0.4866  3.9750 -3.8191
  807MOL0     H 6523   2.285   5.561  10.605  1.3814 -0.0880 -0.1056
  807MOL0     H 6524   2.506   5.640  10.509  0.8901  0.4787 -0.9679
  808MOL0     O 6525   1.040   6.288  10.147  0.0265 -0.2561  0.5091
  808MOL0     C 6526   1.065   6.170  10.135 -0.8918 -0.1168 -0.1860
  808MOL0     O 6527   1.061   6.079  10.233 -0.2496  0.3420 -0.2991
  808MOL0     C 6528   0.993   6.115  10.349 -0.9484  0.4922  0.2052
  808MOL0     C 6529   0.855   6.151  10.349 -0.5875  1.1183  0.7134
  808MOL0     C 6530   0.784   6.153  10.467  0.1386  0.7394 -0.4984
  808MOL0     C 6531   0.843   6.116  10.588 -0.7274 -0.4324 -0.5854
  808MOL0     O 6532   0.760   6.145  10.689  0.4176 -0.4361 -0.0187
  808MOL0     C 6533   0.795   6.116  10.829 -1.5803  0.4744  0.8891
  808MOL0     C 6534   0.791   5.972  10.865  0.4443 -0.3798 -0.1786
  808MOL0     C 6535   0.651   5.909  10.823 -0.0227 -0.5315  0.1235
  808MOL0     C 6536   0.637   5.755  10.827 -0.1167 -0.0906 -0.0215
  808MOL0     C 6537   0.613   5.695  10.963 -0.4123  0.1754  0.1044
  808MOL0     C 6538   0.466   5.712  11.011 -0.6396 -0.7493  0.6271
  808MOL0     C 6539   0.437   5.620  11.131 -0.7148  0.1403  0.6112
  808MOL0     C 6540   0.470   5.467  11.127 -0.0948  0.0922 -0.0516
  808MOL0     N 6541   0.405   5.389  11.020 -0.5806 -0.5731 -0.0794
  808MOL0     C 6542   0.282   5.335  11.029 -0.0283  0.7706  0.3536
  808MOL0     C 6543   0.242   5.311  10.901  0.4233 -0.2088  0.4416
  808MOL0     C 6544   0.124   5.227  10.869  0.6030 -0.7501  0.6029
  808MOL0     C 6545   0.003   5.263  10.960  0.4005 -0.7468 -0.1116
  808MOL0     C 6546  -0.070   5.390  10.911  0.6308  0.1884 -0.6880
  808MOL0     C 6547  -0.223   5.375  10.898 -0.2961  0.0373 -0.2257
  808MOL0     O 6548  -0.269   5.307  11.016 -0.0760 -0.2977 -0.0263
  808MOL0     C 6549  -0.398   5.292  11.045  0.7265  0.0634  0.5403
  808MOL0     C 6550  -0.445   5.236  11.168 -0.4134  0.1559  0.3839
  808MOL0     C 6551  -0.573   5.237  11.206  1.1117  0.0198 -0.0522
  808MOL0     C 6552  -0.675   5.293  11.118 -0.2117  0.5655 -0.3990
  808MOL0     C 6553  -0.813   5.302  11.155 -0.1739 -0.1765  0.2749
  808MOL0     O 6554  -0.844   5.252  11.279  0.2317  0.2565 -0.2163
  808MOL0     C 6555  -0.972   5.200  11.297  0.4659 -0.2693  0.2349
  808MOL0     C 6556  -1.004   5.068  11.284 -0.0697 -0.7072 -0.0434
  808MOL0     C 6557  -1.127   5.023  11.313  0.2421  0.4628  0.3380
  808MOL0     C 6558  -1.210   5.098  11.391 -0.1194  0.0768 -0.6641
  808MOL0     O 6559  -1.313   5.032  11.454  1.3423  0.1415  0.5394
  808MOL0     C 6560  -1.450   5.088  11.445 -0.5617 -0.0187  0.2552
  808MOL0     C 6561  -1.536   4.980  11.379 -0.4557  0.0762 -0.9216
  808MOL0     C 6562  -1.474   4.928  11.250  0.1637 -0.2183  0.7948
  808MOL0     C 6563  -1.564   4.829  11.179 -0.3741  0.1508 -0.2574
  808MOL0     C 6564  -1.477   4.763  11.066  0.3709 -0.1858  0.6224
  808MOL0     C 6565  -1.530   4.638  11.001  0.3237  0.4411 -0.4057
  808MOL0     C 6566  -1.506   4.524  11.102  0.6549  0.6195 -1.2461
  808MOL0     C 6567  -1.401   4.428  11.054 -1.5424  0.5218  0.0903
  808MOL0    Cl 6568  -1.365   4.312  11.182  0.7804 -0.2585  0.3160
  808MOL0     C 6569  -1.193   5.235  11.406  0.4615 -0.4068 -0.0453
  808MOL0     C 6570  -1.070   5.283  11.366  0.5977 -0.0561 -0.3322
  808MOL0     O 6571  -0.894   5.334  11.072 -0.3394  0.2469 -0.7567
  808MOL0     C 6572  -0.637   5.347  10.990  0.0617  0.4640 -0.6427
  808MOL0     C 6573  -0.501   5.354  10.968 -0.7111 -0.3953  0.8581
  808MOL0     N 6574   0.334   5.357  10.816 -0.8181  0.1429  0.1810
  808MOL0     N 6575   0.431   5.408  10.885 -0.2965 -0.2339 -0.7070
  808MOL0     C 6576   0.976   6.068  10.587  0.1845 -0.1196 -0.8101
  808MOL0     C 6577   1.047   6.068  10.472  0.0739 -0.1686  0.2258
  808MOL0     C 6578   1.116   6.117  10.009 -1.0405  0.3632  0.0533
  808MOL0     C 6579   1.106   6.192   9.896  0.8514 -0.6846  0.5617
  808MOL0     C 6580   1.142   6.126   9.772 -0.3410 -0.9339 -0.3730
  808MOL0     C 6581   1.176   5.988   9.764  0.6601  0.1763 -0.5970
  808MOL0     O 6582   1.212   5.913   9.649 -0.2700 -0.8672  0.3157
  808MOL0     C 6583   1.190   5.976   9.519 -0.1289  0.5115 -0.0775
  808MOL0     C 6584   1.215   5.864   9.414 -0.1066 -0.1522 -0.2752
  808MOL0     C 6585   1.207   5.907   9.268 -0.0927 -0.7612  0.0591
  808MOL0     C 6586   1.334   5.971   9.219 -0.2024 -0.3953 -0.9333
  808MOL0     C 6587   1.450   5.884   9.212  0.2821 -0.1441 -0.4419
  808MOL0     C 6588   1.546   5.816   9.179 -0.6874  0.0469  0.2190
  808MOL0     C 6589   1.176   5.916   9.884  0.1377 -0.4166 -0.4505
  808MOL0     C 6590   1.156   5.985  10.009 -0.1538  0.7341  0.9801
  808MOL0     H 6591   0.806   6.175  10.255  1.3236  1.6973 -0.1814
  808MOL0     H 6592   0.681   6.187  10.462 -0.2336 -0.4158 -1.0368
  808MOL0     H 6593   0.716   6.179  10.873 -0.4303  2.2101  0.5504
  808MOL0     H 6594   0.897   6.151  10.847 -1.4541  0.8765 -0.5295
  808MOL0     H 6595   0.810   5.968  10.972 -0.8126  2.0270  0.2181
  808MOL0     H 6596   0.880   5.923  10.824  1.6910  1.8160 -0.2604
  808MOL0     H 6597   0.645   5.936  10.718  1.0942  1.5662  0.5492
  808MOL0     H 6598   0.566   5.949  10.880  0.1315 -2.2430  1.6494
  808MOL0     H 6599   0.545   5.727  10.775  0.0638 -0.7786  0.0102
  808MOL0     H 6600   0.731   5.718  10.785  0.1068  1.3807 -0.8671
  808MOL0     H 6601   0.684   5.728  11.039  2.3389 -0.6140 -1.9478
  808MOL0     H 6602   0.647   5.592  10.949  0.8523  0.5565  0.3011
  808MOL0     H 6603   0.400   5.684  10.929 -0.1591 -1.9092  0.6114
  808MOL0     H 6604   0.451   5.818  11.030  2.4868 -0.2268  0.6757
  808MOL0     H 6605   0.484   5.667  11.218  4.0531  2.0185 -2.5751
  808MOL0     H 6606   0.328   5.611  11.138 -0.9116  1.2280 -0.7310
  808MOL0     H 6607   0.437   5.425  11.222  0.4376  2.5370  1.3074
  808MOL0     H 6608   0.579   5.458  11.119  0.1081 -1.0500  2.9076
  808MOL0     H 6609   0.229   5.308  11.121  1.4268  0.3347  1.0968
  808MOL0     H 6610   0.140   5.121  10.890  0.0586 -1.1790 -0.9643
  808MOL0     H 6611   0.093   5.213  10.765  1.1687 -1.2251  0.4938
  808MOL0     H 6612   0.019   5.278  11.067 -1.7333  2.3518 -0.0809
  808MOL0     H 6613  -0.065   5.178  10.974 -0.3909  0.1680  1.9266
  808MOL0     H 6614  -0.032   5.459  10.987  1.9068 -2.5025  1.2440
  808MOL0     H 6615  -0.046   5.431  10.812  0.2974  3.6487  0.5112
  808MOL0     H 6616  -0.248   5.319  10.808  2.2987 -3.9014  1.2218
  808MOL0     H 6617  -0.277   5.470  10.895 -2.2935 -1.0635 -0.9486
  808MOL0     H 6618  -0.369   5.202  11.238 -0.9084  1.3285  1.5387
  808MOL0     H 6619  -0.606   5.199  11.302 -0.9795  0.6827 -0.4512
  808MOL0     H 6620  -0.930   4.999  11.245 -0.5402 -0.9541 -0.5209
  808MOL0     H 6621  -1.158   4.919  11.309  3.5481 -0.6854  0.7794
  808MOL0     H 6622  -1.454   5.180  11.386 -1.1846  0.5445  1.1391
  808MOL0     H 6623  -1.480   5.122  11.545  2.0154  0.9534  0.7654
  808MOL0     H 6624  -1.633   5.022  11.351 -1.2378  0.6138  2.2451
  808MOL0     H 6625  -1.544   4.890  11.440 -1.5267  0.4868 -0.4264
  808MOL0     H 6626  -1.379   4.879  11.274  2.3221  2.4119 -1.6576
  808MOL0     H 6627  -1.447   5.016  11.190  2.4486 -1.5906 -0.3324
  808MOL0     H 6628  -1.591   4.757  11.257  1.8572 -0.3303  0.1244
  808MOL0     H 6629  -1.658   4.873  11.142 -1.4270 -1.0655  0.8800
  808MOL0     H 6630  -1.372   4.748  11.092 -0.0085  0.4312  2.7000
  808MOL0     H 6631  -1.469   4.836  10.985  3.4923 -1.3649 -0.3051
  808MOL0     H 6632  -1.490   4.616  10.901 -0.1077  2.3640 -1.0384
  808MOL0     H 6633  -1.633   4.656  10.969 -0.5035 -0.4410  1.5732
  808MOL0     H 6634  -1.483   4.566  11.201 -3.1535 -1.0325  0.5760
  808MOL0     H 6635  -1.592   4.457  11.113  0.8230  0.6885  0.8596
  808MOL0     H 6636  -1.311   4.481  11.021 -0.3292 -0.3577  1.8270
  808MOL0     H 6637  -1.435   4.370  10.968  3.2303 -2.4289 -0.1664
  808MOL0     H 6638  -1.259   5.306  11.454 -1.3891 -2.5823  0.8315
  808MOL0     H 6639  -1.047   5.388  11.384 -1.7078  0.5492 -0.4986
  808MOL0     H 6640  -0.712   5.379  10.919 -0.3479  0.4669 -0.2151
  808MOL0     H 6641  -0.477   5.410  10.878 -1.0426 -2.7978 -0.8222
  808MOL0     H 6642   1.040   6.049  10.673  1.9188  1.6860 -1.6283
  808MOL0     H 6643   1.152   6.039  10.470 -0.0930 -1.1138  2.5843
  808MOL0     H 6644   1.080   6.298   9.896  3.4232  0.0014  0.4110
  808MOL0     H 6645   1.149   6.169   9.673 -0.5644 -2.0702 -0.8866
  808MOL0     H 6646   1.263   6.058   9.526 -0.0267  0.5253 -1.1301
  808MOL0     H 6647   1.092   6.017   9.493  0.1363  0.2031 -1.6739
  808MOL0     H 6648   1.309   5.812   9.438 -0.1352  0.4253  1.1731
  808MOL0     H 6649   1.138   5.786   9.419 -1.7397  1.3760 -0.7112
  808MOL0     H 6650   1.110   5.949   9.239  0.6815  0.7284 -0.4553
  808MOL0     H 6651   1.204   5.821   9.201  2.2702 -0.0193 -1.1141
  808MOL0     H 6652   1.313   5.996   9.115  1.6876 -1.2024 -1.5506
  808MOL0     H 6653   1.359   6.061   9.276 -0.8595 -0.7192 -0.0997
  808MOL0     H 6654   1.623   5.750   9.145  1.7190  1.8362  1.8290
  808MOL0     H 6655   1.201   5.810   9.881  0.2426 -0.3708 -1.6411
  808MOL0     H 6656   1.149   5.924  10.099  1.1822  1.2948  1.4788
  809MOL0     O 6657   8.413   3.526   3.979 -0.8636  0.2291  0.9770
  809MOL0     C 6658   8.351   3.631   3.974 -0.3515  0.3321  0.4221
  809MOL0     O 6659   8.322   3.703   3.859 -0.0735  0.1026  0.0745
  809MOL0     C 6660   8.358   3.629   3.742  0.2024 -0.3607 -0.7261
  809MOL0     C 6661   8.306   3.500   3.711  0.4742 -0.8978 -0.6731
  809MOL0     C 6662   8.341   3.439   3.590  0.0632 -0.5324 -0.3415
  809MOL0     C 6663   8.430   3.506   3.497 -0.1939  1.0256  0.4923
  809MOL0     O 6664   8.455   3.456   3.372 -0.3478  0.6291  0.2033
  809MOL0     C 6665   8.492   3.317   3.372 -1.4371 -0.0170  0.4525
  809MOL0     C 6666   8.577   3.277   3.240  0.5723  0.3265  1.2209
  809MOL0     C 6667   8.519   3.325   3.111 -0.5332 -0.3149  0.0428
  809MOL0     C 6668   8.588   3.279   2.981 -0.6986 -0.2251 -0.4177
  809MOL0     C 6669   8.498   3.308   2.859 -0.1709  0.1633  0.3224
  809MOL0     C 6670   8.552   3.228   2.732  0.4234 -0.8478  0.1084
  809MOL0     C 6671   8.492   3.292   2.613 -0.6456  0.2333  0.2949
  809MOL0     C 6672   8.356   3.214   2.596  0.5231 -0.3316  0.5608
  809MOL0     N 6673   8.265   3.265   2.492  0.3500 -0.1613  0.6035
  809MOL0     C 6674   8.223   3.194   2.381  0.1346 -0.0902  0.4396
  809MOL0     C 6675   8.134   3.273   2.324  0.9823  0.2299 -1.1277
  809MOL0     C 6676   8.058   3.255   2.198 -0.3454 -0.6043 -0.5183
  809MOL0     C 6677   8.150   3.275   2.077 -0.3455  1.0433 -0.2327
  809MOL0     C 6678   8.166   3.420   2.067 -0.0684 -1.2095  0.0668
  809MOL0     C 6679   8.277   3.462   1.963 -0.4811  0.8815 -0.6584
  809MOL0     O 6680   8.286   3.599   1.934  0.0588  0.1009 -0.7064
  809MOL0     C 6681   8.365   3.614   1.827 -1.4312 -0.4401  0.4157
  809MOL0     C 6682   8.496   3.643   1.854  0.3665  0.3637  0.7744
  809MOL0     C 6683   8.582   3.683   1.759  0.2264 -0.0362 -0.0430
  809MOL0     C 6684   8.548   3.676   1.620 -0.3019 -0.3880  1.2671
  809MOL0     C 6685   8.650   3.699   1.513  0.7438  0.2438  1.0025
  809MOL0     O 6686   8.604   3.671   1.389 -0.5711 -0.2428  0.2630
  809MOL0     C 6687   8.708   3.679   1.294 -0.1172 -0.4771  0.0821
  809MOL0     C 6688   8.704   3.777   1.193 -0.2097  0.5016  0.2473
  809MOL0     C 6689   8.789   3.786   1.084  0.3782  0.2501  0.3453
  809MOL0     C 6690   8.901   3.703   1.093  0.0894 -0.4823  0.0718
  809MOL0     O 6691   9.004   3.718   1.009 -0.2705 -0.9068  0.5914
  809MOL0     C 6692   8.994   3.808   0.894  0.5183 -0.3877  0.4453
  809MOL0     C 6693   9.118   3.776   0.813 -0.5918 -0.1004  0.3386
  809MOL0     C 6694   9.248   3.782   0.900  0.4877 -0.3094 -0.1571
  809MOL0     C 6695   9.376   3.742   0.832 -0.1644 -0.2226  0.1842
  809MOL0     C 6696   9.498   3.804   0.899  0.1831  0.3775  0.4700
  809MOL0     C 6697   9.524   3.750   1.040 -0.0892 -0.0779 -0.0084
  809MOL0     C 6698   9.651   3.813   1.113  0.6511 -0.1480 -0.0874
  809MOL0     C 6699   9.778   3.758   1.049  0.6571 -0.2469 -0.0791
  809MOL0    Cl 6700   9.763   3.582   1.062 -0.1089 -0.3310 -0.2155
  809MOL0     C 6701   8.913   3.606   1.188 -0.6272  0.9345  0.3505
  809MOL0     C 6702   8.814   3.588   1.279 -0.2312  0.3090 -0.5492
  809MOL0     O 6703   8.753   3.746   1.539 -0.4391 -0.0158 -0.2740
  809MOL0     C 6704   8.414   3.645   1.586  0.6418  0.5838 -0.5245
  809MOL0     C 6705   8.323   3.611   1.691 -0.0282 -0.0240 -0.7320
  809MOL0     N 6706   8.112   3.379   2.403  0.5283  0.4244  0.1508
  809MOL0     N 6707   8.196   3.377   2.504 -0.6357  0.5631  0.3729
  809MOL0     C 6708   8.476   3.632   3.524  0.3589 -0.5998  0.9555
  809MOL0     C 6709   8.444   3.694   3.644 -0.2392 -0.1244 -0.0983
  809MOL0     C 6710   8.270   3.660   4.090  0.2659  0.5960  0.0494
  809MOL0     C 6711   8.173   3.756   4.083  0.3435 -0.3354  0.3840
  809MOL0     C 6712   8.113   3.808   4.198  0.1248  0.5240 -0.0923
  809MOL0     C 6713   8.134   3.754   4.324  1.3773 -0.3754  1.0724
  809MOL0     O 6714   8.085   3.815   4.429 -0.3021 -0.2961  0.1742
  809MOL0     C 6715   8.169   3.850   4.540 -0.0608  0.1840 -0.1331
  809MOL0     C 6716   8.184   3.999   4.534 -0.2720  0.1735  0.1023
  809MOL0     C 6717   8.260   4.053   4.646 -0.2428 -0.2850  0.2435
  809MOL0     C 6718   8.237   4.198   4.686  0.0669  1.0180 -0.1602
  809MOL0     C 6719   8.235   4.296   4.586 -0.0895  0.1310  0.9252
  809MOL0     C 6720   8.234   4.386   4.500  0.9161  0.3309  0.2784
  809MOL0     C 6721   8.223   3.652   4.327 -0.1310  0.0195 -0.2170
  809MOL0     C 6722   8.299   3.613   4.214 -0.5672 -0.5056  0.0357
  809MOL0     H 6723   8.231   3.450   3.771 -0.1678  0.0638 -0.6546
  809MOL0     H 6724   8.306   3.342   3.558  1.0560 -0.2542 -2.4411
  809MOL0     H 6725   8.410   3.245   3.380 -0.7481 -0.6302  2.5219
  809MOL0     H 6726   8.567   3.295   3.448 -1.5403 -1.0104  0.2873
  809MOL0     H 6727   8.578   3.167   3.244 -1.6679  0.2824  3.0887
  809MOL0     H 6728   8.675   3.323   3.252  0.3407  0.6091  2.0957
  809MOL0     H 6729   8.529   3.434   3.110  0.2940 -0.3693  1.0117
  809MOL0     H 6730   8.413   3.297   3.116 -0.4056 -0.7973  0.1197
  809MOL0     H 6731   8.688   3.323   2.982  0.6170 -2.9883 -0.6760
  809MOL0     H 6732   8.598   3.170   2.991 -0.1412  0.0125  2.9232
  809MOL0     H 6733   8.479   3.413   2.836 -2.1379 -0.0681  0.7756
  809MOL0     H 6734   8.403   3.263   2.890  0.7349 -1.3610  1.0105
  809MOL0     H 6735   8.532   3.121   2.735 -0.1078 -0.7475  0.3214
  809MOL0     H 6736   8.661   3.236   2.732  0.3032  2.9974  1.4594
  809MOL0     H 6737   8.460   3.396   2.625 -0.4462  0.2272  0.9182
  809MOL0     H 6738   8.551   3.291   2.521  1.6705  2.2652  1.6557
  809MOL0     H 6739   8.303   3.211   2.692  0.6512  0.1547  0.6496
  809MOL0     H 6740   8.382   3.113   2.564 -1.2513 -0.4808 -0.5301
  809MOL0     H 6741   8.253   3.099   2.338 -0.0968 -1.1152  2.4176
  809MOL0     H 6742   7.972   3.321   2.187 -1.2936 -1.7421 -0.1134
  809MOL0     H 6743   8.008   3.157   2.195 -1.3084 -0.1377 -0.0805
  809MOL0     H 6744   8.111   3.238   1.981 -1.1221  0.1207  0.4184
  809MOL0     H 6745   8.242   3.221   2.101  0.0893  2.3242  1.0993
  809MOL0     H 6746   8.077   3.472   2.032 -1.8926 -3.2688  1.4253
  809MOL0     H 6747   8.205   3.463   2.160  2.7158 -3.2356 -0.0056
  809MOL0     H 6748   8.251   3.412   1.870  2.5053  1.4219 -1.8772
  809MOL0     H 6749   8.377   3.430   1.993  0.4206  1.2783 -3.0636
  809MOL0     H 6750   8.525   3.661   1.957  3.4860 -1.9588  0.4713
  809MOL0     H 6751   8.679   3.722   1.786  0.0954  0.0348  0.3330
  809MOL0     H 6752   8.607   3.825   1.188 -0.3744  0.1058 -0.6522
  809MOL0     H 6753   8.765   3.862   1.011  0.3607  1.5125  1.6266
  809MOL0     H 6754   8.997   3.910   0.933  0.5194  0.0877 -0.7628
  809MOL0     H 6755   8.906   3.784   0.835  2.1374 -2.4905 -1.2922
  809MOL0     H 6756   9.123   3.847   0.730 -0.8970 -0.9140 -0.3885
  809MOL0     H 6757   9.100   3.681   0.763 -0.1718  0.6186 -1.2519
  809MOL0     H 6758   9.246   3.712   0.984  0.2671 -2.2087 -1.6858
  809MOL0     H 6759   9.255   3.874   0.959 -0.4511 -1.6379  2.1689
  809MOL0     H 6760   9.382   3.633   0.841  0.5186 -0.0857  1.6898
  809MOL0     H 6761   9.378   3.761   0.724 -0.8100  2.0445  0.5167
  809MOL0     H 6762   9.490   3.913   0.888  1.1945  0.5034  0.8407
  809MOL0     H 6763   9.589   3.791   0.839  0.0154 -0.9774  0.4860
  809MOL0     H 6764   9.532   3.641   1.031  1.2816 -0.0047  0.1770
  809MOL0     H 6765   9.443   3.779   1.108  0.7238  4.8971 -0.8125
  809MOL0     H 6766   9.654   3.922   1.119  3.1993 -0.1928  0.1654
  809MOL0     H 6767   9.641   3.781   1.217  1.4750 -1.2881 -0.3424
  809MOL0     H 6768   9.871   3.792   1.096 -1.5977  3.4240  2.2774
  809MOL0     H 6769   9.781   3.792   0.945 -0.8632  1.5523  0.4211
  809MOL0     H 6770   9.004   3.547   1.191 -0.2764  1.3417 -1.2693
  809MOL0     H 6771   8.816   3.516   1.360 -0.3194  0.0766 -0.7546
  809MOL0     H 6772   8.378   3.637   1.484 -0.7465  2.7019 -0.2751
  809MOL0     H 6773   8.220   3.601   1.659  0.2261 -1.7813 -1.0876
  809MOL0     H 6774   8.511   3.677   3.431 -1.1219  0.1896  0.7454
  809MOL0     H 6775   8.492   3.791   3.653  0.7802 -0.7921  2.6263
  809MOL0     H 6776   8.155   3.814   3.993  2.0882 -1.0409 -0.4707
  809MOL0     H 6777   8.050   3.895   4.186  2.5557  2.1316 -2.3023
  809MOL0     H 6778   8.270   3.809   4.530  1.0284  2.6172  0.3908
  809MOL0     H 6779   8.126   3.818   4.635 -1.7591 -1.0010 -1.2240
  809MOL0     H 6780   8.229   4.025   4.438 -0.2614  1.5239  0.4480
  809MOL0     H 6781   8.084   4.043   4.526 -0.4691 -0.6187 -2.5413
  809MOL0     H 6782   8.365   4.028   4.625 -0.8110 -1.2557 -1.5789
  809MOL0     H 6783   8.236   3.994   4.735  1.4902 -0.9588  0.3156
  809MOL0     H 6784   8.137   4.199   4.733  0.8977 -2.0318  2.0282
  809MOL0     H 6785   8.306   4.232   4.764  4.3052  0.4421 -3.3071
  809MOL0     H 6786   8.239   4.458   4.421  0.6086 -1.2359 -1.2287
  809MOL0     H 6787   8.244   3.592   4.415 -0.3469  0.3516  0.0649
  809MOL0     H 6788   8.388   3.552   4.225  0.2629  0.9080  1.7267
  810MOL0     O 6789  11.198  11.264  10.021  0.1584  0.4682  0.4200
  810MOL0     C 6790  11.112  11.204  10.083 -0.0295 -0.1391  0.2038
  810MOL0     O 6791  11.086  11.071  10.064  0.5797  0.2298  0.4897
  810MOL0     C 6792  11.167  10.998   9.986  0.1829 -0.5936  0.1015
  810MOL0     C 6793  11.106  10.929   9.875 -0.1250  0.4246  0.2538
  810MOL0     C 6794  11.181  10.833   9.811  0.1598  0.4765  0.0389
  810MOL0     C 6795  11.319  10.822   9.829 -0.2982  0.6956 -0.7481
  810MOL0     O 6796  11.385  10.715   9.766  0.2770 -0.2223 -0.3199
  810MOL0     C 6797  11.530  10.688   9.767  0.2635  0.7909  0.0437
  810MOL0     C 6798  11.562  10.609   9.638 -0.3623 -0.4556  0.7590
  810MOL0     C 6799  11.710  10.609   9.605 -0.1570 -0.4205 -0.5342
  810MOL0     C 6800  11.788  10.742   9.591 -0.2546  1.1302  0.4861
  810MOL0     C 6801  11.927  10.724   9.530  0.0630  0.0539  0.3567
  810MOL0     C 6802  12.024  10.642   9.620 -0.5589  0.7338 -0.7607
  810MOL0     C 6803  12.171  10.650   9.567 -0.5403 -0.5074 -0.3994
  810MOL0     C 6804  12.239  10.782   9.603 -0.9556 -0.2696 -0.0243
  810MOL0     N 6805  12.386  10.766   9.630  0.3798 -0.9962  0.5771
  810MOL0     C 6806  12.488  10.865   9.606  0.9910  0.0453 -0.2489
  810MOL0     C 6807  12.601  10.807   9.654  0.4108  0.4369 -0.3060
  810MOL0     C 6808  12.735  10.867   9.679 -0.1945 -0.2055 -0.1032
  810MOL0     C 6809  12.809  10.897   9.542  0.1659 -0.1106 -0.2400
  810MOL0     C 6810  12.929  10.997   9.557 -0.2348 -0.5482 -0.2299
  810MOL0     C 6811  12.986  11.042   9.422 -0.4716  0.5755 -0.1568
  810MOL0     O 6812  13.075  10.936   9.381  0.5690  0.7093  0.7270
  810MOL0     C 6813  13.142  10.951   9.261  0.9311  0.1450  0.2795
  810MOL0     C 6814  13.267  10.906   9.253 -0.1192 -0.0920  0.5299
  810MOL0     C 6815  13.334  10.885   9.124 -0.0793 -0.1460  0.9532
  810MOL0     C 6816  13.281  10.935   9.004 -0.5490 -0.0982  0.0733
  810MOL0     C 6817  13.360  10.938   8.882  0.7448  0.0967 -0.4347
  810MOL0     O 6818  13.491  10.893   8.869 -0.9597  0.2612 -0.1448
  810MOL0     C 6819  13.553  10.870   8.745 -0.3528 -0.0649  0.1595
  810MOL0     C 6820  13.529  10.926   8.621  0.6753 -0.6283  0.9756
  810MOL0     C 6821  13.603  10.882   8.515  0.8328  0.1384 -0.6026
  810MOL0     C 6822  13.686  10.768   8.529  0.1411  0.5015 -0.6449
  810MOL0     O 6823  13.760  10.723   8.421 -0.5721  0.0187 -0.5676
  810MOL0     C 6824  13.850  10.617   8.429  0.5667 -0.0358 -0.5401
  810MOL0     C 6825  13.923  10.577   8.299  0.2223 -0.7332 -0.8656
  810MOL0     C 6826  13.863  10.477   8.205 -0.4554 -0.1988  0.0797
  810MOL0     C 6827  13.960  10.463   8.088 -0.1454  0.3412 -0.8531
  810MOL0     C 6828  13.918  10.555   7.977  0.3156 -0.3901 -0.0947
  810MOL0     C 6829  13.794  10.502   7.899 -0.2791 -0.8143 -0.8461
  810MOL0     C 6830  13.783  10.594   7.779  0.1787 -1.1662  0.5943
  810MOL0     C 6831  13.655  10.570   7.704  0.7595  0.0956  1.0172
  810MOL0    Cl 6832  13.613  10.388   7.673 -0.3559 -0.5569 -0.2300
  810MOL0     C 6833  13.702  10.706   8.655 -0.1250  0.0279 -0.3783
  810MOL0     C 6834  13.639  10.768   8.759 -0.8228 -0.1635  0.1545
  810MOL0     O 6835  13.294  10.988   8.795 -0.5279 -0.3289 -0.2442
  810MOL0     C 6836  13.158  11.002   9.021 -1.1848  0.8016  0.4649
  810MOL0     C 6837  13.089  11.002   9.144  0.4638 -0.1937 -0.2255
  810MOL0     N 6838  12.569  10.682   9.694 -0.0063 -0.6935  0.2130
  810MOL0     N 6839  12.443  10.661   9.684  0.5175  0.1681  0.3082
  810MOL0     C 6840  11.385  10.901   9.926  0.3496 -1.0993  0.1644
  810MOL0     C 6841  11.312  10.991  10.007  0.4822  0.7670 -0.3627
  810MOL0     C 6842  11.027  11.285  10.173 -0.0149  0.5236 -1.2389
  810MOL0     C 6843  11.027  11.421  10.176 -0.9350 -0.0895  0.2473
  810MOL0     C 6844  10.959  11.499  10.267 -0.1730  0.3369  0.7758
  810MOL0     C 6845  10.901  11.439  10.373  0.1584 -0.0476 -0.4341
  810MOL0     O 6846  10.846  11.529  10.465  0.4006  0.4394  0.2545
  810MOL0     C 6847  10.743  11.497  10.557  0.4784  0.7293  0.3148
  810MOL0     C 6848  10.669  11.625  10.580 -0.7590  0.3353  0.4476
  810MOL0     C 6849  10.749  11.734  10.659  0.6332 -0.7961 -0.5908
  810MOL0     C 6850  10.826  11.836  10.575  0.8359  0.0641 -0.0684
  810MOL0     C 6851  10.749  11.957  10.537 -0.3710  0.0595 -0.0391
  810MOL0     C 6852  10.687  12.055  10.519 -0.2757  0.3185  0.5290
  810MOL0     C 6853  10.885  11.301  10.371  0.1309 -0.0835  0.0787
  810MOL0     C 6854  10.948  11.220  10.278  0.3659  0.5880 -0.1906
  810MOL0     H 6855  11.002  10.953   9.854 -0.4490  0.8624  2.1613
  810MOL0     H 6856  11.123  10.762   9.755 -0.0536 -0.8183  1.8074
  810MOL0     H 6857  11.553  10.633   9.858  0.1295 -0.0876 -0.4433
  810MOL0     H 6858  11.577  10.787   9.759 -1.8468  1.8934  0.3585
  810MOL0     H 6859  11.520  10.657   9.549  2.7418 -0.8333 -1.0309
  810MOL0     H 6860  11.528  10.506   9.654  2.0802 -1.3102  0.7521
  810MOL0     H 6861  11.704  10.569   9.504 -0.9104  2.4250 -1.7054
  810MOL0     H 6862  11.757  10.547   9.682 -0.6709  0.1576  0.2613
  810MOL0     H 6863  11.738  10.822   9.534 -0.9930  0.6088  0.3823
  810MOL0     H 6864  11.814  10.772   9.693  1.5313 -2.9016  1.3894
  810MOL0     H 6865  11.962  10.825   9.508 -0.6708  0.2658  0.1554
  810MOL0     H 6866  11.928  10.669   9.436  2.4464  0.5193  0.0414
  810MOL0     H 6867  12.003  10.535   9.614  0.0393  0.6942 -2.7362
  810MOL0     H 6868  12.030  10.668   9.726 -1.8320 -5.4172  1.2287
  810MOL0     H 6869  12.231  10.563   9.594 -0.4974  0.6017  3.6134
  810MOL0     H 6870  12.156  10.652   9.458 -1.2096  1.5305 -0.3136
  810MOL0     H 6871  12.190  10.821   9.692 -2.9087  1.0450 -1.5661
  810MOL0     H 6872  12.233  10.874   9.543  0.1414  1.4053  2.2637
  810MOL0     H 6873  12.480  10.970   9.580 -1.5053  0.6458  2.4542
  810MOL0     H 6874  12.793  10.804   9.747  2.0092  1.9189  0.0900
  810MOL0     H 6875  12.728  10.958   9.739  0.0077 -0.8944  1.0009
  810MOL0     H 6876  12.729  10.931   9.476 -0.3551 -0.9798 -0.0684
  810MOL0     H 6877  12.849  10.802   9.505  0.9276 -0.0785  0.4704
  810MOL0     H 6878  12.915  11.089   9.615  2.5663  0.4003 -0.8798
  810MOL0     H 6879  13.004  10.933   9.604  0.9580  0.5649 -0.5566
  810MOL0     H 6880  13.050  11.130   9.438 -0.2026  0.3812 -0.1575
  810MOL0     H 6881  12.914  11.058   9.342  0.8607 -0.4515 -1.6353
  810MOL0     H 6882  13.308  10.865   9.345  0.0228  0.8715  0.9040
  810MOL0     H 6883  13.435  10.846   9.113  1.9420  4.8075 -0.7747
  810MOL0     H 6884  13.453  11.001   8.600  0.9800 -0.7463 -0.7412
  810MOL0     H 6885  13.582  10.926   8.418 -1.3038 -1.2377 -0.8328
  810MOL0     H 6886  13.785  10.540   8.472  1.2417 -0.1511  0.2765
  810MOL0     H 6887  13.928  10.657   8.493 -0.2773  0.4762  0.1953
  810MOL0     H 6888  14.012  10.529   8.340  1.0820  0.3324 -1.4009
  810MOL0     H 6889  13.950  10.671   8.249 -1.6489  0.3453  0.0334
  810MOL0     H 6890  13.767  10.507   8.161 -0.4506 -2.0893 -1.3236
  810MOL0     H 6891  13.862  10.383   8.261 -1.0490  1.8229  3.7824
  810MOL0     H 6892  14.054  10.497   8.131 -1.0497  2.2169 -0.2044
  810MOL0     H 6893  13.967  10.358   8.058  1.7766  0.1946 -0.0152
  810MOL0     H 6894  14.000  10.552   7.904  2.4056 -1.1034  2.1302
  810MOL0     H 6895  13.902  10.659   8.005  1.8778 -0.4109  0.9989
  810MOL0     H 6896  13.704  10.514   7.961 -1.2357 -1.3635 -2.0844
  810MOL0     H 6897  13.803  10.396   7.871 -0.2930 -0.7158 -1.2275
  810MOL0     H 6898  13.770  10.697   7.813  1.3402 -0.5373 -0.7749
  810MOL0     H 6899  13.871  10.579   7.716  0.4858 -1.6227  1.1278
  810MOL0     H 6900  13.662  10.629   7.612 -3.6625 -0.0089  0.3600
  810MOL0     H 6901  13.568  10.615   7.753  2.2691  2.3796  1.7143
  810MOL0     H 6902  13.779  10.631   8.668 -1.5851 -1.5726 -0.5864
  810MOL0     H 6903  13.668  10.739   8.860 -0.6789 -1.6650 -0.2895
  810MOL0     H 6904  13.107  11.064   8.947 -1.1797  1.8610  1.3314
  810MOL0     H 6905  12.990  11.046   9.139  1.3487  1.8826 -0.6874
  810MOL0     H 6906  11.493  10.907   9.934  0.2873  2.0795  0.0796
  810MOL0     H 6907  11.368  11.039  10.087  0.8860 -2.8306  1.7697
  810MOL0     H 6908  11.085  11.479  10.105  3.5946 -5.8722 -1.4929
  810MOL0     H 6909  10.961  11.607  10.256 -0.7800  0.3096  0.3169
  810MOL0     H 6910  10.787  11.451  10.646  0.8039  0.5850  0.0807
  810MOL0     H 6911  10.676  11.421  10.516  0.8878 -0.2350  1.3642
  810MOL0     H 6912  10.642  11.675  10.487 -1.8173 -2.6605 -0.9653
  810MOL0     H 6913  10.578  11.594  10.632 -0.3032  0.2760  1.2265
  810MOL0     H 6914  10.821  11.685  10.725  3.2967  0.5017 -2.3780
  810MOL0     H 6915  10.703  11.797  10.736  3.3227  0.9105 -0.2638
  810MOL0     H 6916  10.918  11.872  10.622 -0.1681  5.3746 -1.4789
  810MOL0     H 6917  10.867  11.777  10.492  1.8441  1.2358 -0.4517
  810MOL0     H 6918  10.633  12.139  10.480 -2.7344 -1.2512  0.3458
  810MOL0     H 6919  10.829  11.263  10.455  3.0423  0.2166  2.3028
  810MOL0     H 6920  10.932  11.113  10.271 -1.7075  0.9116 -1.3143
  811MOL0     O 6921   7.082   4.509   2.157 -0.0934  0.3553 -0.1118
  811MOL0     C 6922   7.154   4.487   2.257 -0.9146 -0.4237 -0.1029
  811MOL0     O 6923   7.201   4.364   2.297 -0.3493  0.8809 -0.7136
  811MOL0     C 6924   7.155   4.243   2.245 -0.1489  0.3387  0.6035
  811MOL0     C 6925   7.225   4.123   2.257 -0.8219 -0.6327 -1.2713
  811MOL0     C 6926   7.165   4.011   2.203 -0.3362  0.6374 -0.0221
  811MOL0     C 6927   7.033   4.005   2.148  0.0558 -0.1347 -0.1348
  811MOL0     O 6928   6.975   3.901   2.092 -0.0523  0.0694 -0.1419
  811MOL0     C 6929   7.040   3.840   1.974  0.8770  0.7765 -0.8710
  811MOL0     C 6930   7.029   3.684   1.977 -0.6905 -0.3332 -0.0318
  811MOL0     C 6931   7.123   3.622   1.876 -0.5186 -1.4194  0.4918
  811MOL0     C 6932   7.079   3.469   1.871 -0.0723 -0.0810  0.4175
  811MOL0     C 6933   7.176   3.403   1.769 -0.0942 -0.7287 -0.6774
  811MOL0     C 6934   7.116   3.285   1.696  0.2739 -0.1635  0.7145
  811MOL0     C 6935   7.159   3.154   1.775  0.1269 -0.4033  1.1208
  811MOL0     C 6936   7.312   3.123   1.760  0.3991  0.4702  0.0008
  811MOL0     N 6937   7.349   2.988   1.814 -0.0913 -0.1308 -0.3931
  811MOL0     C 6938   7.467   2.958   1.880  0.1038 -0.0132  0.7284
  811MOL0     C 6939   7.455   2.824   1.907 -0.3464 -0.0887 -0.2799
  811MOL0     C 6940   7.554   2.729   1.987 -0.1222  0.1759  0.4592
  811MOL0     C 6941   7.525   2.737   2.138 -0.9478 -0.4225  1.1479
  811MOL0     C 6942   7.594   2.613   2.205 -0.5222  0.7705  0.5595
  811MOL0     C 6943   7.587   2.602   2.353 -0.7296 -0.3470 -0.4640
  811MOL0     O 6944   7.451   2.575   2.393 -0.5504 -0.2652 -0.5871
  811MOL0     C 6945   7.406   2.605   2.518  0.0600  1.1879 -0.8917
  811MOL0     C 6946   7.482   2.645   2.632 -0.2539 -0.2826  0.5524
  811MOL0     C 6947   7.415   2.690   2.742 -0.7425 -0.0581  0.0698
  811MOL0     C 6948   7.282   2.670   2.768  0.6808  0.6195  0.7378
  811MOL0     C 6949   7.233   2.717   2.900 -0.1000  0.1391 -0.6870
  811MOL0     O 6950   7.103   2.678   2.927  0.1032  0.2817  0.0303
  811MOL0     C 6951   7.051   2.694   3.053 -0.5434 -0.2525  0.3790
  811MOL0     C 6952   7.130   2.655   3.166 -0.8059  0.7965 -0.7990
  811MOL0     C 6953   7.083   2.684   3.301 -0.0947 -0.3554 -0.2743
  811MOL0     C 6954   6.961   2.751   3.320 -0.0186 -0.3956  0.4784
  811MOL0     O 6955   6.894   2.790   3.436 -1.0679  0.6591  0.0635
  811MOL0     C 6956   6.916   2.711   3.556  1.0379 -0.4375  1.0036
  811MOL0     C 6957   6.784   2.633   3.597  0.0299 -0.0034  0.0406
  811MOL0     C 6958   6.654   2.714   3.559  0.0809 -0.6454 -0.2298
  811MOL0     C 6959   6.527   2.645   3.615  0.2443 -0.2695 -1.1194
  811MOL0     C 6960   6.409   2.740   3.583 -0.0413  0.7120 -0.0353
  811MOL0     C 6961   6.276   2.691   3.637 -0.1011 -0.0076  0.9193
  811MOL0     C 6962   6.164   2.773   3.564  0.4011 -0.4779  0.2004
  811MOL0     C 6963   6.024   2.768   3.633 -0.9293 -0.4843 -0.2864
  811MOL0    Cl 6964   5.973   2.601   3.669  0.1517  0.3373 -0.3681
  811MOL0     C 6965   6.898   2.794   3.201  0.0070 -0.6370  0.3046
  811MOL0     C 6966   6.932   2.760   3.071  0.0350  0.6102 -0.5794
  811MOL0     O 6967   7.299   2.789   2.975  0.6652  0.9254 -0.1806
  811MOL0     C 6968   7.208   2.617   2.660 -0.0102 -0.0983 -0.3763
  811MOL0     C 6969   7.269   2.589   2.536 -0.1205  0.3993 -0.9373
  811MOL0     N 6970   7.338   2.776   1.851  0.2675 -0.7204  0.1309
  811MOL0     N 6971   7.270   2.873   1.801  0.0653 -0.0390  0.2015
  811MOL0     C 6972   6.968   4.125   2.146  0.2055  0.9332 -0.3616
  811MOL0     C 6973   7.023   4.241   2.203  0.8448 -0.0721  0.0253
  811MOL0     C 6974   7.171   4.598   2.350 -0.3184  0.4531 -0.3014
  811MOL0     C 6975   7.268   4.602   2.450 -0.6301  0.1078 -0.1099
  811MOL0     C 6976   7.284   4.721   2.528 -0.1078  0.7410 -0.0157
  811MOL0     C 6977   7.210   4.835   2.505 -0.2332 -0.0675 -0.0720
  811MOL0     O 6978   7.213   4.957   2.582  0.0539 -0.0349  0.0059
  811MOL0     C 6979   7.338   4.998   2.626 -0.1341 -0.3513 -0.6812
  811MOL0     C 6980   7.329   5.129   2.700  0.9776 -0.4476  0.4637
  811MOL0     C 6981   7.325   5.244   2.593  0.4588  0.7084  0.3474
  811MOL0     C 6982   7.354   5.388   2.652  0.2348  0.5311 -0.4223
  811MOL0     C 6983   7.252   5.426   2.744  0.2343 -0.5504  0.0420
  811MOL0     C 6984   7.164   5.457   2.818  0.4504 -0.3144 -0.2261
  811MOL0     C 6985   7.114   4.832   2.409  0.5481 -0.1592 -0.0805
  811MOL0     C 6986   7.100   4.720   2.328  0.1186  0.3357 -0.6807
  811MOL0     H 6987   7.321   4.127   2.307 -1.0731 -0.5685 -0.7836
  811MOL0     H 6988   7.214   3.916   2.220  1.7910  1.9084  1.3959
  811MOL0     H 6989   7.146   3.868   1.968  0.4038  2.8159 -0.4518
  811MOL0     H 6990   6.997   3.877   1.880 -0.3471  1.8887  0.0868
  811MOL0     H 6991   6.926   3.665   1.946 -0.2023 -1.3027 -1.1148
  811MOL0     H 6992   7.066   3.635   2.067  2.2819  0.3846 -0.7426
  811MOL0     H 6993   7.227   3.638   1.904 -0.7708 -0.5344  0.9896
  811MOL0     H 6994   7.107   3.669   1.778  1.9572 -1.2158  0.1336
  811MOL0     H 6995   7.087   3.422   1.970 -1.3788 -1.0833  0.0841
  811MOL0     H 6996   6.975   3.462   1.838 -0.3662 -0.8757  1.4425
  811MOL0     H 6997   7.274   3.382   1.813 -1.5568 -2.7383  1.9709
  811MOL0     H 6998   7.192   3.477   1.691 -1.2047 -0.2048 -0.4382
  811MOL0     H 6999   7.149   3.283   1.592  0.1376  0.0923  0.6661
  811MOL0     H 7000   7.008   3.283   1.684  0.3379  3.0564 -1.6022
  811MOL0     H 7001   7.131   3.152   1.881  0.9159  2.8671  1.4922
  811MOL0     H 7002   7.095   3.082   1.723  1.5376 -0.4942 -0.5995
  811MOL0     H 7003   7.375   3.189   1.821  1.6489 -3.2602  3.1830
  811MOL0     H 7004   7.355   3.129   1.660  1.1028  1.2977  0.3366
  811MOL0     H 7005   7.551   3.025   1.893 -0.2632  0.8575 -1.0704
  811MOL0     H 7006   7.655   2.764   1.963 -0.4845  0.4280 -0.7671
  811MOL0     H 7007   7.535   2.624   1.961  1.3819  0.1417 -0.5963
  811MOL0     H 7008   7.416   2.726   2.150 -1.5124  3.2662  0.5946
  811MOL0     H 7009   7.566   2.831   2.176  0.6468 -0.1580 -1.0892
  811MOL0     H 7010   7.576   2.515   2.160  0.5176 -0.8555  3.4578
  811MOL0     H 7011   7.702   2.624   2.189  0.2382 -4.2175  0.5694
  811MOL0     H 7012   7.632   2.692   2.397 -1.4568 -0.0322 -0.3423
  811MOL0     H 7013   7.654   2.522   2.385  2.6812  2.3304 -0.3136
  811MOL0     H 7014   7.587   2.668   2.621 -0.3422 -0.2047 -0.2295
  811MOL0     H 7015   7.479   2.724   2.823  1.6024  1.4900 -2.2689
  811MOL0     H 7016   7.231   2.615   3.160 -0.5598  0.7423  2.3275
  811MOL0     H 7017   7.141   2.651   3.387 -2.4873 -0.7614  1.2806
  811MOL0     H 7018   6.945   2.786   3.631  0.8156  0.4149  0.2530
  811MOL0     H 7019   6.997   2.638   3.550  1.6562  0.3462 -1.1978
  811MOL0     H 7020   6.784   2.605   3.703 -1.7660  0.3910  0.1830
  811MOL0     H 7021   6.788   2.536   3.548  1.1345 -0.4688  0.9885
  811MOL0     H 7022   6.644   2.723   3.450  1.8237 -0.5283 -0.4020
  811MOL0     H 7023   6.668   2.815   3.599  1.2696 -0.3291 -1.3645
  811MOL0     H 7024   6.520   2.548   3.565 -0.2570 -1.0839  0.4693
  811MOL0     H 7025   6.532   2.632   3.723 -0.5228  4.1435 -0.3958
  811MOL0     H 7026   6.406   2.762   3.476  2.1175  1.5815  0.0192
  811MOL0     H 7027   6.428   2.835   3.633  2.1046 -0.0781  0.7832
  811MOL0     H 7028   6.268   2.703   3.745 -1.5500 -1.6613  1.0313
  811MOL0     H 7029   6.262   2.584   3.617 -2.2040  0.2895  0.6718
  811MOL0     H 7030   6.187   2.880   3.561  1.4485 -0.6742  0.7485
  811MOL0     H 7031   6.159   2.745   3.459  1.1757 -0.8915  0.2725
  811MOL0     H 7032   5.952   2.805   3.560 -0.0302 -2.6879 -2.4107
  811MOL0     H 7033   6.029   2.831   3.723 -0.6126 -3.7316  2.1942
  811MOL0     H 7034   6.806   2.850   3.207 -0.1391 -0.7407 -0.8032
  811MOL0     H 7035   6.863   2.772   2.987 -1.2045  0.1337  0.3289
  811MOL0     H 7036   7.101   2.609   2.676  0.0280 -2.8248 -1.1109
  811MOL0     H 7037   7.208   2.541   2.461  1.7994 -1.9589 -1.0919
  811MOL0     H 7038   6.865   4.119   2.111  0.2435  1.1082 -0.5035
  811MOL0     H 7039   6.957   4.325   2.218 -2.7635 -2.3375 -1.7529
  811MOL0     H 7040   7.325   4.514   2.478  0.8591  0.2790 -2.3719
  811MOL0     H 7041   7.361   4.704   2.603  1.7135 -2.4511 -2.3523
  811MOL0     H 7042   7.404   5.019   2.541  2.1518 -1.4089  0.7134
  811MOL0     H 7043   7.378   4.921   2.693 -1.2630  0.0576  0.5082
  811MOL0     H 7044   7.247   5.144   2.771 -1.1782  0.0494 -1.9893
  811MOL0     H 7045   7.422   5.127   2.758  1.9770 -1.6875 -1.1031
  811MOL0     H 7046   7.225   5.243   2.550 -0.8926  2.4367  3.1926
  811MOL0     H 7047   7.406   5.222   2.522  1.1513 -1.9030  1.7986
  811MOL0     H 7048   7.451   5.383   2.704  0.5751 -0.8502 -1.1363
  811MOL0     H 7049   7.365   5.456   2.568  3.7426 -0.6463 -1.1047
  811MOL0     H 7050   7.081   5.492   2.876  0.6339  4.0511 -2.2490
  811MOL0     H 7051   7.058   4.925   2.409  1.2974  0.3148 -0.9305
  811MOL0     H 7052   7.049   4.730   2.233  2.4756  4.0893 -1.7775
  812MOL0     O 7053   6.125   9.150   3.388 -1.0067 -0.5820 -0.4033
  812MOL0     C 7054   6.116   9.240   3.307 -0.3163 -1.2605 -0.2417
  812MOL0     O 7055   6.014   9.250   3.219 -0.5145 -0.1995  0.1214
  812MOL0     C 7056   5.919   9.152   3.200  0.0616 -0.8871 -1.2232
  812MOL0     C 7057   5.814   9.203   3.119  0.3811 -0.1836 -1.1327
  812MOL0     C 7058   5.707   9.124   3.068 -0.5147 -0.1275  0.2087
  812MOL0     C 7059   5.708   8.986   3.097  0.5977  0.0998  0.4969
  812MOL0     O 7060   5.609   8.906   3.038  0.4018 -0.6071  0.2653
  812MOL0     C 7061   5.508   8.868   3.139  0.2178  0.1736 -0.7066
  812MOL0     C 7062   5.404   8.784   3.065  0.4320  1.0211  0.3273
  812MOL0     C 7063   5.269   8.762   3.131  0.5522  0.2232  0.0791
  812MOL0     C 7064   5.288   8.660   3.248  0.8706 -0.9634 -0.1564
  812MOL0     C 7065   5.158   8.652   3.333  0.2151 -0.2263  1.3902
  812MOL0     C 7066   5.053   8.569   3.273  0.4911  0.2862 -0.2174
  812MOL0     C 7067   5.093   8.423   3.231 -0.4484 -0.2236 -0.0877
  812MOL0     C 7068   4.978   8.321   3.234 -0.1134 -0.4976  0.7340
  812MOL0     N 7069   4.907   8.322   3.104 -0.4550 -0.2697 -0.8874
  812MOL0     C 7070   4.935   8.248   2.996 -0.1785  1.1126 -0.1149
  812MOL0     C 7071   4.842   8.292   2.906 -0.1871 -0.6967 -0.6056
  812MOL0     C 7072   4.827   8.234   2.776 -0.0637  0.8743  0.1690
  812MOL0     C 7073   4.728   8.123   2.805  0.5761 -0.5664  0.2834
  812MOL0     C 7074   4.588   8.169   2.762  0.2401 -0.4970  0.0137
  812MOL0     C 7075   4.476   8.072   2.764 -0.6774 -0.1498 -0.4498
  812MOL0     O 7076   4.408   8.064   2.891  0.6625  0.4991 -0.3680
  812MOL0     C 7077   4.319   8.161   2.928  0.1448 -1.0918 -0.1126
  812MOL0     C 7078   4.242   8.234   2.830 -0.1655 -0.0002 -0.6028
  812MOL0     C 7079   4.165   8.338   2.886 -0.7817 -0.2717  0.3014
  812MOL0     C 7080   4.139   8.360   3.023  0.3878 -0.7326 -0.7516
  812MOL0     C 7081   4.023   8.444   3.066  1.0062  0.0268 -0.3464
  812MOL0     O 7082   3.945   8.503   2.964  0.3778 -0.8184 -0.3401
  812MOL0     C 7083   3.867   8.612   2.999 -0.0001 -0.0008 -0.2234
  812MOL0     C 7084   3.727   8.597   3.010 -0.6372 -0.4010 -1.1160
  812MOL0     C 7085   3.650   8.710   3.039 -0.4527 -0.1958  0.2366
  812MOL0     C 7086   3.711   8.831   3.089 -0.0268  0.4837  0.0476
  812MOL0     O 7087   3.635   8.944   3.111  0.0874  0.1620  0.3498
  812MOL0     C 7088   3.494   8.949   3.083  0.1339 -0.5462  0.3357
  812MOL0     C 7089   3.451   9.090   3.064 -0.0136  0.1869 -0.0316
  812MOL0     C 7090   3.296   9.095   3.040 -0.1043 -0.3167  0.8528
  812MOL0     C 7091   3.266   9.252   3.063  0.2408  0.3468 -0.5330
  812MOL0     C 7092   3.126   9.284   3.016  0.0728  1.2319 -0.3462
  812MOL0     C 7093   3.029   9.211   3.113 -0.6334 -0.8093  0.2458
  812MOL0     C 7094   2.897   9.289   3.107  0.3258 -0.7719  0.3885
  812MOL0     C 7095   2.899   9.399   3.212 -0.1191  0.0764 -1.0115
  812MOL0    Cl 7096   2.771   9.506   3.196  0.3576 -0.3558  0.5836
  812MOL0     C 7097   3.845   8.841   3.084  0.5971 -0.9564  0.5042
  812MOL0     C 7098   3.928   8.734   3.036  1.7053 -0.9791 -1.4088
  812MOL0     O 7099   4.012   8.450   3.190 -0.1484 -0.2805  0.4679
  812MOL0     C 7100   4.215   8.287   3.120 -0.1926  0.6383  0.4282
  812MOL0     C 7101   4.298   8.190   3.065 -0.5204  0.3114  0.4248
  812MOL0     N 7102   4.755   8.385   2.970  0.1932 -1.2565 -0.4536
  812MOL0     N 7103   4.804   8.405   3.086  0.5917  0.6123 -0.1885
  812MOL0     C 7104   5.815   8.930   3.168  0.3647 -0.4893 -0.3710
  812MOL0     C 7105   5.915   9.013   3.229 -0.3151 -0.4827 -0.0151
  812MOL0     C 7106   6.187   9.371   3.319 -0.1192  0.6203 -0.0568
  812MOL0     C 7107   6.184   9.463   3.210 -0.6025 -0.1528  0.3847
  812MOL0     C 7108   6.229   9.589   3.219 -0.2779 -0.1196  0.0971
  812MOL0     C 7109   6.271   9.642   3.342  1.1521  0.1283 -0.2252
  812MOL0     O 7110   6.320   9.770   3.365  0.5187  0.8359  1.0553
  812MOL0     C 7111   6.351   9.855   3.255 -0.4588 -0.5011 -0.5481
  812MOL0     C 7112   6.427   9.977   3.298  0.4911 -0.3242  0.7999
  812MOL0     C 7113   6.562   9.930   3.376  0.2915  0.3834  0.1528
  812MOL0     C 7114   6.673  10.040   3.376 -0.0070  0.7870  0.0713
  812MOL0     C 7115   6.746  10.049   3.256  0.2098 -0.9019 -0.5038
  812MOL0     C 7116   6.798  10.064   3.149 -0.4812 -0.4601 -0.4237
  812MOL0     C 7117   6.274   9.549   3.447 -0.6711 -0.0007 -0.2267
  812MOL0     C 7118   6.244   9.419   3.435 -0.0708  0.7904  0.5091
  812MOL0     H 7119   5.800   9.306   3.086  2.3628  0.0015 -1.4880
  812MOL0     H 7120   5.631   9.169   3.005  1.9844  0.0547 -2.8791
  812MOL0     H 7121   5.466   8.956   3.189 -0.4621  1.7549 -3.8187
  812MOL0     H 7122   5.565   8.810   3.212 -0.4994 -1.9008 -1.7020
  812MOL0     H 7123   5.452   8.688   3.043  2.4653  2.4067 -1.9268
  812MOL0     H 7124   5.372   8.822   2.968 -2.1041 -0.9549  0.2890
  812MOL0     H 7125   5.193   8.720   3.064  2.2960  0.1407 -1.9576
  812MOL0     H 7126   5.240   8.861   3.167 -1.0509 -0.2246  0.1306
  812MOL0     H 7127   5.298   8.567   3.192 -1.4501  0.7984 -3.9041
  812MOL0     H 7128   5.362   8.693   3.321 -2.4503  1.8654  2.3117
  812MOL0     H 7129   5.127   8.756   3.350 -0.8709  0.0121 -1.5769
  812MOL0     H 7130   5.190   8.615   3.431 -0.3790 -1.3837  1.1597
  812MOL0     H 7131   5.007   8.628   3.193 -2.1165  0.5903  1.3725
  812MOL0     H 7132   4.983   8.565   3.357  1.8510 -0.2846  0.9190
  812MOL0     H 7133   5.134   8.434   3.130  0.9372  0.6128  0.5431
  812MOL0     H 7134   5.165   8.388   3.305  0.2594  0.2776 -0.5344
  812MOL0     H 7135   4.909   8.347   3.314 -2.5486  1.2262 -1.7252
  812MOL0     H 7136   5.015   8.222   3.260  4.2190  1.3875  2.9153
  812MOL0     H 7137   5.010   8.171   2.979 -1.1278 -0.0523  0.7499
  812MOL0     H 7138   4.921   8.195   2.734 -1.1379 -1.2113 -0.4567
  812MOL0     H 7139   4.772   8.298   2.706 -0.6765 -0.3209 -0.4770
  812MOL0     H 7140   4.728   8.081   2.906  3.0480 -2.4205 -0.3742
  812MOL0     H 7141   4.753   8.038   2.741  0.4469 -0.0218 -0.5108
  812MOL0     H 7142   4.560   8.251   2.829  4.2688 -0.3406  1.8561
  812MOL0     H 7143   4.596   8.218   2.665  1.2726 -0.7718 -0.0512
  812MOL0     H 7144   4.506   7.971   2.733 -2.2140 -0.9361  0.4794
  812MOL0     H 7145   4.398   8.077   2.687 -2.3758 -1.0630  1.1256
  812MOL0     H 7146   4.227   8.213   2.724  2.2745  1.8913 -1.4254
  812MOL0     H 7147   4.134   8.410   2.811  0.5731  0.1071  0.0679
  812MOL0     H 7148   3.688   8.499   2.986  3.4922 -2.3753 -0.6914
  812MOL0     H 7149   3.542   8.719   3.042 -0.3125  3.6639 -1.3015
  812MOL0     H 7150   3.428   8.907   3.159 -1.4446 -1.1589 -1.2958
  812MOL0     H 7151   3.477   8.904   2.985 -2.0771 -1.4255  1.0616
  812MOL0     H 7152   3.495   9.130   2.973  1.4269 -3.7572 -1.2751
  812MOL0     H 7153   3.476   9.142   3.157 -1.8624  0.7538  0.1874
  812MOL0     H 7154   3.237   9.037   3.111 -0.8860  2.3655  2.5190
  812MOL0     H 7155   3.269   9.071   2.936  1.2106  4.1668 -0.7660
  812MOL0     H 7156   3.268   9.274   3.170 -1.8697 -0.4297 -0.2773
  812MOL0     H 7157   3.340   9.319   3.019  0.5926 -2.1950 -4.2236
  812MOL0     H 7158   3.087   9.257   2.917 -2.0949 -1.2822  1.0470
  812MOL0     H 7159   3.120   9.393   3.024 -0.4283  1.1892 -0.1102
  812MOL0     H 7160   3.065   9.200   3.215 -0.4220 -0.9607  0.1574
  812MOL0     H 7161   3.013   9.114   3.065 -1.7482  0.2118 -1.5630
  812MOL0     H 7162   2.882   9.333   3.008  0.5434  0.1961  0.7749
  812MOL0     H 7163   2.813   9.226   3.137 -1.5775  0.2743 -2.3636
  812MOL0     H 7164   2.991   9.453   3.237 -1.5318  1.5178  1.5012
  812MOL0     H 7165   2.874   9.335   3.297  1.7349 -0.0800 -0.5244
  812MOL0     H 7166   3.881   8.940   3.111 -0.1686 -0.9071  1.3710
  812MOL0     H 7167   4.033   8.758   3.043  1.3271  0.3611  2.9107
  812MOL0     H 7168   4.207   8.291   3.228  2.7476  1.0408  0.7170
  812MOL0     H 7169   4.360   8.123   3.123 -2.6371 -1.0845  1.2131
  812MOL0     H 7170   5.800   8.826   3.192 -2.4829 -0.6118 -2.2205
  812MOL0     H 7171   6.001   8.965   3.276  0.7690  1.4182  0.0719
  812MOL0     H 7172   6.133   9.421   3.124 -0.4764 -2.5180  1.3762
  812MOL0     H 7173   6.210   9.656   3.135 -1.4787 -1.4477 -0.7412
  812MOL0     H 7174   6.262   9.898   3.208  1.0616  0.9575 -2.2363
  812MOL0     H 7175   6.406   9.817   3.168 -0.3200  0.6220 -0.9632
  812MOL0     H 7176   6.451  10.050   3.219  0.6838 -0.6112  0.5931
  812MOL0     H 7177   6.374  10.042   3.368 -0.1898 -1.0383  0.9594
  812MOL0     H 7178   6.592   9.835   3.330 -2.3448  0.1445 -1.2668
  812MOL0     H 7179   6.535   9.899   3.477 -0.1604 -0.6960 -0.2773
  812MOL0     H 7180   6.626  10.133   3.407 -1.3444 -0.1735  1.0744
  812MOL0     H 7181   6.751  10.021   3.450  1.5721 -0.1267 -1.7340
  812MOL0     H 7182   6.855  10.086   3.061 -0.4193  5.2755  0.6592
  812MOL0     H 7183   6.311   9.583   3.543 -1.5414 -2.1901  0.9509
  812MOL0     H 7184   6.255   9.362   3.527  1.4419  0.3832  0.1100
  813MOL0     O 7185   3.252   5.464   7.412  0.0313  0.2755 -0.9372
  813MOL0     C 7186   3.250   5.336   7.406  0.1582  0.9171  1.6428
  813MOL0     O 7187   3.152   5.257   7.338 -0.2889  0.1417 -0.8593
  813MOL0     C 7188   3.035   5.313   7.293 -0.3060 -0.1887 -0.5570
  813MOL0     C 7189   2.924   5.294   7.360 -0.0784  0.9044  0.3257
  813MOL0     C 7190   2.810   5.355   7.297 -0.8121  0.7782 -0.2529
  813MOL0     C 7191   2.807   5.443   7.194 -1.3430  0.4403 -0.9126
  813MOL0     O 7192   2.694   5.500   7.147 -0.2470  0.0697  0.2655
  813MOL0     C 7193   2.564   5.442   7.147 -0.2331  0.5414 -0.1954
  813MOL0     C 7194   2.467   5.519   7.053  0.0520  0.4722  0.3463
  813MOL0     C 7195   2.341   5.436   7.022 -0.0793  0.5618  0.9422
  813MOL0     C 7196   2.240   5.496   6.922 -0.0657  0.6773 -0.0949
  813MOL0     C 7197   2.106   5.420   6.939 -0.1565  0.3147  0.6465
  813MOL0     C 7198   2.013   5.492   7.033  0.0736  0.0315 -0.2026
  813MOL0     C 7199   1.875   5.446   7.043 -0.4642  0.2399  0.1308
  813MOL0     C 7200   1.875   5.317   7.119  0.3169 -0.0843  0.0968
  813MOL0     N 7201   1.742   5.238   7.128 -0.4261 -0.1717  0.2772
  813MOL0     C 7202   1.618   5.260   7.059 -0.2931 -0.6767  0.4435
  813MOL0     C 7203   1.535   5.181   7.125  0.3725 -0.0161 -0.3426
  813MOL0     C 7204   1.387   5.174   7.104  0.4764  0.8027 -0.0293
  813MOL0     C 7205   1.310   5.189   7.242 -0.3380  0.3074 -0.6563
  813MOL0     C 7206   1.159   5.164   7.223 -0.5276  0.1769 -0.9354
  813MOL0     C 7207   1.085   5.273   7.308 -1.1811 -0.4422 -0.0382
  813MOL0     O 7208   0.948   5.259   7.267  0.5092  0.2529  0.1718
  813MOL0     C 7209   0.844   5.304   7.339  0.3867  0.8229 -0.3859
  813MOL0     C 7210   0.840   5.347   7.471 -0.2355  0.6030 -0.3217
  813MOL0     C 7211   0.720   5.381   7.541 -0.3566 -0.8059 -0.4946
  813MOL0     C 7212   0.599   5.378   7.467 -0.4135 -1.1182 -0.1881
  813MOL0     C 7213   0.481   5.414   7.549  0.8783  0.5096 -0.0620
  813MOL0     O 7214   0.372   5.480   7.483 -0.8871  0.4261  0.2726
  813MOL0     C 7215   0.276   5.549   7.555  0.5039 -0.2392  0.0348
  813MOL0     C 7216   0.292   5.601   7.686 -0.5233  0.4745  0.5515
  813MOL0     C 7217   0.181   5.648   7.755  0.1854  0.4297 -0.3247
  813MOL0     C 7218   0.053   5.657   7.710 -0.1225  0.0165  0.3352
  813MOL0     O 7219  -0.053   5.693   7.785  0.3713  0.5231  0.3907
  813MOL0     C 7220  -0.049   5.757   7.913  0.4341  0.0172 -0.6343
  813MOL0     C 7221  -0.182   5.765   7.980 -0.3410  1.2862 -0.5431
  813MOL0     C 7222  -0.286   5.861   7.926  0.5429 -1.1091 -1.0278
  813MOL0     C 7223  -0.288   5.885   7.769  0.0109 -1.0947 -0.1991
  813MOL0     C 7224  -0.348   5.769   7.692 -0.5006  0.3518  1.2987
  813MOL0     C 7225  -0.332   5.780   7.544  0.2555  0.0832  0.2993
  813MOL0     C 7226  -0.365   5.640   7.489  0.2889 -0.9363  0.0774
  813MOL0     C 7227  -0.398   5.642   7.345 -0.3742  0.0943 -0.2274
  813MOL0    Cl 7228  -0.240   5.691   7.267  0.0478 -0.3046 -0.0510
  813MOL0     C 7229   0.039   5.604   7.571  0.0899  0.2880 -0.1872
  813MOL0     C 7230   0.148   5.556   7.494 -0.4753 -0.2026 -0.5131
  813MOL0     O 7231   0.485   5.387   7.672 -0.3147  0.0478 -0.4884
  813MOL0     C 7232   0.599   5.349   7.334 -0.2484 -0.1299  0.2217
  813MOL0     C 7233   0.722   5.295   7.273 -0.6638 -1.0610 -0.4977
  813MOL0     N 7234   1.605   5.107   7.219 -0.1876 -0.3897 -0.0548
  813MOL0     N 7235   1.723   5.152   7.226  0.0152 -0.6428  0.3306
  813MOL0     C 7236   2.930   5.454   7.129  0.7105  0.4183  0.3438
  813MOL0     C 7237   3.043   5.395   7.184 -0.8756  0.2486  0.5697
  813MOL0     C 7238   3.369   5.261   7.450 -0.2686 -0.3513 -0.5301
  813MOL0     C 7239   3.472   5.303   7.525  0.6809  0.5628 -0.7962
  813MOL0     C 7240   3.583   5.225   7.563  0.5111 -0.4959  0.0791
  813MOL0     C 7241   3.591   5.088   7.531  0.5121  0.1282  0.2496
  813MOL0     O 7242   3.695   4.995   7.546 -0.6457 -0.0275  0.1677
  813MOL0     C 7243   3.811   5.051   7.598 -0.9138  1.2440  0.0650
  813MOL0     C 7244   3.894   4.937   7.654 -0.0395 -0.0241 -0.0312
  813MOL0     C 7245   4.037   4.984   7.674 -0.1850  0.6811  0.5134
  813MOL0     C 7246   4.061   5.059   7.806 -0.2053 -0.8238  0.4845
  813MOL0     C 7247   4.034   4.979   7.924 -0.0580 -0.1561  0.3842
  813MOL0     C 7248   4.031   4.903   8.019 -0.5371  0.1451  0.2281
  813MOL0     C 7249   3.473   5.033   7.468  0.9294  0.9956  0.5499
  813MOL0     C 7250   3.377   5.121   7.420  0.1078  0.2622 -0.0213
  813MOL0     H 7251   2.912   5.214   7.432 -0.9037 -0.6505 -1.4572
  813MOL0     H 7252   2.715   5.345   7.348  0.4814  0.3200  2.1899
  813MOL0     H 7253   2.532   5.431   7.251 -0.0392 -1.9421 -0.3391
  813MOL0     H 7254   2.571   5.339   7.109  0.0616  0.3385  0.3988
  813MOL0     H 7255   2.523   5.548   6.964  2.1286 -1.7665  0.8144
  813MOL0     H 7256   2.435   5.609   7.105 -2.2793  0.2383 -0.5784
  813MOL0     H 7257   2.298   5.439   7.123 -0.9854  0.0972  0.5789
  813MOL0     H 7258   2.358   5.331   6.996 -1.0171  0.4092  0.8866
  813MOL0     H 7259   2.228   5.603   6.935  0.7115  0.3903  4.7204
  813MOL0     H 7260   2.278   5.478   6.821  0.5555  1.8817 -0.0861
  813MOL0     H 7261   2.116   5.311   6.949 -1.0854 -0.0043 -1.3103
  813MOL0     H 7262   2.053   5.428   6.844 -1.9077 -3.3410  1.1228
  813MOL0     H 7263   2.008   5.595   6.998 -2.6211 -0.0586 -0.2780
  813MOL0     H 7264   2.053   5.483   7.135  5.0766 -1.7216 -2.0089
  813MOL0     H 7265   1.819   5.517   7.105  0.9037  1.0781  0.4426
  813MOL0     H 7266   1.838   5.418   6.944 -1.6532 -0.7631  0.8310
  813MOL0     H 7267   1.910   5.331   7.221 -0.5279  1.5953  0.1949
  813MOL0     H 7268   1.939   5.254   7.057 -1.0271 -0.0101 -1.4486
  813MOL0     H 7269   1.586   5.327   6.980 -1.8764 -2.4180 -0.4689
  813MOL0     H 7270   1.363   5.075   7.066  1.2431  0.7294 -0.3453
  813MOL0     H 7271   1.366   5.242   7.021  5.5017 -1.0711 -3.3378
  813MOL0     H 7272   1.316   5.283   7.297 -0.6000 -0.2804  0.4254
  813MOL0     H 7273   1.357   5.111   7.303 -2.8595 -1.2233 -0.5041
  813MOL0     H 7274   1.132   5.194   7.121 -0.5324  3.4097 -0.0820
  813MOL0     H 7275   1.126   5.063   7.250  0.3599 -0.3013 -1.5752
  813MOL0     H 7276   1.113   5.377   7.290  0.1816 -0.6219  0.8725
  813MOL0     H 7277   1.100   5.257   7.415  4.4104 -0.0966 -0.4535
  813MOL0     H 7278   0.930   5.361   7.530 -1.0347  0.8586  0.8749
  813MOL0     H 7279   0.710   5.395   7.648 -0.9532 -3.0496 -0.1970
  813MOL0     H 7280   0.392   5.601   7.728 -0.7130  0.3263  1.0062
  813MOL0     H 7281   0.193   5.683   7.857  1.4709  1.0616 -0.6658
  813MOL0     H 7282  -0.004   5.856   7.899  2.7796 -0.8712  0.1107
  813MOL0     H 7283   0.016   5.694   7.974 -2.6287 -2.7208  0.0582
  813MOL0     H 7284  -0.154   5.797   8.081 -0.2056  3.0421 -1.1050
  813MOL0     H 7285  -0.230   5.667   7.973 -1.9203  1.7601  2.1815
  813MOL0     H 7286  -0.271   5.957   7.976  1.7724 -2.1659  0.7471
  813MOL0     H 7287  -0.389   5.835   7.954  0.4044  1.3253  1.1186
  813MOL0     H 7288  -0.349   5.969   7.736 -0.8860 -2.5207 -2.4411
  813MOL0     H 7289  -0.188   5.897   7.725 -0.8612 -1.8082 -2.5831
  813MOL0     H 7290  -0.453   5.752   7.717 -0.0838 -0.5483  2.5146
  813MOL0     H 7291  -0.291   5.684   7.729 -1.2678 -1.2451 -0.9652
  813MOL0     H 7292  -0.237   5.814   7.502 -0.5643  0.5583 -1.2448
  813MOL0     H 7293  -0.402   5.855   7.507 -0.8954 -1.6002 -1.1494
  813MOL0     H 7294  -0.278   5.575   7.503  0.1055 -1.5531 -1.4713
  813MOL0     H 7295  -0.455   5.608   7.542  0.7818 -0.2681  1.3841
  813MOL0     H 7296  -0.479   5.714   7.332 -2.9501 -1.2140  5.4886
  813MOL0     H 7297  -0.421   5.540   7.314  1.8849 -1.1287  1.7586
  813MOL0     H 7298  -0.066   5.606   7.541 -0.8383  1.7361  2.7797
  813MOL0     H 7299   0.144   5.527   7.390  3.5073 -0.6610 -0.7224
  813MOL0     H 7300   0.504   5.350   7.281  0.2478  0.1944 -0.6835
  813MOL0     H 7301   0.723   5.250   7.173 -2.7859  1.1508 -1.6127
  813MOL0     H 7302   2.939   5.515   7.040 -0.6775 -0.5249 -0.4831
  813MOL0     H 7303   3.141   5.408   7.140 -1.1597  3.2321  0.5785
  813MOL0     H 7304   3.460   5.407   7.555 -1.9096 -0.1702  1.0911
  813MOL0     H 7305   3.653   5.272   7.632 -1.0385 -0.8869  1.9963
  813MOL0     H 7306   3.803   5.135   7.669 -2.4206  0.3657  0.9828
  813MOL0     H 7307   3.866   5.087   7.511  0.4594  0.3163  0.5252
  813MOL0     H 7308   3.841   4.908   7.745  2.2196 -1.5080  0.8748
  813MOL0     H 7309   3.887   4.850   7.587  0.4207 -1.5953  1.8711
  813MOL0     H 7310   4.067   5.040   7.586 -0.7042 -0.2516 -0.2870
  813MOL0     H 7311   4.093   4.890   7.677 -1.4706 -0.1059  1.0765
  813MOL0     H 7312   4.152   5.120   7.803 -0.6633 -0.1810 -1.1188
  813MOL0     H 7313   3.982   5.134   7.816 -1.0629 -1.5496 -0.6530
  813MOL0     H 7314   4.012   4.816   8.079 -2.6716 -1.4591 -2.4773
  813MOL0     H 7315   3.482   4.930   7.435  1.8872  0.5632  2.0367
  813MOL0     H 7316   3.304   5.072   7.356 -1.4513  3.9813 -1.3250
  814MOL0     O 7317   1.207   8.155   2.570 -0.1692  0.4487 -0.6523
  814MOL0     C 7318   1.220   8.148   2.692  0.1263  0.6337 -0.4995
  814MOL0     O 7319   1.172   8.047   2.766  0.2077  0.3525 -0.0610
  814MOL0     C 7320   1.131   7.930   2.721  0.2389  0.5757  0.1395
  814MOL0     C 7321   1.020   7.884   2.783 -0.2519 -0.4029 -0.0446
  814MOL0     C 7322   0.943   7.786   2.731  0.4248 -0.9784 -0.3997
  814MOL0     C 7323   0.997   7.695   2.639 -0.1364 -0.6814 -0.1471
  814MOL0     O 7324   0.933   7.577   2.609 -0.2924 -0.8842  0.0645
  814MOL0     C 7325   0.996   7.484   2.513  0.5524  0.0632 -0.6165
  814MOL0     C 7326   0.915   7.352   2.504 -0.2286 -0.5446  0.0188
  814MOL0     C 7327   0.999   7.235   2.545 -0.1396 -0.3118  0.6781
  814MOL0     C 7328   0.897   7.114   2.543  0.0360  0.2093  0.2218
  814MOL0     C 7329   0.965   6.986   2.582 -0.7831  0.0924  0.4123
  814MOL0     C 7330   0.872   6.866   2.569  0.4034 -0.3883  0.0374
  814MOL0     C 7331   0.944   6.733   2.644  0.2925 -0.8987  0.4195
  814MOL0     C 7332   0.844   6.625   2.651 -0.9334  0.3206 -0.6149
  814MOL0     N 7333   0.728   6.665   2.734 -0.5375  0.0056  0.2086
  814MOL0     C 7334   0.599   6.661   2.688  0.0197  0.2771 -0.3365
  814MOL0     C 7335   0.522   6.682   2.793 -0.0027 -0.3161 -0.7223
  814MOL0     C 7336   0.368   6.708   2.810 -0.2693 -0.8449  0.1503
  814MOL0     C 7337   0.283   6.600   2.882 -0.9672  0.3026  0.1101
  814MOL0     C 7338   0.132   6.644   2.896 -0.9613 -0.1116 -0.3990
  814MOL0     C 7339   0.031   6.533   2.918 -0.0474  0.3386 -0.0448
  814MOL0     O 7340   0.073   6.462   3.038  0.6508 -0.2973 -0.3871
  814MOL0     C 7341  -0.019   6.378   3.094  0.8801  0.6134 -0.7102
  814MOL0     C 7342  -0.079   6.407   3.214  0.6030  0.4044  0.5777
  814MOL0     C 7343  -0.182   6.324   3.265  0.3355  0.2087  0.0809
  814MOL0     C 7344  -0.241   6.219   3.194  1.1145  0.3928  0.6227
  814MOL0     C 7345  -0.357   6.145   3.239 -0.4742 -0.2568  0.8437
  814MOL0     O 7346  -0.390   6.175   3.361 -0.2634  0.3295  0.6729
  814MOL0     C 7347  -0.507   6.121   3.412  0.4348 -0.5690  0.3964
  814MOL0     C 7348  -0.622   6.197   3.401  0.5325 -0.3967 -1.2942
  814MOL0     C 7349  -0.743   6.133   3.440 -0.8165  0.0738 -0.9746
  814MOL0     C 7350  -0.749   6.009   3.498 -0.1254  0.1252 -0.2539
  814MOL0     O 7351  -0.871   5.972   3.531  0.9228 -0.0411  0.5229
  814MOL0     C 7352  -0.886   5.845   3.602 -0.3776  0.5143  0.0809
  814MOL0     C 7353  -1.038   5.810   3.612 -0.8103  1.1319  0.4013
  814MOL0     C 7354  -1.115   5.926   3.652 -0.0689  0.1098 -0.1719
  814MOL0     C 7355  -1.255   5.890   3.714 -1.1032  0.0482  1.3307
  814MOL0     C 7356  -1.356   5.993   3.732 -0.2487 -0.3589 -0.2800
  814MOL0     C 7357  -1.473   5.944   3.823 -0.2223  0.1335  0.5626
  814MOL0     C 7358  -1.431   5.976   3.969  0.0289  0.4274 -0.2642
  814MOL0     C 7359  -1.536   5.918   4.056  0.2487  0.0929  0.5830
  814MOL0    Cl 7360  -1.502   5.970   4.220  0.3322  0.0934 -0.2991
  814MOL0     C 7361  -0.635   5.939   3.504  0.2543 -0.1585 -0.2491
  814MOL0     C 7362  -0.517   6.001   3.475  0.4764  0.6058  0.2588
  814MOL0     O 7363  -0.411   6.058   3.169 -0.4420 -0.5430 -0.3414
  814MOL0     C 7364  -0.177   6.190   3.069 -0.1081  0.3463 -0.0785
  814MOL0     C 7365  -0.064   6.260   3.029  0.0567  0.0517  0.9135
  814MOL0     N 7366   0.598   6.679   2.904  0.2171 -0.2193 -0.1198
  814MOL0     N 7367   0.728   6.672   2.865 -0.5680  0.7769 -0.5926
  814MOL0     C 7368   1.123   7.739   2.577 -0.4209 -0.2338  0.2971
  814MOL0     C 7369   1.183   7.857   2.604 -0.2900  0.0488 -0.4246
  814MOL0     C 7370   1.253   8.270   2.753 -0.4638 -0.2372  0.3240
  814MOL0     C 7371   1.242   8.394   2.687 -0.4758 -0.3387  0.8484
  814MOL0     C 7372   1.287   8.512   2.751  0.2276  0.5660  0.0757
  814MOL0     C 7373   1.325   8.497   2.889 -0.1176  0.0835  0.4250
  814MOL0     O 7374   1.361   8.607   2.962  0.0768  0.3318 -0.0960
  814MOL0     C 7375   1.502   8.650   2.937 -0.0318  1.0302 -0.7237
  814MOL0     C 7376   1.603   8.558   3.007 -0.5789  0.7284 -0.4155
  814MOL0     C 7377   1.742   8.614   3.022 -0.0949  0.6122  1.8301
  814MOL0     C 7378   1.808   8.651   2.886 -0.5036 -0.2383  0.1952
  814MOL0     C 7379   1.819   8.546   2.786  0.4134 -0.0228  1.2026
  814MOL0     C 7380   1.846   8.476   2.688 -1.4624  0.0122 -0.1867
  814MOL0     C 7381   1.326   8.376   2.957 -0.1740 -0.2402  0.1465
  814MOL0     C 7382   1.302   8.262   2.884  0.8667  0.0773  0.1370
  814MOL0     H 7383   0.981   7.947   2.862 -2.4187 -2.7822  0.9174
  814MOL0     H 7384   0.845   7.765   2.773 -0.0464  2.2779  0.3585
  814MOL0     H 7385   1.100   7.464   2.538  0.6347  0.4325 -0.6619
  814MOL0     H 7386   0.984   7.523   2.411  2.2971 -0.1914 -0.9407
  814MOL0     H 7387   0.906   7.327   2.398 -0.2678  0.4721 -0.2245
  814MOL0     H 7388   0.815   7.357   2.548 -0.8253 -1.8960 -1.0968
  814MOL0     H 7389   1.042   7.248   2.645  1.7121 -0.1699 -0.1050
  814MOL0     H 7390   1.085   7.225   2.479 -1.1167 -0.0619 -0.6899
  814MOL0     H 7391   0.817   7.136   2.614  0.3793  0.6598  0.4763
  814MOL0     H 7392   0.859   7.110   2.440  0.9287 -1.1510 -0.0904
  814MOL0     H 7393   0.991   6.991   2.688 -1.2470 -3.7868  0.8700
  814MOL0     H 7394   1.061   6.979   2.530  1.0904  2.5460  3.2009
  814MOL0     H 7395   0.854   6.847   2.463  0.3487  0.8970 -0.1959
  814MOL0     H 7396   0.778   6.889   2.619  0.2648 -0.6941 -0.0770
  814MOL0     H 7397   1.028   6.698   2.584 -2.0616 -1.5185 -2.7980
  814MOL0     H 7398   0.981   6.755   2.744 -2.1446 -0.9305  1.3937
  814MOL0     H 7399   0.885   6.530   2.687 -2.2025  0.8103  2.4517
  814MOL0     H 7400   0.815   6.582   2.554  1.6890 -0.8881 -0.9544
  814MOL0     H 7401   0.563   6.652   2.585  1.7041  0.5892 -0.9832
  814MOL0     H 7402   0.328   6.723   2.709  0.2103  0.5644  0.1562
  814MOL0     H 7403   0.363   6.803   2.863  2.5480 -0.5786  0.1019
  814MOL0     H 7404   0.320   6.576   2.982  1.9949  0.7202 -0.7788
  814MOL0     H 7405   0.273   6.505   2.828 -0.3317 -0.5107  1.3779
  814MOL0     H 7406   0.127   6.717   2.977 -1.9113 -1.1512  0.5180
  814MOL0     H 7407   0.104   6.706   2.810  2.6738  0.7272 -1.1544
  814MOL0     H 7408   0.043   6.459   2.838  1.6450  0.9307 -0.3886
  814MOL0     H 7409  -0.072   6.568   2.918 -0.3462 -0.4877 -0.7144
  814MOL0     H 7410  -0.059   6.495   3.275 -0.2027  0.1957  1.1529
  814MOL0     H 7411  -0.240   6.348   3.353  1.0476 -0.5470  0.7818
  814MOL0     H 7412  -0.618   6.294   3.353 -1.7522  0.8033  0.6947
  814MOL0     H 7413  -0.835   6.190   3.439 -2.5501 -2.5692 -0.1453
  814MOL0     H 7414  -0.838   5.846   3.701  1.0398 -3.3631 -0.3955
  814MOL0     H 7415  -0.843   5.763   3.544 -2.2200  1.5244 -2.9124
  814MOL0     H 7416  -1.049   5.737   3.693  0.2328  1.4164  0.8164
  814MOL0     H 7417  -1.077   5.773   3.517 -1.4405 -1.1212  1.4668
  814MOL0     H 7418  -1.125   6.003   3.575 -1.4353 -0.9070 -1.0550
  814MOL0     H 7419  -1.058   5.977   3.731  1.6586 -0.2105 -1.1673
  814MOL0     H 7420  -1.295   5.818   3.642  5.4014 -0.5435 -2.5437
  814MOL0     H 7421  -1.241   5.833   3.807 -1.7752 -0.1365  1.3247
  814MOL0     H 7422  -1.394   6.019   3.633 -2.2680 -0.2426  0.4717
  814MOL0     H 7423  -1.311   6.081   3.778 -1.5408 -0.5679  1.4987
  814MOL0     H 7424  -1.496   5.842   3.791  0.2610 -0.2115  1.2836
  814MOL0     H 7425  -1.560   5.998   3.786  0.0988 -0.5400 -1.3068
  814MOL0     H 7426  -1.326   5.952   3.989 -0.3062 -0.4821  0.4976
  814MOL0     H 7427  -1.427   6.085   3.977 -1.6985  0.7111 -2.3543
  814MOL0     H 7428  -1.529   5.809   4.049  1.4891  0.0859  1.5950
  814MOL0     H 7429  -1.637   5.944   4.020  0.2038 -1.7234 -0.7169
  814MOL0     H 7430  -0.643   5.837   3.540 -4.2468 -0.8876 -2.5194
  814MOL0     H 7431  -0.423   5.947   3.485 -0.3692 -1.3998 -1.6789
  814MOL0     H 7432  -0.202   6.108   3.003  1.0624  2.0187 -2.7741
  814MOL0     H 7433  -0.006   6.241   2.940 -1.0759  1.3756 -0.1584
  814MOL0     H 7434   1.176   7.672   2.511 -1.8636  0.6532 -1.8548
  814MOL0     H 7435   1.271   7.889   2.549 -0.0280  0.4056  0.1868
  814MOL0     H 7436   1.208   8.400   2.584  3.2851 -3.7521 -0.8901
  814MOL0     H 7437   1.293   8.612   2.710  0.7844  0.4011 -0.2500
  814MOL0     H 7438   1.506   8.754   2.970 -3.8927  0.6185  1.7695
  814MOL0     H 7439   1.542   8.645   2.836  1.4956 -3.4280 -0.1100
  814MOL0     H 7440   1.577   8.548   3.112  0.9596  3.5251  0.3106
  814MOL0     H 7441   1.606   8.463   2.952  1.4684 -0.4427  1.5656
  814MOL0     H 7442   1.800   8.533   3.068  0.7282  1.3856  2.1642
  814MOL0     H 7443   1.743   8.697   3.093  1.7556  3.1737 -0.9673
  814MOL0     H 7444   1.756   8.741   2.850 -1.2322 -0.5262  0.5013
  814MOL0     H 7445   1.906   8.695   2.905 -0.6149 -0.0808  0.4148
  814MOL0     H 7446   1.878   8.409   2.610 -2.2105 -0.4632 -0.0898
  814MOL0     H 7447   1.361   8.376   3.060  1.2659 -1.6821 -0.3006
  814MOL0     H 7448   1.305   8.166   2.936 -1.4682 -1.0410 -1.6247
  815MOL0     O 7449   7.817   5.860   0.866  0.3169 -0.1932  0.3910
  815MOL0     C 7450   7.701   5.823   0.856  0.2100  0.0677  0.6978
  815MOL0     O 7451   7.613   5.817   0.962 -0.1060  0.3307 -0.0120
  815MOL0     C 7452   7.666   5.852   1.088 -0.3891  0.1855 -0.0094
  815MOL0     C 7453   7.642   5.977   1.136 -1.0826  0.6873 -0.1277
  815MOL0     C 7454   7.692   6.016   1.264  0.1261  0.1992  0.1740
  815MOL0     C 7455   7.763   5.916   1.345 -0.2117 -0.0040  0.1477
  815MOL0     O 7456   7.813   5.945   1.471  0.6465  0.1142  0.0906
  815MOL0     C 7457   7.845   6.083   1.506  0.2436 -0.3377  0.7502
  815MOL0     C 7458   7.951   6.132   1.411  0.3371 -0.6565 -0.1490
  815MOL0     C 7459   8.024   6.250   1.467 -0.9038  0.5161  0.5240
  815MOL0     C 7460   7.929   6.367   1.469 -0.9066  0.0887  0.7423
  815MOL0     C 7461   8.020   6.490   1.507 -0.0219  0.4903 -0.1345
  815MOL0     C 7462   7.921   6.597   1.560 -0.6115  0.2544  0.3009
  815MOL0     C 7463   7.991   6.729   1.589 -0.1315 -0.6903 -0.1154
  815MOL0     C 7464   7.905   6.826   1.673 -0.8978  0.5729  0.0952
  815MOL0     N 7465   7.993   6.934   1.732  0.1433 -0.6636  1.6298
  815MOL0     C 7466   8.084   6.909   1.834  1.0222  0.8169  0.0761
  815MOL0     C 7467   8.143   7.033   1.837 -0.2007  0.1119 -0.1149
  815MOL0     C 7468   8.257   7.069   1.930  1.9642 -0.2268  0.5969
  815MOL0     C 7469   8.267   7.206   1.994  0.7749 -0.4227  0.1071
  815MOL0     C 7470   8.393   7.204   2.076 -0.0194 -0.4965 -0.1938
  815MOL0     C 7471   8.410   7.328   2.160 -0.2420 -0.0794  0.3336
  815MOL0     O 7472   8.315   7.322   2.266 -0.3618 -0.5407  0.5609
  815MOL0     C 7473   8.300   7.431   2.351 -0.3087  0.0224  0.0823
  815MOL0     C 7474   8.398   7.527   2.369 -0.0316  0.0575  0.4331
  815MOL0     C 7475   8.374   7.649   2.439 -0.7837 -0.8858 -0.1151
  815MOL0     C 7476   8.256   7.661   2.510 -0.5489 -0.1151  0.5047
  815MOL0     C 7477   8.221   7.767   2.596 -0.2827  0.5320 -0.9309
  815MOL0     O 7478   8.113   7.757   2.669  1.2496  0.1470  0.1886
  815MOL0     C 7479   8.094   7.852   2.760  0.2879  0.5858 -1.2474
  815MOL0     C 7480   8.069   7.984   2.735 -0.3054  0.1925 -0.2346
  815MOL0     C 7481   8.063   8.073   2.848 -0.5920  0.0756 -0.1948
  815MOL0     C 7482   8.071   8.024   2.977  0.2973  0.3532 -0.4124
  815MOL0     O 7483   8.052   8.105   3.084 -0.0063 -0.5174  0.1367
  815MOL0     C 7484   8.120   8.233   3.093 -1.0451 -0.5612 -0.6116
  815MOL0     C 7485   8.127   8.257   3.242 -0.1342  0.0256  0.7689
  815MOL0     C 7486   8.198   8.392   3.274  0.1344  0.5087  0.3082
  815MOL0     C 7487   8.176   8.428   3.426  0.0292  0.2214 -0.4530
  815MOL0     C 7488   8.263   8.541   3.463 -0.1850 -0.1277  0.6742
  815MOL0     C 7489   8.212   8.681   3.419 -0.0083  0.5126 -1.8421
  815MOL0     C 7490   8.315   8.788   3.459  0.6864 -0.6797 -0.0406
  815MOL0     C 7491   8.240   8.920   3.479  0.3195  0.5131  0.4890
  815MOL0    Cl 7492   8.139   8.955   3.328 -0.4287  0.5761 -0.0807
  815MOL0     C 7493   8.107   7.895   2.994  0.1379 -0.2494 -0.6427
  815MOL0     C 7494   8.110   7.805   2.892  0.0566  0.8788 -0.2532
  815MOL0     O 7495   8.314   7.855   2.599  0.2702  0.0885 -0.2295
  815MOL0     C 7496   8.157   7.553   2.500 -0.3636 -0.2198  1.5091
  815MOL0     C 7497   8.176   7.451   2.408 -0.9006  0.3138  0.2407
  815MOL0     N 7498   8.081   7.122   1.747  0.6438  0.5625  0.8229
  815MOL0     N 7499   7.983   7.066   1.683  0.4703 -0.9267  0.6726
  815MOL0     C 7500   7.787   5.788   1.291  1.0525  0.4090 -0.0269
  815MOL0     C 7501   7.725   5.745   1.164 -0.4963 -0.6438 -0.9891
  815MOL0     C 7502   7.652   5.775   0.727 -1.0255  0.1778 -0.5859
  815MOL0     C 7503   7.515   5.754   0.711  1.0701 -0.7198 -0.3140
  815MOL0     C 7504   7.460   5.700   0.591  1.0072  0.1805 -0.0650
  815MOL0     C 7505   7.545   5.641   0.494  0.1163  0.1545  0.1486
  815MOL0     O 7506   7.483   5.561   0.402  0.0353  0.5844  0.3643
  815MOL0     C 7507   7.558   5.502   0.292 -0.3336 -0.3040 -0.9500
  815MOL0     C 7508   7.594   5.613   0.192 -0.5285 -0.3037  0.9380
  815MOL0     C 7509   7.471   5.699   0.156  0.4218  0.3686 -1.3176
  815MOL0     C 7510   7.482   5.791   0.031 -0.3354 -0.3688 -0.9523
  815MOL0     C 7511   7.354   5.822  -0.028 -1.0048  0.2971  0.1628
  815MOL0     C 7512   7.260   5.847  -0.094  0.0446 -0.1874  0.2971
  815MOL0     C 7513   7.676   5.654   0.508 -0.4356 -0.0433  0.2156
  815MOL0     C 7514   7.736   5.727   0.613 -0.2307 -1.1978 -0.5517
  815MOL0     H 7515   7.590   6.041   1.065  2.0165  2.6052 -0.8731
  815MOL0     H 7516   7.660   6.113   1.300  2.0096  1.3682 -1.1134
  815MOL0     H 7517   7.879   6.081   1.610 -0.3811 -0.3995  0.9577
  815MOL0     H 7518   7.756   6.146   1.496  1.5299  1.1765 -3.3312
  815MOL0     H 7519   7.914   6.150   1.310 -1.7740  1.3146  0.8890
  815MOL0     H 7520   8.022   6.049   1.402 -0.6322 -1.3593 -1.7151
  815MOL0     H 7521   8.111   6.273   1.404 -0.1530  3.5553  2.4328
  815MOL0     H 7522   8.048   6.219   1.569 -0.4040  0.1868  0.3139
  815MOL0     H 7523   7.872   6.381   1.376  0.7688  2.0111 -0.0768
  815MOL0     H 7524   7.864   6.353   1.555 -2.1046  1.4085  0.0899
  815MOL0     H 7525   8.095   6.524   1.434  2.0858  1.1086  2.1546
  815MOL0     H 7526   8.087   6.465   1.590 -0.4131  2.5111  0.8779
  815MOL0     H 7527   7.869   6.563   1.649  2.2343 -1.6470  1.3806
  815MOL0     H 7528   7.848   6.614   1.480 -0.0847 -0.1350 -0.2793
  815MOL0     H 7529   8.072   6.699   1.656  0.3602 -0.2709 -0.5199
  815MOL0     H 7530   8.033   6.764   1.494  1.0265 -3.7999 -0.8529
  815MOL0     H 7531   7.867   6.763   1.753 -0.2748  0.1000  0.0249
  815MOL0     H 7532   7.830   6.870   1.607  0.9531 -1.2381 -3.5112
  815MOL0     H 7533   8.110   6.817   1.886  2.2445 -0.0933 -2.0341
  815MOL0     H 7534   8.343   7.053   1.865  1.0301  0.2003 -0.7901
  815MOL0     H 7535   8.258   6.984   1.999  1.4716 -3.9572 -3.5572
  815MOL0     H 7536   8.182   7.210   2.063  0.7310 -1.8431  0.1597
  815MOL0     H 7537   8.273   7.291   1.926  0.8864 -1.2931 -0.9899
  815MOL0     H 7538   8.389   7.119   2.145  2.9413  0.1042  0.8635
  815MOL0     H 7539   8.477   7.181   2.010 -0.3599  2.3120 -1.7428
  815MOL0     H 7540   8.387   7.414   2.096 -2.3084  0.1536  1.3107
  815MOL0     H 7541   8.514   7.321   2.195 -0.0263  1.2905  0.0390
  815MOL0     H 7542   8.491   7.520   2.315 -1.7069 -0.4978 -2.6112
  815MOL0     H 7543   8.456   7.720   2.432 -2.5875  1.3392 -0.0266
  815MOL0     H 7544   8.061   8.026   2.635 -0.9836  2.1246  0.5689
  815MOL0     H 7545   8.042   8.178   2.832 -1.9382 -0.2785 -1.0349
  815MOL0     H 7546   8.068   8.314   3.040  0.7615  1.3689  0.3871
  815MOL0     H 7547   8.222   8.229   3.055 -0.9309 -1.2427 -0.2437
  815MOL0     H 7548   8.177   8.170   3.285  3.3579  1.0115 -1.0006
  815MOL0     H 7549   8.028   8.272   3.288 -0.8298  0.9118 -0.9294
  815MOL0     H 7550   8.158   8.472   3.211  4.1781  1.0068 -2.0253
  815MOL0     H 7551   8.307   8.384   3.266 -0.0260 -1.2328 -0.4930
  815MOL0     H 7552   8.069   8.451   3.429  0.0319  0.3311 -1.0424
  815MOL0     H 7553   8.196   8.349   3.499 -1.7394 -1.6243 -1.8528
  815MOL0     H 7554   8.367   8.520   3.437  0.1829 -0.2866  2.1556
  815MOL0     H 7555   8.277   8.549   3.572  2.3658 -0.5189  0.4427
  815MOL0     H 7556   8.117   8.710   3.464  0.4558 -1.4112  0.5780
  815MOL0     H 7557   8.203   8.687   3.310 -2.7559 -1.7413 -1.8716
  815MOL0     H 7558   8.363   8.766   3.555  1.3618  0.5071 -0.0902
  815MOL0     H 7559   8.390   8.816   3.384  0.3694  3.3216  0.9140
  815MOL0     H 7560   8.312   9.002   3.489  0.0609  1.1690 -2.2402
  815MOL0     H 7561   8.172   8.915   3.565  1.7179  0.7487  1.6319
  815MOL0     H 7562   8.133   7.863   3.095  1.0993 -0.7158 -1.0188
  815MOL0     H 7563   8.110   7.698   2.909 -2.7506  1.0981  1.6020
  815MOL0     H 7564   8.060   7.546   2.548 -1.5623 -0.7550 -0.8135
  815MOL0     H 7565   8.100   7.380   2.377 -0.5149  0.3583 -0.8355
  815MOL0     H 7566   7.850   5.721   1.348  1.4358 -0.8990 -1.9136
  815MOL0     H 7567   7.739   5.644   1.129 -0.5068 -1.9336  2.4172
  815MOL0     H 7568   7.448   5.793   0.787  3.1167  2.0080  0.2303
  815MOL0     H 7569   7.354   5.678   0.579  0.3846  1.6071  2.1903
  815MOL0     H 7570   7.493   5.431   0.241  3.6654 -4.2609 -1.1583
  815MOL0     H 7571   7.644   5.444   0.327  0.0811  0.4978 -0.5915
  815MOL0     H 7572   7.656   5.680   0.251  3.0641 -1.4907 -1.1759
  815MOL0     H 7573   7.651   5.582   0.104  0.7715  4.4653 -0.2392
  815MOL0     H 7574   7.458   5.761   0.245  1.4916 -4.8963  3.0018
  815MOL0     H 7575   7.383   5.636   0.141 -0.1396  1.2758 -1.9649
  815MOL0     H 7576   7.536   5.882   0.058  2.5639 -1.4725 -2.6640
  815MOL0     H 7577   7.538   5.749  -0.053  3.3236  1.5165  0.3311
  815MOL0     H 7578   7.161   5.866  -0.129 -0.5538  0.6734  2.3369
  815MOL0     H 7579   7.750   5.613   0.440 -2.5974  0.6310 -2.7422
  815MOL0     H 7580   7.842   5.752   0.611 -0.4580  0.7722  2.8641
  816MOL0     O 7581   7.076   7.802  10.112 -0.7068 -0.2487  0.7674
  816MOL0     C 7582   7.164   7.823  10.020 -0.6124  0.3533 -1.2899
  816MOL0     O 7583   7.160   7.769   9.898  0.2079  0.1948  0.6393
  816MOL0     C 7584   7.093   7.658   9.865  0.8940 -0.0493  0.5873
  816MOL0     C 7585   7.086   7.541   9.941 -0.9366  0.8773  1.1413
  816MOL0     C 7586   7.013   7.427   9.913 -0.2213  0.7812  0.2174
  816MOL0     C 7587   6.946   7.426   9.786  0.5714 -0.3474 -1.1114
  816MOL0     O 7588   6.870   7.317   9.756 -0.1203  0.3696  0.2217
  816MOL0     C 7589   6.777   7.277   9.861  0.0902  0.9616  0.4115
  816MOL0     C 7590   6.651   7.246   9.787  0.8947  0.1437 -0.3014
  816MOL0     C 7591   6.574   7.373   9.744  0.0195 -0.8129 -1.3317
  816MOL0     C 7592   6.470   7.318   9.648 -0.5610  0.2287  0.0666
  816MOL0     C 7593   6.529   7.300   9.514 -0.2976 -0.0226  0.2253
  816MOL0     C 7594   6.511   7.155   9.471 -0.1069  0.2021  1.3674
  816MOL0     C 7595   6.556   7.144   9.329  1.3266  0.5692  0.3430
  816MOL0     C 7596   6.490   7.238   9.221  0.6385  0.2435 -1.2296
  816MOL0     N 7597   6.519   7.176   9.090 -0.3515  0.1573 -0.2177
  816MOL0     C 7598   6.447   7.072   9.032 -0.0048 -0.2746 -0.8015
  816MOL0     C 7599   6.494   7.084   8.899  0.5645 -0.5463 -0.1888
  816MOL0     C 7600   6.425   7.004   8.790 -0.2938 -0.0613  0.0951
  816MOL0     C 7601   6.524   6.893   8.740  0.4665 -0.2009 -0.7877
  816MOL0     C 7602   6.455   6.812   8.620  0.0683  0.5055 -0.2539
  816MOL0     C 7603   6.548   6.691   8.603 -0.3606 -0.4273 -0.5879
  816MOL0     O 7604   6.523   6.649   8.468 -0.1898 -0.0320  0.1535
  816MOL0     C 7605   6.400   6.606   8.424  0.5845 -0.6072  0.6880
  816MOL0     C 7606   6.301   6.550   8.514  0.2060  0.1942 -0.1012
  816MOL0     C 7607   6.175   6.522   8.466  0.1750 -0.5076 -0.5674
  816MOL0     C 7608   6.142   6.531   8.328 -0.4077  0.5918 -1.5414
  816MOL0     C 7609   6.007   6.497   8.276 -0.9933  0.5730 -0.7575
  816MOL0     O 7610   5.997   6.499   8.139 -0.2721 -0.2026  0.1756
  816MOL0     C 7611   5.890   6.432   8.090 -0.2766  0.3883  0.1846
  816MOL0     C 7612   5.893   6.293   8.065  0.4427 -0.0506 -0.0258
  816MOL0     C 7613   5.784   6.217   8.014  0.3598 -0.7369 -0.2583
  816MOL0     C 7614   5.660   6.273   7.990 -0.2675 -0.8205  0.2820
  816MOL0     O 7615   5.545   6.201   7.949 -1.0693  0.0129  0.9714
  816MOL0     C 7616   5.518   6.079   8.017 -0.2733  0.0247  0.9228
  816MOL0     C 7617   5.383   6.023   7.987 -0.0972  0.7128 -0.1902
  816MOL0     C 7618   5.273   6.122   8.005  0.0020 -0.8455 -0.5445
  816MOL0     C 7619   5.125   6.070   7.978 -1.7934  0.7541 -0.3191
  816MOL0     C 7620   5.033   6.192   7.956  0.4458  1.2222  0.7189
  816MOL0     C 7621   4.885   6.157   7.929  0.4453  0.5377 -0.4576
  816MOL0     C 7622   4.787   6.274   7.956  0.8677  0.3617 -0.5049
  816MOL0     C 7623   4.641   6.235   7.932  0.2496 -0.9449 -0.4170
  816MOL0    Cl 7624   4.609   6.214   7.757  0.2183  0.4525 -0.0008
  816MOL0     C 7625   5.655   6.410   8.019  0.5547 -0.3231 -0.9242
  816MOL0     C 7626   5.763   6.489   8.057  0.0387 -0.1492 -1.6851
  816MOL0     O 7627   5.920   6.452   8.345 -0.4847  0.5671 -0.2044
  816MOL0     C 7628   6.243   6.578   8.240  0.6682  0.7306  0.0216
  816MOL0     C 7629   6.366   6.618   8.288 -0.0299 -0.5018 -0.5621
  816MOL0     N 7630   6.604   7.172   8.880  0.2115 -0.4730 -0.7296
  816MOL0     N 7631   6.613   7.226   9.000  0.1816  0.3872  0.6472
  816MOL0     C 7632   6.946   7.542   9.708 -1.0369 -0.7093 -1.2502
  816MOL0     C 7633   7.025   7.653   9.744  0.0787 -0.6595 -0.2229
  816MOL0     C 7634   7.294   7.883  10.060  0.6974  0.5006 -0.5603
  816MOL0     C 7635   7.300   7.931  10.189  0.3244  0.2802  0.7948
  816MOL0     C 7636   7.423   7.982  10.239  0.2880 -0.2077 -0.5557
  816MOL0     C 7637   7.544   7.981  10.164 -0.2918 -1.4716  1.1771
  816MOL0     O 7638   7.677   8.009  10.210  0.3600  0.1814 -0.0055
  816MOL0     C 7639   7.696   8.045  10.346 -0.1710 -0.2481 -0.3652
  816MOL0     C 7640   7.802   7.940  10.403  0.1983  0.4552 -0.3473
  816MOL0     C 7641   7.951   7.974  10.384 -0.0963 -0.4343  0.1863
  816MOL0     C 7642   8.031   7.846  10.427 -0.9030  0.2113 -0.2124
  816MOL0     C 7643   8.156   7.886  10.487 -0.3726  0.7567 -0.0990
  816MOL0     C 7644   8.253   7.930  10.551  0.2306 -0.3704 -0.3334
  816MOL0     C 7645   7.533   7.937  10.031 -0.7454  0.2941  0.1638
  816MOL0     C 7646   7.416   7.882   9.987  0.0999  0.3661  0.2946
  816MOL0     H 7647   7.141   7.541  10.034 -2.2412 -0.3254  1.9522
  816MOL0     H 7648   7.022   7.338   9.975  1.1078  0.6838 -0.0714
  816MOL0     H 7649   6.741   7.353   9.930 -0.7028  0.1636  0.9004
  816MOL0     H 7650   6.813   7.192   9.919 -0.4722  0.4172 -0.0106
  816MOL0     H 7651   6.580   7.178   9.836 -1.7342  3.5213  0.9364
  816MOL0     H 7652   6.684   7.181   9.705  0.8962  0.6097 -0.6700
  816MOL0     H 7653   6.636   7.447   9.692  0.0981 -1.0631 -1.5996
  816MOL0     H 7654   6.528   7.411   9.836  0.8820 -0.8841 -0.8557
  816MOL0     H 7655   6.441   7.221   9.689 -2.7697  0.8191  0.0389
  816MOL0     H 7656   6.387   7.391   9.646 -1.0008 -0.2691 -1.9466
  816MOL0     H 7657   6.636   7.318   9.510 -0.4024  0.5764  0.1359
  816MOL0     H 7658   6.470   7.369   9.453 -2.2327 -3.4676 -2.1922
  816MOL0     H 7659   6.404   7.135   9.479 -0.8798  2.3693 -1.5432
  816MOL0     H 7660   6.577   7.086   9.524  2.2209  0.6077 -0.8069
  816MOL0     H 7661   6.663   7.159   9.315  1.0941 -0.4110 -3.5421
  816MOL0     H 7662   6.531   7.042   9.301  0.7266  1.7073 -4.0490
  816MOL0     H 7663   6.538   7.335   9.232  0.7249  0.0009  1.1062
  816MOL0     H 7664   6.383   7.253   9.233  0.8228  0.9909 -0.4810
  816MOL0     H 7665   6.359   7.023   9.072  1.3134  1.4496  5.0828
  816MOL0     H 7666   6.400   7.079   8.715 -1.6560  1.1746  1.7046
  816MOL0     H 7667   6.334   6.953   8.824 -0.2534 -0.2872 -0.1285
  816MOL0     H 7668   6.527   6.816   8.817  0.7514 -1.8231 -2.3638
  816MOL0     H 7669   6.627   6.928   8.728  1.1618 -0.5369  2.9003
  816MOL0     H 7670   6.357   6.770   8.641  0.9905 -1.3189  0.5881
  816MOL0     H 7671   6.458   6.870   8.527 -0.6875 -0.8183 -1.1326
  816MOL0     H 7672   6.520   6.607   8.667  2.5278  0.1748  1.6428
  816MOL0     H 7673   6.654   6.706   8.622 -0.3686 -2.4888  1.4758
  816MOL0     H 7674   6.324   6.545   8.619 -3.6848  2.0089  1.0145
  816MOL0     H 7675   6.094   6.482   8.526  0.3363  0.3110  0.2134
  816MOL0     H 7676   5.986   6.240   8.083 -0.7002 -2.0553  0.2620
  816MOL0     H 7677   5.778   6.108   8.019 -4.4963 -0.6157  1.5728
  816MOL0     H 7678   5.521   6.080   8.126 -0.7654 -1.7746  0.9775
  816MOL0     H 7679   5.597   6.007   7.995 -1.2050 -0.6115 -0.4680
  816MOL0     H 7680   5.362   5.943   8.059  0.7124  1.9203  1.4672
  816MOL0     H 7681   5.390   5.977   7.888 -0.0260 -3.5654  1.5760
  816MOL0     H 7682   5.304   6.199   7.934  0.1408 -0.1787  0.2201
  816MOL0     H 7683   5.276   6.159   8.108  0.8695 -0.4827 -0.7014
  816MOL0     H 7684   5.112   5.990   7.905 -1.5332 -1.2019  1.6532
  816MOL0     H 7685   5.092   6.024   8.072 -3.2374  1.2387 -0.5507
  816MOL0     H 7686   5.065   6.245   7.866 -0.4585 -2.7993 -2.2375
  816MOL0     H 7687   5.045   6.257   8.043  3.2205  0.9931  0.5972
  816MOL0     H 7688   4.857   6.067   7.985  1.9453 -1.4814 -2.7920
  816MOL0     H 7689   4.876   6.124   7.826 -1.2617  0.8339 -0.4367
  816MOL0     H 7690   4.811   6.305   8.058  0.3560 -0.7929 -0.0125
  816MOL0     H 7691   4.814   6.366   7.904 -1.9652  2.7885  1.9531
  816MOL0     H 7692   4.571   6.313   7.966 -1.0345 -2.4763  0.5827
  816MOL0     H 7693   4.619   6.145   7.990  1.5987 -0.9425  0.1185
  816MOL0     H 7694   5.561   6.465   8.019 -0.3891 -1.8832 -0.1754
  816MOL0     H 7695   5.750   6.596   8.075 -3.5894 -0.9750  2.2798
  816MOL0     H 7696   6.207   6.592   8.139 -0.1797  2.6442  0.5513
  816MOL0     H 7697   6.424   6.683   8.223 -4.3451  3.0304 -1.4166
  816MOL0     H 7698   6.891   7.556   9.615 -1.5952  1.5115 -0.6461
  816MOL0     H 7699   7.045   7.734   9.675  1.0123  1.5284  2.4645
  816MOL0     H 7700   7.222   7.925  10.265 -3.2906 -0.0427 -2.5842
  816MOL0     H 7701   7.412   8.010  10.343 -0.5421  2.9163 -1.3768
  816MOL0     H 7702   7.603   8.047  10.404  0.3172  3.1259  0.4872
  816MOL0     H 7703   7.749   8.140  10.342 -0.5669 -0.0832 -2.2725
  816MOL0     H 7704   7.785   7.916  10.508  3.0172 -2.6061 -0.3969
  816MOL0     H 7705   7.778   7.847  10.351 -0.1375  1.1128 -1.3975
  816MOL0     H 7706   7.984   8.063  10.438  0.3502 -0.7937  0.5095
  816MOL0     H 7707   7.980   7.988  10.279 -4.5060  1.2026 -1.0552
  816MOL0     H 7708   7.971   7.784  10.494 -1.4980 -1.7744 -2.4536
  816MOL0     H 7709   8.037   7.791  10.332 -4.0520  1.4629 -1.2465
  816MOL0     H 7710   8.331   7.953  10.620 -0.2710 -1.7163  0.7367
  816MOL0     H 7711   7.620   7.930   9.968 -0.8946 -0.2491  0.0065
  816MOL0     H 7712   7.410   7.836   9.889  3.1661  0.7668 -0.1760
  817MOL0     O 7713   0.685   9.655   5.990 -0.8920 -0.4324  0.6613
  817MOL0     C 7714   0.732   9.644   5.873  0.6270 -0.3201 -0.8356
  817MOL0     O 7715   0.661   9.645   5.754 -0.2939  0.0080  0.4058
  817MOL0     C 7716   0.521   9.650   5.755 -0.2807 -1.3428  0.8977
  817MOL0     C 7717   0.451   9.709   5.644 -0.4623  0.5615  0.0870
  817MOL0     C 7718   0.312   9.713   5.638  1.1163 -0.4825 -0.6882
  817MOL0     C 7719   0.236   9.661   5.743 -0.2886  0.3299  0.8290
  817MOL0     O 7720   0.103   9.670   5.747  0.5319  0.0904  0.8706
  817MOL0     C 7721   0.034   9.769   5.666 -0.0620  0.0430 -0.5799
  817MOL0     C 7722  -0.105   9.784   5.743 -0.2153 -0.2775 -0.3403
  817MOL0     C 7723  -0.178   9.640   5.747 -0.6456 -0.8818 -0.6956
  817MOL0     C 7724  -0.332   9.646   5.759 -0.4049 -1.2829  0.9757
  817MOL0     C 7725  -0.388   9.502   5.774  0.1729  0.1654 -0.0300
  817MOL0     C 7726  -0.523   9.484   5.861 -0.2006  0.7287  1.2334
  817MOL0     C 7727  -0.634   9.583   5.838 -0.0719  0.6837  0.4280
  817MOL0     C 7728  -0.754   9.555   5.927  0.4239  0.7311  0.0603
  817MOL0     N 7729  -0.838   9.436   5.878 -0.4972 -0.0949  0.3768
  817MOL0     C 7730  -0.928   9.443   5.768 -1.3505 -0.5976 -0.7038
  817MOL0     C 7731  -0.978   9.312   5.764 -0.0965  0.2402 -0.2528
  817MOL0     C 7732  -1.091   9.261   5.690  0.1453 -0.2769  0.2993
  817MOL0     C 7733  -1.054   9.241   5.539 -0.4491  0.5351  0.0907
  817MOL0     C 7734  -0.981   9.111   5.524 -1.1110  0.3215 -0.4443
  817MOL0     C 7735  -0.979   9.059   5.381 -0.8609 -0.3404 -0.6106
  817MOL0     O 7736  -1.001   8.918   5.379 -0.9606 -0.1513 -0.0820
  817MOL0     C 7737  -0.983   8.847   5.259 -0.2486  0.5112 -0.2482
  817MOL0     C 7738  -0.985   8.902   5.130  0.1685  0.2313  0.3689
  817MOL0     C 7739  -0.965   8.817   5.018 -0.0048  0.0568  0.9186
  817MOL0     C 7740  -0.944   8.685   5.035  0.1962  0.1923  0.2719
  817MOL0     C 7741  -0.937   8.598   4.920  0.0525  0.0636  0.1378
  817MOL0     O 7742  -0.829   8.509   4.918  0.6573 -0.4312 -1.3273
  817MOL0     C 7743  -0.828   8.407   4.836  0.0973  0.8185 -1.4519
  817MOL0     C 7744  -0.940   8.352   4.772  0.1330 -0.1975 -0.1385
  817MOL0     C 7745  -0.926   8.258   4.671 -0.0199 -0.4931 -0.0379
  817MOL0     C 7746  -0.813   8.196   4.635  0.8146 -0.3434  0.0774
  817MOL0     O 7747  -0.795   8.099   4.538 -1.1503 -0.5401  0.3254
  817MOL0     C 7748  -0.905   8.050   4.457  0.5718  0.5695 -0.1507
  817MOL0     C 7749  -0.953   8.154   4.362 -0.6683  0.4899  0.0811
  817MOL0     C 7750  -1.050   8.106   4.258 -0.0065  0.7470  0.1120
  817MOL0     C 7751  -1.039   8.197   4.134 -0.1820  0.4555 -0.0310
  817MOL0     C 7752  -1.120   8.144   4.016 -0.2698 -0.3665  0.9710
  817MOL0     C 7753  -1.093   8.239   3.896  0.6795 -0.3405  0.1594
  817MOL0     C 7754  -1.141   8.176   3.758 -0.1719 -0.2722  0.2480
  817MOL0     C 7755  -1.281   8.113   3.758  0.0450 -0.8808  0.2717
  817MOL0    Cl 7756  -1.401   8.219   3.824  0.3260 -0.0800 -0.3347
  817MOL0     C 7757  -0.696   8.248   4.691  0.6345 -0.3499  0.0219
  817MOL0     C 7758  -0.703   8.345   4.790 -0.3792  0.7470 -0.5573
  817MOL0     O 7759  -1.023   8.611   4.831 -0.0350 -0.2525  0.2336
  817MOL0     C 7760  -0.945   8.636   5.163 -0.1006 -0.7208  0.0101
  817MOL0     C 7761  -0.974   8.711   5.276 -0.1178 -0.2964 -0.3799
  817MOL0     N 7762  -0.900   9.228   5.849 -0.0985  0.7609  0.2603
  817MOL0     N 7763  -0.812   9.302   5.914 -0.3274  0.6549 -0.1127
  817MOL0     C 7764   0.305   9.598   5.845 -0.1369 -1.3763 -0.2575
  817MOL0     C 7765   0.447   9.587   5.849  0.1604 -0.2412  0.8822
  817MOL0     C 7766   0.854   9.567   5.870 -0.0556  0.0497  0.8618
  817MOL0     C 7767   0.939   9.548   5.982  1.1876  0.2120  0.2150
  817MOL0     C 7768   1.053   9.465   5.983  0.2117  0.2482 -0.8257
  817MOL0     C 7769   1.086   9.394   5.868 -0.3684  0.4661 -0.5119
  817MOL0     O 7770   1.200   9.313   5.872  0.1082  0.4693 -0.0590
  817MOL0     C 7771   1.241   9.230   5.761  0.2546  0.5955  0.1103
  817MOL0     C 7772   1.359   9.299   5.691  0.2753  0.3146 -0.4762
  817MOL0     C 7773   1.488   9.295   5.766 -0.1247 -0.1077 -1.1552
  817MOL0     C 7774   1.605   9.348   5.688 -0.3922 -0.4454  0.2398
  817MOL0     C 7775   1.718   9.382   5.776 -0.1443  0.3520 -0.1545
  817MOL0     C 7776   1.823   9.401   5.826 -0.5151 -1.5906 -0.8610
  817MOL0     C 7777   1.002   9.407   5.757 -0.0748  0.2507  0.1331
  817MOL0     C 7778   0.895   9.494   5.758 -0.6615 -0.4466 -0.5927
  817MOL0     H 7779   0.492   9.760   5.558 -1.9732 -2.6239 -2.7336
  817MOL0     H 7780   0.258   9.755   5.553  0.4694  1.2248  0.5097
  817MOL0     H 7781   0.036   9.718   5.570  0.1301 -1.9538  0.4162
  817MOL0     H 7782   0.087   9.865   5.668 -0.0105  0.0133 -0.4784
  817MOL0     H 7783  -0.175   9.856   5.700  0.5291 -0.1342 -1.3494
  817MOL0     H 7784  -0.068   9.808   5.843  2.3137  4.2098 -2.0828
  817MOL0     H 7785  -0.128   9.580   5.824  0.0898  1.9054  1.1941
  817MOL0     H 7786  -0.162   9.592   5.651 -0.0420  0.8379 -1.4854
  817MOL0     H 7787  -0.366   9.712   5.839 -0.5368 -0.1932  0.0341
  817MOL0     H 7788  -0.364   9.703   5.672 -0.2371  2.1333  2.9960
  817MOL0     H 7789  -0.311   9.437   5.814  1.2133  0.6603 -1.1601
  817MOL0     H 7790  -0.412   9.465   5.673  0.5794 -2.0454  0.6354
  817MOL0     H 7791  -0.485   9.486   5.964  4.6908  1.0837 -0.3486
  817MOL0     H 7792  -0.556   9.384   5.833  0.9674  0.1766  1.7669
  817MOL0     H 7793  -0.591   9.682   5.855  1.0703  0.4620 -0.9525
  817MOL0     H 7794  -0.662   9.576   5.732 -2.1612 -3.2303  1.0175
  817MOL0     H 7795  -0.808   9.649   5.941 -0.2869 -0.0612  3.4246
  817MOL0     H 7796  -0.716   9.533   6.027 -3.7106  2.5923  2.3011
  817MOL0     H 7797  -0.984   9.531   5.738 -5.1674 -1.4797  2.8700
  817MOL0     H 7798  -1.173   9.333   5.691 -0.0440 -0.4899  0.3447
  817MOL0     H 7799  -1.122   9.166   5.735 -0.2613 -1.3687 -2.1472
  817MOL0     H 7800  -1.010   9.326   5.485 -0.7384  0.1853 -0.7065
  817MOL0     H 7801  -1.145   9.220   5.481 -0.2847 -0.1322  0.0663
  817MOL0     H 7802  -0.877   9.123   5.557 -0.8482 -0.7851 -0.8281
  817MOL0     H 7803  -1.019   9.034   5.592  1.1405 -0.4612  0.0134
  817MOL0     H 7804  -0.878   9.077   5.344 -1.2344 -0.4477 -1.7306
  817MOL0     H 7805  -1.053   9.112   5.319 -0.6636  2.5606  1.4176
  817MOL0     H 7806  -1.021   9.004   5.119 -0.9055  0.0558  2.0090
  817MOL0     H 7807  -0.974   8.863   4.920 -0.6939 -0.8873  0.5356
  817MOL0     H 7808  -1.044   8.376   4.790  0.2503  1.8524 -1.8529
  817MOL0     H 7809  -1.019   8.228   4.623  1.6849 -5.0147 -1.0548
  817MOL0     H 7810  -0.991   8.019   4.516  1.2849 -1.1097  0.0643
  817MOL0     H 7811  -0.889   7.956   4.403 -1.3070 -0.8016  1.5095
  817MOL0     H 7812  -0.868   8.201   4.311  0.3555 -1.9597 -0.6273
  817MOL0     H 7813  -1.012   8.235   4.406 -1.2497 -0.4449  1.0657
  817MOL0     H 7814  -1.149   8.122   4.301 -0.8757  0.4031 -1.6407
  817MOL0     H 7815  -1.031   8.000   4.234  3.3381  0.9967  1.1665
  817MOL0     H 7816  -1.082   8.295   4.156  0.4414  0.6087  0.5519
  817MOL0     H 7817  -0.931   8.197   4.114  0.1726 -3.6490  0.9683
  817MOL0     H 7818  -1.226   8.148   4.042 -0.7140 -0.1423 -0.7843
  817MOL0     H 7819  -1.093   8.042   3.987  0.4777  0.0782  0.0558
  817MOL0     H 7820  -0.988   8.268   3.896  0.1468  1.7767  1.1779
  817MOL0     H 7821  -1.142   8.333   3.924  2.5656  0.0703  2.3584
  817MOL0     H 7822  -1.134   8.252   3.680 -0.6490 -0.3380  0.1393
  817MOL0     H 7823  -1.072   8.095   3.732 -1.9148 -1.2251 -1.6657
  817MOL0     H 7824  -1.269   8.018   3.812  2.5298 -1.6572 -1.4466
  817MOL0     H 7825  -1.315   8.085   3.658 -0.1031  0.7010 -0.1356
  817MOL0     H 7826  -0.595   8.218   4.664  0.3131 -1.3466 -0.1373
  817MOL0     H 7827  -0.612   8.390   4.828 -0.1692 -0.1446  0.0226
  817MOL0     H 7828  -0.947   8.528   5.156  0.1720 -0.6577 -1.4747
  817MOL0     H 7829  -1.009   8.665   5.368 -0.1825  0.0015 -0.2549
  817MOL0     H 7830   0.244   9.567   5.929  0.2795  0.8409  0.9508
  817MOL0     H 7831   0.495   9.544   5.936  0.3151  4.1131  3.2229
  817MOL0     H 7832   0.924   9.606   6.073  0.9305  2.6563 -1.3028
  817MOL0     H 7833   1.121   9.453   6.066  0.7858 -1.8868 -1.5391
  817MOL0     H 7834   1.169   9.220   5.679  1.3132 -3.7422 -0.5087
  817MOL0     H 7835   1.267   9.134   5.807  3.4905  2.4516  2.5759
  817MOL0     H 7836   1.380   9.252   5.595  1.1083 -1.1561  0.4013
  817MOL0     H 7837   1.324   9.402   5.674  2.1324  0.9181 -0.8365
  817MOL0     H 7838   1.507   9.195   5.805 -1.0141  0.9640  2.4401
  817MOL0     H 7839   1.479   9.355   5.857  0.9416 -1.7671  0.0973
  817MOL0     H 7840   1.623   9.268   5.616 -1.1702 -0.2640 -0.1618
  817MOL0     H 7841   1.578   9.440   5.636  1.4313  0.6614  1.1446
  817MOL0     H 7842   1.923   9.408   5.865 -0.8356 -1.1649 -0.0772
  817MOL0     H 7843   1.021   9.340   5.674 -1.5106 -0.9379  0.7194
  817MOL0     H 7844   0.832   9.505   5.671 -0.1131  1.1927 -0.8112
  818MOL0     O 7845   0.551  10.482   7.493  0.2685  0.2192 -1.0557
  818MOL0     C 7846   0.565  10.439   7.376 -0.7677 -0.6528 -0.4788
  818MOL0     O 7847   0.678  10.455   7.291  0.1956 -0.1463 -0.1367
  818MOL0     C 7848   0.785  10.510   7.345 -1.2134 -0.4576 -0.0600
  818MOL0     C 7849   0.844  10.466   7.464 -0.7910  0.3436 -0.6419
  818MOL0     C 7850   0.971  10.511   7.492 -0.0773 -1.6659  0.5141
  818MOL0     C 7851   1.042  10.608   7.413  0.6165  0.3175  0.0622
  818MOL0     O 7852   1.164  10.654   7.454 -0.0292 -0.4796  0.0941
  818MOL0     C 7853   1.221  10.784   7.418  0.0788  0.6370  0.2224
  818MOL0     C 7854   1.352  10.782   7.503 -0.2370  0.2810  0.2484
  818MOL0     C 7855   1.439  10.897   7.445 -0.0732 -1.0754 -0.4943
  818MOL0     C 7856   1.409  11.030   7.518 -0.0182 -0.2898 -0.7779
  818MOL0     C 7857   1.452  11.168   7.459  0.6483  0.3441 -0.0068
  818MOL0     C 7858   1.601  11.175   7.421 -0.3894 -0.3831 -0.7231
  818MOL0     C 7859   1.711  11.134   7.526 -0.4103 -0.1012 -0.1568
  818MOL0     C 7860   1.698  11.205   7.665 -0.6756  0.7565  0.1247
  818MOL0     N 7861   1.813  11.169   7.749  0.2954 -0.2639  0.0268
  818MOL0     C 7862   1.851  11.039   7.772 -0.1372  0.1102 -0.6615
  818MOL0     C 7863   1.972  11.029   7.836 -0.6175  0.6444  0.8289
  818MOL0     C 7864   2.051  10.910   7.894 -0.2952 -1.2037 -0.0587
  818MOL0     C 7865   1.955  10.834   7.988 -1.0827  0.6108 -0.0727
  818MOL0     C 7866   2.017  10.810   8.129  0.4286 -0.2704 -0.0045
  818MOL0     C 7867   1.919  10.751   8.224 -0.7689  0.3926  0.2494
  818MOL0     O 7868   1.820  10.665   8.161 -0.8261 -0.4984 -0.4965
  818MOL0     C 7869   1.833  10.530   8.185 -0.0506 -0.4217  0.7628
  818MOL0     C 7870   1.950  10.448   8.170 -0.1185 -0.1561 -0.8667
  818MOL0     C 7871   1.961  10.317   8.221  0.2757 -0.4346 -0.3871
  818MOL0     C 7872   1.854  10.264   8.293  0.5218  0.4790  1.1177
  818MOL0     C 7873   1.846  10.128   8.344 -0.2464 -1.4796  0.2435
  818MOL0     O 7874   1.962  10.060   8.373  0.1235 -0.3716  0.2625
  818MOL0     C 7875   1.952   9.936   8.422  1.0315 -0.4398 -0.2879
  818MOL0     C 7876   1.965   9.919   8.558  0.2992 -0.0521  0.6221
  818MOL0     C 7877   1.933   9.796   8.614 -0.0902  0.0198  0.1380
  818MOL0     C 7878   1.894   9.680   8.537 -0.8774 -0.6222 -0.1086
  818MOL0     O 7879   1.855   9.566   8.615 -0.1407 -0.5686 -0.3266
  818MOL0     C 7880   1.842   9.441   8.547  0.7908  0.4493  0.2457
  818MOL0     C 7881   1.978   9.369   8.533 -0.0983  0.8642  0.2598
  818MOL0     C 7882   1.976   9.230   8.469  1.1230 -0.3960  0.8161
  818MOL0     C 7883   2.113   9.171   8.482  0.3846 -0.3431  0.4875
  818MOL0     C 7884   2.112   9.053   8.387  0.0663  0.1048 -0.3935
  818MOL0     C 7885   2.013   8.941   8.405 -0.0934 -0.4629 -0.6972
  818MOL0     C 7886   2.045   8.809   8.332 -0.0792 -0.1786  0.3691
  818MOL0     C 7887   1.956   8.692   8.387 -0.5709 -0.3909  0.2899
  818MOL0    Cl 7888   1.926   8.670   8.556  0.0443 -0.2385 -0.1056
  818MOL0     C 7889   1.877   9.700   8.408 -0.7127 -0.0061  0.4085
  818MOL0     C 7890   1.907   9.833   8.349  0.3172  0.0040 -0.2229
  818MOL0     O 7891   1.737  10.091   8.370  0.4133 -0.0856 -0.6714
  818MOL0     C 7892   1.731  10.340   8.287 -0.2464  0.3414  0.4710
  818MOL0     C 7893   1.720  10.467   8.231  0.1760  1.2586  0.4177
  818MOL0     N 7894   2.015  11.165   7.841 -0.2023 -0.2921 -0.3534
  818MOL0     N 7895   1.930  11.242   7.778 -0.6417 -0.0818 -0.3492
  818MOL0     C 7896   0.978  10.663   7.299  0.2378  0.6086  0.3899
  818MOL0     C 7897   0.849  10.602   7.263 -0.6471 -0.5666  0.0376
  818MOL0     C 7898   0.442  10.384   7.308 -0.4503  0.0763 -0.6157
  818MOL0     C 7899   0.452  10.349   7.177 -0.0220  0.6361  0.2440
  818MOL0     C 7900   0.342  10.303   7.110  0.7628  0.1310 -0.2642
  818MOL0     C 7901   0.216  10.285   7.180 -0.3715 -0.2081 -0.3268
  818MOL0     O 7902   0.119  10.241   7.103 -0.5106  0.0841 -0.9674
  818MOL0     C 7903  -0.014  10.259   7.158  0.0294  0.0580  0.8294
  818MOL0     C 7904  -0.105  10.247   7.040 -0.1015  0.4701 -0.4902
  818MOL0     C 7905  -0.239  10.322   7.065  1.4383  0.3205  0.2377
  818MOL0     C 7906  -0.320  10.360   6.940  0.4418  0.6956  0.8443
  818MOL0     C 7907  -0.387  10.238   6.885 -0.7493 -0.4070 -0.1128
  818MOL0     C 7908  -0.444  10.135   6.874  0.1308 -0.3702  0.0237
  818MOL0     C 7909   0.195  10.336   7.314  0.0697 -0.8258 -0.0137
  818MOL0     C 7910   0.318  10.380   7.383  0.9322 -0.1763  0.2684
  818MOL0     H 7911   0.811  10.383   7.527 -1.0479  2.2082  1.8367
  818MOL0     H 7912   1.027  10.472   7.577  1.7745 -0.7519 -0.2049
  818MOL0     H 7913   1.155  10.870   7.436  0.1132  0.2151  2.6465
  818MOL0     H 7914   1.234  10.769   7.310 -3.4812  2.6183 -0.6682
  818MOL0     H 7915   1.402  10.689   7.476  2.9583  2.4985 -2.3406
  818MOL0     H 7916   1.338  10.787   7.611 -1.3145 -4.6844  0.5519
  818MOL0     H 7917   1.416  10.910   7.339 -0.4143 -1.1160 -0.4294
  818MOL0     H 7918   1.545  10.876   7.455  0.8369  3.3168  1.5077
  818MOL0     H 7919   1.300  11.034   7.519 -0.1157 -1.7694 -1.4119
  818MOL0     H 7920   1.439  11.014   7.622  1.2430 -3.6906 -1.5134
  818MOL0     H 7921   1.413  11.246   7.524 -0.5379  0.8041 -1.2204
  818MOL0     H 7922   1.396  11.177   7.365 -0.8321  1.6271  0.9514
  818MOL0     H 7923   1.615  11.277   7.386 -1.4061 -1.9022 -6.5788
  818MOL0     H 7924   1.611  11.111   7.333 -0.7351 -0.9270 -0.3785
  818MOL0     H 7925   1.690  11.028   7.542  0.5468 -0.1817  0.6627
  818MOL0     H 7926   1.812  11.135   7.484  0.5669 -2.2088  1.9110
  818MOL0     H 7927   1.604  11.177   7.713 -1.4541 -0.7977 -2.1611
  818MOL0     H 7928   1.690  11.313   7.651 -0.2283  0.8476  0.5185
  818MOL0     H 7929   1.800  10.953   7.729 -1.0615  0.6903 -0.7661
  818MOL0     H 7930   2.144  10.944   7.942 -1.1485  2.9191 -0.9556
  818MOL0     H 7931   2.085  10.843   7.815 -0.9894 -0.1770 -1.2557
  818MOL0     H 7932   1.937  10.739   7.936 -0.3270  0.4865 -0.1158
  818MOL0     H 7933   1.854  10.875   7.996 -1.0181  0.4672  2.2256
  818MOL0     H 7934   2.097  10.739   8.106 -2.4623 -2.6907 -3.9133
  818MOL0     H 7935   2.064  10.899   8.172 -1.0500 -0.2575  1.7054
  818MOL0     H 7936   1.872  10.840   8.267  0.4624  0.1958  2.1275
  818MOL0     H 7937   1.977  10.699   8.301  0.1139  2.3756  0.9917
  818MOL0     H 7938   2.019  10.502   8.105 -0.2391  4.2447  2.2922
  818MOL0     H 7939   2.057  10.266   8.212 -0.4058 -1.4885 -2.1735
  818MOL0     H 7940   1.995  10.011   8.609  1.1320  0.6788 -1.1219
  818MOL0     H 7941   1.946   9.764   8.717 -2.8851 -2.0107 -0.0349
  818MOL0     H 7942   1.792   9.459   8.451  0.0623 -2.0455  0.0949
  818MOL0     H 7943   1.774   9.377   8.603 -1.4959  1.2473 -1.4634
  818MOL0     H 7944   2.002   9.348   8.638 -1.5920  1.7204  0.8022
  818MOL0     H 7945   2.048   9.435   8.482 -0.4728  0.6892 -0.4952
  818MOL0     H 7946   1.951   9.245   8.364  0.3893 -0.8184  0.9196
  818MOL0     H 7947   1.910   9.167   8.530  2.6420 -1.4141  1.4646
  818MOL0     H 7948   2.186   9.246   8.450 -1.1646  0.7339 -0.6556
  818MOL0     H 7949   2.124   9.133   8.584  1.0198 -3.5003 -0.6430
  818MOL0     H 7950   2.206   8.997   8.396 -1.3609 -2.0851  3.2286
  818MOL0     H 7951   2.104   9.093   8.286 -1.2052 -1.7647 -1.1054
  818MOL0     H 7952   1.917   8.974   8.367  0.7033  2.2953 -0.5327
  818MOL0     H 7953   1.998   8.911   8.509 -1.6209  0.4730 -0.6304
  818MOL0     H 7954   2.030   8.821   8.224  1.4976  0.2307  0.1725
  818MOL0     H 7955   2.148   8.774   8.339 -1.0469 -2.9995  1.7874
  818MOL0     H 7956   2.019   8.610   8.352 -1.4137 -0.8413 -0.2136
  818MOL0     H 7957   1.855   8.695   8.344 -0.3426  0.7303 -0.2168
  818MOL0     H 7958   1.832   9.635   8.333  0.1643 -1.4160  1.0773
  818MOL0     H 7959   1.895   9.853   8.243  2.7470 -0.8699 -0.7181
  818MOL0     H 7960   1.637  10.305   8.327 -0.8157  0.9717 -0.2861
  818MOL0     H 7961   1.623  10.514   8.240 -1.4771 -1.5903 -1.0834
  818MOL0     H 7962   1.016  10.742   7.235  0.2986  0.8799  0.7614
  818MOL0     H 7963   0.799  10.646   7.177  0.5112  0.7972  0.0054
  818MOL0     H 7964   0.550  10.336   7.131 -1.2059  2.1865 -3.0482
  818MOL0     H 7965   0.352  10.246   7.018  0.5407  1.2187 -0.9849
  818MOL0     H 7966  -0.012  10.358   7.206  3.8338 -0.2352  1.5272
  818MOL0     H 7967  -0.044  10.192   7.238  0.1807 -0.2724  0.6128
  818MOL0     H 7968  -0.053  10.280   6.949 -1.4891 -0.7464 -1.7954
  818MOL0     H 7969  -0.117  10.139   7.024 -1.5336  0.9041 -2.7264
  818MOL0     H 7970  -0.223  10.412   7.124 -0.1389  0.0212  1.1878
  818MOL0     H 7971  -0.306  10.259   7.125  0.8201  1.7389  1.0850
  818MOL0     H 7972  -0.399  10.430   6.967 -2.5976 -1.4377 -1.7830
  818MOL0     H 7973  -0.255  10.404   6.863 -3.3564  0.0016 -3.1505
  818MOL0     H 7974  -0.513  10.056   6.855 -0.9865  0.4477  0.5990
  818MOL0     H 7975   0.109  10.337   7.381 -0.0670 -1.5771 -0.1614
  818MOL0     H 7976   0.299  10.405   7.487 -0.3331 -1.3767  0.3496
  819MOL0     O 7977   7.548   8.757   8.792  0.9102 -0.3112 -0.3132
  819MOL0     C 7978   7.654   8.701   8.780  0.2968 -0.4001  0.0681
  819MOL0     O 7979   7.765   8.763   8.725 -0.1319  0.5398  0.1133
  819MOL0     C 7980   7.747   8.895   8.691 -0.3921  0.4172 -0.7391
  819MOL0     C 7981   7.659   8.930   8.586 -0.8983  0.0413  1.6868
  819MOL0     C 7982   7.635   9.060   8.551 -0.1882  1.0478 -0.8031
  819MOL0     C 7983   7.678   9.162   8.631 -0.1832 -0.3357  0.1261
  819MOL0     O 7984   7.630   9.290   8.620  0.2856 -0.2468  0.2482
  819MOL0     C 7985   7.488   9.298   8.620  0.2403 -0.9430 -0.3450
  819MOL0     C 7986   7.435   9.439   8.587 -0.8224 -0.0597 -0.5844
  819MOL0     C 7987   7.285   9.423   8.579 -0.5252  0.1764 -0.4670
  819MOL0     C 7988   7.231   9.552   8.513  0.2965  0.5131  0.5402
  819MOL0     C 7989   7.080   9.540   8.472 -0.0909 -0.1699  0.5026
  819MOL0     C 7990   7.038   9.628   8.359 -0.9721  0.2302  0.1338
  819MOL0     C 7991   7.035   9.775   8.384 -0.9879  0.2890  0.5512
  819MOL0     C 7992   6.949   9.818   8.497  0.3306 -0.0022  0.5810
  819MOL0     N 7993   6.811   9.785   8.484 -0.1837 -0.5582  0.8353
  819MOL0     C 7994   6.758   9.670   8.536 -0.3912 -0.7073 -0.5721
  819MOL0     C 7995   6.621   9.680   8.496 -1.1583 -0.1603 -0.2427
  819MOL0     C 7996   6.536   9.561   8.505  0.8710  0.3983 -0.3038
  819MOL0     C 7997   6.390   9.591   8.470  0.7436 -0.1923 -0.1514
  819MOL0     C 7998   6.314   9.469   8.428 -0.0905  0.1084 -0.4533
  819MOL0     C 7999   6.160   9.492   8.414 -0.1592 -0.8961  0.5281
  819MOL0     O 8000   6.091   9.382   8.347  0.2400 -0.1371 -0.7070
  819MOL0     C 8001   6.004   9.309   8.432  0.8587  0.1239  0.4063
  819MOL0     C 8002   5.896   9.245   8.366 -1.1714 -0.9315 -0.2737
  819MOL0     C 8003   5.791   9.188   8.437  0.4075 -0.8797  0.2268
  819MOL0     C 8004   5.796   9.169   8.567 -0.4110  0.4510 -1.2255
  819MOL0     C 8005   5.674   9.100   8.627 -0.2391  0.4706  0.8314
  819MOL0     O 8006   5.603   9.011   8.552  0.3760  0.0505  0.1302
  819MOL0     C 8007   5.502   8.937   8.603 -0.4682 -0.3573  0.0274
  819MOL0     C 8008   5.390   8.913   8.522  0.7676 -0.0223 -0.7396
  819MOL0     C 8009   5.296   8.818   8.563 -1.1147  0.2371  0.8379
  819MOL0     C 8010   5.301   8.764   8.691 -0.1862  0.6097 -0.0008
  819MOL0     O 8011   5.199   8.683   8.727  0.1431  0.4206  0.3160
  819MOL0     C 8012   5.237   8.557   8.778 -0.2351 -0.5894 -0.5947
  819MOL0     C 8013   5.245   8.465   8.659  0.5779  0.0272 -1.0835
  819MOL0     C 8014   5.295   8.325   8.706 -0.3152 -0.2324  0.0977
  819MOL0     C 8015   5.286   8.219   8.597  0.2552 -0.9209  0.7416
  819MOL0     C 8016   5.145   8.159   8.593 -0.2402 -0.3278  0.4612
  819MOL0     C 8017   5.161   8.060   8.477 -0.6463  0.4463  0.7368
  819MOL0     C 8018   5.015   8.021   8.433  0.3355  0.1193  0.0559
  819MOL0     C 8019   5.010   7.888   8.360  0.3234  0.2872  0.6823
  819MOL0    Cl 8020   4.843   7.872   8.300 -0.0606 -0.3539 -0.4033
  819MOL0     C 8021   5.412   8.784   8.764 -0.1174  1.1778 -0.2410
  819MOL0     C 8022   5.517   8.871   8.728  0.0500 -0.9884  0.3076
  819MOL0     O 8023   5.643   9.135   8.744  1.0651  0.0693 -0.3758
  819MOL0     C 8024   5.910   9.223   8.643  0.0158  0.6229 -0.6101
  819MOL0     C 8025   6.011   9.293   8.573  0.0413 -1.0184  0.1143
  819MOL0     N 8026   6.600   9.804   8.448  0.1466  0.5932 -0.9405
  819MOL0     N 8027   6.720   9.872   8.447  0.1350  0.8214 -0.5999
  819MOL0     C 8028   7.762   9.132   8.745 -0.4181  0.2058 -0.1425
  819MOL0     C 8029   7.799   8.996   8.779 -0.1709  1.5716 -0.4086
  819MOL0     C 8030   7.657   8.559   8.812  0.4467 -0.6682 -0.3324
  819MOL0     C 8031   7.552   8.491   8.883  0.7504 -0.0981 -0.2085
  819MOL0     C 8032   7.564   8.349   8.915  0.0948  0.0261  0.4188
  819MOL0     C 8033   7.675   8.275   8.865  0.7861 -0.7993  0.0976
  819MOL0     O 8034   7.706   8.142   8.903  0.2158 -0.2653  0.3372
  819MOL0     C 8035   7.598   8.068   8.960  0.1983  0.8113 -0.1084
  819MOL0     C 8036   7.553   8.086   9.112  1.3565  0.3717 -0.6071
  819MOL0     C 8037   7.531   7.957   9.189  0.0825  0.2559 -0.1765
  819MOL0     C 8038   7.381   7.911   9.188 -0.0576 -0.6543  0.1117
  819MOL0     C 8039   7.314   7.891   9.061  0.9426  0.3550  0.1793
  819MOL0     C 8040   7.259   7.885   8.948  0.8091 -1.3709  0.2937
  819MOL0     C 8041   7.768   8.350   8.790 -0.3062  0.8033  0.7241
  819MOL0     C 8042   7.768   8.486   8.766  0.0448 -2.0976  0.9324
  819MOL0     H 8043   7.613   8.846   8.535 -0.4389  0.4773  0.5099
  819MOL0     H 8044   7.571   9.071   8.464  0.7198 -0.7989 -1.7491
  819MOL0     H 8045   7.459   9.264   8.720 -1.8514  0.8004 -0.2898
  819MOL0     H 8046   7.435   9.231   8.552 -1.9370 -0.5928  0.8986
  819MOL0     H 8047   7.478   9.466   8.490 -2.5819 -0.8277 -1.6143
  819MOL0     H 8048   7.468   9.510   8.664 -0.0061  0.5937 -1.5136
  819MOL0     H 8049   7.242   9.416   8.679 -0.5859  1.3561 -0.3963
  819MOL0     H 8050   7.259   9.338   8.514  0.9207  0.2213 -1.1338
  819MOL0     H 8051   7.234   9.640   8.577  2.2157  0.0881  1.1181
  819MOL0     H 8052   7.282   9.560   8.417  0.6927  1.0534  0.7938
  819MOL0     H 8053   7.027   9.571   8.563 -0.1464  2.1935 -0.2728
  819MOL0     H 8054   7.056   9.438   8.441 -0.2450  0.1072 -0.3080
  819MOL0     H 8055   6.938   9.601   8.326 -1.5081  1.7139  0.4594
  819MOL0     H 8056   7.103   9.603   8.275 -1.3452 -0.4957  0.0541
  819MOL0     H 8057   7.137   9.804   8.408 -1.0327  1.0628 -0.1521
  819MOL0     H 8058   7.001   9.822   8.291 -1.5357  0.8394  1.0214
  819MOL0     H 8059   6.952   9.927   8.503 -1.2984  0.2517 -1.8449
  819MOL0     H 8060   6.978   9.779   8.595  0.7815 -4.9124 -1.2595
  819MOL0     H 8061   6.810   9.588   8.585 -2.0559 -0.4398  1.7690
  819MOL0     H 8062   6.532   9.534   8.611 -0.3236 -0.5305 -0.5658
  819MOL0     H 8063   6.578   9.473   8.454 -0.2050 -1.9653  2.5769
  819MOL0     H 8064   6.383   9.664   8.389  0.5174 -2.0341 -1.8770
  819MOL0     H 8065   6.335   9.633   8.555 -0.9679  1.4398 -1.9756
  819MOL0     H 8066   6.359   9.443   8.332  1.2139 -1.2357  0.4657
  819MOL0     H 8067   6.333   9.401   8.512  3.7109  1.2210 -0.2278
  819MOL0     H 8068   6.150   9.580   8.349  3.5000 -0.6141  0.1582
  819MOL0     H 8069   6.113   9.523   8.508 -0.5444  2.9259 -0.7570
  819MOL0     H 8070   5.885   9.269   8.261 -3.0173 -1.2312 -0.1776
  819MOL0     H 8071   5.699   9.161   8.385 -0.8847  1.7871  0.9246
  819MOL0     H 8072   5.368   8.961   8.427 -4.2147  3.0244  1.5926
  819MOL0     H 8073   5.211   8.796   8.499 -2.3599 -2.1736  3.0665
  819MOL0     H 8074   5.147   8.540   8.839 -0.6346 -3.3705 -1.8069
  819MOL0     H 8075   5.334   8.549   8.829  1.4850 -1.3941 -3.7219
  819MOL0     H 8076   5.309   8.500   8.577 -1.8058  0.2159 -2.9470
  819MOL0     H 8077   5.145   8.447   8.619  1.1636 -1.8302 -1.8091
  819MOL0     H 8078   5.236   8.300   8.795  0.5905 -1.7706  0.3015
  819MOL0     H 8079   5.397   8.331   8.743 -0.6421  2.3845  0.7493
  819MOL0     H 8080   5.310   8.275   8.506 -2.0234  1.5528  1.5186
  819MOL0     H 8081   5.359   8.138   8.601  2.3005  0.7369 -0.4996
  819MOL0     H 8082   5.066   8.235   8.587  0.7879  0.8285  1.1046
  819MOL0     H 8083   5.126   8.102   8.684 -0.3959  0.1156  0.7111
  819MOL0     H 8084   5.215   7.971   8.509  2.8256  1.0123 -2.6812
  819MOL0     H 8085   5.210   8.102   8.388 -2.0583 -0.5594 -0.5667
  819MOL0     H 8086   4.963   7.990   8.524  1.1720 -2.6226 -0.2933
  819MOL0     H 8087   4.950   8.094   8.385 -1.2130 -0.2155  1.5487
  819MOL0     H 8088   5.038   7.799   8.417  2.8168  1.4101  1.3455
  819MOL0     H 8089   5.071   7.886   8.269  1.3788 -1.1315  1.3938
  819MOL0     H 8090   5.425   8.726   8.855  2.7318 -1.4577 -2.1037
  819MOL0     H 8091   5.605   8.884   8.790  0.7171  1.4932 -1.0342
  819MOL0     H 8092   5.914   9.218   8.751 -1.3200  1.9981 -0.4638
  819MOL0     H 8093   6.089   9.321   8.643  0.3193  0.1955 -0.6590
  819MOL0     H 8094   7.801   9.214   8.804  0.6564  0.4091 -1.0854
  819MOL0     H 8095   7.868   8.978   8.860  1.7797 -2.3263 -2.6387
  819MOL0     H 8096   7.464   8.541   8.921  0.5136 -1.8386  1.6914
  819MOL0     H 8097   7.487   8.300   8.973 -2.5039  1.5310 -1.5365
  819MOL0     H 8098   7.633   7.964   8.954  0.4106  0.8847 -0.1471
  819MOL0     H 8099   7.509   8.079   8.897 -0.6853  0.7379  1.0966
  819MOL0     H 8100   7.637   8.129   9.168  2.7709 -1.6571 -1.0473
  819MOL0     H 8101   7.467   8.151   9.125 -0.8625 -2.1651 -1.6913
  819MOL0     H 8102   7.554   7.966   9.295  2.8147 -2.7730 -0.3551
  819MOL0     H 8103   7.594   7.879   9.146 -0.9410 -0.1567 -0.9832
  819MOL0     H 8104   7.379   7.812   9.233 -1.5761  0.8085  3.6361
  819MOL0     H 8105   7.332   7.983   9.255  0.1230 -1.5746  1.2501
  819MOL0     H 8106   7.205   7.879   8.856  1.0692 -1.8849  0.1647
  819MOL0     H 8107   7.852   8.289   8.759 -2.0042  0.0586 -2.9463
  819MOL0     H 8108   7.859   8.530   8.727 -1.7246  0.1965 -0.8479
  820MOL0     O 8109   8.030   8.976   9.249 -0.6036  0.7395 -0.0626
  820MOL0     C 8110   8.001   8.936   9.363 -0.9269 -0.6513 -0.1665
  820MOL0     O 8111   7.875   8.934   9.420 -0.1785  0.3271 -1.0589
  820MOL0     C 8112   7.775   8.951   9.333 -0.3531 -1.2591  0.2458
  820MOL0     C 8113   7.766   8.896   9.200  1.2527 -0.0367 -0.6313
  820MOL0     C 8114   7.654   8.922   9.122 -0.0073  0.3317  0.2669
  820MOL0     C 8115   7.557   9.017   9.158 -0.1534 -1.0051  0.2246
  820MOL0     O 8116   7.454   9.071   9.090  0.1738  0.2376 -0.3435
  820MOL0     C 8117   7.435   9.023   8.952  0.1285  0.4754  0.2209
  820MOL0     C 8118   7.300   9.054   8.896 -0.0017  0.3955 -0.6326
  820MOL0     C 8119   7.278   9.009   8.752 -0.5539 -0.7198 -0.4333
  820MOL0     C 8120   7.136   9.040   8.715  0.6434  0.1001  0.0705
  820MOL0     C 8121   7.079   8.969   8.587 -0.4970 -0.3511 -0.5512
  820MOL0     C 8122   7.162   9.025   8.465 -0.2217 -0.6491 -0.2079
  820MOL0     C 8123   7.158   8.940   8.346  0.2056 -0.7753  0.6228
  820MOL0     C 8124   7.214   8.991   8.220  1.0675 -0.8617 -0.0193
  820MOL0     N 8125   7.114   9.084   8.181  0.5071 -0.4849  0.5251
  820MOL0     C 8126   6.977   9.073   8.154 -0.0557 -0.8234 -1.1039
  820MOL0     C 8127   6.928   9.190   8.119 -0.5356 -0.6098  0.4211
  820MOL0     C 8128   6.798   9.246   8.075  0.1377  0.2250 -0.6139
  820MOL0     C 8129   6.734   9.351   8.160  0.3469 -0.2408  0.0977
  820MOL0     C 8130   6.588   9.337   8.174  0.3191  1.1982 -0.2163
  820MOL0     C 8131   6.498   9.327   8.051  1.4713 -0.1134 -0.4246
  820MOL0     O 8132   6.354   9.322   8.080  0.4683  0.2490  0.6380
  820MOL0     C 8133   6.269   9.336   7.971 -0.2030  0.5898  0.1615
  820MOL0     C 8134   6.141   9.309   7.999  0.4560  0.4748  0.2428
  820MOL0     C 8135   6.039   9.319   7.903  0.4832 -0.0637  0.5862
  820MOL0     C 8136   6.078   9.358   7.767 -0.2751  0.8916 -0.2949
  820MOL0     C 8137   5.967   9.391   7.669 -0.9419 -0.1283  0.3858
  820MOL0     O 8138   5.845   9.373   7.720  0.0511 -0.2196 -0.2070
  820MOL0     C 8139   5.723   9.415   7.674  0.9727 -0.1430  0.5253
  820MOL0     C 8140   5.601   9.366   7.720 -0.3452  0.6309 -0.2824
  820MOL0     C 8141   5.481   9.400   7.663  0.6172  0.7177  0.5868
  820MOL0     C 8142   5.466   9.483   7.554 -0.4321  0.3426  0.3282
  820MOL0     O 8143   5.338   9.518   7.522  0.9098  0.4813  0.7426
  820MOL0     C 8144   5.319   9.613   7.412  0.1392  0.7363 -1.1190
  820MOL0     C 8145   5.171   9.631   7.371  0.2925 -0.5803 -0.2820
  820MOL0     C 8146   5.158   9.748   7.283  0.3965 -0.0620  0.0549
  820MOL0     C 8147   5.010   9.780   7.255  0.4380 -0.2618  0.3266
  820MOL0     C 8148   4.995   9.889   7.135  0.8351 -0.1070  0.2879
  820MOL0     C 8149   5.072  10.013   7.154 -0.1777 -0.5034  1.1257
  820MOL0     C 8150   5.080  10.087   7.012  0.2874 -0.5601 -0.7216
  820MOL0     C 8151   5.223  10.122   6.985 -0.3659 -0.7019  0.7062
  820MOL0    Cl 8152   5.335   9.982   7.015 -0.1220  0.1135 -0.2588
  820MOL0     C 8153   5.583   9.536   7.503 -0.3958 -0.0739  0.4647
  820MOL0     C 8154   5.712   9.506   7.564 -0.8903  0.5160  0.3340
  820MOL0     O 8155   5.997   9.428   7.550  0.8568 -0.4901 -0.3660
  820MOL0     C 8156   6.210   9.381   7.734  0.4130 -0.0920  0.2260
  820MOL0     C 8157   6.302   9.371   7.841  0.2319  0.4598  0.7234
  820MOL0     N 8158   7.039   9.276   8.130  1.0037  0.2723 -0.5323
  820MOL0     N 8159   7.147   9.213   8.157 -0.3553 -0.0772  0.7089
  820MOL0     C 8160   7.556   9.049   9.298  0.0049  0.4848  0.3874
  820MOL0     C 8161   7.665   9.018   9.380  0.0317  0.4141  0.9053
  820MOL0     C 8162   8.121   8.898   9.445 -0.7473 -0.0945  0.0078
  820MOL0     C 8163   8.105   8.847   9.581 -0.2410 -0.1542 -0.3184
  820MOL0     C 8164   8.214   8.821   9.658  0.2351  0.1146  0.7883
  820MOL0     C 8165   8.337   8.840   9.609 -0.1416 -1.2818  0.1513
  820MOL0     O 8166   8.456   8.816   9.688  0.1120  0.8629  0.7151
  820MOL0     C 8167   8.481   8.875   9.815  0.3609 -0.3179  1.0771
  820MOL0     C 8168   8.408   9.011   9.829 -0.2672 -0.3061 -0.1324
  820MOL0     C 8169   8.450   9.072   9.961 -0.3180 -0.4093  0.0078
  820MOL0     C 8170   8.355   9.188   9.991  0.4108  1.2273 -1.2733
  820MOL0     C 8171   8.368   9.300   9.894 -0.7803 -0.3224  0.4137
  820MOL0     C 8172   8.387   9.406   9.838 -1.0137 -0.1851  0.1312
  820MOL0     C 8173   8.356   8.889   9.480 -0.0519  0.2913  0.4510
  820MOL0     C 8174   8.247   8.920   9.401  0.1878 -0.3848  0.7533
  820MOL0     H 8175   7.837   8.829   9.153 -0.2796 -1.3041 -1.2463
  820MOL0     H 8176   7.653   8.876   9.023 -2.5228 -1.0630  0.8500
  820MOL0     H 8177   7.439   8.914   8.957  2.8064  0.5504  1.8914
  820MOL0     H 8178   7.511   9.069   8.888 -0.3197 -3.7381 -3.8161
  820MOL0     H 8179   7.288   9.161   8.914  1.6796  1.0376 -2.8660
  820MOL0     H 8180   7.225   9.006   8.959  0.1173  1.1505  0.0976
  820MOL0     H 8181   7.290   8.901   8.748  0.9070 -0.5882 -0.3128
  820MOL0     H 8182   7.347   9.060   8.683 -1.5320 -0.7126 -1.4346
  820MOL0     H 8183   7.078   8.989   8.792 -0.3280 -2.8982 -2.4499
  820MOL0     H 8184   7.107   9.145   8.728  3.0333  0.9938 -1.1853
  820MOL0     H 8185   6.970   8.984   8.580 -0.8069 -1.8498  0.5831
  820MOL0     H 8186   7.096   8.862   8.602  0.9872 -0.1110 -0.4618
  820MOL0     H 8187   7.261   9.058   8.498 -0.1347 -0.2724 -0.8314
  820MOL0     H 8188   7.113   9.122   8.450 -2.8719 -1.6497  1.2872
  820MOL0     H 8189   7.217   8.853   8.377  1.9157 -0.3053 -1.1439
  820MOL0     H 8190   7.054   8.908   8.331  0.0081  0.2563 -0.3296
  820MOL0     H 8191   7.209   8.915   8.142 -1.3252 -2.7976  1.8553
  820MOL0     H 8192   7.314   9.034   8.226  0.7271 -0.0292 -0.0423
  820MOL0     H 8193   6.916   8.984   8.153 -3.3021  1.2169 -0.0295
  820MOL0     H 8194   6.725   9.168   8.051 -0.6583  1.4401 -2.4074
  820MOL0     H 8195   6.809   9.284   7.973 -0.9213 -1.3744 -1.3582
  820MOL0     H 8196   6.747   9.451   8.116 -1.4669  0.6518  1.4685
  820MOL0     H 8197   6.779   9.342   8.259 -0.2712  1.2030  0.5379
  820MOL0     H 8198   6.567   9.252   8.240 -1.6302 -1.2943 -3.6846
  820MOL0     H 8199   6.552   9.425   8.227  0.4454  0.5904  0.9068
  820MOL0     H 8200   6.527   9.251   7.978 -1.7088 -1.4905 -0.4163
  820MOL0     H 8201   6.514   9.426   8.006  2.0005 -0.1058 -0.2235
  820MOL0     H 8202   6.119   9.283   8.103 -0.8567 -1.0148 -0.3648
  820MOL0     H 8203   5.939   9.313   7.942 -1.0727  2.8833 -2.4582
  820MOL0     H 8204   5.609   9.299   7.805  0.7041  1.2842  0.1625
  820MOL0     H 8205   5.391   9.357   7.706 -0.2229  1.3322 -0.5032
  820MOL0     H 8206   5.377   9.574   7.328  1.2157  0.5009 -0.2966
  820MOL0     H 8207   5.354   9.711   7.447  0.8287 -0.0083  0.3749
  820MOL0     H 8208   5.099   9.641   7.453 -0.1438 -2.0238 -0.4652
  820MOL0     H 8209   5.144   9.548   7.306 -0.1686 -0.1459 -0.6522
  820MOL0     H 8210   5.210   9.725   7.189  0.9430  2.4013 -0.3174
  820MOL0     H 8211   5.205   9.836   7.328  1.9753  0.1850 -1.9098
  820MOL0     H 8212   4.967   9.694   7.202 -0.1162  0.7402 -0.9216
  820MOL0     H 8213   4.964   9.792   7.353  1.6618 -1.0238  1.0226
  820MOL0     H 8214   4.890   9.920   7.124  0.8949 -0.7715 -2.9980
  820MOL0     H 8215   5.024   9.829   7.048  0.0192 -4.2753  2.5997
  820MOL0     H 8216   5.170   9.999   7.200  0.0536  2.3557  1.6694
  820MOL0     H 8217   5.006  10.074   7.217 -0.3027  0.6228 -0.0472
  820MOL0     H 8218   5.044  10.024   6.931 -0.5958 -0.0167 -0.7676
  820MOL0     H 8219   5.004  10.166   7.010 -0.7416 -1.5582 -1.8691
  820MOL0     H 8220   5.245  10.203   7.055 -2.4709  1.1697 -0.6597
  820MOL0     H 8221   5.239  10.168   6.887  1.0969 -0.6866  0.9302
  820MOL0     H 8222   5.579   9.611   7.425  1.3876 -1.6713 -1.2722
  820MOL0     H 8223   5.800   9.543   7.511  0.2205 -1.8178  0.4276
  820MOL0     H 8224   6.234   9.400   7.630 -2.8019 -1.6357 -0.9304
  820MOL0     H 8225   6.406   9.365   7.812 -0.7088  1.8549 -3.5552
  820MOL0     H 8226   7.477   9.115   9.333  0.6242  2.3011 -1.4345
  820MOL0     H 8227   7.666   9.048   9.484 -3.8993  2.7640  0.4644
  820MOL0     H 8228   8.005   8.843   9.623  1.1442 -0.4073  3.2459
  820MOL0     H 8229   8.197   8.791   9.761  1.0638 -1.7151  0.4204
  820MOL0     H 8230   8.588   8.897   9.830  0.1615  3.4591 -1.5184
  820MOL0     H 8231   8.455   8.807   9.896  1.2398 -0.7401  1.0244
  820MOL0     H 8232   8.420   9.074   9.740 -2.5334  0.9907  0.4011
  820MOL0     H 8233   8.303   8.985   9.845  0.3777 -2.9837  0.2865
  820MOL0     H 8234   8.553   9.109   9.952 -0.4004  0.9613  3.2560
  820MOL0     H 8235   8.448   8.995  10.039  0.8720  0.7522  1.2297
  820MOL0     H 8236   8.252   9.156  10.004  0.9587  0.5685  2.4873
  820MOL0     H 8237   8.364   9.226  10.093  1.8481  2.6463 -1.8656
  820MOL0     H 8238   8.393   9.508   9.804  3.2298  0.5120  2.3598
  820MOL0     H 8239   8.457   8.906   9.443 -1.0919  2.8323 -1.5242
  820MOL0     H 8240   8.279   8.945   9.301  0.8656 -3.2091  0.1826
  821MOL0     O 8241   5.053  10.126   6.110  0.1502 -0.8406  0.4890
  821MOL0     C 8242   5.056  10.062   6.213  0.1054 -0.1871  0.4062
  821MOL0     O 8243   5.100   9.937   6.220 -0.0240 -0.4347 -0.7746
  821MOL0     C 8244   5.156   9.877   6.109 -0.5912 -0.5832 -0.5926
  821MOL0     C 8245   5.120   9.746   6.078  0.9270 -0.2502 -0.0898
  821MOL0     C 8246   5.180   9.672   5.982  0.4648 -0.3972  0.4493
  821MOL0     C 8247   5.286   9.727   5.908 -0.6271 -0.4810 -0.2671
  821MOL0     O 8248   5.357   9.642   5.813 -0.7550  0.3202  0.7929
  821MOL0     C 8249   5.506   9.646   5.814  0.3873  0.4673  0.6403
  821MOL0     C 8250   5.578   9.539   5.730  0.4846  0.0652  0.1496
  821MOL0     C 8251   5.569   9.397   5.797 -1.1906 -0.0097 -0.1308
  821MOL0     C 8252   5.704   9.360   5.860 -0.3146 -0.9144 -0.7601
  821MOL0     C 8253   5.726   9.216   5.890 -0.8531 -0.7178  0.4096
  821MOL0     C 8254   5.618   9.147   5.974 -0.9494  0.8670 -0.1342
  821MOL0     C 8255   5.669   9.001   5.993 -0.5178 -0.2528  0.4689
  821MOL0     C 8256   5.586   8.927   6.094 -0.8095  1.0406  0.6491
  821MOL0     N 8257   5.570   8.779   6.067  0.1043 -0.8597  0.7247
  821MOL0     C 8258   5.535   8.697   6.168 -0.0581  0.3729  0.3493
  821MOL0     C 8259   5.489   8.577   6.108  1.4791 -0.0841  0.2936
  821MOL0     C 8260   5.437   8.460   6.185 -0.6071  0.1219  0.2841
  821MOL0     C 8261   5.395   8.354   6.077 -0.3794 -0.2198 -0.6559
  821MOL0     C 8262   5.331   8.228   6.134 -0.2863  0.3768  0.0292
  821MOL0     C 8263   5.340   8.109   6.032 -0.4971 -0.1139 -0.2917
  821MOL0     O 8264   5.266   8.143   5.913 -0.9334 -0.4503 -0.9058
  821MOL0     C 8265   5.129   8.158   5.937  0.6425 -1.1054 -0.0627
  821MOL0     C 8266   5.078   8.253   5.847  0.3224 -0.3582  0.1286
  821MOL0     C 8267   4.944   8.284   5.846  0.8266  0.1896  0.6427
  821MOL0     C 8268   4.850   8.219   5.934 -0.1391  0.2467 -0.2496
  821MOL0     C 8269   4.709   8.263   5.935  0.3598  0.8399  0.5301
  821MOL0     O 8270   4.629   8.224   6.046  0.0925 -0.1327 -0.0540
  821MOL0     C 8271   4.494   8.247   6.045  0.9991 -0.3991 -0.8751
  821MOL0     C 8272   4.431   8.207   6.168  0.0483  0.4693  0.4666
  821MOL0     C 8273   4.301   8.234   6.197  0.4852 -1.2434  0.7387
  821MOL0     C 8274   4.216   8.292   6.111 -0.1728  0.0845  0.7079
  821MOL0     O 8275   4.082   8.297   6.143  0.0621 -0.2266 -0.1635
  821MOL0     C 8276   3.989   8.386   6.073 -0.8066  0.2709 -0.4166
  821MOL0     C 8277   3.843   8.367   6.132  0.8754  0.9711  1.4595
  821MOL0     C 8278   3.829   8.322   6.281  0.8940  0.5312  1.1468
  821MOL0     C 8279   3.887   8.418   6.377  0.3679 -0.3677 -0.4340
  821MOL0     C 8280   3.874   8.361   6.522 -0.2387 -0.0422  0.0383
  821MOL0     C 8281   3.958   8.445   6.620 -0.4483  0.6004 -1.6591
  821MOL0     C 8282   3.930   8.396   6.770  0.4552 -1.0215 -0.1364
  821MOL0     C 8283   4.014   8.455   6.880 -0.6897  0.0261  0.5219
  821MOL0    Cl 8284   4.023   8.645   6.864 -0.1630  0.1254 -0.5469
  821MOL0     C 8285   4.275   8.328   5.980  0.9162 -0.5362 -0.4219
  821MOL0     C 8286   4.412   8.306   5.952 -0.6413 -0.4544  0.3513
  821MOL0     O 8287   4.675   8.332   5.829 -0.5718  0.1725  0.3608
  821MOL0     C 8288   4.896   8.123   6.025  0.5756 -0.6987  0.1468
  821MOL0     C 8289   5.044   8.099   6.030  0.2420 -0.5683  0.1437
  821MOL0     N 8290   5.499   8.595   5.973 -0.1978  0.1576 -0.2828
  821MOL0     N 8291   5.548   8.710   5.950 -0.7563  0.2600 -0.0772
  821MOL0     C 8292   5.320   9.862   5.932 -1.4106 -0.6135 -0.8328
  821MOL0     C 8293   5.261   9.932   6.034 -0.9242  0.6419  0.3666
  821MOL0     C 8294   4.982  10.114   6.331 -0.6186 -0.7130  1.1632
  821MOL0     C 8295   4.893  10.223   6.305  0.3273  0.2573 -0.2269
  821MOL0     C 8296   4.802  10.262   6.400 -0.3664 -0.0745 -0.0256
  821MOL0     C 8297   4.803  10.203   6.523 -0.8050  0.9678 -0.4416
  821MOL0     O 8298   4.714  10.246   6.621 -0.9336  0.4276 -0.3057
  821MOL0     C 8299   4.619  10.163   6.691  0.2506 -0.5225 -1.3141
  821MOL0     C 8300   4.525  10.259   6.761  0.0905  0.5318 -0.2562
  821MOL0     C 8301   4.404  10.186   6.811  0.8337  0.0429 -0.3061
  821MOL0     C 8302   4.278  10.271   6.818 -0.2850 -0.8977  0.0804
  821MOL0     C 8303   4.300  10.405   6.879  0.4674  0.2714  0.4070
  821MOL0     C 8304   4.286  10.523   6.906  0.3242 -0.3222 -0.2187
  821MOL0     C 8305   4.895  10.097   6.553 -0.0293  0.9928  0.4900
  821MOL0     C 8306   4.982  10.046   6.454 -0.4312  0.0712  0.5400
  821MOL0     H 8307   5.040   9.685   6.118 -1.7630  2.2056 -1.3497
  821MOL0     H 8308   5.144   9.573   5.956 -0.7175 -0.3552  1.7833
  821MOL0     H 8309   5.534   9.628   5.918 -0.5992 -2.3611  0.5123
  821MOL0     H 8310   5.532   9.746   5.779  1.1784 -0.4052 -1.4278
  821MOL0     H 8311   5.685   9.562   5.721  0.8584 -1.0681  1.3072
  821MOL0     H 8312   5.540   9.535   5.628 -2.8511 -0.1791  1.2735
  821MOL0     H 8313   5.543   9.330   5.715  3.3220 -2.0271 -0.2620
  821MOL0     H 8314   5.499   9.393   5.881  1.7032  0.1862  2.5162
  821MOL0     H 8315   5.789   9.382   5.795  1.1035 -0.6990  1.0728
  821MOL0     H 8316   5.704   9.425   5.948 -0.0893  0.5830 -1.8178
  821MOL0     H 8317   5.821   9.193   5.940 -0.1454 -1.9662 -1.3972
  821MOL0     H 8318   5.736   9.168   5.792 -1.4502  1.4970 -0.7839
  821MOL0     H 8319   5.523   9.157   5.922 -0.9380  1.1909 -0.0958
  821MOL0     H 8320   5.619   9.196   6.072 -0.9124 -0.3756  0.5007
  821MOL0     H 8321   5.663   8.948   5.897  3.2295 -0.5742  0.2883
  821MOL0     H 8322   5.772   8.992   6.027 -0.0284 -4.1220 -1.4404
  821MOL0     H 8323   5.486   8.970   6.080 -0.2118  1.9683 -0.9912
  821MOL0     H 8324   5.632   8.949   6.190 -0.1496 -1.6795  1.0453
  821MOL0     H 8325   5.551   8.714   6.274  2.7383  0.9941 -0.0822
  821MOL0     H 8326   5.356   8.480   6.256 -3.0827 -3.3553 -1.2606
  821MOL0     H 8327   5.522   8.430   6.246  0.7159  3.3249  0.2236
  821MOL0     H 8328   5.491   8.323   6.033  2.1342  0.5965  3.7282
  821MOL0     H 8329   5.321   8.403   6.012 -0.7134  0.5992  0.3247
  821MOL0     H 8330   5.391   8.197   6.220  0.9533 -0.9985 -1.2578
  821MOL0     H 8331   5.230   8.258   6.161 -0.2132  1.7065 -1.0542
  821MOL0     H 8332   5.299   8.018   6.077  1.6425 -0.5500  0.9002
  821MOL0     H 8333   5.445   8.113   6.005 -1.1224 -0.2424 -3.0094
  821MOL0     H 8334   5.148   8.299   5.777 -1.5151  0.5441 -1.1962
  821MOL0     H 8335   4.912   8.365   5.782 -1.0383 -1.9898 -1.3416
  821MOL0     H 8336   4.489   8.164   6.249  0.7258  1.0414  0.2883
  821MOL0     H 8337   4.260   8.200   6.292  1.6050 -3.5218  0.4936
  821MOL0     H 8338   3.974   8.362   5.968 -2.3630  0.7342 -0.3283
  821MOL0     H 8339   4.019   8.491   6.080 -3.8518  1.1735  0.5193
  821MOL0     H 8340   3.794   8.291   6.071  3.8866  1.3333 -1.7142
  821MOL0     H 8341   3.785   8.457   6.107  0.6921  0.4612 -0.0695
  821MOL0     H 8342   3.879   8.225   6.285  1.2473  0.5611 -1.0505
  821MOL0     H 8343   3.728   8.297   6.312  0.8918 -0.9678  0.0582
  821MOL0     H 8344   3.994   8.434   6.357  1.1403 -2.4848  1.5088
  821MOL0     H 8345   3.835   8.513   6.367  1.6729  0.4235  0.1288
  821MOL0     H 8346   3.898   8.255   6.534  0.9410  0.3570  1.3144
  821MOL0     H 8347   3.766   8.370   6.537 -0.1099  0.3117  0.7846
  821MOL0     H 8348   3.928   8.549   6.607  1.4349  1.4281  0.1462
  821MOL0     H 8349   4.063   8.433   6.593  0.4966 -0.0564  1.8237
  821MOL0     H 8350   3.824   8.426   6.772  0.5528 -0.4209 -1.7253
  821MOL0     H 8351   3.927   8.287   6.770 -1.2367 -1.0074  0.1105
  821MOL0     H 8352   4.119   8.424   6.874 -1.3476 -2.1129 -1.0715
  821MOL0     H 8353   3.965   8.422   6.972 -0.2160 -5.0944 -0.7309
  821MOL0     H 8354   4.224   8.359   5.889  0.6241  0.6445  0.1175
  821MOL0     H 8355   4.442   8.322   5.848 -2.0422  1.0743  0.1323
  821MOL0     H 8356   4.828   8.080   6.096  1.3349 -0.0432  1.3023
  821MOL0     H 8357   5.088   8.023   6.095  0.5420 -0.8419 -0.3722
  821MOL0     H 8358   5.409   9.899   5.881 -0.5804 -1.1357  0.2227
  821MOL0     H 8359   5.286  10.035   6.057 -2.9998  1.6718 -1.5395
  821MOL0     H 8360   4.896  10.284   6.215 -1.5763 -0.6839 -0.9945
  821MOL0     H 8361   4.722  10.334   6.383 -0.4353 -0.4208 -1.2788
  821MOL0     H 8362   4.667  10.090   6.756  2.8718  0.5574 -1.8860
  821MOL0     H 8363   4.565  10.114   6.609 -1.7331 -0.1992 -0.2622
  821MOL0     H 8364   4.569  10.297   6.854 -0.8279  0.7644  0.0917
  821MOL0     H 8365   4.505  10.340   6.690 -1.7913  1.8800  1.6671
  821MOL0     H 8366   4.426  10.152   6.912  1.7040 -0.9457 -0.8124
  821MOL0     H 8367   4.381  10.101   6.746 -0.9038 -0.7626  1.2678
  821MOL0     H 8368   4.237  10.286   6.717 -0.9105  0.7862  0.5513
  821MOL0     H 8369   4.215  10.202   6.874  1.7888 -0.1160  3.6938
  821MOL0     H 8370   4.262  10.624   6.934 -1.9366 -0.6569 -0.7636
  821MOL0     H 8371   4.918  10.050   6.648 -0.8386  0.9381  0.6660
  821MOL0     H 8372   5.039   9.955   6.468  0.8766  0.9073  0.8087
  822MOL0     O 8373   0.291   4.624   5.856  0.4362  0.3964 -0.3275
  822MOL0     C 8374   0.266   4.539   5.766 -0.1969  0.0322 -1.2903
  822MOL0     O 8375   0.139   4.499   5.726 -0.9328 -0.6392  0.0996
  822MOL0     C 8376   0.046   4.589   5.767 -0.0453 -0.1624 -0.3057
  822MOL0     C 8377  -0.068   4.535   5.826 -0.6459 -0.6834 -0.2054
  822MOL0     C 8378  -0.183   4.613   5.844  0.0792  0.1759 -0.3562
  822MOL0     C 8379  -0.172   4.750   5.823 -0.8260  0.5151 -0.4810
  822MOL0     O 8380  -0.263   4.853   5.846 -0.1083  0.4445  0.1256
  822MOL0     C 8381  -0.383   4.816   5.919  0.4048 -0.2161  0.0381
  822MOL0     C 8382  -0.484   4.932   5.921  0.4300 -0.5427  0.6156
  822MOL0     C 8383  -0.607   4.887   6.009 -0.8372 -0.5276  0.2162
  822MOL0     C 8384  -0.747   4.962   5.999  0.9604  0.0614 -0.0020
  822MOL0     C 8385  -0.743   5.109   6.034  0.5736  0.5364  0.8295
  822MOL0     C 8386  -0.885   5.173   6.019 -0.1289  0.4356 -0.0366
  822MOL0     C 8387  -0.881   5.318   6.069 -0.5063  0.2600  0.4116
  822MOL0     C 8388  -0.820   5.407   5.960 -0.1562 -0.6283 -0.2928
  822MOL0     N 8389  -0.840   5.550   5.998 -0.1741 -0.9095  0.0262
  822MOL0     C 8390  -0.728   5.639   5.988  0.0130  0.5318 -0.1985
  822MOL0     C 8391  -0.777   5.762   6.001  0.7088  1.1702 -0.3785
  822MOL0     C 8392  -0.693   5.891   6.011  0.5796  0.4821  0.6840
  822MOL0     C 8393  -0.660   5.937   6.154 -0.4611  0.5575  0.1364
  822MOL0     C 8394  -0.597   6.077   6.156 -0.0624 -0.3303  0.5235
  822MOL0     C 8395  -0.562   6.126   6.303 -0.2633 -1.0452  0.4029
  822MOL0     O 8396  -0.686   6.135   6.370 -0.0726 -0.2998 -0.5108
  822MOL0     C 8397  -0.698   6.220   6.477 -0.1595 -0.3939 -0.0010
  822MOL0     C 8398  -0.717   6.359   6.461 -0.5690 -0.4724 -0.4284
  822MOL0     C 8399  -0.716   6.443   6.578  0.7222 -0.6659  0.0506
  822MOL0     C 8400  -0.694   6.390   6.702 -0.3054  0.1685 -0.4242
  822MOL0     C 8401  -0.678   6.482   6.819 -0.3779  0.4127  0.5630
  822MOL0     O 8402  -0.702   6.614   6.810 -0.0837  0.6834 -0.3325
  822MOL0     C 8403  -0.655   6.695   6.915 -0.3449 -0.3855  0.4690
  822MOL0     C 8404  -0.737   6.789   6.977 -0.3489  0.7877 -0.2031
  822MOL0     C 8405  -0.684   6.882   7.071 -1.2433 -0.2070 -0.6205
  822MOL0     C 8406  -0.547   6.874   7.117  0.1567 -0.0367 -0.0877
  822MOL0     O 8407  -0.488   6.970   7.204  0.8163 -0.2086 -0.1371
  822MOL0     C 8408  -0.354   7.021   7.179  0.3622  1.1670 -0.3514
  822MOL0     C 8409  -0.361   7.156   7.114 -0.6010 -0.4245 -0.3356
  822MOL0     C 8410  -0.228   7.212   7.055 -0.5373  0.9183  0.1656
  822MOL0     C 8411  -0.229   7.363   7.023 -0.0649  0.4025  0.5464
  822MOL0     C 8412  -0.313   7.395   6.890  0.8411 -0.3632  0.3446
  822MOL0     C 8413  -0.248   7.347   6.757  0.3722 -0.1200 -0.4628
  822MOL0     C 8414  -0.307   7.408   6.626  0.1455  0.5633 -0.7533
  822MOL0     C 8415  -0.444   7.378   6.600  0.9405  0.2849 -0.1487
  822MOL0    Cl 8416  -0.475   7.469   6.446 -0.1228 -0.1070  0.2925
  822MOL0     C 8417  -0.476   6.768   7.067 -0.1647  0.6255 -0.2020
  822MOL0     C 8418  -0.519   6.692   6.959 -0.0856  0.4224  0.6228
  822MOL0     O 8419  -0.662   6.422   6.922 -0.1418 -0.2521  0.5513
  822MOL0     C 8420  -0.679   6.251   6.718  1.0421  0.8500  0.4825
  822MOL0     C 8421  -0.693   6.173   6.603  0.7562  0.1042 -1.1903
  822MOL0     N 8422  -0.914   5.748   6.018  0.7954  0.5308 -0.0318
  822MOL0     N 8423  -0.951   5.625   6.008 -0.1014  0.4190 -0.7442
  822MOL0     C 8424  -0.057   4.796   5.757 -1.2295  1.4496  0.1550
  822MOL0     C 8425   0.048   4.719   5.721  0.7415  0.8342 -0.6251
  822MOL0     C 8426   0.378   4.461   5.714 -0.5263 -0.6667  0.1128
  822MOL0     C 8427   0.513   4.482   5.748 -0.4378  0.8318  0.2296
  822MOL0     C 8428   0.612   4.412   5.694  0.2921  0.2047 -0.9646
  822MOL0     C 8429   0.587   4.310   5.598 -0.6326 -0.0098  0.3826
  822MOL0     O 8430   0.697   4.241   5.555 -0.1639  0.1188 -0.2082
  822MOL0     C 8431   0.692   4.110   5.497 -0.8386  0.5675  0.2616
  822MOL0     C 8432   0.700   4.008   5.613 -0.4017  0.2124 -0.2027
  822MOL0     C 8433   0.827   4.023   5.707  0.1140 -0.2892 -0.0510
  822MOL0     C 8434   0.935   3.915   5.677  0.7794 -0.0043 -0.1172
  822MOL0     C 8435   0.876   3.788   5.717 -0.6549 -0.1784 -0.2856
  822MOL0     C 8436   0.830   3.689   5.765  0.3392  0.1599 -1.0449
  822MOL0     C 8437   0.451   4.292   5.556 -0.0389 -0.4779  1.8441
  822MOL0     C 8438   0.358   4.370   5.607  1.4057 -0.0119 -0.6408
  822MOL0     H 8439  -0.056   4.432   5.860 -0.7260 -0.9871 -1.0496
  822MOL0     H 8440  -0.274   4.581   5.893 -0.6791 -1.1654 -2.4930
  822MOL0     H 8441  -0.345   4.801   6.021 -1.9799  0.8286  1.1547
  822MOL0     H 8442  -0.440   4.729   5.886 -1.6204  1.0000  0.1870
  822MOL0     H 8443  -0.528   4.958   5.825 -3.2383  0.5687  2.3961
  822MOL0     H 8444  -0.437   5.024   5.956  5.3075 -2.5522  0.1474
  822MOL0     H 8445  -0.588   4.891   6.116  0.4118  0.2533 -0.0145
  822MOL0     H 8446  -0.621   4.783   5.980  3.0710 -0.5642 -2.3549
  822MOL0     H 8447  -0.777   4.948   5.895  1.5059  1.4379 -0.3675
  822MOL0     H 8448  -0.822   4.912   6.060  0.1251 -1.1478 -1.9275
  822MOL0     H 8449  -0.683   5.156   5.956  0.7179 -2.1577 -0.8368
  822MOL0     H 8450  -0.694   5.117   6.131  1.4091  0.9537  0.3905
  822MOL0     H 8451  -0.966   5.122   6.073 -0.0928 -0.2939 -0.6634
  822MOL0     H 8452  -0.913   5.169   5.913 -1.7005  0.7457  0.3317
  822MOL0     H 8453  -0.983   5.354   6.081 -1.6069 -2.8431  1.2607
  822MOL0     H 8454  -0.822   5.330   6.161 -0.4743  4.0988  0.0489
  822MOL0     H 8455  -0.875   5.392   5.866 -1.6710  2.4542 -0.0091
  822MOL0     H 8456  -0.716   5.383   5.933 -1.0867 -1.0919 -3.9778
  822MOL0     H 8457  -0.624   5.606   5.982 -0.0780  0.4720 -1.7550
  822MOL0     H 8458  -0.742   5.973   5.959  1.4311  1.9826  2.1330
  822MOL0     H 8459  -0.591   5.871   5.976  1.4370 -0.9446  3.6405
  822MOL0     H 8460  -0.601   5.856   6.197  2.2806  1.6013 -1.3863
  822MOL0     H 8461  -0.758   5.944   6.203 -0.1061  1.1860  0.7664
  822MOL0     H 8462  -0.504   6.077   6.099  0.8457 -2.3158  1.8917
  822MOL0     H 8463  -0.663   6.153   6.112  1.2942 -0.0750 -1.1862
  822MOL0     H 8464  -0.503   6.218   6.301 -0.8977 -0.5301  2.6760
  822MOL0     H 8465  -0.496   6.046   6.339  0.9337  0.2481  1.2068
  822MOL0     H 8466  -0.746   6.404   6.367 -2.2919 -0.2548  0.1833
  822MOL0     H 8467  -0.736   6.549   6.568  1.7087 -0.6526 -2.5397
  822MOL0     H 8468  -0.838   6.791   6.937 -0.5189 -2.3580 -0.1286
  822MOL0     H 8469  -0.749   6.964   7.102 -0.4535  0.1033  0.2672
  822MOL0     H 8470  -0.286   6.956   7.125  0.4706 -0.8122  1.9795
  822MOL0     H 8471  -0.309   7.018   7.279  1.8436 -1.9827 -1.0104
  822MOL0     H 8472  -0.404   7.229   7.183  4.8934  2.1656  0.8689
  822MOL0     H 8473  -0.423   7.138   7.025 -1.1223 -1.6241  0.2451
  822MOL0     H 8474  -0.193   7.142   6.978  0.0307  0.2543  0.9982
  822MOL0     H 8475  -0.164   7.194   7.142 -3.0855 -0.7744  1.8178
  822MOL0     H 8476  -0.273   7.427   7.100 -0.9413 -0.0355  0.4202
  822MOL0     H 8477  -0.127   7.392   6.995 -0.4275  1.1957  0.0473
  822MOL0     H 8478  -0.327   7.502   6.870 -0.5875 -1.0852 -3.2824
  822MOL0     H 8479  -0.415   7.361   6.910  0.9355 -0.2635  1.0218
  822MOL0     H 8480  -0.232   7.238   6.753  2.9716 -0.1847  4.4546
  822MOL0     H 8481  -0.145   7.384   6.750  1.2696 -2.2996  0.0617
  822MOL0     H 8482  -0.297   7.516   6.615 -1.4992  0.7962 -0.1337
  822MOL0     H 8483  -0.243   7.371   6.545  0.4954  2.7509 -1.5498
  822MOL0     H 8484  -0.504   7.415   6.684 -0.3066 -0.3084 -0.7417
  822MOL0     H 8485  -0.457   7.270   6.595  0.7100  0.1031  2.8698
  822MOL0     H 8486  -0.373   6.758   7.101 -1.1733 -0.5379  2.8958
  822MOL0     H 8487  -0.454   6.621   6.908  0.7737  2.1280 -0.7745
  822MOL0     H 8488  -0.663   6.200   6.812 -2.7463  0.2769  0.9870
  822MOL0     H 8489  -0.687   6.065   6.617  5.1311  0.4751  1.3888
  822MOL0     H 8490  -0.063   4.902   5.735  1.1096  1.6942  0.4470
  822MOL0     H 8491   0.125   4.751   5.651 -2.6630  2.3071 -4.0264
  822MOL0     H 8492   0.543   4.565   5.811  0.7686 -0.5957  1.6252
  822MOL0     H 8493   0.720   4.423   5.703 -0.1464  5.1196  2.1063
  822MOL0     H 8494   0.768   4.094   5.420 -0.9761  2.5571 -0.3526
  822MOL0     H 8495   0.597   4.093   5.444 -0.7382  1.6471 -0.2897
  822MOL0     H 8496   0.612   4.031   5.675  0.2011  0.3833  0.5985
  822MOL0     H 8497   0.703   3.911   5.563 -0.6210  1.7551 -3.4694
  822MOL0     H 8498   0.789   4.019   5.809  0.9030 -0.1353  0.2551
  822MOL0     H 8499   0.874   4.122   5.697  0.4614 -0.2767  1.4136
  822MOL0     H 8500   0.953   3.913   5.569 -1.6638 -1.1273 -0.5763
  822MOL0     H 8501   1.029   3.939   5.728  1.5968  0.4955 -1.7812
  822MOL0     H 8502   0.783   3.604   5.810 -0.7227  0.4073 -1.6480
  822MOL0     H 8503   0.420   4.214   5.488  0.8163 -1.2464  2.3018
  822MOL0     H 8504   0.257   4.362   5.566  0.1786 -3.4856  2.4671
  823MOL0     O 8505   6.470  10.934   7.250 -0.6038  0.3077  0.1803
  823MOL0     C 8506   6.395  10.848   7.281 -0.3354 -0.3257  0.3171
  823MOL0     O 8507   6.271  10.870   7.336 -1.3117 -0.3723  0.3160
  823MOL0     C 8508   6.217  10.987   7.380  0.1815 -0.0101  0.3629
  823MOL0     C 8509   6.151  10.997   7.499  0.1122 -0.1578  0.1962
  823MOL0     C 8510   6.089  11.115   7.534 -0.3749  0.1160 -0.5750
  823MOL0     C 8511   6.086  11.229   7.451 -1.0851 -0.1506 -1.1016
  823MOL0     O 8512   6.023  11.348   7.489 -0.1044  0.5803 -0.6486
  823MOL0     C 8513   5.915  11.336   7.579  0.3019  0.5534 -0.3493
  823MOL0     C 8514   5.815  11.443   7.532  0.8337  0.4104  0.0397
  823MOL0     C 8515   5.693  11.440   7.618 -0.3912 -0.1726  0.0979
  823MOL0     C 8516   5.576  11.517   7.561 -0.7387 -0.4501  0.1527
  823MOL0     C 8517   5.464  11.542   7.677 -0.6672 -1.5416 -0.0441
  823MOL0     C 8518   5.362  11.422   7.695 -0.9392  0.5851  0.2636
  823MOL0     C 8519   5.237  11.461   7.783  0.1987  0.0308 -0.4409
  823MOL0     C 8520   5.128  11.351   7.791 -1.0989  0.2154  0.0622
  823MOL0     N 8521   5.062  11.342   7.658 -0.7315  0.6171 -0.2322
  823MOL0     C 8522   5.095  11.252   7.563  0.7836 -0.0489 -1.5235
  823MOL0     C 8523   4.991  11.236   7.483  0.0085  0.2237  0.0059
  823MOL0     C 8524   4.971  11.129   7.368  0.5854 -0.4053  0.1098
  823MOL0     C 8525   5.107  11.065   7.314  0.4179 -0.7033  0.5642
  823MOL0     C 8526   5.203  11.176   7.261 -0.9846 -0.1382 -0.1603
  823MOL0     C 8527   5.331  11.109   7.220  0.1351 -0.4720 -0.6323
  823MOL0     O 8528   5.436  11.116   7.321 -0.5734  0.0203 -0.4558
  823MOL0     C 8529   5.561  11.093   7.268 -0.7846 -0.0019  0.0668
  823MOL0     C 8530   5.598  10.960   7.232  0.3071 -0.9447 -0.9943
  823MOL0     C 8531   5.714  10.946   7.158 -0.4872  0.9350 -0.0090
  823MOL0     C 8532   5.800  11.051   7.134  0.5922  0.6678 -0.0299
  823MOL0     C 8533   5.925  11.041   7.058 -0.8143 -1.2203 -0.1925
  823MOL0     O 8534   5.944  10.927   6.979  0.1742  0.4881  0.0943
  823MOL0     C 8535   6.065  10.878   6.964 -0.0997  1.4830 -1.3016
  823MOL0     C 8536   6.136  10.927   6.859 -0.1590 -0.6414  0.1651
  823MOL0     C 8537   6.250  10.861   6.815  0.6713 -0.3458  0.4400
  823MOL0     C 8538   6.294  10.750   6.889 -0.0171 -1.1574  0.5170
  823MOL0     O 8539   6.414  10.688   6.867  0.6513  0.2967  0.0565
  823MOL0     C 8540   6.437  10.683   6.721 -0.2248  0.4971 -0.0192
  823MOL0     C 8541   6.526  10.567   6.679 -0.2288 -0.4503 -0.4884
  823MOL0     C 8542   6.579  10.577   6.532  0.0134 -0.2069 -0.4144
  823MOL0     C 8543   6.663  10.456   6.495 -0.7874  0.0071 -0.7167
  823MOL0     C 8544   6.678  10.452   6.346  0.0059  0.1199  0.0025
  823MOL0     C 8545   6.776  10.560   6.287  0.9977 -1.4381  0.0274
  823MOL0     C 8546   6.855  10.518   6.166  1.0666  0.6276 -0.8198
  823MOL0     C 8547   6.895  10.643   6.083 -1.3144  0.1487  0.4990
  823MOL0    Cl 8548   6.750  10.736   6.026 -0.6197 -0.0971  0.0041
  823MOL0     C 8549   6.220  10.699   6.995 -0.9101 -0.1300  0.7769
  823MOL0     C 8550   6.100  10.760   7.035 -0.4693 -0.8815 -0.0049
  823MOL0     O 8551   6.004  11.139   7.052  0.2488  0.0885 -0.6047
  823MOL0     C 8552   5.770  11.174   7.201 -0.6574 -0.4763  0.0536
  823MOL0     C 8553   5.656  11.196   7.260  0.0562  0.7099 -0.7233
  823MOL0     N 8554   4.891  11.326   7.524 -0.9814  0.5293 -0.1559
  823MOL0     N 8555   4.936  11.378   7.632  0.6455 -0.8187 -0.3270
  823MOL0     C 8556   6.151  11.215   7.329  0.9061  0.5089  1.4423
  823MOL0     C 8557   6.215  11.097   7.290  0.9568  0.3380 -1.5331
  823MOL0     C 8558   6.441  10.705   7.282  0.3538 -0.6218 -0.1795
  823MOL0     C 8559   6.564  10.671   7.232  0.5518 -0.0309  0.2990
  823MOL0     C 8560   6.592  10.542   7.210  0.1009  0.7747  0.4916
  823MOL0     C 8561   6.523  10.430   7.264  0.5921 -0.1768  0.1430
  823MOL0     O 8562   6.573  10.305   7.248 -0.1734  0.5592  0.1604
  823MOL0     C 8563   6.485  10.194   7.266  0.8639 -0.2993  0.4078
  823MOL0     C 8564   6.453  10.155   7.413 -1.0214 -0.0851  0.0567
  823MOL0     C 8565   6.345  10.048   7.405 -1.2045 -0.7112 -1.0647
  823MOL0     C 8566   6.296  10.009   7.548  0.6058  0.7266  0.2939
  823MOL0     C 8567   6.183   9.913   7.555 -0.8495 -0.6300  0.2679
  823MOL0     C 8568   6.084   9.838   7.580 -0.2803 -0.7387 -1.0958
  823MOL0     C 8569   6.392  10.468   7.321  0.3457  0.5616  0.0494
  823MOL0     C 8570   6.350  10.606   7.316  0.1064  1.2073 -1.0682
  823MOL0     H 8571   6.119  10.908   7.553 -2.8247 -0.6376 -2.0729
  823MOL0     H 8572   6.051  11.097   7.634  2.5069  1.2432  0.8552
  823MOL0     H 8573   5.960  11.358   7.677  0.2510  0.1489 -0.2354
  823MOL0     H 8574   5.867  11.240   7.561  2.2366 -0.4231 -0.5266
  823MOL0     H 8575   5.782  11.440   7.428  0.0025  4.5648  0.0038
  823MOL0     H 8576   5.864  11.539   7.555  0.2794  0.4044  1.3556
  823MOL0     H 8577   5.714  11.483   7.716  0.6184 -2.2695  0.8610
  823MOL0     H 8578   5.657  11.337   7.623 -2.4703  0.5403  0.3874
  823MOL0     H 8579   5.614  11.614   7.527 -1.3265  0.6885  2.5397
  823MOL0     H 8580   5.536  11.464   7.474  0.1974  1.9172 -1.8607
  823MOL0     H 8581   5.414  11.629   7.632  2.6582 -0.7371 -2.6062
  823MOL0     H 8582   5.499  11.578   7.774 -4.6898  2.2969  0.3048
  823MOL0     H 8583   5.421  11.335   7.723  0.2663  0.5309 -2.2203
  823MOL0     H 8584   5.327  11.398   7.594  0.4751  0.7036 -0.2770
  823MOL0     H 8585   5.282  11.480   7.882  2.2033 -1.4607 -0.9973
  823MOL0     H 8586   5.184  11.545   7.739 -0.5413  1.0224  2.1559
  823MOL0     H 8587   5.060  11.380   7.871 -0.6579  0.6315  0.2860
  823MOL0     H 8588   5.187  11.263   7.820  0.7703  1.1559 -0.7121
  823MOL0     H 8589   5.184  11.189   7.564 -0.6774 -2.2502 -1.8005
  823MOL0     H 8590   4.911  11.162   7.283 -0.9357 -1.4823  0.7306
  823MOL0     H 8591   4.919  11.044   7.413 -0.0650 -0.1654 -0.1837
  823MOL0     H 8592   5.083  10.982   7.247  1.4640  0.2801 -1.0874
  823MOL0     H 8593   5.162  11.015   7.395  0.8588 -1.2754 -0.0767
  823MOL0     H 8594   5.157  11.220   7.172  0.1273 -0.4450 -0.9001
  823MOL0     H 8595   5.235  11.252   7.333  0.7959 -0.1412 -0.9010
  823MOL0     H 8596   5.369  11.164   7.133 -2.1333 -2.3879 -2.9554
  823MOL0     H 8597   5.313  11.005   7.193 -2.1351  0.4679 -3.1841
  823MOL0     H 8598   5.532  10.878   7.257 -1.5731  1.2108  1.7244
  823MOL0     H 8599   5.751  10.844   7.148  0.5743  0.7103  4.2322
  823MOL0     H 8600   6.098  11.014   6.806  3.2764  0.6471 -0.4034
  823MOL0     H 8601   6.292  10.898   6.722  2.0665  0.3376  1.3129
  823MOL0     H 8602   6.494  10.773   6.694  0.3234  0.4039  0.7940
  823MOL0     H 8603   6.341  10.668   6.671 -0.1704 -1.5991  0.4278
  823MOL0     H 8604   6.469  10.474   6.670  1.2790 -1.2110 -3.0673
  823MOL0     H 8605   6.608  10.553   6.750 -1.7757 -0.8506  1.3156
  823MOL0     H 8606   6.635  10.671   6.528  0.7350 -0.4570  2.0719
  823MOL0     H 8607   6.489  10.595   6.472 -0.7484 -2.3726  0.0072
  823MOL0     H 8608   6.762  10.473   6.538 -0.1224 -2.5962 -1.0613
  823MOL0     H 8609   6.622  10.365   6.539 -2.7984  0.9738 -0.4771
  823MOL0     H 8610   6.581  10.449   6.297 -0.7319  2.0796  1.2501
  823MOL0     H 8611   6.741  10.368   6.316  3.1649  1.6146  1.9502
  823MOL0     H 8612   6.852  10.588   6.360  2.8141 -1.0550 -1.9310
  823MOL0     H 8613   6.711  10.647   6.269  0.8479 -1.3236  1.0613
  823MOL0     H 8614   6.945  10.463   6.193  0.5122  1.1568  2.4932
  823MOL0     H 8615   6.788  10.459   6.102 -1.7980  1.6347  1.0697
  823MOL0     H 8616   6.939  10.597   5.994 -0.5276  0.4555  0.7268
  823MOL0     H 8617   6.962  10.705   6.143 -1.3201  2.9224 -2.1137
  823MOL0     H 8618   6.248  10.601   7.033 -0.2713 -0.8215 -1.3717
  823MOL0     H 8619   6.027  10.716   7.102 -2.7627 -1.1662 -2.5246
  823MOL0     H 8620   5.847  11.251   7.201  0.0126 -1.1181 -1.2858
  823MOL0     H 8621   5.641  11.297   7.296 -0.0173  0.3120  0.4187
  823MOL0     H 8622   6.156  11.308   7.274  1.1498 -0.4079 -0.1276
  823MOL0     H 8623   6.260  11.095   7.192  2.0524  0.0018 -1.0329
  823MOL0     H 8624   6.626  10.750   7.192 -1.6020  1.9593  0.6503
  823MOL0     H 8625   6.684  10.519   7.157 -0.4561  2.5870 -1.4029
  823MOL0     H 8626   6.520  10.099   7.225  0.3372 -0.9707  1.4690
  823MOL0     H 8627   6.393  10.219   7.213 -0.7446 -2.3949  2.0292
  823MOL0     H 8628   6.541  10.111   7.460  1.1351  2.1506 -1.6102
  823MOL0     H 8629   6.417  10.239   7.473  0.2281 -0.1743  0.9886
  823MOL0     H 8630   6.373   9.964   7.341 -2.3073 -0.1890 -2.3000
  823MOL0     H 8631   6.257  10.102   7.367 -0.1140  1.5207 -0.6234
  823MOL0     H 8632   6.380   9.972   7.609  0.9853  1.2304  0.0804
  823MOL0     H 8633   6.259  10.088   7.613  1.1489 -0.0158  1.5475
  823MOL0     H 8634   5.992   9.784   7.590 -0.7458 -0.3148 -2.8444
  823MOL0     H 8635   6.320  10.401   7.367 -0.0955  1.2392  0.3640
  823MOL0     H 8636   6.260  10.632   7.371  2.2182  0.3196  3.2150
  824MOL0     O 8637   7.638   8.578   8.170 -0.5653 -0.5775 -0.4719
  824MOL0     C 8638   7.741   8.510   8.186 -0.0785 -0.4225  0.1398
  824MOL0     O 8639   7.777   8.408   8.104 -0.5318  0.1363 -0.1068
  824MOL0     C 8640   7.713   8.381   7.986 -0.3346 -0.1444 -0.7512
  824MOL0     C 8641   7.782   8.384   7.867 -0.1819 -0.4431  0.3911
  824MOL0     C 8642   7.724   8.366   7.741  0.0788  0.0258  0.3787
  824MOL0     C 8643   7.589   8.347   7.736  0.2891 -0.2837  0.0173
  824MOL0     O 8644   7.526   8.364   7.621  0.4796 -0.4658  0.0447
  824MOL0     C 8645   7.436   8.483   7.626 -0.5001 -0.1626  0.6459
  824MOL0     C 8646   7.305   8.433   7.556 -0.0285  0.1197  0.6763
  824MOL0     C 8647   7.324   8.385   7.410 -0.4941 -0.0460  0.1097
  824MOL0     C 8648   7.195   8.329   7.365  0.7481 -1.0026 -0.4203
  824MOL0     C 8649   7.136   8.194   7.413  0.3181 -0.2856 -0.1915
  824MOL0     C 8650   7.002   8.199   7.356  1.1806  0.7787  0.4601
  824MOL0     C 8651   6.919   8.069   7.361 -0.0635  0.1495  0.0483
  824MOL0     C 8652   6.772   8.098   7.321  0.5419  0.4918 -0.4595
  824MOL0     N 8653   6.756   8.163   7.190  0.0547  1.0060 -0.5769
  824MOL0     C 8654   6.727   8.082   7.074 -0.9230  0.0610  0.7034
  824MOL0     C 8655   6.667   8.163   6.992 -0.0954 -1.1344  0.3836
  824MOL0     C 8656   6.617   8.142   6.850  0.1200 -0.1558  0.3835
  824MOL0     C 8657   6.484   8.069   6.821 -0.4709 -1.0267  0.3390
  824MOL0     C 8658   6.372   8.172   6.841  0.7452 -0.3852 -0.7280
  824MOL0     C 8659   6.232   8.094   6.851  0.1975  1.0120  0.8539
  824MOL0     O 8660   6.244   8.021   6.725 -0.4636 -0.0399  0.0240
  824MOL0     C 8661   6.134   7.954   6.675  0.0284  0.6892 -0.0185
  824MOL0     C 8662   6.024   7.918   6.766  0.0709  0.2268  0.5341
  824MOL0     C 8663   5.909   7.843   6.723 -0.5111 -0.1032 -0.7207
  824MOL0     C 8664   5.912   7.811   6.590  0.5011 -0.3280  0.1716
  824MOL0     C 8665   5.804   7.734   6.541 -0.1472 -0.9113 -1.0161
  824MOL0     O 8666   5.729   7.675   6.646  0.1259  0.0460 -0.4511
  824MOL0     C 8667   5.612   7.626   6.606 -0.5067  0.8059  0.5890
  824MOL0     C 8668   5.603   7.520   6.513  0.8354 -0.8163 -0.1059
  824MOL0     C 8669   5.479   7.474   6.471  0.1741 -0.1273 -0.5622
  824MOL0     C 8670   5.368   7.526   6.535  0.5238 -0.1817  0.2162
  824MOL0     O 8671   5.246   7.490   6.479 -1.0166  0.3114 -1.3707
  824MOL0     C 8672   5.203   7.361   6.510 -0.0207  0.0934 -1.3426
  824MOL0     C 8673   5.173   7.268   6.386  0.4266  0.7369  0.2273
  824MOL0     C 8674   5.145   7.116   6.421  0.0358 -0.1550 -0.2073
  824MOL0     C 8675   5.197   7.032   6.300  0.3777  0.3401 -0.4036
  824MOL0     C 8676   5.097   7.051   6.187  0.4109 -0.2262 -0.8236
  824MOL0     C 8677   4.959   6.982   6.206  0.4050  0.4780 -0.0981
  824MOL0     C 8678   4.863   7.018   6.095  0.8863 -0.6588 -0.1920
  824MOL0     C 8679   4.755   7.128   6.133 -0.3627  0.3765  0.2034
  824MOL0    Cl 8680   4.637   7.133   5.999  0.0987  0.1091 -0.1869
  824MOL0     C 8681   5.373   7.634   6.626 -0.9917  0.3938 -0.6433
  824MOL0     C 8682   5.500   7.688   6.659  0.8537 -0.1905  1.7368
  824MOL0     O 8683   5.770   7.752   6.421 -0.8187 -0.7875  0.1549
  824MOL0     C 8684   6.017   7.844   6.493 -0.8287  0.5409 -0.4816
  824MOL0     C 8685   6.132   7.906   6.539 -0.4819 -0.4360  0.4725
  824MOL0     N 8686   6.630   8.273   7.064  0.0954 -0.0564  0.1151
  824MOL0     N 8687   6.692   8.281   7.171 -0.3761  0.4426  0.3564
  824MOL0     C 8688   7.521   8.323   7.853  0.0683 -0.3453  0.5086
  824MOL0     C 8689   7.575   8.344   7.984  0.1011  0.4606  0.3267
  824MOL0     C 8690   7.835   8.553   8.296 -0.8877 -0.6522  0.4186
  824MOL0     C 8691   7.913   8.455   8.360  0.4769 -0.2098 -0.4362
  824MOL0     C 8692   7.994   8.493   8.473 -0.5613  0.4070 -0.3479
  824MOL0     C 8693   7.990   8.630   8.520  0.3638  0.4037  0.2205
  824MOL0     O 8694   8.067   8.667   8.621 -0.0192 -0.5482  0.0378
  824MOL0     C 8695   8.097   8.805   8.664 -0.0290 -0.6249  0.0673
  824MOL0     C 8696   8.204   8.881   8.583  1.2317  0.4962  0.9258
  824MOL0     C 8697   8.204   9.030   8.623 -0.2837 -0.0267  0.4748
  824MOL0     C 8698   8.291   9.113   8.534 -0.2226  0.6798 -0.1240
  824MOL0     C 8699   8.435   9.087   8.569  0.5477  0.4922  0.0120
  824MOL0     C 8700   8.552   9.062   8.587 -0.0684 -0.5039  0.1763
  824MOL0     C 8701   7.915   8.726   8.454  0.4180 -0.1470  0.1585
  824MOL0     C 8702   7.844   8.684   8.337  0.0419  0.1123 -0.6843
  824MOL0     H 8703   7.887   8.411   7.868 -0.5500  1.1524  2.1435
  824MOL0     H 8704   7.787   8.382   7.653  1.9588 -0.8269  1.5002
  824MOL0     H 8705   7.484   8.566   7.574 -0.0233 -1.2278 -0.6858
  824MOL0     H 8706   7.400   8.515   7.724 -1.2157  2.0818 -0.2840
  824MOL0     H 8707   7.245   8.524   7.553  0.5453  0.5368  1.4404
  824MOL0     H 8708   7.260   8.354   7.617 -1.3213  0.5510  0.3230
  824MOL0     H 8709   7.403   8.310   7.398 -0.5040 -0.3458  1.6689
  824MOL0     H 8710   7.342   8.474   7.349  2.4818 -0.2161  0.5600
  824MOL0     H 8711   7.118   8.401   7.393  2.1665 -0.8398  3.8170
  824MOL0     H 8712   7.202   8.333   7.256 -0.1859  4.0126 -0.5225
  824MOL0     H 8713   7.153   8.206   7.521  0.8521  2.7858 -0.5248
  824MOL0     H 8714   7.198   8.117   7.368  0.5236 -0.5288  0.4917
  824MOL0     H 8715   7.018   8.216   7.249  0.2543 -1.1633 -0.0408
  824MOL0     H 8716   6.933   8.272   7.397  1.3735  0.4789  1.3319
  824MOL0     H 8717   6.970   7.996   7.297 -0.2777 -1.5244  1.7006
  824MOL0     H 8718   6.923   8.025   7.461 -2.3470  0.7645  0.4783
  824MOL0     H 8719   6.724   8.164   7.394  0.7419 -0.8597  0.9603
  824MOL0     H 8720   6.721   8.001   7.318 -0.0003  0.7812 -0.7272
  824MOL0     H 8721   6.769   7.985   7.047  0.4434  0.7751  0.1796
  824MOL0     H 8722   6.693   8.088   6.792  0.4418 -1.6755  2.1197
  824MOL0     H 8723   6.614   8.246   6.816 -2.2763  0.6629  2.7337
  824MOL0     H 8724   6.472   7.982   6.887 -3.2100 -0.9706  0.0275
  824MOL0     H 8725   6.486   8.040   6.715  1.4321  1.7140 -0.4842
  824MOL0     H 8726   6.397   8.232   6.929 -0.6209  0.4725 -0.8959
  824MOL0     H 8727   6.371   8.239   6.755 -0.7587 -0.9651 -1.1873
  824MOL0     H 8728   6.144   8.159   6.848 -1.0594 -0.6674 -1.1042
  824MOL0     H 8729   6.221   8.025   6.935 -1.5731 -2.8885 -2.2784
  824MOL0     H 8730   6.034   7.945   6.871  1.7836 -2.9254  1.3204
  824MOL0     H 8731   5.837   7.829   6.803  0.4543  1.7765  0.5294
  824MOL0     H 8732   5.687   7.467   6.470  0.2940  0.9018 -3.6508
  824MOL0     H 8733   5.474   7.395   6.397  1.9538  0.6690 -1.5909
  824MOL0     H 8734   5.107   7.373   6.561  0.8867 -1.1615  0.8146
  824MOL0     H 8735   5.267   7.303   6.578 -2.3682 -3.2833 -1.7492
  824MOL0     H 8736   5.263   7.278   6.324 -1.1378  1.7580 -2.0439
  824MOL0     H 8737   5.099   7.304   6.314  0.3042  0.4970  0.2335
  824MOL0     H 8738   5.039   7.098   6.441  0.0146 -1.4387 -1.3266
  824MOL0     H 8739   5.203   7.090   6.510  1.4226 -1.6027 -1.4570
  824MOL0     H 8740   5.304   7.041   6.277  0.6544 -0.2955  0.5827
  824MOL0     H 8741   5.194   6.928   6.334  1.0339  0.6882  0.7669
  824MOL0     H 8742   5.154   7.008   6.104  2.5431 -1.7586  1.2955
  824MOL0     H 8743   5.091   7.157   6.161  2.8574 -0.1671 -1.4493
  824MOL0     H 8744   4.901   6.998   6.297 -2.0154 -1.5230 -1.1443
  824MOL0     H 8745   4.983   6.875   6.206 -3.5829 -0.5952 -1.9906
  824MOL0     H 8746   4.922   7.052   6.010 -0.6070 -0.1001 -1.0364
  824MOL0     H 8747   4.798   6.935   6.065 -0.5565  0.9783 -1.8395
  824MOL0     H 8748   4.801   7.223   6.162 -0.8646  0.0692  2.1749
  824MOL0     H 8749   4.702   7.085   6.219  3.4328  1.0532  3.1639
  824MOL0     H 8750   5.285   7.670   6.678  0.6592  0.6304  2.1674
  824MOL0     H 8751   5.502   7.777   6.721 -1.9319 -0.1069  1.8312
  824MOL0     H 8752   6.014   7.815   6.388  2.7921 -0.4673 -0.4589
  824MOL0     H 8753   6.212   7.941   6.475 -0.2098 -0.3857  0.8341
  824MOL0     H 8754   7.416   8.295   7.860 -0.2086  1.0300  2.9788
  824MOL0     H 8755   7.527   8.322   8.079  2.1662 -3.6355  0.6658
  824MOL0     H 8756   7.911   8.352   8.326 -1.6676 -0.7497  1.1008
  824MOL0     H 8757   8.068   8.424   8.512 -2.9578 -2.4588 -0.5541
  824MOL0     H 8758   8.118   8.808   8.771 -0.7172  2.1559  0.1867
  824MOL0     H 8759   8.008   8.868   8.654  1.8114  1.8096 -2.3841
  824MOL0     H 8760   8.294   8.824   8.606  0.0540 -0.7250  2.7934
  824MOL0     H 8761   8.179   8.869   8.477  1.6888  0.6040  0.8059
  824MOL0     H 8762   8.244   9.043   8.724 -0.4258  0.3731  0.4844
  824MOL0     H 8763   8.105   9.076   8.635 -0.1129 -0.2701  4.1075
  824MOL0     H 8764   8.297   9.095   8.426 -1.1098  1.8673 -0.3911
  824MOL0     H 8765   8.267   9.217   8.557  2.0986  1.3461 -0.4405
  824MOL0     H 8766   8.652   9.024   8.595  0.1517  0.2906  1.6233
  824MOL0     H 8767   7.917   8.827   8.493 -0.0951 -0.7393  1.7845
  824MOL0     H 8768   7.788   8.759   8.282 -0.7110 -1.5842 -2.3614
  825MOL0     O 8769   0.790   3.604   0.492  0.7636  0.7879 -0.2143
  825MOL0     C 8770   0.728   3.538   0.402  0.4624 -0.8107 -0.5855
  825MOL0     O 8771   0.777   3.438   0.330 -0.4832  0.4310 -0.2201
  825MOL0     C 8772   0.899   3.394   0.367  0.1672 -0.1161 -0.4436
  825MOL0     C 8773   0.920   3.266   0.419 -0.4149  0.4491 -0.3658
  825MOL0     C 8774   1.054   3.216   0.414  0.0780 -0.1461 -0.2758
  825MOL0     C 8775   1.166   3.306   0.378  0.1503  0.3558  0.5061
  825MOL0     O 8776   1.298   3.265   0.385 -0.5128 -0.6003 -0.3945
  825MOL0     C 8777   1.353   3.267   0.256 -0.1960  0.4366 -0.7962
  825MOL0     C 8778   1.478   3.177   0.249 -0.7033  0.6568  0.5225
  825MOL0     C 8779   1.604   3.238   0.317  0.0112 -0.3258  0.0093
  825MOL0     C 8780   1.727   3.156   0.282  1.0535  0.8688 -0.2673
  825MOL0     C 8781   1.851   3.187   0.367 -0.3363 -0.4124 -0.2875
  825MOL0     C 8782   1.964   3.105   0.311 -0.9546 -0.0349  0.1357
  825MOL0     C 8783   2.100   3.158   0.357  0.1722  1.2666 -0.1453
  825MOL0     C 8784   2.192   3.046   0.320 -0.3702  0.1419 -0.7974
  825MOL0     N 8785   2.325   3.072   0.371 -1.0196 -0.6006  0.3133
  825MOL0     C 8786   2.386   3.013   0.482  0.0408  0.3491 -0.8605
  825MOL0     C 8787   2.513   3.053   0.474  0.4605 -0.7539 -0.0896
  825MOL0     C 8788   2.622   3.001   0.564  0.6326  0.6432  0.0576
  825MOL0     C 8789   2.760   2.977   0.492  0.1301 -0.0070  0.2995
  825MOL0     C 8790   2.857   2.951   0.593 -0.4119  0.0620  0.0087
  825MOL0     C 8791   2.828   2.819   0.668  0.0513 -0.8937 -0.1393
  825MOL0     O 8792   2.837   2.706   0.586 -0.5608 -0.2172 -0.5857
  825MOL0     C 8793   2.810   2.583   0.640  0.0201  0.7446  0.2705
  825MOL0     C 8794   2.824   2.478   0.546  1.1165  0.1507 -1.3240
  825MOL0     C 8795   2.801   2.347   0.584  0.0328  0.4198  0.2817
  825MOL0     C 8796   2.749   2.310   0.713  0.9616 -1.1045  0.0261
  825MOL0     C 8797   2.722   2.176   0.754 -0.1002  1.0316 -0.0729
  825MOL0     O 8798   2.767   2.070   0.682 -0.2603  0.3281  0.9367
  825MOL0     C 8799   2.757   1.942   0.729  0.1077 -0.4030 -0.7138
  825MOL0     C 8800   2.715   1.842   0.645 -0.3487 -0.1999 -0.3026
  825MOL0     C 8801   2.688   1.713   0.683  0.3645 -0.5705 -0.9476
  825MOL0     C 8802   2.720   1.677   0.820 -1.1017  0.5037  0.0620
  825MOL0     O 8803   2.696   1.550   0.857 -0.4898  0.6804  0.4042
  825MOL0     C 8804   2.636   1.529   0.988 -0.2987  0.6529 -0.2180
  825MOL0     C 8805   2.551   1.396   0.983 -0.5779 -0.3344  0.2339
  825MOL0     C 8806   2.482   1.374   1.112 -0.3756 -0.8603 -1.2841
  825MOL0     C 8807   2.392   1.248   1.106  0.4149 -0.6431  0.5533
  825MOL0     C 8808   2.280   1.252   1.217  0.4506 -0.4365  0.6825
  825MOL0     C 8809   2.325   1.255   1.358 -1.1323 -0.2656 -0.1750
  825MOL0     C 8810   2.423   1.144   1.392  0.1357  0.7329  0.2257
  825MOL0     C 8811   2.466   1.146   1.540 -0.2443  0.2130  0.1032
  825MOL0    Cl 8812   2.321   1.123   1.646 -0.2907 -0.2676  0.2246
  825MOL0     C 8813   2.776   1.777   0.906 -0.0701 -0.6897 -0.0464
  825MOL0     C 8814   2.786   1.913   0.859  0.5230  1.1894  0.8375
  825MOL0     O 8815   2.657   2.168   0.858 -0.1843 -0.1349  0.6511
  825MOL0     C 8816   2.760   2.423   0.804  0.0021  0.9430 -0.5286
  825MOL0     C 8817   2.780   2.552   0.772  0.2186  0.1654 -0.1523
  825MOL0     N 8818   2.527   3.137   0.370  0.6703 -1.1369 -0.3388
  825MOL0     N 8819   2.414   3.152   0.301 -0.5747 -0.0659  0.5696
  825MOL0     C 8820   1.139   3.439   0.340  0.0136  0.9119  0.3236
  825MOL0     C 8821   1.009   3.477   0.339 -0.1142 -0.6013  0.0422
  825MOL0     C 8822   0.582   3.557   0.381  0.1876  0.0483  0.0918
  825MOL0     C 8823   0.527   3.523   0.259  0.1904  0.1429  0.9876
  825MOL0     C 8824   0.396   3.567   0.225 -0.1767 -0.1755 -0.1644
  825MOL0     C 8825   0.313   3.642   0.317  0.1018  0.3213 -0.4285
  825MOL0     O 8826   0.185   3.668   0.279 -0.0401 -0.3674 -0.4220
  825MOL0     C 8827   0.097   3.738   0.374 -0.4933 -0.3862 -0.7811
  825MOL0     C 8828  -0.035   3.793   0.318  0.6279  0.7241  0.1563
  825MOL0     C 8829  -0.133   3.849   0.416 -0.5903 -0.4744 -0.1729
  825MOL0     C 8830  -0.268   3.871   0.366  0.3775 -0.6716 -0.2044
  825MOL0     C 8831  -0.272   3.985   0.267  0.7124 -0.4093 -0.2092
  825MOL0     C 8832  -0.275   4.077   0.184  0.3357 -0.3048 -0.1388
  825MOL0     C 8833   0.367   3.664   0.439 -0.3726 -0.4354  0.7708
  825MOL0     C 8834   0.499   3.639   0.471  0.1592 -0.5342  0.1625
  825MOL0     H 8835   0.845   3.202   0.464 -1.6180  3.7004  2.8228
  825MOL0     H 8836   1.078   3.115   0.449 -1.3255  0.0526  1.3831
  825MOL0     H 8837   1.395   3.365   0.234  1.9731 -0.6572 -1.7517
  825MOL0     H 8838   1.281   3.231   0.182 -0.8341  0.4702 -0.2090
  825MOL0     H 8839   1.507   3.171   0.143  0.2818 -4.0612  0.8451
  825MOL0     H 8840   1.446   3.079   0.283 -4.8474  2.4317  2.4194
  825MOL0     H 8841   1.582   3.244   0.424 -1.5987  4.5821 -0.3754
  825MOL0     H 8842   1.619   3.340   0.281 -0.3986  0.5635  2.1931
  825MOL0     H 8843   1.696   3.053   0.298 -1.5847  1.5850 -0.4032
  825MOL0     H 8844   1.738   3.169   0.174 -1.2767  1.5354 -0.4698
  825MOL0     H 8845   1.836   3.177   0.475  4.0103  2.0717  0.8033
  825MOL0     H 8846   1.874   3.293   0.352  3.3182 -0.6435  2.4514
  825MOL0     H 8847   1.964   3.106   0.201 -0.1336  1.5369  0.1222
  825MOL0     H 8848   1.939   3.003   0.341 -2.2558  0.0441 -0.6151
  825MOL0     H 8849   2.126   3.257   0.320 -0.4019  1.4147 -0.1599
  825MOL0     H 8850   2.095   3.150   0.466 -0.1512 -4.8386 -0.2762
  825MOL0     H 8851   2.201   3.049   0.211  0.0981  0.4580 -0.7501
  825MOL0     H 8852   2.163   2.949   0.363  2.8293 -0.7256 -0.3531
  825MOL0     H 8853   2.336   2.949   0.554 -0.8162  1.7134 -0.2012
  825MOL0     H 8854   2.588   2.907   0.611  1.5265  0.9873  1.4535
  825MOL0     H 8855   2.629   3.072   0.647  3.1434 -0.3659  0.8067
  825MOL0     H 8856   2.790   3.066   0.436  0.7885 -1.7922 -2.3346
  825MOL0     H 8857   2.744   2.895   0.422  4.5919  0.8788 -2.0484
  825MOL0     H 8858   2.945   2.923   0.534 -0.3342  1.2010 -0.4426
  825MOL0     H 8859   2.884   3.030   0.663 -1.5223  1.4263 -1.0407
  825MOL0     H 8860   2.733   2.818   0.724  0.1473  0.3960  0.0868
  825MOL0     H 8861   2.905   2.816   0.746  2.5932  1.9437 -2.2900
  825MOL0     H 8862   2.839   2.505   0.442  1.8068  0.0629 -1.2547
  825MOL0     H 8863   2.808   2.264   0.515 -1.2306  0.7645 -0.2852
  825MOL0     H 8864   2.707   1.851   0.537  1.5679 -1.2430 -0.5790
  825MOL0     H 8865   2.672   1.621   0.627 -0.1489 -2.3245  1.8640
  825MOL0     H 8866   2.575   1.616   1.014 -0.6359  1.2510 -2.7309
  825MOL0     H 8867   2.710   1.515   1.066  1.1727 -3.1101 -2.0406
  825MOL0     H 8868   2.626   1.321   0.957  2.5493  3.1636 -1.6925
  825MOL0     H 8869   2.483   1.407   0.897 -1.0235 -1.8763  0.3533
  825MOL0     H 8870   2.411   1.452   1.142 -1.4340 -2.2411 -0.0505
  825MOL0     H 8871   2.548   1.365   1.198 -0.5039  2.0073 -0.7726
  825MOL0     H 8872   2.346   1.238   1.007 -2.1314  1.9997  1.3161
  825MOL0     H 8873   2.453   1.161   1.130  3.3600  1.3973  0.9260
  825MOL0     H 8874   2.223   1.158   1.217 -0.8533  0.2502  3.2666
  825MOL0     H 8875   2.201   1.325   1.196  0.1338 -1.1152 -0.5981
  825MOL0     H 8876   2.240   1.242   1.426 -0.6179 -1.4074  0.2825
  825MOL0     H 8877   2.366   1.353   1.381 -0.5150 -0.2836 -1.1786
  825MOL0     H 8878   2.390   1.041   1.370  1.0456  0.1627  1.4240
  825MOL0     H 8879   2.517   1.170   1.344 -0.4949  0.6691 -1.0889
  825MOL0     H 8880   2.510   1.244   1.563  2.9327 -1.4024  1.5503
  825MOL0     H 8881   2.551   1.080   1.559  0.5662  1.5828  1.4278
  825MOL0     H 8882   2.799   1.754   1.009 -3.0725  1.8844  1.3804
  825MOL0     H 8883   2.810   1.993   0.928 -1.1512  0.9954  1.7109
  825MOL0     H 8884   2.734   2.413   0.909  0.9862  1.0551 -0.2605
  825MOL0     H 8885   2.795   2.624   0.851  1.6993  1.6039 -1.6502
  825MOL0     H 8886   1.223   3.508   0.332 -0.9507  2.1272  0.4799
  825MOL0     H 8887   0.985   3.581   0.319 -0.0831 -0.2985  1.4910
  825MOL0     H 8888   0.589   3.487   0.177 -2.5797  1.9535 -2.1493
  825MOL0     H 8889   0.366   3.564   0.121 -0.6257  1.0820 -0.0932
  825MOL0     H 8890   0.146   3.827   0.414  1.8801 -0.7285 -2.6967
  825MOL0     H 8891   0.082   3.667   0.456  1.5570 -0.5768 -0.5099
  825MOL0     H 8892  -0.010   3.864   0.238  0.4268  0.2398 -0.3418
  825MOL0     H 8893  -0.076   3.712   0.257  0.0183 -0.7698  2.4383
  825MOL0     H 8894  -0.093   3.948   0.442  0.2638 -1.2781  1.7690
  825MOL0     H 8895  -0.132   3.787   0.506 -2.2994 -0.5211 -0.1484
  825MOL0     H 8896  -0.304   3.785   0.309  0.1907 -0.0137 -1.1022
  825MOL0     H 8897  -0.342   3.891   0.445  3.3278  1.6850  2.1793
  825MOL0     H 8898  -0.287   4.152   0.108 -3.5301 -0.0438  0.5346
  825MOL0     H 8899   0.312   3.708   0.522  1.8935  2.2197  1.0238
  825MOL0     H 8900   0.549   3.659   0.565 -0.4853 -1.5585  0.7431
  826MOL0     O 8901   3.902   7.354   8.719  0.9498 -0.2798  0.1754
  826MOL0     C 8902   3.959   7.437   8.798 -0.1743 -0.5448 -0.2891
  826MOL0     O 8903   3.899   7.500   8.894  0.9998 -0.4523 -0.2161
  826MOL0     C 8904   3.757   7.502   8.904 -0.1992 -1.1704  0.2447
  826MOL0     C 8905   3.696   7.495   9.028  0.8871  1.0337 -0.0797
  826MOL0     C 8906   3.558   7.490   9.048 -0.5281 -0.0020  0.3440
  826MOL0     C 8907   3.475   7.488   8.939 -0.2374 -0.2962  0.0378
  826MOL0     O 8908   3.342   7.466   8.951  0.0942  0.2217  0.0931
  826MOL0     C 8909   3.253   7.574   8.921 -0.2085 -1.0675  0.2921
  826MOL0     C 8910   3.175   7.627   9.042 -0.5492 -0.0272 -0.3247
  826MOL0     C 8911   3.027   7.620   9.019 -0.1442  0.0356  0.1361
  826MOL0     C 8912   2.968   7.712   8.909  0.1027 -0.4614  0.0885
  826MOL0     C 8913   2.819   7.703   8.932  0.1218 -0.8011  1.6058
  826MOL0     C 8914   2.737   7.815   8.864 -0.0849 -0.1441 -0.3178
  826MOL0     C 8915   2.581   7.793   8.889 -0.3839  0.3329 -0.3047
  826MOL0     C 8916   2.481   7.839   8.780  0.8228 -0.2385 -0.4306
  826MOL0     N 8917   2.338   7.819   8.813 -0.5211  0.2014  0.5954
  826MOL0     C 8918   2.234   7.902   8.816  0.5312  0.5803 -0.8331
  826MOL0     C 8919   2.108   7.827   8.810  0.0427 -0.3446  0.0783
  826MOL0     C 8920   1.966   7.895   8.822 -0.1009 -0.2428 -0.6465
  826MOL0     C 8921   1.853   7.812   8.763 -0.2793 -1.4915 -0.4350
  826MOL0     C 8922   1.713   7.866   8.785 -0.0038  1.3171  0.2002
  826MOL0     C 8923   1.665   7.974   8.689 -0.4964  0.2580  0.1149
  826MOL0     O 8924   1.655   7.911   8.554 -1.0637 -0.4647 -0.9944
  826MOL0     C 8925   1.533   7.890   8.499  0.2394 -0.1659  0.2566
  826MOL0     C 8926   1.410   7.958   8.521 -0.1283  0.0812 -0.1836
  826MOL0     C 8927   1.293   7.917   8.457 -0.3482  0.1699 -0.3376
  826MOL0     C 8928   1.299   7.807   8.375 -0.1069 -0.0557  0.8333
  826MOL0     C 8929   1.171   7.760   8.315 -0.2570  0.2877  0.2056
  826MOL0     O 8930   1.177   7.701   8.195  0.3336  0.3577 -0.4261
  826MOL0     C 8931   1.073   7.651   8.121  0.4460 -0.1263 -0.0772
  826MOL0     C 8932   1.041   7.704   7.998  0.0850 -0.2350 -0.6428
  826MOL0     C 8933   0.938   7.656   7.922  0.4221  0.5270 -0.0146
  826MOL0     C 8934   0.854   7.547   7.967 -0.3668 -0.1906 -0.6961
  826MOL0     O 8935   0.744   7.509   7.900 -0.3997 -0.6835 -0.0257
  826MOL0     C 8936   0.676   7.617   7.834 -0.0841 -0.3901  1.0257
  826MOL0     C 8937   0.574   7.574   7.725  1.0912 -0.1163  0.4170
  826MOL0     C 8938   0.446   7.484   7.747 -0.2487  0.2286  0.0936
  826MOL0     C 8939   0.344   7.480   7.629 -0.9813 -0.4208  0.1261
  826MOL0     C 8940   0.221   7.416   7.675 -0.6336  1.0549 -0.0524
  826MOL0     C 8941   0.116   7.458   7.575  0.6916 -0.4449 -0.1403
  826MOL0     C 8942  -0.016   7.400   7.621  1.4010 -0.0722  0.7225
  826MOL0     C 8943  -0.122   7.411   7.516 -0.1579 -0.1880  0.3855
  826MOL0    Cl 8944  -0.087   7.308   7.373  0.5728 -0.3198  0.2334
  826MOL0     C 8945   0.876   7.501   8.096  0.0740 -0.1707 -0.1456
  826MOL0     C 8946   0.994   7.539   8.169  0.2154 -0.7151 -0.4024
  826MOL0     O 8947   1.070   7.783   8.375  0.0618  0.0006  0.6637
  826MOL0     C 8948   1.421   7.740   8.346  0.9095  0.8847  0.1969
  826MOL0     C 8949   1.538   7.785   8.406 -0.1481  0.2927 -0.0345
  826MOL0     N 8950   2.152   7.694   8.812 -0.0593 -0.0983  0.2600
  826MOL0     N 8951   2.284   7.695   8.807 -0.3825  0.1330 -0.8991
  826MOL0     C 8952   3.527   7.500   8.809 -0.7907  0.2780 -0.5086
  826MOL0     C 8953   3.667   7.510   8.793  0.2719  0.3743 -0.4191
  826MOL0     C 8954   4.108   7.446   8.794 -0.6072 -0.6137 -0.0525
  826MOL0     C 8955   4.178   7.538   8.873 -0.5829  0.4458 -0.3794
  826MOL0     C 8956   4.317   7.541   8.882 -0.3732  0.2262  0.6329
  826MOL0     C 8957   4.394   7.449   8.816 -0.2047  0.0907  0.3001
  826MOL0     O 8958   4.536   7.458   8.849  0.3802 -0.7589  0.2004
  826MOL0     C 8959   4.627   7.374   8.778 -0.4052  1.5308 -0.4089
  826MOL0     C 8960   4.777   7.424   8.773  0.9269 -0.0459  0.6703
  826MOL0     C 8961   4.852   7.367   8.652  0.0858 -0.5127  0.4634
  826MOL0     C 8962   4.991   7.426   8.654 -0.7935  0.3310  0.5187
  826MOL0     C 8963   5.080   7.356   8.754  0.2170  0.0519  0.0949
  826MOL0     C 8964   5.148   7.285   8.822  0.2419  0.9297 -0.6211
  826MOL0     C 8965   4.330   7.344   8.744 -0.1978  0.4427 -0.9935
  826MOL0     C 8966   4.187   7.344   8.738 -0.0501  0.8794 -0.7002
  826MOL0     H 8967   3.753   7.477   9.119 -0.5526 -2.4459  0.3038
  826MOL0     H 8968   3.516   7.493   9.148  2.0415  1.6538  1.4909
  826MOL0     H 8969   3.193   7.544   8.834  0.1780  3.3609 -1.7898
  826MOL0     H 8970   3.307   7.661   8.881  0.0438 -0.2965  2.1959
  826MOL0     H 8971   3.199   7.731   9.064 -1.5353  1.2701 -4.3937
  826MOL0     H 8972   3.202   7.562   9.126 -0.3704 -1.4597 -1.4480
  826MOL0     H 8973   2.986   7.644   9.117  0.2100  1.0614  0.0430
  826MOL0     H 8974   2.994   7.519   8.990  0.3880  0.0237 -0.4575
  826MOL0     H 8975   3.001   7.816   8.899 -3.1193  0.4919 -2.2155
  826MOL0     H 8976   2.993   7.661   8.815  2.7964 -1.9870  1.5253
  826MOL0     H 8977   2.789   7.717   9.036 -4.0519  0.3288  0.4300
  826MOL0     H 8978   2.781   7.610   8.889 -2.1976  0.9547 -0.4153
  826MOL0     H 8979   2.758   7.823   8.756 -1.8923  0.8373 -0.6311
  826MOL0     H 8980   2.768   7.905   8.918 -1.7814  0.3036 -0.0411
  826MOL0     H 8981   2.570   7.685   8.905 -4.1554  0.5242 -0.6397
  826MOL0     H 8982   2.543   7.831   8.984  0.1802 -3.0896  1.4387
  826MOL0     H 8983   2.490   7.784   8.686  0.6386  0.5436 -0.9109
  826MOL0     H 8984   2.513   7.938   8.747  2.3227 -0.5299  0.0595
  826MOL0     H 8985   2.241   8.011   8.822  0.0627  0.5378  1.5218
  826MOL0     H 8986   1.969   7.996   8.780  0.2649  1.4755  3.0351
  826MOL0     H 8987   1.940   7.917   8.926 -3.2543 -0.2106 -1.3521
  826MOL0     H 8988   1.860   7.715   8.814  2.7279 -0.7416  0.8193
  826MOL0     H 8989   1.883   7.797   8.659 -0.2165  0.1233 -0.6767
  826MOL0     H 8990   1.647   7.780   8.775 -1.4718  2.3063  1.0920
  826MOL0     H 8991   1.699   7.905   8.886  1.3474  2.0263  0.1435
  826MOL0     H 8992   1.724   8.067   8.689  0.5810 -0.4033 -0.2460
  826MOL0     H 8993   1.565   8.001   8.724 -0.9977  0.2359 -1.2430
  826MOL0     H 8994   1.417   8.040   8.592 -0.1927 -0.3058  0.2764
  826MOL0     H 8995   1.197   7.962   8.480 -0.4368  0.1021 -0.5775
  826MOL0     H 8996   1.108   7.782   7.963  1.3503 -0.6779  0.7330
  826MOL0     H 8997   0.924   7.696   7.822 -1.6320  1.0457  0.4362
  826MOL0     H 8998   0.735   7.691   7.779 -0.7848 -1.0231 -0.6380
  826MOL0     H 8999   0.627   7.687   7.903  2.0368  0.2415  1.9634
  826MOL0     H 9000   0.628   7.528   7.642 -0.4873  0.8817 -1.2286
  826MOL0     H 9001   0.533   7.664   7.678 -0.4369 -1.2656 -0.5684
  826MOL0     H 9002   0.395   7.526   7.834 -2.7461 -1.7953 -0.2760
  826MOL0     H 9003   0.501   7.391   7.765  1.5782  1.3390  0.5903
  826MOL0     H 9004   0.337   7.583   7.592 -0.2209  0.0588  1.2662
  826MOL0     H 9005   0.383   7.424   7.544  3.1917  4.1877 -1.4786
  826MOL0     H 9006   0.205   7.450   7.778  3.9872 -2.0029  2.0272
  826MOL0     H 9007   0.219   7.307   7.685  1.6981  1.1897  3.9839
  826MOL0     H 9008   0.152   7.408   7.485 -1.1164 -1.7486 -0.2024
  826MOL0     H 9009   0.104   7.565   7.556 -0.1223 -0.5429 -0.2309
  826MOL0     H 9010  -0.007   7.291   7.634 -0.5700 -0.2986  0.4106
  826MOL0     H 9011  -0.046   7.449   7.714 -0.7559  0.6603 -0.2925
  826MOL0     H 9012  -0.131   7.517   7.490 -5.4843 -0.8630 -1.8320
  826MOL0     H 9013  -0.217   7.376   7.557  0.0935 -2.1325 -0.6091
  826MOL0     H 9014   0.810   7.424   8.134  1.0018 -0.4642  0.9536
  826MOL0     H 9015   1.023   7.491   8.261  2.3052 -2.0679 -1.6833
  826MOL0     H 9016   1.424   7.661   8.272  2.0350  2.2131 -1.2569
  826MOL0     H 9017   1.633   7.747   8.370  0.2136  0.5936  0.5806
  826MOL0     H 9018   3.453   7.500   8.730 -2.5696  0.8955  1.0791
  826MOL0     H 9019   3.707   7.512   8.692  1.3345  0.8655 -0.0037
  826MOL0     H 9020   4.135   7.608   8.943 -0.2900 -0.5680  0.8540
  826MOL0     H 9021   4.382   7.603   8.942 -0.4461  1.4753 -0.5522
  826MOL0     H 9022   4.598   7.372   8.673 -1.5385 -0.3203 -0.1201
  826MOL0     H 9023   4.624   7.269   8.809  2.0500  1.0634 -1.5580
  826MOL0     H 9024   4.775   7.533   8.783  0.5849  0.0123  0.0134
  826MOL0     H 9025   4.827   7.386   8.863  0.3237 -0.9761  0.6305
  826MOL0     H 9026   4.801   7.387   8.557 -0.4881 -1.5457  0.5391
  826MOL0     H 9027   4.856   7.258   8.659 -3.8711 -0.7180  1.8481
  826MOL0     H 9028   5.018   7.422   8.549 -1.8305 -0.1775  0.2541
  826MOL0     H 9029   4.990   7.532   8.681 -1.5856 -0.1523  2.5954
  826MOL0     H 9030   5.198   7.212   8.884 -0.5843  0.8502 -0.0344
  826MOL0     H 9031   4.384   7.266   8.690 -0.5669 -0.2411 -0.4025
  826MOL0     H 9032   4.141   7.255   8.696  3.4984 -0.7178 -1.5477
  827MOL0     O 9033  10.851   3.989  10.785 -0.4143 -0.5310  0.3935
  827MOL0     C 9034  10.754   3.913  10.781  0.6677 -0.4487 -0.6900
  827MOL0     O 9035  10.714   3.842  10.673  0.3217  0.1733 -0.2371
  827MOL0     C 9036  10.791   3.857  10.569 -0.1676 -0.1049 -0.3258
  827MOL0     C 9037  10.926   3.802  10.574 -0.2431  0.0327 -0.2407
  827MOL0     C 9038  11.012   3.804  10.464  0.4333  1.2993  0.0873
  827MOL0     C 9039  10.960   3.850  10.342 -0.9934 -0.2295 -0.4175
  827MOL0     O 9040  11.041   3.840  10.228 -0.2269 -0.7034 -0.2836
  827MOL0     C 9041  10.966   3.786  10.117 -0.1387 -1.0794 -0.3696
  827MOL0     C 9042  11.055   3.716  10.019 -0.4046 -0.5966  0.5102
  827MOL0     C 9043  11.166   3.807   9.967  0.1248 -0.0011  0.1052
  827MOL0     C 9044  11.295   3.817  10.054 -0.2308  1.1101  0.7710
  827MOL0     C 9045  11.359   3.686  10.094  0.8017 -0.0089 -0.0194
  827MOL0     C 9046  11.508   3.697  10.102 -0.9395 -0.1130 -0.6305
  827MOL0     C 9047  11.571   3.572  10.161 -0.8367 -0.4352 -0.4906
  827MOL0     C 9048  11.567   3.442  10.074 -0.0492 -0.1963  0.2780
  827MOL0     N 9049  11.660   3.465   9.963  0.4409 -0.1949  1.5697
  827MOL0     C 9050  11.633   3.523   9.841 -0.0008  0.1191 -0.0058
  827MOL0     C 9051  11.749   3.511   9.768  0.7322  0.8781 -0.1770
  827MOL0     C 9052  11.763   3.558   9.624 -0.6647  0.7927 -0.5203
  827MOL0     C 9053  11.884   3.655   9.609  0.9969 -0.2346 -0.6842
  827MOL0     C 9054  12.019   3.583   9.597  0.6325  0.6994 -0.3886
  827MOL0     C 9055  12.146   3.664   9.575  0.4985  0.0599  0.0278
  827MOL0     O 9056  12.136   3.724   9.445 -0.0442 -1.0194  0.9915
  827MOL0     C 9057  12.234   3.816   9.404 -0.3911  0.7806 -0.3956
  827MOL0     C 9058  12.210   3.877   9.284 -0.1333  1.2300 -0.4036
  827MOL0     C 9059  12.304   3.955   9.223  0.1365 -0.1531 -0.3153
  827MOL0     C 9060  12.431   3.983   9.291  0.6343  0.6182  0.2819
  827MOL0     C 9061  12.527   4.077   9.237  0.4025 -0.4366 -0.0843
  827MOL0     O 9062  12.656   4.067   9.269  1.0500 -0.3072  0.3671
  827MOL0     C 9063  12.748   4.138   9.201 -0.3577 -1.2257 -0.4638
  827MOL0     C 9064  12.784   4.120   9.073  0.6594 -0.1831  0.0131
  827MOL0     C 9065  12.898   4.189   9.023  0.5679  0.2564 -0.8267
  827MOL0     C 9066  12.967   4.278   9.102 -0.7406 -0.2463 -1.3292
  827MOL0     O 9067  13.059   4.370   9.048 -0.1312 -0.1538 -0.3998
  827MOL0     C 9068  13.143   4.454   9.129  0.1855  0.5924  0.1834
  827MOL0     C 9069  13.250   4.363   9.203  0.8312 -0.0925 -0.1255
  827MOL0     C 9070  13.337   4.269   9.117 -0.7808 -0.1431 -0.0743
  827MOL0     C 9071  13.428   4.338   9.010 -0.3981 -0.6208  0.3336
  827MOL0     C 9072  13.528   4.445   9.059 -0.8819  0.0184 -0.0322
  827MOL0     C 9073  13.619   4.398   9.178 -0.3779 -0.2897 -0.3310
  827MOL0     C 9074  13.704   4.512   9.241  0.2374  0.0692 -0.2019
  827MOL0     C 9075  13.810   4.443   9.324  0.0689 -1.1110 -0.2931
  827MOL0    Cl 9076  13.915   4.345   9.230  0.3502 -0.0977  0.2634
  827MOL0     C 9077  12.926   4.290   9.238 -0.5134 -0.5969 -0.8127
  827MOL0     C 9078  12.815   4.221   9.288 -0.1657 -0.2226  0.5220
  827MOL0     O 9079  12.478   4.164   9.170  0.5843  0.0711  0.8635
  827MOL0     C 9080  12.461   3.920   9.418  0.3196  0.2195  1.2281
  827MOL0     C 9081  12.360   3.829   9.466  0.4401 -0.2990  0.2469
  827MOL0     N 9082  11.842   3.445   9.845  1.0289  0.2284 -0.4325
  827MOL0     N 9083  11.789   3.423   9.960  0.3635 -0.5841 -0.5709
  827MOL0     C 9084  10.832   3.913  10.338  0.6623 -0.1269 -0.4745
  827MOL0     C 9085  10.755   3.919  10.450  0.1524 -0.9002  0.5476
  827MOL0     C 9086  10.655   3.907  10.901 -0.0642 -1.6040  0.4513
  827MOL0     C 9087  10.654   4.009  10.992  0.0640 -0.1623  0.2279
  827MOL0     C 9088  10.548   4.038  11.075  0.8553  0.5788  0.2689
  827MOL0     C 9089  10.443   3.953  11.084  1.0420 -0.1593  0.0470
  827MOL0     O 9090  10.347   3.985  11.179  0.3029 -0.1779 -0.7839
  827MOL0     C 9091  10.273   3.868  11.229 -0.0863  0.6401  0.2715
  827MOL0     C 9092  10.134   3.857  11.171 -0.0855  0.5184  0.2980
  827MOL0     C 9093  10.072   3.993  11.176 -0.2428 -0.0272 -0.0535
  827MOL0     C 9094   9.939   3.977  11.099 -0.0530  0.5622 -0.3742
  827MOL0     C 9095   9.826   3.973  11.196  0.2722  0.3244  0.2215
  827MOL0     C 9096   9.720   3.989  11.258  0.2285  0.5861 -0.3406
  827MOL0     C 9097  10.443   3.844  10.991  0.1621 -0.1785 -0.1301
  827MOL0     C 9098  10.546   3.823  10.897  0.5907 -0.5705  1.0759
  827MOL0     H 9099  10.957   3.734  10.653 -2.4040 -1.4966 -0.6270
  827MOL0     H 9100  11.112   3.764  10.470 -1.1068 -2.9258  2.2190
  827MOL0     H 9101  10.908   3.864  10.066 -1.4235 -0.7872  1.4487
  827MOL0     H 9102  10.895   3.714  10.159  0.2085 -0.1349  1.9883
  827MOL0     H 9103  10.995   3.686   9.932  0.5372 -0.6072 -0.1516
  827MOL0     H 9104  11.091   3.624  10.066 -1.5180 -2.2044 -1.6188
  827MOL0     H 9105  11.120   3.902   9.937 -1.2507 -0.9776 -0.9972
  827MOL0     H 9106  11.199   3.767   9.871  0.7759  0.5651  0.0833
  827MOL0     H 9107  11.370   3.880  10.005  1.9385 -0.2581  2.1452
  827MOL0     H 9108  11.276   3.877  10.143  0.2417  3.1844 -0.4624
  827MOL0     H 9109  11.337   3.608  10.021 -1.7836  1.8999 -1.4357
  827MOL0     H 9110  11.323   3.666  10.195 -0.0157 -0.4174 -0.3866
  827MOL0     H 9111  11.531   3.785  10.162 -0.5519  0.3926 -1.5021
  827MOL0     H 9112  11.538   3.726  10.001  0.8711  0.9349  0.1727
  827MOL0     H 9113  11.678   3.593  10.177  0.6928 -3.5074 -4.7209
  827MOL0     H 9114  11.517   3.561  10.255  0.9917  0.9414  0.7967
  827MOL0     H 9115  11.468   3.424  10.031  0.9237 -1.5389 -1.5454
  827MOL0     H 9116  11.598   3.347  10.120  0.3649  1.1415  2.9776
  827MOL0     H 9117  11.548   3.570   9.792  2.0060 -0.1706 -4.2871
  827MOL0     H 9118  11.675   3.615   9.593 -0.5405  1.1166 -0.2896
  827MOL0     H 9119  11.769   3.484   9.544  0.9328  2.8144 -2.3668
  827MOL0     H 9120  11.892   3.715   9.700  2.4689  1.6006 -1.9559
  827MOL0     H 9121  11.863   3.722   9.525  1.1819  0.8799  0.1257
  827MOL0     H 9122  12.046   3.528   9.688  3.0605  3.4046  0.6709
  827MOL0     H 9123  12.014   3.514   9.512 -3.3066  0.7041 -0.3441
  827MOL0     H 9124  12.233   3.598   9.585  0.6710  0.2515 -0.1804
  827MOL0     H 9125  12.147   3.734   9.658  0.6560  1.3763 -1.0405
  827MOL0     H 9126  12.117   3.864   9.228  1.6110 -2.1402 -2.8874
  827MOL0     H 9127  12.268   3.999   9.130 -2.3954  0.6346  0.9440
  827MOL0     H 9128  12.728   4.053   9.008  1.9293 -1.0506 -0.2293
  827MOL0     H 9129  12.929   4.188   8.919  2.8335  1.2179 -0.2229
  827MOL0     H 9130  13.083   4.496   9.210  0.6842  0.2551  0.7314
  827MOL0     H 9131  13.186   4.534   9.068 -0.0285  0.3576 -0.2806
  827MOL0     H 9132  13.206   4.304   9.284 -1.5232  1.0308 -0.5082
  827MOL0     H 9133  13.313   4.438   9.252 -0.4262 -2.0471  5.1732
  827MOL0     H 9134  13.276   4.194   9.067 -1.2880  0.3249 -0.1656
  827MOL0     H 9135  13.398   4.206   9.182  2.0049  1.5403 -0.8672
  827MOL0     H 9136  13.485   4.262   8.955 -0.2080  1.2423 -2.2161
  827MOL0     H 9137  13.368   4.383   8.931  1.1576  1.2884  0.1831
  827MOL0     H 9138  13.469   4.533   9.087 -2.0148 -0.7291 -0.0105
  827MOL0     H 9139  13.599   4.481   8.984  1.3656 -0.7222  1.6459
  827MOL0     H 9140  13.670   4.313   9.132 -0.1257  0.2662 -1.1188
  827MOL0     H 9141  13.553   4.359   9.255 -2.2593  3.6435  0.3120
  827MOL0     H 9142  13.752   4.572   9.163 -2.8101 -0.8606 -3.0235
  827MOL0     H 9143  13.636   4.576   9.298  1.2513  1.2498 -0.2782
  827MOL0     H 9144  13.764   4.392   9.409 -2.4382 -0.5589 -1.2064
  827MOL0     H 9145  13.871   4.523   9.366  0.7044 -2.3251  1.1861
  827MOL0     H 9146  12.981   4.352   9.308 -3.4710  0.8052  0.4287
  827MOL0     H 9147  12.781   4.232   9.390  0.0616  0.2620  0.5510
  827MOL0     H 9148  12.555   3.944   9.467  0.6342  0.1589  0.6606
  827MOL0     H 9149  12.382   3.782   9.562  1.5794  0.4035  0.3492
  827MOL0     H 9150  10.803   3.966  10.248 -5.9367  0.5086  1.5380
  827MOL0     H 9151  10.651   3.950  10.441 -0.0115 -0.1870  3.7927
  827MOL0     H 9152  10.736   4.080  10.994 -0.7213  0.7246  1.4444
  827MOL0     H 9153  10.536   4.124  11.141 -0.1965  0.1327  0.6727
  827MOL0     H 9154  10.273   3.872  11.339 -0.4835 -0.3535  0.3177
  827MOL0     H 9155  10.332   3.777  11.216  2.6633  2.1067  1.5437
  827MOL0     H 9156  10.134   3.820  11.068 -0.2446 -0.0283  0.4926
  827MOL0     H 9157  10.083   3.787  11.238 -0.2668 -0.4108 -0.7728
  827MOL0     H 9158  10.129   4.072  11.127  1.3525 -1.3995 -0.5057
  827MOL0     H 9159  10.058   4.028  11.279 -0.0615 -0.6699  0.1942
  827MOL0     H 9160   9.930   4.066  11.036  0.1616 -0.8112 -2.4462
  827MOL0     H 9161   9.947   3.884  11.043  2.5356  0.7249 -0.3933
  827MOL0     H 9162   9.638   4.000  11.325  1.9906  0.4615  1.9704
  827MOL0     H 9163  10.354   3.784  10.974  1.3451 -1.8785 -0.6234
  827MOL0     H 9164  10.544   3.745  10.821  2.5861  0.4651 -0.1435
  828MOL0     O 9165   1.767   8.053   0.649  0.6964 -0.1952 -0.7979
  828MOL0     C 9166   1.749   8.079   0.765 -0.0886 -0.2896 -0.2125
  828MOL0     O 9167   1.838   8.150   0.848 -0.0525  0.1724  0.2030
  828MOL0     C 9168   1.949   8.195   0.787 -0.6114 -0.3515 -0.1356
  828MOL0     C 9169   2.071   8.143   0.811  0.6560 -0.0219  0.7530
  828MOL0     C 9170   2.186   8.192   0.744  0.8508  0.2891  0.1219
  828MOL0     C 9171   2.171   8.284   0.636 -0.6703 -0.4192  0.9397
  828MOL0     O 9172   2.282   8.334   0.567 -0.0367  0.4906 -0.0051
  828MOL0     C 9173   2.412   8.322   0.620 -0.1196 -0.1039  0.3173
  828MOL0     C 9174   2.485   8.441   0.546  0.1670  0.0371  0.1339
  828MOL0     C 9175   2.623   8.427   0.574 -0.7963 -0.4033  0.5822
  828MOL0     C 9176   2.705   8.529   0.495 -0.4580 -0.2400  0.2275
  828MOL0     C 9177   2.856   8.522   0.531 -0.4732  0.1921 -0.4416
  828MOL0     C 9178   2.922   8.388   0.497  0.8464  0.8828  0.2186
  828MOL0     C 9179   2.903   8.346   0.347 -0.4208  0.5066  0.2954
  828MOL0     C 9180   2.779   8.273   0.295  0.4277 -0.5383 -0.0674
  828MOL0     N 9181   2.808   8.230   0.163 -0.4059  0.6116  0.5163
  828MOL0     C 9182   2.806   8.323   0.060 -0.0545  0.4909  1.5747
  828MOL0     C 9183   2.815   8.247  -0.054 -0.9138 -1.1103  0.8793
  828MOL0     C 9184   2.820   8.306  -0.196 -0.2940 -0.7339 -0.9673
  828MOL0     C 9185   2.692   8.363  -0.245 -0.9708 -0.7991  0.6131
  828MOL0     C 9186   2.707   8.400  -0.389  0.5771  0.3338  0.2494
  828MOL0     C 9187   2.580   8.475  -0.452 -0.9592  0.0679  0.3211
  828MOL0     O 9188   2.478   8.375  -0.460  0.1763 -0.0067  0.1615
  828MOL0     C 9189   2.357   8.405  -0.515 -0.8252 -0.2290  0.6474
  828MOL0     C 9190   2.254   8.309  -0.499 -0.4001 -0.4539  0.0248
  828MOL0     C 9191   2.129   8.343  -0.546  0.5547 -0.3326  0.0753
  828MOL0     C 9192   2.099   8.473  -0.614  0.1259  0.7990  0.5244
  828MOL0     C 9193   1.961   8.497  -0.657 -0.2690 -0.1487 -0.1857
  828MOL0     O 9194   1.865   8.408  -0.630  0.2239  0.5924  0.9871
  828MOL0     C 9195   1.732   8.431  -0.646 -0.3891 -0.5012 -0.8034
  828MOL0     C 9196   1.654   8.318  -0.663  0.5209 -0.2564  0.4514
  828MOL0     C 9197   1.514   8.317  -0.673  0.0208 -0.4150  0.6944
  828MOL0     C 9198   1.454   8.447  -0.690  0.3123  0.5986  0.1783
  828MOL0     O 9199   1.322   8.446  -0.712  0.5048 -0.0834 -0.5652
  828MOL0     C 9200   1.272   8.357  -0.814 -0.2948  0.2040  0.2032
  828MOL0     C 9201   1.120   8.395  -0.806  0.0777 -0.2866  0.8073
  828MOL0     C 9202   1.037   8.327  -0.922 -0.5470 -0.0230  0.0431
  828MOL0     C 9203   0.892   8.305  -0.902  0.2026  0.3578 -0.4880
  828MOL0     C 9204   0.815   8.282  -1.018  0.3902  0.9368  0.1576
  828MOL0     C 9205   0.660   8.274  -1.002  0.0236  0.3660 -0.0513
  828MOL0     C 9206   0.598   8.261  -1.145  0.0972 -0.9153  0.3304
  828MOL0     C 9207   0.455   8.278  -1.158 -0.6287  0.0314  0.9285
  828MOL0    Cl 9208   0.370   8.163  -1.039 -0.0249  0.4489 -0.0905
  828MOL0     C 9209   1.529   8.557  -0.682  0.6411  0.4630 -0.6342
  828MOL0     C 9210   1.666   8.552  -0.651  1.0885  0.4598  0.2146
  828MOL0     O 9211   1.943   8.598  -0.716  0.4376  0.0632 -0.3512
  828MOL0     C 9212   2.211   8.555  -0.644 -0.1868  0.3011 -0.9001
  828MOL0     C 9213   2.329   8.526  -0.581 -1.1326 -1.0883 -0.0138
  828MOL0     N 9214   2.821   8.110  -0.019 -0.3479 -0.1536  1.0175
  828MOL0     N 9215   2.822   8.101   0.105  0.9022 -0.0168 -0.1642
  828MOL0     C 9216   2.054   8.346   0.612  0.6228  0.1845 -0.4255
  828MOL0     C 9217   1.943   8.309   0.699  0.5089 -0.0460  0.5258
  828MOL0     C 9218   1.609   8.056   0.807 -0.1909 -0.1840  0.0195
  828MOL0     C 9219   1.527   7.953   0.757  0.4440  0.0580  0.2666
  828MOL0     C 9220   1.392   7.944   0.805  0.3173  0.4755 -0.8525
  828MOL0     C 9221   1.337   8.035   0.892  1.2712  0.3342  0.7231
  828MOL0     O 9222   1.198   8.018   0.921 -1.2882  0.6786 -0.7222
  828MOL0     C 9223   1.129   8.129   0.984 -0.5138 -0.6551 -0.4181
  828MOL0     C 9224   1.184   8.152   1.134  0.2385 -0.1867  0.1122
  828MOL0     C 9225   1.075   8.122   1.236  0.6882 -0.2780 -0.1355
  828MOL0     C 9226   1.143   8.110   1.380  0.2926 -0.0168 -0.5052
  828MOL0     C 9227   1.172   8.240   1.445  0.1105 -0.1135  1.1736
  828MOL0     C 9228   1.219   8.334   1.503 -0.5857 -0.6833 -0.7908
  828MOL0     C 9229   1.412   8.149   0.925 -0.3655  1.0831 -0.5799
  828MOL0     C 9230   1.550   8.152   0.882 -0.1005 -0.5891  0.3145
  828MOL0     H 9231   2.089   8.061   0.881 -0.2665  0.4600  1.5786
  828MOL0     H 9232   2.289   8.158   0.755  1.0341  1.0982  1.0776
  828MOL0     H 9233   2.450   8.220   0.607  2.8310  0.7553  1.3372
  828MOL0     H 9234   2.415   8.337   0.729 -0.1113 -0.7753  0.4125
  828MOL0     H 9235   2.459   8.544   0.572 -1.3237 -0.5311  0.9922
  828MOL0     H 9236   2.473   8.426   0.439 -1.4400 -1.9966  0.5410
  828MOL0     H 9237   2.647   8.324   0.546 -2.2692 -0.8938  1.0443
  828MOL0     H 9238   2.650   8.440   0.679  3.3982 -2.4961 -0.0117
  828MOL0     H 9239   2.693   8.510   0.387  2.9795 -0.1019 -0.2676
  828MOL0     H 9240   2.663   8.627   0.520  0.9540  0.4696 -0.1036
  828MOL0     H 9241   2.885   8.559   0.630  0.8091 -0.5302 -0.5293
  828MOL0     H 9242   2.897   8.606   0.476  2.9389 -0.7875  0.3849
  828MOL0     H 9243   2.877   8.317   0.568  2.9741  0.8095  1.6096
  828MOL0     H 9244   3.028   8.388   0.526  1.1684  0.3781 -0.9016
  828MOL0     H 9245   2.929   8.430   0.282 -1.5275 -0.4184 -1.4341
  828MOL0     H 9246   2.987   8.275   0.340 -0.1710  0.6113  1.8421
  828MOL0     H 9247   2.681   8.315   0.316  0.1678 -0.7660 -0.7946
  828MOL0     H 9248   2.759   8.181   0.350 -1.4424  0.2163  0.5991
  828MOL0     H 9249   2.790   8.430   0.056 -1.3722  0.3147  1.6299
  828MOL0     H 9250   2.853   8.236  -0.273 -0.2094  1.7182 -3.2932
  828MOL0     H 9251   2.896   8.383  -0.181  0.0863 -1.3693  0.5496
  828MOL0     H 9252   2.671   8.451  -0.184 -2.9603 -0.7995 -0.0038
  828MOL0     H 9253   2.603   8.301  -0.231 -1.1522 -0.2099  2.3077
  828MOL0     H 9254   2.791   8.468  -0.406  0.6354  0.0091 -0.8383
  828MOL0     H 9255   2.723   8.309  -0.448 -0.4353 -0.6465  1.4142
  828MOL0     H 9256   2.604   8.517  -0.550  2.3373 -5.4608 -1.7428
  828MOL0     H 9257   2.547   8.552  -0.382  0.5191  0.3185  0.7712
  828MOL0     H 9258   2.281   8.213  -0.455  0.8287  1.1880  3.1471
  828MOL0     H 9259   2.062   8.259  -0.547  2.4871 -1.9648  0.6650
  828MOL0     H 9260   1.691   8.217  -0.662 -3.9500 -2.2002 -1.8671
  828MOL0     H 9261   1.466   8.220  -0.672 -4.0034  1.4004  1.8519
  828MOL0     H 9262   1.294   8.252  -0.791  0.2866 -0.3070 -2.4413
  828MOL0     H 9263   1.304   8.381  -0.915  1.3658 -0.6922  0.4898
  828MOL0     H 9264   1.103   8.504  -0.809 -1.2172 -0.4682  0.6242
  828MOL0     H 9265   1.079   8.359  -0.711  0.7539  0.1626  1.2798
  828MOL0     H 9266   1.098   8.241  -0.950  2.5943  1.9564  0.3861
  828MOL0     H 9267   1.061   8.395  -1.004  2.3692 -0.2325  0.6064
  828MOL0     H 9268   0.886   8.216  -0.839  1.6314 -0.4925 -1.5032
  828MOL0     H 9269   0.848   8.380  -0.836 -0.7125  0.4363 -1.1623
  828MOL0     H 9270   0.852   8.186  -1.055  0.0751 -0.3895  3.0070
  828MOL0     H 9271   0.838   8.368  -1.081 -0.1825  1.0680  0.1155
  828MOL0     H 9272   0.644   8.374  -0.959  0.7267  1.5934 -2.4501
  828MOL0     H 9273   0.625   8.203  -0.927  0.4197 -0.9567 -1.0865
  828MOL0     H 9274   0.644   8.346  -1.196  4.2509 -1.4545  2.7166
  828MOL0     H 9275   0.632   8.160  -1.172  1.8499 -1.6629  4.5040
  828MOL0     H 9276   0.403   8.253  -1.251  1.3998 -3.3268  0.5466
  828MOL0     H 9277   0.431   8.384  -1.140  0.9433  0.2819  1.7066
  828MOL0     H 9278   1.477   8.652  -0.688 -4.7256 -1.8625  2.2651
  828MOL0     H 9279   1.724   8.642  -0.635 -1.4886  1.9659  1.9660
  828MOL0     H 9280   2.192   8.655  -0.683 -0.4337  0.4302 -0.4470
  828MOL0     H 9281   2.400   8.608  -0.585  1.6625 -3.2688  0.5794
  828MOL0     H 9282   2.030   8.416   0.532  1.4870  1.4125  0.3607
  828MOL0     H 9283   1.850   8.364   0.689 -0.9262 -2.6543 -1.6795
  828MOL0     H 9284   1.571   7.882   0.687 -1.0882  1.8483 -2.7184
  828MOL0     H 9285   1.343   7.851   0.780  1.5901 -0.5305  0.1963
  828MOL0     H 9286   1.022   8.113   0.973 -0.1964 -1.7072 -2.5190
  828MOL0     H 9287   1.158   8.217   0.926  1.3753 -0.3895  0.8276
  828MOL0     H 9288   1.279   8.100   1.149  2.0656  1.7184 -3.6069
  828MOL0     H 9289   1.198   8.259   1.148  0.6478 -0.3959  1.4065
  828MOL0     H 9290   1.020   8.031   1.213  0.7769 -1.2067  2.9201
  828MOL0     H 9291   1.009   8.209   1.237  0.9377 -0.0856 -0.1189
  828MOL0     H 9292   1.068   8.064   1.444  0.3585 -0.9703 -1.0936
  828MOL0     H 9293   1.233   8.047   1.383 -1.3118 -2.3900  0.7587
  828MOL0     H 9294   1.254   8.424   1.550 -0.3894 -0.4641 -1.3557
  828MOL0     H 9295   1.361   8.227   0.981 -1.1551  0.1418  0.0499
  828MOL0     H 9296   1.617   8.232   0.914  1.1599 -1.6085  0.3133
  829MOL0     O 9297   4.082   3.585   9.641  0.5756 -0.0288 -0.3705
  829MOL0     C 9298   4.178   3.534   9.698 -0.3943  0.2039  0.5094
  829MOL0     O 9299   4.187   3.507   9.830 -0.0424 -0.5915 -0.0510
  829MOL0     C 9300   4.077   3.550   9.898 -0.9782  0.0883 -0.2301
  829MOL0     C 9301   4.095   3.658   9.987 -0.1890 -0.7827 -0.2853
  829MOL0     C 9302   3.990   3.709  10.059  0.2393 -1.0603 -0.7185
  829MOL0     C 9303   3.869   3.650  10.061  0.6415  0.2514 -0.6209
  829MOL0     O 9304   3.774   3.725  10.129  0.0048  0.2743 -0.7259
  829MOL0     C 9305   3.645   3.674  10.148  0.4947  0.1994  0.1606
  829MOL0     C 9306   3.576   3.764  10.247 -0.1312  0.4441 -0.5522
  829MOL0     C 9307   3.428   3.759  10.229 -0.5980 -0.6117 -0.4305
  829MOL0     C 9308   3.346   3.628  10.220 -0.5094  0.6926  0.4772
  829MOL0     C 9309   3.200   3.643  10.271 -0.2373 -0.1797 -0.2389
  829MOL0     C 9310   3.110   3.751  10.201  1.1041 -0.9103 -0.4761
  829MOL0     C 9311   3.118   3.739  10.041 -0.8059 -0.2262 -0.9876
  829MOL0     C 9312   3.040   3.852   9.980 -0.5340  0.6999  0.0200
  829MOL0     N 9313   2.898   3.823   9.975  0.2660  0.9172 -0.3804
  829MOL0     C 9314   2.808   3.868  10.069 -0.0665 -0.4350  0.2090
  829MOL0     C 9315   2.685   3.838  10.027  0.5138 -0.8179 -0.6790
  829MOL0     C 9316   2.555   3.871  10.094  0.1760  0.3621 -0.5268
  829MOL0     C 9317   2.435   3.794  10.037  1.2771  0.1330 -0.3549
  829MOL0     C 9318   2.310   3.807  10.130  0.3464  0.3808  0.0198
  829MOL0     C 9319   2.231   3.939  10.115  0.2328 -0.1585  0.1678
  829MOL0     O 9320   2.216   3.989   9.978  0.7503  0.0260 -0.1249
  829MOL0     C 9321   2.108   3.942   9.900 -0.4039  0.8699  0.1241
  829MOL0     C 9322   2.132   3.957   9.764  0.0735  0.7220 -0.5417
  829MOL0     C 9323   2.036   3.920   9.677 -0.4518  0.7038 -0.4658
  829MOL0     C 9324   1.912   3.867   9.713  0.4146  0.5449 -0.1181
  829MOL0     C 9325   1.814   3.825   9.619  0.7046 -0.3151  0.7835
  829MOL0     O 9326   1.847   3.813   9.489  0.3269 -0.1735  0.1815
  829MOL0     C 9327   1.747   3.788   9.394  0.7433  0.3009 -1.2041
  829MOL0     C 9328   1.706   3.889   9.307 -0.2199  0.0648 -0.7311
  829MOL0     C 9329   1.599   3.864   9.218  0.7412 -0.6097 -0.6557
  829MOL0     C 9330   1.529   3.742   9.224  0.1742  0.0575 -0.9026
  829MOL0     O 9331   1.410   3.720   9.150 -0.4193  0.1655  0.0880
  829MOL0     C 9332   1.295   3.696   9.226 -0.1567 -0.0323 -0.2209
  829MOL0     C 9333   1.180   3.644   9.131  0.7128 -0.3526 -0.0461
  829MOL0     C 9334   1.109   3.529   9.193 -0.5624  0.2349  0.0058
  829MOL0     C 9335   1.178   3.390   9.187  0.7188  1.0525 -0.0262
  829MOL0     C 9336   1.141   3.296   9.296  1.0933 -0.2183  0.4478
  829MOL0     C 9337   0.993   3.262   9.301 -0.2230  0.2743  0.3821
  829MOL0     C 9338   0.947   3.152   9.401  0.3273  0.4589 -0.5553
  829MOL0     C 9339   0.975   3.176   9.555 -0.3584 -0.6192  0.0891
  829MOL0    Cl 9340   0.847   3.286   9.611  0.4138 -0.0729 -0.1109
  829MOL0     C 9341   1.567   3.644   9.312 -1.3543 -0.2368 -1.0938
  829MOL0     C 9342   1.674   3.666   9.396  0.2971  0.3337  0.8798
  829MOL0     O 9343   1.701   3.794   9.665  0.0635  0.3385  0.2935
  829MOL0     C 9344   1.896   3.831   9.849 -0.9802 -0.0038 -0.6993
  829MOL0     C 9345   2.000   3.871   9.939 -0.2850 -0.7693 -0.5925
  829MOL0     N 9346   2.704   3.768   9.904  0.9592  0.3729 -0.7646
  829MOL0     N 9347   2.824   3.758   9.882 -0.6226 -0.2480  0.3198
  829MOL0     C 9348   3.845   3.539   9.977 -0.4166  0.0849  0.2367
  829MOL0     C 9349   3.956   3.483   9.900  0.4072 -0.8159  0.2708
  829MOL0     C 9350   4.285   3.493   9.608  0.4794  0.2817  0.9093
  829MOL0     C 9351   4.404   3.457   9.660 -0.6519  0.3341 -0.8857
  829MOL0     C 9352   4.512   3.428   9.568 -0.5854  0.4046  0.0500
  829MOL0     C 9353   4.507   3.411   9.429 -0.1160  0.3605 -0.0675
  829MOL0     O 9354   4.612   3.357   9.354  0.3314 -0.1811 -0.3456
  829MOL0     C 9355   4.735   3.428   9.324  0.1223  0.5984  0.4367
  829MOL0     C 9356   4.828   3.433   9.438  0.6462  0.5543 -0.5037
  829MOL0     C 9357   4.976   3.432   9.411  0.5056  0.4235 -0.6088
  829MOL0     C 9358   5.052   3.571   9.379  0.1469 -0.3897  0.2599
  829MOL0     C 9359   4.974   3.668   9.303 -0.0880  0.4385  0.5893
  829MOL0     C 9360   4.900   3.736   9.241  0.8842  0.9499  0.0056
  829MOL0     C 9361   4.383   3.447   9.381  0.2636  0.4495 -0.3192
  829MOL0     C 9362   4.280   3.496   9.465 -0.5485  0.1798 -0.2400
  829MOL0     H 9363   4.192   3.706   9.995 -0.0244 -1.2330  0.5473
  829MOL0     H 9364   3.995   3.803  10.113  2.8518 -0.6826 -1.4472
  829MOL0     H 9365   3.655   3.571  10.183 -0.2167  0.1887  0.3571
  829MOL0     H 9366   3.588   3.673  10.054 -1.3581 -0.4379  1.2431
  829MOL0     H 9367   3.596   3.870  10.231 -5.4651  1.6579 -1.1681
  829MOL0     H 9368   3.607   3.734  10.347  1.2337  1.2765 -0.6965
  829MOL0     H 9369   3.408   3.816  10.138  4.1383 -1.8788 -2.5909
  829MOL0     H 9370   3.391   3.814  10.316 -0.9297  2.2469 -2.2446
  829MOL0     H 9371   3.361   3.602  10.114 -1.1332  0.0919  0.5322
  829MOL0     H 9372   3.394   3.551  10.281  0.4907  1.2979  0.4757
  829MOL0     H 9373   3.210   3.673  10.375 -0.7186  2.1721 -0.8241
  829MOL0     H 9374   3.149   3.546  10.269  0.3174 -0.4775 -1.2922
  829MOL0     H 9375   3.140   3.852  10.228  1.8474 -0.6739 -2.0569
  829MOL0     H 9376   3.006   3.724  10.225  1.2045 -1.2275 -0.3896
  829MOL0     H 9377   3.222   3.748  10.007  0.3908 -2.5462  1.6736
  829MOL0     H 9378   3.092   3.635  10.021  6.9669 -3.3064  1.1483
  829MOL0     H 9379   3.071   3.856   9.875 -2.6914 -1.0789 -0.7683
  829MOL0     H 9380   3.061   3.953  10.015 -1.0551  1.3995 -1.6194
  829MOL0     H 9381   2.838   3.926  10.156  2.5903  1.2311 -1.6748
  829MOL0     H 9382   2.529   3.976  10.076 -0.2272 -0.0131 -2.4097
  829MOL0     H 9383   2.574   3.846  10.199  0.6936 -2.3817 -1.1994
  829MOL0     H 9384   2.460   3.688  10.029  5.0934  0.9066 -0.1534
  829MOL0     H 9385   2.412   3.842   9.941  2.1999 -1.4508 -1.4080
  829MOL0     H 9386   2.243   3.721  10.129 -0.7041  1.1058  2.4266
  829MOL0     H 9387   2.347   3.799  10.232 -2.3289  0.0965  1.0424
  829MOL0     H 9388   2.290   4.017  10.163 -3.3235  1.7914  1.7822
  829MOL0     H 9389   2.138   3.942  10.173 -1.1713  1.3911 -1.9857
  829MOL0     H 9390   2.223   4.011   9.740 -1.0773  2.7549 -0.6194
  829MOL0     H 9391   2.063   3.929   9.573  0.9947 -1.2581 -0.3261
  829MOL0     H 9392   1.750   3.988   9.306 -0.8796  0.3764  0.0130
  829MOL0     H 9393   1.563   3.937   9.147  1.2683  1.4392  1.0975
  829MOL0     H 9394   1.258   3.793   9.259 -3.6591 -0.6861 -1.8072
  829MOL0     H 9395   1.305   3.623   9.307 -3.7851 -1.1377 -0.6135
  829MOL0     H 9396   1.206   3.624   9.027 -0.9145 -0.3165 -0.4860
  829MOL0     H 9397   1.110   3.727   9.114  1.5736  0.7758  1.5804
  829MOL0     H 9398   1.016   3.516   9.137 -0.7293 -0.5248  0.4444
  829MOL0     H 9399   1.079   3.553   9.296  0.9120 -1.9026  1.0284
  829MOL0     H 9400   1.164   3.348   9.087 -2.9058  0.9209  0.3972
  829MOL0     H 9401   1.285   3.406   9.202  0.2914  2.2473  2.1681
  829MOL0     H 9402   1.181   3.322   9.394 -0.6544  0.0199  1.1380
  829MOL0     H 9403   1.180   3.196   9.273 -0.5693 -0.6141 -0.9614
  829MOL0     H 9404   0.964   3.226   9.202 -4.0038 -1.4145  1.9052
  829MOL0     H 9405   0.935   3.350   9.331 -0.7944 -0.9267  3.0858
  829MOL0     H 9406   0.841   3.128   9.388 -0.1757  1.3966  1.3611
  829MOL0     H 9407   1.001   3.061   9.375  2.1854  0.6229  2.3052
  829MOL0     H 9408   1.069   3.232   9.566 -0.0819 -0.7630 -1.3631
  829MOL0     H 9409   0.973   3.090   9.623  4.1555 -1.0713 -0.0348
  829MOL0     H 9410   1.525   3.544   9.318 -1.7208 -0.0565 -0.6363
  829MOL0     H 9411   1.691   3.585   9.467  1.0908  0.1917  0.5441
  829MOL0     H 9412   1.809   3.774   9.881 -0.2816 -1.5004 -1.3719
  829MOL0     H 9413   1.986   3.842  10.043  0.0471 -1.0923 -0.6330
  829MOL0     H 9414   3.749   3.489   9.979 -0.3390 -0.0257  1.7320
  829MOL0     H 9415   3.946   3.396   9.836 -0.1062 -0.6061  0.0581
  829MOL0     H 9416   4.418   3.438   9.766 -2.2651  1.6985 -0.3841
  829MOL0     H 9417   4.604   3.408   9.620 -2.6567 -1.1683  3.4791
  829MOL0     H 9418   4.713   3.530   9.292 -3.4681 -0.5821 -1.4776
  829MOL0     H 9419   4.771   3.371   9.237 -1.6174 -1.7960  1.1885
  829MOL0     H 9420   4.817   3.533   9.482 -2.4178  1.5922 -3.2241
  829MOL0     H 9421   4.802   3.350   9.505  2.8034  0.4907  0.3078
  829MOL0     H 9422   4.991   3.373   9.320  0.2756 -0.1572 -0.2740
  829MOL0     H 9423   5.023   3.392   9.501 -0.1795  0.4348 -0.2427
  829MOL0     H 9424   5.070   3.623   9.474  0.1077 -1.0638  0.6445
  829MOL0     H 9425   5.146   3.555   9.325  0.0097  1.2910 -0.5547
  829MOL0     H 9426   4.808   3.772   9.200 -1.3370 -1.6898  2.2207
  829MOL0     H 9427   4.367   3.430   9.275 -1.4905 -1.3215  0.1739
  829MOL0     H 9428   4.194   3.529   9.408  0.6572  1.2347 -1.5240
  830MOL0     O 9429   5.360   2.963   0.161  0.2065  0.3852 -0.0291
  830MOL0     C 9430   5.396   3.039   0.251 -1.2843 -0.1832 -0.8420
  830MOL0     O 9431   5.348   3.048   0.376  0.2412  0.5259 -0.3824
  830MOL0     C 9432   5.234   2.981   0.402 -0.0086  0.0648  0.5542
  830MOL0     C 9433   5.221   2.841   0.399  0.4955 -0.3606  0.3611
  830MOL0     C 9434   5.100   2.779   0.420 -0.3772 -0.6633  0.1075
  830MOL0     C 9435   4.984   2.856   0.453  0.0519 -0.0072  0.5947
  830MOL0     O 9436   4.872   2.788   0.489  0.3705  0.4765 -0.6752
  830MOL0     C 9437   4.747   2.847   0.514 -0.4599  0.2651 -0.7570
  830MOL0     C 9438   4.654   2.725   0.524 -0.3968 -0.3553 -0.1367
  830MOL0     C 9439   4.506   2.764   0.514  0.3208 -0.4557  0.4276
  830MOL0     C 9440   4.468   2.856   0.642  0.0229 -0.3331 -0.0807
  830MOL0     C 9441   4.316   2.842   0.658  0.0504 -0.5173 -0.8489
  830MOL0     C 9442   4.234   2.889   0.525  0.9746  0.4817 -0.5883
  830MOL0     C 9443   4.076   2.913   0.552 -0.9125 -0.4123  0.9404
  830MOL0     C 9444   3.989   2.977   0.437 -0.9553  0.5910 -1.0324
  830MOL0     N 9445   4.002   2.899   0.313 -0.4772  0.1339  0.4982
  830MOL0     C 9446   3.942   2.782   0.278  0.4341 -0.0845 -0.0465
  830MOL0     C 9447   3.951   2.777   0.142 -0.3187  0.3144  0.1073
  830MOL0     C 9448   3.898   2.668   0.043  0.2921  1.1197 -0.3973
  830MOL0     C 9449   3.979   2.679  -0.085  0.1170 -0.1994  0.0845
  830MOL0     C 9450   3.948   2.561  -0.195 -0.3561  0.6885  0.2568
  830MOL0     C 9451   3.797   2.548  -0.220 -1.0346  0.3693 -0.0294
  830MOL0     O 9452   3.749   2.680  -0.266  0.4148  0.9334 -0.6715
  830MOL0     C 9453   3.609   2.683  -0.240  0.4133 -0.0293  0.3170
  830MOL0     C 9454   3.543   2.640  -0.129 -0.2374  0.5042  0.2253
  830MOL0     C 9455   3.405   2.639  -0.130  0.5733  0.6822 -0.4544
  830MOL0     C 9456   3.331   2.703  -0.233  0.3504  0.3541  0.1566
  830MOL0     C 9457   3.183   2.686  -0.238 -0.8784 -0.1934  0.1464
  830MOL0     O 9458   3.121   2.734  -0.347  0.1321  0.3542 -0.7774
  830MOL0     C 9459   2.996   2.700  -0.377 -0.5580  0.6117  0.6133
  830MOL0     C 9460   2.937   2.577  -0.362 -0.3878 -0.1853  0.5215
  830MOL0     C 9461   2.798   2.550  -0.397  0.0623 -0.6994 -0.0222
  830MOL0     C 9462   2.727   2.659  -0.456 -0.1988  0.5847  0.5282
  830MOL0     O 9463   2.589   2.647  -0.475 -0.0361  0.5251 -0.0288
  830MOL0     C 9464   2.522   2.747  -0.559 -0.4985 -0.7579 -0.7877
  830MOL0     C 9465   2.382   2.711  -0.621  0.6426  0.0168 -0.7633
  830MOL0     C 9466   2.385   2.588  -0.701  0.3563  0.0068 -0.4772
  830MOL0     C 9467   2.261   2.575  -0.784 -0.3238 -0.1363  0.1646
  830MOL0     C 9468   2.327   2.551  -0.928 -0.5546  0.2176 -0.5204
  830MOL0     C 9469   2.225   2.556  -1.030  0.3725 -0.2292  0.2957
  830MOL0     C 9470   2.169   2.404  -1.039  0.3379 -0.8807  0.4660
  830MOL0     C 9471   2.068   2.398  -1.157 -0.5040 -0.1204  0.7528
  830MOL0    Cl 9472   1.969   2.563  -1.185  0.0275  0.2685 -0.0462
  830MOL0     C 9473   2.799   2.780  -0.498  0.0051 -0.3477  0.3797
  830MOL0     C 9474   2.924   2.792  -0.447 -0.3613  0.0851 -0.2012
  830MOL0     O 9475   3.134   2.613  -0.152 -0.4996 -0.2669  0.0933
  830MOL0     C 9476   3.403   2.760  -0.337  0.4561 -0.5239  0.4364
  830MOL0     C 9477   3.540   2.738  -0.349  0.6510 -0.5106 -1.0421
  830MOL0     N 9478   4.023   2.890   0.094  0.4010  0.6038 -0.0464
  830MOL0     N 9479   4.063   2.951   0.200 -0.3068 -0.0023  0.0297
  830MOL0     C 9480   4.999   2.993   0.466  0.0925  0.3311 -0.0625
  830MOL0     C 9481   5.121   3.053   0.439  0.0682  0.5089  0.5433
  830MOL0     C 9482   5.496   3.147   0.224 -0.4118  0.8118 -0.0698
  830MOL0     C 9483   5.593   3.133   0.117  0.5362  0.6428 -0.3904
  830MOL0     C 9484   5.695   3.228   0.105 -0.8167  0.1107  0.2672
  830MOL0     C 9485   5.701   3.338   0.190  0.4849 -0.0406 -0.2892
  830MOL0     O 9486   5.801   3.430   0.174  0.4995  0.0865 -0.0423
  830MOL0     C 9487   5.816   3.548   0.248  0.1839 -0.4287 -1.2718
  830MOL0     C 9488   5.873   3.663   0.182  0.2048  0.1083  0.4948
  830MOL0     C 9489   5.811   3.698   0.041 -0.8776  1.0566 -0.1349
  830MOL0     C 9490   5.873   3.609  -0.077  0.0975 -0.0122 -0.0127
  830MOL0     C 9491   5.953   3.687  -0.161  0.7143  0.5963  0.0943
  830MOL0     C 9492   6.002   3.752  -0.243 -0.4745  0.8026  0.0981
  830MOL0     C 9493   5.611   3.341   0.299 -0.1662  0.8114 -0.5425
  830MOL0     C 9494   5.503   3.260   0.309  0.0389 -0.0917 -0.1632
  830MOL0     H 9495   5.310   2.780   0.388  1.8038  1.4376  0.4827
  830MOL0     H 9496   5.093   2.672   0.429  5.6898 -1.4531 -0.3443
  830MOL0     H 9497   4.716   2.909   0.429  0.0571 -1.0593 -1.9505
  830MOL0     H 9498   4.735   2.900   0.610  1.5003 -0.7395  0.0844
  830MOL0     H 9499   4.675   2.678   0.620 -2.0464 -0.2446  0.2991
  830MOL0     H 9500   4.675   2.663   0.436  4.8946  2.9780 -1.7207
  830MOL0     H 9501   4.443   2.674   0.519  1.3350 -1.1207  2.2896
  830MOL0     H 9502   4.488   2.819   0.421 -1.8749  0.8627  1.5561
  830MOL0     H 9503   4.511   2.821   0.736 -1.1520 -1.3346  0.1110
  830MOL0     H 9504   4.500   2.960   0.628  2.3087 -0.9064  0.5901
  830MOL0     H 9505   4.272   2.898   0.741 -2.8638  1.7435 -3.6250
  830MOL0     H 9506   4.298   2.735   0.673  1.4755 -0.5820  0.6599
  830MOL0     H 9507   4.258   2.829   0.436  1.8663  0.9331 -0.6635
  830MOL0     H 9508   4.270   2.989   0.501 -3.0270  1.8917 -1.5607
  830MOL0     H 9509   4.028   2.816   0.571 -0.7340 -0.9152 -0.9898
  830MOL0     H 9510   4.058   2.988   0.630 -4.0919  0.8165 -0.7771
  830MOL0     H 9511   4.029   3.077   0.419 -0.9449  0.7882  0.0262
  830MOL0     H 9512   3.887   2.977   0.477  0.6631 -2.1188  4.0494
  830MOL0     H 9513   3.887   2.721   0.349  1.3000 -1.8946 -0.8677
  830MOL0     H 9514   3.791   2.683   0.027  0.1285 -0.4955 -0.9965
  830MOL0     H 9515   3.923   2.568   0.078  0.4477  0.8342 -1.2995
  830MOL0     H 9516   4.085   2.686  -0.057  0.2894  2.0663 -0.8957
  830MOL0     H 9517   3.949   2.771  -0.136  0.6317 -0.1296 -0.0973
  830MOL0     H 9518   4.004   2.590  -0.284 -0.2501 -2.1800 -0.7047
  830MOL0     H 9519   3.987   2.462  -0.168 -0.7569  0.3128 -0.5138
  830MOL0     H 9520   3.756   2.508  -0.127 -4.7519  0.4637 -1.4734
  830MOL0     H 9521   3.769   2.477  -0.298 -0.6711  0.0233  0.1473
  830MOL0     H 9522   3.584   2.592  -0.040  0.3694 -2.7222 -1.6349
  830MOL0     H 9523   3.349   2.579  -0.058  0.6138  1.2678  0.0705
  830MOL0     H 9524   3.004   2.497  -0.332 -0.3362 -0.7145 -0.9129
  830MOL0     H 9525   2.748   2.454  -0.387  1.0926 -1.0901  1.8525
  830MOL0     H 9526   2.574   2.769  -0.653 -1.9808  1.4787 -1.1796
  830MOL0     H 9527   2.512   2.845  -0.511 -0.3441 -2.3651  2.8616
  830MOL0     H 9528   2.376   2.794  -0.692 -3.0202  0.6768  0.1030
  830MOL0     H 9529   2.303   2.726  -0.547  3.0065 -0.2229  1.9823
  830MOL0     H 9530   2.395   2.504  -0.632 -0.5853 -0.7940 -1.2948
  830MOL0     H 9531   2.479   2.589  -0.758 -0.2802  0.5307 -1.5598
  830MOL0     H 9532   2.211   2.485  -0.747  1.1753 -1.0361  0.0798
  830MOL0     H 9533   2.190   2.657  -0.774 -0.2143  0.0830 -0.7055
  830MOL0     H 9534   2.383   2.458  -0.939  2.1668  1.9609 -2.7132
  830MOL0     H 9535   2.398   2.632  -0.946 -0.9327  0.6867  0.0344
  830MOL0     H 9536   2.265   2.580  -1.129 -1.3709  3.7459  0.3641
  830MOL0     H 9537   2.150   2.630  -0.998 -0.4401 -1.4021  1.2064
  830MOL0     H 9538   2.237   2.326  -1.075 -2.5495 -1.8151 -3.7102
  830MOL0     H 9539   2.134   2.366  -0.943 -2.4075  2.2887  0.8911
  830MOL0     H 9540   1.998   2.314  -1.160 -1.3367  0.5317  1.3375
  830MOL0     H 9541   2.138   2.392  -1.241 -0.2223 -2.2661  1.0869
  830MOL0     H 9542   2.753   2.857  -0.559  1.6199  0.3392 -0.0261
  830MOL0     H 9543   2.986   2.874  -0.482 -0.5946  0.7203  0.8399
  830MOL0     H 9544   3.349   2.806  -0.420  0.5260  2.7370  2.0312
  830MOL0     H 9545   3.598   2.772  -0.434  1.9148  0.3478  0.1164
  830MOL0     H 9546   4.918   3.054   0.505  2.0647  0.8157  3.7945
  830MOL0     H 9547   5.129   3.162   0.432 -1.1271  0.6653  1.3731
  830MOL0     H 9548   5.576   3.056   0.042  0.8082  1.0254 -0.8515
  830MOL0     H 9549   5.754   3.224   0.013  3.3247 -1.0095  2.6833
  830MOL0     H 9550   5.892   3.515   0.319 -2.2888 -2.9145  0.4426
  830MOL0     H 9551   5.730   3.568   0.312  1.2035 -0.4667  0.1506
  830MOL0     H 9552   5.865   3.753   0.244  2.8781  1.4526 -0.8946
  830MOL0     H 9553   5.978   3.647   0.156  0.5462  2.5742  0.0758
  830MOL0     H 9554   5.816   3.806   0.023 -0.8504  0.5635 -3.8819
  830MOL0     H 9555   5.706   3.668   0.042 -0.4655 -0.9165 -3.0822
  830MOL0     H 9556   5.943   3.533  -0.041 -1.2424 -1.3352 -0.0735
  830MOL0     H 9557   5.794   3.554  -0.130  0.1521  1.2451 -1.4850
  830MOL0     H 9558   6.047   3.819  -0.313 -1.5485 -1.4837 -2.9743
  830MOL0     H 9559   5.608   3.426   0.366 -2.4111  0.4698 -0.1287
  830MOL0     H 9560   5.433   3.273   0.391 -1.6970 -3.1308 -1.0198
  831MOL0     O 9561   8.768   8.348   1.661 -0.5347  0.5596  0.3384
  831MOL0     C 9562   8.645   8.366   1.667  0.8038  0.1375 -0.3912
  831MOL0     O 9563   8.582   8.484   1.629  0.8911 -0.0533 -0.2060
  831MOL0     C 9564   8.639   8.592   1.577  0.6908 -0.3813 -0.9217
  831MOL0     C 9565   8.753   8.591   1.496  0.0015 -0.2841 -0.3219
  831MOL0     C 9566   8.804   8.708   1.445 -0.1449  0.4272  0.1042
  831MOL0     C 9567   8.752   8.827   1.489 -0.2207  0.3527  0.2987
  831MOL0     O 9568   8.809   8.945   1.451 -0.2223  0.4372  0.4499
  831MOL0     C 9569   8.927   8.987   1.510 -0.3527  1.2367  0.3191
  831MOL0     C 9570   8.921   9.051   1.649  0.0823  0.4172  0.3586
  831MOL0     C 9571   8.863   9.192   1.629 -0.4877  0.4049 -0.1022
  831MOL0     C 9572   8.847   9.249   1.771  0.6386 -0.1351  0.5683
  831MOL0     C 9573   8.860   9.402   1.793  0.5790 -0.1914  1.1117
  831MOL0     C 9574   8.789   9.459   1.925 -0.3736  0.2605  0.4257
  831MOL0     C 9575   8.862   9.425   2.055  0.2237 -0.1817 -0.6419
  831MOL0     C 9576   9.006   9.479   2.070 -0.7679 -0.6814 -0.3887
  831MOL0     N 9577   9.037   9.634   2.062 -0.2137  0.6138 -0.2795
  831MOL0     C 9578   8.996   9.735   1.982  0.2029  0.3469  0.2835
  831MOL0     C 9579   9.039   9.845   2.040  0.4211 -0.8438  1.1732
  831MOL0     C 9580   9.043   9.980   1.974  0.8303 -0.3939  0.0285
  831MOL0     C 9581   8.943  10.083   2.015  0.7171 -0.5468 -0.6372
  831MOL0     C 9582   8.901  10.061   2.160 -0.5241  0.3221  0.0107
  831MOL0     C 9583   8.783  10.152   2.205 -0.3728 -0.1038 -0.5263
  831MOL0     O 9584   8.727  10.109   2.330  0.1826 -0.5288 -0.2370
  831MOL0     C 9585   8.629  10.195   2.379  0.5813  0.8905  0.0528
  831MOL0     C 9586   8.646  10.266   2.494  0.3248 -0.4295 -0.7992
  831MOL0     C 9587   8.546  10.354   2.538 -0.2060 -0.6466 -0.7331
  831MOL0     C 9588   8.438  10.386   2.452  0.2694  0.5611 -0.5305
  831MOL0     C 9589   8.359  10.512   2.489 -0.2998  0.8976  0.4304
  831MOL0     O 9590   8.238  10.522   2.416  0.2624  0.8657  0.3032
  831MOL0     C 9591   8.172  10.636   2.417 -0.1014  0.3913 -0.5205
  831MOL0     C 9592   8.219  10.760   2.379  0.8403 -0.1549  0.4020
  831MOL0     C 9593   8.143  10.877   2.362  0.0572 -0.5751  0.8518
  831MOL0     C 9594   8.009  10.871   2.396 -1.2629 -0.2607  0.7082
  831MOL0     O 9595   7.948  10.997   2.391  0.2272  0.4173  0.0756
  831MOL0     C 9596   7.817  11.009   2.451  0.2229  1.0140  0.3191
  831MOL0     C 9597   7.796  11.001   2.597  0.5517 -0.0211 -0.9688
  831MOL0     C 9598   7.651  10.986   2.641  0.3405  0.2469  0.4833
  831MOL0     C 9599   7.558  11.102   2.597 -1.2209  0.6543 -0.4715
  831MOL0     C 9600   7.417  11.075   2.630  0.3694 -0.5021 -0.6896
  831MOL0     C 9601   7.383  10.959   2.722 -0.2354  0.4575 -0.5209
  831MOL0     C 9602   7.231  10.944   2.741 -0.0685  1.1029  0.0124
  831MOL0     C 9603   7.191  10.815   2.807  0.1069 -0.5006 -0.6711
  831MOL0    Cl 9604   7.250  10.788   2.971  0.0670 -0.1510  0.0008
  831MOL0     C 9605   7.955  10.741   2.433  0.7006  0.3089  0.0584
  831MOL0     C 9606   8.039  10.626   2.435 -0.3577 -0.1085 -0.2426
  831MOL0     O 9607   8.400  10.600   2.572 -0.0793 -0.3432  0.5722
  831MOL0     C 9608   8.411  10.306   2.338  0.4180  0.1442  0.6633
  831MOL0     C 9609   8.515  10.215   2.294 -0.3556 -0.0115  0.3550
  831MOL0     N 9610   9.103   9.816   2.164  0.4183  0.2461 -0.0379
  831MOL0     N 9611   9.106   9.683   2.169 -0.3947 -0.1639  0.0108
  831MOL0     C 9612   8.634   8.834   1.555 -0.7933 -0.1251  0.6291
  831MOL0     C 9613   8.575   8.714   1.598 -0.1117  0.4934  0.2107
  831MOL0     C 9614   8.560   8.257   1.726 -0.1417 -0.1529 -0.7326
  831MOL0     C 9615   8.413   8.251   1.713 -0.0458 -0.2359 -0.4414
  831MOL0     C 9616   8.346   8.148   1.781  0.5355  0.6440 -0.2440
  831MOL0     C 9617   8.405   8.040   1.842 -0.0736  0.1229  0.8331
  831MOL0     O 9618   8.338   7.945   1.905  0.0480  0.1051  0.3455
  831MOL0     C 9619   8.196   7.926   1.878  0.5040  0.5338  0.1360
  831MOL0     C 9620   8.154   7.791   1.938 -0.7718 -0.7813  0.5275
  831MOL0     C 9621   8.223   7.771   2.082  0.2847 -1.0440  0.0703
  831MOL0     C 9622   8.135   7.712   2.191 -0.1024 -0.0999  0.5362
  831MOL0     C 9623   8.060   7.593   2.126  0.0146 -0.4298  0.1379
  831MOL0     C 9624   7.985   7.513   2.080  0.3945 -0.2589  0.3984
  831MOL0     C 9625   8.537   8.031   1.836 -0.2080  0.1607  0.6796
  831MOL0     C 9626   8.615   8.138   1.785 -0.1355  0.0605  0.0680
  831MOL0     H 9627   8.807   8.499   1.477 -0.2633 -0.7826  1.2372
  831MOL0     H 9628   8.894   8.720   1.385 -0.9141  0.9276 -0.9781
  831MOL0     H 9629   8.990   9.048   1.443  1.1059 -1.1334 -0.5762
  831MOL0     H 9630   8.989   8.897   1.520 -0.5265  0.9955 -0.6246
  831MOL0     H 9631   9.020   9.045   1.694 -0.3298  0.0462  1.2642
  831MOL0     H 9632   8.859   8.984   1.710  0.0250 -2.1751 -2.3312
  831MOL0     H 9633   8.766   9.185   1.581  0.1258 -0.3868 -1.2510
  831MOL0     H 9634   8.934   9.250   1.569  2.0963 -1.7017  0.7379
  831MOL0     H 9635   8.749   9.223   1.812 -0.9280  1.8949 -1.6180
  831MOL0     H 9636   8.923   9.204   1.836 -0.1266  1.3256  2.5718
  831MOL0     H 9637   8.797   9.447   1.714 -2.6022 -0.8938  3.0624
  831MOL0     H 9638   8.961   9.440   1.776  0.4602 -0.1724  0.4071
  831MOL0     H 9639   8.690   9.413   1.919 -0.4198  0.5089 -1.4435
  831MOL0     H 9640   8.772   9.567   1.925  0.0290  0.3339  1.5897
  831MOL0     H 9641   8.802   9.475   2.132 -1.4399  1.6839 -2.9892
  831MOL0     H 9642   8.872   9.317   2.068 -1.7602 -0.6006 -2.1593
  831MOL0     H 9643   9.065   9.432   1.991 -0.8846  0.6207 -1.2886
  831MOL0     H 9644   9.045   9.435   2.162 -0.7857  0.2356  0.0692
  831MOL0     H 9645   8.949   9.720   1.886  1.2934 -0.5391 -0.1331
  831MOL0     H 9646   9.038   9.959   1.867  0.2265  0.6514 -0.1615
  831MOL0     H 9647   9.142  10.022   1.990 -0.8966  3.6744  1.5869
  831MOL0     H 9648   8.860  10.073   1.944  1.2181 -2.9974 -0.9822
  831MOL0     H 9649   8.996  10.179   2.010 -1.9137  1.0225 -0.0091
  831MOL0     H 9650   8.865   9.960   2.184  1.3732 -1.4083 -3.7330
  831MOL0     H 9651   8.981  10.088   2.230 -1.2009  1.5086  0.3607
  831MOL0     H 9652   8.696  10.144   2.139 -0.4149  0.6871 -0.5803
  831MOL0     H 9653   8.806  10.259   2.198  0.6617 -0.2793  0.0166
  831MOL0     H 9654   8.724  10.231   2.561 -1.5665 -0.1240  1.7274
  831MOL0     H 9655   8.538  10.395   2.638 -4.2523  1.8379 -1.8257
  831MOL0     H 9656   8.320  10.776   2.343 -1.0188  4.5058 -4.0554
  831MOL0     H 9657   8.206  10.950   2.312  4.2017 -4.6975 -0.7262
  831MOL0     H 9658   7.747  10.935   2.411  0.6101  1.5168 -1.3220
  831MOL0     H 9659   7.797  11.107   2.408  3.1127  0.4869 -2.5445
  831MOL0     H 9660   7.847  11.091   2.634  1.1716 -0.8013  0.1383
  831MOL0     H 9661   7.843  10.908   2.630 -0.9514 -0.8686 -1.1673
  831MOL0     H 9662   7.652  10.976   2.750  1.1006 -1.7287  0.3442
  831MOL0     H 9663   7.605  10.895   2.601 -4.2795  1.1111  3.0527
  831MOL0     H 9664   7.580  11.191   2.656 -0.7668 -1.0088  2.0163
  831MOL0     H 9665   7.580  11.107   2.490 -0.0822 -3.1821 -0.5807
  831MOL0     H 9666   7.359  11.054   2.540  1.6781 -2.0543 -1.2101
  831MOL0     H 9667   7.359  11.155   2.677 -0.8545 -0.9969 -1.3055
  831MOL0     H 9668   7.430  10.973   2.819  0.7536 -0.2910 -0.8799
  831MOL0     H 9669   7.421  10.865   2.682 -3.4193 -0.9066 -0.6628
  831MOL0     H 9670   7.200  11.034   2.794 -2.2859  0.8240 -0.6833
  831MOL0     H 9671   7.180  10.956   2.644  2.9513  2.0508 -1.5809
  831MOL0     H 9672   7.215  10.735   2.736 -1.0042  1.0433 -2.8955
  831MOL0     H 9673   7.083  10.804   2.815  0.1491 -0.3504  0.1903
  831MOL0     H 9674   7.849  10.728   2.452  0.3500 -2.4078 -2.9104
  831MOL0     H 9675   8.010  10.529   2.475  0.4952 -0.1252  0.3623
  831MOL0     H 9676   8.331  10.345   2.276  1.3200  0.9318 -0.0399
  831MOL0     H 9677   8.508  10.169   2.196 -0.2586  1.9888 -0.6274
  831MOL0     H 9678   8.601   8.933   1.582  1.7109  0.6759  0.9882
  831MOL0     H 9679   8.485   8.706   1.658  1.3918 -0.9966  2.4391
  831MOL0     H 9680   8.361   8.331   1.660  0.5402  0.5731  0.1754
  831MOL0     H 9681   8.240   8.165   1.768  1.1468  2.6617 -3.8560
  831MOL0     H 9682   8.190   7.928   1.769  0.6539  2.1630  0.1354
  831MOL0     H 9683   8.134   8.012   1.904  1.1002  1.0606 -0.1446
  831MOL0     H 9684   8.045   7.792   1.945 -0.8062 -0.8453  0.0406
  831MOL0     H 9685   8.189   7.712   1.870 -0.3485 -1.4690  1.5057
  831MOL0     H 9686   8.248   7.864   2.134 -2.5361 -1.8491  3.2815
  831MOL0     H 9687   8.314   7.720   2.052  0.3701  0.3074 -2.2003
  831MOL0     H 9688   8.207   7.678   2.266 -1.2911 -1.0275  1.2896
  831MOL0     H 9689   8.053   7.776   2.224 -2.1420 -0.8236 -2.6754
  831MOL0     H 9690   7.926   7.435   2.036 -1.7516  1.1711  0.5797
  831MOL0     H 9691   8.585   7.956   1.899 -3.0466 -1.4073  1.1456
  831MOL0     H 9692   8.721   8.123   1.806 -0.0578 -0.5615 -0.7104
  832MOL0     O 9693   9.680   9.848   0.612  0.0420 -0.1461  0.6972
  832MOL0     C 9694   9.727   9.861   0.727 -1.3007 -0.0221  0.2365
  832MOL0     O 9695   9.844   9.937   0.772 -0.0671 -0.2568  0.7817
  832MOL0     C 9696   9.925   9.998   0.674 -0.4350 -0.8524 -0.2028
  832MOL0     C 9697  10.033  10.070   0.729  0.5999  0.1326 -1.1983
  832MOL0     C 9698  10.114  10.156   0.652 -0.7466  0.3625  0.3573
  832MOL0     C 9699  10.098  10.157   0.517  0.0918 -0.0844  0.2108
  832MOL0     O 9700  10.192  10.220   0.434 -0.0536 -1.2726 -0.6649
  832MOL0     C 9701  10.329  10.176   0.458  0.5845 -0.2794 -0.1075
  832MOL0     C 9702  10.416  10.270   0.386 -0.3795 -0.3443  0.3211
  832MOL0     C 9703  10.554  10.214   0.379  0.2018  0.9843 -0.1719
  832MOL0     C 9704  10.639  10.299   0.290 -0.3373 -0.2223 -0.1651
  832MOL0     C 9705  10.653  10.452   0.322 -0.0029 -0.2965 -0.1980
  832MOL0     C 9706  10.696  10.469   0.472  0.0364 -0.0803 -0.1473
  832MOL0     C 9707  10.695  10.612   0.504 -0.4544  0.4518  0.0945
  832MOL0     C 9708  10.754  10.649   0.638  0.2068  0.2096 -0.6114
  832MOL0     N 9709  10.894  10.669   0.647  0.1623 -0.5310  0.0195
  832MOL0     C 9710  10.989  10.576   0.661 -0.4411 -0.0677 -0.3045
  832MOL0     C 9711  11.106  10.643   0.663 -0.3760 -0.4166 -0.6239
  832MOL0     C 9712  11.249  10.587   0.647 -0.0291  1.2228 -0.5417
  832MOL0     C 9713  11.285  10.565   0.494  0.2647  1.1270 -0.4660
  832MOL0     C 9714  11.322  10.700   0.427  1.2424  0.9433 -0.4056
  832MOL0     C 9715  11.353  10.677   0.284  0.2970 -0.3277  0.0036
  832MOL0     O 9716  11.479  10.605   0.285  0.3645 -0.0681  0.2355
  832MOL0     C 9717  11.539  10.580   0.164 -0.3156  0.0787  0.1405
  832MOL0     C 9718  11.470  10.547   0.048 -0.0431  0.0856  0.2728
  832MOL0     C 9719  11.541  10.506  -0.061 -0.3752 -0.5102  0.0994
  832MOL0     C 9720  11.682  10.503  -0.074  0.6711  0.0149  0.5553
  832MOL0     C 9721  11.752  10.473  -0.202 -0.7440 -0.0326 -0.4980
  832MOL0     O 9722  11.885  10.495  -0.205  0.6107 -0.4095  0.1800
  832MOL0     C 9723  11.958  10.483  -0.325  0.3650 -0.5873  0.6028
  832MOL0     C 9724  11.931  10.386  -0.430  0.1886 -0.1206  0.1217
  832MOL0     C 9725  12.008  10.382  -0.544  0.2317 -0.9834  1.1200
  832MOL0     C 9726  12.117  10.470  -0.558  0.2026 -0.2674 -0.2480
  832MOL0     O 9727  12.207  10.473  -0.659  0.6064 -0.8392  0.3567
  832MOL0     C 9728  12.186  10.399  -0.777 -0.0320  0.7595  0.1268
  832MOL0     C 9729  12.312  10.385  -0.852  0.4773  0.2088  0.0101
  832MOL0     C 9730  12.280  10.313  -0.990  0.3322  0.1646  0.0505
  832MOL0     C 9731  12.404  10.245  -1.058 -0.1211  0.0177 -0.0020
  832MOL0     C 9732  12.384  10.109  -1.116  0.2707  0.3380  0.8622
  832MOL0     C 9733  12.271  10.129  -1.219 -0.9912  0.4120 -0.7906
  832MOL0     C 9734  12.277   9.992  -1.312  1.1799 -0.0292  1.1735
  832MOL0     C 9735  12.183  10.005  -1.426  0.4485  0.1380 -0.0296
  832MOL0    Cl 9736  12.151   9.840  -1.499 -0.2089 -0.2736  0.0254
  832MOL0     C 9737  12.150  10.560  -0.446  0.2708  0.6882  0.6012
  832MOL0     C 9738  12.075  10.567  -0.331 -0.1232 -0.0732  0.9338
  832MOL0     O 9739  11.677  10.434  -0.294  0.1626  0.0030 -0.1339
  832MOL0     C 9740  11.755  10.532   0.049 -0.0285  0.2759  1.0299
  832MOL0     C 9741  11.682  10.558   0.164 -0.3103 -1.0306  0.2477
  832MOL0     N 9742  11.078  10.772   0.657 -0.1934 -0.1080  0.6439
  832MOL0     N 9743  10.956  10.795   0.641 -0.1236  0.1867  0.1881
  832MOL0     C 9744   9.995  10.093   0.458  0.6954  0.2087  0.5010
  832MOL0     C 9745   9.907  10.008   0.532 -0.3521  0.2630 -0.3399
  832MOL0     C 9746   9.661   9.790   0.842  0.5636 -0.7782 -0.2170
  832MOL0     C 9747   9.674   9.845   0.971 -0.9886 -0.4870  0.3996
  832MOL0     C 9748   9.613   9.781   1.079  1.0381 -0.2676 -0.3613
  832MOL0     C 9749   9.529   9.673   1.058 -0.0458  0.3134  1.3297
  832MOL0     O 9750   9.487   9.618   1.175 -0.0101 -0.2525  0.1749
  832MOL0     C 9751   9.441   9.490   1.186  0.3299  0.4138 -0.5490
  832MOL0     C 9752   9.409   9.447   1.328  0.6897  0.6940  0.0859
  832MOL0     C 9753   9.292   9.530   1.391  1.3855 -0.2854 -0.1587
  832MOL0     C 9754   9.249   9.484   1.532  0.1084  0.4029  0.7758
  832MOL0     C 9755   9.162   9.588   1.593  0.3879  0.3950  0.2879
  832MOL0     C 9756   9.096   9.678   1.651 -0.1024  0.9424  0.3867
  832MOL0     C 9757   9.496   9.632   0.931 -0.6580 -0.6930  0.3275
  832MOL0     C 9758   9.560   9.691   0.824 -0.2092 -0.1171  0.3131
  832MOL0     H 9759  10.048  10.077   0.836  1.3051  0.9546 -1.3315
  832MOL0     H 9760  10.189  10.217   0.702 -0.6265  1.2055 -0.8142
  832MOL0     H 9761  10.335  10.081   0.404 -2.8607 -0.5665 -0.2222
  832MOL0     H 9762  10.364  10.164   0.561  0.8568 -2.3806 -0.4134
  832MOL0     H 9763  10.418  10.368   0.435 -2.6857 -0.1730  0.1943
  832MOL0     H 9764  10.375  10.292   0.288  1.6156  1.2185 -0.2247
  832MOL0     H 9765  10.545  10.115   0.335 -0.6923  0.3193  1.4527
  832MOL0     H 9766  10.587  10.214   0.483  0.7658 -1.3545 -0.2952
  832MOL0     H 9767  10.742  10.263   0.295 -0.9691 -1.8860  2.6310
  832MOL0     H 9768  10.607  10.286   0.186 -0.4542  1.7061 -0.4079
  832MOL0     H 9769  10.556  10.500   0.308  0.3964  1.1288  1.5167
  832MOL0     H 9770  10.724  10.494   0.250  2.5562 -1.0601  1.7287
  832MOL0     H 9771  10.793  10.419   0.475 -0.1698 -0.8115 -3.0692
  832MOL0     H 9772  10.619  10.427   0.538 -1.6347  1.0016 -1.3307
  832MOL0     H 9773  10.753  10.660   0.424 -1.0619 -1.4674 -1.5810
  832MOL0     H 9774  10.593  10.652   0.493 -0.0502  1.1073 -1.7308
  832MOL0     H 9775  10.734  10.570   0.711 -0.2154  0.3697 -0.5488
  832MOL0     H 9776  10.705  10.742   0.670 -0.3958 -0.4930  0.5566
  832MOL0     H 9777  10.999  10.468   0.652  0.0876  0.0325 -0.9600
  832MOL0     H 9778  11.265  10.489   0.692 -1.0145  0.3693 -1.9835
  832MOL0     H 9779  11.324  10.647   0.699 -0.5597  0.6076  0.9931
  832MOL0     H 9780  11.207  10.506   0.445 -0.6946 -1.1472  3.3678
  832MOL0     H 9781  11.377  10.505   0.493  2.2199  3.6410  3.4942
  832MOL0     H 9782  11.247  10.777   0.450  2.0697  1.1742  1.7516
  832MOL0     H 9783  11.418  10.738   0.462  1.0141  0.3060  0.9824
  832MOL0     H 9784  11.377  10.776   0.244  0.1705  0.5460  1.9535
  832MOL0     H 9785  11.268  10.637   0.228 -0.7503  0.1892  1.1729
  832MOL0     H 9786  11.363  10.568   0.049 -0.5812 -2.1317  3.0133
  832MOL0     H 9787  11.482  10.481  -0.149 -0.1518 -4.7250  0.9108
  832MOL0     H 9788  11.849  10.318  -0.411  0.1340  0.2911  1.4306
  832MOL0     H 9789  11.983  10.302  -0.612 -2.8039  1.1577 -0.4514
  832MOL0     H 9790  12.106  10.440  -0.840  1.5197  0.1555 -2.4134
  832MOL0     H 9791  12.151  10.298  -0.754  1.4770  0.3270  0.6526
  832MOL0     H 9792  12.378  10.323  -0.791  1.5909  1.7777  0.4607
  832MOL0     H 9793  12.369  10.476  -0.870 -1.2413  0.7601 -3.4352
  832MOL0     H 9794  12.225  10.376  -1.060  0.5397  1.1633  0.7658
  832MOL0     H 9795  12.225  10.224  -0.960  0.9540 -1.7266 -3.8145
  832MOL0     H 9796  12.467  10.311  -1.118 -2.9238  1.3286 -1.7378
  832MOL0     H 9797  12.464  10.226  -0.969 -1.0416  1.4857  0.9813
  832MOL0     H 9798  12.354  10.039  -1.037 -0.5469  0.1963  0.4320
  832MOL0     H 9799  12.471  10.065  -1.165 -0.5413 -0.6190  0.2545
  832MOL0     H 9800  12.278  10.217  -1.284 -0.1862  2.7948  2.2972
  832MOL0     H 9801  12.182  10.131  -1.156 -0.0562 -1.3809  0.7311
  832MOL0     H 9802  12.379   9.975  -1.346  2.2230  4.3620  1.5479
  832MOL0     H 9803  12.238   9.911  -1.249 -1.1495  0.0864  0.0027
  832MOL0     H 9804  12.205  10.077  -1.505  1.7508 -2.1208 -1.8765
  832MOL0     H 9805  12.088  10.043  -1.388  0.8420 -0.2599  1.4209
  832MOL0     H 9806  12.244  10.613  -0.459  1.5309 -0.7978  2.9127
  832MOL0     H 9807  12.091  10.628  -0.243 -1.6679  0.2220  1.0448
  832MOL0     H 9808  11.864  10.532   0.046 -0.0373  0.3960 -1.7963
  832MOL0     H 9809  11.727  10.572   0.262  0.9115  0.7941 -0.5175
  832MOL0     H 9810   9.986  10.096   0.350 -0.5427 -0.5196  0.5682
  832MOL0     H 9811   9.827   9.968   0.471  1.7986  1.5449 -4.3637
  832MOL0     H 9812   9.747   9.922   0.987  0.1696 -1.2612 -0.9385
  832MOL0     H 9813   9.645   9.815   1.177 -1.6368  3.7334 -0.6264
  832MOL0     H 9814   9.506   9.411   1.146 -0.8923 -1.1771  0.5279
  832MOL0     H 9815   9.348   9.470   1.132  0.3299 -3.7184  0.6248
  832MOL0     H 9816   9.376   9.342   1.320  0.1572  1.0208 -3.7722
  832MOL0     H 9817   9.485   9.458   1.406  0.7860 -0.9245  0.2627
  832MOL0     H 9818   9.194   9.521   1.343 -1.4374  0.2222  4.8218
  832MOL0     H 9819   9.318   9.636   1.388  0.3551  0.1203  2.6115
  832MOL0     H 9820   9.182   9.397   1.532 -3.0153  2.6263  1.9827
  832MOL0     H 9821   9.337   9.465   1.595  2.7108  1.2516 -2.3197
  832MOL0     H 9822   9.048   9.747   1.716  0.1149  1.5168 -0.0577
  832MOL0     H 9823   9.428   9.549   0.918 -0.9855 -0.3474 -0.2168
  832MOL0     H 9824   9.541   9.662   0.721  1.5610  2.4847 -0.8532
  833MOL0     O 9825   0.216   3.668   1.283 -0.2649 -0.2046 -0.0810
  833MOL0     C 9826   0.176   3.706   1.389  0.3046  0.2334  0.2513
  833MOL0     O 9827   0.046   3.701   1.423  0.2431 -0.0835  0.5147
  833MOL0     C 9828  -0.046   3.632   1.354 -0.2540  0.3460 -0.0066
  833MOL0     C 9829  -0.148   3.694   1.284  0.0706 -0.3657 -0.8717
  833MOL0     C 9830  -0.252   3.622   1.235  0.6895 -0.1501  0.4241
  833MOL0     C 9831  -0.248   3.484   1.232 -0.6567  0.5383  0.8976
  833MOL0     O 9832  -0.349   3.422   1.154 -0.9604 -0.9820 -0.3414
  833MOL0     C 9833  -0.464   3.384   1.229  0.2695  0.4766  0.2344
  833MOL0     C 9834  -0.558   3.293   1.141 -0.0308  0.5123 -0.7503
  833MOL0     C 9835  -0.653   3.365   1.048 -0.3517  0.2801  0.1577
  833MOL0     C 9836  -0.749   3.277   0.973  0.0253  0.2505  0.2242
  833MOL0     C 9837  -0.863   3.343   0.887  0.2396  0.8442 -0.0451
  833MOL0     C 9838  -0.960   3.237   0.840  0.1105  0.3191  0.6818
  833MOL0     C 9839  -0.904   3.131   0.754  0.1178  1.1635  0.3625
  833MOL0     C 9840  -1.012   3.057   0.665  0.1229 -0.4435 -0.7618
  833MOL0     N 9841  -1.121   2.991   0.732 -0.0021  0.3202  0.7132
  833MOL0     C 9842  -1.247   3.000   0.685 -0.1992  0.5814  1.2696
  833MOL0     C 9843  -1.321   2.962   0.789  0.3955 -0.2360 -0.0391
  833MOL0     C 9844  -1.469   2.949   0.806 -1.0220 -0.2550  0.2952
  833MOL0     C 9845  -1.532   2.885   0.688 -0.4537 -0.6314  0.5251
  833MOL0     C 9846  -1.528   2.729   0.680  0.4352  0.2490  1.1362
  833MOL0     C 9847  -1.389   2.657   0.688 -0.5651 -0.1036  0.4502
  833MOL0     O 9848  -1.379   2.535   0.605 -1.0170  0.3655  0.9771
  833MOL0     C 9849  -1.365   2.557   0.474  0.1772  0.2283  0.6723
  833MOL0     C 9850  -1.353   2.683   0.408 -1.0404  0.5387 -0.1344
  833MOL0     C 9851  -1.347   2.690   0.270 -0.1503  0.4847 -0.4603
  833MOL0     C 9852  -1.361   2.577   0.191 -0.5912 -0.0235 -0.1487
  833MOL0     C 9853  -1.349   2.586   0.045  0.2354  0.3244  0.2936
  833MOL0     O 9854  -1.436   2.498  -0.016  0.4141  0.5885 -0.5720
  833MOL0     C 9855  -1.439   2.494  -0.153  0.0803  0.5258  0.5206
  833MOL0     C 9856  -1.565   2.486  -0.228  0.1901  0.8243 -0.5784
  833MOL0     C 9857  -1.564   2.454  -0.358  0.4543 -0.2075  0.2845
  833MOL0     C 9858  -1.447   2.448  -0.428  0.0113  0.7218  0.2025
  833MOL0     O 9859  -1.457   2.424  -0.569  0.2453  0.0236 -0.7814
  833MOL0     C 9860  -1.527   2.528  -0.646  1.3384  0.0902  0.6447
  833MOL0     C 9861  -1.435   2.651  -0.646  0.4346  0.5271 -0.0904
  833MOL0     C 9862  -1.493   2.766  -0.728  1.0603 -1.3102 -0.9733
  833MOL0     C 9863  -1.424   2.896  -0.683 -0.4607  0.5662  0.6373
  833MOL0     C 9864  -1.465   3.000  -0.784 -0.2532 -1.2420 -0.0522
  833MOL0     C 9865  -1.359   3.107  -0.777  0.3240 -0.1019 -0.2091
  833MOL0     C 9866  -1.393   3.207  -0.881  0.2002 -0.5616  0.0251
  833MOL0     C 9867  -1.305   3.334  -0.874 -0.4955  0.3467 -0.4954
  833MOL0    Cl 9868  -1.133   3.304  -0.921  0.1540 -0.2987  0.0563
  833MOL0     C 9869  -1.322   2.459  -0.367 -1.0308 -0.0748  0.4880
  833MOL0     C 9870  -1.315   2.480  -0.229 -0.4576  0.2573 -0.5293
  833MOL0     O 9871  -1.262   2.649  -0.012 -0.2247 -0.0605 -0.0035
  833MOL0     C 9872  -1.376   2.459   0.265 -0.4908  0.1000 -1.0145
  833MOL0     C 9873  -1.373   2.443   0.402  0.0250 -0.8680  0.2824
  833MOL0     N 9874  -1.240   2.932   0.890 -0.1489 -0.3330 -0.3160
  833MOL0     N 9875  -1.120   2.949   0.856  0.6902 -0.4002 -0.7089
  833MOL0     C 9876  -0.148   3.418   1.299 -0.4244 -0.1200 -0.0296
  833MOL0     C 9877  -0.047   3.497   1.353  0.4772  0.2138 -0.6067
  833MOL0     C 9878   0.264   3.769   1.489  0.6209 -0.5722 -0.2717
  833MOL0     C 9879   0.405   3.750   1.483  0.9442  1.8018 -1.3712
  833MOL0     C 9880   0.494   3.807   1.586 -0.4443  0.0002  0.2669
  833MOL0     C 9881   0.441   3.904   1.672  0.1654 -0.3376 -0.1419
  833MOL0     O 9882   0.501   3.982   1.767 -1.0808 -0.0738 -0.1586
  833MOL0     C 9883   0.637   3.939   1.786  0.4677  0.4254  0.3996
  833MOL0     C 9884   0.733   4.019   1.697  0.0427 -0.0281 -0.0739
  833MOL0     C 9885   0.738   4.168   1.746 -0.6020  1.1505 -0.3899
  833MOL0     C 9886   0.849   4.240   1.678  1.2243 -0.1584 -0.2093
  833MOL0     C 9887   0.983   4.198   1.724  0.5404  0.0650 -0.6202
  833MOL0     C 9888   1.072   4.154   1.788 -0.1111  0.0432 -0.1887
  833MOL0     C 9889   0.296   3.926   1.669 -0.9408 -0.8361  0.1297
  833MOL0     C 9890   0.213   3.871   1.578 -0.1356 -0.0565  0.3955
  833MOL0     H 9891  -0.155   3.801   1.269  1.8309 -0.4682 -2.9133
  833MOL0     H 9892  -0.325   3.685   1.185  3.0685  1.3660 -1.3782
  833MOL0     H 9893  -0.513   3.476   1.260  1.7316  1.6017 -0.6578
  833MOL0     H 9894  -0.426   3.318   1.308  0.3770 -0.4097 -0.5298
  833MOL0     H 9895  -0.606   3.217   1.203 -0.4088 -0.0307 -1.6805
  833MOL0     H 9896  -0.489   3.236   1.078 -0.5688 -0.8307 -0.1632
  833MOL0     H 9897  -0.588   3.419   0.979 -1.9949  4.5063  1.6059
  833MOL0     H 9898  -0.703   3.435   1.116 -2.8563 -1.8242  0.6614
  833MOL0     H 9899  -0.692   3.203   0.916  2.2179  0.8938  1.4618
  833MOL0     H 9900  -0.797   3.223   1.056  1.2174  1.3982  1.7311
  833MOL0     H 9901  -0.813   3.397   0.806  0.5833 -2.7154 -2.4447
  833MOL0     H 9902  -0.917   3.410   0.955 -0.8655 -0.1629  0.0846
  833MOL0     H 9903  -1.052   3.268   0.790 -0.3522 -0.4243  1.0652
  833MOL0     H 9904  -0.990   3.195   0.936  2.0855 -1.1679  0.7220
  833MOL0     H 9905  -0.833   3.183   0.690  0.8180  0.8052  0.8389
  833MOL0     H 9906  -0.847   3.054   0.807  0.0721  0.5605 -0.4460
  833MOL0     H 9907  -0.954   2.983   0.609  3.1149  0.1682  1.3096
  833MOL0     H 9908  -1.059   3.128   0.597  1.4419  1.2651  0.0319
  833MOL0     H 9909  -1.278   3.041   0.589 -1.8158 -1.2509  0.9528
  833MOL0     H 9910  -1.510   3.051   0.810  1.3856  0.7905 -0.0196
  833MOL0     H 9911  -1.492   2.882   0.889  0.3816 -0.6221  0.4108
  833MOL0     H 9912  -1.491   2.929   0.596  1.4412 -0.8851  1.2030
  833MOL0     H 9913  -1.636   2.913   0.706 -0.2916 -1.6410  3.6294
  833MOL0     H 9914  -1.588   2.694   0.765 -0.9223 -2.3573 -0.7423
  833MOL0     H 9915  -1.574   2.696   0.586  0.1274 -0.5392  1.5606
  833MOL0     H 9916  -1.364   2.635   0.793  0.5820 -1.8400 -0.1289
  833MOL0     H 9917  -1.313   2.726   0.650 -0.4321 -0.7314 -0.4651
  833MOL0     H 9918  -1.340   2.780   0.457  1.2248  1.3434 -2.1063
  833MOL0     H 9919  -1.323   2.788   0.229 -2.3133 -0.2635 -3.8512
  833MOL0     H 9920  -1.649   2.502  -0.161  0.4006  2.1664 -0.6130
  833MOL0     H 9921  -1.652   2.421  -0.413  1.0664 -0.7793 -0.3672
  833MOL0     H 9922  -1.629   2.554  -0.616  0.7732  0.0194 -1.1301
  833MOL0     H 9923  -1.543   2.499  -0.750  3.1995 -0.7847  0.5697
  833MOL0     H 9924  -1.333   2.637  -0.682  0.8827  3.1736 -0.0276
  833MOL0     H 9925  -1.434   2.688  -0.543 -1.7105 -1.4930  0.7470
  833MOL0     H 9926  -1.602   2.764  -0.721  0.9314  0.7210 -1.7325
  833MOL0     H 9927  -1.480   2.756  -0.836 -0.4009  0.4136 -1.3493
  833MOL0     H 9928  -1.457   2.921  -0.582 -0.2895  0.0768  0.8160
  833MOL0     H 9929  -1.317   2.874  -0.692 -1.0680 -2.8232  0.1084
  833MOL0     H 9930  -1.564   3.042  -0.761  0.9694  1.7235  0.3480
  833MOL0     H 9931  -1.471   2.957  -0.884  1.1217  0.0253 -0.7192
  833MOL0     H 9932  -1.260   3.064  -0.796 -1.2992 -3.1050 -2.8833
  833MOL0     H 9933  -1.373   3.167  -0.687  0.5302 -0.0733 -0.1980
  833MOL0     H 9934  -1.395   3.169  -0.983 -1.6984  4.0692 -1.9491
  833MOL0     H 9935  -1.498   3.236  -0.866 -0.1257 -2.1456  1.0653
  833MOL0     H 9936  -1.310   3.377  -0.774 -1.4365  0.2299 -0.4866
  833MOL0     H 9937  -1.338   3.406  -0.949 -1.2744  0.7513  0.2242
  833MOL0     H 9938  -1.235   2.457  -0.433 -0.7638  1.6526  0.7647
  833MOL0     H 9939  -1.217   2.473  -0.183 -1.0309  2.4697  1.1758
  833MOL0     H 9940  -1.414   2.366   0.224  0.9534 -2.3493  2.6933
  833MOL0     H 9941  -1.382   2.351   0.459 -0.3840  0.4928  2.5608
  833MOL0     H 9942  -0.162   3.311   1.312 -0.9141  0.0045  0.4845
  833MOL0     H 9943   0.024   3.441   1.413 -0.0043 -1.7594 -1.7786
  833MOL0     H 9944   0.440   3.671   1.418  2.6991  1.1651  0.2228
  833MOL0     H 9945   0.599   3.778   1.590  0.7632  3.7623 -0.2269
  833MOL0     H 9946   0.648   3.832   1.765  0.2416  0.6542 -0.9912
  833MOL0     H 9947   0.652   3.958   1.892 -2.1310 -1.6944  1.2330
  833MOL0     H 9948   0.829   3.970   1.716 -0.6970 -1.3456  0.3870
  833MOL0     H 9949   0.695   4.015   1.595 -1.4805 -1.3749  0.5126
  833MOL0     H 9950   0.741   4.172   1.855 -0.2143  1.7597 -0.4208
  833MOL0     H 9951   0.635   4.204   1.737 -1.4868 -0.9907  0.3921
  833MOL0     H 9952   0.858   4.204   1.575  3.8743 -1.0730  0.2681
  833MOL0     H 9953   0.831   4.348   1.673 -1.3903 -0.5236  0.1216
  833MOL0     H 9954   1.147   4.129   1.861 -1.1613 -0.5940  0.6938
  833MOL0     H 9955   0.262   3.995   1.745 -3.2690  0.4114 -1.8862
  833MOL0     H 9956   0.107   3.895   1.584  0.4558  2.9452  0.4822
  834MOL0     O 9957   9.086  10.137   2.530  0.0217  0.5663  0.1567
  834MOL0     C 9958   9.199  10.183   2.506  0.8393  0.4730  0.6619
  834MOL0     O 9959   9.226  10.317   2.517 -0.1913 -0.0524  0.0884
  834MOL0     C 9960   9.129  10.394   2.546  0.1322  0.0654 -0.8964
  834MOL0     C 9961   9.138  10.458   2.669  0.0929 -0.8936  0.3289
  834MOL0     C 9962   9.044  10.549   2.711 -0.5727 -0.6314  0.5872
  834MOL0     C 9963   8.946  10.586   2.629  0.5993 -0.6360  0.5547
  834MOL0     O 9964   8.862  10.686   2.670 -0.4571  0.0014 -0.1304
  834MOL0     C 9965   8.814  10.778   2.571  1.1403 -0.6995 -0.4746
  834MOL0     C 9966   8.762  10.909   2.626 -0.5788  1.0570  0.6383
  834MOL0     C 9967   8.674  10.979   2.518 -0.3678 -0.3527  0.8651
  834MOL0     C 9968   8.619  11.119   2.554  0.3996  0.3396 -0.9887
  834MOL0     C 9969   8.518  11.176   2.452 -1.1021  0.2579 -0.2075
  834MOL0     C 9970   8.416  11.269   2.527 -0.0523 -0.9541  0.2678
  834MOL0     C 9971   8.342  11.365   2.431  0.6014 -0.6068  0.6555
  834MOL0     C 9972   8.231  11.301   2.341  0.8810 -0.2684  0.8376
  834MOL0     N 9973   8.130  11.378   2.273 -0.1614  0.3116  0.1612
  834MOL0     C 9974   7.997  11.345   2.294 -0.4889 -0.7829  0.0240
  834MOL0     C 9975   7.930  11.419   2.200 -0.5885  0.5137 -1.1299
  834MOL0     C 9976   7.780  11.405   2.181 -0.0388 -1.0212  0.1757
  834MOL0     C 9977   7.678  11.454   2.299  0.9192  0.2174 -0.3452
  834MOL0     C 9978   7.572  11.343   2.314  0.3505  0.0920  0.6752
  834MOL0     C 9979   7.441  11.393   2.379 -0.1751  0.6954  0.7525
  834MOL0     O 9980   7.348  11.283   2.361  0.1851 -0.3749 -0.5975
  834MOL0     C 9981   7.219  11.302   2.413  0.4077 -0.3047 -0.0255
  834MOL0     C 9982   7.175  11.418   2.480  0.4805 -0.3219  0.0725
  834MOL0     C 9983   7.044  11.437   2.509  0.2773  1.2024 -0.3108
  834MOL0     C 9984   6.953  11.334   2.491  1.1484  0.5882  0.1953
  834MOL0     C 9985   6.808  11.342   2.543 -0.8576 -0.2474  0.3199
  834MOL0     O 9986   6.728  11.232   2.550  0.0674  0.2857  1.1568
  834MOL0     C 9987   6.617  11.245   2.629 -0.2697 -0.5643 -0.3087
  834MOL0     C 9988   6.633  11.223   2.770  0.7006 -0.5935  0.4961
  834MOL0     C 9989   6.514  11.231   2.843 -0.1447  0.4664  0.7243
  834MOL0     C 9990   6.389  11.269   2.794 -0.7401  0.1266 -1.2074
  834MOL0     O 9991   6.288  11.273   2.883  0.4233  0.4408 -0.1621
  834MOL0     C 9992   6.179  11.361   2.863 -0.6307 -0.3126  0.7447
  834MOL0     C 9993   6.056  11.277   2.826  0.3475 -1.1212 -0.1882
  834MOL0     C 9994   5.971  11.242   2.941  0.2534 -0.5270 -0.0751
  834MOL0     C 9995   5.846  11.161   2.917  0.7400 -0.5470  0.7419
  834MOL0     C 9996   5.783  11.095   3.035 -0.2649  0.3513 -0.6825
  834MOL0     C 9997   5.656  11.005   3.018  0.2846  0.2727 -0.7073
  834MOL0     C 9998   5.657  10.900   3.131 -0.7659  0.7558  1.7230
  834MOL0     C 9999   5.532  10.809   3.129 -0.1949  0.3382 -0.9377
  834MOL0    Cl10000   5.388  10.908   3.165  0.1377  0.6579  0.1749
  834MOL0     C10001   6.384  11.291   2.657 -0.7729 -0.4060 -0.4894
  834MOL0     C10002   6.492  11.282   2.572 -0.5133  0.5374  0.4136
  834MOL0     O10003   6.773  11.459   2.569  0.4407  0.3703 -0.3777
  834MOL0     C10004   7.002  11.218   2.441 -0.2463 -0.8616  0.3630
  834MOL0     C10005   7.131  11.201   2.397  0.0778  0.5539  0.6850
  834MOL0     N10006   8.017  11.497   2.134 -0.1585 -0.4249 -1.1567
  834MOL0     N10007   8.140  11.469   2.175 -0.4172 -0.2203  0.5411
  834MOL0     C10008   8.932  10.522   2.503 -0.0057 -0.1488  0.3136
  834MOL0     C10009   9.021  10.429   2.463  0.3578  0.0429  0.0571
  834MOL0     C10010   9.319  10.102   2.454 -0.6209  0.0911 -0.0554
  834MOL0     C10011   9.289   9.984   2.390  0.2188  0.1814  0.2674
  834MOL0     C10012   9.388   9.913   2.320 -0.2691 -0.1404 -0.1618
  834MOL0     C10013   9.525   9.950   2.306 -0.8047 -0.1850 -0.3141
  834MOL0     O10014   9.635   9.876   2.264 -0.2495 -0.7173  0.3509
  834MOL0     C10015   9.609   9.838   2.132  0.2275 -0.3681  0.2185
  834MOL0     C10016   9.743   9.781   2.074 -0.7358  0.0554 -0.4105
  834MOL0     C10017   9.883   9.855   2.116  0.4575 -0.6438  0.0409
  834MOL0     C10018   9.999   9.818   2.017  0.2836 -0.2024 -0.0471
  834MOL0     C10019  10.113   9.892   2.062  0.4550  0.6123  0.1113
  834MOL0     C10020  10.215   9.957   2.068 -0.1108 -0.1687 -0.5475
  834MOL0     C10021   9.552  10.072   2.384 -0.0001  0.7171  0.9375
  834MOL0     C10022   9.449  10.147   2.450 -0.1066  0.3870 -0.4785
  834MOL0     H10023   9.222  10.444   2.735  1.5680 -1.1139 -1.5171
  834MOL0     H10024   9.055  10.602   2.805 -1.3525 -1.1438  0.9783
  834MOL0     H10025   8.726  10.733   2.524 -0.5382  3.0998 -1.2918
  834MOL0     H10026   8.895  10.804   2.502  3.3516  0.6520  2.4119
  834MOL0     H10027   8.844  10.974   2.658  0.9487 -1.7402  2.9913
  834MOL0     H10028   8.708  10.886   2.719 -2.5135 -1.1203 -0.9172
  834MOL0     H10029   8.589  10.916   2.492  0.8317 -1.1116 -1.4447
  834MOL0     H10030   8.739  11.008   2.435  1.2082  1.1450  2.5107
  834MOL0     H10031   8.567  11.090   2.645  3.0111 -1.6072  0.0084
  834MOL0     H10032   8.684  11.203   2.580  0.9313  0.0615 -1.3844
  834MOL0     H10033   8.449  11.102   2.410 -2.1626  2.0152 -1.7053
  834MOL0     H10034   8.583  11.208   2.371  1.6226 -2.2378  0.8072
  834MOL0     H10035   8.468  11.334   2.596 -1.7275  1.3515 -0.5228
  834MOL0     H10036   8.347  11.206   2.585  1.3525 -3.0873 -0.2351
  834MOL0     H10037   8.315  11.457   2.485  0.7979  0.6901 -1.3499
  834MOL0     H10038   8.417  11.402   2.361  1.6104 -1.5260  1.2101
  834MOL0     H10039   8.172  11.229   2.399  0.4842 -2.4128 -2.0156
  834MOL0     H10040   8.299  11.252   2.271  0.7660  0.4498  0.2127
  834MOL0     H10041   7.958  11.281   2.373  0.0092  0.7466  1.5563
  834MOL0     H10042   7.776  11.299   2.155 -2.3471 -0.2698 -3.1643
  834MOL0     H10043   7.744  11.448   2.087  0.6759  0.3400  0.4970
  834MOL0     H10044   7.635  11.548   2.262 -0.2505  0.2568  1.0319
  834MOL0     H10045   7.735  11.490   2.384 -1.3563  1.2829  0.8338
  834MOL0     H10046   7.547  11.308   2.214 -1.5155  0.0311  1.1138
  834MOL0     H10047   7.614  11.261   2.374 -1.7503  2.0780  5.4120
  834MOL0     H10048   7.406  11.492   2.347 -0.8815  0.2326  0.0229
  834MOL0     H10049   7.476  11.395   2.482  0.1729  1.4242  0.6247
  834MOL0     H10050   7.250  11.494   2.495  2.4711 -2.0549 -0.6144
  834MOL0     H10051   6.998  11.530   2.542  1.8068  1.9141 -0.0623
  834MOL0     H10052   6.733  11.211   2.811  0.5760 -0.1084  0.9590
  834MOL0     H10053   6.517  11.211   2.950  2.8173  0.3690  0.7003
  834MOL0     H10054   6.202  11.440   2.791 -1.3660 -1.0253 -0.3014
  834MOL0     H10055   6.160  11.416   2.956 -0.2861 -2.5109  2.1923
  834MOL0     H10056   6.096  11.189   2.775  4.4096 -0.6540  1.7663
  834MOL0     H10057   6.000  11.331   2.749  2.5346  0.5242 -0.7320
  834MOL0     H10058   5.933  11.334   2.987 -0.1050 -0.9410  0.4731
  834MOL0     H10059   6.029  11.204   3.025 -0.3995 -2.3634 -0.4071
  834MOL0     H10060   5.769  11.229   2.879  0.5978 -0.0835  1.8346
  834MOL0     H10061   5.849  11.081   2.843 -0.7154  1.4319 -1.6215
  834MOL0     H10062   5.755  11.175   3.104 -0.4811  1.8578 -2.4598
  834MOL0     H10063   5.861  11.030   3.076  2.1137  2.5873 -1.3665
  834MOL0     H10064   5.655  10.966   2.916 -3.1593  0.1037 -0.7150
  834MOL0     H10065   5.570  11.072   3.024 -1.2493 -1.7555  1.4817
  834MOL0     H10066   5.740  10.828   3.131 -0.9235  0.5661  2.7328
  834MOL0     H10067   5.659  10.949   3.229 -1.4132  4.0770  0.1983
  834MOL0     H10068   5.539  10.736   3.209  1.1584 -0.6129 -1.8839
  834MOL0     H10069   5.518  10.755   3.035 -3.7449  0.9041 -0.8745
  834MOL0     H10070   6.294  11.336   2.617 -0.1463 -1.0710 -2.7399
  834MOL0     H10071   6.487  11.317   2.469 -0.2527 -0.1784  0.1526
  834MOL0     H10072   6.945  11.129   2.416 -1.3632 -0.0433 -0.0881
  834MOL0     H10073   7.165  11.111   2.348 -1.8585  1.6687 -3.1580
  834MOL0     H10074   8.849  10.541   2.435 -1.3865 -1.0191  1.6901
  834MOL0     H10075   9.024  10.389   2.362  0.5900 -1.6618  0.7203
  834MOL0     H10076   9.188   9.943   2.393  0.4163 -0.2931  0.5262
  834MOL0     H10077   9.356   9.825   2.265  1.7479  0.0568 -1.7569
  834MOL0     H10078   9.581   9.926   2.073  1.3478 -1.6397 -2.3258
  834MOL0     H10079   9.527   9.767   2.122  0.3395 -0.7273  1.6128
  834MOL0     H10080   9.769   9.679   2.104 -0.5385 -0.4794 -2.2891
  834MOL0     H10081   9.737   9.769   1.966 -0.3081  0.8073 -0.5239
  834MOL0     H10082   9.928   9.818   2.209  0.8941 -1.1746 -0.3713
  834MOL0     H10083   9.866   9.963   2.110 -0.4036 -0.7854 -0.2300
  834MOL0     H10084  10.008   9.709   2.018  2.2605 -0.2296 -3.3815
  834MOL0     H10085   9.977   9.847   1.913  0.7549 -1.4915 -0.5306
  834MOL0     H10086  10.293  10.031   2.060  2.1115 -2.2569  0.5129
  834MOL0     H10087   9.655  10.106   2.383  0.3345 -0.0018  3.8011
  834MOL0     H10088   9.470  10.245   2.492 -1.9663  0.1963  1.0207
  835MOL0     O10089   8.845   4.048   9.275 -0.1140  0.3001  0.0781
  835MOL0     C10090   8.761   4.052   9.182 -0.6021 -1.4212  0.3711
  835MOL0     O10091   8.776   4.118   9.055 -0.2670 -0.1119  0.6104
  835MOL0     C10092   8.900   4.132   8.987  0.0351  0.1227 -1.2674
  835MOL0     C10093   9.027   4.084   9.034 -1.1734  0.0748 -0.8447
  835MOL0     C10094   9.141   4.140   8.982  0.6485 -0.9665  0.4748
  835MOL0     C10095   9.140   4.223   8.863 -0.1556 -0.5169 -0.5123
  835MOL0     O10096   9.249   4.273   8.794  0.5760 -0.4203  0.2477
  835MOL0     C10097   9.382   4.307   8.850 -0.5559  0.6389 -0.1954
  835MOL0     C10098   9.480   4.223   8.769 -0.3330 -0.4014  0.4461
  835MOL0     C10099   9.620   4.242   8.814  0.2261 -0.8940  0.6455
  835MOL0     C10100   9.718   4.175   8.717 -0.2125  0.3603  0.6293
  835MOL0     C10101   9.856   4.222   8.720  0.2130  0.3153  0.4720
  835MOL0     C10102   9.958   4.106   8.693 -0.3746 -0.0951 -0.7408
  835MOL0     C10103  10.099   4.144   8.685  0.3814  0.3528 -0.1818
  835MOL0     C10104  10.196   4.047   8.630  0.6126 -0.2878 -0.1906
  835MOL0     N10105  10.176   3.917   8.693 -0.0194 -0.1603 -0.5590
  835MOL0     C10106  10.188   3.899   8.825  0.3181  0.1129 -0.6658
  835MOL0     C10107  10.152   3.773   8.859 -0.6085  0.4488 -0.4406
  835MOL0     C10108  10.152   3.702   8.989  0.2101  0.3312 -0.2403
  835MOL0     C10109  10.066   3.782   9.100 -0.6537  0.2825 -0.3196
  835MOL0     C10110   9.932   3.828   9.049  0.6514  0.0516  0.1850
  835MOL0     C10111   9.823   3.728   9.081  0.3241  0.5760 -0.3084
  835MOL0     O10112   9.794   3.708   9.224 -0.0118 -0.2782  0.3005
  835MOL0     C10113   9.685   3.628   9.252  0.0688  0.0123 -0.7307
  835MOL0     C10114   9.601   3.555   9.163  0.0531  0.3987  0.7329
  835MOL0     C10115   9.501   3.464   9.215 -0.1356  1.0135 -1.0699
  835MOL0     C10116   9.467   3.461   9.351  0.4485 -0.6648  0.8256
  835MOL0     C10117   9.353   3.377   9.398  0.5506  0.0111 -0.6190
  835MOL0     O10118   9.286   3.320   9.297 -0.8490  0.5592  0.2667
  835MOL0     C10119   9.164   3.248   9.326  0.0892 -0.5797  0.1365
  835MOL0     C10120   9.092   3.239   9.208  0.5932  0.0122 -0.8354
  835MOL0     C10121   8.978   3.161   9.198 -0.5758  0.3250  0.1199
  835MOL0     C10122   8.934   3.094   9.311 -0.8404  1.0078  0.5384
  835MOL0     O10123   8.813   3.034   9.322 -0.3044  0.0558 -0.3634
  835MOL0     C10124   8.706   3.094   9.242  0.8818  0.1965 -0.2396
  835MOL0     C10125   8.567   3.032   9.274  1.0181  0.0288  0.0228
  835MOL0     C10126   8.559   2.886   9.243 -0.6483  0.5532  0.6867
  835MOL0     C10127   8.416   2.846   9.253 -0.4282  0.3387  0.8290
  835MOL0     C10128   8.387   2.704   9.229 -0.4649  0.0086 -1.4183
  835MOL0     C10129   8.237   2.667   9.252 -0.2236  0.2991  0.2831
  835MOL0     C10130   8.209   2.513   9.257  0.8294  0.0495 -0.1773
  835MOL0     C10131   8.250   2.455   9.389 -0.3853 -0.2477 -0.0871
  835MOL0    Cl10132   8.190   2.282   9.409  0.2632  0.5045 -0.0355
  835MOL0     C10133   9.012   3.093   9.427  0.3295 -0.7699 -0.1544
  835MOL0     C10134   9.123   3.177   9.433 -0.2854  0.4552 -1.1642
  835MOL0     O10135   9.321   3.375   9.521  0.4271  0.0114 -0.7434
  835MOL0     C10136   9.556   3.523   9.440 -0.0901  0.0038 -1.7054
  835MOL0     C10137   9.646   3.616   9.387  0.3049  0.4019  0.4961
  835MOL0     N10138  10.110   3.715   8.738  0.6141  0.2648 -0.3018
  835MOL0     N10139  10.118   3.811   8.642 -0.0628 -0.2961  0.3341
  835MOL0     C10140   9.018   4.248   8.811  0.0188  1.2109 -0.1385
  835MOL0     C10141   8.900   4.213   8.878 -0.1437 -0.1365 -0.6665
  835MOL0     C10142   8.627   4.005   9.227  0.6245  0.8903 -0.3192
  835MOL0     C10143   8.621   3.951   9.357  0.5014 -0.5897 -0.5007
  835MOL0     C10144   8.512   3.882   9.400 -0.5553 -0.1846 -0.2816
  835MOL0     C10145   8.392   3.879   9.319 -0.0068 -0.2611 -0.1091
  835MOL0     O10146   8.281   3.813   9.357 -0.0536 -0.4710 -0.3722
  835MOL0     C10147   8.163   3.792   9.281 -0.1694  0.0373  0.0608
  835MOL0     C10148   8.177   3.703   9.153  0.2040  0.9371 -0.7302
  835MOL0     C10149   8.040   3.636   9.127  0.4231  0.5656  0.0313
  835MOL0     C10150   8.043   3.543   8.995 -0.4180 -0.1280 -0.5677
  835MOL0     C10151   8.062   3.621   8.875 -0.6837  1.0508  1.1800
  835MOL0     C10152   8.072   3.695   8.776  0.0973 -0.6597  0.3861
  835MOL0     C10153   8.390   3.950   9.192 -0.2942 -0.5825  0.0560
  835MOL0     C10154   8.511   4.006   9.147 -0.6197 -0.6734  0.0962
  835MOL0     H10155   9.046   4.014   9.115  0.7671  1.1284 -0.3228
  835MOL0     H10156   9.231   4.115   9.037  1.0734 -0.3857  0.0595
  835MOL0     H10157   9.387   4.281   8.956  0.3924 -0.3592 -0.4620
  835MOL0     H10158   9.398   4.415   8.841 -1.1978  0.7360 -0.2144
  835MOL0     H10159   9.469   4.266   8.669  1.6348  1.5972  1.0202
  835MOL0     H10160   9.455   4.117   8.784  0.4047 -0.6082  0.2575
  835MOL0     H10161   9.632   4.199   8.913 -0.9222  1.6278  1.9610
  835MOL0     H10162   9.631   4.351   8.811 -3.1244 -0.4514 -1.3462
  835MOL0     H10163   9.731   4.069   8.741  3.3566  0.5778  0.2397
  835MOL0     H10164   9.682   4.187   8.614 -1.0555  1.2788  1.0203
  835MOL0     H10165   9.880   4.264   8.819 -2.5112  0.7492  1.0194
  835MOL0     H10166   9.872   4.305   8.651 -2.2387 -0.3459 -0.9847
  835MOL0     H10167   9.936   4.040   8.608 -1.9161  0.0190 -0.4659
  835MOL0     H10168   9.939   4.037   8.776 -3.1920  1.7415  0.3090
  835MOL0     H10169  10.102   4.233   8.622 -2.0710  1.6968  1.4310
  835MOL0     H10170  10.142   4.167   8.783  5.2550  0.9312 -2.1827
  835MOL0     H10171  10.298   4.082   8.653 -0.3178  0.0394  4.2631
  835MOL0     H10172  10.179   4.050   8.522  1.5563  0.4054 -0.3341
  835MOL0     H10173  10.225   3.971   8.897  1.3079 -3.6878  3.0067
  835MOL0     H10174  10.254   3.691   9.026  0.4093  4.3920  0.9016
  835MOL0     H10175  10.112   3.601   8.975 -0.4961  0.7675 -1.5640
  835MOL0     H10176  10.129   3.863   9.139 -0.0962 -0.7138  0.9222
  835MOL0     H10177  10.050   3.730   9.195  2.3932 -0.6156 -0.1733
  835MOL0     H10178   9.912   3.924   9.097 -4.4660 -0.8849  0.4624
  835MOL0     H10179   9.927   3.849   8.942 -2.8367  1.5571  0.5272
  835MOL0     H10180   9.847   3.638   9.026 -0.5636 -0.2187  0.5627
  835MOL0     H10181   9.738   3.775   9.030  2.0464  0.4708 -3.5158
  835MOL0     H10182   9.620   3.564   9.057 -0.6319  1.8769  0.7063
  835MOL0     H10183   9.449   3.422   9.130  1.9816  1.5944 -2.7510
  835MOL0     H10184   9.116   3.314   9.133  1.1252  1.3790  0.6506
  835MOL0     H10185   8.931   3.167   9.100  1.0207  2.1393 -0.5820
  835MOL0     H10186   8.716   3.099   9.133  0.8611 -0.8772 -0.2928
  835MOL0     H10187   8.706   3.201   9.265  0.8869  0.1412  0.0153
  835MOL0     H10188   8.484   3.077   9.219 -0.8194 -3.2015 -0.0604
  835MOL0     H10189   8.543   3.051   9.379 -0.0440  2.1046 -0.5410
  835MOL0     H10190   8.627   2.824   9.302 -3.2627 -4.6963 -1.0992
  835MOL0     H10191   8.582   2.880   9.136 -2.5373 -1.5922  0.3166
  835MOL0     H10192   8.383   2.879   9.352 -1.9033  0.2599  0.4013
  835MOL0     H10193   8.354   2.894   9.177  0.5522 -0.3409 -0.4462
  835MOL0     H10194   8.453   2.656   9.303 -1.6016  1.7346  0.8345
  835MOL0     H10195   8.410   2.670   9.128 -1.6414  0.4809 -1.8514
  835MOL0     H10196   8.171   2.709   9.176 -0.9095  1.3750  1.4443
  835MOL0     H10197   8.205   2.714   9.345  5.3832  0.3043  2.5884
  835MOL0     H10198   8.109   2.482   9.227  1.0461  0.5299 -1.4767
  835MOL0     H10199   8.270   2.474   9.175 -1.3869  1.0023 -2.4337
  835MOL0     H10200   8.202   2.508   9.472  0.5325  0.0067  0.2992
  835MOL0     H10201   8.359   2.456   9.390 -0.3847 -0.2514  0.2605
  835MOL0     H10202   8.966   3.050   9.516 -0.7722  0.5074 -0.0846
  835MOL0     H10203   9.183   3.170   9.524 -0.4706 -1.1878 -1.1290
  835MOL0     H10204   9.534   3.512   9.545 -1.7568 -0.4173 -2.0721
  835MOL0     H10205   9.698   3.665   9.469  0.3260  0.9427  0.1664
  835MOL0     H10206   9.026   4.293   8.712  1.4876 -0.2736 -0.7376
  835MOL0     H10207   8.804   4.242   8.835 -1.7054 -4.0582 -0.3325
  835MOL0     H10208   8.711   3.932   9.414  1.1708  0.3217 -1.2229
  835MOL0     H10209   8.513   3.827   9.493 -0.8770  1.1747  0.5502
  835MOL0     H10210   8.124   3.887   9.242 -1.0133 -0.8180 -1.2502
  835MOL0     H10211   8.096   3.741   9.351 -1.5564 -2.3053 -2.7570
  835MOL0     H10212   8.201   3.773   9.072 -0.2647  0.0652 -1.6388
  835MOL0     H10213   8.251   3.625   9.176  0.4076  1.6906  1.4336
  835MOL0     H10214   7.964   3.712   9.107 -0.2861 -0.5351 -1.6380
  835MOL0     H10215   7.998   3.576   9.208 -3.6557  2.3128 -0.5647
  835MOL0     H10216   8.131   3.479   9.004 -1.1541 -1.4010 -1.9352
  835MOL0     H10217   7.952   3.482   8.994 -0.7170  0.3224 -1.6770
  835MOL0     H10218   8.076   3.746   8.681 -4.6474  1.0086  0.8006
  835MOL0     H10219   8.306   3.964   9.124  0.1193  4.2930  0.1355
  835MOL0     H10220   8.531   4.053   9.052 -1.4309  1.4093  0.9051
  836MOL0     O10221   5.357   5.976  10.423 -0.5950 -0.1827  0.6260
  836MOL0     C10222   5.406   6.080  10.467 -0.4647 -0.0461 -0.2300
  836MOL0     O10223   5.336   6.193  10.498 -0.7019  0.2932  0.1513
  836MOL0     C10224   5.204   6.185  10.478  0.3007 -0.6664  0.0172
  836MOL0     C10225   5.116   6.143  10.577  0.4643  0.2975 -0.2743
  836MOL0     C10226   4.979   6.123  10.561 -0.3837 -0.3230 -0.4436
  836MOL0     C10227   4.935   6.153  10.439  0.3624 -0.1144 -0.0528
  836MOL0     O10228   4.797   6.133  10.411  0.4331 -0.1073  0.9610
  836MOL0     C10229   4.703   6.105  10.524 -0.8388  0.3944  0.1109
  836MOL0     C10230   4.558   6.129  10.486 -0.1077 -0.9142  0.2188
  836MOL0     C10231   4.513   6.081  10.340  0.6777 -0.1398 -0.2151
  836MOL0     C10232   4.519   5.926  10.338  0.3208  0.8080 -0.3125
  836MOL0     C10233   4.461   5.851  10.220 -0.4640 -0.2731  0.0973
  836MOL0     C10234   4.456   5.702  10.263  0.2143 -0.0512  0.9033
  836MOL0     C10235   4.376   5.627  10.157  0.7071  0.8705 -0.4626
  836MOL0     C10236   4.374   5.472  10.188  0.0543 -0.1573 -0.1390
  836MOL0     N10237   4.302   5.393  10.080 -0.0926  0.7535  0.3891
  836MOL0     C10238   4.264   5.442   9.958 -0.8512  0.3601  0.4835
  836MOL0     C10239   4.180   5.355   9.909  0.6794  0.4541  0.3917
  836MOL0     C10240   4.130   5.363   9.765 -0.1882 -0.5282 -0.3571
  836MOL0     C10241   3.981   5.334   9.753 -0.1570 -0.6492 -0.0727
  836MOL0     C10242   3.892   5.439   9.818 -0.5351 -0.0057 -0.5508
  836MOL0     C10243   3.759   5.412   9.763  0.0531 -0.7848  0.4421
  836MOL0     O10244   3.668   5.494   9.830  1.1080 -0.4503  0.0481
  836MOL0     C10245   3.609   5.456   9.952  0.0911  0.0947  0.0808
  836MOL0     C10246   3.652   5.354  10.033 -0.4696 -0.2693 -0.7645
  836MOL0     C10247   3.573   5.313  10.142 -0.1079  0.1675  0.6551
  836MOL0     C10248   3.458   5.385  10.178  0.6381  0.0684  0.5373
  836MOL0     C10249   3.359   5.345  10.276 -0.4719  0.6778 -1.2130
  836MOL0     O10250   3.377   5.212  10.334  0.0525 -0.5055  0.6890
  836MOL0     C10251   3.347   5.180  10.463  0.3541  0.1326  0.1810
  836MOL0     C10252   3.433   5.079  10.505 -0.0003 -0.0219 -0.6248
  836MOL0     C10253   3.421   5.024  10.635 -0.3071  0.0938 -0.5442
  836MOL0     C10254   3.316   5.071  10.721 -0.4751  0.3315  0.4124
  836MOL0     O10255   3.283   5.013  10.838 -0.0764  0.2017  0.0688
  836MOL0     C10256   3.343   5.079  10.951  0.5591  0.4202 -0.5317
  836MOL0     C10257   3.296   5.015  11.086 -0.0887 -0.0335  0.9905
  836MOL0     C10258   3.325   4.865  11.096 -0.1609  0.4669  1.2290
  836MOL0     C10259   3.322   4.819  11.242  0.7126  0.6022 -0.1641
  836MOL0     C10260   3.304   4.660  11.256  0.2675 -0.4855 -0.1015
  836MOL0     C10261   3.432   4.587  11.211 -0.4641  0.1004 -0.9555
  836MOL0     C10262   3.416   4.438  11.223  0.3706 -0.2178  0.3947
  836MOL0     C10263   3.517   4.363  11.139 -0.4327 -0.3581 -0.0880
  836MOL0    Cl10264   3.546   4.189  11.182 -0.2652 -0.3957  0.2672
  836MOL0     C10265   3.234   5.184  10.686 -0.2965 -0.2101  0.1556
  836MOL0     C10266   3.257   5.238  10.552 -0.1822  0.4593  0.2999
  836MOL0     O10267   3.262   5.411  10.299  0.1154 -0.2275  0.6588
  836MOL0     C10268   3.425   5.493  10.105  0.3854  0.0335  0.3716
  836MOL0     C10269   3.491   5.529   9.991  0.0913  0.2578 -0.1660
  836MOL0     N10270   4.163   5.252   9.995  0.5221 -1.3065 -0.5516
  836MOL0     N10271   4.228   5.280  10.105 -0.1241 -0.5888  0.3404
  836MOL0     C10272   5.015   6.191  10.328  0.1722 -0.7466  0.0541
  836MOL0     C10273   5.155   6.204  10.340 -0.7206 -1.0873 -0.5369
  836MOL0     C10274   5.552   6.087  10.477 -0.5230 -0.4687 -0.6665
  836MOL0     C10275   5.625   6.212  10.487  0.1770 -0.4985  0.7717
  836MOL0     C10276   5.761   6.208  10.487  0.5805  0.2647 -0.6093
  836MOL0     C10277   5.829   6.086  10.470 -0.2393  0.5092 -1.3442
  836MOL0     O10278   5.967   6.101  10.482  0.5348 -0.1111 -0.5455
  836MOL0     C10279   6.054   5.999  10.443  1.5782 -0.1325 -1.1518
  836MOL0     C10280   6.200   6.017  10.472 -0.0274 -0.4563 -0.3358
  836MOL0     C10281   6.258   6.113  10.362  0.2594 -0.0098 -0.3008
  836MOL0     C10282   6.406   6.105  10.354 -0.7593 -0.6106  0.1648
  836MOL0     C10283   6.457   6.191  10.253 -0.1660 -0.2064 -0.3142
  836MOL0     C10284   6.511   6.269  10.177 -0.1801 -0.1217 -0.7631
  836MOL0     C10285   5.761   5.972  10.470 -0.3415 -0.2976  0.4320
  836MOL0     C10286   5.626   5.973  10.468 -0.4053  0.3477  0.6268
  836MOL0     H10287   5.159   6.123  10.675  2.2099 -0.2489 -1.1169
  836MOL0     H10288   4.924   6.087  10.648  0.9973  1.4237  1.2324
  836MOL0     H10289   4.723   6.175  10.606  0.4306  1.0811 -0.7432
  836MOL0     H10290   4.719   6.002  10.559  1.1325  0.5998 -0.0660
  836MOL0     H10291   4.548   6.238  10.477 -0.4592 -1.0429 -1.2508
  836MOL0     H10292   4.496   6.082  10.563 -1.3662 -1.6979 -1.2277
  836MOL0     H10293   4.565   6.134  10.259 -1.9173  4.0366  0.5506
  836MOL0     H10294   4.407   6.104  10.324  0.7309  0.5769  0.4391
  836MOL0     H10295   4.625   5.899  10.346  0.9796  2.4457 -2.5136
  836MOL0     H10296   4.466   5.883  10.423  2.0687  2.0374  1.5041
  836MOL0     H10297   4.526   5.850  10.132  0.7992 -1.8952  0.9984
  836MOL0     H10298   4.365   5.899  10.196 -0.3805  0.2005  0.6758
  836MOL0     H10299   4.414   5.695  10.364  2.1990  2.9023  2.0582
  836MOL0     H10300   4.553   5.654  10.254 -0.8868 -2.0423 -1.7643
  836MOL0     H10301   4.275   5.669  10.169 -0.2604 -1.5495  0.4046
  836MOL0     H10302   4.417   5.653  10.059  4.0537  4.2710  1.5726
  836MOL0     H10303   4.321   5.449  10.280 -1.1060 -3.2522 -1.4492
  836MOL0     H10304   4.478   5.441  10.202 -0.2671 -1.2517 -0.0805
  836MOL0     H10305   4.311   5.522   9.902  0.1780 -1.8142 -1.9967
  836MOL0     H10306   4.185   5.289   9.707 -0.2461  0.9578 -2.4231
  836MOL0     H10307   4.144   5.466   9.730  1.3478 -0.4724  0.3622
  836MOL0     H10308   3.970   5.229   9.780 -1.2137 -0.2219  1.2815
  836MOL0     H10309   3.965   5.341   9.645 -0.8861  1.1272  0.1158
  836MOL0     H10310   3.886   5.432   9.927 -2.0438  0.7927 -0.5502
  836MOL0     H10311   3.922   5.541   9.792 -0.0980 -0.7344 -3.1816
  836MOL0     H10312   3.728   5.308   9.770  1.0882 -0.9905  3.2178
  836MOL0     H10313   3.754   5.443   9.658  1.2857 -1.5859  0.1331
  836MOL0     H10314   3.737   5.296  10.000 -1.5475 -1.2958 -1.8597
  836MOL0     H10315   3.589   5.223  10.199  0.2748 -0.1627  0.0357
  836MOL0     H10316   3.498   5.039  10.427  1.1323  2.0575 -0.8218
  836MOL0     H10317   3.484   4.949  10.683 -1.9853  2.5647  6.8039
  836MOL0     H10318   3.325   5.187  10.954  1.6666  0.6209 -0.8429
  836MOL0     H10319   3.452   5.072  10.947  0.6687 -0.7557  2.2110
  836MOL0     H10320   3.190   5.039  11.098  0.5555  3.5269  0.8334
  836MOL0     H10321   3.355   5.068  11.161 -2.7615 -0.4720  3.5669
  836MOL0     H10322   3.426   4.841  11.063 -0.6188 -0.2444  0.2845
  836MOL0     H10323   3.255   4.797  11.046 -0.0691  0.6784  0.8106
  836MOL0     H10324   3.410   4.851  11.299 -0.6034  3.1778  0.6176
  836MOL0     H10325   3.236   4.865  11.292 -1.0058 -2.5062 -0.0278
  836MOL0     H10326   3.221   4.623  11.194 -1.1691  0.9069  0.9285
  836MOL0     H10327   3.279   4.615  11.352 -1.9215 -1.7630 -1.1841
  836MOL0     H10328   3.511   4.617  11.280 -0.3309 -1.5191 -0.3531
  836MOL0     H10329   3.455   4.600  11.105  2.6218 -1.3674 -0.5762
  836MOL0     H10330   3.430   4.405  11.327  1.0995  0.8737  0.6669
  836MOL0     H10331   3.313   4.411  11.198 -0.5001  2.1704  1.0560
  836MOL0     H10332   3.611   4.417  11.151 -0.0913 -1.2044  1.2521
  836MOL0     H10333   3.484   4.365  11.035  0.4284  1.2647 -0.3595
  836MOL0     H10334   3.161   5.211  10.761  0.8582  0.9062  0.9396
  836MOL0     H10335   3.198   5.316  10.506 -0.1279 -0.5577 -1.5857
  836MOL0     H10336   3.335   5.553  10.113 -1.1414 -1.8267 -1.6099
  836MOL0     H10337   3.454   5.622   9.950 -1.1645 -0.1784 -0.0610
  836MOL0     H10338   4.989   6.211  10.224 -3.4264  0.7984  1.0945
  836MOL0     H10339   5.226   6.212  10.259 -0.8067 -0.8579 -0.5882
  836MOL0     H10340   5.578   6.309  10.497  0.9607 -0.0657  0.4285
  836MOL0     H10341   5.815   6.298  10.516 -2.3048  1.3061  2.1865
  836MOL0     H10342   6.056   5.984  10.335  1.8934 -2.3788 -0.8745
  836MOL0     H10343   6.026   5.907  10.494 -1.0185  0.2383 -1.8072
  836MOL0     H10344   6.217   6.057  10.572  1.5931 -0.1816 -0.6864
  836MOL0     H10345   6.248   5.919  10.463  1.0609  0.1514 -1.6368
  836MOL0     H10346   6.242   6.220  10.381  2.7024  0.1209  1.5753
  836MOL0     H10347   6.224   6.079  10.264  0.0518 -0.6313 -0.0192
  836MOL0     H10348   6.460   6.129  10.446  0.1526  3.1218 -1.1597
  836MOL0     H10349   6.418   6.001  10.324  0.9778 -0.1972 -0.6758
  836MOL0     H10350   6.561   6.341  10.115  0.8596 -2.2901 -2.6014
  836MOL0     H10351   5.813   5.883  10.501  0.0491 -0.0088  0.6153
  836MOL0     H10352   5.583   5.873  10.468  1.0891 -0.3303 -0.2061
  837MOL0     O10353   4.363   8.586   1.844  0.4762 -0.3144 -0.3967
  837MOL0     C10354   4.378   8.663   1.940  0.4118  0.6930  0.6628
  837MOL0     O10355   4.358   8.630   2.071 -0.3900 -0.9078  0.8369
  837MOL0     C10356   4.295   8.513   2.096 -0.8847 -0.0120  0.1604
  837MOL0     C10357   4.362   8.396   2.066 -0.8772  0.3249  0.3327
  837MOL0     C10358   4.297   8.274   2.103  0.7648 -0.4304  0.4861
  837MOL0     C10359   4.169   8.278   2.167 -0.1920 -0.2108 -0.5974
  837MOL0     O10360   4.105   8.156   2.190  0.2219 -0.6493 -0.0177
  837MOL0     C10361   3.975   8.137   2.256  0.7149  0.5898  0.3026
  837MOL0     C10362   3.984   8.164   2.399 -0.0335 -0.3375 -0.3198
  837MOL0     C10363   3.852   8.156   2.486  0.2204 -0.2495  1.2163
  837MOL0     C10364   3.898   8.156   2.632  0.8617 -0.9022  0.4168
  837MOL0     C10365   3.774   8.150   2.719 -0.1918  0.1567  0.3294
  837MOL0     C10366   3.811   8.169   2.873  0.7491  0.5620  0.1168
  837MOL0     C10367   3.706   8.115   2.965 -0.3794 -0.0194  0.1302
  837MOL0     C10368   3.771   8.087   3.095 -0.6522 -0.4190 -1.1375
  837MOL0     N10369   3.696   8.148   3.205 -0.0148 -0.3102  0.0888
  837MOL0     C10370   3.660   8.275   3.220  0.6211 -0.2274 -0.4082
  837MOL0     C10371   3.581   8.288   3.328 -0.0296  0.4735 -0.4273
  837MOL0     C10372   3.524   8.413   3.386 -0.0616  0.3253 -0.3798
  837MOL0     C10373   3.380   8.409   3.369  0.7597 -0.0432 -0.2298
  837MOL0     C10374   3.347   8.458   3.221 -0.1682  0.1171  0.7872
  837MOL0     C10375   3.196   8.493   3.192 -0.5583  0.5196  0.2200
  837MOL0     O10376   3.158   8.592   3.289 -0.1938  0.2516 -0.4071
  837MOL0     C10377   3.025   8.599   3.310 -0.2100 -0.6040 -0.4719
  837MOL0     C10378   2.922   8.549   3.228 -0.2173  0.0751 -0.0409
  837MOL0     C10379   2.794   8.557   3.276  0.1533 -0.0124  0.6125
  837MOL0     C10380   2.763   8.605   3.408 -1.5185 -0.4257 -0.3894
  837MOL0     C10381   2.623   8.601   3.455  0.2880 -0.3684 -0.2794
  837MOL0     O10382   2.525   8.619   3.361 -0.2625  0.4161  0.1489
  837MOL0     C10383   2.398   8.654   3.407 -0.0588 -0.5163 -0.2834
  837MOL0     C10384   2.305   8.556   3.435  0.1931 -0.0984  0.4216
  837MOL0     C10385   2.170   8.587   3.448  0.0732 -0.4238 -0.0060
  837MOL0     C10386   2.127   8.719   3.422 -0.5853 -0.0631  0.7674
  837MOL0     O10387   1.996   8.757   3.424  0.0928 -0.5935  0.4040
  837MOL0     C10388   1.942   8.787   3.553 -0.0145 -0.6287  0.2342
  837MOL0     C10389   1.797   8.778   3.540 -0.0604  0.3470 -0.0369
  837MOL0     C10390   1.738   8.645   3.492  0.6430  0.2051 -0.0983
  837MOL0     C10391   1.712   8.545   3.608 -1.1060 -0.0692  1.0713
  837MOL0     C10392   1.676   8.396   3.570 -0.3102 -0.3895 -0.2779
  837MOL0     C10393   1.579   8.369   3.452  1.8249  0.5205  0.3124
  837MOL0     C10394   1.434   8.428   3.469 -0.1014 -0.6874 -0.5065
  837MOL0     C10395   1.350   8.374   3.581  1.0185  0.6687  0.8515
  837MOL0    Cl10396   1.196   8.464   3.579 -0.4723 -0.7260  0.1994
  837MOL0     C10397   2.226   8.820   3.397 -0.0484  0.3029  0.3598
  837MOL0     C10398   2.358   8.789   3.388 -0.1689 -0.8303 -0.5688
  837MOL0     O10399   2.605   8.602   3.577 -0.5925  0.8046  0.8165
  837MOL0     C10400   2.870   8.645   3.488 -0.3196  0.7036 -0.6485
  837MOL0     C10401   2.997   8.647   3.430  1.1394  0.1378 -0.6155
  837MOL0     N10402   3.578   8.168   3.384  0.2254  0.5532  0.4278
  837MOL0     N10403   3.647   8.091   3.314  0.6151 -0.3811  0.2764
  837MOL0     C10404   4.104   8.399   2.190 -0.4328 -0.6961  0.2982
  837MOL0     C10405   4.169   8.519   2.158  0.3340  0.5865 -0.0231
  837MOL0     C10406   4.416   8.805   1.920  0.0661 -1.1260  1.5699
  837MOL0     C10407   4.427   8.894   2.020  0.3480 -0.3502 -0.0289
  837MOL0     C10408   4.472   9.025   2.002 -0.2432 -0.1456 -0.4828
  837MOL0     C10409   4.510   9.069   1.877  1.1194  0.4256 -0.5390
  837MOL0     O10410   4.544   9.195   1.868  0.4776 -0.2631 -0.7219
  837MOL0     C10411   4.653   9.227   1.778 -0.3946 -0.0413  0.1644
  837MOL0     C10412   4.612   9.344   1.700 -0.3132  0.7035 -0.5638
  837MOL0     C10413   4.672   9.357   1.567  0.7361 -0.4298  0.3815
  837MOL0     C10414   4.820   9.422   1.571  0.1014  0.5229  0.0123
  837MOL0     C10415   4.925   9.320   1.581 -0.2109  0.2817 -0.0359
  837MOL0     C10416   5.038   9.267   1.588  0.3355  0.4210  0.2432
  837MOL0     C10417   4.488   8.977   1.771  0.9771  0.4578  0.1657
  837MOL0     C10418   4.435   8.848   1.789 -0.7842 -0.2066  0.5010
  837MOL0     H10419   4.451   8.391   2.004 -0.7556  0.4807  0.4935
  837MOL0     H10420   4.339   8.179   2.070 -1.3961 -1.4324  0.4941
  837MOL0     H10421   3.933   8.041   2.224  0.2610  1.4729 -1.8935
  837MOL0     H10422   3.910   8.216   2.218  0.5519  0.3499  0.0805
  837MOL0     H10423   4.021   8.267   2.407 -0.8554 -0.0121 -0.6609
  837MOL0     H10424   4.057   8.093   2.439 -0.8485 -0.2787  1.3706
  837MOL0     H10425   3.805   8.064   2.450  2.8935 -0.4850 -2.2656
  837MOL0     H10426   3.779   8.234   2.465  0.9605  0.6138  1.7332
  837MOL0     H10427   3.977   8.081   2.639  5.6030  3.5449 -0.1028
  837MOL0     H10428   3.940   8.256   2.640 -0.4854 -0.4066  1.8980
  837MOL0     H10429   3.725   8.054   2.705  0.0889 -0.2275  1.7864
  837MOL0     H10430   3.704   8.231   2.696  1.8711  1.1013 -3.5439
  837MOL0     H10431   3.808   8.277   2.894 -1.0094  0.4498  0.6006
  837MOL0     H10432   3.911   8.131   2.894  0.5535 -0.3932 -0.6558
  837MOL0     H10433   3.624   8.188   2.964 -1.6427 -1.3913 -1.6542
  837MOL0     H10434   3.669   8.019   2.928 -3.7533  1.2866 -0.2452
  837MOL0     H10435   3.875   8.121   3.101 -1.1081  0.8401  0.7907
  837MOL0     H10436   3.782   7.979   3.109  0.9485 -0.0971  0.5314
  837MOL0     H10437   3.683   8.364   3.162  1.1125 -0.1925 -0.1725
  837MOL0     H10438   3.573   8.500   3.343  2.2712  0.8993  3.0918
  837MOL0     H10439   3.550   8.418   3.492  4.1205  2.9333 -1.3303
  837MOL0     H10440   3.333   8.468   3.447  0.5745  1.3226 -1.3317
  837MOL0     H10441   3.322   8.316   3.372 -2.6433  1.9314  0.5093
  837MOL0     H10442   3.385   8.560   3.213  0.1556 -0.0265  0.4760
  837MOL0     H10443   3.404   8.396   3.151  1.8788  0.9194  1.6597
  837MOL0     H10444   3.143   8.399   3.210  1.0257 -0.3451  0.4693
  837MOL0     H10445   3.190   8.531   3.089 -0.9771  0.6088  0.2756
  837MOL0     H10446   2.945   8.519   3.126  0.9823 -3.5961  1.1657
  837MOL0     H10447   2.717   8.523   3.208  2.3469  2.1638 -3.3724
  837MOL0     H10448   2.339   8.453   3.441 -1.0645 -0.7571 -2.1249
  837MOL0     H10449   2.091   8.515   3.469 -0.9588  0.1562 -1.6334
  837MOL0     H10450   1.969   8.885   3.595 -1.5488 -0.7369  1.5831
  837MOL0     H10451   1.988   8.717   3.624 -1.5777  0.2337  2.2091
  837MOL0     H10452   1.757   8.867   3.490 -0.9014  1.5392  2.5908
  837MOL0     H10453   1.774   8.792   3.646  1.3698  4.3216 -0.0679
  837MOL0     H10454   1.806   8.589   3.427 -0.2604 -1.6180  0.4373
  837MOL0     H10455   1.643   8.658   3.439  0.4985  1.0310  0.3478
  837MOL0     H10456   1.806   8.553   3.665 -0.6011  0.9165  0.1242
  837MOL0     H10457   1.642   8.584   3.683  0.3762 -0.0371  2.4992
  837MOL0     H10458   1.634   8.352   3.661  0.0628 -2.5885 -1.1179
  837MOL0     H10459   1.769   8.352   3.534  0.8712  2.6644 -1.2776
  837MOL0     H10460   1.572   8.266   3.414  2.3787  0.6327 -0.0980
  837MOL0     H10461   1.624   8.429   3.373  4.4930 -3.0023 -1.1366
  837MOL0     H10462   1.429   8.537   3.481 -0.9783 -0.7259 -0.3982
  837MOL0     H10463   1.374   8.403   3.381  1.2745 -0.3392 -1.5614
  837MOL0     H10464   1.397   8.390   3.678  1.7066  0.8980  0.4833
  837MOL0     H10465   1.320   8.271   3.560  1.4372  0.3214  1.8959
  837MOL0     H10466   2.188   8.920   3.379  2.1979  1.5053  1.8571
  837MOL0     H10467   2.424   8.871   3.361 -0.9830 -0.4427 -1.4298
  837MOL0     H10468   2.845   8.680   3.588  1.0259  1.5352 -0.5807
  837MOL0     H10469   3.077   8.698   3.483  0.7519  1.8824 -1.6327
  837MOL0     H10470   4.001   8.408   2.222 -0.4607  1.2231 -0.1691
  837MOL0     H10471   4.118   8.614   2.170 -2.5786 -0.6712 -1.5815
  837MOL0     H10472   4.408   8.868   2.124  2.2154 -2.0055 -0.0404
  837MOL0     H10473   4.492   9.093   2.084 -1.1972  0.8360 -1.0359
  837MOL0     H10474   4.689   9.147   1.712 -2.3053  0.3975 -1.5120
  837MOL0     H10475   4.736   9.258   1.842 -0.9285  1.3502  0.2052
  837MOL0     H10476   4.506   9.335   1.673 -0.5155  1.2159  0.0386
  837MOL0     H10477   4.624   9.435   1.759 -0.0392  0.2354  0.1342
  837MOL0     H10478   4.610   9.435   1.521  1.0381 -0.6405 -0.3925
  837MOL0     H10479   4.682   9.267   1.507  4.1157 -1.0897  1.6757
  837MOL0     H10480   4.841   9.476   1.478  0.7430  0.4713  0.1291
  837MOL0     H10481   4.837   9.495   1.651  2.1513  0.6200 -0.4706
  837MOL0     H10482   5.135   9.223   1.602  0.3782 -0.6349 -2.7237
  837MOL0     H10483   4.497   9.006   1.666  1.7817  0.5491  0.2519
  837MOL0     H10484   4.417   8.774   1.712 -0.3871  0.2378 -0.0233
  838MOL0     O10485   3.971   8.085   3.963 -0.2607 -0.8102  0.1467
  838MOL0     C10486   4.070   8.096   4.037  0.6709 -0.0817 -0.5180
  838MOL0     O10487   4.194   8.037   4.016 -1.0157  0.0447 -0.1839
  838MOL0     C10488   4.195   7.944   3.924  0.6104 -1.1065  0.2128
  838MOL0     C10489   4.117   7.829   3.938  0.2075  0.3892 -0.3037
  838MOL0     C10490   4.130   7.722   3.857  0.7596  0.0669 -0.7581
  838MOL0     C10491   4.231   7.714   3.757  0.3167  0.9525  0.4187
  838MOL0     O10492   4.246   7.598   3.677  0.4980  0.3420 -0.0141
  838MOL0     C10493   4.370   7.575   3.600 -0.4754 -0.2390  0.4952
  838MOL0     C10494   4.356   7.448   3.520 -0.5166  0.5105  0.9402
  838MOL0     C10495   4.455   7.450   3.394 -0.0179 -0.8884  0.1577
  838MOL0     C10496   4.470   7.316   3.327  0.4919  0.6399  0.6508
  838MOL0     C10497   4.363   7.277   3.235  0.2756 -0.6016  0.5753
  838MOL0     C10498   4.386   7.139   3.175 -0.2151 -0.9158  0.0790
  838MOL0     C10499   4.253   7.083   3.113 -0.1654  0.0808 -0.1327
  838MOL0     C10500   4.267   6.943   3.045 -0.3755 -0.1968 -1.2584
  838MOL0     N10501   4.330   6.849   3.143  0.0449  1.1964 -0.2896
  838MOL0     C10502   4.450   6.783   3.137  1.1707  0.1235 -0.2540
  838MOL0     C10503   4.466   6.700   3.242 -0.2949  0.5087  0.8762
  838MOL0     C10504   4.590   6.629   3.250 -0.6418  0.6204  0.4210
  838MOL0     C10505   4.662   6.645   3.387  0.3936  0.4914 -0.2959
  838MOL0     C10506   4.791   6.573   3.392 -0.8212  0.0302 -0.0152
  838MOL0     C10507   4.841   6.573   3.535  0.9797  0.8860  0.4700
  838MOL0     O10508   4.734   6.533   3.622 -0.0076 -0.4456 -0.4120
  838MOL0     C10509   4.758   6.570   3.749 -0.5381 -0.2376 -0.2748
  838MOL0     C10510   4.775   6.471   3.838 -0.8696 -0.3671  0.3027
  838MOL0     C10511   4.801   6.495   3.973  0.1020 -0.6058 -0.5809
  838MOL0     C10512   4.812   6.628   4.018 -0.2357 -0.0627 -0.1335
  838MOL0     C10513   4.862   6.667   4.150  0.6383 -0.4492 -0.4397
  838MOL0     O10514   4.877   6.802   4.189  0.0445 -0.6032 -0.2222
  838MOL0     C10515   4.940   6.818   4.308 -0.3958 -0.0521  0.2222
  838MOL0     C10516   4.863   6.839   4.424  0.1957  1.6899 -0.3809
  838MOL0     C10517   4.931   6.849   4.543  0.3402  0.2793  0.3815
  838MOL0     C10518   5.071   6.848   4.555  0.3235 -0.4124  0.1545
  838MOL0     O10519   5.132   6.893   4.668  1.8899  0.3368 -0.8574
  838MOL0     C10520   5.188   6.792   4.754 -0.8693 -0.0278 -0.3756
  838MOL0     C10521   5.186   6.852   4.898 -0.3557  0.4872  0.7464
  838MOL0     C10522   5.290   6.968   4.915 -0.9921  0.3044 -0.4028
  838MOL0     C10523   5.292   7.042   5.050  0.2972  0.1443  0.1368
  838MOL0     C10524   5.385   7.154   5.080  0.7425 -0.6475 -0.8523
  838MOL0     C10525   5.503   7.131   5.174 -0.3579 -0.2283  0.1791
  838MOL0     C10526   5.610   7.061   5.098  0.1899 -0.3843 -0.2003
  838MOL0     C10527   5.748   7.086   5.151 -0.4126 -1.0864 -0.5963
  838MOL0    Cl10528   5.784   7.262   5.122 -0.4205 -0.0953  0.1528
  838MOL0     C10529   5.145   6.828   4.438  0.1892 -0.4801  0.2985
  838MOL0     C10530   5.080   6.805   4.315 -1.0031  0.6675 -0.0093
  838MOL0     O10531   4.876   6.575   4.223  0.3931  0.7917  0.0109
  838MOL0     C10532   4.778   6.731   3.926 -0.3914  0.2287 -0.1398
  838MOL0     C10533   4.771   6.701   3.796  0.0316  0.4208  0.7312
  838MOL0     N10534   4.359   6.730   3.329  0.2513 -0.1119 -0.3497
  838MOL0     N10535   4.277   6.807   3.267  0.2936 -0.0517  0.9047
  838MOL0     C10536   4.319   7.822   3.744 -0.2429  0.4035  0.5405
  838MOL0     C10537   4.298   7.941   3.823  0.0673 -0.1490  0.0616
  838MOL0     C10538   4.047   8.173   4.167 -0.3762  0.6531  0.2991
  838MOL0     C10539   4.160   8.237   4.236 -0.5148 -0.2631  0.1995
  838MOL0     C10540   4.128   8.305   4.347 -0.2651 -0.5012 -0.2125
  838MOL0     C10541   3.994   8.305   4.395  0.0692 -0.3596  0.3535
  838MOL0     O10542   3.978   8.356   4.522  0.4675 -0.1564 -0.5521
  838MOL0     C10543   3.865   8.322   4.607 -0.1535  0.2715 -0.3236
  838MOL0     C10544   3.881   8.182   4.663  0.2694  0.6363 -0.3791
  838MOL0     C10545   3.995   8.163   4.767 -0.7275 -0.0136  0.3753
  838MOL0     C10546   4.051   8.016   4.774  0.2135  0.1746 -0.1948
  838MOL0     C10547   3.935   7.934   4.827  0.0558  0.1206 -0.4291
  838MOL0     C10548   3.829   7.877   4.858 -0.3549  0.1363  1.0198
  838MOL0     C10549   3.889   8.266   4.321 -0.2962 -0.4601  0.4503
  838MOL0     C10550   3.912   8.191   4.205  0.3287 -0.0010 -0.0108
  838MOL0     H10551   4.054   7.807   4.023 -0.3621 -2.5061 -1.3576
  838MOL0     H10552   4.081   7.627   3.875  1.3394 -0.3062 -1.1170
  838MOL0     H10553   4.455   7.554   3.665  0.1283 -0.0737 -0.2291
  838MOL0     H10554   4.391   7.660   3.535  1.4690 -1.3408 -0.4073
  838MOL0     H10555   4.253   7.433   3.487  0.0441  1.0917 -1.1935
  838MOL0     H10556   4.381   7.361   3.582  0.9934 -0.5691 -1.0650
  838MOL0     H10557   4.549   7.474   3.444 -1.0258  4.5765  0.0112
  838MOL0     H10558   4.425   7.533   3.329 -0.4797 -0.8313  0.4372
  838MOL0     H10559   4.573   7.313   3.288  0.4586 -2.2311  0.5313
  838MOL0     H10560   4.470   7.242   3.408  0.2188 -0.4603 -0.3228
  838MOL0     H10561   4.367   7.350   3.154  3.5669 -2.0444 -0.7224
  838MOL0     H10562   4.271   7.281   3.294 -0.7868 -2.0938 -0.8902
  838MOL0     H10563   4.417   7.089   3.267  1.5483  2.4843  1.5270
  838MOL0     H10564   4.456   7.146   3.092 -2.7041  1.5751 -2.0064
  838MOL0     H10565   4.197   7.061   3.204  0.5159 -1.6073 -0.0909
  838MOL0     H10566   4.200   7.145   3.040 -2.7442  0.8878  2.2141
  838MOL0     H10567   4.326   6.943   2.953  1.2081  0.0520 -0.2911
  838MOL0     H10568   4.166   6.907   3.022 -0.6474 -0.9380  0.8918
  838MOL0     H10569   4.514   6.805   3.052  0.5373  0.7332 -0.5841
  838MOL0     H10570   4.665   6.662   3.177  0.4809 -0.7392  0.9125
  838MOL0     H10571   4.567   6.522   3.249  1.8210  0.0034  1.3894
  838MOL0     H10572   4.593   6.605   3.462  2.8249 -2.3858  0.6073
  838MOL0     H10573   4.670   6.748   3.424  0.1951 -0.2653  2.0567
  838MOL0     H10574   4.767   6.468   3.374  0.0565  0.0696 -1.6382
  838MOL0     H10575   4.866   6.620   3.327  2.8833 -3.8405  0.9960
  838MOL0     H10576   4.889   6.668   3.560  1.6149  1.2572 -1.8893
  838MOL0     H10577   4.922   6.499   3.541  1.4368  1.1371 -1.6853
  838MOL0     H10578   4.765   6.366   3.812 -2.4844 -0.1704 -0.0307
  838MOL0     H10579   4.809   6.411   4.042  0.9110 -0.8469 -0.9590
  838MOL0     H10580   4.758   6.815   4.411 -0.1722 -0.5172  4.4987
  838MOL0     H10581   4.880   6.883   4.633  0.9386 -2.1574  1.7114
  838MOL0     H10582   5.293   6.785   4.726 -0.2683 -0.2335  1.7465
  838MOL0     H10583   5.149   6.689   4.750 -0.4609 -0.1756 -0.6792
  838MOL0     H10584   5.202   6.773   4.973 -2.2472 -0.2183  0.4659
  838MOL0     H10585   5.084   6.880   4.927 -1.0000  0.2534 -1.1416
  838MOL0     H10586   5.258   7.039   4.839  2.4959  2.7159  0.1451
  838MOL0     H10587   5.394   6.944   4.894 -0.0239  1.0660  2.9465
  838MOL0     H10588   5.192   7.080   5.076  0.6525  2.7734 -1.9502
  838MOL0     H10589   5.319   6.958   5.116  1.2709 -1.0511 -1.7154
  838MOL0     H10590   5.328   7.224   5.143  2.0121  1.9577 -2.4099
  838MOL0     H10591   5.413   7.219   4.997  5.2408  2.5061  2.6473
  838MOL0     H10592   5.475   7.063   5.255 -0.6625 -0.0575  0.2197
  838MOL0     H10593   5.548   7.221   5.217  0.5886 -1.1256  1.1398
  838MOL0     H10594   5.593   6.954   5.089  0.5462 -0.6686  2.0193
  838MOL0     H10595   5.611   7.103   4.996 -2.2765  2.7173  0.8981
  838MOL0     H10596   5.821   7.018   5.105  0.0558 -0.1849 -1.2135
  838MOL0     H10597   5.755   7.060   5.257 -1.7802 -2.6043 -0.8470
  838MOL0     H10598   5.253   6.829   4.444  0.1692 -2.2422  1.6908
  838MOL0     H10599   5.126   6.791   4.218  2.0944 -0.8960  1.5379
  838MOL0     H10600   4.787   6.838   3.943 -0.0219  0.4904 -1.8166
  838MOL0     H10601   4.783   6.792   3.739  3.1698  2.3646  4.0776
  838MOL0     H10602   4.394   7.831   3.666 -1.5226  2.8382 -0.5376
  838MOL0     H10603   4.367   8.024   3.812 -0.4649  0.2544 -0.3098
  838MOL0     H10604   4.259   8.244   4.192 -1.8238  3.3995 -2.7298
  838MOL0     H10605   4.215   8.356   4.388 -1.4609  1.9714 -0.5853
  838MOL0     H10606   3.763   8.333   4.569 -1.2780 -0.2259  2.3256
  838MOL0     H10607   3.865   8.392   4.692  0.2264  2.5749 -2.1207
  838MOL0     H10608   3.785   8.149   4.706 -0.1124  0.5758 -1.2504
  838MOL0     H10609   3.896   8.110   4.582 -1.4889 -0.5730  0.3135
  838MOL0     H10610   3.968   8.201   4.866 -2.8531  1.7640 -0.7858
  838MOL0     H10611   4.072   8.219   4.713 -1.2256 -0.0644 -0.4121
  838MOL0     H10612   4.082   7.989   4.673 -0.6831  1.0293 -0.7178
  838MOL0     H10613   4.140   8.012   4.837 -0.4527  0.6939  0.7960
  838MOL0     H10614   3.729   7.841   4.867  0.0367 -0.7349  2.1044
  838MOL0     H10615   3.787   8.280   4.356 -0.0546 -1.4120  1.6102
  838MOL0     H10616   3.833   8.154   4.141 -0.3929  1.1039  0.2177
  839MOL0     O10617   7.118  11.188   0.801  0.0824 -0.5607 -0.4162
  839MOL0     C10618   7.163  11.157   0.914  0.1755  0.5947  1.5361
  839MOL0     O10619   7.105  11.195   1.042  0.3765  0.6050  1.3803
  839MOL0     C10620   6.998  11.280   1.049 -0.0847 -0.0283 -0.1007
  839MOL0     C10621   6.906  11.246   1.145  0.8397 -0.1498  0.4784
  839MOL0     C10622   6.796  11.323   1.163  0.4233  0.3831 -0.4167
  839MOL0     C10623   6.766  11.442   1.096  0.1946  1.2058 -0.5225
  839MOL0     O10624   6.658  11.523   1.121 -0.6131 -0.1245 -0.4797
  839MOL0     C10625   6.549  11.463   1.193  0.2621 -0.3933 -1.1477
  839MOL0     C10626   6.430  11.561   1.158 -0.8771  0.7000  0.5587
  839MOL0     C10627   6.305  11.578   1.246 -0.1704  0.5282  0.2911
  839MOL0     C10628   6.191  11.675   1.183  1.0408  0.1540  0.1819
  839MOL0     C10629   6.077  11.695   1.284 -0.9070 -0.3091  0.1458
  839MOL0     C10630   6.016  11.560   1.331 -1.3904  0.0945 -0.6371
  839MOL0     C10631   5.884  11.578   1.409  0.4436  0.6521 -0.7859
  839MOL0     C10632   5.844  11.453   1.498 -0.0886 -0.0015 -0.3399
  839MOL0     N10633   5.722  11.474   1.576  0.3654 -0.5291 -0.1515
  839MOL0     C10634   5.657  11.372   1.646 -0.8225 -0.7779  0.1711
  839MOL0     C10635   5.561  11.438   1.711 -0.0862 -0.1302 -0.0119
  839MOL0     C10636   5.458  11.380   1.806  0.0442 -0.2845 -0.2091
  839MOL0     C10637   5.498  11.409   1.956  0.8133 -0.3778 -0.1755
  839MOL0     C10638   5.610  11.315   2.001 -0.2192  0.1832  0.1446
  839MOL0     C10639   5.643  11.326   2.146  0.7415  0.1932  0.2825
  839MOL0     O10640   5.738  11.218   2.175  0.5325 -0.2705 -0.6786
  839MOL0     C10641   5.873  11.229   2.153 -0.8381  0.1470  0.3817
  839MOL0     C10642   5.957  11.120   2.177  0.6022 -0.1943 -0.2657
  839MOL0     C10643   6.093  11.122   2.147 -0.7055  0.4016  0.0881
  839MOL0     C10644   6.149  11.223   2.074 -0.1106 -0.3210 -0.4768
  839MOL0     C10645   6.292  11.214   2.039  0.5822  0.0934 -0.8223
  839MOL0     O10646   6.369  11.112   2.093 -0.3547 -0.0323  0.1570
  839MOL0     C10647   6.502  11.130   2.092  0.2393 -0.5100  0.8381
  839MOL0     C10648   6.558  11.239   2.140 -0.0401  0.2053 -0.2654
  839MOL0     C10649   6.696  11.254   2.155  0.2071 -0.1971  0.4641
  839MOL0     C10650   6.787  11.162   2.111  0.5265 -0.0354  0.7306
  839MOL0     O10651   6.922  11.187   2.111 -0.4536 -0.3989  0.4931
  839MOL0     C10652   7.001  11.137   2.002  0.0547 -0.7189  0.1421
  839MOL0     C10653   7.139  11.191   2.039 -0.4122  0.5016 -1.2140
  839MOL0     C10654   7.244  11.131   1.941  0.2195  0.1709 -0.0332
  839MOL0     C10655   7.380  11.188   1.955 -0.0593 -0.2218  0.2541
  839MOL0     C10656   7.474  11.103   1.869  0.5727  0.1816  0.3391
  839MOL0     C10657   7.626  11.147   1.873  0.1851 -0.7193 -0.5879
  839MOL0     C10658   7.709  11.085   1.757 -0.4686 -0.9061 -0.1628
  839MOL0     C10659   7.733  10.936   1.775  0.4179  0.0998 -0.2445
  839MOL0    Cl10660   7.825  10.900   1.926 -0.2732 -0.3461 -0.5118
  839MOL0     C10661   6.733  11.047   2.061  0.1383 -0.0473  0.3944
  839MOL0     C10662   6.592  11.033   2.056 -0.1861  0.1635 -0.1985
  839MOL0     O10663   6.329  11.297   1.958 -0.2456  0.0174 -0.0278
  839MOL0     C10664   6.068  11.336   2.032  0.5939  0.1580  0.0532
  839MOL0     C10665   5.931  11.327   2.067 -0.0610 -1.0008 -1.2375
  839MOL0     N10666   5.572  11.575   1.696 -0.0910  0.6688 -0.8596
  839MOL0     N10667   5.665  11.603   1.605  0.0105  0.1459 -0.4006
  839MOL0     C10668   6.850  11.469   0.986  0.0446 -0.0405  0.2703
  839MOL0     C10669   6.962  11.383   0.963  0.5782 -0.4551 -0.2603
  839MOL0     C10670   7.263  11.051   0.916  0.1019  0.0394  0.7882
  839MOL0     C10671   7.328  11.017   1.033 -0.0878  0.9343 -0.8441
  839MOL0     C10672   7.428  10.914   1.030 -0.1683  0.1856  0.8201
  839MOL0     C10673   7.462  10.844   0.919  0.8384  0.0218 -0.2873
  839MOL0     O10674   7.553  10.743   0.901  0.0927  0.5194 -0.1512
  839MOL0     C10675   7.618  10.698   1.012  0.9177 -0.5269 -0.5503
  839MOL0     C10676   7.730  10.613   0.959  0.0967 -0.6525  0.2277
  839MOL0     C10677   7.838  10.575   1.053 -1.1156  0.0384  0.6038
  839MOL0     C10678   7.948  10.503   0.981  0.4359  0.1847 -0.0847
  839MOL0     C10679   7.899  10.365   0.937 -0.0006  0.4728 -1.4415
  839MOL0     C10680   7.880  10.248   0.924 -0.0277 -0.1184 -0.5459
  839MOL0     C10681   7.392  10.876   0.803 -0.4421 -0.1975  0.0921
  839MOL0     C10682   7.295  10.976   0.799  0.7857  0.9416 -0.0098
  839MOL0     H10683   6.924  11.165   1.215 -0.5586 -0.3725  0.5908
  839MOL0     H10684   6.738  11.299   1.251  0.6722  2.4503  0.3626
  839MOL0     H10685   6.569  11.460   1.300 -1.4949 -1.0539 -0.7934
  839MOL0     H10686   6.535  11.357   1.169 -1.7238 -0.1182 -1.4423
  839MOL0     H10687   6.395  11.536   1.057 -3.2224 -1.2651  1.7700
  839MOL0     H10688   6.467  11.663   1.141  0.7909 -0.0273 -0.4013
  839MOL0     H10689   6.346  11.619   1.338  0.0567  0.7270  0.1037
  839MOL0     H10690   6.262  11.480   1.268  2.5977 -1.1230 -1.1104
  839MOL0     H10691   6.235  11.771   1.155  0.3193  0.0045 -1.6058
  839MOL0     H10692   6.164  11.628   1.088  4.3751 -2.4769  0.3360
  839MOL0     H10693   6.004  11.761   1.237 -0.4354 -0.5635 -0.9944
  839MOL0     H10694   6.121  11.752   1.366  0.5964  2.2186 -2.2391
  839MOL0     H10695   6.092  11.506   1.388 -1.0277 -2.5481 -3.3973
  839MOL0     H10696   5.991  11.505   1.240 -0.6460  1.3782 -1.6455
  839MOL0     H10697   5.892  11.665   1.476 -1.6036  0.2759  0.0160
  839MOL0     H10698   5.798  11.578   1.342 -0.1335 -1.0159 -0.1018
  839MOL0     H10699   5.925  11.406   1.555 -0.6197 -1.2575 -0.5930
  839MOL0     H10700   5.815  11.367   1.437 -0.4902 -0.3875  0.3897
  839MOL0     H10701   5.679  11.266   1.641 -0.2813 -0.6433 -0.3717
  839MOL0     H10702   5.448  11.275   1.778  0.1160  0.3794 -3.0328
  839MOL0     H10703   5.362  11.430   1.793  0.7511  1.8702  2.0659
  839MOL0     H10704   5.415  11.385   2.024  0.9355  0.6556  0.3509
  839MOL0     H10705   5.520  11.515   1.965  0.0503 -0.2959  1.0260
  839MOL0     H10706   5.573  11.213   1.994 -2.7122  0.7393  3.2288
  839MOL0     H10707   5.695  11.328   1.933  0.3444 -3.2650  0.0411
  839MOL0     H10708   5.558  11.304   2.210 -0.9286 -0.6034 -2.0924
  839MOL0     H10709   5.682  11.422   2.181  0.2784  0.4155  0.1967
  839MOL0     H10710   5.907  11.039   2.228 -3.9972  0.0492 -3.7324
  839MOL0     H10711   6.163  11.043   2.175 -0.6996 -0.1687 -1.4431
  839MOL0     H10712   6.489  11.316   2.173 -2.4268 -0.8088 -2.5684
  839MOL0     H10713   6.727  11.351   2.193 -1.9633  0.6966  0.0412
  839MOL0     H10714   6.958  11.161   1.904  1.0430  0.2854 -0.0670
  839MOL0     H10715   6.998  11.027   2.005  3.0115 -0.8603  0.6437
  839MOL0     H10716   7.163  11.135   2.130  2.5773  0.4836 -1.9124
  839MOL0     H10717   7.153  11.299   2.049  3.2561 -0.0856  2.9058
  839MOL0     H10718   7.200  11.150   1.842 -2.1805 -1.0252  0.7277
  839MOL0     H10719   7.219  11.026   1.959  0.4009  0.3150  1.1494
  839MOL0     H10720   7.377  11.293   1.925  4.0344  0.6116  2.1263
  839MOL0     H10721   7.408  11.196   2.061 -1.2372  4.6504  0.4375
  839MOL0     H10722   7.437  11.104   1.766  0.1014  1.5783  0.5011
  839MOL0     H10723   7.461  11.000   1.905 -2.3383  1.1673  2.5597
  839MOL0     H10724   7.668  11.129   1.972 -2.6717 -3.0191  0.3409
  839MOL0     H10725   7.642  11.255   1.860 -0.1558 -0.5112  0.5235
  839MOL0     H10726   7.666  11.115   1.661  1.8935  1.3453 -0.6411
  839MOL0     H10727   7.808  11.132   1.751 -1.2581  1.9124  4.3115
  839MOL0     H10728   7.780  10.888   1.689 -0.2109 -2.5555  0.7945
  839MOL0     H10729   7.629  10.906   1.788 -0.0695  1.7045 -0.2163
  839MOL0     H10730   6.793  10.962   2.029 -0.2866 -0.1654 -0.1060
  839MOL0     H10731   6.547  10.935   2.046 -2.5583  0.7560  3.0692
  839MOL0     H10732   6.102  11.412   1.962 -0.4754 -0.1438 -0.8183
  839MOL0     H10733   5.871  11.405   2.023  3.0158 -0.1296 -4.2494
  839MOL0     H10734   6.836  11.559   0.928  1.5362  1.2092  1.7363
  839MOL0     H10735   7.022  11.418   0.880 -0.2306  0.7455 -0.3683
  839MOL0     H10736   7.296  11.047   1.132  2.0415  2.6449 -0.5837
  839MOL0     H10737   7.470  10.878   1.123  0.7328  0.6402  0.6073
  839MOL0     H10738   7.556  10.639   1.081  1.3434  1.6483  1.8633
  839MOL0     H10739   7.662  10.776   1.075 -0.6671 -0.3891  0.4361
  839MOL0     H10740   7.677  10.526   0.918 -3.0689  1.7115 -1.1719
  839MOL0     H10741   7.778  10.657   0.871  1.1986  0.9241  1.5684
  839MOL0     H10742   7.790  10.509   1.126 -0.3935 -0.8709  0.2760
  839MOL0     H10743   7.882  10.660   1.106  0.7257 -1.0641  0.9455
  839MOL0     H10744   7.968  10.571   0.897  2.4063 -0.1690  0.0610
  839MOL0     H10745   8.040  10.494   1.039 -0.6669  0.3294  1.7485
  839MOL0     H10746   7.862  10.146   0.894  0.1803 -0.2852 -0.1094
  839MOL0     H10747   7.425  10.814   0.720 -1.3928  0.8556 -1.1201
  839MOL0     H10748   7.250  10.998   0.703 -1.3757  0.0859  0.7448
  840MOL0     O10749   2.195  10.957   6.259 -0.1282 -0.5682  0.4455
  840MOL0     C10750   2.166  10.842   6.229  0.4377 -0.2537 -0.7463
  840MOL0     O10751   2.037  10.793   6.202 -0.5773  0.1743  0.3185
  840MOL0     C10752   1.941  10.888   6.164 -1.0522 -0.1329 -0.1284
  840MOL0     C10753   1.905  10.992   6.253 -0.4248 -0.5872 -0.2519
  840MOL0     C10754   1.791  11.071   6.216 -0.7143 -0.4989  0.5540
  840MOL0     C10755   1.714  11.036   6.101  0.2807 -0.9270  0.3645
  840MOL0     O10756   1.591  11.105   6.085 -0.1718  0.9528  0.4946
  840MOL0     C10757   1.496  11.012   6.030  0.3547  0.3179 -1.4282
  840MOL0     C10758   1.353  11.080   6.051  0.2486 -0.2828  0.9492
  840MOL0     C10759   1.338  11.206   5.961 -0.3041 -0.4233  0.0138
  840MOL0     C10760   1.314  11.158   5.817  0.2784 -0.3539  0.8318
  840MOL0     C10761   1.222  11.262   5.751  0.1929 -0.5834  0.2664
  840MOL0     C10762   1.086  11.207   5.715  0.1577 -0.7177 -1.3856
  840MOL0     C10763   0.987  11.197   5.838 -0.3488 -0.2540  0.4119
  840MOL0     C10764   0.869  11.109   5.792 -0.1201  0.9290  0.8111
  840MOL0     N10765   0.763  11.184   5.732 -0.5644 -0.2885  0.5017
  840MOL0     C10766   0.679  11.125   5.646 -0.3608 -0.2514  0.2916
  840MOL0     C10767   0.562  11.194   5.650 -0.6828 -0.4096  0.0434
  840MOL0     C10768   0.435  11.162   5.585 -0.6057 -0.5410 -0.4893
  840MOL0     C10769   0.326  11.081   5.654 -0.0370  0.4614  0.8702
  840MOL0     C10770   0.219  11.008   5.562  0.6896 -0.7507  0.2463
  840MOL0     C10771   0.101  10.967   5.638  0.2712 -0.7542 -0.6706
  840MOL0     O10772   0.006  10.907   5.544 -0.4464 -0.2489 -0.0409
  840MOL0     C10773  -0.082  10.797   5.583 -0.6461  0.2483  0.5651
  840MOL0     C10774  -0.103  10.757   5.716 -0.0208 -0.0520 -0.2518
  840MOL0     C10775  -0.169  10.640   5.748  0.2134 -0.1051 -0.5826
  840MOL0     C10776  -0.231  10.567   5.648  0.5903  0.6679 -0.0626
  840MOL0     C10777  -0.310  10.444   5.690  0.2224  0.7827  0.6553
  840MOL0     O10778  -0.371  10.373   5.590  0.1437 -0.3788  0.0291
  840MOL0     C10779  -0.421  10.247   5.602  0.8814  0.1172 -0.1747
  840MOL0     C10780  -0.553  10.238   5.556  0.2685 -0.0932 -0.0368
  840MOL0     C10781  -0.624  10.116   5.554 -0.0990  0.4922 -0.0915
  840MOL0     C10782  -0.560   9.992   5.605 -1.0170 -1.3507  0.1501
  840MOL0     O10783  -0.611   9.865   5.604  0.4890 -0.5246  0.4311
  840MOL0     C10784  -0.750   9.845   5.564 -1.7198  0.2477 -0.2767
  840MOL0     C10785  -0.843   9.893   5.673 -0.0147 -0.1619 -0.0060
  840MOL0     C10786  -0.991   9.900   5.629  1.2512  0.3259  0.2885
  840MOL0     C10787  -1.087   9.907   5.751  0.0026 -0.0923 -0.6613
  840MOL0     C10788  -1.234   9.859   5.706  0.7080 -0.0242 -0.3713
  840MOL0     C10789  -1.252   9.708   5.711 -0.1137  1.4227 -0.3441
  840MOL0     C10790  -1.400   9.659   5.713 -0.5957 -0.5693 -0.4733
  840MOL0     C10791  -1.422   9.569   5.594 -0.8244 -0.5847 -0.4833
  840MOL0    Cl10792  -1.569   9.471   5.591  0.5412 -0.2560 -0.2332
  840MOL0     C10793  -0.427  10.005   5.658 -0.8555  0.2618 -0.2824
  840MOL0     C10794  -0.366  10.132   5.660 -0.2580 -0.0750  0.1497
  840MOL0     O10795  -0.289  10.402   5.806  0.1572  0.0727 -0.0160
  840MOL0     C10796  -0.214  10.612   5.518  0.2861  0.2122 -0.6943
  840MOL0     C10797  -0.126  10.712   5.481 -1.3912  0.0698  0.0358
  840MOL0     N10798   0.593  11.306   5.720  0.3494  0.1939 -0.1428
  840MOL0     N10799   0.716  11.305   5.768  0.7023  0.1207  0.1529
  840MOL0     C10800   1.759  10.933   6.020 -1.1691 -0.1448  0.1680
  840MOL0     C10801   1.869  10.852   6.055 -0.0536 -0.4547  0.0501
  840MOL0     C10802   2.270  10.745   6.222 -0.5675 -0.0431  0.7144
  840MOL0     C10803   2.243  10.610   6.194 -0.5982 -0.4653 -1.0050
  840MOL0     C10804   2.342  10.520   6.155  0.0165 -0.0556 -0.0330
  840MOL0     C10805   2.473  10.556   6.172  0.0178 -0.3702 -0.2623
  840MOL0     O10806   2.563  10.455   6.167  0.1391 -0.3681 -0.4854
  840MOL0     C10807   2.696  10.480   6.121  0.7954  1.0837  0.3834
  840MOL0     C10808   2.694  10.496   5.970  0.5898  0.7549  1.1239
  840MOL0     C10809   2.837  10.539   5.937  0.2139  0.8528 -0.4872
  840MOL0     C10810   2.846  10.642   5.821  1.0623  0.4182  0.3693
  840MOL0     C10811   2.846  10.583   5.690  0.8735  0.0795 -0.0071
  840MOL0     C10812   2.842  10.554   5.575  0.7134 -0.5056 -0.7258
  840MOL0     C10813   2.507  10.692   6.199  0.5264  0.6458 -0.5961
  840MOL0     C10814   2.404  10.787   6.217  0.9908 -0.0351  0.2097
  840MOL0     H10815   1.959  11.015   6.344  2.4784 -4.9303 -0.5568
  840MOL0     H10816   1.746  11.148   6.277 -0.8888 -0.3643  0.2588
  840MOL0     H10817   1.499  10.919   6.088  0.5414  1.9215  1.3048
  840MOL0     H10818   1.512  10.983   5.926  0.5617 -2.8940 -0.5985
  840MOL0     H10819   1.349  11.107   6.156  4.7894  0.4736  1.1023
  840MOL0     H10820   1.276  11.003   6.034  4.6072 -4.9990  0.0083
  840MOL0     H10821   1.420  11.279   5.958 -1.2751  0.8457  2.0483
  840MOL0     H10822   1.262  11.268   6.008  0.9983  1.3298 -0.0634
  840MOL0     H10823   1.413  11.176   5.773 -0.1288  1.6142  0.6353
  840MOL0     H10824   1.274  11.057   5.815  0.0186 -0.3222 -2.9555
  840MOL0     H10825   1.271  11.302   5.662  1.0173  0.3879  1.1352
  840MOL0     H10826   1.220  11.353   5.811  0.1811 -1.2179  1.2365
  840MOL0     H10827   1.106  11.108   5.673  3.1299 -1.8078  1.9931
  840MOL0     H10828   1.032  11.271   5.645  0.0281 -0.7412 -1.3065
  840MOL0     H10829   1.040  11.157   5.925  3.1727  3.1328  0.0898
  840MOL0     H10830   0.955  11.294   5.875  2.1223  0.6621  0.3345
  840MOL0     H10831   0.837  11.039   5.869  0.6995  0.4673  0.7464
  840MOL0     H10832   0.894  11.040   5.710  1.6746  1.0778  1.2070
  840MOL0     H10833   0.690  11.033   5.590  0.2852 -2.0149  3.1173
  840MOL0     H10834   0.461  11.114   5.490  2.9131 -0.5804  0.3704
  840MOL0     H10835   0.390  11.259   5.562 -1.6645 -1.4364 -2.4893
  840MOL0     H10836   0.264  11.144   5.718 -2.0749 -0.2256 -0.3510
  840MOL0     H10837   0.380  10.999   5.703  1.8009  0.9645 -0.1856
  840MOL0     H10838   0.194  11.081   5.485 -2.2509 -1.2920  0.5932
  840MOL0     H10839   0.257  10.917   5.514 -0.5545 -2.8111  2.8857
  840MOL0     H10840   0.063  11.056   5.688 -2.0530 -0.4643 -2.7727
  840MOL0     H10841   0.119  10.897   5.720 -3.8395  0.7677  1.8324
  840MOL0     H10842  -0.064  10.807   5.804  0.9110  2.1993 -1.8588
  840MOL0     H10843  -0.181  10.610   5.851  0.7068 -1.4479 -0.8966
  840MOL0     H10844  -0.597  10.329   5.517 -2.7211 -1.6400 -0.5209
  840MOL0     H10845  -0.728  10.107   5.525  0.4831 -0.8620 -1.8709
  840MOL0     H10846  -0.778   9.739   5.553 -3.2542  0.6000  0.0496
  840MOL0     H10847  -0.764   9.895   5.468  0.7384  4.6823  1.3773
  840MOL0     H10848  -0.812   9.993   5.704  1.0877 -0.3068 -0.6103
  840MOL0     H10849  -0.836   9.817   5.751  2.7432  1.1214  1.1008
  840MOL0     H10850  -1.008   9.815   5.561  0.9614  0.4544  0.1978
  840MOL0     H10851  -1.006   9.980   5.556 -0.9080 -1.9828 -2.0550
  840MOL0     H10852  -1.055   9.834   5.825 -4.1160  0.1439  1.6434
  840MOL0     H10853  -1.083  10.003   5.803  1.9264 -0.3432 -0.2880
  840MOL0     H10854  -1.259   9.915   5.615 -2.1403 -0.9729 -0.2464
  840MOL0     H10855  -1.294   9.903   5.786  0.2201 -0.3704 -0.5497
  840MOL0     H10856  -1.217   9.667   5.807 -0.7505  0.0487 -0.6667
  840MOL0     H10857  -1.194   9.677   5.624 -1.0224 -0.5698 -0.2956
  840MOL0     H10858  -1.425   9.609   5.807  0.2846 -0.5771 -0.2366
  840MOL0     H10859  -1.474   9.740   5.707 -1.1622 -1.1734 -2.6634
  840MOL0     H10860  -1.338   9.502   5.575 -1.4945 -1.9226  1.0533
  840MOL0     H10861  -1.428   9.635   5.507  0.5225 -2.8475 -2.4170
  840MOL0     H10862  -0.378   9.921   5.705 -2.2572 -1.0093 -1.0057
  840MOL0     H10863  -0.272  10.142   5.712  0.8009  0.6780 -1.8217
  840MOL0     H10864  -0.270  10.555   5.445 -1.2999 -2.2763  2.2298
  840MOL0     H10865  -0.094  10.733   5.380  1.5550  1.6522  1.1721
  840MOL0     H10866   1.698  10.904   5.935  0.3068  1.9215 -1.7249
  840MOL0     H10867   1.901  10.762   6.004  2.1927  1.2003 -1.7169
  840MOL0     H10868   2.137  10.587   6.192 -0.6861 -0.2066  0.2501
  840MOL0     H10869   2.306  10.421   6.131 -0.1579 -0.2416  0.9448
  840MOL0     H10870   2.755  10.391   6.145 -4.1534 -2.5048  0.8613
  840MOL0     H10871   2.742  10.563   6.176  0.5865  1.4266  0.0448
  840MOL0     H10872   2.660  10.400   5.931  0.0433  1.0308  0.9019
  840MOL0     H10873   2.625  10.573   5.935 -0.1747 -1.2341 -2.2283
  840MOL0     H10874   2.901  10.455   5.907  2.6835  3.2578 -2.4302
  840MOL0     H10875   2.892  10.564   6.029 -1.6040  1.3285  0.5224
  840MOL0     H10876   2.750  10.694   5.827 -0.4959 -2.2788  0.2137
  840MOL0     H10877   2.925  10.715   5.846 -0.5423  1.9403  1.2444
  840MOL0     H10878   2.837  10.514   5.476  2.1295 -0.4989 -0.8176
  840MOL0     H10879   2.607  10.725   6.225 -0.5054  1.3973  3.0346
  840MOL0     H10880   2.434  10.890   6.230  3.4769 -0.5520 -0.8209
  841MOL0     O10881   1.487   4.122   4.635 -0.3673  0.0388  0.3336
  841MOL0     C10882   1.531   4.047   4.718 -0.3793 -0.2413 -0.5224
  841MOL0     O10883   1.637   3.975   4.709 -0.6613 -0.2076 -0.2087
  841MOL0     C10884   1.726   3.975   4.601  0.9403  0.8072 -0.2225
  841MOL0     C10885   1.819   3.876   4.603  0.4803 -0.7192 -0.2662
  841MOL0     C10886   1.912   3.859   4.494  0.3178  0.6286  0.0942
  841MOL0     C10887   1.922   3.947   4.389  0.2483  0.7883 -0.0445
  841MOL0     O10888   1.986   3.917   4.271  0.5118  1.2669  0.1436
  841MOL0     C10889   2.105   3.992   4.241 -0.3159  0.9996 -0.1071
  841MOL0     C10890   2.231   3.948   4.322 -0.0688 -0.3914  0.1218
  841MOL0     C10891   2.273   3.812   4.285  0.7978 -0.6674  0.0725
  841MOL0     C10892   2.424   3.804   4.264  0.2399  0.1113 -0.5422
  841MOL0     C10893   2.479   3.657   4.283  0.8457 -0.7586 -0.1783
  841MOL0     C10894   2.614   3.664   4.355  0.2006  0.1965 -0.8066
  841MOL0     C10895   2.730   3.635   4.265 -0.5108  0.4113 -0.5092
  841MOL0     C10896   2.870   3.641   4.336 -0.9391 -0.3770  0.5061
  841MOL0     N10897   2.988   3.606   4.249  1.0326 -0.5055  1.3501
  841MOL0     C10898   3.055   3.491   4.243 -0.3731  0.3678  0.1172
  841MOL0     C10899   3.157   3.511   4.154 -0.7853  0.1478 -0.0567
  841MOL0     C10900   3.270   3.423   4.122 -0.4080 -0.1048 -1.0400
  841MOL0     C10901   3.345   3.345   4.238  0.3491  0.1819 -0.2687
  841MOL0     C10902   3.457   3.267   4.177  0.1255 -0.1666 -1.1877
  841MOL0     C10903   3.497   3.137   4.252 -0.4997 -0.2794 -0.3988
  841MOL0     O10904   3.631   3.082   4.229 -0.0994  0.0013 -0.3010
  841MOL0     C10905   3.735   3.122   4.315  0.8854 -0.6855 -0.3240
  841MOL0     C10906   3.735   3.220   4.417 -0.8169  0.5786 -0.7135
  841MOL0     C10907   3.853   3.238   4.491  0.5529  0.7952 -0.8575
  841MOL0     C10908   3.975   3.173   4.461 -0.3710  0.4659  0.7272
  841MOL0     C10909   4.088   3.211   4.540 -0.2808  0.9224 -0.4255
  841MOL0     O10910   4.067   3.255   4.667  0.2737  0.4323  0.9011
  841MOL0     C10911   4.166   3.228   4.762 -0.8062  0.2774 -0.5564
  841MOL0     C10912   4.227   3.106   4.799  0.4435  0.0584 -0.0283
  841MOL0     C10913   4.323   3.099   4.900  0.1193  0.0346 -1.0663
  841MOL0     C10914   4.369   3.223   4.964  0.8658  0.1133 -0.4546
  841MOL0     O10915   4.478   3.222   5.051  0.4744 -0.0505  0.6822
  841MOL0     C10916   4.527   3.094   5.101  0.4806  0.2689  1.3913
  841MOL0     C10917   4.427   3.030   5.204  0.6124 -0.9373  0.4686
  841MOL0     C10918   4.471   2.885   5.211 -0.2549  0.1424 -0.2957
  841MOL0     C10919   4.435   2.814   5.343  0.5665 -0.0881 -0.4428
  841MOL0     C10920   4.279   2.788   5.364 -0.1351  0.5849 -0.1655
  841MOL0     C10921   4.235   2.679   5.471 -0.0712 -0.3833  0.9264
  841MOL0     C10922   4.080   2.669   5.477 -0.0588  0.4362  0.2621
  841MOL0     C10923   4.007   2.657   5.337  0.7778  0.0915 -0.1613
  841MOL0    Cl10924   3.830   2.634   5.364  0.2669  0.0242 -0.1274
  841MOL0     C10925   4.312   3.333   4.931  0.6717 -1.0265 -0.2255
  841MOL0     C10926   4.207   3.346   4.835 -0.8763 -0.8136  0.1507
  841MOL0     O10927   4.199   3.180   4.497 -0.0712  0.2314 -0.6527
  841MOL0     C10928   3.978   3.089   4.353 -1.1762  1.1847  0.4423
  841MOL0     C10929   3.865   3.067   4.278  0.3847  0.1958 -0.9919
  841MOL0     N10930   3.149   3.643   4.112  0.1641 -0.0078  0.3510
  841MOL0     N10931   3.048   3.706   4.168  0.0694 -0.3429 -0.2304
  841MOL0     C10932   1.824   4.049   4.387 -1.2091  0.8963 -0.3464
  841MOL0     C10933   1.731   4.061   4.489  0.3117 -0.2262 -0.0842
  841MOL0     C10934   1.471   4.057   4.849  0.6442 -0.3304  0.8462
  841MOL0     C10935   1.348   4.123   4.858  0.0005 -0.3131  0.3156
  841MOL0     C10936   1.286   4.145   4.987 -0.4843  0.1909  0.9166
  841MOL0     C10937   1.343   4.099   5.105 -0.3160  0.5683  0.3871
  841MOL0     O10938   1.302   4.129   5.229 -0.1532  0.8181  1.5193
  841MOL0     C10939   1.193   4.217   5.235 -0.1659  0.4258  0.4981
  841MOL0     C10940   1.186   4.248   5.378  0.1103  0.2360 -0.4513
  841MOL0     C10941   1.131   4.391   5.402 -0.4388  0.2955  0.3603
  841MOL0     C10942   1.063   4.426   5.537 -0.2080  0.1443  0.1226
  841MOL0     C10943   1.082   4.328   5.654 -0.4825 -0.7896  0.7172
  841MOL0     C10944   1.116   4.256   5.746 -0.7705 -0.4301  0.3680
  841MOL0     C10945   1.469   4.038   5.100  0.6020  0.4149 -0.3226
  841MOL0     C10946   1.530   4.011   4.969  0.5929 -0.0254 -0.6665
  841MOL0     H10947   1.832   3.810   4.688  2.1788  0.7085  0.6441
  841MOL0     H10948   1.978   3.773   4.493 -0.9677 -0.3948 -1.3046
  841MOL0     H10949   2.078   4.095   4.264  1.1499  2.5747 -4.4673
  841MOL0     H10950   2.133   3.988   4.136 -1.6161  1.9981 -0.5207
  841MOL0     H10951   2.222   3.949   4.431 -2.0303 -0.1871 -0.0199
  841MOL0     H10952   2.301   4.027   4.292  0.8387 -0.2239  2.4593
  841MOL0     H10953   2.217   3.779   4.197 -0.9872  0.9465  0.5451
  841MOL0     H10954   2.245   3.738   4.361 -2.8750 -0.4765 -0.9272
  841MOL0     H10955   2.458   3.842   4.167  1.7562  3.3460  1.0886
  841MOL0     H10956   2.467   3.868   4.341  0.4597 -0.5049 -0.1478
  841MOL0     H10957   2.464   3.599   4.191 -2.5857  0.0380 -0.2319
  841MOL0     H10958   2.407   3.602   4.345  0.1314 -0.2939 -0.5792
  841MOL0     H10959   2.612   3.583   4.429 -0.6916 -0.7045 -1.7974
  841MOL0     H10960   2.637   3.750   4.419 -1.8181  2.3008 -2.7302
  841MOL0     H10961   2.716   3.545   4.204 -0.3482  0.2738 -0.3468
  841MOL0     H10962   2.732   3.707   4.183 -3.7145 -0.7094 -1.7419
  841MOL0     H10963   2.865   3.577   4.424 -1.1522 -1.7569 -0.4712
  841MOL0     H10964   2.886   3.743   4.371  1.6866 -0.8611  0.9381
  841MOL0     H10965   3.037   3.399   4.299 -1.9430 -0.1644 -1.1609
  841MOL0     H10966   3.343   3.482   4.067 -1.6340  0.4525 -2.1124
  841MOL0     H10967   3.239   3.342   4.056 -2.5368 -1.7697  1.7830
  841MOL0     H10968   3.278   3.274   4.287  0.9622 -1.6502 -1.9500
  841MOL0     H10969   3.375   3.420   4.312  1.8374 -2.0661  1.5297
  841MOL0     H10970   3.446   3.250   4.069 -0.4356  0.2744 -1.2025
  841MOL0     H10971   3.540   3.338   4.183 -1.4413  1.6626 -0.4269
  841MOL0     H10972   3.435   3.056   4.213 -0.0162 -1.0243  0.3383
  841MOL0     H10973   3.482   3.160   4.358  3.5286 -2.0373  0.7375
  841MOL0     H10974   3.651   3.281   4.447  0.7856  2.9618 -0.8476
  841MOL0     H10975   3.842   3.310   4.572  0.9348 -1.8677  1.7183
  841MOL0     H10976   4.215   3.011   4.747 -1.3647  0.5437 -0.5706
  841MOL0     H10977   4.368   3.000   4.901  0.2761  0.1044 -1.1975
  841MOL0     H10978   4.621   3.117   5.151  1.5138  2.1667 -1.2428
  841MOL0     H10979   4.549   3.032   5.014  1.4832  0.1164  1.7436
  841MOL0     H10980   4.321   3.042   5.177  0.3153 -2.4252  0.8610
  841MOL0     H10981   4.447   3.083   5.297  1.6500 -2.8176  1.3837
  841MOL0     H10982   4.577   2.860   5.210 -0.0534  0.9315 -2.0243
  841MOL0     H10983   4.417   2.833   5.131 -0.4298 -1.3398  0.7456
  841MOL0     H10984   4.482   2.717   5.362 -1.2926 -0.9678 -0.1263
  841MOL0     H10985   4.465   2.887   5.419  1.2143  0.4047 -1.1663
  841MOL0     H10986   4.233   2.764   5.268 -2.4370  2.5689  0.3495
  841MOL0     H10987   4.225   2.881   5.384 -2.0682 -0.2550 -1.2649
  841MOL0     H10988   4.268   2.701   5.572 -1.9950 -0.7818  1.6845
  841MOL0     H10989   4.273   2.581   5.441 -5.0536 -1.3718 -3.9025
  841MOL0     H10990   4.054   2.585   5.540  0.5261  0.7274  0.9057
  841MOL0     H10991   4.037   2.755   5.529 -1.5074 -0.1167  0.0262
  841MOL0     H10992   4.057   2.575   5.285 -1.3649  0.1000 -2.4197
  841MOL0     H10993   4.029   2.737   5.265  1.1582 -2.3114 -2.9133
  841MOL0     H10994   4.345   3.422   4.983  0.1066 -0.6747 -0.4618
  841MOL0     H10995   4.172   3.444   4.805  2.6666  0.0685 -1.5069
  841MOL0     H10996   4.070   3.038   4.325 -0.9965  1.9249 -0.3648
  841MOL0     H10997   3.874   2.977   4.218 -0.0976 -0.7348  0.2679
  841MOL0     H10998   1.820   4.098   4.290  1.1499  0.0666 -0.9315
  841MOL0     H10999   1.667   4.149   4.484  1.7469  0.8243 -0.5441
  841MOL0     H11000   1.298   4.164   4.771 -2.7230 -2.4133  0.7657
  841MOL0     H11001   1.203   4.214   4.979 -0.8948 -0.1422  2.0562
  841MOL0     H11002   1.102   4.171   5.197  1.4248 -3.3083  0.7087
  841MOL0     H11003   1.221   4.307   5.181 -0.6163 -0.1331 -0.6905
  841MOL0     H11004   1.141   4.169   5.439  1.3399  1.7888  2.7158
  841MOL0     H11005   1.287   4.248   5.420  0.0900  1.0679 -0.3906
  841MOL0     H11006   1.074   4.421   5.313  2.7369 -2.1141 -2.7574
  841MOL0     H11007   1.219   4.456   5.399  0.6786 -1.1864 -0.2768
  841MOL0     H11008   1.067   4.533   5.562 -0.1122  0.8690 -2.6549
  841MOL0     H11009   0.956   4.433   5.520 -0.2691 -0.3231  0.3050
  841MOL0     H11010   1.140   4.189   5.826 -5.0238  0.0424  2.2931
  841MOL0     H11011   1.528   4.003   5.183 -0.1068 -4.4047 -1.5488
  841MOL0     H11012   1.624   3.959   4.957  0.6865  0.6781 -3.8356
  842MOL0     O11013   6.028   5.963   5.604  0.3696 -0.4181 -0.5418
  842MOL0     C11014   6.137   5.969   5.545  0.8230 -0.0204  0.7953
  842MOL0     O11015   6.151   5.968   5.413 -0.8564 -0.1749  0.4288
  842MOL0     C11016   6.041   5.988   5.327 -0.1927  0.7949  1.2166
  842MOL0     C11017   5.932   6.073   5.345  1.2507 -0.2077 -0.4130
  842MOL0     C11018   5.821   6.073   5.258 -0.5078  0.0806  1.1782
  842MOL0     C11019   5.824   5.982   5.147  0.5809  0.0677  0.6959
  842MOL0     O11020   5.712   5.975   5.067  0.2589 -0.0324  0.2610
  842MOL0     C11021   5.676   5.854   5.000  0.4400  0.2705  0.9192
  842MOL0     C11022   5.541   5.873   4.933  0.3980  0.1538 -0.2468
  842MOL0     C11023   5.488   5.752   4.861 -0.1737 -0.4303  0.2586
  842MOL0     C11024   5.346   5.767   4.805  0.0851 -0.8037  1.0090
  842MOL0     C11025   5.342   5.863   4.689 -0.5402  0.2019  0.1148
  842MOL0     C11026   5.217   5.859   4.611  0.6103 -0.0200  0.1743
  842MOL0     C11027   5.206   5.958   4.487 -0.1064  0.1951 -0.2254
  842MOL0     C11028   5.317   5.934   4.375  0.5703 -0.2116  0.1807
  842MOL0     N11029   5.320   5.790   4.331 -0.4450  0.3476 -0.1811
  842MOL0     C11030   5.232   5.728   4.248  0.0642  0.3142 -0.1312
  842MOL0     C11031   5.265   5.599   4.251 -0.2168 -0.5056 -0.2304
  842MOL0     C11032   5.179   5.490   4.200  0.2123 -0.6963  0.2299
  842MOL0     C11033   5.183   5.482   4.046 -0.0392  0.2882  0.0002
  842MOL0     C11034   5.110   5.361   4.001 -0.2378 -0.2346  0.1439
  842MOL0     C11035   5.138   5.330   3.845 -0.0751 -0.1425 -0.3876
  842MOL0     O11036   5.091   5.444   3.770 -0.0905 -0.0609 -0.7639
  842MOL0     C11037   4.961   5.443   3.719  0.4464  0.0994 -0.3301
  842MOL0     C11038   4.879   5.557   3.748  0.3080  0.2898 -0.3848
  842MOL0     C11039   4.747   5.564   3.695 -0.1797 -0.9226  0.4874
  842MOL0     C11040   4.693   5.456   3.614  0.7103 -0.4498 -0.7241
  842MOL0     C11041   4.552   5.465   3.572  0.0741 -0.0224 -1.1309
  842MOL0     O11042   4.487   5.585   3.585 -0.5961  0.1425 -0.4896
  842MOL0     C11043   4.373   5.597   3.510  0.2009 -0.5845  0.2588
  842MOL0     C11044   4.270   5.501   3.520 -0.1034  0.2326 -0.0726
  842MOL0     C11045   4.163   5.517   3.435  0.2090  0.4730 -0.6238
  842MOL0     C11046   4.135   5.622   3.350  0.3793 -0.4983 -0.1594
  842MOL0     O11047   4.016   5.625   3.282 -0.2723 -0.0263  1.3280
  842MOL0     C11048   3.977   5.753   3.219 -0.7095 -0.3274 -0.2737
  842MOL0     C11049   3.836   5.741   3.152 -0.1218 -0.4249 -0.9105
  842MOL0     C11050   3.835   5.654   3.023 -0.1981 -0.1634 -1.1058
  842MOL0     C11051   3.935   5.674   2.916  0.5687 -0.1603 -0.4385
  842MOL0     C11052   3.899   5.605   2.787  0.9174 -0.9637 -0.4675
  842MOL0     C11053   4.007   5.635   2.685  0.1973  0.0141 -0.4259
  842MOL0     C11054   3.981   5.562   2.556 -0.7262  0.8975 -0.2395
  842MOL0     C11055   3.958   5.399   2.555 -1.4374  0.9895  0.2955
  842MOL0    Cl11056   4.124   5.332   2.620  0.3920 -0.0117 -0.0393
  842MOL0     C11057   4.235   5.720   3.349 -0.3497 -0.4301 -0.3879
  842MOL0     C11058   4.344   5.712   3.431 -1.0447 -0.4008 -0.2335
  842MOL0     O11059   4.513   5.363   3.509  0.7268  0.2905  0.0597
  842MOL0     C11060   4.777   5.346   3.595 -0.5235 -0.6735 -0.2216
  842MOL0     C11061   4.901   5.342   3.644 -0.3690  0.2779  0.8441
  842MOL0     N11062   5.373   5.580   4.342 -0.0947  0.0338 -0.1533
  842MOL0     N11063   5.406   5.694   4.380 -0.1259  0.2136 -0.2225
  842MOL0     C11064   5.942   5.909   5.123 -0.2476 -0.6409 -0.0810
  842MOL0     C11065   6.047   5.912   5.210  0.7334  0.2564 -0.0533
  842MOL0     C11066   6.255   5.968   5.635  0.5500 -0.4286  0.7009
  842MOL0     C11067   6.376   6.015   5.576 -0.8985  0.3970  0.0702
  842MOL0     C11068   6.497   6.010   5.648  0.1429 -0.4481 -0.2465
  842MOL0     C11069   6.495   5.962   5.774  0.3169 -0.8731  0.2575
  842MOL0     O11070   6.617   5.953   5.839  0.5862 -0.3513  0.2564
  842MOL0     C11071   6.627   5.866   5.953  0.3773 -0.0718 -0.0771
  842MOL0     C11072   6.779   5.875   5.975 -0.4182 -0.3575  0.2226
  842MOL0     C11073   6.866   5.822   5.860  0.2409 -0.5394 -0.3311
  842MOL0     C11074   7.021   5.819   5.899 -0.1918  0.2869 -0.8042
  842MOL0     C11075   7.047   5.704   5.986  0.1439 -0.2205  0.8788
  842MOL0     C11076   7.067   5.608   6.049  0.9504 -0.0089  0.5011
  842MOL0     C11077   6.374   5.920   5.832 -0.4094 -0.0901 -0.6038
  842MOL0     C11078   6.252   5.924   5.762  0.1028  0.2634  0.3416
  842MOL0     H11079   5.912   6.145   5.425 -1.2340  0.9201 -1.9126
  842MOL0     H11080   5.729   6.121   5.290  0.7812  2.6457  1.3187
  842MOL0     H11081   5.675   5.770   5.070  2.7881 -1.3828 -0.8723
  842MOL0     H11082   5.745   5.829   4.918 -0.4449 -0.0268  0.2467
  842MOL0     H11083   5.534   5.961   4.868 -0.2426 -0.7082 -1.3832
  842MOL0     H11084   5.476   5.907   5.013 -1.7292 -2.3267 -0.8087
  842MOL0     H11085   5.480   5.674   4.938  0.4462 -0.1639  0.6073
  842MOL0     H11086   5.557   5.714   4.785 -1.7082  1.0355 -1.9462
  842MOL0     H11087   5.312   5.665   4.788 -2.8935  0.4935 -1.8143
  842MOL0     H11088   5.276   5.812   4.876 -2.7635 -2.8091 -0.3528
  842MOL0     H11089   5.431   5.849   4.627 -0.5774  3.1469 -0.7477
  842MOL0     H11090   5.370   5.962   4.725  3.3274 -0.2790 -1.1300
  842MOL0     H11091   5.143   5.877   4.690 -0.5713  0.5351 -1.0372
  842MOL0     H11092   5.198   5.758   4.575  0.6387 -0.1263  0.4518
  842MOL0     H11093   5.104   5.951   4.449  0.4547  0.6840 -1.9321
  842MOL0     H11094   5.218   6.062   4.521  3.8938  0.3450 -1.5394
  842MOL0     H11095   5.416   5.958   4.415  0.7264  0.0129 -0.3363
  842MOL0     H11096   5.313   6.002   4.290  0.4565 -0.6157 -0.1444
  842MOL0     H11097   5.151   5.779   4.197 -2.6001 -0.6865  2.7878
  842MOL0     H11098   5.080   5.494   4.246 -1.0805 -2.9964 -2.0409
  842MOL0     H11099   5.210   5.391   4.235  1.4452  0.4081  2.4325
  842MOL0     H11100   5.284   5.484   4.005  1.1258 -1.0010  2.5543
  842MOL0     H11101   5.123   5.567   4.011 -1.2750 -0.7405 -0.4822
  842MOL0     H11102   5.140   5.269   4.051  1.7101  0.0542 -0.3929
  842MOL0     H11103   5.003   5.367   4.024 -0.8102 -0.8804 -2.0448
  842MOL0     H11104   5.098   5.230   3.826  0.5640 -0.8286  1.5576
  842MOL0     H11105   5.245   5.325   3.827 -0.1644 -3.0852 -0.6656
  842MOL0     H11106   4.919   5.638   3.809  1.6642 -0.4896 -0.2111
  842MOL0     H11107   4.691   5.653   3.722  1.0313  0.2877 -0.8261
  842MOL0     H11108   4.255   5.434   3.604 -3.1213 -0.6721 -1.1826
  842MOL0     H11109   4.101   5.430   3.453  2.3051 -1.1731 -0.8758
  842MOL0     H11110   4.052   5.787   3.147  0.5923 -1.3398  0.5599
  842MOL0     H11111   3.984   5.829   3.298  3.1099 -0.1532 -0.6088
  842MOL0     H11112   3.785   5.834   3.124  1.1714  0.6203  0.0856
  842MOL0     H11113   3.769   5.688   3.221 -0.0620  1.9360  1.0645
  842MOL0     H11114   3.734   5.668   2.982 -0.1478  1.5529 -0.7068
  842MOL0     H11115   3.839   5.550   3.059 -2.6639  0.3602  0.9961
  842MOL0     H11116   3.952   5.782   2.903 -2.6666  1.1529  4.0005
  842MOL0     H11117   4.036   5.638   2.937  0.0699 -1.4974 -0.2909
  842MOL0     H11118   3.806   5.633   2.737  1.0508 -0.1384 -0.2642
  842MOL0     H11119   3.897   5.499   2.813  0.7046 -1.1843 -1.3272
  842MOL0     H11120   4.108   5.607   2.719 -0.5801  0.9260  3.0290
  842MOL0     H11121   4.018   5.743   2.672  0.4243 -0.2624 -3.1480
  842MOL0     H11122   3.883   5.596   2.523 -2.6602  0.4424  4.3160
  842MOL0     H11123   4.063   5.587   2.487  1.6379 -1.8364  1.3532
  842MOL0     H11124   3.948   5.367   2.451  1.2532 -0.9740  0.5443
  842MOL0     H11125   3.873   5.361   2.612 -0.9713  0.2421  0.5115
  842MOL0     H11126   4.235   5.810   3.288  2.5436  1.2528  1.8269
  842MOL0     H11127   4.436   5.769   3.423 -1.1962  0.1380  1.4679
  842MOL0     H11128   4.743   5.268   3.528  2.0113 -4.4460  2.4463
  842MOL0     H11129   4.960   5.252   3.629 -1.7889 -0.6176  0.3540
  842MOL0     H11130   5.961   5.848   5.035  1.5709 -0.7696  0.3517
  842MOL0     H11131   6.135   5.855   5.182  0.7263 -0.3206  1.0444
  842MOL0     H11132   6.378   6.036   5.470  0.6438 -1.7660 -0.3715
  842MOL0     H11133   6.590   6.035   5.599 -0.0460  0.0319 -0.3634
  842MOL0     H11134   6.596   5.766   5.922 -1.3126  0.1342  0.8277
  842MOL0     H11135   6.571   5.892   6.044 -1.7060  0.5558 -1.4624
  842MOL0     H11136   6.813   5.971   6.015  1.0625 -0.6817 -0.2162
  842MOL0     H11137   6.800   5.814   6.064  3.0029  1.6228  0.9584
  842MOL0     H11138   6.858   5.883   5.770  5.7620  0.8643 -0.2549
  842MOL0     H11139   6.820   5.726   5.835 -3.4110  0.4937  1.6584
  842MOL0     H11140   7.076   5.805   5.805 -1.7892 -1.1771 -1.5660
  842MOL0     H11141   7.063   5.906   5.951  2.7058  0.5742 -3.3163
  842MOL0     H11142   7.086   5.515   6.098 -0.5318 -0.6071  0.0124
  842MOL0     H11143   6.362   5.896   5.937 -4.7202 -1.7579 -1.2464
  842MOL0     H11144   6.155   5.888   5.794 -1.9056  1.1255 -4.0370
  843MOL0     O11145   3.976   2.278   0.548 -0.2064 -0.3676 -0.6612
  843MOL0     C11146   3.999   2.388   0.501 -0.1092 -0.2194  0.4740
  843MOL0     O11147   3.965   2.510   0.560 -0.5131 -0.2826  0.2991
  843MOL0     C11148   3.878   2.507   0.669  0.2668 -0.0552  0.7615
  843MOL0     C11149   3.744   2.446   0.660 -0.5518 -0.7960  0.7090
  843MOL0     C11150   3.654   2.449   0.759 -0.0711  0.4377  0.0670
  843MOL0     C11151   3.688   2.505   0.885  0.0683  0.0119 -0.0053
  843MOL0     O11152   3.586   2.512   0.971  0.2797 -0.6102 -0.4440
  843MOL0     C11153   3.585   2.624   1.062  0.1263 -0.0798 -0.7089
  843MOL0     C11154   3.534   2.755   1.008 -0.2338  0.0612 -0.2804
  843MOL0     C11155   3.415   2.736   0.918 -0.0405  0.0887 -0.2885
  843MOL0     C11156   3.336   2.860   0.881 -0.2067 -0.0906  0.2775
  843MOL0     C11157   3.428   2.948   0.793 -0.9819  0.4065  1.3657
  843MOL0     C11158   3.556   3.030   0.853 -0.2447 -0.3205 -0.5947
  843MOL0     C11159   3.569   3.178   0.810 -1.0950 -0.3152  0.3411
  843MOL0     C11160   3.600   3.177   0.662 -0.3191 -0.1651 -0.3687
  843MOL0     N11161   3.677   3.294   0.624 -0.0840 -0.1677  0.7364
  843MOL0     C11162   3.633   3.425   0.600 -0.7886  0.7784 -0.1992
  843MOL0     C11163   3.734   3.485   0.533  0.8477  0.5222  0.3461
  843MOL0     C11164   3.744   3.625   0.485 -0.4871  0.3148 -0.3810
  843MOL0     C11165   3.602   3.683   0.450  0.3977 -0.1941 -0.8222
  843MOL0     C11166   3.538   3.598   0.339 -0.0206  0.9867  0.2684
  843MOL0     C11167   3.383   3.594   0.348 -0.4024 -0.4989 -0.4872
  843MOL0     O11168   3.336   3.518   0.457  0.2694  0.2970 -0.3352
  843MOL0     C11169   3.201   3.504   0.480  0.0625 -0.9989 -0.1458
  843MOL0     C11170   3.174   3.435   0.601 -0.2690 -0.7339  0.0703
  843MOL0     C11171   3.047   3.416   0.654 -0.5055 -0.6426 -0.6945
  843MOL0     C11172   2.935   3.479   0.582 -0.2588  0.3160  0.8706
  843MOL0     C11173   2.798   3.468   0.627 -0.8729 -0.2024 -0.5130
  843MOL0     O11174   2.712   3.565   0.583  0.0788 -0.0369  0.2604
  843MOL0     C11175   2.581   3.546   0.613 -0.4902  0.9509  0.9565
  843MOL0     C11176   2.508   3.659   0.630  0.1821  0.5572  0.1804
  843MOL0     C11177   2.369   3.655   0.646  0.1163  0.0669 -0.5752
  843MOL0     C11178   2.290   3.541   0.647  1.1025 -0.1820 -0.1940
  843MOL0     O11179   2.154   3.551   0.670 -0.5773 -0.4001 -0.4119
  843MOL0     C11180   2.061   3.440   0.699  0.9089 -0.4414 -0.1914
  843MOL0     C11181   1.937   3.489   0.755 -0.5469  0.0565 -0.0276
  843MOL0     C11182   1.847   3.366   0.795 -0.7729 -1.0721  0.2930
  843MOL0     C11183   1.764   3.385   0.920 -0.3999 -0.5057  0.5606
  843MOL0     C11184   1.675   3.269   0.931  0.9896  0.3202 -0.2364
  843MOL0     C11185   1.576   3.286   1.049  0.0049  0.5264  0.5295
  843MOL0     C11186   1.487   3.159   1.051  1.6953  0.0262  0.3719
  843MOL0     C11187   1.406   3.141   1.176 -0.0575  0.7383  0.2487
  843MOL0    Cl11188   1.306   3.000   1.161  0.1783  0.0862 -0.4854
  843MOL0     C11189   2.356   3.420   0.625  0.2038 -0.9218 -0.4156
  843MOL0     C11190   2.503   3.423   0.608 -0.1039 -0.1531 -0.4119
  843MOL0     O11191   2.771   3.377   0.705  0.2635 -0.0272  0.2614
  843MOL0     C11192   2.962   3.562   0.473 -0.5051  0.0807  0.5836
  843MOL0     C11193   3.093   3.573   0.417  0.5319  0.3535 -0.1809
  843MOL0     N11194   3.837   3.398   0.530 -0.1087  0.0788 -0.1312
  843MOL0     N11195   3.802   3.287   0.572  0.1674 -0.5136  0.3065
  843MOL0     C11196   3.815   2.566   0.892  0.5516 -0.3911 -0.2527
  843MOL0     C11197   3.910   2.563   0.793 -0.1192  0.2066 -0.3815
  843MOL0     C11198   4.090   2.397   0.383 -0.1540 -1.1778 -0.5785
  843MOL0     C11199   4.171   2.510   0.361 -0.2156  0.3733 -0.0957
  843MOL0     C11200   4.247   2.526   0.247 -0.3290 -0.2216 -0.1817
  843MOL0     C11201   4.241   2.427   0.144  0.9204 -0.4126  0.9071
  843MOL0     O11202   4.305   2.431   0.021 -0.1161  0.5161  0.3051
  843MOL0     C11203   4.401   2.525   0.002 -0.9130  0.2046 -0.2754
  843MOL0     C11204   4.409   2.561  -0.145 -0.9646 -0.2630 -0.3807
  843MOL0     C11205   4.501   2.680  -0.183 -0.5459  0.3692 -0.4223
  843MOL0     C11206   4.442   2.826  -0.175  0.2981 -0.0524 -0.5386
  843MOL0     C11207   4.532   2.930  -0.143  0.2104 -0.2856 -0.1610
  843MOL0     C11208   4.613   3.019  -0.129  0.5624  0.5555 -0.2247
  843MOL0     C11209   4.163   2.317   0.165 -0.4989  0.1193 -0.4225
  843MOL0     C11210   4.096   2.297   0.285  0.1439 -1.1752 -0.2132
  843MOL0     H11211   3.716   2.388   0.572 -0.6464 -3.4171  2.3556
  843MOL0     H11212   3.565   2.393   0.729  0.2635  1.8029 -4.2041
  843MOL0     H11213   3.669   2.646   1.128 -2.2991 -0.5305  2.8119
  843MOL0     H11214   3.506   2.591   1.131 -1.5687 -0.2710 -2.6417
  843MOL0     H11215   3.611   2.808   0.953  0.6904 -0.8011  0.1517
  843MOL0     H11216   3.522   2.825   1.091 -3.0107 -2.3080  1.5091
  843MOL0     H11217   3.341   2.668   0.961 -0.4420  0.1140 -0.9257
  843MOL0     H11218   3.445   2.681   0.828 -0.2967  1.4704 -1.2503
  843MOL0     H11219   3.251   2.827   0.820  0.6694 -0.7501 -0.6117
  843MOL0     H11220   3.294   2.913   0.967 -0.6466  0.5436 -0.3185
  843MOL0     H11221   3.374   3.020   0.731  0.4055  1.6820  1.5763
  843MOL0     H11222   3.466   2.875   0.721 -1.6275  0.0283  1.4043
  843MOL0     H11223   3.647   2.973   0.834 -0.8762 -1.8137  0.5967
  843MOL0     H11224   3.545   3.031   0.962  0.7103 -0.9413 -0.4842
  843MOL0     H11225   3.477   3.234   0.830 -0.8103  0.4587 -0.4200
  843MOL0     H11226   3.635   3.238   0.874 -1.4378 -0.7319  1.0965
  843MOL0     H11227   3.510   3.162   0.602  0.1263 -2.8407 -0.4951
  843MOL0     H11228   3.674   3.100   0.638  1.7217  1.0450  1.5525
  843MOL0     H11229   3.543   3.485   0.615  1.2717  5.1019 -3.0371
  843MOL0     H11230   3.821   3.636   0.408  0.5788 -0.4624  0.5260
  843MOL0     H11231   3.791   3.681   0.566  1.4026  0.2093 -1.3539
  843MOL0     H11232   3.607   3.789   0.423  0.0639 -0.4889 -2.1062
  843MOL0     H11233   3.536   3.669   0.536 -0.9079  1.1434 -1.5559
  843MOL0     H11234   3.562   3.633   0.238 -0.6753 -1.5667 -0.8565
  843MOL0     H11235   3.564   3.491   0.342  0.1676  1.0514  1.2704
  843MOL0     H11236   3.344   3.553   0.254  2.8226  0.9396 -2.6197
  843MOL0     H11237   3.342   3.694   0.360 -3.7694 -1.7854 -0.1232
  843MOL0     H11238   3.268   3.392   0.637 -0.3177 -0.8332  0.0792
  843MOL0     H11239   3.037   3.348   0.738  2.7809  3.2340  3.3019
  843MOL0     H11240   2.554   3.757   0.619 -0.3598  1.1667  2.8011
  843MOL0     H11241   2.324   3.753   0.662  1.1412  0.4628 -0.0741
  843MOL0     H11242   2.108   3.374   0.773 -0.5743  0.8035  1.9853
  843MOL0     H11243   2.053   3.378   0.609  2.2177  1.0760 -1.4052
  843MOL0     H11244   1.888   3.560   0.688 -1.3675  1.5502  2.0384
  843MOL0     H11245   1.960   3.523   0.856 -1.0144 -0.0146  0.1057
  843MOL0     H11246   1.912   3.278   0.802 -1.4003 -1.6150 -0.5537
  843MOL0     H11247   1.777   3.347   0.713 -2.1159  0.5468  0.9999
  843MOL0     H11248   1.821   3.372   1.012  2.2636 -0.0938 -0.9347
  843MOL0     H11249   1.712   3.481   0.915  2.6699  1.4349  2.3672
  843MOL0     H11250   1.733   3.179   0.956 -0.5909 -0.8585 -0.6927
  843MOL0     H11251   1.613   3.259   0.841  0.6107 -1.7832  0.1979
  843MOL0     H11252   1.514   3.376   1.046  0.4678  0.9059  1.7814
  843MOL0     H11253   1.626   3.308   1.144 -1.5443  2.4977  0.9612
  843MOL0     H11254   1.428   3.162   0.959  1.2037  2.3679  0.7065
  843MOL0     H11255   1.544   3.066   1.042  0.6261 -0.6720  0.5705
  843MOL0     H11256   1.345   3.230   1.197 -0.0950  0.4864  1.2558
  843MOL0     H11257   1.487   3.136   1.249  1.6707  3.1717 -1.3635
  843MOL0     H11258   2.306   3.324   0.616  0.4708 -0.8681 -4.0718
  843MOL0     H11259   2.555   3.328   0.606  0.4515  0.1598 -1.0253
  843MOL0     H11260   2.893   3.630   0.423 -2.3564 -2.5555 -0.6745
  843MOL0     H11261   3.102   3.649   0.339  0.2942  1.8335  1.1896
  843MOL0     H11262   3.840   2.617   0.984 -0.7651  0.1173 -0.1537
  843MOL0     H11263   4.006   2.607   0.817  0.2937 -1.5892  1.6390
  843MOL0     H11264   4.175   2.593   0.432 -1.4557  0.1873  0.2303
  843MOL0     H11265   4.304   2.618   0.243 -1.2988  0.3503 -2.1398
  843MOL0     H11266   4.496   2.485   0.038 -1.2645 -0.3437  0.0587
  843MOL0     H11267   4.392   2.620   0.056  0.2637 -1.3838  2.9591
  843MOL0     H11268   4.451   2.472  -0.191  1.5039 -1.2268  3.2948
  843MOL0     H11269   4.304   2.587  -0.165 -0.2291  2.2362 -1.3839
  843MOL0     H11270   4.538   2.658  -0.284 -3.4480  1.6961 -1.8958
  843MOL0     H11271   4.591   2.684  -0.120  1.6473  4.5860 -3.2953
  843MOL0     H11272   4.400   2.857  -0.271  2.3833  0.2519 -1.4248
  843MOL0     H11273   4.378   2.824  -0.086  1.2448 -0.3514  0.1611
  843MOL0     H11274   4.690   3.093  -0.127  0.2507  0.8767  0.0133
  843MOL0     H11275   4.156   2.244   0.085 -2.6548 -0.6639  0.3994
  843MOL0     H11276   4.032   2.211   0.302  1.3771 -1.6574  2.5753
  844MOL0     O11277   9.383   9.279   4.335  0.2252  0.3191 -0.2381
  844MOL0     C11278   9.265   9.249   4.340  0.3541 -0.0672 -0.5507
  844MOL0     O11279   9.212   9.118   4.355 -0.5885 -0.0985  0.1374
  844MOL0     C11280   9.291   9.016   4.317 -0.8347  0.5522 -0.0281
  844MOL0     C11281   9.334   8.991   4.181  0.3710 -0.8779  0.7397
  844MOL0     C11282   9.383   8.870   4.145  0.3943  0.4286 -0.9303
  844MOL0     C11283   9.415   8.773   4.250  0.3056 -0.6453  0.6753
  844MOL0     O11284   9.468   8.651   4.218 -0.6616  0.4912  0.6518
  844MOL0     C11285   9.605   8.664   4.198 -0.0804 -0.9190 -0.3393
  844MOL0     C11286   9.671   8.531   4.195  0.0109  0.4408 -0.0024
  844MOL0     C11287   9.665   8.453   4.326 -0.3142  0.2638 -0.5759
  844MOL0     C11288   9.745   8.324   4.318  0.4754 -0.2855  0.3654
  844MOL0     C11289   9.713   8.233   4.195  0.2632  0.2348  0.1802
  844MOL0     C11290   9.775   8.101   4.225 -0.6406 -0.0628  0.4445
  844MOL0     C11291   9.726   7.982   4.136 -0.3601 -0.9482 -0.3087
  844MOL0     C11292   9.767   7.999   3.989 -0.0629 -0.0854  0.3617
  844MOL0     N11293   9.696   7.902   3.896  0.4119 -0.4249 -0.0046
  844MOL0     C11294   9.599   7.934   3.803 -1.0738  0.8443  0.0896
  844MOL0     C11295   9.561   7.811   3.750 -0.8557 -0.5033  0.1258
  844MOL0     C11296   9.479   7.786   3.628 -0.7407  0.0403 -0.7112
  844MOL0     C11297   9.333   7.830   3.648  0.0247 -0.0729  0.3401
  844MOL0     C11298   9.244   7.758   3.745 -0.0081 -1.0829 -0.2746
  844MOL0     C11299   9.110   7.833   3.755 -0.2475  0.3328  0.7205
  844MOL0     O11300   9.039   7.820   3.628 -0.0102 -0.3479 -0.3290
  844MOL0     C11301   8.922   7.892   3.623  0.0905  0.5022 -0.3199
  844MOL0     C11302   8.799   7.822   3.627 -0.0996 -0.0646 -0.5107
  844MOL0     C11303   8.672   7.887   3.632 -1.4041 -0.6049 -0.6533
  844MOL0     C11304   8.679   8.031   3.644  1.0417  0.4004  0.4522
  844MOL0     C11305   8.555   8.112   3.647 -0.3810 -0.9282  0.7105
  844MOL0     O11306   8.437   8.045   3.683 -0.2667  0.1462  0.6586
  844MOL0     C11307   8.336   8.119   3.729  0.1968  0.0333 -0.6937
  844MOL0     C11308   8.352   8.203   3.843  0.2408 -0.8239  0.4823
  844MOL0     C11309   8.248   8.282   3.886 -0.0564  0.6839  0.1466
  844MOL0     C11310   8.121   8.270   3.820  0.4509 -0.7767  0.8446
  844MOL0     O11311   8.018   8.345   3.869 -0.0749 -0.0499  0.2852
  844MOL0     C11312   7.883   8.298   3.844  0.5893 -0.0325 -0.9312
  844MOL0     C11313   7.811   8.372   3.727  0.2256  0.3013  0.2917
  844MOL0     C11314   7.828   8.523   3.754  0.0859  0.8817  0.2409
  844MOL0     C11315   7.765   8.609   3.647 -0.4054  0.4137 -0.3105
  844MOL0     C11316   7.765   8.755   3.665 -0.5620  0.6733 -0.5624
  844MOL0     C11317   7.686   8.821   3.558  0.0211 -0.2120 -0.0202
  844MOL0     C11318   7.541   8.773   3.532  0.0721 -0.2132 -0.7342
  844MOL0     C11319   7.480   8.865   3.427 -0.4189  0.5948 -0.2289
  844MOL0    Cl11320   7.445   9.021   3.509  0.0145 -0.4163  0.1055
  844MOL0     C11321   8.110   8.185   3.707  0.6416 -0.5038 -0.8002
  844MOL0     C11322   8.220   8.118   3.662 -0.3086  0.2658 -0.8725
  844MOL0     O11323   8.564   8.229   3.600 -0.5416  0.2288  0.2044
  844MOL0     C11324   8.808   8.092   3.648  0.6444 -0.1212  0.5915
  844MOL0     C11325   8.929   8.028   3.634 -0.2800 -0.0972 -0.2417
  844MOL0     N11326   9.638   7.709   3.806  0.5220  0.4133 -0.3198
  844MOL0     N11327   9.715   7.766   3.894 -0.3222  0.5883 -0.0462
  844MOL0     C11328   9.389   8.805   4.377 -0.0152 -0.5141  0.0913
  844MOL0     C11329   9.319   8.921   4.403  0.0613 -0.9240 -1.1115
  844MOL0     C11330   9.162   9.359   4.332 -0.2338 -0.1065  0.7158
  844MOL0     C11331   9.031   9.333   4.355  0.5619  0.8237 -0.5753
  844MOL0     C11332   8.942   9.438   4.374  0.4796 -0.3987  0.0848
  844MOL0     C11333   8.977   9.577   4.356 -0.9204  0.5391 -0.0348
  844MOL0     O11334   8.891   9.677   4.379 -0.1453  0.2111  0.3112
  844MOL0     C11335   8.752   9.672   4.411  0.2388 -0.0172  0.2830
  844MOL0     C11336   8.686   9.788   4.341 -1.0381 -0.1827  0.9239
  844MOL0     C11337   8.698   9.793   4.188  0.2226  0.9178  0.0483
  844MOL0     C11338   8.545   9.793   4.126 -0.4148  0.4260  0.2349
  844MOL0     C11339   8.557   9.833   3.986  0.6349 -0.1043  0.2095
  844MOL0     C11340   8.562   9.853   3.861  0.2629  0.3930 -0.3555
  844MOL0     C11341   9.118   9.599   4.318 -0.2829  0.0311 -0.7369
  844MOL0     C11342   9.206   9.493   4.316  0.4660 -0.6664  0.5882
  844MOL0     H11343   9.309   9.058   4.100  0.1905 -0.7945  0.8653
  844MOL0     H11344   9.389   8.842   4.040  0.6259  1.2400 -1.1406
  844MOL0     H11345   9.641   8.720   4.285 -2.3995 -1.0786  0.7901
  844MOL0     H11346   9.634   8.719   4.109 -0.2568 -1.9882 -1.0783
  844MOL0     H11347   9.777   8.552   4.180  0.6271 -1.5724  1.0529
  844MOL0     H11348   9.620   8.482   4.112 -3.3405 -0.9960  2.6370
  844MOL0     H11349   9.559   8.431   4.339 -0.9526  0.0616 -4.6331
  844MOL0     H11350   9.696   8.508   4.415 -2.6097  0.2640  0.2787
  844MOL0     H11351   9.853   8.341   4.318  0.6188 -1.1308  0.7271
  844MOL0     H11352   9.713   8.275   4.411  1.5633 -1.3407  0.2098
  844MOL0     H11353   9.760   8.281   4.109 -1.3083  1.1471 -0.2045
  844MOL0     H11354   9.608   8.210   4.173  0.9768 -2.2783 -0.8721
  844MOL0     H11355   9.756   8.067   4.328  0.3748 -1.2835  0.2455
  844MOL0     H11356   9.883   8.118   4.224 -0.4251 -1.3500 -0.1156
  844MOL0     H11357   9.765   7.887   4.173 -0.8900 -0.5058  1.4456
  844MOL0     H11358   9.617   7.985   4.134 -0.3574 -0.9708 -0.5911
  844MOL0     H11359   9.876   7.991   3.980  0.0333  0.9792  0.4275
  844MOL0     H11360   9.750   8.100   3.952  2.5390 -0.5557 -2.4563
  844MOL0     H11361   9.544   8.023   3.774 -3.9282 -0.8151  0.0410
  844MOL0     H11362   9.498   7.681   3.603  0.6666  0.5193 -1.8140
  844MOL0     H11363   9.523   7.840   3.543 -0.9738 -3.2584 -3.0999
  844MOL0     H11364   9.288   7.818   3.549  0.7894 -0.3662  0.0174
  844MOL0     H11365   9.339   7.935   3.676 -1.6381 -0.0792  0.8063
  844MOL0     H11366   9.229   7.661   3.696 -0.6813  0.6640 -3.8460
  844MOL0     H11367   9.298   7.747   3.839  0.8265 -1.6658 -0.8122
  844MOL0     H11368   9.133   7.939   3.771  0.3383  0.4228 -0.5967
  844MOL0     H11369   9.061   7.780   3.837  0.4055 -0.6542  0.4805
  844MOL0     H11370   8.796   7.714   3.617 -0.7430 -0.4529  2.7335
  844MOL0     H11371   8.572   7.846   3.643 -1.6501  0.2490  0.4698
  844MOL0     H11372   8.440   8.202   3.906  0.5519 -0.6739  0.0587
  844MOL0     H11373   8.260   8.342   3.976 -0.9456 -1.6949  1.9711
  844MOL0     H11374   7.818   8.314   3.931  1.4357  0.6742 -0.4106
  844MOL0     H11375   7.875   8.190   3.830 -1.7272  0.3705 -3.6243
  844MOL0     H11376   7.709   8.332   3.725  1.1854 -2.3235 -2.0851
  844MOL0     H11377   7.856   8.350   3.629 -1.7283  0.9735 -0.8202
  844MOL0     H11378   7.932   8.558   3.760  0.1697  0.6404  0.1801
  844MOL0     H11379   7.782   8.550   3.849  2.2357  0.3716  1.5065
  844MOL0     H11380   7.811   8.585   3.551 -1.4736 -1.3176 -0.4306
  844MOL0     H11381   7.663   8.571   3.640 -0.2985  0.3835 -2.1694
  844MOL0     H11382   7.866   8.795   3.676 -0.0507 -0.5180 -0.7877
  844MOL0     H11383   7.720   8.785   3.760  2.8234  3.7971  0.2742
  844MOL0     H11384   7.746   8.818   3.467  1.0352 -0.1376  0.6253
  844MOL0     H11385   7.685   8.928   3.582 -0.2796  0.0884 -1.2867
  844MOL0     H11386   7.559   8.675   3.487  1.3790 -1.3841  2.0599
  844MOL0     H11387   7.486   8.767   3.626 -0.0530  0.0066 -0.7926
  844MOL0     H11388   7.386   8.824   3.389 -0.6330  0.9380 -0.0737
  844MOL0     H11389   7.550   8.876   3.344 -0.5720  3.5060 -0.0988
  844MOL0     H11390   8.014   8.175   3.656 -0.8650  0.8957  1.5467
  844MOL0     H11391   8.230   8.060   3.571  3.4020  2.0261 -1.7745
  844MOL0     H11392   8.825   8.199   3.660 -0.5858  0.0124  1.3831
  844MOL0     H11393   9.025   8.077   3.624 -0.7591  0.5481 -2.1775
  844MOL0     H11394   9.404   8.739   4.463 -1.4813 -0.2680  0.5673
  844MOL0     H11395   9.279   8.952   4.500  2.9894  2.6702 -0.8159
  844MOL0     H11396   8.996   9.232   4.373  3.9687 -0.3373  0.3927
  844MOL0     H11397   8.836   9.417   4.385  0.2989 -0.6805 -1.8404
  844MOL0     H11398   8.740   9.685   4.519  3.0293 -0.7909  0.7424
  844MOL0     H11399   8.707   9.577   4.381  2.4386 -1.5005  1.4415
  844MOL0     H11400   8.580   9.765   4.354 -0.4477 -2.9501  1.4123
  844MOL0     H11401   8.710   9.886   4.384  2.0684  0.1487 -1.2731
  844MOL0     H11402   8.754   9.708   4.146 -2.0813 -1.1765  1.0216
  844MOL0     H11403   8.759   9.882   4.168  0.6773  0.8759  1.1912
  844MOL0     H11404   8.502   9.692   4.121  1.1676 -0.2157 -2.9207
  844MOL0     H11405   8.487   9.864   4.186  0.8889 -0.1498  2.3040
  844MOL0     H11406   8.572   9.881   3.758 -4.0047  1.5871 -0.6317
  844MOL0     H11407   9.168   9.691   4.290  1.9042 -0.4984  1.1318
  844MOL0     H11408   9.308   9.523   4.294  0.3283 -0.0799  0.7406
  845MOL0     O11409   3.155  11.225   2.516  0.1719  0.2213 -0.9534
  845MOL0     C11410   3.163  11.343   2.548 -0.3712  0.2930  0.2165
  845MOL0     O11411   3.282  11.414   2.542 -0.1727 -0.7613  0.5190
  845MOL0     C11412   3.408  11.354   2.519  0.7802 -1.3024 -0.8043
  845MOL0     C11413   3.499  11.456   2.465  0.5861  1.1271 -0.4256
  845MOL0     C11414   3.624  11.404   2.419 -0.1546 -0.8526  0.0169
  845MOL0     C11415   3.665  11.269   2.445 -0.3436 -0.1595 -0.3879
  845MOL0     O11416   3.790  11.217   2.426  0.0222 -0.1331 -0.6970
  845MOL0     C11417   3.859  11.286   2.326  0.3296  0.5104 -0.3228
  845MOL0     C11418   3.963  11.199   2.254 -0.6161 -0.2580  0.9638
  845MOL0     C11419   4.043  11.129   2.354 -0.5339 -0.2280 -0.7430
  845MOL0     C11420   4.143  11.029   2.290  0.7863  0.5317  0.3728
  845MOL0     C11421   4.247  10.951   2.389  0.4946 -0.5071 -1.3977
  845MOL0     C11422   4.326  11.034   2.501  0.2005 -0.5641  0.7425
  845MOL0     C11423   4.388  11.166   2.442  0.1855 -0.0226 -0.0207
  845MOL0     C11424   4.486  11.152   2.325  0.3167  0.0621 -1.1069
  845MOL0     N11425   4.545  11.281   2.280  0.8374  0.0152  0.9861
  845MOL0     C11426   4.526  11.405   2.334  0.1643  0.1934 -0.5371
  845MOL0     C11427   4.590  11.494   2.253  0.0966  0.6389 -0.0857
  845MOL0     C11428   4.578  11.642   2.268  0.2030 -0.7284 -0.1569
  845MOL0     C11429   4.653  11.696   2.393 -0.0290  0.1780  0.0478
  845MOL0     C11430   4.636  11.852   2.400 -0.0610 -0.4535  0.2070
  845MOL0     C11431   4.713  11.910   2.515 -0.1162 -0.5635  0.6142
  845MOL0     O11432   4.648  12.028   2.548 -0.3268 -0.2595 -0.2789
  845MOL0     C11433   4.701  12.117   2.640 -0.0297 -0.4255 -0.4865
  845MOL0     C11434   4.623  12.226   2.686  0.1695  0.9351 -0.1965
  845MOL0     C11435   4.676  12.319   2.781  0.4285  0.1811 -0.0060
  845MOL0     C11436   4.806  12.307   2.819  0.1943 -0.5831  0.1127
  845MOL0     C11437   4.849  12.397   2.931 -0.4517  0.1984  0.7599
  845MOL0     O11438   4.750  12.467   2.988  0.3944 -0.3205  0.5830
  845MOL0     C11439   4.762  12.552   3.100  1.0658 -0.5114 -0.4274
  845MOL0     C11440   4.656  12.547   3.197 -1.7496  0.3090  0.0935
  845MOL0     C11441   4.666  12.625   3.314 -0.4264  0.5512  0.3541
  845MOL0     C11442   4.759  12.724   3.326 -0.6367 -0.3355 -1.0752
  845MOL0     O11443   4.760  12.807   3.442  0.2165 -0.4737  0.0524
  845MOL0     C11444   4.788  12.948   3.429 -0.2705 -0.6621 -0.1615
  845MOL0     C11445   4.726  13.015   3.552  0.4882 -1.1457 -1.5295
  845MOL0     C11446   4.786  13.152   3.595 -0.0607 -0.7204  0.7339
  845MOL0     C11447   4.715  13.223   3.716  0.2735  0.2851  0.7474
  845MOL0     C11448   4.807  13.341   3.756  0.3792  1.7693  0.5177
  845MOL0     C11449   4.768  13.403   3.881 -0.6339 -0.2118 -0.2746
  845MOL0     C11450   4.849  13.539   3.893 -0.0462  0.1461  0.9235
  845MOL0     C11451   4.784  13.626   3.997  0.1255  0.0734 -0.3344
  845MOL0    Cl11452   4.648  13.696   3.924 -0.1241  0.1528  0.5166
  845MOL0     C11453   4.870  12.719   3.242  0.7521 -0.5215  0.6375
  845MOL0     C11454   4.875  12.633   3.137 -0.0617  0.0371 -0.7268
  845MOL0     O11455   4.953  12.369   2.983  0.3278 -0.4211 -0.9629
  845MOL0     C11456   4.891  12.213   2.769  0.2979 -0.7764 -0.1929
  845MOL0     C11457   4.836  12.113   2.682  0.9632  0.0849 -0.4043
  845MOL0     N11458   4.628  11.420   2.144 -0.8782 -0.2851  0.2384
  845MOL0     N11459   4.599  11.297   2.157 -0.5056  0.9352 -0.5264
  845MOL0     C11460   3.570  11.176   2.497  0.2334 -0.8311 -0.1756
  845MOL0     C11461   3.443  11.220   2.537 -0.0304  0.3031 -0.7447
  845MOL0     C11462   3.045  11.410   2.589 -0.9917 -0.8765 -0.5812
  845MOL0     C11463   2.916  11.381   2.533  0.1514  0.2279  0.5927
  845MOL0     C11464   2.812  11.476   2.556 -0.1083 -0.5484  0.5677
  845MOL0     C11465   2.825  11.586   2.651  0.1985  0.1452  0.0627
  845MOL0     O11466   2.707  11.639   2.688  0.1934 -0.4472  1.4704
  845MOL0     C11467   2.714  11.740   2.791  0.2730  0.1645 -0.4505
  845MOL0     C11468   2.574  11.764   2.846 -0.3795 -0.5986 -0.0943
  845MOL0     C11469   2.479  11.817   2.737 -0.8530  0.9267  0.5293
  845MOL0     C11470   2.347  11.847   2.805  0.3987  0.2951  0.1634
  845MOL0     C11471   2.357  11.955   2.903 -0.0319  0.5255  0.0860
  845MOL0     C11472   2.365  12.034   2.997  0.2351  0.9653 -1.1484
  845MOL0     C11473   2.950  11.597   2.719 -0.7556  0.2015 -0.2743
  845MOL0     C11474   3.057  11.521   2.671 -0.8941  0.0199 -0.2570
  845MOL0     H11475   3.470  11.553   2.425 -3.4260  0.3897  0.3239
  845MOL0     H11476   3.683  11.479   2.368 -0.9622  0.3727  0.8110
  845MOL0     H11477   3.933  11.356   2.365  2.7940 -3.7964  3.8349
  845MOL0     H11478   3.792  11.311   2.243 -2.8920 -0.8162  1.7053
  845MOL0     H11479   4.020  11.270   2.192 -0.7757  1.5889  2.8304
  845MOL0     H11480   3.903  11.136   2.188  0.6273  1.3784 -1.9695
  845MOL0     H11481   3.984  11.080   2.432 -0.7765  3.6622  1.7414
  845MOL0     H11482   4.107  11.199   2.408 -2.5228  0.7548  0.4182
  845MOL0     H11483   4.080  10.963   2.230 -1.6688 -0.8219  4.1087
  845MOL0     H11484   4.209  11.084   2.222  0.8683  0.1694  0.1557
  845MOL0     H11485   4.321  10.910   2.321 -2.0045 -2.0435 -3.3929
  845MOL0     H11486   4.197  10.866   2.437 -1.3099 -0.1180 -2.4609
  845MOL0     H11487   4.406  10.983   2.556  1.4171 -0.9265 -1.2703
  845MOL0     H11488   4.242  11.062   2.566  1.1205  1.6056  1.0525
  845MOL0     H11489   4.296  11.220   2.417 -0.6691 -0.2044  2.4836
  845MOL0     H11490   4.436  11.211   2.529  0.6921  0.7687 -0.6978
  845MOL0     H11491   4.423  11.132   2.238  0.2820 -2.8641 -0.4951
  845MOL0     H11492   4.566  11.078   2.337  2.1319  1.8284 -1.6506
  845MOL0     H11493   4.450  11.444   2.402 -0.2944  2.2979 -2.1592
  845MOL0     H11494   4.474  11.675   2.281  0.8650  1.2519  0.4943
  845MOL0     H11495   4.612  11.690   2.175 -0.7706 -2.1276 -1.2895
  845MOL0     H11496   4.761  11.677   2.383 -0.2158 -1.6705  1.1076
  845MOL0     H11497   4.619  11.644   2.483  0.1663  1.0848  0.6625
  845MOL0     H11498   4.668  11.882   2.300 -3.1585 -1.4540 -1.1998
  845MOL0     H11499   4.530  11.875   2.414  0.2827  0.6850  1.0750
  845MOL0     H11500   4.815  11.935   2.484 -0.0150  3.4273  3.3401
  845MOL0     H11501   4.721  11.837   2.595 -1.1091 -0.4454  0.8405
  845MOL0     H11502   4.523  12.236   2.646 -0.9523 -3.2476  1.0828
  845MOL0     H11503   4.614  12.394   2.828 -0.1819 -0.6658  0.5871
  845MOL0     H11504   4.578  12.473   3.179  0.5262 -2.2665  0.0403
  845MOL0     H11505   4.590  12.612   3.390  1.4312 -1.4252  1.9962
  845MOL0     H11506   4.754  12.995   3.337 -2.2838  1.4494  1.5387
  845MOL0     H11507   4.897  12.956   3.425 -0.2515 -1.2839 -2.6829
  845MOL0     H11508   4.713  12.946   3.636  2.2717 -0.1763 -0.4062
  845MOL0     H11509   4.628  13.051   3.517  1.8236  1.3678 -2.9303
  845MOL0     H11510   4.793  13.211   3.503  0.1276 -2.6126 -0.5104
  845MOL0     H11511   4.882  13.129   3.642  0.9303 -2.3582 -1.8486
  845MOL0     H11512   4.616  13.267   3.705 -0.0099  0.3466  3.0848
  845MOL0     H11513   4.691  13.157   3.800 -1.9256  1.3011  0.9685
  845MOL0     H11514   4.811  13.412   3.672 -1.0968  0.4218 -0.7659
  845MOL0     H11515   4.906  13.296   3.769  0.4542  2.0533  0.9525
  845MOL0     H11516   4.793  13.341   3.967  1.0125  0.5764 -0.1321
  845MOL0     H11517   4.663  13.431   3.883  0.0029  2.4220  0.3696
  845MOL0     H11518   4.952  13.526   3.928  1.0596  2.2023 -1.2514
  845MOL0     H11519   4.850  13.593   3.797 -2.2572 -0.2932  0.6023
  845MOL0     H11520   4.859  13.703   4.020  2.9212 -3.3102  3.4367
  845MOL0     H11521   4.770  13.575   4.093 -0.8359  0.5385 -0.2235
  845MOL0     H11522   4.962  12.775   3.254  2.1262 -2.4483 -0.4198
  845MOL0     H11523   4.970  12.633   3.085  0.2728 -1.5533 -0.1651
  845MOL0     H11524   4.997  12.226   2.788  0.8729 -0.0230 -3.3648
  845MOL0     H11525   4.909  12.043   2.644  5.0261  2.8501  1.5152
  845MOL0     H11526   3.598  11.071   2.506  1.7376 -0.3878  0.6884
  845MOL0     H11527   3.369  11.147   2.568 -2.7719  3.8817  2.2144
  845MOL0     H11528   2.895  11.290   2.478  0.2160  0.2673  0.5033
  845MOL0     H11529   2.714  11.462   2.511 -1.5210 -1.5316  3.6835
  845MOL0     H11530   2.756  11.834   2.753  1.1231  0.8838  2.0792
  845MOL0     H11531   2.768  11.702   2.878 -1.3999  1.2147  1.1232
  845MOL0     H11532   2.524  11.676   2.888 -3.1303  0.2747 -1.3018
  845MOL0     H11533   2.585  11.838   2.925  0.6250 -0.5642 -0.2405
  845MOL0     H11534   2.470  11.729   2.672  1.0543  0.6357  0.5826
  845MOL0     H11535   2.520  11.901   2.681 -5.2534  2.1413 -1.2608
  845MOL0     H11536   2.260  11.865   2.741 -2.3130 -1.9452  2.8977
  845MOL0     H11537   2.313  11.758   2.860 -2.1925  2.2932  2.0545
  845MOL0     H11538   2.369  12.112   3.070  0.0443  1.1896 -1.3759
  845MOL0     H11539   2.961  11.677   2.792  0.7414  1.3491 -1.6804
  845MOL0     H11540   3.157  11.551   2.701 -0.5362 -0.1133 -1.2813
  846MOL0     O11541   0.685   0.433  11.145 -0.4450  0.7196  0.8592
  846MOL0     C11542   0.589   0.358  11.163  0.3362 -0.0457  0.1165
  846MOL0     O11543   0.482   0.379  11.246  0.8035  0.3652 -0.6171
  846MOL0     C11544   0.493   0.491  11.327 -0.8267  1.2827  0.2670
  846MOL0     C11545   0.603   0.503  11.418  0.5133 -0.4699  0.0261
  846MOL0     C11546   0.625   0.624  11.493 -0.5468  0.3535  0.6846
  846MOL0     C11547   0.535   0.731  11.470 -1.3041 -0.0139  0.4051
  846MOL0     O11548   0.569   0.845  11.548 -0.0931 -0.4529  0.6950
  846MOL0     C11549   0.578   0.965  11.472  1.0075  0.6451 -0.4619
  846MOL0     C11550   0.712   0.978  11.390 -0.6068  0.7997  0.3393
  846MOL0     C11551   0.837   0.971  11.476  0.1026  0.2346 -0.0492
  846MOL0     C11552   0.964   0.993  11.405 -0.2166  0.0882  0.4089
  846MOL0     C11553   1.083   0.961  11.498 -1.0832  0.1040 -0.2376
  846MOL0     C11554   1.226   0.990  11.442 -0.1663  0.0974  1.1712
  846MOL0     C11555   1.348   0.938  11.522  0.4940  1.4960  0.0972
  846MOL0     C11556   1.368   1.016  11.652  0.3685  0.7767 -0.1231
  846MOL0     N11557   1.487   0.968  11.731  0.3331  0.6511 -0.0056
  846MOL0     C11558   1.502   0.839  11.779  0.3342 -0.1488 -0.4601
  846MOL0     C11559   1.603   0.838  11.875 -0.3706  0.0408 -0.0915
  846MOL0     C11560   1.643   0.711  11.949 -0.8046 -0.0367 -0.5773
  846MOL0     C11561   1.585   0.676  12.097 -0.7075 -0.4353 -1.1645
  846MOL0     C11562   1.631   0.780  12.188  0.6232 -0.3168 -0.9001
  846MOL0     C11563   1.753   0.738  12.262  0.0724 -0.0764  0.4179
  846MOL0     O11564   1.718   0.619  12.333 -0.7500 -0.0841  0.5409
  846MOL0     C11565   1.659   0.634  12.461 -1.0566  1.5804 -0.3508
  846MOL0     C11566   1.602   0.528  12.529 -0.5738 -0.4695 -0.6421
  846MOL0     C11567   1.553   0.530  12.654 -0.4861  0.8890 -0.4213
  846MOL0     C11568   1.555   0.639  12.733 -0.6841 -0.3597 -0.9806
  846MOL0     C11569   1.495   0.651  12.880 -0.9724  0.7900  0.3037
  846MOL0     O11570   1.482   0.769  12.946  0.1265  0.0003 -0.0945
  846MOL0     C11571   1.416   0.768  13.063  0.0849 -0.1181  0.2839
  846MOL0     C11572   1.490   0.794  13.178  0.5163 -0.7261 -0.5508
  846MOL0     C11573   1.426   0.789  13.303 -0.6128 -0.4911  0.2014
  846MOL0     C11574   1.293   0.751  13.314 -0.1450  0.4641  0.4634
  846MOL0     O11575   1.239   0.741  13.441 -0.6810 -0.2168  0.2638
  846MOL0     C11576   1.134   0.652  13.476  0.6781  0.3160 -0.6787
  846MOL0     C11577   0.996   0.711  13.454  0.1493 -0.8021  0.0028
  846MOL0     C11578   0.886   0.637  13.528 -0.9616  0.5812  0.4878
  846MOL0     C11579   0.755   0.702  13.498 -0.0495 -0.5102  0.4966
  846MOL0     C11580   0.647   0.632  13.572  0.5605 -0.9768  0.5628
  846MOL0     C11581   0.530   0.724  13.596 -1.0691  0.1981  0.3969
  846MOL0     C11582   0.465   0.775  13.457 -0.0461 -0.7861  0.3443
  846MOL0     C11583   0.349   0.873  13.491  0.7194  0.3573  0.2367
  846MOL0    Cl11584   0.413   1.011  13.575  0.5556 -0.3135  0.3185
  846MOL0     C11585   1.221   0.728  13.196 -0.2050  0.2951 -0.6442
  846MOL0     C11586   1.277   0.739  13.069 -0.8838 -0.6311  0.3686
  846MOL0     O11587   1.477   0.535  12.926 -0.1564  0.1822  0.3438
  846MOL0     C11588   1.627   0.752  12.685  0.3023  0.6549  0.1397
  846MOL0     C11589   1.669   0.743  12.549 -0.8538  0.7384 -0.6130
  846MOL0     N11590   1.656   0.962  11.868 -0.3941 -0.5362  0.4559
  846MOL0     N11591   1.591   1.036  11.785 -0.4383  0.1219  0.1821
  846MOL0     C11592   0.423   0.720  11.386  0.2523  0.1942  0.8521
  846MOL0     C11593   0.404   0.597  11.309  0.3365  0.8098  0.6115
  846MOL0     C11594   0.586   0.231  11.075  0.2224 -0.6205 -0.4318
  846MOL0     C11595   0.656   0.210  10.954  0.4288 -0.3744 -1.1598
  846MOL0     C11596   0.657   0.083  10.892 -0.0691  0.6299  0.0068
  846MOL0     C11597   0.588  -0.030  10.953 -0.3334  0.1289  0.9185
  846MOL0     O11598   0.599  -0.151  10.893  0.3186  0.3651 -0.3631
  846MOL0     C11599   0.703  -0.233  10.955  0.5470 -0.1176 -0.2019
  846MOL0     C11600   0.669  -0.385  10.938  0.7833  0.1693  1.1778
  846MOL0     C11601   0.650  -0.438  10.797 -0.4975 -0.4191 -0.0260
  846MOL0     C11602   0.775  -0.448  10.719  0.1784  0.2893  0.2475
  846MOL0     C11603   0.848  -0.571  10.743 -0.2785 -0.9613  0.0826
  846MOL0     C11604   0.929  -0.662  10.750 -0.2923 -0.5837 -0.1987
  846MOL0     C11605   0.514  -0.009  11.069  0.3717  0.3887 -0.3732
  846MOL0     C11606   0.513   0.126  11.123  0.6544  0.2353  0.1839
  846MOL0     H11607   0.674   0.422  11.431  1.6832  0.1280 -2.2365
  846MOL0     H11608   0.715   0.630  11.553 -0.6015  1.2611  0.6905
  846MOL0     H11609   0.575   1.054  11.535  1.6749  0.1401  0.3097
  846MOL0     H11610   0.495   0.978  11.402  1.2283  2.0804 -0.4800
  846MOL0     H11611   0.716   1.080  11.353 -0.5288  0.2062 -1.3719
  846MOL0     H11612   0.724   0.904  11.310  2.7707  1.6090 -0.0482
  846MOL0     H11613   0.833   0.885  11.543 -1.5207  0.9669  0.8534
  846MOL0     H11614   0.824   1.056  11.544 -0.3785  0.9940 -1.0610
  846MOL0     H11615   0.965   0.939  11.310 -0.1271  1.5769 -0.4528
  846MOL0     H11616   0.969   1.099  11.380 -0.2879 -0.1108 -0.4689
  846MOL0     H11617   1.076   0.862  11.543  1.9681 -0.8313 -1.5661
  846MOL0     H11618   1.070   1.034  11.578 -2.1869  0.2370 -0.5197
  846MOL0     H11619   1.235   1.094  11.409  1.1121 -1.0348 -2.6610
  846MOL0     H11620   1.231   0.938  11.345  1.8204  3.4678 -0.7444
  846MOL0     H11621   1.319   0.835  11.544 -0.1880  1.9859  1.6825
  846MOL0     H11622   1.435   0.959  11.460 -0.7041 -0.0796 -2.2865
  846MOL0     H11623   1.275   1.028  11.709  0.4437  5.1998 -0.5954
  846MOL0     H11624   1.392   1.121  11.633 -3.9732  2.5805  2.8397
  846MOL0     H11625   1.440   0.755  11.750  4.1185 -2.4793 -2.5816
  846MOL0     H11626   1.752   0.701  11.949 -0.7554  0.4341 -0.7298
  846MOL0     H11627   1.615   0.632  11.879  2.0190 -2.5281  0.9084
  846MOL0     H11628   1.624   0.581  12.135  0.7890 -1.3093 -4.5254
  846MOL0     H11629   1.476   0.670  12.082 -1.6312  2.6845  2.6626
  846MOL0     H11630   1.644   0.877  12.140  2.8531 -0.2833 -0.3457
  846MOL0     H11631   1.556   0.806  12.264  2.6935  1.9188  0.5221
  846MOL0     H11632   1.798   0.822  12.317  0.8013 -0.4775  0.4449
  846MOL0     H11633   1.835   0.711  12.196  0.7262  0.1589  1.1105
  846MOL0     H11634   1.593   0.429  12.487  1.2404 -0.0389 -2.1955
  846MOL0     H11635   1.513   0.436  12.691  3.3455 -1.1314 -0.9618
  846MOL0     H11636   1.596   0.814  13.171  0.6869 -1.4077 -0.0033
  846MOL0     H11637   1.471   0.815  13.398 -1.1259 -0.7436  0.5210
  846MOL0     H11638   1.156   0.621  13.578 -2.9417 -0.0580  0.1201
  846MOL0     H11639   1.131   0.555  13.425  1.0898 -0.8074  1.3499
  846MOL0     H11640   0.976   0.721  13.346  1.7300 -2.1818 -0.4578
  846MOL0     H11641   1.003   0.811  13.499  4.2768 -1.1782  0.5455
  846MOL0     H11642   0.925   0.637  13.630  1.8883  1.9799 -0.5013
  846MOL0     H11643   0.888   0.533  13.491  1.5331  0.6118  0.3563
  846MOL0     H11644   0.768   0.804  13.534 -0.5170 -0.4963  0.6353
  846MOL0     H11645   0.726   0.709  13.392  2.1434  2.3408 -0.0355
  846MOL0     H11646   0.677   0.588  13.667  0.2794 -0.1163  1.0641
  846MOL0     H11647   0.617   0.554  13.502  1.3486  0.6495 -1.7207
  846MOL0     H11648   0.551   0.807  13.665  0.3309 -1.4872  2.1060
  846MOL0     H11649   0.458   0.660  13.647 -0.0376  0.0713  1.7875
  846MOL0     H11650   0.539   0.831  13.399 -0.6892  2.5504  2.4733
  846MOL0     H11651   0.427   0.692  13.396  2.8292 -0.9782 -1.3676
  846MOL0     H11652   0.272   0.826  13.553 -2.1770  2.2485 -1.6640
  846MOL0     H11653   0.282   0.905  13.410 -3.1504 -0.7333  2.7246
  846MOL0     H11654   1.121   0.686  13.196 -0.1361  0.0161  1.7102
  846MOL0     H11655   1.228   0.711  12.976  0.5463 -0.6457 -0.4040
  846MOL0     H11656   1.644   0.843  12.742 -0.7356 -0.3467  2.1553
  846MOL0     H11657   1.722   0.834  12.522 -0.9654  0.5107 -1.6324
  846MOL0     H11658   0.353   0.802  11.389 -0.2182 -0.1665  0.0263
  846MOL0     H11659   0.316   0.580  11.247 -1.7072 -1.0700  3.7812
  846MOL0     H11660   0.710   0.299  10.924  0.3302  0.8352  1.9445
  846MOL0     H11661   0.724   0.060  10.809  0.3665 -3.0819  1.2079
  846MOL0     H11662   0.715  -0.216  11.063 -0.1894  1.1832 -0.2946
  846MOL0     H11663   0.802  -0.222  10.911  2.1939 -1.0807  2.9867
  846MOL0     H11664   0.744  -0.452  10.981  0.6151 -1.3962 -0.8179
  846MOL0     H11665   0.576  -0.403  10.993  0.4812  1.0011  0.9620
  846MOL0     H11666   0.582  -0.373  10.741 -1.0007 -1.7316 -1.0302
  846MOL0     H11667   0.606  -0.539  10.799 -3.0215  0.5272 -1.8998
  846MOL0     H11668   0.735  -0.441  10.618 -2.4506  1.4123  1.2779
  846MOL0     H11669   0.852  -0.372  10.733  5.8711 -4.1951 -2.4522
  846MOL0     H11670   0.984  -0.753  10.762 -1.6042 -1.3746  0.0526
  846MOL0     H11671   0.464  -0.095  11.113  0.9005 -0.6903 -1.7849
  846MOL0     H11672   0.458   0.139  11.216 -1.9988  1.1868 -1.4137
  847MOL0     O11673   4.811   2.973   3.107 -0.2418 -0.4219 -0.7367
  847MOL0     C11674   4.805   2.869   3.170  0.6594  0.5880 -0.1036
  847MOL0     O11675   4.694   2.825   3.244  0.2985  0.5347 -0.0122
  847MOL0     C11676   4.573   2.889   3.240 -0.7536 -0.5200  0.1171
  847MOL0     C11677   4.553   3.019   3.290  1.2083 -0.3061 -0.0845
  847MOL0     C11678   4.415   3.061   3.286 -0.6869  0.1463  0.1431
  847MOL0     C11679   4.312   2.989   3.235 -0.7632 -0.7823  0.2337
  847MOL0     O11680   4.193   3.058   3.221 -0.6476  0.1721 -0.3865
  847MOL0     C11681   4.070   2.995   3.194  0.0641  0.3978  1.3996
  847MOL0     C11682   3.948   3.084   3.230 -0.7402 -0.5058  0.4574
  847MOL0     C11683   3.807   3.012   3.235  0.0074  0.1732 -0.1696
  847MOL0     C11684   3.686   3.099   3.260  0.0288  0.7743  0.2047
  847MOL0     C11685   3.561   3.013   3.275  1.6848  0.5107 -0.5149
  847MOL0     C11686   3.509   2.968   3.142 -0.1704  0.8764 -0.9108
  847MOL0     C11687   3.410   2.862   3.160  0.0283 -0.7673  0.6900
  847MOL0     C11688   3.271   2.909   3.216 -0.0413  0.5077 -0.1900
  847MOL0     N11689   3.187   2.794   3.240 -0.1608  0.0176  0.3738
  847MOL0     C11690   3.125   2.728   3.137  0.0359  0.3122  0.1373
  847MOL0     C11691   3.091   2.607   3.197  0.2182 -0.5873  0.1477
  847MOL0     C11692   3.021   2.484   3.138  0.1165  0.4081  0.0209
  847MOL0     C11693   3.061   2.473   2.988  1.0353  0.2240  0.1779
  847MOL0     C11694   2.983   2.348   2.938 -0.4505 -0.3285  0.4276
  847MOL0     C11695   3.028   2.289   2.791  0.0510 -0.1543 -0.2611
  847MOL0     O11696   2.915   2.194   2.760 -0.1635 -0.3589 -0.0519
  847MOL0     C11697   2.945   2.055   2.794  0.3457 -0.9238  0.8462
  847MOL0     C11698   2.853   1.958   2.746 -0.2968 -0.8954 -0.1650
  847MOL0     C11699   2.865   1.819   2.777  0.0190 -0.0921  0.1678
  847MOL0     C11700   2.966   1.774   2.861  0.3487  0.2220  0.3579
  847MOL0     C11701   2.988   1.637   2.899 -0.5917 -0.3385 -0.4601
  847MOL0     O11702   3.060   1.623   3.015 -0.2899  0.4293 -0.1426
  847MOL0     C11703   3.136   1.514   3.057  0.7476 -0.8120  0.5251
  847MOL0     C11704   3.155   1.493   3.196  0.2333 -0.0599  0.7245
  847MOL0     C11705   3.226   1.383   3.236  0.7774  0.6746 -0.2732
  847MOL0     C11706   3.295   1.299   3.151 -1.0914 -0.8307  0.3303
  847MOL0     O11707   3.375   1.200   3.204 -0.4424 -0.3983  0.4129
  847MOL0     C11708   3.336   1.069   3.195  0.5220  0.2697 -0.1719
  847MOL0     C11709   3.393   0.982   3.310  0.1664  0.5270 -0.1320
  847MOL0     C11710   3.312   0.972   3.437 -1.0177 -0.3605  0.0347
  847MOL0     C11711   3.371   0.880   3.540 -0.0708 -0.6281  0.2331
  847MOL0     C11712   3.291   0.879   3.668  0.6744  0.3531 -0.1207
  847MOL0     C11713   3.354   0.802   3.788  0.2090  0.3067  0.5353
  847MOL0     C11714   3.498   0.851   3.821 -0.0934 -0.6226 -0.1313
  847MOL0     C11715   3.546   0.801   3.956  0.1085  0.2965  0.3481
  847MOL0    Cl11716   3.475   0.888   4.089  0.0013 -0.4036 -0.1966
  847MOL0     C11717   3.286   1.324   3.010  0.2604 -0.5733 -0.4427
  847MOL0     C11718   3.199   1.429   2.969  0.6720  0.8184 -0.0415
  847MOL0     O11719   2.939   1.545   2.831 -0.1451  0.1972 -0.3143
  847MOL0     C11720   3.059   1.871   2.902 -0.1849  0.0877  0.5483
  847MOL0     C11721   3.051   2.007   2.865 -0.4686 -0.8960 -0.2919
  847MOL0     N11722   3.132   2.608   3.327  0.4239 -0.0402 -0.6133
  847MOL0     N11723   3.192   2.716   3.353 -0.8815 -0.4335  0.4446
  847MOL0     C11724   4.340   2.869   3.173 -0.1137  1.1908 -0.4011
  847MOL0     C11725   4.469   2.824   3.171  0.5480 -0.7845 -0.3274
  847MOL0     C11726   4.918   2.774   3.155  0.4018  0.3353  0.4939
  847MOL0     C11727   4.888   2.639   3.193  0.3275 -0.1944 -0.2056
  847MOL0     C11728   4.984   2.544   3.189 -0.1320 -0.3576  0.0942
  847MOL0     C11729   5.108   2.577   3.140 -1.2309 -0.0751  0.4384
  847MOL0     O11730   5.207   2.482   3.132 -0.3197  0.2064 -0.0621
  847MOL0     C11731   5.186   2.381   3.033  0.3691  0.0252  0.5684
  847MOL0     C11732   5.290   2.384   2.918  0.6493 -0.2779 -0.2484
  847MOL0     C11733   5.280   2.508   2.832 -0.5908  0.2939 -1.5786
  847MOL0     C11734   5.376   2.491   2.717  0.0486 -0.5335  0.1537
  847MOL0     C11735   5.366   2.605   2.622 -0.8761  0.6837 -1.5022
  847MOL0     C11736   5.360   2.675   2.525  0.3813 -0.1655 -0.5154
  847MOL0     C11737   5.136   2.706   3.104 -0.3282  0.4489  0.5545
  847MOL0     C11738   5.046   2.811   3.132 -0.4918 -0.4490 -0.1804
  847MOL0     H11739   4.637   3.073   3.332 -0.0365  1.7467 -0.1028
  847MOL0     H11740   4.397   3.160   3.327 -0.1961  0.9843 -1.5715
  847MOL0     H11741   4.070   2.897   3.242  1.3858  1.7783  4.4335
  847MOL0     H11742   4.072   2.984   3.085  1.8156 -0.1559  1.4582
  847MOL0     H11743   3.944   3.156   3.148 -0.0123  0.6194  1.3797
  847MOL0     H11744   3.967   3.127   3.329  1.1555 -1.2384  0.4507
  847MOL0     H11745   3.813   2.934   3.312 -4.8910  0.0127  0.3575
  847MOL0     H11746   3.778   2.947   3.151 -1.8570 -4.3255  3.5049
  847MOL0     H11747   3.692   3.156   3.353 -3.6002  0.1721  0.9932
  847MOL0     H11748   3.677   3.160   3.170  4.6572  1.3612 -0.0709
  847MOL0     H11749   3.485   3.081   3.314  2.3334 -0.7595  3.4387
  847MOL0     H11750   3.571   2.936   3.352 -3.4241  0.5019  0.5104
  847MOL0     H11751   3.593   2.928   3.084  2.3327  2.6338  1.2434
  847MOL0     H11752   3.468   3.050   3.082 -4.0776 -1.0769 -1.2429
  847MOL0     H11753   3.392   2.849   3.053 -0.0219  2.7241  0.1508
  847MOL0     H11754   3.451   2.776   3.213  0.0760 -3.4975 -3.3762
  847MOL0     H11755   3.222   2.969   3.140 -1.1827  0.7759  0.7290
  847MOL0     H11756   3.288   2.951   3.316 -2.4205 -0.0521  0.5244
  847MOL0     H11757   3.096   2.753   3.036  1.7228 -1.7413 -0.9275
  847MOL0     H11758   2.913   2.496   3.151 -0.1503  2.2715 -2.9801
  847MOL0     H11759   3.067   2.396   3.184 -0.5331 -0.5720 -1.1692
  847MOL0     H11760   3.170   2.469   2.987  1.0009 -1.9309 -0.1710
  847MOL0     H11761   3.025   2.562   2.937 -1.5731 -0.8567 -0.0472
  847MOL0     H11762   2.982   2.270   3.014  0.0092  3.5883  4.9056
  847MOL0     H11763   2.882   2.388   2.933 -0.0336  0.8477  1.0239
  847MOL0     H11764   3.122   2.233   2.795 -2.4898 -5.0434 -1.1100
  847MOL0     H11765   3.034   2.357   2.706  0.8826 -0.4253 -0.4315
  847MOL0     H11766   2.775   1.993   2.679  0.2363 -0.7640 -0.7241
  847MOL0     H11767   2.787   1.749   2.748 -2.2242  1.8744  1.1198
  847MOL0     H11768   3.106   1.549   3.274  0.3535  0.7557  0.2300
  847MOL0     H11769   3.224   1.354   3.340 -2.7102  0.5540 -0.2592
  847MOL0     H11770   3.380   1.036   3.100  0.1396 -0.9856  0.0612
  847MOL0     H11771   3.229   1.046   3.197  1.1213 -3.0074 -0.5286
  847MOL0     H11772   3.491   1.023   3.332 -0.1461  1.1493  0.1263
  847MOL0     H11773   3.392   0.880   3.270 -1.6683  1.6040 -3.2688
  847MOL0     H11774   3.216   0.925   3.413 -0.8884 -1.0085  0.7396
  847MOL0     H11775   3.295   1.075   3.470 -4.5998 -0.0431 -2.2686
  847MOL0     H11776   3.371   0.778   3.500 -0.0069 -1.9220  3.2230
  847MOL0     H11777   3.477   0.900   3.559  0.5905 -0.2892 -3.2711
  847MOL0     H11778   3.190   0.837   3.661 -2.1817  5.5560  3.1716
  847MOL0     H11779   3.289   0.984   3.699  3.5009  0.4331  0.0385
  847MOL0     H11780   3.364   0.696   3.766  1.4790  0.3470  0.8418
  847MOL0     H11781   3.285   0.807   3.873 -0.4200 -0.8473  0.1119
  847MOL0     H11782   3.567   0.809   3.747 -1.2679 -1.1070 -0.9808
  847MOL0     H11783   3.496   0.960   3.822 -2.1662 -0.5786 -1.4776
  847MOL0     H11784   3.652   0.826   3.945  0.3017 -0.9035 -0.7666
  847MOL0     H11785   3.526   0.694   3.964  0.1340  0.1203 -1.4284
  847MOL0     H11786   3.344   1.280   2.929 -0.2881  1.2658 -1.9169
  847MOL0     H11787   3.170   1.437   2.864 -2.6388 -0.4975  0.6288
  847MOL0     H11788   3.147   1.838   2.955 -1.1812 -2.4019  0.8323
  847MOL0     H11789   3.130   2.072   2.903 -0.5079 -2.2533  2.3039
  847MOL0     H11790   4.268   2.807   3.119  1.7049  0.6456 -2.3554
  847MOL0     H11791   4.499   2.735   3.117  1.5954  0.1382 -1.3062
  847MOL0     H11792   4.789   2.614   3.231  0.2207  1.0009  0.3481
  847MOL0     H11793   4.968   2.440   3.212  0.6463 -0.6123 -0.4484
  847MOL0     H11794   5.089   2.408   2.991  0.7594  1.0779  0.3092
  847MOL0     H11795   5.181   2.280   3.074  0.7451 -0.8798 -1.4660
  847MOL0     H11796   5.393   2.368   2.949  0.3251  1.9675  2.2786
  847MOL0     H11797   5.265   2.301   2.851 -2.6015  0.6782 -0.4083
  847MOL0     H11798   5.314   2.593   2.891  1.4767 -0.1589 -2.0485
  847MOL0     H11799   5.177   2.505   2.795 -0.7522 -3.3787 -1.1771
  847MOL0     H11800   5.480   2.476   2.748 -0.8646  0.1009  4.0593
  847MOL0     H11801   5.353   2.391   2.680 -3.1138 -0.9124  2.7705
  847MOL0     H11802   5.352   2.742   2.442  1.6948 -4.6575 -4.7906
  847MOL0     H11803   5.235   2.725   3.065  0.2629  0.7121  2.0807
  847MOL0     H11804   5.071   2.914   3.107  2.3940 -1.2490 -0.9236
  848MOL0     O11805   7.022   1.682   2.064 -0.2540 -0.5077  0.2476
  848MOL0     C11806   7.103   1.639   1.989 -0.3406 -0.7173  0.5385
  848MOL0     O11807   7.082   1.597   1.865  0.3690 -0.2042  0.0417
  848MOL0     C11808   6.957   1.607   1.786 -1.1892 -0.0128 -1.4100
  848MOL0     C11809   6.969   1.587   1.648  0.7706 -0.3408 -0.1361
  848MOL0     C11810   6.861   1.608   1.555 -0.0182 -0.0900 -0.0495
  848MOL0     C11811   6.732   1.637   1.609  1.0658  1.2239  0.5561
  848MOL0     O11812   6.619   1.632   1.521  0.7354  0.5262 -0.0452
  848MOL0     C11813   6.524   1.733   1.544 -0.4293  0.2620  0.2718
  848MOL0     C11814   6.402   1.689   1.467  0.3176 -0.4383  0.2574
  848MOL0     C11815   6.317   1.581   1.553  0.0796  0.6277  0.2238
  848MOL0     C11816   6.369   1.437   1.534 -0.3890 -0.2119 -0.1967
  848MOL0     C11817   6.253   1.338   1.571 -0.9885 -0.2398  0.5510
  848MOL0     C11818   6.304   1.203   1.629 -0.2572  1.4344 -0.2321
  848MOL0     C11819   6.397   1.122   1.535 -0.6480  0.3738  0.4634
  848MOL0     C11820   6.451   0.980   1.591 -0.2196  0.6881 -0.8422
  848MOL0     N11821   6.335   0.889   1.613 -0.6861 -0.7105 -0.1923
  848MOL0     C11822   6.282   0.820   1.514 -0.4335  0.3019  0.0525
  848MOL0     C11823   6.183   0.740   1.561  0.9131 -1.0072 -0.0848
  848MOL0     C11824   6.100   0.637   1.497 -0.1500 -0.3202  0.1013
  848MOL0     C11825   5.994   0.696   1.411  1.1696  1.1265 -0.3641
  848MOL0     C11826   5.854   0.680   1.467  0.2487 -0.0633 -0.1936
  848MOL0     C11827   5.808   0.539   1.494 -1.1616 -0.3761 -0.3173
  848MOL0     O11828   5.670   0.533   1.460 -0.4865  0.3279  0.3216
  848MOL0     C11829   5.565   0.621   1.506 -0.7725  0.2997 -0.3228
  848MOL0     C11830   5.572   0.690   1.622 -0.5143 -0.9397  0.6601
  848MOL0     C11831   5.461   0.770   1.656 -0.2565  0.6248  0.1816
  848MOL0     C11832   5.347   0.776   1.577 -0.6086  0.5319  0.4450
  848MOL0     C11833   5.225   0.847   1.628 -0.1905  0.2125  0.4349
  848MOL0     O11834   5.244   0.923   1.749  0.1635  1.0978 -0.3089
  848MOL0     C11835   5.138   0.997   1.788  0.9221 -0.8831  0.2481
  848MOL0     C11836   5.153   1.139   1.814 -0.1957  0.5849 -0.1776
  848MOL0     C11837   5.042   1.226   1.856 -0.1018 -0.1593 -0.3952
  848MOL0     C11838   4.919   1.161   1.879  0.2344  0.3627  0.2046
  848MOL0     O11839   4.805   1.231   1.916 -0.6665 -0.0446 -0.5172
  848MOL0     C11840   4.768   1.342   1.826  0.3687  0.7602 -0.8629
  848MOL0     C11841   4.686   1.436   1.900  0.6174 -0.5232  0.7074
  848MOL0     C11842   4.750   1.477   2.031 -0.7888 -0.2033  0.6802
  848MOL0     C11843   4.656   1.579   2.089 -0.5664  0.2694 -0.4839
  848MOL0     C11844   4.708   1.635   2.225  0.2612 -0.4974  0.2311
  848MOL0     C11845   4.725   1.543   2.351 -0.0428  0.6050  0.2164
  848MOL0     C11846   4.725   1.626   2.484 -0.4361  0.8909 -0.8752
  848MOL0     C11847   4.847   1.590   2.569  0.6408 -0.5079 -0.1769
  848MOL0    Cl11848   4.860   1.406   2.597 -0.2161 -0.3260 -0.1656
  848MOL0     C11849   4.915   1.020   1.863  0.3274  0.2252 -0.9457
  848MOL0     C11850   5.018   0.941   1.817  0.2964  1.0892 -0.8346
  848MOL0     O11851   5.123   0.836   1.570  0.8654  0.2788 -0.6265
  848MOL0     C11852   5.339   0.704   1.456  0.2633  0.0977  0.1289
  848MOL0     C11853   5.452   0.631   1.423  0.2776  0.5047 -1.0065
  848MOL0     N11854   6.172   0.765   1.696 -0.9859 -0.7362 -0.3340
  848MOL0     N11855   6.253   0.873   1.722  0.9575 -0.3540 -0.1626
  848MOL0     C11856   6.722   1.660   1.746  0.1083 -0.6432  0.4009
  848MOL0     C11857   6.827   1.648   1.833 -0.2518  0.4814 -0.2466
  848MOL0     C11858   7.243   1.634   2.034  0.3056  0.3204 -0.2865
  848MOL0     C11859   7.279   1.609   2.166 -0.7610  0.1030 -0.5965
  848MOL0     C11860   7.411   1.569   2.199  0.3827  0.4707 -0.3388
  848MOL0     C11861   7.514   1.552   2.101  0.2603 -0.7686 -0.4713
  848MOL0     O11862   7.640   1.493   2.134  0.0313  0.5000  0.1222
  848MOL0     C11863   7.709   1.560   2.227 -1.0889  0.3478  0.2502
  848MOL0     C11864   7.835   1.483   2.257 -1.0043  0.3854 -0.0557
  848MOL0     C11865   7.813   1.380   2.365 -0.0105  0.2591 -1.1045
  848MOL0     C11866   7.931   1.344   2.444  0.2296 -0.2460 -1.0389
  848MOL0     C11867   7.980   1.454   2.529 -0.1987  0.0124 -0.4883
  848MOL0     C11868   8.044   1.535   2.597  0.2560  0.7949 -0.8544
  848MOL0     C11869   7.484   1.603   1.972  0.0421  0.6391  0.4039
  848MOL0     C11870   7.349   1.640   1.941  0.4161  0.3801 -0.5455
  848MOL0     H11871   7.063   1.543   1.616  1.2493  0.1057  0.6604
  848MOL0     H11872   6.862   1.602   1.446  0.9587  4.1269 -0.4274
  848MOL0     H11873   6.559   1.825   1.495 -1.1966  0.7382  0.6042
  848MOL0     H11874   6.512   1.750   1.651 -0.2143  3.0168 -0.0591
  848MOL0     H11875   6.419   1.653   1.366 -3.4076  0.0012 -0.6963
  848MOL0     H11876   6.347   1.783   1.457  1.5574  0.0342 -4.4549
  848MOL0     H11877   6.212   1.581   1.523  0.0416  2.3380  0.3013
  848MOL0     H11878   6.317   1.612   1.658  2.2774  0.7269  0.2394
  848MOL0     H11879   6.399   1.433   1.429  2.2167  0.1227  0.4557
  848MOL0     H11880   6.457   1.410   1.593 -0.8821 -1.6041 -0.0709
  848MOL0     H11881   6.178   1.323   1.492 -0.2495 -0.8398 -0.0445
  848MOL0     H11882   6.201   1.391   1.651  1.7413  4.0924 -0.1878
  848MOL0     H11883   6.217   1.143   1.656  0.8007 -1.0812 -1.9729
  848MOL0     H11884   6.359   1.226   1.721  3.7700 -2.8582 -1.1494
  848MOL0     H11885   6.350   1.105   1.437  1.8056 -2.3780 -0.3832
  848MOL0     H11886   6.480   1.189   1.513 -0.7182  0.4731  0.4985
  848MOL0     H11887   6.497   0.982   1.690 -2.3300 -2.8734  0.3741
  848MOL0     H11888   6.528   0.947   1.521 -0.8439  2.2095 -2.3285
  848MOL0     H11889   6.312   0.821   1.410  0.9693 -2.1198  0.3611
  848MOL0     H11890   6.042   0.594   1.580 -1.7470  0.5301 -0.5169
  848MOL0     H11891   6.164   0.569   1.441 -0.8890  1.5934 -3.3455
  848MOL0     H11892   5.995   0.636   1.319  2.8096 -0.9170  0.8739
  848MOL0     H11893   6.023   0.799   1.388  0.4073  0.7117 -3.6654
  848MOL0     H11894   5.849   0.747   1.554  2.3102  1.9255 -1.4793
  848MOL0     H11895   5.790   0.716   1.386  1.2563  2.4170  0.0122
  848MOL0     H11896   5.813   0.515   1.600 -2.2264  0.6852 -0.0093
  848MOL0     H11897   5.865   0.463   1.439 -2.6979 -2.4873  0.8594
  848MOL0     H11898   5.650   0.667   1.694  0.4384 -1.7679 -0.5940
  848MOL0     H11899   5.467   0.827   1.749  1.1316  1.5800 -0.4618
  848MOL0     H11900   5.254   1.178   1.802  1.1327 -2.7411 -0.9141
  848MOL0     H11901   5.060   1.332   1.874  0.4766 -0.5031  1.1764
  848MOL0     H11902   4.719   1.293   1.741 -0.8044 -1.5405  1.0487
  848MOL0     H11903   4.851   1.392   1.775 -0.0753 -0.4875 -2.9491
  848MOL0     H11904   4.583   1.399   1.904  0.2686 -0.3884 -3.4085
  848MOL0     H11905   4.680   1.528   1.840  0.7754 -0.6605  0.4823
  848MOL0     H11906   4.847   1.523   2.008 -0.4379 -1.6648 -0.9196
  848MOL0     H11907   4.780   1.387   2.086  4.8349  0.8912  0.0111
  848MOL0     H11908   4.648   1.653   2.009 -0.3669  0.1446 -0.6204
  848MOL0     H11909   4.557   1.532   2.097 -1.1583  1.5859  0.3926
  848MOL0     H11910   4.632   1.706   2.255  2.6520  1.1964  2.7847
  848MOL0     H11911   4.796   1.697   2.206  1.0523 -1.1088  1.7716
  848MOL0     H11912   4.811   1.477   2.336  0.7050  1.5620  0.2172
  848MOL0     H11913   4.632   1.485   2.356 -0.1991  0.6615 -1.4718
  848MOL0     H11914   4.735   1.732   2.457 -1.7466  0.9110 -1.3408
  848MOL0     H11915   4.635   1.604   2.542 -0.1802  0.9246 -0.4603
  848MOL0     H11916   4.833   1.631   2.670  0.3666  0.6677 -0.6815
  848MOL0     H11917   4.935   1.636   2.525  0.8329 -0.3488  0.3673
  848MOL0     H11918   4.819   0.971   1.874  0.7495 -0.8284 -1.6923
  848MOL0     H11919   5.003   0.836   1.792 -0.3551  0.1808  2.8202
  848MOL0     H11920   5.262   0.710   1.379  1.7187 -1.3541 -1.5514
  848MOL0     H11921   5.475   0.583   1.328  3.6457 -0.1484  0.0109
  848MOL0     H11922   6.625   1.686   1.788  1.1328  1.5752  1.5978
  848MOL0     H11923   6.818   1.681   1.936 -1.4752 -2.2938  0.6299
  848MOL0     H11924   7.203   1.604   2.243  2.0888  3.7140  2.8279
  848MOL0     H11925   7.431   1.515   2.291  4.5921 -0.8478 -1.7737
  848MOL0     H11926   7.646   1.577   2.315 -0.8058 -1.7848  0.9301
  848MOL0     H11927   7.735   1.663   2.199 -2.1935  0.7758  0.7352
  848MOL0     H11928   7.858   1.430   2.164 -0.0407  0.5064  0.1032
  848MOL0     H11929   7.910   1.557   2.285 -2.7622  2.8672 -1.4987
  848MOL0     H11930   7.789   1.292   2.304  1.3505 -0.5505 -0.5317
  848MOL0     H11931   7.729   1.390   2.434  0.0692 -1.1091 -0.7768
  848MOL0     H11932   7.904   1.265   2.515  0.8529 -0.6134 -1.2071
  848MOL0     H11933   8.006   1.314   2.372 -0.4533 -1.6390 -1.1983
  848MOL0     H11934   8.095   1.618   2.642  0.5457 -0.0337  0.4010
  848MOL0     H11935   7.560   1.593   1.895  0.1319 -3.5232  0.7900
  848MOL0     H11936   7.324   1.658   1.837 -0.9546  0.8168 -0.1584
  849MOL0     O11937   6.005   2.037   2.803  0.8289 -0.0642  0.6206
  849MOL0     C11938   5.993   2.038   2.927  0.4975  0.3420  0.5931
  849MOL0     O11939   6.094   2.008   3.016  0.7320 -0.4517 -0.2799
  849MOL0     C11940   6.218   1.986   2.957  0.2145 -0.9326 -0.0860
  849MOL0     C11941   6.246   1.873   2.877 -0.5507  0.1916  0.1428
  849MOL0     C11942   6.369   1.854   2.826  0.6223  0.3535 -0.1692
  849MOL0     C11943   6.467   1.954   2.848 -0.2579 -0.4730 -0.8661
  849MOL0     O11944   6.585   1.960   2.776 -0.3533 -0.5314 -0.3571
  849MOL0     C11945   6.643   1.845   2.720 -0.5539  0.2383  0.5103
  849MOL0     C11946   6.677   1.727   2.811  0.0998 -0.3814  0.6767
  849MOL0     C11947   6.789   1.762   2.916 -0.0405 -0.3284 -0.5904
  849MOL0     C11948   6.916   1.833   2.855 -0.1048  0.1461  0.7415
  849MOL0     C11949   7.045   1.808   2.933 -0.5394  0.4718  0.1610
  849MOL0     C11950   7.166   1.845   2.849 -0.9229 -0.4571  0.4635
  849MOL0     C11951   7.307   1.822   2.930  0.1663 -0.3741  0.3418
  849MOL0     C11952   7.418   1.863   2.834  0.1650 -0.9262  0.3266
  849MOL0     N11953   7.548   1.869   2.897 -0.8284  0.6507 -0.1347
  849MOL0     C11954   7.582   1.830   3.025 -0.3260 -0.0260  0.7398
  849MOL0     C11955   7.718   1.847   3.026  0.4370 -0.1131 -0.4536
  849MOL0     C11956   7.819   1.825   3.139  0.3764 -0.7075 -0.3837
  849MOL0     C11957   7.961   1.789   3.073  0.2896 -0.0120 -0.4938
  849MOL0     C11958   8.059   1.725   3.174  0.4027  0.6218  0.6734
  849MOL0     C11959   8.144   1.618   3.099  0.6946 -0.7742 -0.7812
  849MOL0     O11960   8.238   1.568   3.198 -0.1774  0.4953  0.2946
  849MOL0     C11961   8.347   1.495   3.154  0.0605 -0.0700 -0.5401
  849MOL0     C11962   8.428   1.431   3.251 -0.1931 -0.3669  0.3438
  849MOL0     C11963   8.541   1.364   3.211 -0.1985  0.2968  0.0257
  849MOL0     C11964   8.588   1.352   3.077  0.4595 -0.3497 -0.3568
  849MOL0     C11965   8.694   1.275   3.035 -0.0779  0.3195  0.3658
  849MOL0     O11966   8.769   1.234   3.133  0.0829  0.1542 -0.3107
  849MOL0     C11967   8.851   1.130   3.098 -0.6360  0.5408 -1.0753
  849MOL0     C11968   8.797   0.997   3.119 -0.3106 -0.3572  0.6173
  849MOL0     C11969   8.877   0.886   3.082  0.5309 -0.0511  0.2725
  849MOL0     C11970   9.009   0.902   3.058 -0.6256  1.0281  0.6616
  849MOL0     O11971   9.109   0.797   3.038 -0.7339 -0.3999  0.1738
  849MOL0     C11972   9.073   0.652   3.027  0.1674  1.1835  0.2350
  849MOL0     C11973   9.177   0.586   2.938  0.1494  0.3281  0.0621
  849MOL0     C11974   9.322   0.611   2.987 -0.4105 -0.6369  0.0292
  849MOL0     C11975   9.424   0.542   2.888  0.4011 -1.7133  0.1746
  849MOL0     C11976   9.567   0.543   2.948  0.4321  0.0596 -0.3598
  849MOL0     C11977   9.681   0.528   2.842  0.7939  1.0956 -0.0011
  849MOL0     C11978   9.691   0.387   2.791 -0.1550  0.4032  0.4513
  849MOL0     C11979   9.803   0.382   2.680  0.1262  0.1609  0.5712
  849MOL0    Cl11980   9.799   0.222   2.620  0.2931 -0.0397 -0.2153
  849MOL0     C11981   9.063   1.030   3.062  0.0484  0.2383 -0.3555
  849MOL0     C11982   8.984   1.144   3.079  0.0216 -0.2180  0.1200
  849MOL0     O11983   8.712   1.255   2.914 -0.5912  0.0159  0.2442
  849MOL0     C11984   8.506   1.422   2.988 -0.0903  0.5933 -0.3552
  849MOL0     C11985   8.387   1.488   3.024 -0.6098  0.7342 -0.2999
  849MOL0     N11986   7.758   1.889   2.900  0.3882  0.1382 -0.8314
  849MOL0     N11987   7.657   1.903   2.820 -0.5316  0.0843 -0.3835
  849MOL0     C11988   6.434   2.060   2.937 -1.2150 -0.5678 -0.9902
  849MOL0     C11989   6.305   2.082   2.990 -0.5865  0.5663  0.2593
  849MOL0     C11990   5.856   2.073   2.981  1.2553 -0.8434 -0.7368
  849MOL0     C11991   5.851   2.128   3.113  0.7512 -0.2889 -0.2443
  849MOL0     C11992   5.721   2.185   3.151 -0.2529  0.0173 -0.2459
  849MOL0     C11993   5.613   2.187   3.066  0.0659 -0.5636 -0.3122
  849MOL0     O11994   5.490   2.234   3.105  0.8834  0.1203  0.0088
  849MOL0     C11995   5.472   2.280   3.238 -0.5372 -0.2779  0.9561
  849MOL0     C11996   5.533   2.416   3.277 -0.0127 -0.3070 -0.4358
  849MOL0     C11997   5.532   2.439   3.428  0.4247 -0.1981  0.7141
  849MOL0     C11998   5.537   2.592   3.462 -0.8141 -0.4544  0.1374
  849MOL0     C11999   5.453   2.645   3.571  0.6652 -0.7022  1.2573
  849MOL0     C12000   5.414   2.694   3.675 -0.0416 -0.2663 -0.6654
  849MOL0     C12001   5.618   2.120   2.946 -0.7820 -0.1594  0.4011
  849MOL0     C12002   5.740   2.069   2.899  0.6705 -0.4053  0.6696
  849MOL0     H12003   6.166   1.801   2.877 -1.2583  0.7836 -3.3050
  849MOL0     H12004   6.393   1.770   2.762  1.9508  0.8068 -0.2972
  849MOL0     H12005   6.729   1.885   2.666 -1.6654 -1.5574 -2.9469
  849MOL0     H12006   6.584   1.804   2.637 -1.9821  0.9104  1.1694
  849MOL0     H12007   6.708   1.642   2.749  2.0570  1.6133 -1.2743
  849MOL0     H12008   6.588   1.698   2.866 -2.1552  2.1574 -1.3367
  849MOL0     H12009   6.821   1.664   2.955 -2.2363 -0.8476  0.0497
  849MOL0     H12010   6.747   1.832   2.989 -0.7350 -2.6518  1.4166
  849MOL0     H12011   6.936   1.795   2.754 -1.4681 -0.4335  0.6547
  849MOL0     H12012   6.889   1.938   2.847  1.7191  0.5632 -0.6604
  849MOL0     H12013   7.056   1.703   2.958  1.4715  1.1814  2.7160
  849MOL0     H12014   7.034   1.861   3.028  0.5218  2.2370 -0.6431
  849MOL0     H12015   7.173   1.947   2.808  1.1211 -1.7758 -2.8651
  849MOL0     H12016   7.162   1.776   2.764  2.5962 -1.2064  0.7323
  849MOL0     H12017   7.310   1.879   3.023 -0.7267  0.0172  0.1385
  849MOL0     H12018   7.323   1.715   2.948 -1.3836 -1.2771 -2.9515
  849MOL0     H12019   7.390   1.964   2.803 -0.4718 -0.9589  0.7687
  849MOL0     H12020   7.432   1.788   2.755 -2.0555 -2.8809  1.6352
  849MOL0     H12021   7.515   1.792   3.101 -1.7523  0.5845 -0.1635
  849MOL0     H12022   7.791   1.736   3.196  1.5397 -0.2476  0.9466
  849MOL0     H12023   7.829   1.908   3.209  4.8047 -1.8753  0.6983
  849MOL0     H12024   8.000   1.886   3.041  0.2500  1.0245  2.3037
  849MOL0     H12025   7.950   1.738   2.977 -1.5928  3.6710 -2.4343
  849MOL0     H12026   8.129   1.805   3.199 -0.8466  2.0425 -0.2223
  849MOL0     H12027   8.009   1.696   3.267 -2.6872 -1.9709 -1.5611
  849MOL0     H12028   8.199   1.669   3.019  2.9715 -2.1882 -0.2225
  849MOL0     H12029   8.073   1.546   3.057 -3.4012  1.7958  1.1656
  849MOL0     H12030   8.399   1.443   3.355 -1.9318 -1.4333  0.0168
  849MOL0     H12031   8.586   1.312   3.295  2.4589 -0.0263 -1.4815
  849MOL0     H12032   8.692   0.993   3.144 -0.7765 -0.3326 -1.1634
  849MOL0     H12033   8.839   0.785   3.081  1.3319 -0.3920 -2.6784
  849MOL0     H12034   8.970   0.651   2.990  0.3620  4.4746 -0.7110
  849MOL0     H12035   9.077   0.613   3.129 -0.3986  1.2339  0.2806
  849MOL0     H12036   9.163   0.636   2.842 -1.2288 -0.0614  0.0419
  849MOL0     H12037   9.154   0.481   2.919 -2.5829  1.0002 -0.7195
  849MOL0     H12038   9.341   0.575   3.088 -0.9256  1.6979  1.0168
  849MOL0     H12039   9.344   0.717   3.000  1.4857 -0.5035 -3.1198
  849MOL0     H12040   9.392   0.439   2.874  1.4478 -2.0477  0.2162
  849MOL0     H12041   9.420   0.593   2.791  0.2213 -0.5358  0.7798
  849MOL0     H12042   9.574   0.467   3.027 -1.8920  1.1525  1.0122
  849MOL0     H12043   9.599   0.634   2.998  1.2009  0.2251 -1.1396
  849MOL0     H12044   9.776   0.553   2.890  2.1660 -3.4467  0.1364
  849MOL0     H12045   9.660   0.589   2.754  0.5854  0.2578 -0.5406
  849MOL0     H12046   9.729   0.319   2.868 -0.1379  2.3051  2.2118
  849MOL0     H12047   9.593   0.345   2.765 -1.0648  2.1521  0.8905
  849MOL0     H12048   9.898   0.427   2.706  0.2281  0.0542  0.3860
  849MOL0     H12049   9.754   0.436   2.598  2.5820 -1.4502 -2.1405
  849MOL0     H12050   9.170   1.030   3.045 -0.0555 -1.6448 -1.2131
  849MOL0     H12051   9.033   1.241   3.071  0.1569 -0.0942  2.0706
  849MOL0     H12052   8.528   1.411   2.882 -0.1239 -1.1765 -0.2012
  849MOL0     H12053   8.324   1.538   2.950 -2.3293 -2.1694 -0.9428
  849MOL0     H12054   6.507   2.140   2.940 -0.5650 -1.1818  0.8839
  849MOL0     H12055   6.287   2.169   3.052 -0.5409  1.3274 -0.7649
  849MOL0     H12056   5.932   2.138   3.185 -1.6570  0.9482  2.5124
  849MOL0     H12057   5.724   2.231   3.250 -0.4169 -1.4921  0.4966
  849MOL0     H12058   5.516   2.206   3.305  2.2757  0.5546  0.1745
  849MOL0     H12059   5.364   2.283   3.257 -0.7274 -0.9299  0.0261
  849MOL0     H12060   5.625   2.419   3.217 -1.0672  0.4561 -2.0768
  849MOL0     H12061   5.464   2.489   3.233 -0.3256 -0.8372 -0.8349
  849MOL0     H12062   5.611   2.378   3.471  3.6175  0.2121 -3.8571
  849MOL0     H12063   5.438   2.402   3.470 -0.6969  1.2652 -0.3413
  849MOL0     H12064   5.643   2.609   3.479 -1.0278 -0.2677  1.3845
  849MOL0     H12065   5.505   2.649   3.374  2.4158 -0.4691 -1.1726
  849MOL0     H12066   5.389   2.724   3.774  2.8588  1.3384 -0.3173
  849MOL0     H12067   5.535   2.096   2.881 -0.9416 -0.4335  0.7054
  849MOL0     H12068   5.733   2.022   2.802 -3.0331 -1.6839  1.3686
  850MOL0     O12069   4.827  11.209  10.833 -0.8366  0.2548  0.0166
  850MOL0     C12070   4.869  11.098  10.817  0.0609  0.4673  0.8603
  850MOL0     O12071   4.815  11.001  10.736 -0.2615 -0.4293 -0.4000
  850MOL0     C12072   4.697  11.014  10.670  0.2337  0.6066 -0.9158
  850MOL0     C12073   4.610  11.129  10.671  0.0006  0.0527  0.3803
  850MOL0     C12074   4.489  11.116  10.611 -0.0482 -0.1044 -0.1215
  850MOL0     C12075   4.452  10.999  10.535 -0.1104 -0.3518 -1.2161
  850MOL0     O12076   4.337  10.984  10.474  0.2613 -0.5014 -0.5158
  850MOL0     C12077   4.234  10.912  10.545  0.8522  0.8927  1.0316
  850MOL0     C12078   4.102  10.990  10.543 -0.5532  0.3385  0.4028
  850MOL0     C12079   4.058  11.014  10.404  1.2518 -0.8470 -0.0373
  850MOL0     C12080   3.986  11.144  10.402 -0.2319  0.2449  0.0944
  850MOL0     C12081   3.913  11.187  10.270  0.0782 -0.9359  0.6873
  850MOL0     C12082   3.769  11.143  10.258  0.6560  0.1489 -0.1005
  850MOL0     C12083   3.750  10.991  10.214 -0.0254 -1.0063  0.5456
  850MOL0     C12084   3.603  10.941  10.180  0.5092  0.0724  0.5507
  850MOL0     N12085   3.492  11.007  10.251 -0.1291 -0.3435  0.0077
  850MOL0     C12086   3.462  11.141  10.240 -0.2282 -0.6333 -0.0201
  850MOL0     C12087   3.367  11.152  10.333  0.0838  0.9493 -0.1541
  850MOL0     C12088   3.306  11.293  10.360  0.3703  0.4438 -0.3103
  850MOL0     C12089   3.377  11.345  10.477 -1.3592 -0.5761 -0.1081
  850MOL0     C12090   3.318  11.288  10.610 -0.1466  1.1286  0.1374
  850MOL0     C12091   3.407  11.346  10.731 -0.4064  0.0996 -0.3437
  850MOL0     O12092   3.545  11.372  10.702  0.5921 -1.0259  0.2412
  850MOL0     C12093   3.627  11.284  10.759 -0.5924  1.2559 -0.1662
  850MOL0     C12094   3.682  11.305  10.889 -0.3375 -0.6500  0.5295
  850MOL0     C12095   3.775  11.215  10.945 -0.7360 -0.1035 -0.3982
  850MOL0     C12096   3.820  11.107  10.863  0.0103  0.5169  0.4654
  850MOL0     C12097   3.920  11.019  10.922  0.8047  0.7716 -1.9947
  850MOL0     O12098   3.908  11.007  11.067  0.0062  0.4757 -0.0940
  850MOL0     C12099   3.992  10.929  11.139 -0.4554  0.2284 -0.4883
  850MOL0     C12100   4.100  10.849  11.099  0.1216  0.3879 -0.0695
  850MOL0     C12101   4.183  10.786  11.197 -0.8345  0.1205  0.6124
  850MOL0     C12102   4.160  10.789  11.335  0.3821  0.1495  0.2529
  850MOL0     O12103   4.209  10.719  11.439 -0.2306  0.4980  0.6667
  850MOL0     C12104   4.326  10.640  11.403 -0.6209 -0.0742 -0.4226
  850MOL0     C12105   4.378  10.565  11.528  0.1549  0.2837  0.5253
  850MOL0     C12106   4.450  10.430  11.485 -0.0296 -0.0267  0.1440
  850MOL0     C12107   4.462  10.346  11.614  0.9548 -0.0969  0.1873
  850MOL0     C12108   4.554  10.221  11.615  0.8162  0.0917 -0.7047
  850MOL0     C12109   4.687  10.263  11.551 -0.0688  0.3690  0.8598
  850MOL0     C12110   4.800  10.165  11.598  0.0154 -0.5543  0.2536
  850MOL0     C12111   4.776  10.033  11.529  0.0117 -0.0868 -0.8329
  850MOL0    Cl12112   4.912   9.924  11.544  0.2604 -0.1373 -0.0340
  850MOL0     C12113   4.044  10.869  11.376  0.0688  0.3293 -0.1912
  850MOL0     C12114   3.975  10.940  11.273 -0.4936  0.0830  0.1245
  850MOL0     O12115   4.000  10.960  10.852  0.0502 -0.5002  0.4270
  850MOL0     C12116   3.777  11.090  10.727  0.0915  0.0338 -0.0488
  850MOL0     C12117   3.673  11.174  10.684  0.3212 -0.5412  0.0073
  850MOL0     N12118   3.342  11.037  10.392  1.3968 -0.1934  0.3383
  850MOL0     N12119   3.415  10.943  10.346  0.7273  0.0302  0.0010
  850MOL0     C12120   4.545  10.894  10.532  1.0261 -0.6808  0.2166
  850MOL0     C12121   4.659  10.899  10.605 -0.9738 -0.9609  1.3581
  850MOL0     C12122   4.989  11.054  10.892 -0.3324 -0.6664 -0.0571
  850MOL0     C12123   5.029  11.132  11.007 -0.2989 -0.0642 -0.4912
  850MOL0     C12124   5.130  11.074  11.081  1.3600  0.4864 -0.4371
  850MOL0     C12125   5.198  10.959  11.050 -0.4227  0.8287  0.2858
  850MOL0     O12126   5.274  10.898  11.138  0.3559 -0.4641 -0.8907
  850MOL0     C12127   5.416  10.936  11.121 -0.4180 -0.3734  0.4651
  850MOL0     C12128   5.512  10.877  11.229 -0.2029 -0.3467  0.6530
  850MOL0     C12129   5.641  10.818  11.170  0.6087 -0.4969  0.6391
  850MOL0     C12130   5.613  10.676  11.114  0.4028 -0.2637 -0.2508
  850MOL0     C12131   5.733  10.600  11.113 -0.6849 -0.0396  0.1401
  850MOL0     C12132   5.827  10.528  11.105  0.2421  0.2423 -0.9978
  850MOL0     C12133   5.157  10.888  10.937 -0.1008  0.6024 -0.5724
  850MOL0     C12134   5.061  10.936  10.857 -0.4816 -0.3612 -0.5966
  850MOL0     H12135   4.639  11.224  10.715  2.7061 -0.0729 -0.9302
  850MOL0     H12136   4.413  11.193  10.620  0.0853 -0.1724  2.1353
  850MOL0     H12137   4.269  10.890  10.646 -0.2295  0.6370  1.3606
  850MOL0     H12138   4.239  10.813  10.497  0.4170  1.4603 -0.2080
  850MOL0     H12139   4.123  11.089  10.585  1.2764  0.9946 -1.8619
  850MOL0     H12140   4.028  10.942  10.608  0.9104 -0.0879  1.8544
  850MOL0     H12141   4.003  10.923  10.378 -0.2191  0.0127  0.0088
  850MOL0     H12142   4.126  11.011  10.318  0.6618 -2.9008 -0.4824
  850MOL0     H12143   3.904  11.131  10.473 -0.5830  0.3821 -0.2854
  850MOL0     H12144   4.045  11.232  10.427 -1.2174  1.2738 -1.0799
  850MOL0     H12145   3.967  11.147  10.184 -0.4051  2.0256 -1.1096
  850MOL0     H12146   3.904  11.295  10.277  0.5080 -0.9882  3.1036
  850MOL0     H12147   3.726  11.200  10.176 -1.9766  0.5307  1.4340
  850MOL0     H12148   3.717  11.165  10.352  0.2314 -0.5446 -0.1638
  850MOL0     H12149   3.793  10.975  10.115  1.1278  1.6674  0.5223
  850MOL0     H12150   3.807  10.929  10.284  1.3041 -2.7713 -1.9551
  850MOL0     H12151   3.594  10.833  10.193 -1.6549  0.1368 -0.0049
  850MOL0     H12152   3.594  10.962  10.072 -0.6025  1.8022  0.9334
  850MOL0     H12153   3.511  11.219  10.183  2.9688 -1.5672  1.2731
  850MOL0     H12154   3.199  11.284  10.379  0.5132  2.0257  1.6868
  850MOL0     H12155   3.321  11.354  10.270  5.2861  1.4398  0.8915
  850MOL0     H12156   3.363  11.454  10.485  1.1495 -0.1832 -0.3876
  850MOL0     H12157   3.483  11.324  10.466 -0.9173  0.8329  1.0630
  850MOL0     H12158   3.213  11.315  10.625 -1.5375 -1.3131 -3.7505
  850MOL0     H12159   3.320  11.178  10.607 -1.0293  1.1260 -0.9105
  850MOL0     H12160   3.400  11.277  10.816 -1.5394  1.1255  0.4177
  850MOL0     H12161   3.365  11.440  10.767 -0.3905 -0.1266  0.2769
  850MOL0     H12162   3.664  11.401  10.936  0.6528 -1.3280  2.3762
  850MOL0     H12163   3.812  11.239  11.044 -3.4958  0.2568  0.6317
  850MOL0     H12164   4.142  10.841  10.999 -0.1704  1.8391 -0.3257
  850MOL0     H12165   4.256  10.713  11.165 -1.1613 -1.1120  2.5172
  850MOL0     H12166   4.407  10.706  11.371 -0.3768 -0.8473 -1.4844
  850MOL0     H12167   4.302  10.568  11.324  0.9616 -1.0136 -0.0931
  850MOL0     H12168   4.298  10.541  11.599  0.7916 -0.1234  1.1172
  850MOL0     H12169   4.452  10.618  11.589  1.6912  0.7532 -1.6534
  850MOL0     H12170   4.541  10.441  11.425  1.2328  0.3228  2.0523
  850MOL0     H12171   4.382  10.375  11.419  0.1253 -2.1583  1.6619
  850MOL0     H12172   4.488  10.409  11.699 -1.8063 -1.2636  2.0507
  850MOL0     H12173   4.359  10.314  11.636  1.2954 -0.1818  1.7241
  850MOL0     H12174   4.511  10.143  11.552  0.0491 -0.3527  0.3474
  850MOL0     H12175   4.566  10.184  11.717 -1.2745  1.2712  0.0175
  850MOL0     H12176   4.708  10.368  11.575 -0.9193  0.2910  2.0013
  850MOL0     H12177   4.679  10.258  11.442  2.4505  2.6919  0.4604
  850MOL0     H12178   4.898  10.202  11.566 -1.1125  3.3137  0.7703
  850MOL0     H12179   4.805  10.147  11.706 -0.1768 -2.3128 -0.0068
  850MOL0     H12180   4.755  10.055  11.424  0.1525  0.6782 -0.7097
  850MOL0     H12181   4.692   9.973  11.564 -0.0963 -0.9058 -2.4015
  850MOL0     H12182   4.007  10.880  11.477 -1.1801 -1.1034 -0.4625
  850MOL0     H12183   3.897  11.008  11.306 -0.1509  0.3881  0.3156
  850MOL0     H12184   3.808  11.009  10.661 -4.1352 -0.2637 -1.9923
  850MOL0     H12185   3.621  11.155  10.591  1.1794 -3.4037  0.0300
  850MOL0     H12186   4.510  10.803  10.484 -4.3803  1.7833 -1.2644
  850MOL0     H12187   4.730  10.817  10.593  1.3651  1.3391 -2.6857
  850MOL0     H12188   4.979  11.221  11.044  0.8375 -0.2384  1.6183
  850MOL0     H12189   5.166  11.135  11.163 -2.2072  0.4535  1.3908
  850MOL0     H12190   5.437  11.044  11.121  1.2733 -0.5867 -2.6867
  850MOL0     H12191   5.441  10.887  11.027  1.0066  0.8850  0.1459
  850MOL0     H12192   5.553  10.960  11.287 -1.8521  1.3059 -0.4588
  850MOL0     H12193   5.458  10.821  11.307 -3.9108  3.1223  0.9221
  850MOL0     H12194   5.712  10.804  11.252 -0.0599 -0.7725  1.1852
  850MOL0     H12195   5.680  10.876  11.085 -1.1802 -1.1958 -0.7221
  850MOL0     H12196   5.546  10.622  11.182  1.3885 -0.4608  0.5853
  850MOL0     H12197   5.561  10.690  11.019 -2.5812 -4.1881  0.5483
  850MOL0     H12198   5.918  10.471  11.105 -1.2892 -2.4159 -2.6637
  850MOL0     H12199   5.193  10.787  10.922  0.6877  1.1526 -2.7716
  850MOL0     H12200   5.028  10.876  10.772 -0.8425 -1.1042  0.0520
  851MOL0     O12201   7.418   3.306   4.061 -0.2898  0.8957 -0.1590
  851MOL0     C12202   7.432   3.365   3.957 -0.0077 -0.4703 -0.4110
  851MOL0     O12203   7.365   3.329   3.845  0.4424 -0.1391 -0.6789
  851MOL0     C12204   7.243   3.259   3.860 -1.6639 -0.0421 -0.2150
  851MOL0     C12205   7.223   3.146   3.791 -0.4907 -0.0002  0.5292
  851MOL0     C12206   7.109   3.067   3.799 -0.0055 -0.5782  0.5686
  851MOL0     C12207   7.020   3.102   3.896 -0.0610  0.4093  0.6449
  851MOL0     O12208   6.905   3.044   3.940 -0.0488 -0.2796 -0.8696
  851MOL0     C12209   6.841   2.968   3.846  0.8004 -0.0282 -0.2778
  851MOL0     C12210   6.693   2.998   3.851  0.0678  0.4441  0.5308
  851MOL0     C12211   6.615   2.909   3.941  0.3051  0.2838  0.1610
  851MOL0     C12212   6.456   2.924   3.923 -0.6634  0.1911  0.1403
  851MOL0     C12213   6.404   2.822   4.023 -0.2828  1.3587 -1.0398
  851MOL0     C12214   6.258   2.844   4.060 -0.6510 -0.5083 -0.0676
  851MOL0     C12215   6.218   2.965   4.136  0.6652 -0.7016 -0.6160
  851MOL0     C12216   6.272   2.949   4.284 -0.8502 -0.8324 -0.7251
  851MOL0     N12217   6.231   3.058   4.379 -0.8220  0.3088  0.0466
  851MOL0     C12218   6.112   3.067   4.443  0.3884 -0.6818 -0.8096
  851MOL0     C12219   6.123   3.175   4.529  0.0364  0.0026 -0.4042
  851MOL0     C12220   6.020   3.223   4.634 -0.2758 -0.2586 -0.3495
  851MOL0     C12221   5.891   3.264   4.563  0.3431  0.4789 -0.6915
  851MOL0     C12222   5.809   3.346   4.660 -0.0692  0.5889 -0.5224
  851MOL0     C12223   5.680   3.375   4.589  0.3792 -0.2033  1.4002
  851MOL0     O12224   5.582   3.446   4.661 -0.4176  0.3901 -0.3071
  851MOL0     C12225   5.452   3.467   4.608  0.4073 -0.0672  0.0209
  851MOL0     C12226   5.405   3.440   4.476 -0.7353  0.4969  0.0830
  851MOL0     C12227   5.280   3.462   4.437 -0.5101  0.3667  0.9831
  851MOL0     C12228   5.193   3.526   4.523  0.3612  0.1320  0.2711
  851MOL0     C12229   5.044   3.543   4.488 -0.0594  0.9218 -0.5466
  851MOL0     O12230   4.959   3.566   4.594 -0.2734  0.0997 -0.8642
  851MOL0     C12231   4.829   3.562   4.557 -0.4675  0.4621  0.4179
  851MOL0     C12232   4.748   3.448   4.579 -0.5574  0.9807 -0.9366
  851MOL0     C12233   4.624   3.439   4.540 -0.4022  0.0128 -0.2370
  851MOL0     C12234   4.550   3.553   4.488  0.0497  0.7828 -0.4745
  851MOL0     O12235   4.419   3.552   4.446 -0.5943 -0.6266  0.1974
  851MOL0     C12236   4.348   3.430   4.422  0.2948 -0.7221 -0.0462
  851MOL0     C12237   4.401   3.380   4.285  0.1860 -0.4918  0.2597
  851MOL0     C12238   4.327   3.457   4.171 -0.3281 -0.2055  0.6067
  851MOL0     C12239   4.372   3.600   4.136  0.5730 -0.2155  0.7379
  851MOL0     C12240   4.350   3.641   3.991  0.5976  0.2461  0.7771
  851MOL0     C12241   4.358   3.792   3.982  0.0493  0.3123 -0.2879
  851MOL0     C12242   4.397   3.854   3.848 -0.2466  0.7242  0.8518
  851MOL0     C12243   4.424   4.002   3.856  0.5031 -0.7248  0.0839
  851MOL0    Cl12244   4.282   4.100   3.810  0.4256  0.2815  0.4630
  851MOL0     C12245   4.625   3.676   4.493  0.8380  0.2717  0.8376
  851MOL0     C12246   4.759   3.680   4.515 -1.2703  1.0590 -0.4350
  851MOL0     O12247   5.005   3.531   4.377  0.6067  0.4325  0.0555
  851MOL0     C12248   5.239   3.548   4.650 -0.2134  0.2666  0.0824
  851MOL0     C12249   5.362   3.526   4.690 -0.3860 -0.6634  0.4027
  851MOL0     N12250   6.243   3.237   4.505  0.2439 -0.8234  0.9838
  851MOL0     N12251   6.311   3.158   4.429  0.4067 -0.0683  0.6564
  851MOL0     C12252   7.041   3.212   3.977  0.2705 -0.1080  0.3607
  851MOL0     C12253   7.156   3.297   3.959 -0.4389  0.1294  0.3428
  851MOL0     C12254   7.546   3.456   3.945 -0.4261  0.1398 -0.6629
  851MOL0     C12255   7.636   3.475   4.057  0.2902 -0.1636  0.3384
  851MOL0     C12256   7.738   3.577   4.062  0.0642 -0.5119  0.1823
  851MOL0     C12257   7.749   3.654   3.945 -0.1306  0.0859  0.5482
  851MOL0     O12258   7.870   3.726   3.936 -0.2515 -0.3363 -0.9440
  851MOL0     C12259   7.901   3.822   3.837 -0.7387 -0.0298  0.3014
  851MOL0     C12260   7.977   3.769   3.721  0.3880  0.4187  0.1132
  851MOL0     C12261   7.931   3.850   3.583  0.9059  0.6561  0.8729
  851MOL0     C12262   7.942   4.008   3.573 -0.0433  0.8952  0.2912
  851MOL0     C12263   7.808   4.067   3.612 -0.0597  0.6288  0.0474
  851MOL0     C12264   7.698   4.097   3.641  0.4230  0.3812  0.7794
  851MOL0     C12265   7.663   3.635   3.836 -0.9104 -0.1573  0.0382
  851MOL0     C12266   7.563   3.538   3.840 -1.1450 -1.5875  0.2575
  851MOL0     H12267   7.313   3.105   3.745 -0.3980  1.1269 -0.3423
  851MOL0     H12268   7.102   2.973   3.747 -2.8174 -0.5044  0.6451
  851MOL0     H12269   6.850   2.860   3.861 -2.5314 -0.0855  2.6900
  851MOL0     H12270   6.865   2.996   3.743 -1.0965  0.8315 -0.5108
  851MOL0     H12271   6.659   3.007   3.747  0.9127 -0.4214  0.1625
  851MOL0     H12272   6.683   3.096   3.899  0.6848  1.0568 -0.5290
  851MOL0     H12273   6.642   2.919   4.047  3.0981 -2.9744 -0.0581
  851MOL0     H12274   6.650   2.810   3.913  0.6894 -0.1401  1.9852
  851MOL0     H12275   6.418   3.020   3.958 -0.6007  0.9773 -1.8102
  851MOL0     H12276   6.422   2.906   3.820 -0.9413 -0.7053  0.3769
  851MOL0     H12277   6.468   2.825   4.112  1.2803  0.8264 -2.0917
  851MOL0     H12278   6.413   2.722   3.980 -3.5101  0.2521  0.5831
  851MOL0     H12279   6.224   2.752   4.108  1.7606 -1.2602  0.3327
  851MOL0     H12280   6.198   2.847   3.968 -0.6304 -1.1331 -0.1040
  851MOL0     H12281   6.255   3.057   4.089 -1.8829  0.3984 -0.6485
  851MOL0     H12282   6.109   2.976   4.141  0.5496 -1.9533  0.0056
  851MOL0     H12283   6.380   2.953   4.296 -0.8963 -0.9130 -0.2617
  851MOL0     H12284   6.253   2.853   4.333 -2.2973 -0.6242 -0.8326
  851MOL0     H12285   6.026   3.002   4.430  0.5960 -0.9954 -0.6443
  851MOL0     H12286   6.065   3.314   4.675  0.2451  0.0206 -1.5001
  851MOL0     H12287   6.001   3.148   4.711  0.7590  1.2650  1.4725
  851MOL0     H12288   5.827   3.184   4.524  1.8006 -0.6087 -0.9451
  851MOL0     H12289   5.908   3.327   4.475  1.8657  2.9060  1.2142
  851MOL0     H12290   5.785   3.274   4.739 -0.3168 -0.9442 -1.9421
  851MOL0     H12291   5.862   3.434   4.698  0.6862  0.0794 -0.3733
  851MOL0     H12292   5.629   3.285   4.555 -2.8463  2.4449 -1.5538
  851MOL0     H12293   5.710   3.437   4.504  4.7701 -0.6574  2.3995
  851MOL0     H12294   5.487   3.406   4.413  0.7919  1.0102  1.6815
  851MOL0     H12295   5.237   3.450   4.338 -1.4167  3.5338  0.8787
  851MOL0     H12296   4.797   3.360   4.620 -1.2429  0.1000 -1.9603
  851MOL0     H12297   4.580   3.341   4.555  2.1512 -0.7056  4.5329
  851MOL0     H12298   4.242   3.456   4.422  0.8013  1.5204  0.3040
  851MOL0     H12299   4.371   3.365   4.507 -1.7840  0.5817  1.6098
  851MOL0     H12300   4.380   3.273   4.276  0.5853 -0.4270 -1.9644
  851MOL0     H12301   4.510   3.387   4.277  0.6856 -3.8612  2.1532
  851MOL0     H12302   4.218   3.457   4.172 -0.3726  1.9024  0.2965
  851MOL0     H12303   4.346   3.397   4.082  1.7827 -0.0020  0.8537
  851MOL0     H12304   4.327   3.667   4.209 -0.1974 -0.0536  0.1327
  851MOL0     H12305   4.478   3.607   4.160  1.1110  0.5788 -1.5815
  851MOL0     H12306   4.251   3.607   3.959  1.6080 -1.8449 -0.2975
  851MOL0     H12307   4.421   3.591   3.925  0.4269 -0.8342  1.3781
  851MOL0     H12308   4.411   3.833   4.068 -1.3213 -0.6766  1.0901
  851MOL0     H12309   4.253   3.818   4.002  0.5933  2.5371 -0.0824
  851MOL0     H12310   4.494   3.813   3.819  1.3013  1.3068  4.5728
  851MOL0     H12311   4.310   3.834   3.784  0.3244  0.8244  0.0343
  851MOL0     H12312   4.493   4.036   3.779 -2.6954  2.2065 -1.8251
  851MOL0     H12313   4.469   4.029   3.952  1.4008 -4.0813  0.7091
  851MOL0     H12314   4.581   3.772   4.469  2.1242  0.9301  0.9989
  851MOL0     H12315   4.813   3.774   4.515 -0.9560  0.8867 -0.9675
  851MOL0     H12316   5.166   3.575   4.726  1.0038  4.8314 -0.0949
  851MOL0     H12317   5.383   3.553   4.792 -3.3989  0.7948  0.7380
  851MOL0     H12318   6.981   3.225   4.066 -2.0405 -0.2571 -1.0767
  851MOL0     H12319   7.169   3.392   4.010 -1.3033 -0.1434  1.0994
  851MOL0     H12320   7.616   3.411   4.142 -3.0043  2.5358  1.8211
  851MOL0     H12321   7.792   3.588   4.155 -2.1437 -1.8208  1.7233
  851MOL0     H12322   7.962   3.902   3.880 -1.1542 -0.7019  2.2398
  851MOL0     H12323   7.809   3.866   3.797  0.2149  2.0699  0.3193
  851MOL0     H12324   8.084   3.774   3.742  0.4045 -2.7938  1.4793
  851MOL0     H12325   7.945   3.667   3.698 -0.3344  0.3626  1.2855
  851MOL0     H12326   7.829   3.818   3.558  0.8566  1.2522  0.2715
  851MOL0     H12327   7.995   3.815   3.502 -0.6984  0.5269 -0.3946
  851MOL0     H12328   8.020   4.044   3.640  0.0441 -0.4901  0.9770
  851MOL0     H12329   7.964   4.035   3.470  0.7300 -0.6466  0.0224
  851MOL0     H12330   7.599   4.126   3.671  0.1416  1.0417 -0.7024
  851MOL0     H12331   7.688   3.685   3.743 -2.8891  0.3197 -0.2890
  851MOL0     H12332   7.498   3.532   3.753 -1.1761  2.9279 -0.2490
  852MOL0     O12333   1.713   3.923   1.510 -0.2684 -0.0414  0.1235
  852MOL0     C12334   1.685   4.040   1.482 -0.8856 -0.2523  0.1947
  852MOL0     O12335   1.565   4.095   1.501  0.4989 -0.9282  0.1782
  852MOL0     C12336   1.469   4.019   1.565 -0.1376 -0.6631 -0.1385
  852MOL0     C12337   1.458   3.988   1.704  0.3501 -0.5881 -0.2749
  852MOL0     C12338   1.343   3.920   1.746  0.7400 -0.8825  0.4030
  852MOL0     C12339   1.248   3.883   1.650  0.4207 -0.3297 -0.4258
  852MOL0     O12340   1.149   3.807   1.701  1.0471 -0.9111 -0.0626
  852MOL0     C12341   1.075   3.710   1.622 -0.1217 -0.4884 -0.8133
  852MOL0     C12342   0.968   3.669   1.714  1.0900 -1.1766 -0.3845
  852MOL0     C12343   0.867   3.562   1.661  0.0919  0.0193  0.2695
  852MOL0     C12344   0.789   3.499   1.780  0.1462  0.4486 -0.4628
  852MOL0     C12345   0.678   3.399   1.742 -0.1156 -0.2967  0.2369
  852MOL0     C12346   0.658   3.321   1.865  0.0142  0.5516 -0.2998
  852MOL0     C12347   0.551   3.213   1.867  0.0174  0.4505  1.0160
  852MOL0     C12348   0.540   3.127   2.002 -0.7848  0.1662  0.8752
  852MOL0     N12349   0.471   3.203   2.101 -0.1206  0.2236 -0.2094
  852MOL0     C12350   0.340   3.243   2.093  1.1661  1.5891 -0.6246
  852MOL0     C12351   0.319   3.318   2.206 -0.4279  1.1557  0.1301
  852MOL0     C12352   0.197   3.394   2.247  0.2789  0.0484 -0.6025
  852MOL0     C12353   0.076   3.294   2.254  0.7572  0.9185 -0.0221
  852MOL0     C12354  -0.044   3.363   2.302 -0.6231 -0.5192 -0.2059
  852MOL0     C12355  -0.175   3.276   2.293  0.3941 -0.1164 -0.4662
  852MOL0     O12356  -0.272   3.336   2.369  0.3840 -0.0594  0.6180
  852MOL0     C12357  -0.408   3.330   2.326  0.0916  0.1791 -0.1040
  852MOL0     C12358  -0.466   3.239   2.231 -0.1806 -0.7314 -1.0732
  852MOL0     C12359  -0.603   3.236   2.197 -0.0912 -0.3182 -0.4705
  852MOL0     C12360  -0.682   3.334   2.256 -1.3861 -0.8199 -0.1980
  852MOL0     C12361  -0.829   3.342   2.221 -0.6073  0.1415 -0.7817
  852MOL0     O12362  -0.871   3.269   2.111 -0.1007 -0.2564 -0.3001
  852MOL0     C12363  -0.982   3.295   2.044  1.1550  0.2202 -0.9088
  852MOL0     C12364  -1.065   3.407   2.053  0.4461 -0.2649 -0.1892
  852MOL0     C12365  -1.177   3.436   1.966 -1.0985  0.9820 -0.3393
  852MOL0     C12366  -1.203   3.344   1.860 -0.2285  0.7535 -0.7116
  852MOL0     O12367  -1.319   3.375   1.793 -1.1152  0.1615  0.4209
  852MOL0     C12368  -1.343   3.305   1.668  0.0631 -0.0597 -0.7240
  852MOL0     C12369  -1.426   3.405   1.587 -0.8979 -0.2621  0.4102
  852MOL0     C12370  -1.562   3.426   1.653  0.4314 -0.2812  0.7443
  852MOL0     C12371  -1.650   3.523   1.571 -0.8072 -0.2264 -0.0208
  852MOL0     C12372  -1.779   3.536   1.643  0.7654  0.7154  0.9564
  852MOL0     C12373  -1.896   3.573   1.543 -0.4276 -0.3274 -0.5079
  852MOL0     C12374  -2.019   3.606   1.629  0.8020  0.5294  0.1424
  852MOL0     C12375  -2.125   3.680   1.548  0.0074 -0.7831 -0.2656
  852MOL0    Cl12376  -2.183   3.589   1.399  0.1922 -0.0451 -0.2211
  852MOL0     C12377  -1.128   3.225   1.849  0.0334  0.6140 -0.1305
  852MOL0     C12378  -1.028   3.200   1.947 -0.1549  0.6742 -0.6017
  852MOL0     O12379  -0.900   3.410   2.296 -0.2451  0.3583  0.9134
  852MOL0     C12380  -0.626   3.424   2.362  0.0891  0.4151 -0.1018
  852MOL0     C12381  -0.495   3.419   2.399  0.2859  0.2149 -0.3831
  852MOL0     N12382   0.433   3.309   2.288 -0.2114 -0.3705  1.3172
  852MOL0     N12383   0.524   3.255   2.214 -0.9566 -0.1866  0.4395
  852MOL0     C12384   1.262   3.922   1.524  0.4062  0.2454  1.1791
  852MOL0     C12385   1.364   3.987   1.478 -0.3828 -0.0207  0.4595
  852MOL0     C12386   1.797   4.123   1.412  0.3719 -0.6026  0.1654
  852MOL0     C12387   1.927   4.062   1.394 -0.6761 -0.6806 -1.0538
  852MOL0     C12388   2.022   4.129   1.326 -0.1678 -0.5889  0.1305
  852MOL0     C12389   1.993   4.262   1.267 -0.3331  0.9590 -0.8705
  852MOL0     O12390   2.091   4.337   1.203  0.6431 -0.4895  0.3980
  852MOL0     C12391   2.224   4.299   1.227 -0.8061 -0.8514  0.6591
  852MOL0     C12392   2.314   4.407   1.183  0.1356  0.1996  0.1518
  852MOL0     C12393   2.467   4.375   1.189 -0.7943 -0.0509 -0.0254
  852MOL0     C12394   2.558   4.497   1.209 -0.1514 -0.3482 -0.4635
  852MOL0     C12395   2.548   4.547   1.349  0.4341  1.1985  0.3320
  852MOL0     C12396   2.542   4.592   1.456 -0.0507 -0.8947  0.2671
  852MOL0     C12397   1.869   4.317   1.293 -0.4538  0.8419  0.6987
  852MOL0     C12398   1.773   4.250   1.371 -0.4705  0.1422 -0.2340
  852MOL0     H12399   1.540   4.020   1.768 -0.3009 -1.5535  1.1047
  852MOL0     H12400   1.320   3.910   1.851 -0.9623 -2.6902 -0.0711
  852MOL0     H12401   1.134   3.624   1.588 -0.9503 -0.3464 -2.7236
  852MOL0     H12402   1.029   3.756   1.535 -0.7857 -1.0182 -0.7500
  852MOL0     H12403   0.915   3.760   1.745  1.0705 -0.3089 -2.7157
  852MOL0     H12404   1.020   3.635   1.804  3.2072  0.9132 -0.7362
  852MOL0     H12405   0.924   3.488   1.604 -0.3986 -0.4010  0.3269
  852MOL0     H12406   0.796   3.620   1.601  0.4514 -0.4629 -0.6467
  852MOL0     H12407   0.864   3.450   1.843  0.5675  0.1909 -1.1559
  852MOL0     H12408   0.754   3.587   1.834  0.9563  0.5555 -0.0968
  852MOL0     H12409   0.704   3.333   1.659 -0.6268 -0.5134  0.2442
  852MOL0     H12410   0.582   3.446   1.720  0.1077  1.2718  2.2598
  852MOL0     H12411   0.624   3.390   1.943  1.2374 -0.4616  1.1640
  852MOL0     H12412   0.751   3.282   1.907  0.2721  3.2878  1.9583
  852MOL0     H12413   0.450   3.245   1.839 -0.4778 -1.7992  0.0092
  852MOL0     H12414   0.567   3.134   1.793 -1.3453  0.7620  0.3535
  852MOL0     H12415   0.638   3.106   2.045 -0.9254  0.8242  1.5555
  852MOL0     H12416   0.490   3.034   1.975 -0.7180  0.7635 -1.5218
  852MOL0     H12417   0.257   3.223   2.025 -0.6916  2.2101  1.3502
  852MOL0     H12418   0.180   3.482   2.185 -2.2078 -0.0686 -0.1862
  852MOL0     H12419   0.227   3.437   2.342  1.0004 -2.4095  0.3614
  852MOL0     H12420   0.094   3.216   2.328 -0.9573 -0.4012 -0.9136
  852MOL0     H12421   0.057   3.243   2.159 -0.8484  1.5056 -0.0395
  852MOL0     H12422  -0.031   3.405   2.402  2.0633 -0.0879 -0.6586
  852MOL0     H12423  -0.047   3.455   2.244 -0.6848  0.2995  1.0608
  852MOL0     H12424  -0.157   3.183   2.348  2.4882  0.8295  0.5382
  852MOL0     H12425  -0.201   3.258   2.188 -1.2098  0.4451 -0.1972
  852MOL0     H12426  -0.395   3.166   2.193 -1.2946 -1.0626 -2.6444
  852MOL0     H12427  -0.635   3.181   2.110 -3.0502  3.5305 -2.1112
  852MOL0     H12428  -1.049   3.487   2.125  1.3460 -1.0085  0.4678
  852MOL0     H12429  -1.221   3.534   1.979 -1.3602  0.9989 -1.2399
  852MOL0     H12430  -1.405   3.215   1.678 -0.8817  0.7144  0.5358
  852MOL0     H12431  -1.249   3.283   1.614  1.0734 -0.2366  1.0406
  852MOL0     H12432  -1.445   3.376   1.484 -1.0570 -1.2649  0.7131
  852MOL0     H12433  -1.364   3.494   1.573 -0.3415 -0.9768 -2.1171
  852MOL0     H12434  -1.532   3.463   1.751 -0.0331 -2.6988  1.8641
  852MOL0     H12435  -1.611   3.331   1.673  3.1051 -2.7709 -3.1337
  852MOL0     H12436  -1.604   3.622   1.567 -1.2970 -0.0322 -1.2190
  852MOL0     H12437  -1.675   3.492   1.469  0.6823 -2.7984  0.3094
  852MOL0     H12438  -1.775   3.614   1.719 -2.1215  0.8160  1.1043
  852MOL0     H12439  -1.811   3.446   1.696 -1.3780  0.2065 -1.0679
  852MOL0     H12440  -1.926   3.498   1.469 -2.0281  1.9951 -2.3813
  852MOL0     H12441  -1.874   3.660   1.481 -2.7911 -0.3321 -1.4754
  852MOL0     H12442  -2.062   3.509   1.658 -0.0239  1.1849  1.1718
  852MOL0     H12443  -1.986   3.659   1.719  1.0876 -2.9046  2.2392
  852MOL0     H12444  -2.084   3.776   1.518  2.0568 -1.3139  0.6696
  852MOL0     H12445  -2.213   3.711   1.606  0.3844 -1.0942  0.4994
  852MOL0     H12446  -1.152   3.153   1.772 -0.7073 -0.1744  0.8124
  852MOL0     H12447  -0.963   3.115   1.934  0.7642  1.1537  0.6614
  852MOL0     H12448  -0.685   3.493   2.422 -0.7854 -2.2440  2.3535
  852MOL0     H12449  -0.462   3.490   2.474 -2.1013  1.2447 -0.2074
  852MOL0     H12450   1.194   3.885   1.448  2.3556 -0.9780 -0.0488
  852MOL0     H12451   1.374   4.014   1.373  0.3704 -0.4018  0.4265
  852MOL0     H12452   1.952   3.974   1.452  2.5535 -0.1791 -1.4616
  852MOL0     H12453   2.120   4.091   1.300  0.6031  3.5283 -4.3979
  852MOL0     H12454   2.247   4.211   1.165 -0.4570  1.0702 -2.1225
  852MOL0     H12455   2.241   4.281   1.333 -1.3289  3.7971  1.7495
  852MOL0     H12456   2.285   4.427   1.080  3.0447  5.1749 -0.0290
  852MOL0     H12457   2.296   4.503   1.231  3.7199  1.2456 -0.2550
  852MOL0     H12458   2.489   4.321   1.097  1.0339 -0.5535  0.6710
  852MOL0     H12459   2.488   4.306   1.272 -3.3297 -2.3715 -1.1592
  852MOL0     H12460   2.659   4.456   1.195  0.8148  1.8243 -0.1883
  852MOL0     H12461   2.547   4.564   1.124  1.6339 -0.2338 -0.6407
  852MOL0     H12462   2.515   4.639   1.548 -0.9387  1.1293 -0.9460
  852MOL0     H12463   1.852   4.414   1.247  1.9725  0.6537 -0.7200
  852MOL0     H12464   1.671   4.286   1.383 -1.4134 -2.0462 -0.9804
  853MOL0     O12465  10.339   3.478   9.919  0.2539 -1.3818  0.1571
  853MOL0     C12466  10.333   3.558  10.015 -0.4015 -1.0703 -0.1188
  853MOL0     O12467  10.260   3.544  10.125 -0.2202  0.7870  0.4649
  853MOL0     C12468  10.169   3.439  10.107 -1.3900  0.6236 -0.2135
  853MOL0     C12469  10.051   3.458  10.040  0.2884  0.4096  0.0723
  853MOL0     C12470   9.949   3.357  10.041  0.3825 -0.9446 -0.0629
  853MOL0     C12471   9.974   3.236  10.102  0.8250  0.0282  0.4373
  853MOL0     O12472   9.876   3.145  10.110  0.7781 -0.3153  0.2281
  853MOL0     C12473   9.867   3.084  10.239 -0.2835  0.0585  0.6001
  853MOL0     C12474   9.719   3.025  10.253 -0.2253  0.3776 -0.0384
  853MOL0     C12475   9.701   2.928  10.373 -0.4688 -0.1547  0.0866
  853MOL0     C12476   9.582   2.844  10.349  0.4177  0.4458  0.7317
  853MOL0     C12477   9.553   2.749  10.456  0.0809 -0.7448 -0.0592
  853MOL0     C12478   9.514   2.816  10.591  0.4215  0.2804  0.1078
  853MOL0     C12479   9.499   2.718  10.711 -0.2138  0.3564 -0.2270
  853MOL0     C12480   9.528   2.800  10.842  0.8138  0.7584  0.9890
  853MOL0     N12481   9.477   2.735  10.965 -0.4600  0.3641  0.5243
  853MOL0     C12482   9.369   2.776  11.041 -0.3168  1.1525 -0.3852
  853MOL0     C12483   9.367   2.681  11.138 -0.0784 -0.1659  1.5253
  853MOL0     C12484   9.242   2.665  11.224 -1.1733  0.3412  1.1942
  853MOL0     C12485   9.199   2.789  11.307 -0.2651 -0.0064  0.2064
  853MOL0     C12486   9.054   2.779  11.367 -0.8124 -0.0374 -0.1734
  853MOL0     C12487   8.962   2.757  11.247 -0.2632  0.0950 -0.0429
  853MOL0     O12488   8.826   2.752  11.303 -0.3041 -0.3356  0.0430
  853MOL0     C12489   8.758   2.870  11.307 -0.1296  0.3598 -0.4074
  853MOL0     C12490   8.767   2.972  11.218 -0.0284 -0.4633  1.1835
  853MOL0     C12491   8.686   3.081  11.223  0.3120 -0.3872  0.9022
  853MOL0     C12492   8.586   3.093  11.316  0.4860  0.2526 -0.6419
  853MOL0     C12493   8.478   3.203  11.322  0.0387  0.4095  0.2573
  853MOL0     O12494   8.399   3.195  11.430 -0.8934  0.0143 -0.3321
  853MOL0     C12495   8.291   3.270  11.411  0.9065  0.2577  0.2109
  853MOL0     C12496   8.276   3.370  11.504  0.0091 -0.6223 -0.6319
  853MOL0     C12497   8.166   3.458  11.482 -0.0264 -0.1869 -0.6922
  853MOL0     C12498   8.068   3.435  11.377 -0.3604  1.3768 -0.3585
  853MOL0     O12499   7.970   3.524  11.369 -0.0246  0.0943 -0.2494
  853MOL0     C12500   7.840   3.474  11.406  0.4585  0.3617  1.0837
  853MOL0     C12501   7.787   3.535  11.537 -0.1909 -0.1167  0.0816
  853MOL0     C12502   7.840   3.459  11.665 -0.1900 -0.2362 -0.4678
  853MOL0     C12503   7.762   3.505  11.790 -0.0657  0.1414 -0.1269
  853MOL0     C12504   7.838   3.457  11.910  0.8820 -0.2099 -0.2724
  853MOL0     C12505   7.823   3.315  11.944 -0.7077  0.0070  0.3699
  853MOL0     C12506   7.687   3.274  11.989  0.7617  0.9732  0.0197
  853MOL0     C12507   7.692   3.121  11.995  0.1218 -0.1798 -0.7228
  853MOL0    Cl12508   7.554   3.057  12.078 -0.2125  0.3785 -0.2560
  853MOL0     C12509   8.081   3.323  11.308 -0.0614 -0.1445  1.0195
  853MOL0     C12510   8.193   3.242  11.313 -0.5488  0.5379 -0.2785
  853MOL0     O12511   8.484   3.291  11.243 -0.2232 -0.3758  0.0453
  853MOL0     C12512   8.573   2.984  11.405  0.7215  0.3309  0.0145
  853MOL0     C12513   8.658   2.878  11.403 -0.8328  0.5778 -0.6100
  853MOL0     N12514   9.470   2.592  11.134 -0.0808  0.3718  0.0269
  853MOL0     N12515   9.546   2.635  11.032  0.6136 -0.5802 -0.4470
  853MOL0     C12516  10.105   3.217  10.166  0.4430  0.6283 -1.0227
  853MOL0     C12517  10.195   3.323  10.176  1.0051  0.7620  0.1242
  853MOL0     C12518  10.425   3.675  10.008  0.2372 -0.0154  0.1395
  853MOL0     C12519  10.542   3.667   9.933 -0.1220 -0.4861  0.2739
  853MOL0     C12520  10.634   3.774   9.931  0.2650  0.5751 -0.1381
  853MOL0     C12521  10.604   3.891  10.011 -0.6820  0.9814 -0.4765
  853MOL0     O12522  10.672   4.003   9.994  0.3678  0.2145 -0.0302
  853MOL0     C12523  10.623   4.134  10.037 -0.0816 -0.8138 -0.2505
  853MOL0     C12524  10.696   4.246   9.982 -0.4981 -0.1186 -1.0456
  853MOL0     C12525  10.852   4.221   9.987 -0.0438  0.4569  0.8482
  853MOL0     C12526  10.926   4.352   9.947 -0.2745 -0.7528  1.3332
  853MOL0     C12527  11.071   4.319   9.921  0.8537 -1.3730  0.4818
  853MOL0     C12528  11.188   4.290   9.901 -1.2562 -0.6940 -0.0499
  853MOL0     C12529  10.486   3.892  10.089 -0.0391 -0.1194 -0.2786
  853MOL0     C12530  10.401   3.783  10.093  0.2161 -0.2079  0.1921
  853MOL0     H12531  10.043   3.558   9.999 -1.6143  0.3773  0.2982
  853MOL0     H12532   9.851   3.383  10.002 -0.9524 -3.3318  1.4238
  853MOL0     H12533   9.877   3.159  10.318  1.0726  0.7089 -0.1467
  853MOL0     H12534   9.941   3.004  10.254 -2.5728 -2.5287 -0.9727
  853MOL0     H12535   9.692   2.970  10.162 -2.3957 -4.2121  2.9968
  853MOL0     H12536   9.646   3.107  10.263  0.1560  0.7190 -0.0231
  853MOL0     H12537   9.701   2.995  10.460 -1.9705 -0.9408  0.7320
  853MOL0     H12538   9.789   2.865  10.389 -0.9628 -0.9525 -0.3215
  853MOL0     H12539   9.495   2.906  10.325 -0.8131 -2.3702 -3.0172
  853MOL0     H12540   9.600   2.792  10.255  0.5085  1.7879 -0.0283
  853MOL0     H12541   9.648   2.696  10.471  1.0377  1.4110  2.0619
  853MOL0     H12542   9.480   2.686  10.404  1.0313 -0.7076 -1.5207
  853MOL0     H12543   9.415   2.861  10.585 -0.9041 -2.5702 -1.2249
  853MOL0     H12544   9.588   2.892  10.620 -0.6751  2.0161 -1.4180
  853MOL0     H12545   9.396   2.683  10.720 -0.3872  1.1938  1.6042
  853MOL0     H12546   9.562   2.629  10.711 -0.2311  0.1800  3.7046
  853MOL0     H12547   9.481   2.899  10.838  1.1049  0.8711 -0.1643
  853MOL0     H12548   9.636   2.815  10.851  1.5210 -0.2856 -3.2411
  853MOL0     H12549   9.286   2.845  11.025 -1.9607 -0.2905  1.3022
  853MOL0     H12550   9.256   2.577  11.288 -1.9290 -1.8412 -1.4536
  853MOL0     H12551   9.172   2.626  11.149  0.6883  1.0669 -1.0516
  853MOL0     H12552   9.209   2.884  11.253  1.8753 -0.6076 -0.5814
  853MOL0     H12553   9.271   2.804  11.388  1.3097  1.5450 -1.3871
  853MOL0     H12554   9.039   2.688  11.425 -1.8342 -0.4102 -0.9809
  853MOL0     H12555   9.024   2.873  11.415 -1.1477  0.7444 -1.8324
  853MOL0     H12556   8.979   2.655  11.212  0.3151 -0.3120  1.3666
  853MOL0     H12557   8.989   2.826  11.166  3.4656  1.2115  1.9448
  853MOL0     H12558   8.852   2.974  11.150 -1.2735  1.3778 -0.4167
  853MOL0     H12559   8.693   3.165  11.155 -0.5472  0.7765  2.2184
  853MOL0     H12560   8.359   3.391  11.572  0.9022 -0.9065 -1.6020
  853MOL0     H12561   8.160   3.549  11.541 -3.6555 -0.3434 -0.5968
  853MOL0     H12562   7.830   3.366  11.415 -3.3571  0.0508 -3.1165
  853MOL0     H12563   7.772   3.510  11.328  1.3539  0.0701  0.1414
  853MOL0     H12564   7.678   3.522  11.532 -0.4140  0.9267  1.4735
  853MOL0     H12565   7.811   3.642  11.534  1.2130 -0.3767  1.1218
  853MOL0     H12566   7.940   3.495  11.689 -1.3544  1.6651  2.0047
  853MOL0     H12567   7.848   3.353  11.644  1.2154  0.0102 -1.2502
  853MOL0     H12568   7.752   3.614  11.803  0.9775  0.2642 -0.3038
  853MOL0     H12569   7.665   3.456  11.786 -0.0228 -0.3541  2.5842
  853MOL0     H12570   7.795   3.509  11.996 -0.2473 -2.5258  0.6264
  853MOL0     H12571   7.943   3.484  11.891  1.0981 -1.5458 -1.0858
  853MOL0     H12572   7.893   3.289  12.024  0.1687  3.7582  0.9993
  853MOL0     H12573   7.846   3.261  11.852  4.3366  3.0541 -0.5392
  853MOL0     H12574   7.660   3.313  12.088  0.2279  0.4421  0.0900
  853MOL0     H12575   7.615   3.290  11.908 -0.1123 -2.1259  0.0690
  853MOL0     H12576   7.791   3.090  12.029 -0.4375 -3.1303 -1.5271
  853MOL0     H12577   7.697   3.089  11.891  1.9480 -1.3101 -0.3353
  853MOL0     H12578   8.008   3.309  11.228 -2.8121 -3.3027  3.7601
  853MOL0     H12579   8.214   3.163  11.241  3.2529 -1.4731  2.6471
  853MOL0     H12580   8.494   2.965  11.477  1.0603 -3.9372 -0.4670
  853MOL0     H12581   8.656   2.791  11.468  2.8021  0.3818 -0.5222
  853MOL0     H12582  10.123   3.125  10.219  2.2475  0.1289 -2.3964
  853MOL0     H12583  10.288   3.319  10.231  1.8160 -2.6504 -1.2326
  853MOL0     H12584  10.567   3.577   9.878  2.2435  0.1744  0.1548
  853MOL0     H12585  10.717   3.763   9.863  1.6647  0.6923  1.4848
  853MOL0     H12586  10.627   4.129  10.146 -0.1017 -1.5325 -0.2834
  853MOL0     H12587  10.521   4.153  10.004  0.0769  2.3806  0.7478
  853MOL0     H12588  10.673   4.247   9.875 -0.6568  0.9572 -1.0054
  853MOL0     H12589  10.663   4.339  10.028  0.4710  0.7201 -2.0122
  853MOL0     H12590  10.878   4.135   9.924  1.8949  1.1004  0.7053
  853MOL0     H12591  10.873   4.199  10.092 -0.2473  1.4129  1.0940
  853MOL0     H12592  10.887   4.397   9.855  2.3380 -0.2862  0.3883
  853MOL0     H12593  10.909   4.427  10.024  1.1039 -0.2739  1.1954
  853MOL0     H12594  11.290   4.263   9.884 -1.7327 -2.5853 -0.1629
  853MOL0     H12595  10.446   3.983  10.132 -1.8043 -0.1234 -1.7660
  853MOL0     H12596  10.306   3.795  10.143 -0.5738 -2.2307 -0.7152
  854MOL0     O12597  10.396   4.253   8.943 -0.0066  0.1031 -0.5005
  854MOL0     C12598  10.514   4.264   8.933 -0.7855  0.4594  0.8064
  854MOL0     O12599  10.610   4.178   8.995  0.5879  0.4391  0.5902
  854MOL0     C12600  10.554   4.072   9.054 -0.1348 -0.8099 -0.2082
  854MOL0     C12601  10.552   4.063   9.189  0.6045 -0.0301  0.0996
  854MOL0     C12602  10.531   3.941   9.255  0.0461 -0.9165 -0.8264
  854MOL0     C12603  10.502   3.829   9.187 -0.0479  0.4398 -0.0655
  854MOL0     O12604  10.472   3.704   9.227  0.5175 -0.1778 -0.0734
  854MOL0     C12605  10.422   3.702   9.362 -0.8084  0.6003 -0.0349
  854MOL0     C12606  10.381   3.560   9.394  0.1752 -0.2777 -0.1041
  854MOL0     C12607  10.234   3.542   9.334 -1.8905 -0.1625  1.0045
  854MOL0     C12608  10.177   3.414   9.376  1.3786  0.3391 -0.2200
  854MOL0     C12609  10.028   3.408   9.346 -0.8404  0.2001  0.9251
  854MOL0     C12610  10.013   3.379   9.195  0.7889 -0.0432  0.4754
  854MOL0     C12611   9.885   3.304   9.170  0.9346 -1.1910  0.0862
  854MOL0     C12612   9.892   3.152   9.198  1.0061 -0.7265 -0.1617
  854MOL0     N12613   9.766   3.110   9.240 -0.2414  0.9227 -0.4279
  854MOL0     C12614   9.662   3.067   9.155 -0.3820 -0.1439  0.2108
  854MOL0     C12615   9.559   3.022   9.239 -0.1275 -0.3796 -0.7401
  854MOL0     C12616   9.439   2.948   9.185  0.6508  0.6106 -0.5824
  854MOL0     C12617   9.359   2.883   9.300  0.8201  0.4622 -0.7737
  854MOL0     C12618   9.210   2.866   9.266 -0.1525  0.0393  0.4625
  854MOL0     C12619   9.168   2.760   9.169  0.3432  0.1907 -0.2848
  854MOL0     O12620   9.027   2.743   9.166 -0.9622  0.0485 -0.4134
  854MOL0     C12621   8.965   2.625   9.144  0.7864  0.1732 -0.0975
  854MOL0     C12622   8.834   2.624   9.184 -0.4966 -0.3934  0.6719
  854MOL0     C12623   8.749   2.520   9.144  0.4241 -0.9191  0.2584
  854MOL0     C12624   8.798   2.412   9.073  0.3782  0.8289 -0.5984
  854MOL0     C12625   8.711   2.292   9.054 -0.0783 -0.4356  0.0708
  854MOL0     O12626   8.590   2.290   9.127 -0.0314  0.1959 -0.1165
  854MOL0     C12627   8.534   2.163   9.154  0.7293  0.4386  0.2881
  854MOL0     C12628   8.599   2.042   9.172  1.0597 -0.4010 -0.6163
  854MOL0     C12629   8.509   1.931   9.182 -0.4651 -0.3638 -0.6613
  854MOL0     C12630   8.370   1.937   9.200  0.9813 -0.2874  0.2334
  854MOL0     O12631   8.289   1.833   9.206 -0.0464 -0.5521 -0.0835
  854MOL0     C12632   8.312   1.749   9.321 -0.1599  0.6472  0.0707
  854MOL0     C12633   8.173   1.705   9.379  0.4167  0.1003  1.0817
  854MOL0     C12634   8.088   1.831   9.414 -0.1808 -0.2868  0.4880
  854MOL0     C12635   8.161   1.909   9.534 -0.7252  0.4404 -0.0226
  854MOL0     C12636   8.080   2.012   9.606  0.0044 -0.1862  0.3615
  854MOL0     C12637   7.979   1.949   9.711 -0.5126  0.2888  0.7751
  854MOL0     C12638   7.914   2.059   9.795  0.0924 -1.2127 -0.2380
  854MOL0     C12639   7.778   2.027   9.853 -0.0246  0.6139  0.3429
  854MOL0    Cl12640   7.748   1.848   9.879 -0.1741 -0.0906  0.1072
  854MOL0     C12641   8.314   2.064   9.194 -0.9561 -0.2903  0.2288
  854MOL0     C12642   8.392   2.175   9.162  0.3334 -0.2853  0.5064
  854MOL0     O12643   8.758   2.202   8.983 -0.3307 -0.3920 -0.7810
  854MOL0     C12644   8.931   2.416   9.030 -0.3782 -1.0548  0.9165
  854MOL0     C12645   9.007   2.528   9.054  0.1118  0.7528  1.0302
  854MOL0     N12646   9.614   3.026   9.368  0.6539 -0.3317 -0.1991
  854MOL0     N12647   9.726   3.086   9.372 -0.2582 -0.1961  0.0507
  854MOL0     C12648  10.510   3.840   9.048  0.3542  0.0751  0.0958
  854MOL0     C12649  10.536   3.950   8.975  0.6738 -0.0566  0.5408
  854MOL0     C12650  10.573   4.380   8.862 -0.9009 -1.6143 -0.4520
  854MOL0     C12651  10.712   4.367   8.806 -0.2443  0.0177 -0.9759
  854MOL0     C12652  10.777   4.472   8.756 -0.1260 -0.5561 -1.0415
  854MOL0     C12653  10.716   4.595   8.759  0.0476  0.0784  0.7765
  854MOL0     O12654  10.797   4.703   8.718 -0.2099  0.3775 -0.6337
  854MOL0     C12655  10.742   4.811   8.632  0.1325  0.4551 -0.8049
  854MOL0     C12656  10.780   4.948   8.693 -0.0767  0.1910  0.5047
  854MOL0     C12657  10.751   4.955   8.842  0.0600 -0.1169  0.3228
  854MOL0     C12658  10.748   5.099   8.898  0.5368 -0.2104  0.6069
  854MOL0     C12659  10.721   5.093   9.040  0.0682  0.2104  0.3895
  854MOL0     C12660  10.669   5.058   9.146 -0.0427 -0.0241 -0.4686
  854MOL0     C12661  10.579   4.611   8.796 -0.1459 -0.2275  0.6347
  854MOL0     C12662  10.503   4.502   8.843 -1.0244 -0.0434  0.3595
  854MOL0     H12663  10.572   4.147   9.256 -0.2246  1.9677 -2.0155
  854MOL0     H12664  10.552   3.931   9.361 -0.1921 -0.5573 -0.7434
  854MOL0     H12665  10.339   3.770   9.382 -0.6469  0.5012  1.0221
  854MOL0     H12666  10.502   3.741   9.426  0.0293  0.8697 -1.2106
  854MOL0     H12667  10.381   3.553   9.503  2.6325 -0.4049 -0.0685
  854MOL0     H12668  10.445   3.481   9.355  0.2491 -0.9615  1.3572
  854MOL0     H12669  10.228   3.540   9.225  2.1420 -0.3285  0.6395
  854MOL0     H12670  10.192   3.629   9.387  4.0969  2.2898  2.6541
  854MOL0     H12671  10.226   3.331   9.324  2.6903  1.0541 -0.1650
  854MOL0     H12672  10.201   3.395   9.481  1.6293  3.0732  0.2885
  854MOL0     H12673   9.974   3.498   9.376 -2.0941 -0.4590  0.7333
  854MOL0     H12674  10.003   3.322   9.408  5.3424 -0.9759  2.4843
  854MOL0     H12675  10.104   3.326   9.164  3.0421  2.8911  1.5612
  854MOL0     H12676  10.005   3.470   9.136  3.8414  0.5993  0.8644
  854MOL0     H12677   9.796   3.342   9.221 -0.6332 -4.4904  0.0422
  854MOL0     H12678   9.853   3.315   9.066  0.0964  1.3405  0.5415
  854MOL0     H12679   9.961   3.138   9.282  0.6933  0.9510  0.4096
  854MOL0     H12680   9.918   3.103   9.104  0.1060 -1.8130  0.1310
  854MOL0     H12681   9.651   3.059   9.048 -1.3794  1.0512  0.1968
  854MOL0     H12682   9.471   2.867   9.120  0.2035  1.8934 -2.4788
  854MOL0     H12683   9.374   3.014   9.126  1.0685  0.6091 -1.0484
  854MOL0     H12684   9.365   2.933   9.397  4.7379  2.3841 -1.7859
  854MOL0     H12685   9.402   2.786   9.329 -3.1097 -0.5372  2.6691
  854MOL0     H12686   9.148   2.858   9.356 -0.5006  2.6320  0.5454
  854MOL0     H12687   9.178   2.960   9.220  2.6433  0.8461  0.0016
  854MOL0     H12688   9.239   2.676   9.179  0.0784 -0.1714 -1.3079
  854MOL0     H12689   9.200   2.791   9.069 -1.8026  3.2124 -0.1598
  854MOL0     H12690   8.789   2.694   9.254  1.5142 -1.4647  3.1932
  854MOL0     H12691   8.646   2.533   9.175  0.7363  1.2627  0.5125
  854MOL0     H12692   8.707   2.032   9.172  0.9274 -2.4757 -1.9927
  854MOL0     H12693   8.553   1.832   9.177  0.3547 -0.0685  0.2441
  854MOL0     H12694   8.364   1.805   9.399 -0.2012  2.3385 -1.0463
  854MOL0     H12695   8.373   1.665   9.288 -1.4596  0.2134 -1.3840
  854MOL0     H12696   8.187   1.636   9.462 -0.0618  1.3921  2.2794
  854MOL0     H12697   8.125   1.645   9.301 -1.3044  1.3408  1.1297
  854MOL0     H12698   7.989   1.792   9.440  0.4704 -0.4512  2.9502
  854MOL0     H12699   8.073   1.897   9.327  2.9870  0.2580  0.2153
  854MOL0     H12700   8.197   1.842   9.613 -0.0208 -0.3788 -1.0024
  854MOL0     H12701   8.247   1.959   9.489 -0.6943  1.7315  1.4158
  854MOL0     H12702   8.021   2.070   9.534  0.2783 -1.5917 -1.0724
  854MOL0     H12703   8.148   2.083   9.653  0.2870 -0.3555  0.2107
  854MOL0     H12704   8.029   1.870   9.769  3.6968  0.1356 -2.5699
  854MOL0     H12705   7.893   1.909   9.656  0.1679 -2.1171  1.3284
  854MOL0     H12706   7.976   2.086   9.881  0.9964 -0.7215 -1.0117
  854MOL0     H12707   7.908   2.144   9.725  3.4028 -0.6321  0.0282
  854MOL0     H12708   7.697   2.079   9.801 -1.2261  2.4565  3.7368
  854MOL0     H12709   7.777   2.073   9.952 -0.4246 -0.3836  0.8206
  854MOL0     H12710   8.207   2.083   9.189 -1.5780 -3.5546 -0.9000
  854MOL0     H12711   8.354   2.274   9.141  1.6294  0.5451  1.8720
  854MOL0     H12712   8.968   2.341   8.961 -1.1436  1.2669 -2.2054
  854MOL0     H12713   9.108   2.540   9.016  0.0122  4.3237  1.5112
  854MOL0     H12714  10.510   3.742   9.001  1.1033 -2.6500  5.0269
  854MOL0     H12715  10.543   3.958   8.867 -0.5034 -0.7361  0.3914
  854MOL0     H12716  10.775   4.281   8.826 -0.2776  0.1337 -0.3676
  854MOL0     H12717  10.883   4.476   8.731  0.4881  0.3625  1.4142
  854MOL0     H12718  10.633   4.809   8.624  0.2371 -1.8590 -3.5342
  854MOL0     H12719  10.780   4.805   8.529 -1.8850  1.5127 -1.6763
  854MOL0     H12720  10.885   4.976   8.685  0.1262 -0.6411  0.1760
  854MOL0     H12721  10.728   5.029   8.640 -2.4267 -1.6809 -0.2218
  854MOL0     H12722  10.818   4.890   8.898  0.0663 -2.3798 -2.1264
  854MOL0     H12723  10.657   4.907   8.870  0.2926  0.2503  1.7934
  854MOL0     H12724  10.843   5.146   8.875  0.2158  0.6904  1.0836
  854MOL0     H12725  10.677   5.161   8.842  2.1886  1.6980  0.5189
  854MOL0     H12726  10.626   5.015   9.234 -1.8331 -0.0683 -1.3162
  854MOL0     H12727  10.532   4.709   8.795  0.7787  0.2561 -1.2211
  854MOL0     H12728  10.401   4.516   8.880 -1.1012  2.5655 -0.6143
  855MOL0     O12729   3.662   8.252   6.899  0.1580 -0.2967  0.1677
  855MOL0     C12730   3.607   8.300   6.996 -0.4253  0.6747  0.2118
  855MOL0     O12731   3.614   8.246   7.123  0.8814  0.0823 -0.1679
  855MOL0     C12732   3.693   8.138   7.136  0.4417  0.0437 -0.2632
  855MOL0     C12733   3.833   8.153   7.125 -0.3827  0.4680 -0.1807
  855MOL0     C12734   3.915   8.048   7.120 -0.6076  0.9801 -0.5655
  855MOL0     C12735   3.863   7.914   7.146  0.4098  0.2089 -0.2279
  855MOL0     O12736   3.942   7.797   7.150 -0.1162  0.2728  0.7341
  855MOL0     C12737   4.080   7.811   7.151  0.2899  0.9525  0.1670
  855MOL0     C12738   4.142   7.671   7.127 -0.6794  0.2975 -0.3004
  855MOL0     C12739   4.096   7.599   6.998  0.7701  0.2430 -0.2109
  855MOL0     C12740   4.121   7.448   6.997  0.2227 -0.9181  1.0999
  855MOL0     C12741   4.082   7.388   6.864  0.3558 -0.9753 -0.0546
  855MOL0     C12742   4.129   7.244   6.861 -0.5059  0.8037  0.9506
  855MOL0     C12743   4.130   7.189   6.727  0.0989 -0.0886  0.3231
  855MOL0     C12744   3.984   7.173   6.665 -0.3181  0.4695 -0.0002
  855MOL0     N12745   3.927   7.068   6.732 -0.0439 -0.1717  0.0455
  855MOL0     C12746   3.828   7.072   6.827  0.6582  0.7783  0.7289
  855MOL0     C12747   3.769   6.944   6.839 -0.5762  0.3551 -0.3099
  855MOL0     C12748   3.662   6.898   6.926 -0.0705  0.1100 -1.2723
  855MOL0     C12749   3.700   6.869   7.076 -0.0058  0.6301  0.8567
  855MOL0     C12750   3.607   6.783   7.159  0.5106 -0.4519 -0.4984
  855MOL0     C12751   3.484   6.867   7.202 -0.6332  0.2193  0.0966
  855MOL0     O12752   3.412   6.907   7.082 -0.5708 -0.7317  0.3906
  855MOL0     C12753   3.315   6.995   7.089 -0.8238 -0.3328 -0.0325
  855MOL0     C12754   3.228   6.994   6.989  0.4500  0.0867 -0.6215
  855MOL0     C12755   3.104   7.063   6.991  0.0717 -0.1155 -0.2827
  855MOL0     C12756   3.080   7.150   7.101 -0.3683 -1.0719  0.4204
  855MOL0     C12757   2.959   7.234   7.095  0.2915  0.1955  0.1347
  855MOL0     O12758   2.845   7.178   7.025 -0.5118 -0.2356  0.0979
  855MOL0     C12759   2.732   7.253   7.039 -0.4356  0.1320 -0.7942
  855MOL0     C12760   2.635   7.191   7.116  1.2048 -0.4435  0.3722
  855MOL0     C12761   2.503   7.245   7.113 -0.8651  0.1480 -0.1727
  855MOL0     C12762   2.462   7.353   7.036  0.7427  0.2654 -0.2826
  855MOL0     O12763   2.335   7.392   7.036  0.3947  0.5358 -0.4906
  855MOL0     C12764   2.287   7.383   6.905 -0.4523 -0.1555 -0.8695
  855MOL0     C12765   2.137   7.369   6.901 -0.9507 -0.0379  0.0358
  855MOL0     C12766   2.076   7.349   6.761 -0.1427 -0.1744  0.7726
  855MOL0     C12767   1.942   7.419   6.735  0.4531  0.5703 -0.6679
  855MOL0     C12768   1.821   7.384   6.835  0.2693  0.1465  0.5178
  855MOL0     C12769   1.781   7.234   6.809 -0.0270 -0.3716 -0.1874
  855MOL0     C12770   1.694   7.222   6.682  0.5657  0.9112  0.8789
  855MOL0     C12771   1.611   7.092   6.682  0.2074  0.1072  0.0571
  855MOL0    Cl12772   1.475   7.124   6.572  0.2430 -0.0092 -0.2096
  855MOL0     C12773   2.565   7.417   6.963  0.6250  0.1519  0.0591
  855MOL0     C12774   2.697   7.369   6.966 -0.2022  0.2271  0.2819
  855MOL0     O12775   2.958   7.350   7.148  1.1483  0.2897 -0.4973
  855MOL0     C12776   3.176   7.164   7.202 -1.1100 -0.3096 -0.0657
  855MOL0     C12777   3.297   7.091   7.194  0.2957 -0.0923  0.7128
  855MOL0     N12778   3.841   6.867   6.749  0.7713  0.0955  0.0261
  855MOL0     N12779   3.936   6.934   6.694  1.1862  0.4955  0.4787
  855MOL0     C12780   3.726   7.900   7.163 -0.0083 -0.1621 -0.5411
  855MOL0     C12781   3.640   8.010   7.162 -0.0844 -0.0889 -0.0757
  855MOL0     C12782   3.507   8.407   6.976  0.3520  0.0239 -0.3864
  855MOL0     C12783   3.460   8.475   7.089  0.0938  0.7891  0.2275
  855MOL0     C12784   3.388   8.591   7.087 -1.2732  0.2872  0.5332
  855MOL0     C12785   3.374   8.654   6.962  0.3786  0.5042  0.8005
  855MOL0     O12786   3.334   8.790   6.938  0.1221  0.2915  0.3518
  855MOL0     C12787   3.290   8.862   7.055  0.2896 -0.5272  0.1700
  855MOL0     C12788   3.238   9.003   7.008 -0.3487 -0.2910  0.4792
  855MOL0     C12789   3.160   9.091   7.097 -0.6391 -0.0951 -1.0988
  855MOL0     C12790   3.059   9.019   7.192 -0.0278 -0.1388 -0.5578
  855MOL0     C12791   2.944   8.953   7.139 -0.0682 -0.3092 -0.3934
  855MOL0     C12792   2.861   8.880   7.100  1.0650  0.1467  1.1867
  855MOL0     C12793   3.411   8.585   6.847 -0.0565 -0.1992 -0.7640
  855MOL0     C12794   3.483   8.467   6.863  0.7907  0.5562  0.1311
  855MOL0     H12795   3.869   8.254   7.107 -1.3721  1.1785  1.5135
  855MOL0     H12796   4.020   8.070   7.105  0.0469 -1.3991  0.1441
  855MOL0     H12797   4.117   7.839   7.250  1.1499 -0.2043  0.1828
  855MOL0     H12798   4.119   7.877   7.073 -2.8073 -1.1114 -3.4858
  855MOL0     H12799   4.128   7.608   7.215 -1.7012 -0.7283 -1.1664
  855MOL0     H12800   4.251   7.674   7.117 -0.4097 -1.9548  1.2651
  855MOL0     H12801   4.149   7.643   6.914  1.6922 -0.4522 -0.0058
  855MOL0     H12802   3.993   7.617   6.965  1.2472 -0.5357 -2.2584
  855MOL0     H12803   4.223   7.426   7.030  0.9628  0.2659 -0.2775
  855MOL0     H12804   4.061   7.404   7.077 -0.9949 -0.2321  0.5876
  855MOL0     H12805   4.126   7.451   6.786  0.0733 -2.7880 -1.7588
  855MOL0     H12806   3.974   7.389   6.852  0.3429 -2.2664 -0.1612
  855MOL0     H12807   4.059   7.185   6.921  1.4237 -1.3554  1.2200
  855MOL0     H12808   4.228   7.233   6.907  0.0728 -0.5181 -0.5566
  855MOL0     H12809   4.199   7.244   6.663  0.8293 -1.6158 -0.2630
  855MOL0     H12810   4.170   7.087   6.730  0.9364 -0.0930 -3.9531
  855MOL0     H12811   3.978   7.161   6.557 -4.1151  2.6159 -0.2263
  855MOL0     H12812   3.933   7.267   6.688  1.2117  1.2868  0.2023
  855MOL0     H12813   3.796   7.164   6.876  2.0227  0.1914  2.8694
  855MOL0     H12814   3.628   6.799   6.897 -1.1710  0.1005 -0.0820
  855MOL0     H12815   3.580   6.971   6.927  0.9588  1.3252  0.0781
  855MOL0     H12816   3.714   6.968   7.122  0.9084  1.3530 -0.8826
  855MOL0     H12817   3.797   6.818   7.086 -0.6093 -0.1928  3.0639
  855MOL0     H12818   3.584   6.694   7.099  2.6059 -1.6846  0.4039
  855MOL0     H12819   3.653   6.745   7.251 -0.0437  0.0993  0.0162
  855MOL0     H12820   3.528   6.950   7.258  1.0434 -0.1208 -0.6455
  855MOL0     H12821   3.421   6.815   7.274 -0.4944 -2.5528 -1.6265
  855MOL0     H12822   3.235   6.948   6.891 -0.4884  0.2782 -0.7875
  855MOL0     H12823   3.017   7.051   6.928 -1.2323  1.0303  1.2422
  855MOL0     H12824   2.654   7.100   7.174 -0.8950 -0.7386  0.6689
  855MOL0     H12825   2.432   7.197   7.180  0.0862  0.8633  1.3683
  855MOL0     H12826   2.328   7.300   6.848 -0.6343  1.5028 -3.5669
  855MOL0     H12827   2.315   7.476   6.854 -0.3277  0.7285  0.7252
  855MOL0     H12828   2.102   7.471   6.924 -0.7235  0.4479 -1.5926
  855MOL0     H12829   2.107   7.295   6.975  3.5000 -1.4904  0.6758
  855MOL0     H12830   2.088   7.247   6.723  0.0304 -0.3657  1.3240
  855MOL0     H12831   2.144   7.404   6.695  1.1182 -1.9543  0.4909
  855MOL0     H12832   1.943   7.528   6.732 -3.6587  0.8534  1.0396
  855MOL0     H12833   1.904   7.395   6.636 -1.6684 -0.3608  0.2995
  855MOL0     H12834   1.746   7.462   6.817 -0.8340 -0.6287  1.6005
  855MOL0     H12835   1.850   7.402   6.939 -0.8622  3.6439  0.3656
  855MOL0     H12836   1.728   7.195   6.896  0.5283  0.9421  0.7812
  855MOL0     H12837   1.872   7.175   6.798 -0.2847 -0.5650 -1.5103
  855MOL0     H12838   1.631   7.311   6.669  1.8092  1.8632  1.1745
  855MOL0     H12839   1.758   7.211   6.594  0.6636  0.3948  1.0123
  855MOL0     H12840   1.568   7.062   6.778  0.0527  0.6902  0.1793
  855MOL0     H12841   1.670   7.008   6.647 -0.1028  0.2972 -0.9462
  855MOL0     H12842   2.552   7.505   6.901 -2.3329  0.5959  1.1697
  855MOL0     H12843   2.775   7.417   6.907  0.8119 -1.4858  0.1335
  855MOL0     H12844   3.156   7.233   7.284 -0.5416  0.2541 -0.3906
  855MOL0     H12845   3.365   7.124   7.271 -3.8895  2.3179  3.8176
  855MOL0     H12846   3.696   7.797   7.176 -0.6750  0.1157  0.2047
  855MOL0     H12847   3.534   7.997   7.183 -0.4466 -2.5230 -2.8576
  855MOL0     H12848   3.486   8.433   7.185  1.8025 -0.3672 -0.7031
  855MOL0     H12849   3.356   8.638   7.179 -1.8333 -0.0057  0.4959
  855MOL0     H12850   3.367   8.876   7.131 -1.6844  1.3071  2.0023
  855MOL0     H12851   3.211   8.811   7.111 -2.9040  2.3127 -1.3372
  855MOL0     H12852   3.331   9.055   6.980  0.4588  1.4386  5.3828
  855MOL0     H12853   3.187   8.984   6.913  1.6234 -0.1023 -0.6907
  855MOL0     H12854   3.101   9.168   7.045 -4.2450  0.8272  3.6497
  855MOL0     H12855   3.233   9.148   7.155  0.6859 -3.1353  0.4309
  855MOL0     H12856   3.116   8.951   7.256  0.1052  0.9347  0.4942
  855MOL0     H12857   3.030   9.095   7.265 -2.7274 -2.7240  1.2767
  855MOL0     H12858   2.786   8.807   7.074  0.6901 -0.0663  2.7701
  855MOL0     H12859   3.420   8.628   6.748 -0.0118  0.2091 -0.5855
  855MOL0     H12860   3.524   8.420   6.774 -0.0109  0.0291  0.0317
  856MOL0     O12861   2.072   7.117   3.604  0.5337  0.4543  0.2433
  856MOL0     C12862   2.136   7.033   3.547 -0.3227  0.9078  0.1403
  856MOL0     O12863   2.250   7.048   3.472 -0.1767 -0.4586 -0.5779
  856MOL0     C12864   2.287   7.176   3.461 -0.0946 -0.7268  1.2820
  856MOL0     C12865   2.366   7.237   3.560  0.9316 -0.6525 -0.0079
  856MOL0     C12866   2.444   7.351   3.543  0.6749 -0.1159  0.4306
  856MOL0     C12867   2.418   7.432   3.431  0.8484  0.6274 -0.2801
  856MOL0     O12868   2.481   7.558   3.419  1.1530  0.1832 -0.1673
  856MOL0     C12869   2.539   7.580   3.282 -0.8462  0.9624 -1.3833
  856MOL0     C12870   2.638   7.689   3.293  0.3478 -0.3952  0.0638
  856MOL0     C12871   2.698   7.742   3.168  0.0212 -0.9717 -0.1470
  856MOL0     C12872   2.596   7.782   3.069 -0.1929 -0.2129  0.4346
  856MOL0     C12873   2.644   7.847   2.942  0.1675  0.4441 -0.5920
  856MOL0     C12874   2.651   7.753   2.825  0.7220 -0.3769  0.5139
  856MOL0     C12875   2.522   7.739   2.754  0.0660  0.5635  0.5943
  856MOL0     C12876   2.532   7.616   2.661 -0.2745  0.3367 -0.6179
  856MOL0     N12877   2.411   7.598   2.585 -0.7972 -0.3700  0.7557
  856MOL0     C12878   2.277   7.596   2.629 -0.3596  0.3050 -0.7192
  856MOL0     C12879   2.209   7.609   2.515  0.8513 -0.4914  0.6029
  856MOL0     C12880   2.062   7.631   2.494  0.9672 -0.2642 -0.2769
  856MOL0     C12881   1.991   7.509   2.530 -0.1741 -0.1572 -0.1479
  856MOL0     C12882   1.839   7.519   2.511  0.0013  1.0314 -0.6833
  856MOL0     C12883   1.787   7.391   2.564  0.1747  0.5838  0.2982
  856MOL0     O12884   1.646   7.369   2.532  0.0845  0.3724  0.9342
  856MOL0     C12885   1.591   7.242   2.564  0.0559 -0.7518 -0.2694
  856MOL0     C12886   1.461   7.224   2.534 -0.1027  0.5462 -0.2041
  856MOL0     C12887   1.393   7.096   2.546 -0.0246  0.7704 -1.5541
  856MOL0     C12888   1.458   6.992   2.600 -0.5056  0.0391  0.3046
  856MOL0     C12889   1.394   6.857   2.598 -0.5211  0.5745  0.9642
  856MOL0     O12890   1.448   6.751   2.683  0.7157 -0.4225 -0.0980
  856MOL0     C12891   1.413   6.616   2.675 -0.3537  0.1244 -0.3433
  856MOL0     C12892   1.498   6.526   2.613 -0.4477  0.5482  0.4449
  856MOL0     C12893   1.472   6.390   2.616 -0.1932  0.2779 -0.4099
  856MOL0     C12894   1.350   6.343   2.674 -0.8498 -0.4952  0.3075
  856MOL0     O12895   1.327   6.207   2.697  0.3570 -0.6572  0.2992
  856MOL0     C12896   1.353   6.124   2.583  0.6948  0.2876  0.1912
  856MOL0     C12897   1.488   6.045   2.626  0.8884  0.3657 -0.1433
  856MOL0     C12898   1.447   5.920   2.708  0.1688 -0.2074  1.0879
  856MOL0     C12899   1.570   5.846   2.769 -0.5550 -0.0491  0.5809
  856MOL0     C12900   1.523   5.706   2.823  1.0616 -0.1488 -0.7326
  856MOL0     C12901   1.620   5.617   2.896  0.5557  0.0563  0.5034
  856MOL0     C12902   1.722   5.549   2.801 -0.1413 -0.3980 -0.3532
  856MOL0     C12903   1.656   5.454   2.704 -0.6813  0.1840 -0.9347
  856MOL0    Cl12904   1.721   5.464   2.536  0.2774 -0.4420  0.2742
  856MOL0     C12905   1.257   6.433   2.725  0.2562  0.1259 -0.3816
  856MOL0     C12906   1.284   6.568   2.724 -0.5912 -0.5247 -0.5275
  856MOL0     O12907   1.314   6.844   2.506  0.4724  0.5212 -0.0297
  856MOL0     C12908   1.581   7.017   2.656 -0.4105  0.1345  0.7923
  856MOL0     C12909   1.648   7.137   2.630 -1.1183  0.1313 -0.5757
  856MOL0     N12910   2.290   7.634   2.401  0.2872 -0.0852 -0.2144
  856MOL0     N12911   2.406   7.623   2.448 -0.5053 -0.5712 -0.8447
  856MOL0     C12912   2.321   7.375   3.330  0.0642  0.0123  0.1069
  856MOL0     C12913   2.259   7.257   3.345 -0.0620 -0.2148 -0.4663
  856MOL0     C12914   2.099   6.880   3.545 -0.2790  0.0738 -0.7904
  856MOL0     C12915   1.980   6.831   3.600 -0.4574  0.4101  0.4847
  856MOL0     C12916   1.944   6.696   3.586 -0.9175 -0.2397  0.3246
  856MOL0     C12917   2.032   6.606   3.524 -0.6775 -0.2493 -0.0575
  856MOL0     O12918   2.004   6.471   3.503  0.2278  0.6389 -0.0290
  856MOL0     C12919   2.000   6.391   3.619 -0.4718  0.1037 -0.9053
  856MOL0     C12920   2.154   6.365   3.664 -0.1503 -0.0931 -0.9081
  856MOL0     C12921   2.176   6.265   3.775  0.3224 -0.1769 -0.9247
  856MOL0     C12922   2.299   6.174   3.762 -0.1401  0.1672  0.6088
  856MOL0     C12923   2.314   6.102   3.889  0.8209 -0.4866  0.1430
  856MOL0     C12924   2.312   6.033   3.991  0.3053 -0.1182  0.3186
  856MOL0     C12925   2.164   6.646   3.493  0.4808  0.0965 -0.6888
  856MOL0     C12926   2.200   6.782   3.501  0.4774 -0.3110 -0.0848
  856MOL0     H12927   2.368   7.176   3.650  1.8353  1.3943  1.4485
  856MOL0     H12928   2.509   7.384   3.624 -0.7004  1.9115  0.7730
  856MOL0     H12929   2.462   7.600   3.206 -0.1967 -0.0458 -2.3415
  856MOL0     H12930   2.587   7.486   3.252 -0.0609  1.8539 -3.0545
  856MOL0     H12931   2.720   7.663   3.360 -0.1835 -1.6288  0.2575
  856MOL0     H12932   2.594   7.771   3.350  0.3990  1.6454 -2.6035
  856MOL0     H12933   2.759   7.658   3.133 -0.5336 -0.7493 -1.7173
  856MOL0     H12934   2.770   7.824   3.181 -0.9796 -0.2786  1.4542
  856MOL0     H12935   2.533   7.698   3.037 -0.5699  0.3296 -0.2790
  856MOL0     H12936   2.533   7.856   3.120  2.7746  3.3128 -0.6556
  856MOL0     H12937   2.744   7.891   2.942 -0.5111  2.4381 -4.4882
  856MOL0     H12938   2.582   7.934   2.921  0.3269  0.5852 -0.4815
  856MOL0     H12939   2.677   7.655   2.866 -0.9743 -0.0333  2.6205
  856MOL0     H12940   2.726   7.778   2.750 -1.3553  2.5572 -0.7450
  856MOL0     H12941   2.440   7.739   2.826  1.3331  2.9137  2.1794
  856MOL0     H12942   2.500   7.821   2.685 -1.6079 -0.3636 -0.0198
  856MOL0     H12943   2.555   7.521   2.710  1.1930 -0.8223 -3.3399
  856MOL0     H12944   2.614   7.629   2.590  1.8861 -0.4259  1.6010
  856MOL0     H12945   2.248   7.579   2.733 -0.8449 -0.6417 -0.9957
  856MOL0     H12946   2.038   7.651   2.389  2.1168  1.4163 -0.2609
  856MOL0     H12947   2.013   7.709   2.554  2.4704  1.3729 -1.0587
  856MOL0     H12948   2.023   7.507   2.634 -0.7319  0.4278  0.0446
  856MOL0     H12949   2.029   7.424   2.472 -1.6730 -2.1381  1.6135
  856MOL0     H12950   1.770   7.587   2.561 -3.1902 -2.9442  0.8317
  856MOL0     H12951   1.825   7.526   2.402 -1.4513 -1.8097 -0.7785
  856MOL0     H12952   1.798   7.394   2.673  2.0199 -1.0672  0.1989
  856MOL0     H12953   1.845   7.306   2.528 -0.8339  0.7375 -1.8327
  856MOL0     H12954   1.410   7.312   2.493  1.6099  2.6916  1.9943
  856MOL0     H12955   1.286   7.091   2.528 -1.4081 -2.2109  4.8065
  856MOL0     H12956   1.576   6.573   2.554 -0.7641 -1.9451 -2.1732
  856MOL0     H12957   1.540   6.321   2.567  0.3270 -0.2736  1.0470
  856MOL0     H12958   1.367   6.186   2.494 -1.1297 -0.8327 -0.9266
  856MOL0     H12959   1.265   6.061   2.572  1.2729 -0.7070  0.9937
  856MOL0     H12960   1.548   6.108   2.693  1.4116 -2.3055  2.0721
  856MOL0     H12961   1.550   6.025   2.538  1.9322  1.5827  0.2729
  856MOL0     H12962   1.394   5.852   2.640  0.8655  0.1343  0.1827
  856MOL0     H12963   1.380   5.959   2.785 -0.2391  1.3425 -0.0016
  856MOL0     H12964   1.645   5.839   2.691  0.1269  0.4304  1.1827
  856MOL0     H12965   1.610   5.909   2.849  1.0097  3.0001 -2.3374
  856MOL0     H12966   1.459   5.664   2.745 -2.0489  1.5555  0.6966
  856MOL0     H12967   1.455   5.737   2.903  1.9865 -0.2849  0.1198
  856MOL0     H12968   1.572   5.535   2.951  2.0170  0.1281  1.9739
  856MOL0     H12969   1.677   5.670   2.972  0.6723  1.6334 -0.6250
  856MOL0     H12970   1.768   5.626   2.738 -0.2349 -0.0641 -0.0166
  856MOL0     H12971   1.800   5.492   2.852  0.0263 -0.0685 -0.2433
  856MOL0     H12972   1.548   5.466   2.692 -0.3592  2.1640 -2.4185
  856MOL0     H12973   1.683   5.356   2.744  1.9323  0.8061 -0.9811
  856MOL0     H12974   1.172   6.407   2.787  1.2257  2.1386  1.9366
  856MOL0     H12975   1.218   6.640   2.770  1.7253  1.6731 -0.3737
  856MOL0     H12976   1.636   6.947   2.717  3.4186  4.2827  2.7178
  856MOL0     H12977   1.749   7.149   2.668 -1.7119 -0.5931  1.3299
  856MOL0     H12978   2.291   7.434   3.244 -3.2313  0.3478  1.3381
  856MOL0     H12979   2.187   7.222   3.271 -2.2542  1.1445  0.8869
  856MOL0     H12980   1.919   6.906   3.650 -0.9537  0.3458 -0.0119
  856MOL0     H12981   1.845   6.662   3.611 -0.5038 -1.5878  0.2177
  856MOL0     H12982   1.953   6.300   3.582 -0.2301  0.7776 -3.0002
  856MOL0     H12983   1.946   6.451   3.693  2.5877  1.9854  0.0018
  856MOL0     H12984   2.217   6.326   3.583 -1.2248 -1.7089 -1.0044
  856MOL0     H12985   2.202   6.457   3.697 -0.5375 -0.9931  2.4707
  856MOL0     H12986   2.089   6.206   3.803 -0.4158  0.9993 -0.6657
  856MOL0     H12987   2.214   6.321   3.861 -0.7457 -0.1179 -0.4785
  856MOL0     H12988   2.281   6.107   3.679  0.0545  0.3249  0.4391
  856MOL0     H12989   2.391   6.232   3.746 -0.9982  0.9168 -2.1605
  856MOL0     H12990   2.286   5.983   4.082  2.0131  0.5133  1.1927
  856MOL0     H12991   2.224   6.571   3.441  1.4176  0.4983 -0.2104
  856MOL0     H12992   2.301   6.807   3.472  0.7599 -0.7537  0.4741
  857MOL0     O12993   0.668   6.826   8.712 -0.2696 -0.2533 -0.4114
  857MOL0     C12994   0.631   6.755   8.806 -0.9324  0.1891  0.0070
  857MOL0     O12995   0.702   6.644   8.849  0.0164  1.0250 -0.0566
  857MOL0     C12996   0.780   6.571   8.761 -0.4842 -0.4584 -0.6038
  857MOL0     C12997   0.926   6.562   8.780 -0.5825  0.4108 -0.8170
  857MOL0     C12998   1.003   6.506   8.680  0.4739  0.0941  0.0377
  857MOL0     C12999   0.949   6.464   8.551  0.5754 -0.0474  0.2027
  857MOL0     O13000   1.025   6.410   8.450 -0.5114 -0.2977 -0.6627
  857MOL0     C13001   1.167   6.382   8.456  0.1211  0.1052 -0.0685
  857MOL0     C13002   1.255   6.502   8.425 -1.0763  0.6050 -1.4883
  857MOL0     C13003   1.400   6.462   8.445  0.7688  0.2913 -0.1268
  857MOL0     C13004   1.437   6.405   8.584 -0.3104 -0.3407  0.2426
  857MOL0     C13005   1.592   6.378   8.604  0.6988 -0.3058  0.4968
  857MOL0     C13006   1.661   6.326   8.486 -0.2107  0.2543  0.6995
  857MOL0     C13007   1.794   6.254   8.527  0.1365 -0.0308 -0.2533
  857MOL0     C13008   1.770   6.114   8.588  0.0164  0.2516  0.0663
  857MOL0     N13009   1.849   6.010   8.505 -0.0788 -0.8167  0.5686
  857MOL0     C13010   1.802   5.952   8.389  0.3671 -0.5014  0.5017
  857MOL0     C13011   1.904   5.901   8.335 -0.6836 -0.1600 -0.1830
  857MOL0     C13012   1.920   5.818   8.207 -0.3519  0.4047 -0.1458
  857MOL0     C13013   1.818   5.697   8.203  0.0582 -0.5883  0.2395
  857MOL0     C13014   1.855   5.586   8.297 -0.8634 -0.8206 -0.4829
  857MOL0     C13015   1.758   5.469   8.296  0.1764 -0.3908 -0.8085
  857MOL0     O13016   1.644   5.512   8.363 -0.0795 -0.0127  0.3201
  857MOL0     C13017   1.559   5.428   8.428 -0.3181 -0.2972  0.3443
  857MOL0     C13018   1.574   5.289   8.437  0.2639  0.1504 -0.1218
  857MOL0     C13019   1.489   5.215   8.514 -0.4400  0.6272  0.8084
  857MOL0     C13020   1.377   5.277   8.586 -0.4321 -0.4745 -0.4840
  857MOL0     C13021   1.277   5.197   8.675  0.0844 -0.1642 -0.7983
  857MOL0     O13022   1.188   5.266   8.744  0.9205 -0.2098 -0.3108
  857MOL0     C13023   1.083   5.222   8.828 -0.6382  0.1199 -0.1320
  857MOL0     C13024   1.055   5.082   8.859 -0.0332  0.3332 -0.2114
  857MOL0     C13025   0.958   5.052   8.946  0.2302  0.4892 -0.6300
  857MOL0     C13026   0.867   5.151   8.998  0.2789  0.6053  0.5393
  857MOL0     O13027   0.767   5.133   9.101 -0.1948  0.9101 -0.4636
  857MOL0     C13028   0.728   4.993   9.125  0.0306  0.1097  0.6121
  857MOL0     C13029   0.821   4.925   9.229  0.7518 -0.9341 -0.4295
  857MOL0     C13030   0.814   4.989   9.373  0.5824 -0.7645  0.3984
  857MOL0     C13031   0.670   5.015   9.432 -0.9107 -0.3347 -0.5187
  857MOL0     C13032   0.664   5.110   9.558  0.9794  0.4089 -1.0458
  857MOL0     C13033   0.537   5.079   9.636 -0.5554 -0.8026 -0.4823
  857MOL0     C13034   0.498   5.185   9.754 -0.2931 -0.4249 -0.6607
  857MOL0     C13035   0.369   5.142   9.825 -1.7576  0.1952  0.0027
  857MOL0    Cl13036   0.355   4.971   9.824  0.1298 -0.2103 -0.4343
  857MOL0     C13037   0.897   5.282   8.965  0.4384 -0.1815  0.4461
  857MOL0     C13038   1.000   5.327   8.887 -0.9606  0.3543 -0.3599
  857MOL0     O13039   1.286   5.077   8.674  0.2977  0.0699  0.5630
  857MOL0     C13040   1.364   5.424   8.574  0.1595  0.1862  0.4706
  857MOL0     C13041   1.455   5.490   8.491 -0.2091 -0.5093  0.5531
  857MOL0     N13042   2.017   5.910   8.417 -0.0915  0.3596 -0.5409
  857MOL0     N13043   1.977   5.977   8.519 -0.7968 -0.0531 -0.4941
  857MOL0     C13044   0.814   6.486   8.531  0.4462  0.0676  0.2883
  857MOL0     C13045   0.727   6.536   8.630 -0.6064 -0.2309  0.0323
  857MOL0     C13046   0.515   6.782   8.885  0.5027 -0.8326 -0.1828
  857MOL0     C13047   0.407   6.862   8.828 -0.9938  0.4577 -0.2800
  857MOL0     C13048   0.290   6.887   8.903  0.2675 -0.3243 -0.2595
  857MOL0     C13049   0.269   6.829   9.027 -0.2147 -0.4830  0.7111
  857MOL0     O13050   0.152   6.846   9.099  0.2927  0.2221  0.0792
  857MOL0     C13051   0.177   6.900   9.227 -0.2490 -0.1360  0.6366
  857MOL0     C13052   0.086   7.019   9.233 -0.0674  0.1717  0.7646
  857MOL0     C13053   0.096   7.100   9.367 -0.6166  0.9771 -0.2072
  857MOL0     C13054   0.070   7.013   9.496  0.4658  0.0134 -0.1803
  857MOL0     C13055   0.007   7.090   9.605 -0.2337  1.4641  0.1337
  857MOL0     C13056  -0.044   7.129   9.710  0.2237 -0.7573  0.2579
  857MOL0     C13057   0.376   6.757   9.083 -0.2927 -1.1327  0.4560
  857MOL0     C13058   0.495   6.730   9.013 -0.2394 -0.1833  0.8621
  857MOL0     H13059   0.983   6.596   8.866 -2.7332  0.5440  0.6670
  857MOL0     H13060   1.102   6.477   8.714 -0.4939 -1.0567  2.0211
  857MOL0     H13061   1.201   6.307   8.383  2.1005 -0.8433  1.7097
  857MOL0     H13062   1.182   6.330   8.552  0.4080 -0.8847 -0.6318
  857MOL0     H13063   1.232   6.584   8.493  0.7624 -0.2325  0.2247
  857MOL0     H13064   1.235   6.534   8.322 -0.3639  1.3896 -1.3883
  857MOL0     H13065   1.468   6.544   8.421  0.6801  1.3377  2.8018
  857MOL0     H13066   1.433   6.382   8.378 -0.5063 -0.0751 -0.3503
  857MOL0     H13067   1.402   6.460   8.671 -2.2127  0.0783 -0.7348
  857MOL0     H13068   1.380   6.313   8.600 -0.0617 -0.4700  0.3854
  857MOL0     H13069   1.600   6.309   8.689 -1.9542 -0.8727  0.3687
  857MOL0     H13070   1.647   6.471   8.623  3.9440 -2.0155  0.3080
  857MOL0     H13071   1.681   6.404   8.412  2.7481  0.9700  2.1356
  857MOL0     H13072   1.590   6.254   8.443  1.5682 -1.3024  0.2501
  857MOL0     H13073   1.859   6.232   8.442 -1.5003 -1.9968 -1.0956
  857MOL0     H13074   1.853   6.314   8.597 -2.2037  1.2935  0.6985
  857MOL0     H13075   1.664   6.086   8.585  0.0467 -0.0961  1.6312
  857MOL0     H13076   1.808   6.118   8.690  1.9252  0.9621 -0.6382
  857MOL0     H13077   1.705   5.968   8.342  1.3164 -0.1148 -1.4418
  857MOL0     H13078   2.022   5.783   8.193 -0.1441  0.2279  1.6127
  857MOL0     H13079   1.905   5.884   8.120  0.4326  2.8042  1.4232
  857MOL0     H13080   1.822   5.659   8.100  2.5236  2.1189 -0.7848
  857MOL0     H13081   1.717   5.738   8.213  0.5851  1.3958 -1.5864
  857MOL0     H13082   1.951   5.553   8.255  1.0047 -0.7766  3.3267
  857MOL0     H13083   1.868   5.624   8.398  1.6526 -1.1095 -0.6251
  857MOL0     H13084   1.809   5.397   8.360  0.5025  1.0205  0.5669
  857MOL0     H13085   1.729   5.442   8.194  0.4865  4.3289 -2.4068
  857MOL0     H13086   1.655   5.236   8.388 -0.4256 -1.5203  0.4694
  857MOL0     H13087   1.503   5.108   8.524 -0.9211  0.4103 -0.6035
  857MOL0     H13088   1.098   5.001   8.801  1.6818  1.1699 -0.1610
  857MOL0     H13089   0.937   4.950   8.977 -1.4704  0.5416 -1.4883
  857MOL0     H13090   0.723   4.939   9.030  1.9225 -0.4883  0.8232
  857MOL0     H13091   0.621   4.997   9.147 -0.4057  1.9105 -1.3976
  857MOL0     H13092   0.925   4.915   9.196  0.6940  1.2289 -1.4046
  857MOL0     H13093   0.787   4.822   9.242 -1.4263 -0.3098 -0.8153
  857MOL0     H13094   0.869   5.082   9.359  0.8622 -0.9275  0.4049
  857MOL0     H13095   0.873   4.925   9.439  1.7954 -0.6008 -0.4970
  857MOL0     H13096   0.598   5.047   9.356 -1.1503 -2.5470 -1.2844
  857MOL0     H13097   0.634   4.922   9.477  2.4900  0.0054  3.4643
  857MOL0     H13098   0.670   5.214   9.526  1.0985  0.3437 -1.2428
  857MOL0     H13099   0.753   5.090   9.619 -0.5183  0.5971  1.3034
  857MOL0     H13100   0.531   4.975   9.670 -2.9911 -0.6144 -0.1303
  857MOL0     H13101   0.453   5.084   9.566  1.0188  0.1898 -2.4129
  857MOL0     H13102   0.587   5.196   9.817  0.0036 -1.7873 -0.8089
  857MOL0     H13103   0.483   5.290   9.727  1.4010  1.0933  3.4987
  857MOL0     H13104   0.278   5.182   9.780 -1.3909  0.6318 -0.3516
  857MOL0     H13105   0.375   5.171   9.931  1.7272  0.5636 -0.1736
  857MOL0     H13106   0.825   5.354   9.003  1.5349  1.8549 -1.1785
  857MOL0     H13107   1.010   5.432   8.862  0.8762  0.6431  1.3775
  857MOL0     H13108   1.279   5.474   8.620 -0.6506 -0.0681 -0.7012
  857MOL0     H13109   1.442   5.597   8.476  1.5542  0.0478  2.5233
  857MOL0     H13110   0.783   6.457   8.431  0.1087 -3.5002  1.2883
  857MOL0     H13111   0.628   6.571   8.602  0.3870  2.5075 -0.4351
  857MOL0     H13112   0.412   6.892   8.724 -0.3812 -2.5761 -1.2396
  857MOL0     H13113   0.205   6.934   8.855  0.8434 -0.3443 -1.3431
  857MOL0     H13114   0.273   6.944   9.252 -1.5128  2.4930  1.1672
  857MOL0     H13115   0.145   6.829   9.304  1.8607 -1.0039  0.7802
  857MOL0     H13116   0.118   7.084   9.151 -0.1712  1.0694  1.4168
  857MOL0     H13117  -0.014   6.977   9.218  0.5001 -0.6186 -1.1060
  857MOL0     H13118   0.022   7.179   9.352  0.0715  1.8937  0.9690
  857MOL0     H13119   0.188   7.160   9.367 -1.8893  3.0858 -1.4071
  857MOL0     H13120  -0.000   6.933   9.472  1.4691 -0.8121 -0.4151
  857MOL0     H13121   0.167   6.976   9.529  0.1400 -0.6139  0.0756
  857MOL0     H13122  -0.096   7.164   9.797  1.1652  1.4458  0.0030
  857MOL0     H13123   0.355   6.698   9.172  0.8132  0.4253  1.8186
  857MOL0     H13124   0.569   6.672   9.067 -0.7189 -3.0234 -1.2806
  858MOL0     O13125   8.504   6.145   4.435  0.1373  0.3040 -0.4589
  858MOL0     C13126   8.478   6.043   4.368  0.5812 -1.2325  0.1828
  858MOL0     O13127   8.543   6.009   4.248  1.0855  0.4879  0.4938
  858MOL0     C13128   8.662   6.066   4.229 -0.2792  0.7467 -0.2197
  858MOL0     C13129   8.682   6.166   4.122 -0.7928  0.5068  0.0937
  858MOL0     C13130   8.815   6.199   4.093 -0.2517  0.1792 -1.2377
  858MOL0     C13131   8.924   6.161   4.174  0.4514  0.1702 -0.3093
  858MOL0     O13132   9.049   6.206   4.145  0.3865 -0.3102  0.0793
  858MOL0     C13133   9.092   6.323   4.218 -0.9119  0.6400  0.2290
  858MOL0     C13134   9.245   6.326   4.207  0.5334  0.1294  0.4688
  858MOL0     C13135   9.279   6.468   4.266 -0.2269 -0.5797  0.7201
  858MOL0     C13136   9.432   6.513   4.234 -0.5578  0.8993 -0.7190
  858MOL0     C13137   9.447   6.657   4.279  0.0061  0.2464 -0.2055
  858MOL0     C13138   9.598   6.694   4.268  0.1579  0.1589  0.4002
  858MOL0     C13139   9.629   6.836   4.315  0.5993  0.8095 -0.5340
  858MOL0     C13140   9.763   6.879   4.258 -0.2587 -1.0875  0.5160
  858MOL0     N13141   9.878   6.816   4.335  0.0366  0.3540  0.5495
  858MOL0     C13142   9.894   6.812   4.467  0.3324  0.3905  0.0393
  858MOL0     C13143  10.025   6.764   4.490  0.6105 -0.1551 -0.8364
  858MOL0     C13144  10.120   6.752   4.603 -0.2671  0.1035 -0.8588
  858MOL0     C13145  10.228   6.870   4.587 -0.0303 -0.3014 -0.3202
  858MOL0     C13146  10.313   6.861   4.710 -1.0034 -0.3109  0.0270
  858MOL0     C13147  10.274   6.962   4.822  0.7615  0.5426  0.4582
  858MOL0     O13148  10.225   6.898   4.941  1.1389 -0.4011  0.2667
  858MOL0     C13149  10.301   6.849   5.046  0.2974 -1.3089 -0.6446
  858MOL0     C13150  10.421   6.912   5.093 -0.0172 -0.0821 -0.0426
  858MOL0     C13151  10.470   6.888   5.227  0.2899 -0.0709  0.4830
  858MOL0     C13152  10.401   6.792   5.316 -0.0880  0.4190 -0.0154
  858MOL0     C13153  10.451   6.751   5.451 -0.6788  0.0843 -1.2721
  858MOL0     O13154  10.548   6.832   5.512  0.6965  0.6171  0.4255
  858MOL0     C13155  10.611   6.779   5.625 -0.3072 -0.4922 -0.1364
  858MOL0     C13156  10.637   6.857   5.734 -0.4410 -0.5004 -0.4834
  858MOL0     C13157  10.706   6.800   5.844  0.8249 -1.3058 -0.2434
  858MOL0     C13158  10.734   6.663   5.848 -0.4757 -0.1216 -0.2589
  858MOL0     O13159  10.797   6.618   5.965  0.1526 -0.4106  0.2625
  858MOL0     C13160  10.869   6.495   5.935  0.0835  0.3126 -1.4738
  858MOL0     C13161  10.989   6.476   6.035 -0.4329 -0.6539  0.0919
  858MOL0     C13162  11.099   6.572   5.978 -0.1607 -0.5512  0.0938
  858MOL0     C13163  11.236   6.534   6.042 -0.8840 -0.4212 -0.4299
  858MOL0     C13164  11.351   6.619   5.988 -0.4527 -0.3868  0.6554
  858MOL0     C13165  11.462   6.628   6.092  0.2902  0.6588  0.2364
  858MOL0     C13166  11.596   6.656   6.013 -0.1873 -0.1843  0.0357
  858MOL0     C13167  11.723   6.649   6.108 -0.5881  0.0149  0.0604
  858MOL0    Cl13168  11.859   6.689   5.994 -0.0420 -0.4536 -0.2394
  858MOL0     C13169  10.707   6.580   5.735 -0.5026  0.5597 -0.2244
  858MOL0     C13170  10.660   6.649   5.623 -0.1416 -0.3417 -0.5278
  858MOL0     O13171  10.407   6.649   5.501 -0.1305  0.1290  0.0062
  858MOL0     C13172  10.275   6.750   5.256  0.5511  0.2113 -1.1502
  858MOL0     C13173  10.233   6.772   5.132  0.3925 -0.5399  0.1639
  858MOL0     N13174  10.058   6.718   4.368 -0.0172 -0.8133 -0.2346
  858MOL0     N13175   9.973   6.745   4.275 -0.2129 -0.0407 -0.6861
  858MOL0     C13176   8.909   6.068   4.287 -0.3629  0.7580  0.7057
  858MOL0     C13177   8.774   6.027   4.312 -0.4292 -0.5351  0.7258
  858MOL0     C13178   8.351   5.983   4.393  0.4316  0.7806  0.3039
  858MOL0     C13179   8.286   5.910   4.294 -0.5203 -0.1234  0.4600
  858MOL0     C13180   8.167   5.850   4.326  0.9381  0.8723 -0.0956
  858MOL0     C13181   8.097   5.866   4.445 -0.0449 -0.1474  0.5353
  858MOL0     O13182   7.978   5.800   4.452 -0.9003 -0.5289  0.2849
  858MOL0     C13183   7.900   5.805   4.575 -0.0937 -0.3921  0.6489
  858MOL0     C13184   7.949   5.713   4.682 -0.4564  0.2090 -0.7475
  858MOL0     C13185   7.917   5.558   4.654  0.5086 -0.0962  0.2169
  858MOL0     C13186   8.008   5.458   4.724  0.0895  0.9193 -0.1446
  858MOL0     C13187   7.992   5.463   4.870  0.0431 -0.1686 -0.3530
  858MOL0     C13188   7.981   5.457   4.988  0.3084  0.1788  1.2921
  858MOL0     C13189   8.165   5.941   4.541  0.5599 -0.8011 -1.2399
  858MOL0     C13190   8.285   5.998   4.519  0.1239 -0.1920  0.4002
  858MOL0     H13191   8.599   6.183   4.055 -1.4707 -0.8276  0.5560
  858MOL0     H13192   8.824   6.253   4.000 -1.3691 -3.3145 -3.5662
  858MOL0     H13193   9.071   6.333   4.324  0.4583  2.1545  0.3906
  858MOL0     H13194   9.039   6.407   4.172 -1.8276 -0.6396 -1.2022
  858MOL0     H13195   9.288   6.308   4.109  0.7282 -0.4140  0.6496
  858MOL0     H13196   9.300   6.261   4.276  0.2152  1.8965  2.5330
  858MOL0     H13197   9.265   6.465   4.375 -2.4532 -2.7921  0.4586
  858MOL0     H13198   9.211   6.544   4.225 -0.6322 -0.8630  0.8589
  858MOL0     H13199   9.505   6.446   4.281  0.9355  3.3277  0.6719
  858MOL0     H13200   9.456   6.509   4.128 -1.2012 -3.0044 -0.8927
  858MOL0     H13201   9.407   6.670   4.380 -3.1912 -0.1095 -1.3019
  858MOL0     H13202   9.383   6.729   4.226  1.7607  2.5350  0.6167
  858MOL0     H13203   9.634   6.692   4.165 -1.4142  0.4855 -0.1807
  858MOL0     H13204   9.671   6.628   4.316 -1.0211 -0.8835  0.8058
  858MOL0     H13205   9.555   6.908   4.277  1.2294  2.1253  0.6526
  858MOL0     H13206   9.618   6.834   4.424  0.7551 -1.7296 -0.5029
  858MOL0     H13207   9.771   6.986   4.282 -0.4462 -1.1220  0.7311
  858MOL0     H13208   9.760   6.866   4.149 -4.7557  0.4443  0.2699
  858MOL0     H13209   9.835   6.859   4.545  2.2227 -1.7647  2.9889
  858MOL0     H13210  10.157   6.650   4.618 -1.4522 -0.0875  1.0228
  858MOL0     H13211  10.064   6.780   4.692 -0.5138  1.1724 -1.3238
  858MOL0     H13212  10.180   6.968   4.586  2.4627  1.0410  0.9464
  858MOL0     H13213  10.287   6.845   4.498  1.2487 -3.8082  1.3063
  858MOL0     H13214  10.310   6.763   4.758  2.6798 -0.6764 -0.2176
  858MOL0     H13215  10.418   6.871   4.682 -0.7695  0.3333  1.0640
  858MOL0     H13216  10.205   7.032   4.775 -0.2000 -1.5282 -1.3971
  858MOL0     H13217  10.370   7.004   4.853  1.4351 -1.6590  1.5547
  858MOL0     H13218  10.476   6.982   5.031 -0.2841  0.6553  0.5388
  858MOL0     H13219  10.564   6.938   5.249  0.3430  1.3984 -2.5272
  858MOL0     H13220  10.601   6.959   5.731 -1.1878 -0.7723 -1.7771
  858MOL0     H13221  10.743   6.854   5.931 -0.6068  0.6176 -0.7527
  858MOL0     H13222  10.910   6.491   5.834  1.3195  2.4609 -1.1209
  858MOL0     H13223  10.803   6.409   5.946  2.3483 -1.3985 -0.3525
  858MOL0     H13224  11.023   6.373   6.034  0.5846 -0.3419 -1.5488
  858MOL0     H13225  10.963   6.491   6.140 -0.3188 -0.3664  0.0814
  858MOL0     H13226  11.075   6.675   6.009 -0.4570 -0.7146  0.4133
  858MOL0     H13227  11.135   6.569   5.875  3.4006  2.8640  0.9679
  858MOL0     H13228  11.236   6.547   6.151 -1.4065 -2.3892 -0.1515
  858MOL0     H13229  11.260   6.432   6.013  0.1369 -0.1826 -0.4679
  858MOL0     H13230  11.306   6.710   5.948 -0.6131  0.5684  2.8543
  858MOL0     H13231  11.400   6.570   5.903 -1.0623 -3.4615  1.9227
  858MOL0     H13232  11.464   6.532   6.145  0.5947  2.3732  3.6381
  858MOL0     H13233  11.443   6.710   6.162 -1.8065 -1.6345  2.6003
  858MOL0     H13234  11.612   6.591   5.927  0.7901 -0.8595  0.7091
  858MOL0     H13235  11.598   6.759   5.976  2.1397 -0.1825  0.0460
  858MOL0     H13236  11.738   6.553   6.158  0.3268 -1.2548 -2.4559
  858MOL0     H13237  11.725   6.726   6.185  1.3343  2.2143 -2.0333
  858MOL0     H13238  10.725   6.473   5.733 -0.3612  0.5703 -2.9650
  858MOL0     H13239  10.659   6.603   5.524 -0.2424  1.5550 -1.4668
  858MOL0     H13240  10.225   6.689   5.330  1.0213  0.6901 -0.4270
  858MOL0     H13241  10.132   6.741   5.108  0.2622 -0.0018 -0.0033
  858MOL0     H13242   9.002   6.043   4.338  1.9490 -0.6685 -3.6854
  858MOL0     H13243   8.761   5.967   4.402  1.7223  0.9372  2.1179
  858MOL0     H13244   8.318   5.889   4.192  0.8859 -1.3369  1.0988
  858MOL0     H13245   8.118   5.781   4.257 -0.3078 -0.3033  1.8618
  858MOL0     H13246   7.800   5.774   4.543  0.9836 -2.7683 -0.7188
  858MOL0     H13247   7.894   5.907   4.615 -0.6430  0.1445 -0.7195
  858MOL0     H13248   8.058   5.719   4.683 -0.5397  2.4446 -1.1296
  858MOL0     H13249   7.910   5.741   4.780 -0.1893  3.8686 -1.5781
  858MOL0     H13250   7.923   5.548   4.545  3.6787  1.6969  0.0871
  858MOL0     H13251   7.814   5.549   4.690  0.7783  2.9374  2.1326
  858MOL0     H13252   7.989   5.354   4.698 -0.8438  1.2452 -0.8004
  858MOL0     H13253   8.116   5.457   4.707  0.4060 -0.1515  1.6478
  858MOL0     H13254   7.955   5.442   5.091  0.2160 -0.3037  1.2039
  858MOL0     H13255   8.120   5.947   4.639 -0.4476 -0.3634 -1.7071
  858MOL0     H13256   8.342   6.057   4.590 -1.3576 -0.4382  1.8492
  859MOL0     O13257   2.231   1.998   1.220 -0.3775  0.0435 -0.2416
  859MOL0     C13258   2.292   2.043   1.122  0.4546 -0.6287  0.2551
  859MOL0     O13259   2.420   2.024   1.094 -0.1186  0.9391 -0.6591
  859MOL0     C13260   2.496   1.935   1.164  0.9524  0.0131  0.6468
  859MOL0     C13261   2.631   1.969   1.158 -0.2414 -0.8503  0.3851
  859MOL0     C13262   2.720   1.892   1.231 -1.3900  0.5182 -0.6539
  859MOL0     C13263   2.679   1.771   1.293  0.6469  0.6240  0.5691
  859MOL0     O13264   2.770   1.714   1.369  0.5953 -0.5406  0.4856
  859MOL0     C13265   2.741   1.587   1.439 -0.4046 -0.1876  0.2863
  859MOL0     C13266   2.644   1.586   1.558 -0.0889  0.6205  0.4656
  859MOL0     C13267   2.683   1.472   1.651  0.6042 -1.0380  0.1581
  859MOL0     C13268   2.570   1.460   1.764 -0.3784 -0.3630  0.6719
  859MOL0     C13269   2.622   1.377   1.882  0.3721  0.5116 -0.4887
  859MOL0     C13270   2.506   1.335   1.982 -0.2729 -0.5249 -0.3624
  859MOL0     C13271   2.577   1.260   2.107 -0.3198 -0.5710  0.3861
  859MOL0     C13272   2.487   1.251   2.224 -0.3853  0.0002  0.2919
  859MOL0     N13273   2.560   1.203   2.336 -0.2010 -0.3843  0.3163
  859MOL0     C13274   2.559   1.075   2.394 -0.9710  0.2459  0.7142
  859MOL0     C13275   2.655   1.076   2.488  0.2655 -0.1039  0.6227
  859MOL0     C13276   2.690   0.967   2.586  0.0106  0.6318 -0.3193
  859MOL0     C13277   2.734   0.837   2.507 -0.1199 -0.0673  0.0289
  859MOL0     C13278   2.752   0.723   2.595  0.2306  0.4493  0.1270
  859MOL0     C13279   2.867   0.736   2.704  0.4655  0.0121  0.0026
  859MOL0     O13280   2.874   0.616   2.789 -0.4851 -0.4458 -0.3329
  859MOL0     C13281   2.815   0.616   2.921 -0.7755 -0.3202 -0.6203
  859MOL0     C13282   2.859   0.522   3.018 -0.0272  0.2042  0.0975
  859MOL0     C13283   2.801   0.523   3.148 -0.7148  0.4325 -0.5681
  859MOL0     C13284   2.716   0.621   3.187  0.1252  0.8196 -0.6875
  859MOL0     C13285   2.644   0.612   3.316  0.4661  0.7947 -0.4985
  859MOL0     O13286   2.655   0.488   3.375 -0.1558  0.0402 -0.0714
  859MOL0     C13287   2.575   0.484   3.483 -0.2510 -0.4412  0.7802
  859MOL0     C13288   2.620   0.538   3.605 -0.6154  0.3680  0.2935
  859MOL0     C13289   2.547   0.533   3.723  0.5699  0.6211 -0.0204
  859MOL0     C13290   2.429   0.458   3.724  0.4297 -0.2357 -0.0794
  859MOL0     O13291   2.357   0.455   3.844  0.3463  0.5119  0.4120
  859MOL0     C13292   2.236   0.535   3.831  0.0698 -0.9331  0.3098
  859MOL0     C13293   2.262   0.683   3.858  0.0674  0.0831  0.6214
  859MOL0     C13294   2.137   0.760   3.863 -0.7951 -0.1725  0.1883
  859MOL0     C13295   2.093   0.815   3.728  0.2379  1.2618 -0.5738
  859MOL0     C13296   1.948   0.807   3.696  0.9298  0.3404  0.3762
  859MOL0     C13297   1.920   0.810   3.547  0.4716  1.7489  0.4858
  859MOL0     C13298   1.772   0.764   3.529  0.5457 -0.4200  0.1339
  859MOL0     C13299   1.738   0.748   3.377  0.0509 -0.2794 -0.4831
  859MOL0    Cl13300   1.668   0.885   3.299  0.5137  0.0289  0.1968
  859MOL0     C13301   2.385   0.392   3.600 -0.2283 -0.2067  0.2997
  859MOL0     C13302   2.462   0.407   3.480  0.2638  0.1945  0.4243
  859MOL0     O13303   2.561   0.699   3.339 -0.9195 -0.0636  0.8815
  859MOL0     C13304   2.668   0.715   3.089  0.5957  0.6451  0.8253
  859MOL0     C13305   2.715   0.713   2.963 -1.3182  0.0319  0.4567
  859MOL0     N13306   2.718   1.197   2.487  0.9092 -0.4379 -0.3119
  859MOL0     N13307   2.656   1.270   2.396  0.0157  0.4980 -0.2366
  859MOL0     C13308   2.554   1.719   1.276  0.1150  0.0480  0.2711
  859MOL0     C13309   2.461   1.807   1.212 -0.2483  1.7177  0.0956
  859MOL0     C13310   2.218   2.126   1.027 -0.2223  0.0122  0.9608
  859MOL0     C13311   2.081   2.128   1.029  1.3877  0.3414  0.4110
  859MOL0     C13312   2.002   2.215   0.946 -0.8604  0.8572  0.4405
  859MOL0     C13313   2.069   2.302   0.863 -0.1661 -0.2483  0.1727
  859MOL0     O13314   2.005   2.403   0.795 -0.4696  0.3651 -0.1521
  859MOL0     C13315   1.880   2.372   0.743  0.8419 -0.0281 -0.0426
  859MOL0     C13316   1.769   2.445   0.827  0.5139 -0.4528 -0.1335
  859MOL0     C13317   1.622   2.408   0.787 -1.4306 -0.6246  0.1593
  859MOL0     C13318   1.532   2.484   0.888  0.1929 -0.8070  0.5918
  859MOL0     C13319   1.395   2.443   0.872 -0.8928  0.2311  0.7937
  859MOL0     C13320   1.276   2.429   0.848 -0.4316  1.0284  0.4604
  859MOL0     C13321   2.207   2.298   0.857  0.2545  0.0119  0.2061
  859MOL0     C13322   2.280   2.214   0.939  0.3015  0.5920  1.3257
  859MOL0     H13323   2.653   2.066   1.116 -0.0425 -0.5667  1.1366
  859MOL0     H13324   2.826   1.915   1.227 -0.9575 -1.4397 -1.2761
  859MOL0     H13325   2.837   1.571   1.489 -0.0160  1.3882  0.0910
  859MOL0     H13326   2.730   1.506   1.366  3.1412 -0.9284  0.3782
  859MOL0     H13327   2.548   1.575   1.508 -1.4205  1.5771  2.6893
  859MOL0     H13328   2.658   1.675   1.620 -0.6113 -1.1668  3.3417
  859MOL0     H13329   2.774   1.510   1.699 -0.4008  0.5684  0.9017
  859MOL0     H13330   2.698   1.374   1.605  2.2928 -0.9261  0.4206
  859MOL0     H13331   2.542   1.557   1.806 -2.2802 -1.1174  1.2617
  859MOL0     H13332   2.479   1.423   1.716  1.0941 -3.0200 -0.2861
  859MOL0     H13333   2.703   1.431   1.933 -0.8679 -1.3903  3.8952
  859MOL0     H13334   2.684   1.289   1.864  0.0119  0.4779 -1.6685
  859MOL0     H13335   2.431   1.266   1.941 -0.8209 -0.0883 -0.1193
  859MOL0     H13336   2.447   1.420   2.018  1.3537  0.3707  0.2977
  859MOL0     H13337   2.610   1.159   2.082 -1.6776 -0.6136 -1.4391
  859MOL0     H13338   2.666   1.317   2.133  0.0966 -2.1787  2.8325
  859MOL0     H13339   2.410   1.181   2.190  1.2260 -0.3406 -3.0967
  859MOL0     H13340   2.432   1.343   2.243  1.4311  1.7747 -2.4595
  859MOL0     H13341   2.491   0.992   2.374 -3.0952  2.2453 -1.0024
  859MOL0     H13342   2.619   0.954   2.668  2.8150  4.3879  3.1054
  859MOL0     H13343   2.779   0.990   2.645  0.5983 -2.4237  0.1203
  859MOL0     H13344   2.813   0.863   2.436  0.3108 -0.7876  0.2311
  859MOL0     H13345   2.652   0.799   2.446 -1.5548 -0.2191  1.9715
  859MOL0     H13346   2.652   0.701   2.634 -0.3840 -0.8704 -2.0305
  859MOL0     H13347   2.785   0.636   2.538 -4.2824  0.0634 -2.3523
  859MOL0     H13348   2.855   0.828   2.762 -1.4082  1.8948 -3.0867
  859MOL0     H13349   2.959   0.762   2.650  0.5037 -2.0074 -1.0387
  859MOL0     H13350   2.937   0.453   2.987  1.0982  0.6321  1.8381
  859MOL0     H13351   2.837   0.445   3.215  1.1403  0.1039 -1.8612
  859MOL0     H13352   2.718   0.586   3.601  0.7788 -2.2284  0.8749
  859MOL0     H13353   2.587   0.568   3.818 -0.7300  0.6559  0.5453
  859MOL0     H13354   2.160   0.505   3.903  2.2976 -1.0399  2.7939
  859MOL0     H13355   2.190   0.516   3.734 -6.5357 -2.2671  3.2085
  859MOL0     H13356   2.336   0.730   3.793 -1.4978  1.8962  0.0499
  859MOL0     H13357   2.312   0.697   3.955  2.9946 -0.1618 -0.7637
  859MOL0     H13358   2.159   0.848   3.924  1.9345 -0.4667 -0.2607
  859MOL0     H13359   2.059   0.701   3.910 -0.1744  1.0850  2.9979
  859MOL0     H13360   2.132   0.917   3.717  0.0112  1.5287  0.8439
  859MOL0     H13361   2.141   0.743   3.661 -1.5735 -0.4687 -0.1093
  859MOL0     H13362   1.888   0.882   3.750 -0.6069 -0.4421 -0.1791
  859MOL0     H13363   1.898   0.717   3.732 -0.5542  0.1211 -2.0106
  859MOL0     H13364   1.980   0.731   3.502 -2.6010 -0.9410  0.7287
  859MOL0     H13365   1.941   0.913   3.517 -0.2186  1.8886  0.4523
  859MOL0     H13366   1.762   0.663   3.569 -0.3361 -1.2034 -1.9163
  859MOL0     H13367   1.697   0.830   3.575  2.7427  0.3955  2.8784
  859MOL0     H13368   1.664   0.667   3.375 -1.4693  0.7145  3.8441
  859MOL0     H13369   1.831   0.722   3.326  1.9950  2.8421  1.1204
  859MOL0     H13370   2.299   0.327   3.605  0.8389 -1.7831 -0.9365
  859MOL0     H13371   2.426   0.366   3.386  1.5549  0.3270 -0.1521
  859MOL0     H13372   2.590   0.787   3.109 -0.4742  0.6621 -2.7043
  859MOL0     H13373   2.678   0.792   2.898  2.8548  0.8021 -1.3170
  859MOL0     H13374   2.521   1.623   1.313  1.8730  0.2468  2.5451
  859MOL0     H13375   2.363   1.762   1.212  0.6914 -0.4950  1.7876
  859MOL0     H13376   2.028   2.069   1.104 -0.3368 -2.5507 -2.8260
  859MOL0     H13377   1.896   2.217   0.972 -0.6056  2.0267  1.5038
  859MOL0     H13378   1.849   2.268   0.731 -1.3987  0.2314  2.6230
  859MOL0     H13379   1.894   2.425   0.648  0.3572  1.0101  0.4606
  859MOL0     H13380   1.779   2.406   0.928  2.2163 -0.5149 -0.2832
  859MOL0     H13381   1.785   2.553   0.830 -0.7027 -0.2747  0.3047
  859MOL0     H13382   1.611   2.299   0.793 -1.0170 -0.9652 -3.1438
  859MOL0     H13383   1.602   2.442   0.685  0.7627 -0.9561 -0.4391
  859MOL0     H13384   1.571   2.466   0.989  5.5277 -1.0598 -1.2087
  859MOL0     H13385   1.548   2.590   0.868  2.3959 -1.4216 -1.2334
  859MOL0     H13386   1.170   2.419   0.833 -0.6426  2.6471  0.6855
  859MOL0     H13387   2.258   2.373   0.797  0.8389  1.3824  2.2889
  859MOL0     H13388   2.388   2.209   0.934  0.3589  0.3040  2.5567
  860MOL0     O13389  10.108   8.671   4.154 -0.3122  0.5969 -0.1641
  860MOL0     C13390  10.005   8.728   4.127 -0.6512 -0.9917 -0.8445
  860MOL0     O13391   9.934   8.802   4.219 -0.0504  0.6489  0.6059
  860MOL0     C13392   9.982   8.821   4.348 -0.7581  0.4224  0.8417
  860MOL0     C13393   9.896   8.827   4.449  0.6363  0.1837  0.3001
  860MOL0     C13394   9.924   8.835   4.590 -0.5990  0.4132 -0.3650
  860MOL0     C13395  10.061   8.838   4.620 -0.5704 -0.5874  0.6325
  860MOL0     O13396  10.080   8.852   4.755  0.1277  0.3109 -0.2793
  860MOL0     C13397  10.144   8.969   4.804 -1.1313  0.2640  0.7159
  860MOL0     C13398  10.132   8.999   4.959 -0.1645 -0.7004  0.0828
  860MOL0     C13399   9.988   8.958   5.015 -0.6001  0.0514  0.2461
  860MOL0     C13400   9.975   8.806   5.036  0.1256  0.2541 -0.3536
  860MOL0     C13401   9.840   8.775   5.103 -0.1165 -0.2847 -0.3414
  860MOL0     C13402   9.846   8.639   5.185  0.4958  0.0230  0.7205
  860MOL0     C13403   9.720   8.597   5.256  0.1836  0.6282  0.3458
  860MOL0     C13404   9.765   8.495   5.365 -0.4883 -0.0735 -0.2363
  860MOL0     N13405   9.644   8.427   5.414  0.1724  0.3612  0.2256
  860MOL0     C13406   9.542   8.490   5.470 -0.0634 -0.4707  0.3873
  860MOL0     C13407   9.470   8.392   5.540 -0.7516  0.1747 -0.4023
  860MOL0     C13408   9.352   8.434   5.634 -0.4404  0.8191 -0.3099
  860MOL0     C13409   9.220   8.358   5.599 -0.3929  0.7292  0.2031
  860MOL0     C13410   9.171   8.410   5.466 -0.7047  0.2501 -0.4202
  860MOL0     C13411   9.060   8.313   5.424  0.3488  0.1701 -0.0472
  860MOL0     O13412   8.998   8.361   5.299 -0.4031 -0.0215  0.6128
  860MOL0     C13413   8.903   8.296   5.234  0.1598  0.0682 -0.4642
  860MOL0     C13414   8.838   8.353   5.129 -0.7782 -0.2253  0.4931
  860MOL0     C13415   8.747   8.276   5.058  0.2433  1.0273  0.9663
  860MOL0     C13416   8.714   8.140   5.097  0.5449 -0.7291  0.4746
  860MOL0     C13417   8.611   8.061   5.025  0.3141 -0.5673  0.4923
  860MOL0     O13418   8.561   7.945   5.075 -0.1043  0.5224 -0.3572
  860MOL0     C13419   8.466   7.876   5.012  0.3858  0.1542  0.5431
  860MOL0     C13420   8.487   7.740   4.991  0.0378  0.9075  0.1030
  860MOL0     C13421   8.384   7.665   4.923 -0.0622  0.7848 -0.3785
  860MOL0     C13422   8.267   7.728   4.874  0.5881  0.0920  0.5096
  860MOL0     O13423   8.167   7.649   4.813  0.1835  0.5953  0.2513
  860MOL0     C13424   8.055   7.604   4.896 -0.7008 -1.2264 -0.6070
  860MOL0     C13425   7.999   7.460   4.856  1.2988  0.6461 -0.5333
  860MOL0     C13426   7.949   7.445   4.706  0.0070  0.9117 -0.1973
  860MOL0     C13427   7.908   7.309   4.664 -0.2696 -0.2485 -0.1130
  860MOL0     C13428   8.008   7.233   4.576  0.2261 -0.3721 -0.0593
  860MOL0     C13429   8.118   7.194   4.666  0.2593  0.3776 -0.1219
  860MOL0     C13430   8.220   7.111   4.577  0.9563  0.7215 -0.6036
  860MOL0     C13431   8.325   7.201   4.514  0.4467 -0.5295 -1.3578
  860MOL0    Cl13432   8.424   7.294   4.639  0.0703  0.5326 -0.8579
  860MOL0     C13433   8.249   7.865   4.896  0.6866  0.2150  0.7138
  860MOL0     C13434   8.344   7.938   4.963  0.5303  0.4712 -0.5414
  860MOL0     O13435   8.584   8.107   4.914 -0.1158 -0.2159  0.5343
  860MOL0     C13436   8.785   8.084   5.202 -0.2298  0.0387 -0.1105
  860MOL0     C13437   8.873   8.159   5.272  0.2147 -0.4785  0.2660
  860MOL0     N13438   9.535   8.281   5.531 -0.4817  0.7176 -0.5844
  860MOL0     N13439   9.640   8.301   5.458 -0.6227 -0.5812 -0.8066
  860MOL0     C13440  10.155   8.844   4.518 -0.7007  0.4456 -0.0425
  860MOL0     C13441  10.123   8.835   4.383 -0.3490  0.4052  0.8952
  860MOL0     C13442   9.948   8.709   3.996 -0.2815 -0.5661 -0.1933
  860MOL0     C13443   9.993   8.590   3.920 -0.3577 -0.7100  0.0851
  860MOL0     C13444   9.962   8.581   3.783 -0.7550 -0.4188 -0.6236
  860MOL0     C13445   9.879   8.666   3.718  0.4457 -0.7377  1.2972
  860MOL0     O13446   9.822   8.621   3.594 -0.6882 -0.1513  0.5794
  860MOL0     C13447   9.744   8.710   3.511 -0.1418  1.5493 -0.5909
  860MOL0     C13448   9.708   8.634   3.375  0.9341  0.9151  0.8093
  860MOL0     C13449   9.665   8.733   3.263 -0.8927  0.5144  0.2302
  860MOL0     C13450   9.585   8.664   3.152  0.0848 -0.4939 -0.6024
  860MOL0     C13451   9.660   8.577   3.061 -0.8237 -0.0589 -0.7837
  860MOL0     C13452   9.717   8.492   2.990 -0.2609 -0.4018  0.0763
  860MOL0     C13453   9.821   8.765   3.796 -0.6211 -0.5298 -0.6201
  860MOL0     C13454   9.861   8.795   3.927 -0.3311  0.1490 -0.7040
  860MOL0     H13455   9.794   8.832   4.412  0.3553  2.4835  1.2234
  860MOL0     H13456   9.850   8.832   4.670 -0.1717 -0.2493  0.0078
  860MOL0     H13457  10.093   9.054   4.759 -2.7114 -1.1694 -0.3191
  860MOL0     H13458  10.251   8.978   4.781 -1.6547  1.6906 -1.4546
  860MOL0     H13459  10.158   9.104   4.978  0.4937 -1.0547  1.2406
  860MOL0     H13460  10.208   8.938   5.008  0.0206 -0.7410 -0.2468
  860MOL0     H13461   9.900   8.997   4.965 -1.9250 -2.6885  0.2712
  860MOL0     H13462   9.994   8.992   5.119  1.9147 -1.4427  0.6790
  860MOL0     H13463   9.982   8.742   4.947  0.5385  0.5441 -0.5306
  860MOL0     H13464  10.062   8.774   5.095  0.4392  3.8445  1.3975
  860MOL0     H13465   9.755   8.782   5.035 -0.6030 -2.9962 -0.1329
  860MOL0     H13466   9.826   8.848   5.183 -2.7500 -0.4575 -0.5460
  860MOL0     H13467   9.927   8.641   5.259 -1.9063 -3.0796  3.7491
  860MOL0     H13468   9.875   8.561   5.114 -0.5227  0.4732 -0.2050
  860MOL0     H13469   9.681   8.693   5.291  3.4581  2.4288 -0.5618
  860MOL0     H13470   9.657   8.541   5.187  0.2440  0.9764  0.0080
  860MOL0     H13471   9.807   8.559   5.443 -0.5127  2.9730 -2.5229
  860MOL0     H13472   9.842   8.428   5.327  2.1368  2.0887  1.0013
  860MOL0     H13473   9.512   8.591   5.445 -1.5022 -1.0630 -0.4029
  860MOL0     H13474   9.339   8.542   5.621 -1.3876  0.6839 -0.5713
  860MOL0     H13475   9.364   8.406   5.739  0.8193  0.5146 -0.5164
  860MOL0     H13476   9.143   8.358   5.677  0.5975  1.0117  1.1923
  860MOL0     H13477   9.244   8.253   5.582 -1.7023 -0.1829  3.3040
  860MOL0     H13478   9.143   8.514   5.484  0.9806  0.4077  1.7277
  860MOL0     H13479   9.252   8.407   5.393  2.4761 -3.7025  2.7497
  860MOL0     H13480   8.978   8.314   5.496  1.6695 -0.3471  1.5364
  860MOL0     H13481   9.094   8.209   5.423 -0.1841 -0.0065  0.2087
  860MOL0     H13482   8.869   8.455   5.105  1.2197 -0.3439  2.2629
  860MOL0     H13483   8.697   8.315   4.969 -0.6952 -3.4294 -0.7071
  860MOL0     H13484   8.574   7.691   5.035  0.7493  0.9127 -1.2557
  860MOL0     H13485   8.407   7.560   4.907  1.3165  1.5565 -4.4658
  860MOL0     H13486   7.984   7.686   4.894  1.6376  0.8962 -2.2718
  860MOL0     H13487   8.082   7.594   5.002 -1.5660  1.2436 -0.0914
  860MOL0     H13488   7.915   7.437   4.922  0.7405  0.2996 -1.3572
  860MOL0     H13489   8.086   7.397   4.879  2.8633  2.3068 -1.6055
  860MOL0     H13490   8.043   7.467   4.655  0.0929 -0.3491 -0.6140
  860MOL0     H13491   7.881   7.526   4.678 -1.5257 -0.8611 -1.9088
  860MOL0     H13492   7.883   7.268   4.762  1.4529  0.2744  0.5848
  860MOL0     H13493   7.815   7.302   4.608 -1.3795  1.7019  1.3513
  860MOL0     H13494   8.043   7.298   4.495  0.3358 -1.9538 -1.3271
  860MOL0     H13495   7.966   7.137   4.546  2.2453 -1.0954 -0.7131
  860MOL0     H13496   8.075   7.134   4.747 -0.4053 -1.1113 -1.5275
  860MOL0     H13497   8.166   7.282   4.711  2.2804 -1.0390  0.6475
  860MOL0     H13498   8.275   7.048   4.647 -0.7998 -1.5327 -1.1364
  860MOL0     H13499   8.164   7.048   4.508  4.0853 -1.7015 -1.1221
  860MOL0     H13500   8.274   7.280   4.459  1.2042  0.2480 -0.9621
  860MOL0     H13501   8.389   7.134   4.455  0.8662 -1.5005  0.1252
  860MOL0     H13502   8.155   7.913   4.873  0.7253  4.3073  6.6015
  860MOL0     H13503   8.342   8.046   4.976 -4.5035  0.7330 -1.5142
  860MOL0     H13504   8.753   7.990   5.245  0.1839  0.4710  1.2014
  860MOL0     H13505   8.932   8.111   5.350  0.5555  0.7707  0.7937
  860MOL0     H13506  10.257   8.848   4.555 -0.3552 -1.4160 -0.6769
  860MOL0     H13507  10.196   8.837   4.303  1.2126 -3.1732  1.9868
  860MOL0     H13508  10.052   8.522   3.980  0.3534 -0.0191  0.1806
  860MOL0     H13509   9.984   8.488   3.732 -3.7056 -0.9933 -1.0205
  860MOL0     H13510   9.786   8.810   3.498 -1.5495  2.2560  0.0696
  860MOL0     H13511   9.647   8.739   3.554  0.3455 -0.4920  2.1837
  860MOL0     H13512   9.790   8.575   3.334  1.3756 -0.0158  2.8869
  860MOL0     H13513   9.620   8.574   3.399  0.5266  1.9247  1.9396
  860MOL0     H13514   9.755   8.769   3.212  0.1201 -0.3733  1.3541
  860MOL0     H13515   9.606   8.818   3.298 -1.7986 -0.0337  0.0683
  860MOL0     H13516   9.512   8.602   3.206  1.5152 -2.0298 -0.3478
  860MOL0     H13517   9.539   8.742   3.092 -0.6879  1.2808  2.1018
  860MOL0     H13518   9.761   8.400   2.956 -0.3652 -0.6971  0.7208
  860MOL0     H13519   9.750   8.827   3.742  1.0014 -1.0392 -3.5046
  860MOL0     H13520   9.834   8.891   3.972 -0.6854  0.1073 -0.8253
  861MOL0     O13521   8.814  10.039  10.293 -0.1528  0.4722  0.2246
  861MOL0     C13522   8.825   9.916  10.277 -0.3781  0.2350  0.5940
  861MOL0     O13523   8.774   9.819  10.358  0.0213  0.8593 -0.5153
  861MOL0     C13524   8.688   9.841  10.465 -0.7370 -0.5207 -0.1795
  861MOL0     C13525   8.594   9.939  10.471 -0.9015  0.3793  0.6718
  861MOL0     C13526   8.496   9.953  10.572 -0.8621 -0.3272  0.2144
  861MOL0     C13527   8.484   9.856  10.672  0.1005 -0.3444  0.5752
  861MOL0     O13528   8.391   9.837  10.769  0.3297 -0.9239 -0.2217
  861MOL0     C13529   8.275   9.925  10.775 -0.6486  0.2446  0.1388
  861MOL0     C13530   8.195   9.880  10.895  0.7514 -0.3822 -0.1806
  861MOL0     C13531   8.049   9.919  10.894  0.1406 -0.1947 -0.1420
  861MOL0     C13532   7.957   9.832  10.986 -0.1147 -0.2066  0.4772
  861MOL0     C13533   7.832   9.920  11.031 -0.3204  0.1718 -0.0262
  861MOL0     C13534   7.717   9.834  11.085 -0.4594 -0.1970  0.1516
  861MOL0     C13535   7.694   9.710  10.998  0.1816 -0.3781  1.1110
  861MOL0     C13536   7.558   9.647  11.031  0.5471  0.4035 -0.1050
  861MOL0     N13537   7.544   9.523  10.963 -0.4471 -0.1023  0.3020
  861MOL0     C13538   7.569   9.400  11.021  0.4917 -1.6093 -0.0230
  861MOL0     C13539   7.516   9.306  10.932  0.6052 -0.5655  0.0500
  861MOL0     C13540   7.496   9.167  10.979  0.5666 -0.4670 -0.7122
  861MOL0     C13541   7.542   9.047  10.905 -0.1557 -0.1470  0.5576
  861MOL0     C13542   7.693   9.070  10.854  0.4156 -0.4028  0.6172
  861MOL0     C13543   7.732   8.963  10.757 -1.1297 -0.6084  0.1841
  861MOL0     O13544   7.834   8.997  10.664  0.5411  0.2902  0.5159
  861MOL0     C13545   7.971   8.987  10.696  0.3821 -0.2488  0.1090
  861MOL0     C13546   8.059   9.009  10.596  0.0811 -0.8631  0.2781
  861MOL0     C13547   8.203   9.005  10.607  0.6053  0.0166 -0.2449
  861MOL0     C13548   8.250   8.994  10.738  1.0174 -0.7735 -0.0942
  861MOL0     C13549   8.394   8.991  10.750 -0.5999 -0.2963  0.4393
  861MOL0     O13550   8.473   8.992  10.636  0.9196 -0.3576 -0.8212
  861MOL0     C13551   8.598   9.045  10.633 -0.1670 -0.3024  0.1826
  861MOL0     C13552   8.672   9.029  10.513  0.9441  0.3742  0.3321
  861MOL0     C13553   8.793   9.087  10.487 -1.1950 -0.0381 -0.5613
  861MOL0     C13554   8.847   9.181  10.582 -0.0247  0.5342 -0.0049
  861MOL0     O13555   8.963   9.244  10.544  0.1966  0.1378 -0.0006
  861MOL0     C13556   8.987   9.378  10.588 -0.0802  0.5671 -0.8360
  861MOL0     C13557   9.083   9.454  10.503 -0.3989  0.0816  0.5869
  861MOL0     C13558   9.108   9.594  10.542 -0.2612  0.7034  0.1806
  861MOL0     C13559   9.168   9.651  10.419  0.4438  0.2519  0.4240
  861MOL0     C13560   9.231   9.783  10.458 -0.1835 -0.0872 -0.4333
  861MOL0     C13561   9.294   9.836  10.326 -0.4715 -0.8234  0.8266
  861MOL0     C13562   9.349   9.983  10.346 -0.7821 -0.6069 -0.4815
  861MOL0     C13563   9.243  10.088  10.372 -1.0317  0.0700  0.6756
  861MOL0    Cl13564   9.185  10.136  10.215 -0.2973 -0.1965  0.4285
  861MOL0     C13565   8.780   9.200  10.702  0.7504 -0.8613  0.5812
  861MOL0     C13566   8.654   9.130  10.725 -0.8399  0.0356 -0.0137
  861MOL0     O13567   8.429   9.016  10.865 -0.4586 -0.7488  0.0128
  861MOL0     C13568   8.163   8.976  10.843 -0.0734  0.5424  0.4347
  861MOL0     C13569   8.026   8.974  10.820  0.3731 -0.0417  0.4847
  861MOL0     N13570   7.463   9.382  10.831  0.0763  0.6446  1.0158
  861MOL0     N13571   7.473   9.504  10.846 -0.1083  0.0192 -0.2575
  861MOL0     C13572   8.575   9.752  10.667  0.4491 -0.7875 -0.0164
  861MOL0     C13573   8.673   9.745  10.570 -0.1182  0.1805 -1.1970
  861MOL0     C13574   8.912   9.866  10.161 -0.2946  0.1799 -0.2220
  861MOL0     C13575   8.975   9.948  10.068  0.1727 -0.3325 -0.7526
  861MOL0     C13576   9.042   9.892   9.966  0.1840  0.5466 -0.3175
  861MOL0     C13577   9.073   9.756   9.949 -1.1520 -0.1477  0.3576
  861MOL0     O13578   9.146   9.697   9.839 -0.0369 -0.5888  0.2498
  861MOL0     C13579   9.249   9.769   9.777  0.5112  0.3708  0.0735
  861MOL0     C13580   9.330   9.680   9.688  0.6153 -0.0275 -0.1282
  861MOL0     C13581   9.429   9.600   9.758 -0.5292  0.0988 -0.2748
  861MOL0     C13582   9.363   9.506   9.856 -0.4530  0.1684  0.1282
  861MOL0     C13583   9.452   9.394   9.880 -0.9741  0.8064  0.1906
  861MOL0     C13584   9.541   9.311   9.909  0.1190 -0.3432  0.3720
  861MOL0     C13585   9.016   9.671  10.048 -0.2584  0.1373  0.2026
  861MOL0     C13586   8.931   9.725  10.147  0.7009 -0.1260 -0.2090
  861MOL0     H13587   8.606  10.016  10.395 -0.1613 -0.3234  0.0674
  861MOL0     H13588   8.430  10.039  10.567  0.9950  1.2071  0.7412
  861MOL0     H13589   8.198   9.914  10.698 -0.5167  0.2995 -0.0015
  861MOL0     H13590   8.305  10.030  10.772  1.1144 -0.2552 -0.9995
  861MOL0     H13591   8.255   9.908  10.982  1.3846  4.1299 -1.7849
  861MOL0     H13592   8.204   9.772  10.881  0.0840 -0.2619 -1.7718
  861MOL0     H13593   7.998   9.929  10.798 -2.2090 -1.0002  0.9307
  861MOL0     H13594   8.054  10.023  10.927 -1.3649  0.0648 -0.6396
  861MOL0     H13595   7.935   9.749  10.917 -1.1225  1.6851 -1.6344
  861MOL0     H13596   8.006   9.791  11.074  0.1408 -0.4991  0.2007
  861MOL0     H13597   7.793   9.970  10.942 -0.8279 -1.5101 -0.7940
  861MOL0     H13598   7.871   9.988  11.107  1.7353 -1.2032  0.2339
  861MOL0     H13599   7.628   9.898  11.081 -0.4605 -0.2376 -2.2556
  861MOL0     H13600   7.758   9.813  11.184  2.3267  0.9071 -0.6409
  861MOL0     H13601   7.695   9.752  10.897  1.8661 -0.2264  1.1499
  861MOL0     H13602   7.764   9.625  11.000 -0.5394 -1.0124  0.2259
  861MOL0     H13603   7.480   9.720  11.005 -0.5742 -0.5450  0.5125
  861MOL0     H13604   7.556   9.638  11.140 -0.7073  4.1657  0.3419
  861MOL0     H13605   7.607   9.381  11.120 -2.2549  3.2779  2.3274
  861MOL0     H13606   7.388   9.151  10.981  0.1179  2.1828  0.0158
  861MOL0     H13607   7.533   9.148  11.080 -1.3166  1.1567  0.3686
  861MOL0     H13608   7.474   9.026  10.822  0.9435 -0.2831 -0.3314
  861MOL0     H13609   7.538   8.971  10.984  0.6344 -0.6925  0.0919
  861MOL0     H13610   7.708   9.167  10.806  2.8438 -1.0079  0.0294
  861MOL0     H13611   7.760   9.073  10.940 -0.1779  1.6741  1.0715
  861MOL0     H13612   7.636   8.944  10.708 -1.7143  0.8733  0.6986
  861MOL0     H13613   7.736   8.872  10.819 -4.7747 -0.2064  1.2941
  861MOL0     H13614   8.012   9.021  10.499 -0.4743  0.7516  0.7192
  861MOL0     H13615   8.264   9.013  10.517  2.7555  0.5294  1.1945
  861MOL0     H13616   8.632   8.954  10.446  0.4121  0.9079  0.0420
  861MOL0     H13617   8.856   9.055  10.404 -1.0640 -2.9222  0.5204
  861MOL0     H13618   9.027   9.384  10.690 -1.0316 -0.5790 -0.3733
  861MOL0     H13619   8.896   9.438  10.582  0.4023  1.4368  0.1254
  861MOL0     H13620   9.034   9.452  10.405  1.4049  1.4898 -0.4380
  861MOL0     H13621   9.176   9.400  10.482 -1.0549  0.2236 -3.6788
  861MOL0     H13622   9.177   9.589  10.626  3.3914 -1.8152 -2.6407
  861MOL0     H13623   9.007   9.632  10.560 -1.7175 -2.0773 -1.3033
  861MOL0     H13624   9.249   9.584  10.388 -1.4194 -1.5452 -0.8405
  861MOL0     H13625   9.084   9.668  10.352  1.3989  0.2071 -0.8101
  861MOL0     H13626   9.295   9.779  10.547 -0.8722 -1.3345  0.0270
  861MOL0     H13627   9.148   9.850  10.484 -0.5191 -0.0171 -1.6333
  861MOL0     H13628   9.226   9.856  10.242 -0.2283  0.1876  0.8547
  861MOL0     H13629   9.372   9.768  10.292 -0.0967 -1.9339  3.6922
  861MOL0     H13630   9.418   9.981  10.431 -0.7778  1.6795 -0.3709
  861MOL0     H13631   9.399  10.012  10.253 -1.9005  2.4318 -0.2514
  861MOL0     H13632   9.293  10.177  10.412 -3.4769  2.4398 -1.1677
  861MOL0     H13633   9.171  10.051  10.446 -1.4668 -1.0508 -0.2772
  861MOL0     H13634   8.822   9.271  10.772 -0.5855  0.2530  0.2906
  861MOL0     H13635   8.606   9.161  10.817 -0.6456  4.0091 -1.0737
  861MOL0     H13636   8.201   8.946  10.940 -0.4850  2.8571  1.3733
  861MOL0     H13637   7.956   8.950  10.899 -1.1569 -2.0245 -1.3660
  861MOL0     H13638   8.584   9.683  10.750  0.9457  0.3190  0.8812
  861MOL0     H13639   8.739   9.659  10.568  0.0871  0.3164 -0.5625
  861MOL0     H13640   8.950  10.053  10.074 -0.3530 -0.4931  0.0790
  861MOL0     H13641   9.078   9.958   9.888  2.6711 -2.3382 -1.8133
  861MOL0     H13642   9.313   9.819   9.851  1.0311 -0.1590 -0.0078
  861MOL0     H13643   9.215   9.850   9.712  2.4259  2.2056  1.1954
  861MOL0     H13644   9.260   9.609   9.643 -1.7162  1.2904  1.2061
  861MOL0     H13645   9.391   9.739   9.618  0.7506  1.1406  0.9387
  861MOL0     H13646   9.501   9.670   9.800  1.4440 -1.3080 -1.1315
  861MOL0     H13647   9.485   9.532   9.693 -0.0127  0.0152  0.2490
  861MOL0     H13648   9.343   9.553   9.953 -3.6788 -2.8737  1.1639
  861MOL0     H13649   9.272   9.459   9.816 -1.7707  2.5710  0.0951
  861MOL0     H13650   9.605   9.227   9.926  2.5751  0.9326 -1.8143
  861MOL0     H13651   9.022   9.563  10.035 -0.5345  0.2418 -0.9018
  861MOL0     H13652   8.870   9.649  10.195  0.7341 -1.3564 -2.0022
  862MOL0     O13653  10.662   0.706   0.389  0.2121  0.7796 -0.6643
  862MOL0     C13654  10.661   0.591   0.336  0.5088 -0.4035  0.3491
  862MOL0     O13655  10.777   0.529   0.296  0.6287 -0.3439  0.7020
  862MOL0     C13656  10.890   0.589   0.349  0.4320  0.1767 -0.4765
  862MOL0     C13657  10.995   0.610   0.266 -0.4459  0.3376  0.0748
  862MOL0     C13658  11.115   0.660   0.315 -1.0928  1.2296 -0.7348
  862MOL0     C13659  11.134   0.687   0.455 -0.3663 -0.0934 -0.1071
  862MOL0     O13660  11.261   0.729   0.492  0.0684  0.1374 -0.8140
  862MOL0     C13661  11.298   0.728   0.635  0.0738  0.3586 -0.4912
  862MOL0     C13662  11.267   0.864   0.705  0.5241  0.4610 -1.0624
  862MOL0     C13663  11.342   0.888   0.833 -0.2052  0.6285 -0.1192
  862MOL0     C13664  11.301   1.014   0.913  1.1510 -0.8038  0.5474
  862MOL0     C13665  11.420   1.071   0.996  0.2597 -0.7045 -0.2195
  862MOL0     C13666  11.360   1.162   1.102  0.1090 -0.9288 -0.6477
  862MOL0     C13667  11.460   1.269   1.160  0.2726  0.3790 -0.8578
  862MOL0     C13668  11.577   1.202   1.231  0.3486 -0.1666  0.5218
  862MOL0     N13669  11.544   1.117   1.349 -0.5572  0.5544  0.4568
  862MOL0     C13670  11.531   1.142   1.486  0.9115  0.4167 -0.2700
  862MOL0     C13671  11.472   1.030   1.538  0.5777 -0.2256  0.7054
  862MOL0     C13672  11.427   1.011   1.678  0.2271  0.5080 -0.2630
  862MOL0     C13673  11.539   0.969   1.772 -0.0470  1.0666  0.1198
  862MOL0     C13674  11.598   0.825   1.724  0.6412  0.7238  0.1371
  862MOL0     C13675  11.490   0.715   1.697 -0.2883 -0.6543  0.3374
  862MOL0     O13676  11.440   0.657   1.819 -0.0941 -0.4411  0.5367
  862MOL0     C13677  11.428   0.519   1.831  0.1758 -0.6043  0.5069
  862MOL0     C13678  11.408   0.478   1.960 -0.5578  0.6333 -0.4581
  862MOL0     C13679  11.373   0.347   1.992  0.3974  0.5508 -0.2576
  862MOL0     C13680  11.390   0.252   1.894  0.3679  0.2512  0.7468
  862MOL0     C13681  11.356   0.107   1.922 -0.3940 -0.3405 -0.0493
  862MOL0     O13682  11.388   0.027   1.816  0.0771 -0.0847 -0.2071
  862MOL0     C13683  11.354  -0.101   1.817  0.7330  0.1425  0.5682
  862MOL0     C13684  11.227  -0.147   1.852 -0.1814  0.2781  0.3982
  862MOL0     C13685  11.202  -0.280   1.860  0.1569  0.8048  1.1187
  862MOL0     C13686  11.303  -0.373   1.835  0.3542  0.5046 -0.8638
  862MOL0     O13687  11.281  -0.513   1.828 -0.3095  0.7489  0.3525
  862MOL0     C13688  11.153  -0.563   1.873  0.0220  0.5188  0.0944
  862MOL0     C13689  11.151  -0.715   1.863 -0.9246  0.8027 -0.3050
  862MOL0     C13690  11.256  -0.785   1.947 -0.3388 -0.2182 -0.1667
  862MOL0     C13691  11.231  -0.937   1.976 -0.6951 -0.1313  0.3921
  862MOL0     C13692  11.226  -1.007   1.837  0.9044  0.0233  0.2893
  862MOL0     C13693  11.356  -0.987   1.762 -0.4783  0.3258  0.4180
  862MOL0     C13694  11.357  -1.095   1.648 -0.3037  0.7835 -0.9171
  862MOL0     C13695  11.438  -1.060   1.526  0.9876 -0.0175 -0.5975
  862MOL0    Cl13696  11.331  -0.966   1.435 -0.0805 -0.2603 -0.0658
  862MOL0     C13697  11.435  -0.338   1.804  0.1795 -0.0614 -0.7995
  862MOL0     C13698  11.457  -0.199   1.785  0.6827  0.3817  0.1352
  862MOL0     O13699  11.313   0.068   2.032  0.3187  0.0009  0.0370
  862MOL0     C13700  11.424   0.290   1.761  0.5307  0.2226 -1.3355
  862MOL0     C13701  11.438   0.419   1.732  0.1369 -0.7957  0.1268
  862MOL0     N13702  11.461   0.938   1.435  0.0371  0.2683  0.9215
  862MOL0     N13703  11.506   0.985   1.326  0.3353 -0.5660  0.1262
  862MOL0     C13704  11.036   0.652   0.544  0.4558 -0.1655 -0.4589
  862MOL0     C13705  10.911   0.608   0.492 -0.1110 -0.3475  0.0503
  862MOL0     C13706  10.528   0.516   0.315 -1.2825  0.1288 -0.3103
  862MOL0     C13707  10.429   0.549   0.405 -0.8988  0.1479  0.1037
  862MOL0     C13708  10.297   0.501   0.391 -0.2135 -0.7800 -0.2469
  862MOL0     C13709  10.264   0.438   0.272  0.8407  0.9088  1.0232
  862MOL0     O13710  10.139   0.382   0.248 -0.1081 -0.3339  0.2302
  862MOL0     C13711  10.019   0.446   0.296  0.1968 -1.4699 -0.0349
  862MOL0     C13712   9.911   0.433   0.189 -0.9960  0.0846 -0.4845
  862MOL0     C13713   9.781   0.485   0.239  0.1136  0.7186  0.2333
  862MOL0     C13714   9.651   0.428   0.173 -0.6631  0.0945 -0.0697
  862MOL0     C13715   9.620   0.290   0.221 -0.2090  0.9043  0.0258
  862MOL0     C13716   9.608   0.174   0.265  0.0650 -0.8593 -0.7051
  862MOL0     C13717  10.370   0.393   0.190 -0.2797  0.1938 -0.7548
  862MOL0     C13718  10.500   0.439   0.202 -0.1790  0.0757 -0.2925
  862MOL0     H13719  10.996   0.595   0.158  0.6721  0.8042  0.0049
  862MOL0     H13720  11.195   0.667   0.242 -1.1475 -2.2500 -1.2981
  862MOL0     H13721  11.406   0.716   0.642 -0.1145 -0.3408  2.1451
  862MOL0     H13722  11.248   0.641   0.679 -0.0011  0.9953  0.7018
  862MOL0     H13723  11.158   0.864   0.711  0.3629  1.0599 -2.9927
  862MOL0     H13724  11.302   0.944   0.639  2.4844  0.4916 -0.0497
  862MOL0     H13725  11.447   0.904   0.804 -0.0636 -1.0584 -0.6274
  862MOL0     H13726  11.334   0.800   0.898  1.2573  0.6659  0.1598
  862MOL0     H13727  11.272   1.095   0.845  2.1901  0.9689  2.1429
  862MOL0     H13728  11.221   0.985   0.982 -1.0735  1.8454 -0.7050
  862MOL0     H13729  11.496   1.129   0.944  1.7682 -2.0745  0.3554
  862MOL0     H13730  11.457   0.990   1.061 -0.1752  0.8535  2.0964
  862MOL0     H13731  11.317   1.102   1.183  0.7489 -1.0298 -0.3775
  862MOL0     H13732  11.284   1.225   1.054  1.7985  0.7162 -1.2628
  862MOL0     H13733  11.473   1.340   1.077 -2.5873 -0.3362 -2.0065
  862MOL0     H13734  11.421   1.339   1.234 -1.8320  1.2155 -2.6352
  862MOL0     H13735  11.650   1.275   1.267  0.2500 -0.5096  1.4257
  862MOL0     H13736  11.631   1.134   1.165 -3.2158 -2.5606 -0.2550
  862MOL0     H13737  11.575   1.222   1.545  1.1604  0.2523 -0.2280
  862MOL0     H13738  11.336   0.952   1.663 -0.7893  2.1696 -0.9304
  862MOL0     H13739  11.390   1.106   1.716 -0.2248  1.0200 -1.9202
  862MOL0     H13740  11.496   0.968   1.873  0.4962  0.0573  0.3499
  862MOL0     H13741  11.624   1.037   1.763  0.8312  0.2369  1.7635
  862MOL0     H13742  11.666   0.848   1.641 -1.3279  1.1307 -1.4242
  862MOL0     H13743  11.665   0.774   1.795  1.2853 -2.0847 -2.3050
  862MOL0     H13744  11.534   0.637   1.633  0.6398 -0.4305  0.6796
  862MOL0     H13745  11.413   0.760   1.633 -1.0522  0.2506  1.8470
  862MOL0     H13746  11.396   0.556   2.035  2.0325 -0.6452  1.4590
  862MOL0     H13747  11.339   0.321   2.092 -4.0035  0.0302 -1.6753
  862MOL0     H13748  11.154  -0.067   1.862  0.0140  0.8029 -1.9335
  862MOL0     H13749  11.101  -0.316   1.879  0.6057 -2.3424 -1.4803
  862MOL0     H13750  11.061  -0.529   1.825 -2.4421 -4.5754  0.5601
  862MOL0     H13751  11.130  -0.555   1.980 -3.7251 -0.4636 -0.4865
  862MOL0     H13752  11.178  -0.747   1.762 -2.7548  2.4246 -1.3660
  862MOL0     H13753  11.049  -0.749   1.881 -0.9656  0.1965 -1.5507
  862MOL0     H13754  11.246  -0.737   2.045  0.7774 -0.3169  0.0084
  862MOL0     H13755  11.353  -0.754   1.907 -0.2700 -0.9342 -0.5741
  862MOL0     H13756  11.310  -0.983   2.036 -0.9230 -1.2606 -0.1452
  862MOL0     H13757  11.132  -0.948   2.021 -0.0426  0.2963  1.9875
  862MOL0     H13758  11.139  -0.983   1.776  1.3348  0.1875 -0.2720
  862MOL0     H13759  11.213  -1.113   1.863  1.2945 -0.2336 -0.5199
  862MOL0     H13760  11.440  -1.001   1.830  0.5831  1.0768 -0.6845
  862MOL0     H13761  11.371  -0.892   1.709 -0.0150 -1.2305 -2.4421
  862MOL0     H13762  11.388  -1.195   1.680 -2.9495  0.1146 -0.2693
  862MOL0     H13763  11.256  -1.108   1.609 -1.0771  3.2539  0.0480
  862MOL0     H13764  11.473  -1.148   1.471  1.5708 -0.8013  0.9686
  862MOL0     H13765  11.526  -1.002   1.557  0.7689  0.1482 -0.2742
  862MOL0     H13766  11.510  -0.413   1.781  1.8171  0.8969  1.0694
  862MOL0     H13767  11.558  -0.171   1.760 -0.0842  0.5601 -3.2722
  862MOL0     H13768  11.443   0.221   1.678 -1.9951  1.5249 -3.1565
  862MOL0     H13769  11.452   0.455   1.630 -2.1271  1.6259  0.5590
  862MOL0     H13770  11.050   0.655   0.652 -1.3684  0.1303 -0.2094
  862MOL0     H13771  10.833   0.580   0.561  0.1020  0.7337  0.7455
  862MOL0     H13772  10.454   0.618   0.485  1.6496  3.7265 -3.3865
  862MOL0     H13773  10.224   0.537   0.463 -0.9210 -2.5438 -0.0258
  862MOL0     H13774  10.039   0.547   0.332  1.2309 -1.9107  0.6664
  862MOL0     H13775   9.984   0.387   0.382 -1.5908  0.7414  0.8713
  862MOL0     H13776   9.951   0.486   0.101  1.4026  2.6265  1.9473
  862MOL0     H13777   9.913   0.326   0.167  1.4445 -0.6033  2.4680
  862MOL0     H13778   9.778   0.594   0.227  3.6848  0.7942 -1.1514
  862MOL0     H13779   9.763   0.461   0.344 -1.3770  1.4268  0.1704
  862MOL0     H13780   9.572   0.500   0.191  0.5093  2.2164 -2.6659
  862MOL0     H13781   9.663   0.417   0.065 -0.3374 -2.4443  0.1676
  862MOL0     H13782   9.596   0.071   0.293 -2.0525 -0.7765 -1.0993
  862MOL0     H13783  10.359   0.338   0.097  2.5630  1.5936 -2.0350
  862MOL0     H13784  10.565   0.439   0.115  0.5650  0.2862  0.2511
  863MOL0     O13785   2.936   6.216   6.474 -0.0064 -0.0178 -0.2932
  863MOL0     C13786   2.862   6.159   6.546 -0.2592  0.6614  0.4733
  863MOL0     O13787   2.733   6.196   6.577 -1.5932 -0.4363 -0.8883
  863MOL0     C13788   2.664   6.301   6.517  0.1824 -0.2676 -0.9578
  863MOL0     C13789   2.717   6.414   6.456 -1.8227  0.1577 -0.4576
  863MOL0     C13790   2.644   6.505   6.385 -0.1779 -0.3207 -0.7331
  863MOL0     C13791   2.503   6.480   6.368  0.1927 -1.1507  0.0768
  863MOL0     O13792   2.433   6.568   6.296  0.6242 -0.6786  0.8031
  863MOL0     C13793   2.287   6.567   6.284 -0.4057  0.7949  0.2181
  863MOL0     C13794   2.249   6.674   6.187 -0.8676  0.3878 -0.0148
  863MOL0     C13795   2.269   6.828   6.231  0.4122 -0.4116  0.1177
  863MOL0     C13796   2.270   6.925   6.112 -0.8615  0.0310  0.2822
  863MOL0     C13797   2.131   6.952   6.052 -0.0500  1.2088  1.1596
  863MOL0     C13798   2.126   7.071   5.965  0.5850  0.2616  0.3934
  863MOL0     C13799   1.976   7.095   5.925  0.1691 -0.2231 -0.2852
  863MOL0     C13800   1.924   7.000   5.815 -0.0710  0.6145  0.8741
  863MOL0     N13801   1.890   6.865   5.867 -0.5304 -0.4987 -0.5663
  863MOL0     C13802   1.955   6.745   5.845  0.6709  1.0817 -0.1681
  863MOL0     C13803   1.911   6.661   5.940 -0.6760 -0.8029  0.2569
  863MOL0     C13804   1.963   6.527   5.959 -0.2650  0.4676  0.5590
  863MOL0     C13805   1.947   6.447   5.833  0.2973  0.4656 -0.4641
  863MOL0     C13806   2.006   6.300   5.842  0.7426  0.1930  0.2163
  863MOL0     C13807   2.145   6.307   5.766  0.0258 -0.0509 -0.0865
  863MOL0     O13808   2.231   6.406   5.815  0.2952 -0.1280 -0.4078
  863MOL0     C13809   2.361   6.383   5.799 -0.9120  0.1177 -0.7557
  863MOL0     C13810   2.410   6.312   5.696 -0.5398 -0.2576  0.2832
  863MOL0     C13811   2.542   6.278   5.683 -0.3535 -0.9188 -0.3490
  863MOL0     C13812   2.639   6.334   5.777  0.8351  0.3995 -0.3925
  863MOL0     C13813   2.787   6.295   5.775 -0.2981  0.9134  1.0411
  863MOL0     O13814   2.860   6.326   5.880 -0.0776 -0.4002  0.9589
  863MOL0     C13815   2.991   6.343   5.867 -0.0835 -0.7481 -0.0296
  863MOL0     C13816   3.045   6.472   5.878  0.4394  0.0581 -0.0620
  863MOL0     C13817   3.188   6.483   5.889 -0.0628 -0.0154  0.5165
  863MOL0     C13818   3.271   6.371   5.873  0.6714 -0.0487 -0.1985
  863MOL0     O13819   3.400   6.367   5.890 -0.9364  0.4504 -0.5054
  863MOL0     C13820   3.454   6.406   6.020 -0.5852  0.0285 -0.0274
  863MOL0     C13821   3.604   6.368   6.026  0.4276 -0.8288 -0.6855
  863MOL0     C13822   3.626   6.217   6.057 -0.2431 -0.2346 -0.6539
  863MOL0     C13823   3.778   6.166   6.042 -0.4832 -0.2510 -1.0921
  863MOL0     C13824   3.861   6.221   6.159  0.1151 -1.2246  0.3272
  863MOL0     C13825   4.005   6.150   6.158  0.7600 -0.2712  0.1089
  863MOL0     C13826   4.091   6.241   6.257  0.3672  0.2956  0.5375
  863MOL0     C13827   4.240   6.197   6.294 -0.2459  0.1254 -0.4425
  863MOL0    Cl13828   4.366   6.243   6.175 -0.3726 -0.2223  0.0683
  863MOL0     C13829   3.212   6.249   5.840  1.4122  0.7991 -0.3902
  863MOL0     C13830   3.076   6.230   5.846  0.3725  0.5004 -0.1238
  863MOL0     O13831   2.827   6.228   5.675  0.1386 -0.6209  0.0923
  863MOL0     C13832   2.596   6.420   5.878  0.8877 -0.2330 -0.1749
  863MOL0     C13833   2.453   6.441   5.891  0.3004 -0.0453 -0.7645
  863MOL0     N13834   1.810   6.725   6.014  0.3269  0.1181 -1.3546
  863MOL0     N13835   1.794   6.841   5.962  0.0631 -0.0051 -1.0126
  863MOL0     C13836   2.442   6.365   6.426  1.0784 -1.2143 -1.0261
  863MOL0     C13837   2.525   6.287   6.504  0.7210  0.6148 -0.7370
  863MOL0     C13838   2.909   6.036   6.623  0.8103 -0.4154 -0.4374
  863MOL0     C13839   2.837   5.998   6.738 -0.3791  0.7433 -0.4605
  863MOL0     C13840   2.893   5.899   6.816  0.1742 -0.1081  0.3308
  863MOL0     C13841   3.016   5.844   6.782 -0.5616 -0.3714  0.1085
  863MOL0     O13842   3.073   5.748   6.861  0.1791 -0.0937 -0.9293
  863MOL0     C13843   3.206   5.784   6.912  0.8513 -0.1594  0.1139
  863MOL0     C13844   3.191   5.863   7.036  0.0232 -0.1396  0.8515
  863MOL0     C13845   3.211   5.772   7.150  0.7405  0.1382  0.3841
  863MOL0     C13846   3.164   5.831   7.284 -0.7171  0.0272 -0.1956
  863MOL0     C13847   3.235   5.935   7.355 -0.1881 -0.0799 -0.3283
  863MOL0     C13848   3.289   6.009   7.434  0.3654  0.3837 -0.5280
  863MOL0     C13849   3.091   5.889   6.670  0.0605  0.8780 -0.3272
  863MOL0     C13850   3.037   5.980   6.587 -0.2848 -0.2860 -0.9951
  863MOL0     H13851   2.824   6.434   6.458 -1.7597 -0.0103 -1.6794
  863MOL0     H13852   2.669   6.600   6.341 -1.8302  1.2610  1.4904
  863MOL0     H13853   2.240   6.596   6.379 -3.7699 -3.0467 -0.0452
  863MOL0     H13854   2.250   6.470   6.251  0.8398 -1.3647  4.3871
  863MOL0     H13855   2.145   6.659   6.157 -0.8825  2.4050 -1.1898
  863MOL0     H13856   2.319   6.659   6.103  1.5588 -0.6792  2.0553
  863MOL0     H13857   2.368   6.848   6.273  1.7352 -0.6963 -2.6192
  863MOL0     H13858   2.186   6.853   6.298 -0.2323  0.4653 -0.9633
  863MOL0     H13859   2.311   7.017   6.156 -2.2393 -0.9152  3.8799
  863MOL0     H13860   2.353   6.893   6.048  2.3539  0.5440  3.7877
  863MOL0     H13861   2.072   6.968   6.143 -0.3133 -1.4339  1.5319
  863MOL0     H13862   2.111   6.859   5.999  2.6471  2.2861 -2.1379
  863MOL0     H13863   2.189   7.054   5.877 -1.4964  1.5914 -1.4401
  863MOL0     H13864   2.162   7.161   6.015 -2.8240  1.2326  1.3965
  863MOL0     H13865   1.911   7.090   6.013 -0.0245  0.7207 -0.3598
  863MOL0     H13866   1.962   7.196   5.886  0.6818  0.0042  0.1222
  863MOL0     H13867   2.003   6.983   5.742 -0.2982 -0.6599  0.8970
  863MOL0     H13868   1.839   7.034   5.756  1.6856 -0.9175 -2.8766
  863MOL0     H13869   2.029   6.729   5.768 -0.4809  0.7097 -1.2421
  863MOL0     H13870   1.921   6.476   6.047 -1.4988 -0.5431 -0.5809
  863MOL0     H13871   2.070   6.541   5.977 -0.2630  0.7547  0.3051
  863MOL0     H13872   1.988   6.498   5.745  2.0327 -1.8481 -1.0961
  863MOL0     H13873   1.838   6.438   5.818  0.1519  0.0396  0.7585
  863MOL0     H13874   2.012   6.269   5.947  0.7599 -0.2444  0.0852
  863MOL0     H13875   1.937   6.228   5.797  1.8763 -0.9117  0.1921
  863MOL0     H13876   2.120   6.327   5.661  0.0944  0.2357 -0.0472
  863MOL0     H13877   2.194   6.210   5.753 -0.4230 -0.4252  0.9716
  863MOL0     H13878   2.353   6.285   5.608 -1.5685  3.3331 -0.3229
  863MOL0     H13879   2.580   6.228   5.594  3.1881  0.0477  0.4700
  863MOL0     H13880   2.989   6.564   5.886  2.7810  2.0360 -3.5497
  863MOL0     H13881   3.245   6.575   5.894 -0.4475  0.2651 -0.0956
  863MOL0     H13882   3.412   6.366   6.114 -0.7555 -2.9534 -1.2659
  863MOL0     H13883   3.452   6.515   6.028 -2.1671 -0.0897  2.8912
  863MOL0     H13884   3.649   6.442   6.092 -4.1462 -1.6986  4.0186
  863MOL0     H13885   3.647   6.396   5.929  1.2580  2.3053  0.4912
  863MOL0     H13886   3.565   6.161   5.986 -0.5813  1.7915 -2.0433
  863MOL0     H13887   3.592   6.193   6.158  4.6659 -0.5964  1.2175
  863MOL0     H13888   3.792   6.058   6.057  2.0078  0.1561  0.0693
  863MOL0     H13889   3.822   6.185   5.944  0.6287 -1.8370 -0.9403
  863MOL0     H13890   3.802   6.202   6.249 -1.8289  0.5660 -0.4537
  863MOL0     H13891   3.863   6.331   6.154 -3.9573 -0.9196  1.7463
  863MOL0     H13892   4.042   6.163   6.056  1.4018 -1.1088  0.2171
  863MOL0     H13893   4.009   6.042   6.176  3.9854 -0.2700  0.0237
  863MOL0     H13894   4.098   6.348   6.233  1.5476  0.2777  0.7253
  863MOL0     H13895   4.030   6.234   6.348 -3.3792 -1.3082 -1.8523
  863MOL0     H13896   4.248   6.091   6.319  1.2935  0.6389  1.5373
  863MOL0     H13897   4.259   6.248   6.389  0.3075 -0.8474 -0.0231
  863MOL0     H13898   3.283   6.171   5.814  0.5123  0.5734 -2.3463
  863MOL0     H13899   3.040   6.128   5.846  0.7417  0.3687  0.1053
  863MOL0     H13900   2.670   6.461   5.946  1.0661  1.9130 -1.5886
  863MOL0     H13901   2.407   6.499   5.970  0.4367 -0.5718 -0.2920
  863MOL0     H13902   2.341   6.331   6.401  0.7431  0.3324 -1.8812
  863MOL0     H13903   2.485   6.200   6.556 -0.9559  1.0703 -1.1985
  863MOL0     H13904   2.750   6.052   6.773 -2.3287 -2.2196 -0.3241
  863MOL0     H13905   2.851   5.865   6.911 -2.4746  1.5721 -0.1387
  863MOL0     H13906   3.276   5.839   6.848  2.8550 -0.0300  2.2668
  863MOL0     H13907   3.267   5.694   6.917  0.1769 -0.7272 -1.3997
  863MOL0     H13908   3.270   5.939   7.031 -0.7362  0.6096 -2.1865
  863MOL0     H13909   3.104   5.925   7.060 -1.2089 -1.8360  0.9191
  863MOL0     H13910   3.318   5.773   7.172  0.4793  2.6622  1.9849
  863MOL0     H13911   3.172   5.670   7.138 -0.8858  0.6150  1.2907
  863MOL0     H13912   3.061   5.866   7.268  0.0873  1.6105 -2.4814
  863MOL0     H13913   3.167   5.745   7.352 -2.3698  0.7888  0.9147
  863MOL0     H13914   3.354   6.073   7.490  0.3191 -0.4748  0.5340
  863MOL0     H13915   3.191   5.851   6.648  0.2596 -0.1291  2.0408
  863MOL0     H13916   3.080   6.031   6.501 -0.4907  1.3555 -0.1712
  864MOL0     O13917   2.177   5.173  11.370  0.1987  0.4667 -0.8756
  864MOL0     C13918   2.110   5.100  11.292 -0.0505 -0.1504  0.0274
  864MOL0     O13919   1.979   5.051  11.303  0.3268 -1.1231  0.5226
  864MOL0     C13920   1.926   5.017  11.420  0.5603 -0.4503 -1.0890
  864MOL0     C13921   2.003   5.000  11.540  0.6634  0.5238  0.4341
  864MOL0     C13922   1.935   4.959  11.652  0.4209 -0.4685  0.1977
  864MOL0     C13923   1.808   4.925  11.655  0.1892  0.1738  0.8913
  864MOL0     O13924   1.752   4.895  11.772  0.4901  0.2738 -0.5977
  864MOL0     C13925   1.700   4.764  11.770 -0.1601 -0.2833 -0.0181
  864MOL0     C13926   1.610   4.754  11.893  0.2081  0.1912  0.0132
  864MOL0     C13927   1.526   4.622  11.888 -0.7836 -0.2818 -0.1344
  864MOL0     C13928   1.453   4.581  12.020 -0.8995 -0.0263  1.9946
  864MOL0     C13929   1.375   4.455  11.985 -0.2360  0.2692  0.2684
  864MOL0     C13930   1.330   4.394  12.117 -0.1224 -0.2648 -0.1771
  864MOL0     C13931   1.269   4.250  12.114  0.1032 -0.5144 -0.1933
  864MOL0     C13932   1.172   4.223  12.224 -1.0823  0.3401 -0.7470
  864MOL0     N13933   1.103   4.095  12.197  0.2763  0.0608 -0.7812
  864MOL0     C13934   1.006   4.082  12.101 -0.5098 -0.0732 -0.1463
  864MOL0     C13935   0.957   3.955  12.124  1.1627 -0.3088  0.3046
  864MOL0     C13936   0.837   3.894  12.055  0.1220 -1.1462  0.5631
  864MOL0     C13937   0.720   4.002  12.036  0.2951 -0.2385  0.1116
  864MOL0     C13938   0.659   4.086  12.152 -0.2334  1.3167 -0.3069
  864MOL0     C13939   0.547   4.186  12.104 -0.6897  0.1965  1.0620
  864MOL0     O13940   0.508   4.263  12.220 -0.2043  0.0133  0.0506
  864MOL0     C13941   0.391   4.225  12.286 -0.0693  0.5656  0.3005
  864MOL0     C13942   0.381   4.116  12.373  1.1271 -0.0476 -0.2329
  864MOL0     C13943   0.255   4.065  12.409  0.5561 -0.4948  0.0620
  864MOL0     C13944   0.135   4.127  12.363 -0.2363  0.1307 -0.0032
  864MOL0     C13945   0.008   4.080  12.423  0.0271  0.4068  0.2560
  864MOL0     O13946  -0.098   4.099  12.337  0.2025 -0.7272  0.1850
  864MOL0     C13947  -0.204   4.019  12.375  0.3519 -0.5100 -0.0718
  864MOL0     C13948  -0.282   4.047  12.490 -0.8021 -0.1236  0.4741
  864MOL0     C13949  -0.393   3.969  12.515  0.1468 -0.0237  0.6499
  864MOL0     C13950  -0.437   3.864  12.423 -0.4501 -0.1112 -1.0507
  864MOL0     O13951  -0.544   3.783  12.426 -0.0857 -0.0023  0.1037
  864MOL0     C13952  -0.644   3.826  12.524  0.4714 -0.9910  0.9292
  864MOL0     C13953  -0.780   3.745  12.537  0.3246  0.4073  0.5823
  864MOL0     C13954  -0.891   3.808  12.441 -0.3691  0.0318 -0.5883
  864MOL0     C13955  -1.018   3.730  12.477 -0.2913 -0.1443  0.0125
  864MOL0     C13956  -1.134   3.768  12.389  0.9483 -0.5774  0.9916
  864MOL0     C13957  -1.245   3.669  12.406 -0.0347 -0.0711  0.6213
  864MOL0     C13958  -1.222   3.536  12.324 -0.2272 -0.2246 -0.3611
  864MOL0     C13959  -1.367   3.472  12.313 -0.2761  0.6421  0.2053
  864MOL0    Cl13960  -1.358   3.322  12.228  0.0299  0.3668 -0.2838
  864MOL0     C13961  -0.353   3.829  12.315 -0.4110 -0.4326  0.3023
  864MOL0     C13962  -0.235   3.911  12.291  0.6314 -0.5289 -0.6092
  864MOL0     O13963   0.012   4.024  12.533  0.0196  0.2180  0.9198
  864MOL0     C13964   0.154   4.240  12.283  0.4570  0.4920  0.1934
  864MOL0     C13965   0.275   4.285  12.243  0.0961  0.3953  0.5480
  864MOL0     N13966   1.029   3.898  12.237 -0.0176 -0.3694  0.7250
  864MOL0     N13967   1.114   3.985  12.277 -0.1536 -0.7314  0.2596
  864MOL0     C13968   1.737   4.927  11.534 -0.0256  0.3573  0.0030
  864MOL0     C13969   1.794   4.975  11.414 -0.1160 -0.1018  0.9542
  864MOL0     C13970   2.167   5.064  11.164  0.3024 -0.6563  0.1964
  864MOL0     C13971   2.086   5.016  11.059 -0.2571  0.4935  0.1247
  864MOL0     C13972   2.132   4.999  10.933 -0.3115 -0.8019  0.6703
  864MOL0     C13973   2.265   5.026  10.900 -0.6029  0.2645 -0.4202
  864MOL0     O13974   2.335   5.007  10.785 -0.2630  0.1056 -0.2316
  864MOL0     C13975   2.301   4.911  10.689  0.3445 -0.2243 -0.8352
  864MOL0     C13976   2.410   4.868  10.594 -0.0174  0.0424 -0.2903
  864MOL0     C13977   2.378   4.750  10.503  0.0633 -0.5651  0.6307
  864MOL0     C13978   2.419   4.759  10.352 -0.5434  0.2278 -0.3231
  864MOL0     C13979   2.561   4.755  10.343  0.1233 -0.9810  0.1677
  864MOL0     C13980   2.684   4.761  10.359  1.0592 -0.8396  0.2104
  864MOL0     C13981   2.349   5.073  11.003  0.2605 -0.4730 -0.3353
  864MOL0     C13982   2.300   5.096  11.130  0.2011 -0.5705 -0.8174
  864MOL0     H13983   2.108   5.024  11.549  0.9426 -0.6486  0.5420
  864MOL0     H13984   2.000   4.964  11.739  1.0067 -0.3954 -0.2320
  864MOL0     H13985   1.789   4.702  11.761  0.6474  0.5878  1.6245
  864MOL0     H13986   1.626   4.754  11.690 -3.3262 -0.9274  2.7749
  864MOL0     H13987   1.547   4.840  11.916  0.6408  0.9375 -1.4764
  864MOL0     H13988   1.680   4.754  11.978 -0.5215 -0.0908  0.6339
  864MOL0     H13989   1.591   4.537  11.868 -0.3150 -0.8433  3.2211
  864MOL0     H13990   1.451   4.631  11.809  0.4763  3.5432 -1.1548
  864MOL0     H13991   1.534   4.559  12.090  0.8766 -1.4706 -0.3755
  864MOL0     H13992   1.386   4.663  12.048 -1.3021 -0.0276  1.0692
  864MOL0     H13993   1.443   4.385  11.935  0.4066  1.9061 -1.2628
  864MOL0     H13994   1.287   4.481  11.926  0.1460  0.3592 -0.2740
  864MOL0     H13995   1.249   4.463  12.142 -0.0284 -0.2186 -0.0009
  864MOL0     H13996   1.416   4.413  12.182  0.3972  1.6228 -1.3377
  864MOL0     H13997   1.218   4.229  12.019 -1.9992  0.6345  0.6441
  864MOL0     H13998   1.352   4.178  12.114  0.2428 -0.3765 -1.2691
  864MOL0     H13999   1.102   4.306  12.235 -0.6092  0.5275  1.4174
  864MOL0     H14000   1.217   4.209  12.323  0.0008  0.8128 -1.1545
  864MOL0     H14001   0.952   4.156  12.043 -1.3699 -1.2290 -0.8692
  864MOL0     H14002   0.796   3.812  12.114  1.4742 -1.5460  0.9764
  864MOL0     H14003   0.874   3.852  11.961  0.6958  1.9239 -0.7014
  864MOL0     H14004   0.632   3.952  11.994 -0.3427  1.2135 -0.3518
  864MOL0     H14005   0.759   4.071  11.961  0.4401 -1.3142 -0.8204
  864MOL0     H14006   0.602   4.019  12.216 -0.2003 -0.7598 -2.3123
  864MOL0     H14007   0.731   4.144  12.210 -1.8571  3.8318 -0.6725
  864MOL0     H14008   0.458   4.134  12.069 -1.0584  0.5822  1.4187
  864MOL0     H14009   0.586   4.246  12.021 -0.2442 -0.6520  0.6492
  864MOL0     H14010   0.473   4.070  12.408 -0.4207 -0.5724  3.7680
  864MOL0     H14011   0.258   3.977  12.473  1.6792  0.3812  1.2716
  864MOL0     H14012  -0.250   4.122  12.561  1.7405 -0.0211 -0.6570
  864MOL0     H14013  -0.460   3.997  12.596 -1.7539  1.7613 -1.4085
  864MOL0     H14014  -0.657   3.932  12.503  2.2800 -0.8064  0.5961
  864MOL0     H14015  -0.607   3.788  12.620  2.0410  0.0657  0.7806
  864MOL0     H14016  -0.829   3.757  12.634 -2.1566 -0.7723 -0.4571
  864MOL0     H14017  -0.761   3.639  12.516 -0.8174  0.8316 -3.4868
  864MOL0     H14018  -0.864   3.784  12.337 -1.9728 -0.1447 -1.0029
  864MOL0     H14019  -0.889   3.917  12.449 -0.5747  0.0332 -0.5565
  864MOL0     H14020  -0.994   3.623  12.476 -0.0445 -0.0924  0.4626
  864MOL0     H14021  -1.047   3.767  12.575  0.5278  2.0664 -0.5292
  864MOL0     H14022  -1.108   3.773  12.283 -1.5632  0.1474  0.3470
  864MOL0     H14023  -1.171   3.867  12.417 -2.2669 -0.6428 -2.2817
  864MOL0     H14024  -1.335   3.714  12.363 -0.5660 -0.4379  1.3477
  864MOL0     H14025  -1.268   3.662  12.512  0.3659 -0.3098  0.6954
  864MOL0     H14026  -1.182   3.553  12.224 -2.6851 -2.3382 -1.8196
  864MOL0     H14027  -1.157   3.474  12.386 -2.6437 -0.4863  2.1596
  864MOL0     H14028  -1.443   3.539  12.273 -1.3230 -1.9072 -2.5237
  864MOL0     H14029  -1.395   3.441  12.414  0.6786  0.9024  0.5645
  864MOL0     H14030  -0.394   3.749  12.255 -3.6813  0.9984  0.4310
  864MOL0     H14031  -0.187   3.900  12.195  0.3682  1.4020 -1.0102
  864MOL0     H14032   0.075   4.307  12.250  0.5591  1.2484  1.4249
  864MOL0     H14033   0.285   4.375  12.183 -0.8620  1.2331  1.6031
  864MOL0     H14034   1.629   4.916  11.538 -0.0684  0.4583 -0.7965
  864MOL0     H14035   1.747   4.965  11.317 -1.7463 -2.6347  1.9118
  864MOL0     H14036   1.981   4.988  11.055 -0.0788 -0.0623 -1.0438
  864MOL0     H14037   2.071   4.953  10.856 -2.6647  0.0808  1.9119
  864MOL0     H14038   2.215   4.951  10.636  0.2491  0.4551 -0.1872
  864MOL0     H14039   2.270   4.824  10.748  1.4434  2.2237  3.9357
  864MOL0     H14040   2.436   4.951  10.526  0.0462 -1.2681 -1.9364
  864MOL0     H14041   2.497   4.852  10.657  0.3374 -0.0087 -0.7893
  864MOL0     H14042   2.269   4.737  10.506 -0.0004 -0.4690 -0.8327
  864MOL0     H14043   2.419   4.657  10.543  3.5390 -0.0915 -1.4448
  864MOL0     H14044   2.397   4.674  10.287  1.1647 -0.0570 -0.5575
  864MOL0     H14045   2.386   4.854  10.309 -1.4746  0.7209  1.3571
  864MOL0     H14046   2.786   4.786  10.379  1.6757  0.8298 -3.9343
  864MOL0     H14047   2.457   5.078  10.992  0.1608  2.0633 -0.8313
  864MOL0     H14048   2.366   5.135  11.206 -0.7954 -0.5337  0.0533
  865MOL0     O14049   4.543   4.006   3.457 -0.4619  0.9272 -0.5287
  865MOL0     C14050   4.646   4.048   3.511  0.2653 -0.0505  0.0326
  865MOL0     O14051   4.768   3.989   3.513  0.6387  0.1878 -0.7294
  865MOL0     C14052   4.812   3.888   3.430  0.2990  0.3946 -0.2333
  865MOL0     C14053   4.749   3.836   3.318 -0.0562  0.2808  0.1923
  865MOL0     C14054   4.809   3.736   3.241  0.8461  0.4728 -0.0804
  865MOL0     C14055   4.941   3.690   3.263  0.2186 -1.0649 -0.3248
  865MOL0     O14056   5.003   3.590   3.191  0.3157 -0.0555 -0.3612
  865MOL0     C14057   4.942   3.537   3.070  0.5755 -0.4186  0.2504
  865MOL0     C14058   4.831   3.441   3.108 -0.1773 -0.2522  0.1385
  865MOL0     C14059   4.783   3.355   2.983 -0.7184 -0.6639 -0.9166
  865MOL0     C14060   4.642   3.308   2.999  0.0607 -0.4154 -0.2778
  865MOL0     C14061   4.583   3.226   2.891  0.3651 -0.3577 -0.6341
  865MOL0     C14062   4.669   3.119   2.811 -0.4023 -0.0914  0.9086
  865MOL0     C14063   4.581   3.041   2.712 -0.3936 -0.7840 -0.7609
  865MOL0     C14064   4.459   2.974   2.788 -0.4267 -0.5727  0.3739
  865MOL0     N14065   4.370   2.902   2.692  0.3441  0.0435 -0.7592
  865MOL0     C14066   4.328   2.946   2.574 -0.3115 -0.1325 -1.0268
  865MOL0     C14067   4.249   2.846   2.517  0.1226  0.6808  0.0775
  865MOL0     C14068   4.194   2.868   2.380  0.2717 -0.1627  1.0084
  865MOL0     C14069   4.124   2.738   2.329  0.9466 -0.9136  0.5120
  865MOL0     C14070   4.089   2.753   2.184 -0.2561  0.1577 -0.7142
  865MOL0     C14071   4.027   2.621   2.118  0.1377 -0.1537 -0.2875
  865MOL0     O14072   4.023   2.645   1.975  0.4070 -0.5632 -0.1898
  865MOL0     C14073   4.137   2.663   1.894 -0.2231 -0.1639 -0.0416
  865MOL0     C14074   4.265   2.619   1.924  0.7032  0.3219 -0.2715
  865MOL0     C14075   4.374   2.650   1.841  0.4092 -0.5982  0.5377
  865MOL0     C14076   4.354   2.746   1.736 -0.1956  0.8072 -0.0077
  865MOL0     C14077   4.468   2.797   1.662  0.0078 -0.1410 -0.0696
  865MOL0     O14078   4.452   2.913   1.580  0.0455  0.9514 -0.4477
  865MOL0     C14079   4.565   2.964   1.520 -0.6107  0.8137 -0.5637
  865MOL0     C14080   4.650   2.880   1.448 -0.1051 -1.1408 -0.3884
  865MOL0     C14081   4.754   2.949   1.377 -0.4222  0.5576 -0.4124
  865MOL0     C14082   4.776   3.074   1.362 -0.3477  0.2797  0.4618
  865MOL0     O14083   4.870   3.124   1.269  0.5764 -0.1248 -0.1833
  865MOL0     C14084   4.816   3.210   1.166 -0.0738 -0.2176 -0.0870
  865MOL0     C14085   4.915   3.231   1.052  0.4014  0.1418  0.0024
  865MOL0     C14086   4.853   3.316   0.937 -0.1154  0.4436 -0.8549
  865MOL0     C14087   4.773   3.235   0.840  0.7218  0.0600 -0.0889
  865MOL0     C14088   4.697   3.299   0.723  0.1773 -0.6156 -0.4290
  865MOL0     C14089   4.767   3.422   0.662 -0.1742  0.4245 -0.7447
  865MOL0     C14090   4.898   3.385   0.593 -0.4010  0.0526  0.4306
  865MOL0     C14091   4.946   3.468   0.470  1.1406 -0.8456 -0.4677
  865MOL0    Cl14092   5.002   3.622   0.544 -0.8349  0.0481 -0.0106
  865MOL0     C14093   4.696   3.155   1.445  0.0910  0.1099 -0.6996
  865MOL0     C14094   4.594   3.100   1.528  0.6688  0.6550 -0.1977
  865MOL0     O14095   4.578   2.748   1.687  0.1007 -0.3468 -0.4605
  865MOL0     C14096   4.225   2.791   1.705  0.5893 -0.7304  0.7829
  865MOL0     C14097   4.121   2.744   1.780  0.3527 -0.6329  0.5015
  865MOL0     N14098   4.253   2.739   2.604 -0.2088  0.6292 -0.1240
  865MOL0     N14099   4.314   2.780   2.714  0.3899  0.2614  0.1847
  865MOL0     C14100   5.005   3.743   3.377  0.2036 -0.3532  0.5436
  865MOL0     C14101   4.942   3.844   3.452 -0.1470 -0.6806 -0.2289
  865MOL0     C14102   4.619   4.178   3.579  0.3688  0.9019 -0.2523
  865MOL0     C14103   4.720   4.242   3.641 -0.1887 -0.5031  0.4594
  865MOL0     C14104   4.698   4.363   3.715  0.5504  1.0950  0.5651
  865MOL0     C14105   4.570   4.414   3.726  0.5746 -0.5294  0.0072
  865MOL0     O14106   4.567   4.531   3.799 -0.1340 -0.6868 -0.2382
  865MOL0     C14107   4.445   4.607   3.791 -0.0024 -0.4905  0.3566
  865MOL0     C14108   4.426   4.695   3.671  0.4541  0.3124  0.3097
  865MOL0     C14109   4.286   4.773   3.668 -0.4472 -0.3957 -0.6373
  865MOL0     C14110   4.286   4.893   3.566  0.2755  0.5299 -0.9396
  865MOL0     C14111   4.361   5.006   3.620  0.0523 -0.2557 -0.2461
  865MOL0     C14112   4.431   5.085   3.674  0.2020 -0.0670 -0.8832
  865MOL0     C14113   4.463   4.347   3.663 -0.5342 -0.0244 -0.3605
  865MOL0     C14114   4.490   4.233   3.595  0.5879  0.0758  0.6772
  865MOL0     H14115   4.650   3.875   3.294  0.7115  2.2079 -0.0266
  865MOL0     H14116   4.747   3.709   3.156 -0.5582  1.1244  0.6874
  865MOL0     H14117   5.012   3.484   3.005 -0.2505  2.1335 -2.9933
  865MOL0     H14118   4.898   3.612   3.003  0.4321  0.4159  1.2521
  865MOL0     H14119   4.744   3.493   3.148  0.8878  3.6325 -2.0456
  865MOL0     H14120   4.865   3.368   3.182  0.1075  0.6496  0.9169
  865MOL0     H14121   4.866   3.286   2.968  2.3156  2.9646 -2.7271
  865MOL0     H14122   4.788   3.412   2.889  4.5173  0.8956 -0.0304
  865MOL0     H14123   4.640   3.247   3.090  1.9395  0.1257  0.1662
  865MOL0     H14124   4.586   3.398   3.022  1.2950 -0.5782  4.3700
  865MOL0     H14125   4.547   3.291   2.811 -1.4604  2.4073  2.2217
  865MOL0     H14126   4.499   3.183   2.946 -0.9097  2.0297 -0.5905
  865MOL0     H14127   4.730   3.055   2.876  0.7975  1.6016  1.5205
  865MOL0     H14128   4.739   3.175   2.749 -0.2559  0.4915  1.5813
  865MOL0     H14129   4.548   3.104   2.629  0.1336  4.7262  2.7152
  865MOL0     H14130   4.643   2.963   2.666  0.1265 -1.1287  0.4870
  865MOL0     H14131   4.394   3.053   2.826  1.2856  1.3229 -0.4873
  865MOL0     H14132   4.475   2.903   2.870 -1.5653 -1.0384  0.2008
  865MOL0     H14133   4.347   3.043   2.529  1.6719  0.9073  1.8011
  865MOL0     H14134   4.277   2.894   2.313 -0.2214 -1.2036 -0.0525
  865MOL0     H14135   4.117   2.945   2.378 -0.3516 -0.7560  1.6414
  865MOL0     H14136   4.039   2.711   2.392  1.9330 -2.6703  1.1882
  865MOL0     H14137   4.189   2.649   2.330 -1.5115 -2.8434 -0.5061
  865MOL0     H14138   4.032   2.846   2.176 -2.8193 -1.1769  0.9349
  865MOL0     H14139   4.184   2.780   2.135 -0.1762  0.3096 -0.4775
  865MOL0     H14140   3.926   2.600   2.155  0.5256  1.1085  1.6441
  865MOL0     H14141   4.095   2.541   2.150  1.6395  1.9852  2.3146
  865MOL0     H14142   4.283   2.573   2.020  2.4105 -0.1019 -0.7585
  865MOL0     H14143   4.467   2.603   1.869  0.2217 -3.2322 -2.6791
  865MOL0     H14144   4.635   2.773   1.448 -1.3087 -0.9836  0.2117
  865MOL0     H14145   4.830   2.887   1.330 -0.9125  1.8088 -3.0556
  865MOL0     H14146   4.782   3.298   1.221  0.1377 -0.1092 -0.1277
  865MOL0     H14147   4.728   3.161   1.123 -2.2664  4.5975 -1.8430
  865MOL0     H14148   4.957   3.135   1.022  1.8872  1.0777 -1.0814
  865MOL0     H14149   4.998   3.287   1.097  0.2126  1.1031 -0.7943
  865MOL0     H14150   4.927   3.362   0.871 -3.5997  3.4753 -3.0960
  865MOL0     H14151   4.790   3.398   0.974 -0.4157  0.5648 -1.5980
  865MOL0     H14152   4.832   3.153   0.799 -0.0201 -0.7927  0.4798
  865MOL0     H14153   4.700   3.180   0.901 -0.6909  2.1491  0.2117
  865MOL0     H14154   4.598   3.331   0.760  1.0173  1.2519  0.3666
  865MOL0     H14155   4.680   3.220   0.651 -0.1028 -0.4687 -0.5282
  865MOL0     H14156   4.803   3.484   0.745  0.5518 -3.2396  1.9639
  865MOL0     H14157   4.704   3.473   0.589 -0.5924 -0.5117 -1.0478
  865MOL0     H14158   4.987   3.380   0.657 -0.0629  1.2320  0.0711
  865MOL0     H14159   4.874   3.283   0.559  0.0417 -0.4797  1.6547
  865MOL0     H14160   4.854   3.481   0.413  0.7896  0.8704  0.4326
  865MOL0     H14161   5.023   3.422   0.406  1.7987 -0.3199 -0.0741
  865MOL0     H14162   4.706   3.263   1.450 -0.7161  0.1558  0.1155
  865MOL0     H14163   4.529   3.158   1.592  1.9607  0.0851  1.7203
  865MOL0     H14164   4.188   2.855   1.626 -1.5223  0.3099  2.4816
  865MOL0     H14165   4.018   2.770   1.761  0.4244 -0.5740  0.1839
  865MOL0     H14166   5.103   3.709   3.408 -0.2655 -1.1820  1.1536
  865MOL0     H14167   4.989   3.896   3.534 -1.3020  0.0855 -0.0236
  865MOL0     H14168   4.822   4.205   3.641 -0.0269 -0.0597  0.1731
  865MOL0     H14169   4.782   4.418   3.753  2.5043 -0.2533 -1.5217
  865MOL0     H14170   4.430   4.669   3.880 -3.7368 -2.9868  1.7169
  865MOL0     H14171   4.358   4.542   3.782 -1.8575  1.5912  2.2351
  865MOL0     H14172   4.509   4.766   3.668  0.2022  0.6127  0.4829
  865MOL0     H14173   4.431   4.630   3.583 -0.5659 -1.3641  1.4318
  865MOL0     H14174   4.277   4.823   3.764 -2.0325  0.9866 -1.4556
  865MOL0     H14175   4.211   4.698   3.641 -4.8078  3.2290  0.2789
  865MOL0     H14176   4.335   4.850   3.479  1.6422  2.2515 -1.0816
  865MOL0     H14177   4.184   4.919   3.536 -0.7786 -0.3448  1.5773
  865MOL0     H14178   4.502   5.135   3.737 -2.6289  0.9804  1.7195
  865MOL0     H14179   4.361   4.382   3.676  0.0864  2.5759 -1.8096
  865MOL0     H14180   4.410   4.181   3.542  2.4042 -3.6000  1.1813
  866MOL0     O14181   2.220  11.421   3.141  0.2282 -0.2910 -0.2581
  866MOL0     C14182   2.304  11.509   3.172  0.3004  0.4527 -0.0529
  866MOL0     O14183   2.283  11.643   3.189 -0.3224  0.1548  0.1070
  866MOL0     C14184   2.178  11.718   3.134  0.0654  0.4923 -1.0772
  866MOL0     C14185   2.112  11.671   3.015  0.2186  0.6427  0.1492
  866MOL0     C14186   1.999  11.744   2.962 -0.6252  0.4265 -0.1224
  866MOL0     C14187   1.970  11.871   3.013  0.1917  0.6634 -0.5515
  866MOL0     O14188   1.874  11.951   2.959  0.0913  0.3662 -0.5080
  866MOL0     C14189   1.822  11.927   2.829 -0.8668  0.3786  0.4956
  866MOL0     C14190   1.730  12.027   2.766  0.3016  0.1618 -0.2718
  866MOL0     C14191   1.582  11.997   2.811 -0.1794 -0.2027 -1.1638
  866MOL0     C14192   1.572  11.997   2.963 -0.9528  0.6012 -1.5700
  866MOL0     C14193   1.432  11.957   3.011  0.0033  0.2788  0.8927
  866MOL0     C14194   1.424  11.959   3.166  0.0385 -0.1077 -1.2379
  866MOL0     C14195   1.286  11.913   3.213  0.5755  0.6314 -0.9366
  866MOL0     C14196   1.288  11.916   3.369  0.2996  0.3419 -0.1003
  866MOL0     N14197   1.322  12.047   3.415 -0.6038 -0.8127 -0.1843
  866MOL0     C14198   1.255  12.162   3.371  0.2355 -0.6249  0.0163
  866MOL0     C14199   1.316  12.264   3.446 -0.0742  0.2748  0.8031
  866MOL0     C14200   1.293  12.408   3.426  0.4192  0.7792 -0.2307
  866MOL0     C14201   1.390  12.499   3.507  0.5406 -0.8205  0.2223
  866MOL0     C14202   1.346  12.649   3.499 -0.5421 -0.5041 -0.7875
  866MOL0     C14203   1.414  12.745   3.603  0.4000 -0.5726  1.0907
  866MOL0     O14204   1.369  12.885   3.576  0.2702 -0.4113 -0.3094
  866MOL0     C14205   1.247  12.917   3.627 -0.2811  0.2324 -0.0469
  866MOL0     C14206   1.162  12.836   3.706 -0.8490  0.2329 -0.3281
  866MOL0     C14207   1.037  12.876   3.753  0.4355 -0.3955  0.0953
  866MOL0     C14208   0.989  13.010   3.730  0.4335  0.6848 -0.9265
  866MOL0     C14209   0.864  13.061   3.796  0.0538 -0.1689 -0.4763
  866MOL0     O14210   0.763  12.968   3.827 -0.0594 -0.7583 -0.2775
  866MOL0     C14211   0.628  13.015   3.841 -0.4971 -0.8430 -0.5256
  866MOL0     C14212   0.546  12.945   3.936  0.2239  0.1998  0.2402
  866MOL0     C14213   0.403  12.966   3.933  0.0601 -0.9754 -0.8161
  866MOL0     C14214   0.341  13.053   3.847 -0.7628  0.7188  0.5078
  866MOL0     O14215   0.210  13.071   3.845  1.2159  0.1754  1.5210
  866MOL0     C14216   0.119  12.964   3.883 -0.3533 -0.7523  0.4986
  866MOL0     C14217  -0.021  13.020   3.881  0.6381  0.9575  0.2652
  866MOL0     C14218  -0.131  12.906   3.903 -0.6209  0.2401  0.1915
  866MOL0     C14219  -0.268  12.969   3.938 -0.6313 -0.0712  0.0938
  866MOL0     C14220  -0.357  12.848   3.968 -0.1178 -0.3575  0.1470
  866MOL0     C14221  -0.490  12.868   4.036  0.0372  0.1059  0.2624
  866MOL0     C14222  -0.589  12.769   3.966  0.3789 -1.0616  0.3123
  866MOL0     C14223  -0.738  12.817   4.002 -0.4330 -0.2276 -0.2437
  866MOL0    Cl14224  -0.859  12.737   3.904  0.2853 -0.0424  0.6325
  866MOL0     C14225   0.419  13.112   3.756 -0.2610  0.0306  0.4453
  866MOL0     C14226   0.565  13.102   3.743  0.2884 -0.6374  0.2176
  866MOL0     O14227   0.853  13.179   3.813 -0.0975  0.0149  0.2709
  866MOL0     C14228   1.064  13.084   3.633  0.2879  0.1602  0.7162
  866MOL0     C14229   1.192  13.040   3.589 -1.0226  0.0408 -0.0679
  866MOL0     N14230   1.417  12.204   3.521  0.2085  0.0781  0.5633
  866MOL0     N14231   1.425  12.078   3.501 -0.6652  0.1069 -0.0252
  866MOL0     C14232   2.040  11.920   3.126 -0.2599  0.5097 -0.4506
  866MOL0     C14233   2.129  11.834   3.191  0.3195  0.5132 -0.0759
  866MOL0     C14234   2.442  11.472   3.160 -0.2484  0.0468 -0.7301
  866MOL0     C14235   2.494  11.348   3.206 -0.2248  0.1219 -0.6862
  866MOL0     C14236   2.632  11.328   3.211 -1.2969 -0.2488 -0.6277
  866MOL0     C14237   2.725  11.420   3.167  0.6237 -0.2313  0.4301
  866MOL0     O14238   2.855  11.374   3.162  1.1200  0.5943  0.2005
  866MOL0     C14239   2.959  11.469   3.128 -0.4948  0.6417  0.4198
  866MOL0     C14240   2.988  11.572   3.247 -0.2561  0.9837 -0.2774
  866MOL0     C14241   3.059  11.496   3.366  0.1746 -0.3324 -0.8659
  866MOL0     C14242   3.052  11.583   3.486 -0.3492  0.4295  0.6285
  866MOL0     C14243   2.910  11.603   3.530 -0.7338 -0.1477 -0.2705
  866MOL0     C14244   2.789  11.613   3.557 -0.1075 -0.1827 -0.5489
  866MOL0     C14245   2.676  11.540   3.114  0.1451 -0.2809 -0.1476
  866MOL0     C14246   2.536  11.565   3.118 -0.0229  0.1377  0.1409
  866MOL0     H14247   2.137  11.576   2.970 -0.8956 -0.0321  0.8957
  866MOL0     H14248   1.949  11.697   2.878  1.3871  0.0731 -1.2007
  866MOL0     H14249   1.770  11.831   2.820 -1.5905  0.9449 -2.8833
  866MOL0     H14250   1.917  11.924   2.774  0.3384  0.6181  2.4711
  866MOL0     H14251   1.729  12.011   2.658 -0.1928 -0.8472 -0.1329
  866MOL0     H14252   1.750  12.131   2.795 -0.3871 -0.3175  2.1723
  866MOL0     H14253   1.557  11.892   2.792 -0.7298 -0.1952 -0.5330
  866MOL0     H14254   1.512  12.071   2.770 -1.2884 -0.1325  0.7237
  866MOL0     H14255   1.640  11.922   3.005  1.7077  2.9537 -1.4269
  866MOL0     H14256   1.610  12.089   3.006  2.1402 -0.3595 -2.0239
  866MOL0     H14257   1.403  11.862   2.965  1.8065  1.0008 -2.0146
  866MOL0     H14258   1.364  12.033   2.970  0.9942  0.0694 -1.2683
  866MOL0     H14259   1.443  12.060   3.205 -0.6053 -0.3818 -0.1876
  866MOL0     H14260   1.509  11.897   3.197  1.9270  2.5789 -0.6140
  866MOL0     H14261   1.205  11.965   3.161 -2.8775 -3.0779  0.2064
  866MOL0     H14262   1.275  11.808   3.184 -0.4676  0.7475 -0.9954
  866MOL0     H14263   1.362  11.847   3.412 -1.2643 -0.7235  0.9443
  866MOL0     H14264   1.185  11.886   3.387  0.7448 -1.9973 -1.0417
  866MOL0     H14265   1.174  12.178   3.300 -2.0606  0.3470  2.6682
  866MOL0     H14266   1.185  12.426   3.430 -0.7141 -2.8568 -4.7906
  866MOL0     H14267   1.324  12.427   3.322 -1.5056 -1.4246 -1.3051
  866MOL0     H14268   1.496  12.491   3.481  0.7006  1.2069  0.1004
  866MOL0     H14269   1.382  12.465   3.611 -1.0241  1.4469  0.9168
  866MOL0     H14270   1.368  12.688   3.399  0.7899  0.8527 -0.0171
  866MOL0     H14271   1.238  12.660   3.509 -0.3908 -0.1945  0.6847
  866MOL0     H14272   1.513  12.747   3.556  0.4964  2.0618  1.2164
  866MOL0     H14273   1.418  12.714   3.707  1.8872 -1.9363  0.6614
  866MOL0     H14274   1.194  12.735   3.729  0.5926  0.4926 -1.0463
  866MOL0     H14275   0.972  12.802   3.799  2.3120 -2.7284 -0.8229
  866MOL0     H14276   0.597  12.873   3.999 -2.6157 -1.9001  0.3397
  866MOL0     H14277   0.343  12.910   4.004  0.1053  0.6204  0.5441
  866MOL0     H14278   0.145  12.921   3.980 -1.9982 -4.6803 -0.5934
  866MOL0     H14279   0.119  12.890   3.803  1.1753  1.4397 -1.6618
  866MOL0     H14280  -0.036  13.087   3.796 -0.6466  1.1987  0.6678
  866MOL0     H14281  -0.019  13.087   3.967  0.3360  0.5230  0.6177
  866MOL0     H14282  -0.101  12.846   3.990  0.1058 -0.6769 -0.6589
  866MOL0     H14283  -0.145  12.830   3.825 -2.4265  0.6869  0.0255
  866MOL0     H14284  -0.267  13.034   4.026 -1.3275 -0.1423  0.1565
  866MOL0     H14285  -0.314  13.017   3.851  0.6038 -4.0014 -3.0552
  866MOL0     H14286  -0.295  12.780   4.028 -0.1808 -0.3483  0.2218
  866MOL0     H14287  -0.372  12.783   3.881 -3.3021 -0.3760  0.5977
  866MOL0     H14288  -0.537  12.961   4.003  1.0333  0.2791 -0.7089
  866MOL0     H14289  -0.489  12.857   4.145 -1.7619 -0.3098  0.2629
  866MOL0     H14290  -0.584  12.775   3.857 -0.3046  1.8615  0.3356
  866MOL0     H14291  -0.587  12.674   4.019  0.4139 -0.6548  1.0572
  866MOL0     H14292  -0.763  12.921   3.977 -1.2715 -0.6692 -1.3394
  866MOL0     H14293  -0.754  12.815   4.110  2.2474  1.0273  0.2541
  866MOL0     H14294   0.355  13.178   3.698 -2.1551 -0.4192  1.9501
  866MOL0     H14295   0.625  13.161   3.674  2.4476 -2.2402  0.6426
  866MOL0     H14296   1.039  13.181   3.592 -0.1334 -0.3715 -0.3330
  866MOL0     H14297   1.255  13.092   3.518  0.2542 -1.2478  0.0648
  866MOL0     H14298   2.007  12.016   3.163  3.0198  1.8316 -0.6275
  866MOL0     H14299   2.173  11.855   3.288  2.1634 -1.9317 -0.3137
  866MOL0     H14300   2.430  11.269   3.245  2.5336 -1.2251  1.5630
  866MOL0     H14301   2.677  11.234   3.241  0.1212  0.4057 -0.6157
  866MOL0     H14302   2.932  11.521   3.036 -4.2601  1.8982  2.0216
  866MOL0     H14303   3.055  11.420   3.110 -1.1740 -0.8974  0.8117
  866MOL0     H14304   3.055  11.647   3.205 -1.0710  1.0722 -1.4771
  866MOL0     H14305   2.895  11.622   3.276 -1.2067 -0.1748 -1.2379
  866MOL0     H14306   3.164  11.481   3.338  1.1675 -1.6747  2.9378
  866MOL0     H14307   3.014  11.398   3.380 -0.6629  0.0777 -0.5880
  866MOL0     H14308   3.102  11.547   3.576  2.3494  0.8635 -0.6039
  866MOL0     H14309   3.101  11.672   3.446  2.8884 -1.9644 -1.2790
  866MOL0     H14310   2.686  11.613   3.587 -0.1055 -0.8331 -0.5256
  866MOL0     H14311   2.739  11.620   3.077  0.3483 -0.2384  0.2818
  866MOL0     H14312   2.511  11.669   3.103  3.2134  0.9867  0.0153
  867MOL0     O14313   5.984   6.279   0.014 -0.3381  0.0082 -0.5871
  867MOL0     C14314   5.978   6.401   0.015 -0.1547  0.3921 -0.1058
  867MOL0     O14315   6.075   6.480   0.054 -1.1045 -0.2927 -0.0247
  867MOL0     C14316   6.188   6.424   0.121 -1.0868 -0.4309 -0.8082
  867MOL0     C14317   6.312   6.490   0.105  0.8720 -0.2470  0.0364
  867MOL0     C14318   6.424   6.460   0.182  0.0543 -0.3108 -0.1669
  867MOL0     C14319   6.420   6.351   0.276 -0.8024 -0.7297  0.2273
  867MOL0     O14320   6.524   6.291   0.342  0.5107  0.4238  0.2904
  867MOL0     C14321   6.647   6.355   0.320 -0.1474 -0.2118 -0.1318
  867MOL0     C14322   6.752   6.283   0.396 -0.0976 -0.0033  0.1453
  867MOL0     C14323   6.746   6.308   0.546 -0.1650 -0.1024  0.8742
  867MOL0     C14324   6.851   6.213   0.614  0.9084 -0.3946  0.2057
  867MOL0     C14325   6.841   6.212   0.773  0.4982  0.7106  0.3085
  867MOL0     C14326   6.912   6.337   0.831 -0.2641  0.5756  0.9004
  867MOL0     C14327   6.979   6.306   0.964  0.0824  0.7890 -0.7488
  867MOL0     C14328   6.859   6.244   1.057 -1.3312 -0.2226 -0.7604
  867MOL0     N14329   6.878   6.278   1.202  0.1659 -0.5045  0.0180
  867MOL0     C14330   6.998   6.307   1.272 -0.2101  0.6003 -0.7485
  867MOL0     C14331   6.969   6.322   1.401 -0.1921 -0.8034 -0.2978
  867MOL0     C14332   7.071   6.336   1.514 -0.4054 -0.8636 -0.3476
  867MOL0     C14333   7.116   6.194   1.563  0.1005  0.2471 -0.0858
  867MOL0     C14334   7.246   6.212   1.640 -0.0395  0.7317 -0.4952
  867MOL0     C14335   7.310   6.079   1.673 -0.5231  0.7565  0.9388
  867MOL0     O14336   7.330   6.019   1.543  0.1651  0.1889  0.1224
  867MOL0     C14337   7.397   5.902   1.529 -0.1256  0.2423 -0.4672
  867MOL0     C14338   7.396   5.845   1.401 -0.7467  0.0339  0.1195
  867MOL0     C14339   7.451   5.719   1.388 -0.1760  0.3414 -0.6821
  867MOL0     C14340   7.524   5.661   1.492 -0.9297  0.3883  0.3215
  867MOL0     C14341   7.603   5.541   1.458 -0.1735 -0.3814 -0.1408
  867MOL0     O14342   7.576   5.476   1.345  0.0107  0.1611 -0.1470
  867MOL0     C14343   7.592   5.337   1.344  0.6241 -0.6540 -0.7324
  867MOL0     C14344   7.534   5.257   1.444 -0.3138  0.4682  0.5224
  867MOL0     C14345   7.542   5.122   1.440 -0.7374 -0.0356 -0.6567
  867MOL0     C14346   7.621   5.053   1.341 -0.5691  0.4738 -1.2616
  867MOL0     O14347   7.644   4.914   1.342  0.1008 -0.3936 -0.3063
  867MOL0     C14348   7.752   4.851   1.267  0.0908  0.3706 -0.0691
  867MOL0     C14349   7.898   4.895   1.325  0.0173  0.1496 -0.2624
  867MOL0     C14350   7.923   4.843   1.463 -0.2875  0.1296  1.0158
  867MOL0     C14351   8.063   4.832   1.514  0.5246  0.2323 -0.1686
  867MOL0     C14352   8.081   4.781   1.656  0.1049 -0.4431 -1.1611
  867MOL0     C14353   8.221   4.811   1.714  0.6261  0.7522 -0.2815
  867MOL0     C14354   8.328   4.744   1.634 -0.2700 -0.3247  0.4494
  867MOL0     C14355   8.458   4.744   1.701  0.4285  0.0903  0.3507
  867MOL0    Cl14356   8.502   4.905   1.734  0.0728 -0.0612 -0.1194
  867MOL0     C14357   7.682   5.133   1.247  0.3608  0.5769  0.2865
  867MOL0     C14358   7.666   5.276   1.251  0.3747 -0.1882 -0.0205
  867MOL0     O14359   7.677   5.501   1.553  0.7283 -0.0907 -0.0217
  867MOL0     C14360   7.526   5.719   1.623 -0.3413  0.3442 -0.9397
  867MOL0     C14361   7.456   5.838   1.634  0.4521 -0.1337  0.7228
  867MOL0     N14362   6.832   6.304   1.421  0.4679 -0.4418  0.6377
  867MOL0     N14363   6.782   6.269   1.304  0.0906 -0.6846 -1.1420
  867MOL0     C14364   6.295   6.296   0.303  0.0173  0.2550  0.2779
  867MOL0     C14365   6.180   6.331   0.228 -0.0144 -0.0497 -0.5301
  867MOL0     C14366   5.855   6.460  -0.037 -0.2160 -0.4863 -0.0208
  867MOL0     C14367   5.755   6.381  -0.102 -0.8857 -0.4044 -0.4004
  867MOL0     C14368   5.631   6.440  -0.142 -0.5011 -0.4787  0.1727
  867MOL0     C14369   5.602   6.578  -0.114  0.3850  0.7230  1.4629
  867MOL0     O14370   5.494   6.639  -0.161 -0.0330  0.2791  0.6115
  867MOL0     C14371   5.374   6.563  -0.180 -1.1714 -0.2517 -0.6159
  867MOL0     C14372   5.293   6.640  -0.285  0.0179 -0.5503 -1.2068
  867MOL0     C14373   5.160   6.565  -0.311 -0.0018 -0.3662  1.1408
  867MOL0     C14374   5.181   6.442  -0.408  0.9685 -0.1099 -0.2426
  867MOL0     C14375   5.055   6.401  -0.475 -0.0648 -0.6060  0.5172
  867MOL0     C14376   4.960   6.363  -0.532 -0.3766  0.0584  0.1046
  867MOL0     C14377   5.701   6.655  -0.057 -0.4281  0.4189  0.6760
  867MOL0     C14378   5.821   6.600  -0.024 -0.2241  0.2314 -1.4571
  867MOL0     H14379   6.309   6.574   0.035  1.2111 -1.7524 -1.8844
  867MOL0     H14380   6.523   6.502   0.173  0.9412 -2.3707 -0.5915
  867MOL0     H14381   6.637   6.456   0.360 -4.3290 -0.0265 -1.1367
  867MOL0     H14382   6.667   6.367   0.214  4.5300 -0.5411  0.5286
  867MOL0     H14383   6.849   6.321   0.363  0.8968 -1.4899  1.2179
  867MOL0     H14384   6.749   6.176   0.375  1.3076 -0.0765  0.2429
  867MOL0     H14385   6.645   6.294   0.586 -1.1300  1.4046 -0.8709
  867MOL0     H14386   6.782   6.408   0.574 -1.8704  0.6126  0.6248
  867MOL0     H14387   6.820   6.113   0.583 -0.6824 -0.5566  2.1157
  867MOL0     H14388   6.953   6.227   0.576  0.4370  0.6022 -0.7430
  867MOL0     H14389   6.893   6.125   0.814 -0.2077  1.0854  2.1288
  867MOL0     H14390   6.739   6.208   0.812  0.1882 -0.6992 -0.5943
  867MOL0     H14391   6.832   6.411   0.824  0.0228  0.7314 -2.6510
  867MOL0     H14392   6.994   6.365   0.764 -0.9449 -1.9432 -1.1533
  867MOL0     H14393   7.061   6.236   0.948 -0.0889  0.2789  0.5043
  867MOL0     H14394   7.029   6.397   1.000 -0.4668  0.2188  1.6727
  867MOL0     H14395   6.847   6.135   1.053 -3.4919 -0.0533 -0.0447
  867MOL0     H14396   6.762   6.283   1.024 -1.0897 -0.1940 -1.4545
  867MOL0     H14397   7.096   6.297   1.227  0.3867 -2.8025  0.9963
  867MOL0     H14398   7.009   6.376   1.595  0.8690  0.0062  0.2305
  867MOL0     H14399   7.152   6.406   1.496 -1.9640  0.7030 -1.5857
  867MOL0     H14400   7.129   6.143   1.467 -1.8511  0.8790 -0.7408
  867MOL0     H14401   7.040   6.136   1.618 -0.2769  0.9248  0.1192
  867MOL0     H14402   7.313   6.275   1.581 -0.4598  1.4690 -0.1994
  867MOL0     H14403   7.232   6.271   1.731  2.1981 -1.6349  1.5427
  867MOL0     H14404   7.244   6.014   1.731 -1.6466 -2.7442 -3.6755
  867MOL0     H14405   7.407   6.099   1.719  1.4091 -1.2796 -1.8859
  867MOL0     H14406   7.345   5.894   1.318  1.9172  3.1664  0.1065
  867MOL0     H14407   7.452   5.677   1.288  1.0660  2.9963 -1.9049
  867MOL0     H14408   7.484   5.293   1.534  3.0651  1.8751  2.0173
  867MOL0     H14409   7.491   5.066   1.518 -0.1797  1.2151  0.6406
  867MOL0     H14410   7.747   4.871   1.159  2.9180 -1.0346 -0.5626
  867MOL0     H14411   7.729   4.744   1.258  5.4793 -0.9857 -1.2113
  867MOL0     H14412   7.896   5.004   1.336 -1.2037  0.0442  0.8800
  867MOL0     H14413   7.973   4.866   1.251 -1.5207 -1.8513 -1.1369
  867MOL0     H14414   7.866   4.749   1.464 -0.4230  0.2089  0.9072
  867MOL0     H14415   7.866   4.908   1.529 -1.8776 -0.2109  0.0419
  867MOL0     H14416   8.128   4.778   1.445  1.4331  2.2695 -0.9953
  867MOL0     H14417   8.091   4.937   1.519 -2.5130  1.0800  1.7431
  867MOL0     H14418   8.065   4.673   1.668  0.5608 -0.2061  3.3740
  867MOL0     H14419   8.010   4.826   1.726 -1.3690  0.2967 -3.0610
  867MOL0     H14420   8.221   4.768   1.815  2.6658 -0.5943 -0.7900
  867MOL0     H14421   8.230   4.919   1.728  2.8609  0.5210  0.3100
  867MOL0     H14422   8.296   4.640   1.618 -0.3711 -0.1529 -0.5303
  867MOL0     H14423   8.329   4.796   1.538  0.5800  1.2975  1.2923
  867MOL0     H14424   8.522   4.706   1.621  0.4265  0.6220  0.0941
  867MOL0     H14425   8.458   4.686   1.794 -0.9976 -0.1879  0.2046
  867MOL0     H14426   7.746   5.101   1.166  1.0553 -0.2229  1.1389
  867MOL0     H14427   7.726   5.331   1.179  0.9870 -1.0790 -0.2117
  867MOL0     H14428   7.588   5.675   1.700  0.8937  0.3182 -1.9172
  867MOL0     H14429   7.446   5.891   1.728 -1.4538  1.6139 -0.3844
  867MOL0     H14430   6.283   6.215   0.374  0.4888 -0.9335 -0.9589
  867MOL0     H14431   6.088   6.276   0.246  0.2842 -0.3156  0.2535
  867MOL0     H14432   5.771   6.274  -0.117 -1.2241 -0.8466  2.0024
  867MOL0     H14433   5.569   6.370  -0.198  1.4154 -2.0834 -0.0852
  867MOL0     H14434   5.329   6.553  -0.081 -0.6941  0.8319 -0.2767
  867MOL0     H14435   5.388   6.462  -0.219  1.5149 -0.6298  1.0971
  867MOL0     H14436   5.265   6.741  -0.254  4.0954  0.4149 -0.1037
  867MOL0     H14437   5.339   6.650  -0.383 -2.5980  2.0492 -2.3157
  867MOL0     H14438   5.096   6.638  -0.362  0.7253 -2.0724 -2.5015
  867MOL0     H14439   5.105   6.530  -0.223 -1.8212  0.6083  0.4472
  867MOL0     H14440   5.260   6.461  -0.481  0.9182  1.6811  0.1197
  867MOL0     H14441   5.215   6.358  -0.348  0.6262  1.3710  2.1722
  867MOL0     H14442   4.871   6.332  -0.582  0.2017 -0.3266 -0.7234
  867MOL0     H14443   5.691   6.763  -0.053 -0.5077  0.5149 -1.2292
  867MOL0     H14444   5.888   6.670   0.024 -4.2227  2.6543  1.2834
  868MOL0     O14445   6.499   3.068   2.058  0.5608  0.0603 -0.1525
  868MOL0     C14446   6.563   2.970   2.088 -0.2485  0.0851 -0.0287
  868MOL0     O14447   6.617   2.948   2.207 -0.3876  0.4096  0.0216
  868MOL0     C14448   6.564   3.023   2.312 -1.0325 -0.7817 -0.3082
  868MOL0     C14449   6.653   3.110   2.384 -0.5464 -0.2607 -0.1821
  868MOL0     C14450   6.624   3.180   2.499  0.2932 -0.1594  0.4396
  868MOL0     C14451   6.487   3.165   2.534  0.3000  0.6677  0.7557
  868MOL0     O14452   6.446   3.229   2.643  0.4695 -0.1791 -0.2047
  868MOL0     C14453   6.466   3.374   2.655  0.3127 -0.6585 -0.1696
  868MOL0     C14454   6.333   3.436   2.705  0.5068 -0.7809  1.0589
  868MOL0     C14455   6.214   3.461   2.601  0.4706  0.2966  0.5463
  868MOL0     C14456   6.091   3.518   2.674 -0.9350 -0.2102 -0.4719
  868MOL0     C14457   5.983   3.556   2.577  0.0106  0.3269  0.8545
  868MOL0     C14458   5.852   3.596   2.646 -0.4893  0.6150 -0.3049
  868MOL0     C14459   5.741   3.618   2.545  0.2528  0.5348 -0.4565
  868MOL0     C14460   5.601   3.667   2.597  0.5207  1.1404 -0.1571
  868MOL0     N14461   5.598   3.806   2.659  0.5697  0.0872  0.0113
  868MOL0     C14462   5.636   3.929   2.609  0.0389  0.0575 -0.2427
  868MOL0     C14463   5.658   4.004   2.718 -0.5592 -0.2405  0.3911
  868MOL0     C14464   5.707   4.145   2.715  0.7089 -0.0207  0.2893
  868MOL0     C14465   5.854   4.159   2.686  0.7063  0.5561 -1.0302
  868MOL0     C14466   5.878   4.282   2.588 -1.5388  0.1518 -0.5850
  868MOL0     C14467   5.907   4.229   2.453  0.0803 -0.2341  0.6002
  868MOL0     O14468   5.801   4.166   2.377  0.5529  0.4518  0.2172
  868MOL0     C14469   5.819   4.133   2.241 -0.0428 -0.0366 -0.2573
  868MOL0     C14470   5.713   4.145   2.153 -0.0637  0.0755  0.7354
  868MOL0     C14471   5.741   4.109   2.011 -0.4663 -0.6493  0.0225
  868MOL0     C14472   5.861   4.067   1.959  0.5003  0.6205  0.6968
  868MOL0     C14473   5.872   4.041   1.811  0.2172 -0.1420 -0.2407
  868MOL0     O14474   5.781   4.099   1.730 -0.1968 -0.0905  0.1122
  868MOL0     C14475   5.802   4.146   1.599  0.7079  0.6493 -0.0356
  868MOL0     C14476   5.926   4.164   1.537  0.5966  1.0295  0.9515
  868MOL0     C14477   5.930   4.204   1.396 -0.8924 -0.6030 -0.7428
  868MOL0     C14478   5.815   4.218   1.323 -0.4687 -0.5789  0.3358
  868MOL0     O14479   5.817   4.246   1.186 -0.0209  0.3699  0.0095
  868MOL0     C14480   5.916   4.336   1.134  0.2752  0.1020 -0.2506
  868MOL0     C14481   5.858   4.401   0.998 -0.3156  0.8317 -0.0828
  868MOL0     C14482   5.704   4.422   0.998  0.3664  0.4485 -0.1774
  868MOL0     C14483   5.665   4.494   0.873 -0.0595  0.3344  1.2452
  868MOL0     C14484   5.523   4.535   0.875  0.5245 -0.0433 -0.4069
  868MOL0     C14485   5.495   4.606   0.732 -0.5444 -0.3390 -2.2704
  868MOL0     C14486   5.357   4.674   0.729  0.2948 -0.3372  0.6619
  868MOL0     C14487   5.252   4.582   0.699 -0.7286  0.0993  0.1943
  868MOL0    Cl14488   5.113   4.675   0.634  0.1927  0.4232  0.5285
  868MOL0     C14489   5.691   4.208   1.388  0.4118 -0.6284 -0.2772
  868MOL0     C14490   5.685   4.171   1.525 -0.0232  0.0240  0.7755
  868MOL0     O14491   5.974   3.985   1.770  1.0014 -0.1645  0.9456
  868MOL0     C14492   5.963   4.050   2.052  0.3687 -0.1619  0.0504
  868MOL0     C14493   5.939   4.086   2.187 -0.0460  0.3617  0.4816
  868MOL0     N14494   5.651   3.925   2.835 -0.3387 -0.3990  0.9277
  868MOL0     N14495   5.633   3.808   2.786  0.2340 -0.6766 -0.6467
  868MOL0     C14496   6.393   3.080   2.466 -0.5888 -0.4709 -0.4482
  868MOL0     C14497   6.434   3.008   2.355 -0.0820  0.4097 -0.4397
  868MOL0     C14498   6.607   2.870   1.988  0.2124  0.8188 -0.3901
  868MOL0     C14499   6.540   2.864   1.864  0.7560  0.0121  0.2886
  868MOL0     C14500   6.588   2.779   1.766  0.9303  0.0351 -0.6329
  868MOL0     C14501   6.700   2.700   1.789 -0.4254  0.6351 -0.1964
  868MOL0     O14502   6.734   2.614   1.688  0.3292 -0.2362  0.8636
  868MOL0     C14503   6.869   2.620   1.645 -0.0369  0.2212 -0.6816
  868MOL0     C14504   6.922   2.755   1.624  0.1668  0.2249 -0.7786
  868MOL0     C14505   6.843   2.830   1.524  0.6493  0.7866  0.1942
  868MOL0     C14506   6.906   2.963   1.491  0.1048  0.2392  0.2104
  868MOL0     C14507   6.838   3.012   1.363  0.9884  0.4334 -0.8647
  868MOL0     C14508   6.774   3.058   1.275  0.0273  0.2319  0.0730
  868MOL0     C14509   6.771   2.715   1.913  0.2265 -0.3159  0.2977
  868MOL0     C14510   6.723   2.801   2.009 -0.4372  0.5337 -0.0877
  868MOL0     H14511   6.756   3.104   2.351 -1.0517 -4.7273 -1.5849
  868MOL0     H14512   6.695   3.244   2.550  3.4108 -1.1006 -2.4369
  868MOL0     H14513   6.514   3.418   2.567 -0.1085 -0.9014 -0.5249
  868MOL0     H14514   6.540   3.391   2.734 -0.4807  2.4310  0.0490
  868MOL0     H14515   6.358   3.530   2.753  1.6173 -0.5871  0.1549
  868MOL0     H14516   6.297   3.364   2.779  0.3013 -2.7264 -0.8314
  868MOL0     H14517   6.185   3.368   2.553 -1.4831  1.1835 -0.0969
  868MOL0     H14518   6.245   3.535   2.526  0.6748 -0.8271 -0.5206
  868MOL0     H14519   6.057   3.442   2.744 -1.7374  2.6227  2.4604
  868MOL0     H14520   6.109   3.606   2.736 -1.5886  0.6486 -1.4668
  868MOL0     H14521   5.974   3.464   2.517  0.9762 -0.4295  1.8347
  868MOL0     H14522   6.021   3.633   2.509 -1.2086 -0.2681 -0.5562
  868MOL0     H14523   5.862   3.691   2.701 -1.6324  1.7539 -1.9781
  868MOL0     H14524   5.823   3.513   2.711  0.4196  1.5599  1.3810
  868MOL0     H14525   5.782   3.692   2.475  0.7589 -1.1734 -2.0216
  868MOL0     H14526   5.724   3.530   2.483 -0.4120  0.4610 -0.1725
  868MOL0     H14527   5.577   3.598   2.678  0.7502 -0.4696 -1.4036
  868MOL0     H14528   5.520   3.662   2.524 -1.7706 -0.3798  2.3320
  868MOL0     H14529   5.644   3.965   2.506 -1.1899  0.0206 -0.3661
  868MOL0     H14530   5.680   4.194   2.809  0.6814  0.8767 -0.1668
  868MOL0     H14531   5.649   4.204   2.642  1.0026  1.1267  0.9531
  868MOL0     H14532   5.901   4.072   2.640 -0.5346 -0.6149 -0.1823
  868MOL0     H14533   5.886   4.189   2.787 -2.9376  3.2433 -0.4629
  868MOL0     H14534   5.790   4.345   2.577 -2.5026 -0.8546  1.0312
  868MOL0     H14535   5.953   4.356   2.618 -2.1142  1.5870 -2.4613
  868MOL0     H14536   5.989   4.156   2.443 -0.1977 -0.3751 -0.8636
  868MOL0     H14537   5.943   4.300   2.378  4.3042 -5.0919 -2.7673
  868MOL0     H14538   5.616   4.171   2.194 -0.1617 -0.1585  0.6521
  868MOL0     H14539   5.652   4.101   1.948 -1.3500 -0.9111  1.2608
  868MOL0     H14540   6.016   4.125   1.584  0.5867  0.4933  0.5324
  868MOL0     H14541   6.028   4.197   1.350  0.2444 -4.6995  1.6828
  868MOL0     H14542   6.010   4.286   1.111  0.1008  0.3490 -1.5873
  868MOL0     H14543   5.930   4.412   1.211 -0.3709  0.1856 -0.2084
  868MOL0     H14544   5.879   4.343   0.908 -0.9587  1.8270 -0.8962
  868MOL0     H14545   5.907   4.495   0.972  4.3229 -1.8550 -2.5603
  868MOL0     H14546   5.659   4.482   1.077  3.1513  0.4952  1.5300
  868MOL0     H14547   5.648   4.328   1.006  1.3987 -0.3676 -1.8872
  868MOL0     H14548   5.723   4.585   0.855  1.0595 -0.8333 -1.6589
  868MOL0     H14549   5.678   4.423   0.790 -1.8693  1.5125 -0.1395
  868MOL0     H14550   5.506   4.605   0.957 -0.1237 -0.6104 -0.0407
  868MOL0     H14551   5.451   4.455   0.898  1.6462 -0.0907  3.8117
  868MOL0     H14552   5.515   4.542   0.646 -0.5885 -0.1403 -2.4324
  868MOL0     H14553   5.576   4.680   0.732  2.1726 -2.6276  3.5647
  868MOL0     H14554   5.355   4.711   0.831 -1.1030  3.9362 -0.6991
  868MOL0     H14555   5.343   4.755   0.657  3.3812  0.1326  0.4455
  868MOL0     H14556   5.240   4.524   0.791  0.6843 -1.3259 -0.4716
  868MOL0     H14557   5.283   4.505   0.628  2.5086  4.0103 -3.1391
  868MOL0     H14558   5.602   4.224   1.329 -0.2780  1.1346  1.1576
  868MOL0     H14559   5.588   4.157   1.572  0.5930 -0.6170  1.9197
  868MOL0     H14560   6.057   4.009   2.018 -0.1746 -1.7431  0.3314
  868MOL0     H14561   6.018   4.055   2.255 -0.4177 -3.0775 -0.4592
  868MOL0     H14562   6.297   3.068   2.515 -1.2842 -2.7719 -2.1722
  868MOL0     H14563   6.370   2.941   2.298 -0.6403 -0.2591  0.9181
  868MOL0     H14564   6.448   2.918   1.844 -0.2216 -2.2390 -1.8723
  868MOL0     H14565   6.533   2.762   1.674 -0.4535  1.3385 -0.0784
  868MOL0     H14566   6.873   2.568   1.548  0.9051 -1.4898  0.2316
  868MOL0     H14567   6.944   2.576   1.711 -1.6018 -0.4038  0.7630
  868MOL0     H14568   6.930   2.809   1.718 -4.1076  1.4810 -0.9297
  868MOL0     H14569   7.018   2.731   1.575  1.6154  1.6845  1.2052
  868MOL0     H14570   6.748   2.845   1.576  0.2525  0.2082 -0.3464
  868MOL0     H14571   6.837   2.764   1.437  0.1886 -0.3165  1.0295
  868MOL0     H14572   6.903   3.026   1.580 -0.1395  1.0478 -0.3633
  868MOL0     H14573   7.012   2.959   1.464  0.1182 -2.9470  0.3224
  868MOL0     H14574   6.716   3.115   1.205  0.5834  1.7065  0.7752
  868MOL0     H14575   6.867   2.667   1.929  1.7098  2.1459 -0.6330
  868MOL0     H14576   6.779   2.805   2.102  0.6500 -0.0744 -0.6890
  869MOL0     O14577   5.730   0.034   8.552 -0.4407 -0.0004  0.2732
  869MOL0     C14578   5.756   0.061   8.670 -0.3047  0.1793 -0.0120
  869MOL0     O14579   5.672   0.038   8.777 -0.0909 -0.4786  0.0638
  869MOL0     C14580   5.549  -0.018   8.750  0.2086 -0.4514  0.5590
  869MOL0     C14581   5.444   0.040   8.672 -0.3270  0.8008 -0.1763
  869MOL0     C14582   5.316  -0.026   8.656 -0.3552 -0.2367  0.9209
  869MOL0     C14583   5.296  -0.150   8.711 -0.3711 -0.3180 -0.0973
  869MOL0     O14584   5.180  -0.217   8.695  0.1283  0.3546 -0.4322
  869MOL0     C14585   5.060  -0.168   8.627  0.0827  0.2372 -0.1396
  869MOL0     C14586   4.969  -0.066   8.703 -0.2333  0.2562 -0.6299
  869MOL0     C14587   4.967  -0.087   8.853  0.4870  0.5571  0.3731
  869MOL0     C14588   4.845  -0.017   8.918  0.3278 -0.4939  0.3242
  869MOL0     C14589   4.833  -0.042   9.070 -0.4706  0.3408 -0.0899
  869MOL0     C14590   4.954   0.018   9.147 -0.4497 -0.1029 -0.5008
  869MOL0     C14591   4.936  -0.014   9.297  0.1833  0.2283 -0.8140
  869MOL0     C14592   4.811   0.047   9.362  1.2261 -0.3905 -1.5292
  869MOL0     N14593   4.811   0.201   9.355 -0.1348 -0.2707  0.5764
  869MOL0     C14594   4.902   0.298   9.375  0.1220  0.0872  1.0637
  869MOL0     C14595   4.835   0.418   9.361  0.0398 -0.2426 -0.1001
  869MOL0     C14596   4.886   0.561   9.393  0.1170  0.2292 -0.8133
  869MOL0     C14597   4.948   0.648   9.281 -0.1898  0.2109  0.1925
  869MOL0     C14598   5.093   0.604   9.243 -0.5052 -0.3062  0.2597
  869MOL0     C14599   5.140   0.722   9.164  0.2142  0.5276  0.3329
  869MOL0     O14600   5.258   0.687   9.080 -0.1630  0.2284  0.5018
  869MOL0     C14601   5.368   0.716   9.149  0.2507 -0.0586  0.4240
  869MOL0     C14602   5.394   0.852   9.179 -0.2590 -0.7009  0.0605
  869MOL0     C14603   5.500   0.892   9.254 -0.2244 -0.6414 -0.1966
  869MOL0     C14604   5.588   0.797   9.311 -0.5978 -0.7123  0.0319
  869MOL0     C14605   5.694   0.847   9.407  0.2069 -0.2540  1.1921
  869MOL0     O14606   5.761   0.753   9.473 -0.3191  0.2803 -0.0118
  869MOL0     C14607   5.849   0.796   9.567 -0.6144 -0.0383  0.9286
  869MOL0     C14608   5.980   0.810   9.516 -0.0100 -0.5490 -0.5989
  869MOL0     C14609   6.065   0.857   9.606  0.2611  0.3021  0.3089
  869MOL0     C14610   6.035   0.860   9.744  0.3008 -0.4359 -0.7342
  869MOL0     O14611   6.126   0.889   9.846  0.5786  0.0948  0.0255
  869MOL0     C14612   6.256   0.848   9.822 -0.1363  1.0858 -0.7376
  869MOL0     C14613   6.332   0.830   9.952  0.0762 -0.1725  0.3160
  869MOL0     C14614   6.371   0.688  10.005 -0.0173  0.5859  0.0002
  869MOL0     C14615   6.243   0.605  10.026  0.1516 -0.1793 -0.5226
  869MOL0     C14616   6.249   0.505  10.143  0.2226  0.0400  1.0933
  869MOL0     C14617   6.110   0.429  10.134 -0.7209 -0.1862  0.0483
  869MOL0     C14618   6.096   0.303  10.047 -0.1800 -0.7319  0.0030
  869MOL0     C14619   6.114   0.173  10.118  0.6045 -0.2443  0.5055
  869MOL0    Cl14620   6.118   0.031  10.000  0.0838 -0.3353 -0.1257
  869MOL0     C14621   5.906   0.836   9.799  0.3259  0.6781 -0.4627
  869MOL0     C14622   5.809   0.811   9.706 -0.1575 -0.3137 -0.5806
  869MOL0     O14623   5.719   0.969   9.411 -0.0742 -0.5357 -0.1492
  869MOL0     C14624   5.565   0.659   9.280 -1.0180 -0.0240  0.2315
  869MOL0     C14625   5.459   0.618   9.196 -0.7546 -1.0556  0.3325
  869MOL0     N14626   4.711   0.382   9.316  0.1370 -0.8698 -0.3846
  869MOL0     N14627   4.692   0.257   9.312 -0.6149 -0.3244 -0.3779
  869MOL0     C14628   5.388  -0.188   8.807 -0.9946 -0.4157  0.4324
  869MOL0     C14629   5.511  -0.135   8.824 -0.7056  0.1515 -0.2810
  869MOL0     C14630   5.901   0.093   8.690  0.3409 -0.1153  0.4913
  869MOL0     C14631   6.003   0.100   8.589  0.1787  0.1257 -0.6415
  869MOL0     C14632   6.129   0.161   8.618  0.7391  0.6702  0.4749
  869MOL0     C14633   6.154   0.215   8.740  0.5057  0.3420 -0.2313
  869MOL0     O14634   6.269   0.280   8.772 -0.6093  0.3230 -0.6536
  869MOL0     C14635   6.390   0.210   8.735  0.0387 -0.3041  0.4559
  869MOL0     C14636   6.524   0.241   8.817  1.1715 -0.7784  0.2751
  869MOL0     C14637   6.601   0.115   8.853  0.5240  0.3153  0.6816
  869MOL0     C14638   6.724   0.128   8.931 -0.5579 -0.4343  0.7209
  869MOL0     C14639   6.834   0.200   8.860 -0.7703 -0.3867  0.1080
  869MOL0     C14640   6.913   0.274   8.800 -0.1315  0.3744 -0.7145
  869MOL0     C14641   6.066   0.192   8.839 -0.2554 -0.7528  0.6017
  869MOL0     C14642   5.937   0.143   8.816 -0.3761  0.6169  0.9183
  869MOL0     H14643   5.466   0.130   8.615  2.6599 -1.6147 -3.2185
  869MOL0     H14644   5.244   0.018   8.588  0.0271  1.0935  1.3447
  869MOL0     H14645   5.001  -0.259   8.608  0.9450 -0.0049 -1.8528
  869MOL0     H14646   5.091  -0.128   8.531 -4.7350  0.6825 -1.7524
  869MOL0     H14647   4.867  -0.089   8.671  0.5456 -3.3788 -0.9026
  869MOL0     H14648   4.984   0.042   8.698 -1.0373  0.4457  0.5196
  869MOL0     H14649   5.060  -0.059   8.904  0.4314 -0.4323  1.0639
  869MOL0     H14650   4.951  -0.195   8.861  0.5551  0.6398  2.1869
  869MOL0     H14651   4.861   0.090   8.904 -0.7115  0.2306  3.7141
  869MOL0     H14652   4.754  -0.050   8.866 -0.0896 -1.1294  1.4127
  869MOL0     H14653   4.833  -0.150   9.091 -1.5531  0.8210  2.8702
  869MOL0     H14654   4.731  -0.010   9.095 -0.8774  0.1894 -1.4925
  869MOL0     H14655   4.959   0.125   9.124  2.9872 -0.3764 -1.5456
  869MOL0     H14656   5.051  -0.026   9.125  1.1216  1.8299  2.0194
  869MOL0     H14657   4.936  -0.122   9.318  0.3319  0.6228  1.5495
  869MOL0     H14658   5.025  -0.000   9.359 -1.1660 -1.1603  1.5959
  869MOL0     H14659   4.810   0.015   9.466 -1.2408 -1.6576 -1.8848
  869MOL0     H14660   4.725   0.002   9.311  2.2693 -2.3818 -1.6471
  869MOL0     H14661   5.009   0.293   9.395  0.6384  0.1249 -1.4664
  869MOL0     H14662   4.962   0.561   9.472  0.9812 -2.5259 -1.5007
  869MOL0     H14663   4.793   0.604   9.430 -1.4736 -0.5461 -3.5812
  869MOL0     H14664   4.951   0.746   9.329 -0.5855  0.6072 -0.5728
  869MOL0     H14665   4.871   0.645   9.204  2.0483 -0.5248 -2.1337
  869MOL0     H14666   5.155   0.586   9.331  3.1712  1.1712 -1.8032
  869MOL0     H14667   5.090   0.522   9.170 -1.6957 -1.2636  1.3500
  869MOL0     H14668   5.146   0.811   9.227 -2.8727  0.5143  0.7870
  869MOL0     H14669   5.061   0.745   9.091  0.3448  0.9710  0.3232
  869MOL0     H14670   5.330   0.929   9.137  1.5513  0.6308 -0.3901
  869MOL0     H14671   5.494   0.998   9.273 -0.9317 -0.4097 -1.5560
  869MOL0     H14672   5.992   0.796   9.409 -2.4903 -1.0985 -0.8846
  869MOL0     H14673   6.165   0.888   9.577  0.2612  3.5598  3.1178
  869MOL0     H14674   6.306   0.928   9.766 -0.0460  2.2519  0.9532
  869MOL0     H14675   6.256   0.751   9.771  3.4864 -0.3289  1.5613
  869MOL0     H14676   6.261   0.874  10.023  2.3071  0.8440  2.0398
  869MOL0     H14677   6.418   0.897   9.960 -1.1033  1.4332 -0.0164
  869MOL0     H14678   6.424   0.702  10.100 -0.0454  2.2814 -0.1927
  869MOL0     H14679   6.450   0.636   9.950 -1.1627 -1.9811  0.6591
  869MOL0     H14680   6.163   0.671  10.060  0.9516 -0.6434  2.5912
  869MOL0     H14681   6.209   0.558   9.933 -1.3880 -0.2389  0.0415
  869MOL0     H14682   6.252   0.558  10.239 -1.7777  1.1644  0.6008
  869MOL0     H14683   6.323   0.425  10.129 -0.7647 -0.5729 -1.0396
  869MOL0     H14684   6.027   0.496  10.109 -1.4062 -0.8967  0.3859
  869MOL0     H14685   6.105   0.404  10.240  2.1548 -0.8197  0.1234
  869MOL0     H14686   5.992   0.302  10.013 -0.0318 -2.5975 -0.5155
  869MOL0     H14687   6.159   0.303   9.957  0.8382  1.3068  0.6774
  869MOL0     H14688   6.040   0.152  10.196 -1.1277 -0.1068 -1.0315
  869MOL0     H14689   6.212   0.167  10.166  0.8404  0.6913  0.1661
  869MOL0     H14690   5.907   0.841   9.907  2.1081 -0.6640 -0.3757
  869MOL0     H14691   5.704   0.785   9.715 -0.7543  0.5768 -3.6743
  869MOL0     H14692   5.631   0.580   9.315 -1.9556 -1.2556 -0.6809
  869MOL0     H14693   5.434   0.519   9.159  0.0227 -0.1560 -2.8667
  869MOL0     H14694   5.380  -0.281   8.863  0.5524 -1.6780 -1.2864
  869MOL0     H14695   5.575  -0.156   8.909 -0.8440  0.5992 -0.0646
  869MOL0     H14696   5.986   0.059   8.490 -0.0831  2.1721 -1.4829
  869MOL0     H14697   6.198   0.176   8.536 -0.9383  4.2738 -0.4954
  869MOL0     H14698   6.412   0.233   8.630 -0.3349 -3.0319 -0.2869
  869MOL0     H14699   6.376   0.102   8.731  0.9251 -0.5495  2.6277
  869MOL0     H14700   6.590   0.315   8.770 -1.0038 -1.0743 -3.6573
  869MOL0     H14701   6.476   0.280   8.907 -0.6305  0.6911 -1.2328
  869MOL0     H14702   6.620   0.062   8.759  0.9341 -1.6184  1.8021
  869MOL0     H14703   6.525   0.056   8.905 -1.1502  1.5078 -0.3017
  869MOL0     H14704   6.709   0.180   9.027 -0.7282 -1.8159  1.4701
  869MOL0     H14705   6.758   0.029   8.962 -0.5990 -0.9972 -0.9343
  869MOL0     H14706   6.987   0.332   8.748  1.7410  0.9177  2.2870
  869MOL0     H14707   6.088   0.237   8.936 -0.0896 -3.0141  1.6782
  869MOL0     H14708   5.872   0.139   8.904 -2.5068  0.7749 -0.5684
  870MOL0     O14709   2.067   4.426  11.179  0.9767  0.2389  0.5732
  870MOL0     C14710   2.016   4.533  11.148  0.6744 -1.6112  0.3926
  870MOL0     O14711   2.082   4.645  11.103  1.1996  0.2728 -0.2842
  870MOL0     C14712   2.209   4.658  11.135 -0.5314  0.1498 -0.6415
  870MOL0     C14713   2.253   4.724  11.255 -0.4101  0.3612  0.2070
  870MOL0     C14714   2.387   4.759  11.276 -0.2836 -0.3853  0.2344
  870MOL0     C14715   2.484   4.737  11.180  0.3095  0.4764 -0.8880
  870MOL0     O14716   2.616   4.756  11.223 -0.2676  0.0544  0.2629
  870MOL0     C14717   2.718   4.735  11.118 -0.4073 -0.2328  1.0123
  870MOL0     C14718   2.715   4.845  11.001  0.1394  0.6589 -0.7886
  870MOL0     C14719   2.827   4.814  10.909  0.3847  0.2394 -0.4145
  870MOL0     C14720   2.824   4.921  10.802 -0.2592  0.2596  0.4101
  870MOL0     C14721   2.920   4.892  10.690  0.5736  0.2577  0.6452
  870MOL0     C14722   2.906   5.011  10.590  1.1503  0.3855 -0.7025
  870MOL0     C14723   2.988   4.980  10.463 -0.5772 -0.4178  0.3305
  870MOL0     C14724   2.968   5.099  10.370  0.0129  0.4326 -0.3918
  870MOL0     N14725   3.006   5.056  10.239  0.1662  0.0282 -0.1955
  870MOL0     C14726   3.109   5.091  10.163 -0.4436  1.2746  0.3087
  870MOL0     C14727   3.121   4.992  10.070  0.0902 -0.1831  0.0227
  870MOL0     C14728   3.222   5.002   9.959  0.6961 -0.6834  0.2186
  870MOL0     C14729   3.189   5.125   9.868 -0.0934 -0.5959  0.0680
  870MOL0     C14730   3.088   5.090   9.743 -0.3970  0.8553 -0.8151
  870MOL0     C14731   2.949   5.064   9.801  0.3369  0.0021 -0.7515
  870MOL0     O14732   2.853   5.062   9.698 -0.8621 -1.2653  0.1111
  870MOL0     C14733   2.729   5.055   9.736  0.2676  0.9901  0.3279
  870MOL0     C14734   2.675   4.996   9.847 -0.6513  0.7957  0.7515
  870MOL0     C14735   2.543   4.967   9.857 -0.2983  0.5498  0.1818
  870MOL0     C14736   2.457   5.003   9.764  0.5087 -0.0851 -0.0213
  870MOL0     C14737   2.311   4.993   9.775  0.3061 -0.6990  0.0047
  870MOL0     O14738   2.262   5.016   9.906  0.3632 -0.2075  0.2030
  870MOL0     C14739   2.145   4.950   9.931  0.8342 -0.0942 -0.6190
  870MOL0     C14740   2.070   5.026  10.024  0.8751  0.1823 -0.0747
  870MOL0     C14741   1.939   4.987  10.052 -1.0777  0.9239 -0.3550
  870MOL0     C14742   1.877   4.872  10.005 -0.2429  0.3984  0.8349
  870MOL0     O14743   1.758   4.841  10.058 -0.0981  0.2976  0.2233
  870MOL0     C14744   1.706   4.714  10.017 -0.2706 -0.9947  0.5672
  870MOL0     C14745   1.600   4.685  10.113 -0.0608  0.0873  0.5736
  870MOL0     C14746   1.518   4.557  10.093 -1.0788  0.6411  0.5770
  870MOL0     C14747   1.433   4.530  10.214  0.0684 -0.1453  0.1719
  870MOL0     C14748   1.339   4.406  10.198 -0.1875 -0.5661 -0.8029
  870MOL0     C14749   1.239   4.411  10.084 -0.0643 -0.0732 -0.2540
  870MOL0     C14750   1.136   4.298  10.092  0.7439  0.5608  0.3429
  870MOL0     C14751   1.003   4.309  10.012 -1.2833 -0.5739 -1.0294
  870MOL0    Cl14752   0.865   4.233  10.102 -0.3722 -0.5506 -0.3787
  870MOL0     C14753   1.956   4.794   9.908  0.0916  0.1259 -0.0888
  870MOL0     C14754   2.084   4.843   9.872 -0.3265  0.3257 -0.0623
  870MOL0     O14755   2.239   4.979   9.676  0.5439  0.2666 -0.9645
  870MOL0     C14756   2.506   5.082   9.657 -0.0353  0.6162 -0.0572
  870MOL0     C14757   2.645   5.087   9.632 -0.5981  0.1951  1.5290
  870MOL0     N14758   3.016   4.911  10.074  0.2649  0.3641  0.2220
  870MOL0     N14759   2.952   4.940  10.187  0.1406 -0.4205  0.2647
  870MOL0     C14760   2.442   4.686  11.059 -0.5714 -0.2568 -0.3940
  870MOL0     C14761   2.311   4.644  11.035 -0.4601 -0.5123  0.2516
  870MOL0     C14762   1.871   4.537  11.141  0.0584  0.4865 -0.0640
  870MOL0     C14763   1.786   4.425  11.128  0.1690  0.2949 -0.3749
  870MOL0     C14764   1.647   4.455  11.107  0.5249 -0.5095 -0.2872
  870MOL0     C14765   1.590   4.583  11.103 -0.6446  0.7267 -0.9953
  870MOL0     O14766   1.458   4.609  11.072  0.0594 -0.1736 -0.2131
  870MOL0     C14767   1.360   4.535  11.141  0.3416 -0.8251 -0.2303
  870MOL0     C14768   1.355   4.570  11.290  0.4504 -0.0326 -0.3049
  870MOL0     C14769   1.337   4.726  11.329  0.3876  0.9263 -0.4023
  870MOL0     C14770   1.194   4.785  11.314 -0.2696  0.8563 -0.3415
  870MOL0     C14771   1.156   4.814  11.177 -0.3208 -0.2605 -0.3627
  870MOL0     C14772   1.115   4.837  11.060 -0.7058  0.2119  0.2864
  870MOL0     C14773   1.683   4.685  11.136 -0.0141  0.5690  0.5951
  870MOL0     C14774   1.819   4.669  11.146 -0.2964 -0.2421 -0.5934
  870MOL0     H14775   2.175   4.755  11.324 -0.0166  2.1643 -0.1198
  870MOL0     H14776   2.410   4.806  11.371  3.0373  2.4133 -1.7381
  870MOL0     H14777   2.699   4.641  11.066 -0.2992 -1.2031  2.6478
  870MOL0     H14778   2.814   4.728  11.170 -0.6591 -0.7818  1.4146
  870MOL0     H14779   2.743   4.938  11.052  3.0381 -1.3459  1.6245
  870MOL0     H14780   2.618   4.847  10.951 -0.2203 -0.4798 -0.1702
  870MOL0     H14781   2.805   4.713  10.873 -2.3006  0.1450  1.2502
  870MOL0     H14782   2.923   4.813  10.961 -0.7449  0.3016  1.7847
  870MOL0     H14783   2.722   4.935  10.765 -0.6172 -0.4546  1.1104
  870MOL0     H14784   2.862   5.012  10.851 -2.8138  0.3145  2.5044
  870MOL0     H14785   2.906   4.794  10.643 -0.0865  0.9647 -0.6788
  870MOL0     H14786   3.018   4.910  10.735  0.5063  1.4136  0.3541
  870MOL0     H14787   2.934   5.098  10.649 -1.7884 -0.8876  2.9576
  870MOL0     H14788   2.799   5.017  10.571  1.2497  1.4590 -0.9666
  870MOL0     H14789   3.093   4.965  10.491 -0.8438 -0.1753  1.4996
  870MOL0     H14790   2.956   4.883  10.424  2.2370 -1.8971  1.4146
  870MOL0     H14791   3.026   5.182  10.413  0.4397 -1.7571  3.7669
  870MOL0     H14792   2.861   5.121  10.363 -0.7248 -1.7547  2.2146
  870MOL0     H14793   3.171   5.180  10.176  2.2814 -0.6129  1.1261
  870MOL0     H14794   3.220   4.910   9.901 -2.7898  0.0359 -0.9887
  870MOL0     H14795   3.327   5.000   9.992  0.4751  1.6944  1.3037
  870MOL0     H14796   3.282   5.172   9.837 -0.7400  0.7393  0.0747
  870MOL0     H14797   3.141   5.194   9.938  1.2020 -0.2016  0.5753
  870MOL0     H14798   3.080   5.180   9.681 -1.0731  1.7043  0.4733
  870MOL0     H14799   3.129   5.007   9.684  3.1142  1.3409  0.6806
  870MOL0     H14800   2.929   5.137   9.879 -1.6869 -1.4950  0.2185
  870MOL0     H14801   2.960   4.960   9.833  1.8122 -0.3206 -2.1452
  870MOL0     H14802   2.736   4.964   9.931  1.4101 -3.4397 -2.0205
  870MOL0     H14803   2.511   4.904   9.940  1.3082 -1.5773 -0.7354
  870MOL0     H14804   2.116   5.111  10.073  0.1583 -0.5491  1.9546
  870MOL0     H14805   1.885   5.045  10.126 -0.9646 -1.0901  1.3851
  870MOL0     H14806   1.776   4.630  10.008  1.7703  0.7608 -1.0295
  870MOL0     H14807   1.677   4.736   9.914 -2.7870  0.7874  1.5412
  870MOL0     H14808   1.536   4.773  10.120 -0.8892 -0.3268 -1.3197
  870MOL0     H14809   1.650   4.671  10.210  2.8879 -3.4949 -1.1709
  870MOL0     H14810   1.572   4.463  10.078 -5.0069 -2.0303  1.3165
  870MOL0     H14811   1.455   4.562  10.004  0.1242  0.7208 -0.2930
  870MOL0     H14812   1.503   4.508  10.295  0.5610  1.3970  0.1928
  870MOL0     H14813   1.373   4.613  10.252  0.1160  0.5212 -1.1607
  870MOL0     H14814   1.291   4.391  10.295  1.4880  1.5945  0.4681
  870MOL0     H14815   1.393   4.313  10.178 -0.2622 -0.9879  0.8045
  870MOL0     H14816   1.291   4.404   9.988  0.5037 -1.3564  0.1350
  870MOL0     H14817   1.183   4.504  10.066  1.6701  0.8438 -1.2276
  870MOL0     H14818   1.194   4.208  10.072 -1.0050 -0.5787  0.1463
  870MOL0     H14819   1.107   4.280  10.196 -2.3737 -0.3398 -0.5627
  870MOL0     H14820   1.023   4.266   9.913 -3.0890 -0.8883 -1.2846
  870MOL0     H14821   0.979   4.415   9.999  1.0629  0.4614  1.9460
  870MOL0     H14822   1.909   4.711   9.855  0.2710 -1.3823  2.0019
  870MOL0     H14823   2.137   4.780   9.801  2.2425 -1.7022  3.3403
  870MOL0     H14824   2.450   5.121   9.572  1.2031  0.1018 -1.1580
  870MOL0     H14825   2.692   5.125   9.541 -0.1174 -1.9934  0.8025
  870MOL0     H14826   2.512   4.666  10.978 -1.3003 -2.6584 -0.5019
  870MOL0     H14827   2.287   4.592  10.943 -0.5504 -2.7927  1.5132
  870MOL0     H14828   1.825   4.326  11.105 -0.6689  0.2377 -1.6771
  870MOL0     H14829   1.582   4.371  11.087 -1.2510  0.8089 -0.3165
  870MOL0     H14830   1.373   4.427  11.126 -0.0393 -0.8900 -0.1087
  870MOL0     H14831   1.262   4.552  11.097 -0.2622 -1.3531  0.8646
  870MOL0     H14832   1.278   4.507  11.335 -2.4446  1.6458 -2.5123
  870MOL0     H14833   1.452   4.538  11.329  0.5066  0.7463  0.2122
  870MOL0     H14834   1.418   4.781  11.280  0.6432  0.6189 -0.3336
  870MOL0     H14835   1.352   4.728  11.438 -3.2765 -0.3740  0.2530
  870MOL0     H14836   1.116   4.719  11.354 -0.9019  2.5364  1.3538
  870MOL0     H14837   1.189   4.881  11.365  0.6559  1.1846 -0.8536
  870MOL0     H14838   1.056   4.880  10.981 -1.4617  2.2475  1.8601
  870MOL0     H14839   1.636   4.783  11.143 -1.3469  0.1909 -1.9328
  870MOL0     H14840   1.884   4.756  11.155  2.6662 -2.0541 -2.6640
  871MOL0     O14841   8.219   0.348   8.514 -0.9288 -0.5333 -0.4398
  871MOL0     C14842   8.231   0.452   8.443 -0.4362 -0.0868  0.0493
  871MOL0     O14843   8.148   0.563   8.426  0.5760  0.0836  0.2025
  871MOL0     C14844   8.016   0.554   8.463 -0.7490 -0.3533  0.3224
  871MOL0     C14845   7.978   0.497   8.585 -0.9706 -0.0581  0.0688
  871MOL0     C14846   7.843   0.486   8.619  1.2906 -0.9055  1.2600
  871MOL0     C14847   7.746   0.537   8.527 -0.4900  0.3299  0.2180
  871MOL0     O14848   7.617   0.533   8.573 -0.0397  0.3163  0.1508
  871MOL0     C14849   7.536   0.650   8.554  0.9950  0.1819  0.3004
  871MOL0     C14850   7.407   0.642   8.634 -0.3545  0.6736  0.0956
  871MOL0     C14851   7.433   0.662   8.780 -0.5251 -0.0910  0.7201
  871MOL0     C14852   7.300   0.661   8.860  0.2098 -0.1579  1.2078
  871MOL0     C14853   7.317   0.647   9.008 -1.4502 -0.4661  0.8876
  871MOL0     C14854   7.193   0.587   9.070  0.3776 -0.3542 -0.1060
  871MOL0     C14855   7.056   0.650   9.051  0.8578  0.0810 -0.1187
  871MOL0     C14856   7.049   0.775   9.126 -0.5521 -0.0766  0.2551
  871MOL0     N14857   6.927   0.847   9.099 -0.2898 -0.1149  0.1501
  871MOL0     C14858   6.896   0.910   8.982  0.7160  0.1424 -0.7231
  871MOL0     C14859   6.784   0.979   9.006  0.1046  0.0719  0.0416
  871MOL0     C14860   6.706   1.055   8.903 -0.3239  0.1875  0.6439
  871MOL0     C14861   6.707   1.205   8.921 -0.2519  0.6151  0.8229
  871MOL0     C14862   6.680   1.256   9.066 -0.0886  0.2594 -0.8781
  871MOL0     C14863   6.614   1.406   9.071 -0.7137 -0.5508  0.1414
  871MOL0     O14864   6.729   1.488   9.055  0.7303  0.0705  1.0718
  871MOL0     C14865   6.725   1.617   9.002  0.4025  0.4419 -0.2018
  871MOL0     C14866   6.610   1.691   9.005  1.1734 -0.5414  0.3826
  871MOL0     C14867   6.607   1.822   8.962 -0.1562 -0.4837 -1.5413
  871MOL0     C14868   6.722   1.885   8.907  0.7175  0.8168 -0.0472
  871MOL0     C14869   6.724   2.027   8.867  0.2629  0.2400  0.0673
  871MOL0     O14870   6.610   2.101   8.889  0.2787 -0.5278  0.5126
  871MOL0     C14871   6.616   2.232   8.853 -0.3218 -0.0527  0.1650
  871MOL0     C14872   6.589   2.321   8.958 -0.2135  0.4144  0.2306
  871MOL0     C14873   6.594   2.455   8.930  0.2821  0.7909  1.0123
  871MOL0     C14874   6.621   2.506   8.795  0.6516 -0.2595  0.0626
  871MOL0     O14875   6.623   2.643   8.767 -0.0348 -0.3572 -0.1790
  871MOL0     C14876   6.500   2.688   8.697  0.7120 -0.7688 -0.3372
  871MOL0     C14877   6.477   2.842   8.701  0.5044  0.3148  0.7922
  871MOL0     C14878   6.350   2.885   8.623 -0.1311  0.2855  1.0050
  871MOL0     C14879   6.351   3.035   8.602  0.1346  0.2225  0.2622
  871MOL0     C14880   6.228   3.074   8.520  0.1155  0.3068 -0.0931
  871MOL0     C14881   6.242   3.223   8.480 -0.2538  0.6766 -0.0986
  871MOL0     C14882   6.355   3.248   8.387 -0.4975  0.7620  0.3607
  871MOL0     C14883   6.340   3.367   8.287 -0.0793  0.0930  0.4046
  871MOL0    Cl14884   6.319   3.526   8.368 -0.0860 -0.4260 -0.0849
  871MOL0     C14885   6.623   2.409   8.693 -0.3738 -0.4892 -0.4777
  871MOL0     C14886   6.635   2.278   8.718  0.1898 -0.1754  1.1553
  871MOL0     O14887   6.827   2.066   8.816  0.3182 -0.4723  0.4138
  871MOL0     C14888   6.843   1.805   8.914 -0.6828 -0.1330  0.5577
  871MOL0     C14889   6.840   1.678   8.965 -0.0781 -0.1127  0.3708
  871MOL0     N14890   6.751   0.957   9.140 -0.2380 -0.0284  0.2831
  871MOL0     N14891   6.850   0.889   9.196  0.8636  0.1177  0.5029
  871MOL0     C14892   7.792   0.605   8.414 -0.1058  0.4677  0.0420
  871MOL0     C14893   7.922   0.616   8.381  0.5993  0.1176 -0.5218
  871MOL0     C14894   8.359   0.462   8.363 -0.3449  0.1131  1.0509
  871MOL0     C14895   8.480   0.399   8.388 -0.0849  0.1436 -0.7517
  871MOL0     C14896   8.602   0.413   8.309  0.0712  0.7277  0.4349
  871MOL0     C14897   8.586   0.474   8.190  0.8513 -0.3750  0.4323
  871MOL0     O14898   8.704   0.477   8.117  0.5210  0.1045  0.7424
  871MOL0     C14899   8.715   0.583   8.022  0.4507  1.3764  0.6411
  871MOL0     C14900   8.866   0.596   7.984  0.2301  0.1417  0.0688
  871MOL0     C14901   8.905   0.516   7.863  0.4531  0.2851  0.6916
  871MOL0     C14902   8.832   0.557   7.730  0.4583 -0.3897  0.5735
  871MOL0     C14903   8.886   0.695   7.688  0.7468  0.5574 -0.2063
  871MOL0     C14904   8.921   0.811   7.662 -1.2433 -0.2129  0.1084
  871MOL0     C14905   8.467   0.538   8.155 -0.0860 -0.5207 -0.4076
  871MOL0     C14906   8.358   0.535   8.245  0.3243  0.4211 -0.4016
  871MOL0     H14907   8.045   0.454   8.659 -3.9762 -6.3498 -0.2489
  871MOL0     H14908   7.810   0.429   8.705 -2.7200  0.2444  0.7205
  871MOL0     H14909   7.509   0.660   8.448 -2.8213  0.1506  1.1163
  871MOL0     H14910   7.584   0.743   8.586  1.3169 -0.1812  0.8702
  871MOL0     H14911   7.359   0.547   8.609  0.6518  0.0640  0.4538
  871MOL0     H14912   7.345   0.727   8.605 -3.9915 -2.2020 -1.3619
  871MOL0     H14913   7.491   0.754   8.790 -0.6591 -0.0336  0.9997
  871MOL0     H14914   7.495   0.582   8.821 -0.1088 -1.0155 -1.5453
  871MOL0     H14915   7.239   0.751   8.845  0.8993 -0.1216 -2.1522
  871MOL0     H14916   7.244   0.577   8.819  1.8405 -0.0053 -1.5653
  871MOL0     H14917   7.348   0.740   9.056 -0.9680  0.3730 -0.9736
  871MOL0     H14918   7.405   0.582   9.019 -0.4658  0.4013 -1.4029
  871MOL0     H14919   7.213   0.581   9.178 -1.6412 -0.8255  0.2736
  871MOL0     H14920   7.176   0.483   9.042 -0.0792  0.1574 -1.8091
  871MOL0     H14921   7.027   0.657   8.946  0.7840 -0.4300 -0.1357
  871MOL0     H14922   6.987   0.586   9.107  1.1315  0.0901  0.2329
  871MOL0     H14923   7.127   0.845   9.093  1.1845 -1.1376  1.9386
  871MOL0     H14924   7.062   0.738   9.228  2.2474  0.4282  0.1523
  871MOL0     H14925   6.954   0.904   8.891  0.1267 -0.2656 -1.0804
  871MOL0     H14926   6.604   1.019   8.918  0.4817 -3.0460 -0.7127
  871MOL0     H14927   6.743   1.035   8.802 -2.2393  3.2874 -0.8165
  871MOL0     H14928   6.645   1.250   8.843  1.0623  1.5888  0.3144
  871MOL0     H14929   6.807   1.245   8.905 -0.1821  0.5419  1.0766
  871MOL0     H14930   6.611   1.182   9.109  0.8401 -2.0918 -3.1473
  871MOL0     H14931   6.772   1.263   9.123 -0.7786 -1.8415  0.6083
  871MOL0     H14932   6.554   1.433   9.158 -0.3299  0.6034  0.0723
  871MOL0     H14933   6.540   1.415   8.990 -2.6117 -0.1195  1.8423
  871MOL0     H14934   6.520   1.653   9.052 -1.9141  2.9895 -2.0322
  871MOL0     H14935   6.517   1.882   8.972  0.6125  0.4361  0.5431
  871MOL0     H14936   6.581   2.287   9.060  1.7004 -0.4310  0.1403
  871MOL0     H14937   6.563   2.527   9.006 -0.0692 -1.2362  2.9132
  871MOL0     H14938   6.401   2.647   8.718  1.5771 -2.2410  1.1847
  871MOL0     H14939   6.512   2.666   8.590  1.5081 -1.4320 -0.1254
  871MOL0     H14940   6.568   2.893   8.668 -0.6427  0.6338 -2.1675
  871MOL0     H14941   6.468   2.873   8.806 -2.8799  2.9379 -0.0800
  871MOL0     H14942   6.268   2.852   8.688 -2.0041  0.7478 -0.9934
  871MOL0     H14943   6.353   2.835   8.525 -2.1089 -0.1295  1.1068
  871MOL0     H14944   6.348   3.090   8.696 -1.5783  1.1719 -0.2953
  871MOL0     H14945   6.450   3.060   8.563  0.7662 -1.2820  0.8569
  871MOL0     H14946   6.134   3.072   8.577 -0.3020  0.2986 -0.7735
  871MOL0     H14947   6.220   3.014   8.428  1.1880 -2.7483  1.6473
  871MOL0     H14948   6.252   3.287   8.569 -2.2240  1.7998 -0.6350
  871MOL0     H14949   6.151   3.266   8.438 -1.1468 -2.9121 -2.3208
  871MOL0     H14950   6.446   3.265   8.444 -0.1318  2.7872 -0.7197
  871MOL0     H14951   6.371   3.155   8.330  1.0451  2.4720 -2.2553
  871MOL0     H14952   6.261   3.339   8.217  1.4462 -0.9425 -0.9542
  871MOL0     H14953   6.430   3.375   8.225 -2.0738  1.0515 -2.5879
  871MOL0     H14954   6.628   2.443   8.590 -1.5586 -2.8834 -1.4109
  871MOL0     H14955   6.639   2.200   8.642 -1.3078 -0.3182  1.1826
  871MOL0     H14956   6.936   1.843   8.873 -0.3550 -1.1660  0.3060
  871MOL0     H14957   6.934   1.626   8.949 -0.6409 -0.4964 -2.0445
  871MOL0     H14958   7.716   0.650   8.351 -3.0221 -1.9004  1.6365
  871MOL0     H14959   7.965   0.672   8.298  2.9805 -1.3805 -0.4136
  871MOL0     H14960   8.495   0.349   8.483 -1.6265  1.1393  0.0517
  871MOL0     H14961   8.696   0.371   8.344 -0.9355 -0.5765  1.7258
  871MOL0     H14962   8.669   0.668   8.073 -5.8956 -0.6851 -0.7503
  871MOL0     H14963   8.639   0.561   7.946 -0.7826  1.1580  1.8907
  871MOL0     H14964   8.875   0.704   7.967 -0.8574  0.4894  1.5903
  871MOL0     H14965   8.943   0.569   8.056  0.1453 -1.1862 -0.3183
  871MOL0     H14966   8.872   0.413   7.876 -0.2599 -0.2550 -3.8086
  871MOL0     H14967   9.010   0.502   7.836  0.7822  0.7790  1.6811
  871MOL0     H14968   8.856   0.486   7.650  1.9372 -0.0309  0.6595
  871MOL0     H14969   8.726   0.580   7.734  0.7762  1.6485 -0.7690
  871MOL0     H14970   8.965   0.904   7.634 -0.6572  0.1592  2.1196
  871MOL0     H14971   8.465   0.602   8.068 -0.7620 -0.6095 -0.4620
  871MOL0     H14972   8.267   0.589   8.218  0.2577  0.3424 -0.3372
  872MOL0     O14973   8.218   0.988   4.870 -0.0766  0.0934  0.2471
  872MOL0     C14974   8.317   0.963   4.936  0.3668  0.2524  0.2920
  872MOL0     O14975   8.357   0.838   4.960 -0.4815  1.2871 -0.2608
  872MOL0     C14976   8.282   0.726   4.922 -0.0870 -0.1515  0.7746
  872MOL0     C14977   8.347   0.621   4.852  0.2777  0.2490  0.1028
  872MOL0     C14978   8.271   0.510   4.804  0.1300  0.4748 -1.2270
  872MOL0     C14979   8.133   0.517   4.810  0.5597 -0.1150  0.4121
  872MOL0     O14980   8.079   0.407   4.760  0.2125 -0.4264  0.1515
  872MOL0     C14981   7.941   0.407   4.735 -0.0406 -0.1963  0.0184
  872MOL0     C14982   7.899   0.268   4.703 -0.5379 -0.2265  1.2138
  872MOL0     C14983   7.747   0.243   4.692  0.3821 -0.2101 -0.5191
  872MOL0     C14984   7.729   0.084   4.705 -0.1069 -1.3074 -0.1077
  872MOL0     C14985   7.589   0.051   4.656 -0.1335 -1.3651 -0.1470
  872MOL0     C14986   7.542  -0.094   4.648  0.4098 -1.0760  0.4688
  872MOL0     C14987   7.552  -0.158   4.790  0.5638  0.9082 -0.0510
  872MOL0     C14988   7.447  -0.266   4.833  0.9828  0.2130  0.1621
  872MOL0     N14989   7.459  -0.391   4.755  0.2981 -0.2794  0.4583
  872MOL0     C14990   7.578  -0.451   4.729 -0.6774 -0.1071  0.3370
  872MOL0     C14991   7.566  -0.526   4.621 -1.1616 -0.7670 -0.2792
  872MOL0     C14992   7.679  -0.626   4.561 -0.0550 -0.4440 -0.6081
  872MOL0     C14993   7.630  -0.770   4.599  0.2116 -0.1351  0.6134
  872MOL0     C14994   7.707  -0.857   4.707 -1.0668  0.1310 -0.2303
  872MOL0     C14995   7.648  -1.003   4.707 -1.4479 -0.1553 -1.1662
  872MOL0     O14996   7.720  -1.065   4.607 -0.2649 -0.3449  0.4618
  872MOL0     C14997   7.687  -1.196   4.580 -0.5629  0.6574 -0.1397
  872MOL0     C14998   7.606  -1.284   4.656 -0.1569  0.2718 -0.8117
  872MOL0     C14999   7.576  -1.411   4.617 -0.4141 -0.4845  0.1775
  872MOL0     C15000   7.638  -1.461   4.499 -0.1078  0.0635 -0.0157
  872MOL0     C15001   7.618  -1.595   4.455 -0.1495 -0.2782  0.0287
  872MOL0     O15002   7.512  -1.657   4.515  0.2398  0.1467 -0.5827
  872MOL0     C15003   7.494  -1.785   4.469 -0.4134  0.8618 -0.0164
  872MOL0     C15004   7.533  -1.892   4.551  0.5931 -0.3187 -0.6415
  872MOL0     C15005   7.507  -2.028   4.501 -0.6441  0.4808 -0.4824
  872MOL0     C15006   7.432  -2.048   4.380  0.1188  0.3899  0.6945
  872MOL0     O15007   7.389  -2.175   4.343 -0.3099  1.2986  0.0557
  872MOL0     C15008   7.399  -2.280   4.445 -0.3109 -0.3448 -0.2426
  872MOL0     C15009   7.323  -2.405   4.411 -0.6902 -0.3727 -0.2889
  872MOL0     C15010   7.182  -2.373   4.353  0.0690  0.6733 -0.2667
  872MOL0     C15011   7.107  -2.268   4.443 -0.3210  1.0398  0.4060
  872MOL0     C15012   6.958  -2.299   4.453 -0.2989 -0.3598 -0.2995
  872MOL0     C15013   6.880  -2.197   4.536  0.0282 -0.6491 -0.6945
  872MOL0     C15014   6.868  -2.061   4.464  0.1722 -0.0360 -0.2800
  872MOL0     C15015   6.759  -2.062   4.356  0.3176  0.5308 -0.7323
  872MOL0    Cl15016   6.786  -1.951   4.218  0.4215 -0.1147  0.1557
  872MOL0     C15017   7.402  -1.944   4.297 -0.5771  1.1040 -0.5764
  872MOL0     C15018   7.439  -1.814   4.341  0.0836 -0.1725 -0.2388
  872MOL0     O15019   7.692  -1.629   4.362  0.0007  0.2641  0.1888
  872MOL0     C15020   7.728  -1.377   4.424  0.1511 -0.5741  0.1911
  872MOL0     C15021   7.756  -1.242   4.465  0.2249 -0.1919 -0.1302
  872MOL0     N15022   7.437  -0.504   4.573 -1.0901 -0.6698  0.1835
  872MOL0     N15023   7.374  -0.431   4.653  0.0854  0.2527  0.6130
  872MOL0     C15024   8.063   0.619   4.877  0.2353  0.0350  0.2176
  872MOL0     C15025   8.141   0.724   4.940 -0.7001  0.4733  0.7300
  872MOL0     C15026   8.409   1.069   4.982  0.1950 -0.6478 -0.3099
  872MOL0     C15027   8.424   1.193   4.921  0.4022 -0.2574 -0.1296
  872MOL0     C15028   8.503   1.287   4.979  0.2990 -0.1241  0.4542
  872MOL0     C15029   8.587   1.264   5.090 -0.1346 -0.5209 -0.4788
  872MOL0     O15030   8.683   1.356   5.132 -0.1262 -0.5635  0.4465
  872MOL0     C15031   8.674   1.373   5.276 -0.2179 -0.6213  0.5083
  872MOL0     C15032   8.685   1.526   5.316  0.4070 -0.5312  0.3117
  872MOL0     C15033   8.678   1.533   5.470  0.5774  0.4257 -0.1676
  872MOL0     C15034   8.722   1.671   5.509 -0.3670 -0.2556  1.4311
  872MOL0     C15035   8.869   1.678   5.496 -0.6011 -0.1527  0.4557
  872MOL0     C15036   8.994   1.674   5.500 -0.0385 -0.7380 -0.7197
  872MOL0     C15037   8.576   1.137   5.150  0.5357 -0.5741 -0.8184
  872MOL0     C15038   8.482   1.039   5.100 -1.1863  0.0497  0.5606
  872MOL0     H15039   8.452   0.613   4.826 -0.0132 -2.2279 -0.6017
  872MOL0     H15040   8.311   0.420   4.759  1.9477  1.0236 -0.7632
  872MOL0     H15041   7.925   0.460   4.641  3.0126  0.8389 -0.0352
  872MOL0     H15042   7.880   0.448   4.816  2.3620  0.1460  1.7470
  872MOL0     H15043   7.938   0.201   4.781 -2.1943  1.5046  3.6893
  872MOL0     H15044   7.944   0.246   4.606  0.6343 -0.9691  1.8986
  872MOL0     H15045   7.709   0.293   4.602 -1.1348 -0.1864  0.0998
  872MOL0     H15046   7.696   0.285   4.779 -1.6164 -0.2813 -1.5955
  872MOL0     H15047   7.787   0.031   4.628 -3.8244 -2.2283 -2.5366
  872MOL0     H15048   7.739   0.055   4.810 -1.9604  1.3624  0.8925
  872MOL0     H15049   7.582   0.102   4.559  1.9382  0.6873  0.6988
  872MOL0     H15050   7.523   0.112   4.718  1.1303  0.6874 -0.7227
  872MOL0     H15051   7.600  -0.136   4.565  0.3092  0.5737 -0.4707
  872MOL0     H15052   7.436  -0.087   4.619  0.8769 -1.1810 -1.4135
  872MOL0     H15053   7.650  -0.205   4.804 -0.5390 -1.2114  1.0111
  872MOL0     H15054   7.549  -0.083   4.869  1.1731  0.6451  0.2330
  872MOL0     H15055   7.352  -0.217   4.812  2.2156  1.3114 -3.6329
  872MOL0     H15056   7.449  -0.301   4.937  4.1703  2.8141  1.1439
  872MOL0     H15057   7.667  -0.444   4.790 -0.7937 -0.6054  0.5624
  872MOL0     H15058   7.775  -0.610   4.611 -0.4122  0.5599 -0.2306
  872MOL0     H15059   7.678  -0.622   4.452  3.1782 -1.9603 -0.8092
  872MOL0     H15060   7.632  -0.830   4.507  1.5469 -1.0441  1.2074
  872MOL0     H15061   7.524  -0.771   4.627  0.7028 -2.7084  2.8522
  872MOL0     H15062   7.816  -0.853   4.697 -1.0818  3.5413 -0.3638
  872MOL0     H15063   7.680  -0.801   4.798 -0.0921 -0.5763  0.5118
  872MOL0     H15064   7.541  -1.010   4.684 -3.0593  1.1971  4.3956
  872MOL0     H15065   7.659  -1.054   4.803  0.6488  1.1648 -0.6440
  872MOL0     H15066   7.560  -1.251   4.749 -0.8922 -2.0556 -0.2787
  872MOL0     H15067   7.515  -1.469   4.686 -2.4188  2.0891  0.7249
  872MOL0     H15068   7.573  -1.880   4.651 -1.3205  0.6804  0.0490
  872MOL0     H15069   7.562  -2.096   4.564  0.6343 -0.5453 -2.5944
  872MOL0     H15070   7.355  -2.252   4.541 -1.1903 -1.5656 -0.2714
  872MOL0     H15071   7.504  -2.302   4.466 -1.0338 -1.8349  2.2149
  872MOL0     H15072   7.312  -2.463   4.503  3.3441  1.0233  1.3020
  872MOL0     H15073   7.388  -2.449   4.335 -0.3057  1.8513 -1.3344
  872MOL0     H15074   7.133  -2.471   4.346  0.0641  0.6625 -0.0801
  872MOL0     H15075   7.188  -2.331   4.252  1.3843 -2.6813 -1.7195
  872MOL0     H15076   7.146  -2.268   4.546 -0.0484 -2.4734  0.3983
  872MOL0     H15077   7.122  -2.169   4.399  0.2663  0.5349 -0.5414
  872MOL0     H15078   6.941  -2.387   4.516  0.1712 -0.2837 -0.0598
  872MOL0     H15079   6.910  -2.304   4.355 -0.1697 -1.8204 -0.3205
  872MOL0     H15080   6.930  -2.182   4.631  1.3061  0.0560 -1.4505
  872MOL0     H15081   6.776  -2.226   4.555 -0.4452  2.0124  1.3346
  872MOL0     H15082   6.836  -1.991   4.542  2.2574 -1.0321  1.5985
  872MOL0     H15083   6.962  -2.025   4.423  0.1563 -0.5473 -0.7665
  872MOL0     H15084   6.668  -2.033   4.410 -2.5880 -2.8474 -3.3116
  872MOL0     H15085   6.742  -2.162   4.315 -2.0220  0.9301 -0.8650
  872MOL0     H15086   7.336  -1.969   4.215 -1.8719 -0.0390  0.7518
  872MOL0     H15087   7.420  -1.727   4.280  0.1118 -0.6574 -0.9509
  872MOL0     H15088   7.766  -1.390   4.323  2.2129  1.6006  0.5956
  872MOL0     H15089   7.802  -1.179   4.389 -3.1943  0.2807 -2.0654
  872MOL0     H15090   7.956   0.626   4.892 -0.0067 -1.7990 -0.3797
  872MOL0     H15091   8.082   0.804   4.985  0.4011  1.4029  0.5695
  872MOL0     H15092   8.361   1.225   4.839 -0.0520  1.5186  0.8641
  872MOL0     H15093   8.520   1.384   4.933 -3.3016 -0.5059 -2.0537
  872MOL0     H15094   8.758   1.317   5.320 -1.8369 -3.2675  0.4806
  872MOL0     H15095   8.587   1.327   5.324 -0.7601 -0.1557 -0.0126
  872MOL0     H15096   8.777   1.569   5.275 -0.3540 -3.8734 -6.1133
  872MOL0     H15097   8.590   1.563   5.277 -0.0868 -1.9377  0.1327
  872MOL0     H15098   8.728   1.450   5.522 -0.4693 -0.6600 -0.8436
  872MOL0     H15099   8.576   1.516   5.506  1.0797 -2.0220  0.3038
  872MOL0     H15100   8.690   1.757   5.449  0.3909 -2.0152 -1.7095
  872MOL0     H15101   8.677   1.683   5.608  0.3914 -1.1432  1.9030
  872MOL0     H15102   9.101   1.677   5.499 -0.0114 -0.2999  0.7475
  872MOL0     H15103   8.626   1.112   5.243 -1.7019  1.6758  1.1743
  872MOL0     H15104   8.487   0.939   5.142  2.2453 -0.2826 -0.3442
  873MOL0     O15105   7.310   1.696   3.826 -0.4499  0.6139 -0.5960
  873MOL0     C15106   7.294   1.699   3.951  0.5434  0.2605 -0.1945
  873MOL0     O15107   7.394   1.670   4.045 -0.4552 -0.0279 -0.2960
  873MOL0     C15108   7.531   1.659   4.007 -0.0092 -0.0317  1.0304
  873MOL0     C15109   7.583   1.571   3.917  0.1819  1.0004 -0.2251
  873MOL0     C15110   7.711   1.581   3.880 -0.9971  0.7416 -0.6591
  873MOL0     C15111   7.806   1.667   3.932 -0.8055 -0.3036 -0.0843
  873MOL0     O15112   7.933   1.655   3.895 -0.8943 -1.0734  0.0627
  873MOL0     C15113   7.940   1.673   3.751  0.0584  0.5659  0.4181
  873MOL0     C15114   8.083   1.695   3.718 -1.6400  0.6250 -0.1413
  873MOL0     C15115   8.101   1.707   3.567 -0.7011 -0.0792  0.8698
  873MOL0     C15116   8.253   1.752   3.532  0.3914  0.3807 -0.4624
  873MOL0     C15117   8.356   1.643   3.577 -0.9773  0.8693 -0.0239
  873MOL0     C15118   8.449   1.687   3.682 -0.4096  0.4772 -0.8070
  873MOL0     C15119   8.549   1.785   3.620  0.2563  0.4351 -0.1934
  873MOL0     C15120   8.658   1.838   3.711  0.5945  0.9012 -0.5711
  873MOL0     N15121   8.602   1.914   3.817  0.4988  1.3464 -0.5604
  873MOL0     C15122   8.519   2.019   3.803  0.5508 -0.3615  0.2113
  873MOL0     C15123   8.457   2.032   3.923  0.8842 -0.9246 -0.1530
  873MOL0     C15124   8.345   2.122   3.956 -0.0134 -0.7715 -0.4211
  873MOL0     C15125   8.212   2.042   3.984 -0.1441  0.0508 -1.1543
  873MOL0     C15126   8.100   2.150   4.007 -0.0508 -0.0090  0.0870
  873MOL0     C15127   7.991   2.101   4.096  0.7146  0.1956 -0.3203
  873MOL0     O15128   7.944   2.225   4.172  0.2591  0.1227 -0.1704
  873MOL0     C15129   7.860   2.212   4.282  0.9442  1.0970  0.7321
  873MOL0     C15130   7.778   2.316   4.320  0.3542 -0.1369  0.0618
  873MOL0     C15131   7.689   2.301   4.426  0.6276 -0.5933  0.5837
  873MOL0     C15132   7.667   2.173   4.489 -0.3570  0.3821  1.3568
  873MOL0     C15133   7.566   2.162   4.590  0.1029 -0.2553  0.9487
  873MOL0     O15134   7.473   2.262   4.604  0.0630  0.2878 -0.0724
  873MOL0     C15135   7.373   2.267   4.699  0.4746  0.5039 -0.8239
  873MOL0     C15136   7.317   2.169   4.783  0.5779  0.4383  0.5400
  873MOL0     C15137   7.203   2.201   4.853 -0.4417  0.0946 -0.4024
  873MOL0     C15138   7.138   2.325   4.850 -0.3127  0.1341 -0.8950
  873MOL0     O15139   7.018   2.354   4.911 -1.0178 -0.2275 -0.0683
  873MOL0     C15140   6.978   2.257   5.009  0.2618 -0.4705  0.5561
  873MOL0     C15141   6.832   2.272   5.045 -0.5353 -0.2671  0.2888
  873MOL0     C15142   6.789   2.178   5.170 -0.5884 -0.2627 -0.2543
  873MOL0     C15143   6.637   2.159   5.176  0.3664  0.1862 -0.0567
  873MOL0     C15144   6.562   2.293   5.171  1.1810  0.3617 -0.3015
  873MOL0     C15145   6.597   2.377   5.295  0.6876 -0.3696 -0.1776
  873MOL0     C15146   6.515   2.512   5.301 -0.2851  0.9266  0.8481
  873MOL0     C15147   6.359   2.497   5.273 -0.0946  0.0429  0.2223
  873MOL0    Cl15148   6.270   2.415   5.409 -0.0913  0.0338 -0.0546
  873MOL0     C15149   7.188   2.422   4.780  0.0032 -0.3103  0.1459
  873MOL0     C15150   7.305   2.392   4.700 -0.7036  0.1846 -0.2563
  873MOL0     O15151   7.571   2.062   4.658 -0.0776  0.2940 -0.3230
  873MOL0     C15152   7.740   2.070   4.448 -0.4128  0.2360 -0.3212
  873MOL0     C15153   7.838   2.087   4.356  0.7122 -0.1758  0.3909
  873MOL0     N15154   8.504   1.939   4.013 -0.0538  0.0467  0.1818
  873MOL0     N15155   8.583   1.865   3.946 -0.0498 -0.5156  0.6199
  873MOL0     C15156   7.759   1.755   4.033  0.1052 -0.3898  0.4471
  873MOL0     C15157   7.624   1.746   4.060 -0.6008  0.6337  0.2909
  873MOL0     C15158   7.156   1.724   4.002 -0.0645  0.5048  0.5931
  873MOL0     C15159   7.060   1.782   3.926  0.2845  0.1667  0.3778
  873MOL0     C15160   6.931   1.781   3.974  0.5311  0.0440  0.0448
  873MOL0     C15161   6.905   1.769   4.110  0.4450  0.5069 -0.8732
  873MOL0     O15162   6.777   1.781   4.150  0.7602 -0.8182 -0.5575
  873MOL0     C15163   6.752   1.908   4.204  0.1687  0.0974 -0.7258
  873MOL0     C15164   6.603   1.941   4.209 -0.7871 -0.5293  0.1715
  873MOL0     C15165   6.529   1.930   4.068 -0.1674 -0.0457 -0.7344
  873MOL0     C15166   6.378   1.960   4.079 -1.0878  0.0878  0.2139
  873MOL0     C15167   6.317   1.988   3.950  0.2785  0.2940 -0.3301
  873MOL0     C15168   6.265   1.991   3.845 -0.1998 -0.5471  0.0051
  873MOL0     C15169   7.002   1.738   4.192 -0.2547 -0.1387 -0.6183
  873MOL0     C15170   7.128   1.700   4.135  0.4657 -0.2320 -0.7134
  873MOL0     H15171   7.506   1.502   3.884  0.1072  0.1441  1.6086
  873MOL0     H15172   7.742   1.493   3.825 -0.0135 -1.1878  2.7090
  873MOL0     H15173   7.892   1.765   3.716 -1.1898 -1.2452 -3.0259
  873MOL0     H15174   7.892   1.591   3.697 -0.3432  0.7083  0.5529
  873MOL0     H15175   8.146   1.613   3.754  0.7296  2.6805  0.6431
  873MOL0     H15176   8.111   1.784   3.775  2.1801  0.6546 -1.7462
  873MOL0     H15177   8.036   1.779   3.515 -0.6342 -0.1558  0.6776
  873MOL0     H15178   8.082   1.609   3.522 -0.9279  0.1486  0.4607
  873MOL0     H15179   8.274   1.772   3.427 -0.8094  3.7063 -0.1972
  873MOL0     H15180   8.277   1.846   3.582  1.5913 -1.5115  2.8212
  873MOL0     H15181   8.421   1.611   3.495 -0.8254  4.4122 -1.4317
  873MOL0     H15182   8.292   1.561   3.613 -2.4038  1.7847 -0.4066
  873MOL0     H15183   8.504   1.599   3.718 -2.9513 -1.4896 -1.4576
  873MOL0     H15184   8.401   1.735   3.767  1.1174  1.4893 -0.4754
  873MOL0     H15185   8.613   1.735   3.547  2.9782  1.4264  1.3526
  873MOL0     H15186   8.497   1.859   3.558 -2.2807 -1.8756 -0.9729
  873MOL0     H15187   8.727   1.910   3.665  2.0185 -0.6982 -1.0745
  873MOL0     H15188   8.720   1.755   3.748 -3.2321 -2.1480 -0.3104
  873MOL0     H15189   8.500   2.085   3.719  0.6536  3.8426  3.1833
  873MOL0     H15190   8.322   2.201   3.884 -3.4552  1.4479  2.7701
  873MOL0     H15191   8.370   2.168   4.052 -0.2665  1.0165 -1.1698
  873MOL0     H15192   8.231   1.982   4.073  1.5823 -2.5361 -3.1400
  873MOL0     H15193   8.177   1.992   3.893 -0.5000  2.3005 -2.3348
  873MOL0     H15194   8.154   2.233   4.054  0.3815  1.0900 -2.2112
  873MOL0     H15195   8.057   2.193   3.916 -0.9756  0.6516  0.8169
  873MOL0     H15196   8.033   2.028   4.166  1.1910  0.3397 -0.4568
  873MOL0     H15197   7.909   2.057   4.038  0.7650  0.1386 -0.3482
  873MOL0     H15198   7.783   2.409   4.263 -5.6675  0.4498 -0.1113
  873MOL0     H15199   7.628   2.381   4.467  0.6198 -0.8120  1.0070
  873MOL0     H15200   7.358   2.069   4.773  0.1930  0.3835 -0.6074
  873MOL0     H15201   7.168   2.118   4.914 -0.6688  0.2314 -0.3437
  873MOL0     H15202   7.039   2.261   5.100  1.2765 -3.5026  0.1361
  873MOL0     H15203   6.985   2.154   4.973 -0.5321 -0.8803  1.5143
  873MOL0     H15204   6.776   2.256   4.953  1.0617 -0.2272 -0.7234
  873MOL0     H15205   6.809   2.376   5.072 -0.2752 -0.0036 -0.5022
  873MOL0     H15206   6.820   2.211   5.270  0.1171 -0.2061 -0.4903
  873MOL0     H15207   6.837   2.082   5.151  0.2862  0.0323  0.4124
  873MOL0     H15208   6.608   2.087   5.099 -1.0124  1.6273 -0.9503
  873MOL0     H15209   6.604   2.107   5.266  0.3090  0.6283  0.1795
  873MOL0     H15210   6.454   2.275   5.167  1.2721 -0.3035  0.0314
  873MOL0     H15211   6.598   2.361   5.093  0.8089  0.7630 -0.1279
  873MOL0     H15212   6.702   2.405   5.297  0.4301  0.7117  2.6993
  873MOL0     H15213   6.594   2.332   5.395  2.2746  0.5548  0.3301
  873MOL0     H15214   6.521   2.559   5.400 -2.2205  4.2863 -0.4531
  873MOL0     H15215   6.560   2.579   5.227 -0.7406  0.9867  0.6256
  873MOL0     H15216   6.355   2.445   5.176  2.2196  0.3396 -0.1001
  873MOL0     H15217   6.311   2.594   5.261 -3.1288 -1.4676 -1.1524
  873MOL0     H15218   7.147   2.520   4.764  0.3443 -0.1123  0.4576
  873MOL0     H15219   7.344   2.456   4.622  1.5754 -0.1803  0.4924
  873MOL0     H15220   7.720   1.973   4.492 -1.7904  0.9098  0.6115
  873MOL0     H15221   7.902   2.001   4.339  2.9726  1.3751  0.6133
  873MOL0     H15222   7.830   1.818   4.085  2.3258 -1.3020 -1.3221
  873MOL0     H15223   7.586   1.825   4.125 -1.2036 -0.0984  0.8530
  873MOL0     H15224   7.088   1.796   3.822 -0.7489 -1.0943 -0.0971
  873MOL0     H15225   6.859   1.817   3.901  0.9837  1.5110  0.3092
  873MOL0     H15226   6.805   1.992   4.159  0.4165  0.0996 -0.4313
  873MOL0     H15227   6.796   1.897   4.304  1.9937 -1.4181 -1.6310
  873MOL0     H15228   6.561   1.863   4.274 -1.9482  0.7587  1.0089
  873MOL0     H15229   6.581   2.038   4.253 -4.7214 -0.5073 -1.3596
  873MOL0     H15230   6.564   1.838   4.020  1.0543 -0.9651  1.7473
  873MOL0     H15231   6.569   2.001   3.996 -0.6156 -0.3280 -1.2735
  873MOL0     H15232   6.334   1.891   4.151  2.5075  1.5284  4.1851
  873MOL0     H15233   6.383   2.057   4.129  0.7828 -0.7894  1.8783
  873MOL0     H15234   6.215   1.991   3.750  1.0008 -2.8971 -0.6947
  873MOL0     H15235   6.981   1.724   4.297  1.3065  0.4332 -0.1950
  873MOL0     H15236   7.198   1.657   4.205 -1.2340 -1.4690  0.3141
  874MOL0     O15237   7.511  11.063   1.435  0.0748  0.2028  0.2526
  874MOL0     C15238   7.593  11.126   1.377  0.8062 -0.7789 -0.0128
  874MOL0     O15239   7.574  11.248   1.338 -0.0880  0.0863  0.2307
  874MOL0     C15240   7.451  11.312   1.377  0.3599  1.0374 -0.4569
  874MOL0     C15241   7.405  11.347   1.509  0.4942  0.0395  0.1579
  874MOL0     C15242   7.270  11.397   1.526  0.0853 -0.6151 -0.0428
  874MOL0     C15243   7.185  11.429   1.422  0.1987 -0.9632  0.3958
  874MOL0     O15244   7.052  11.473   1.442  0.2278  0.8684  0.1536
  874MOL0     C15245   6.997  11.515   1.574  1.2351  0.4649  0.1336
  874MOL0     C15246   6.846  11.539   1.569  0.3532 -0.1339  0.5574
  874MOL0     C15247   6.813  11.628   1.451 -0.5842  0.4987  0.4392
  874MOL0     C15248   6.673  11.690   1.438 -0.5580 -0.2595 -0.0189
  874MOL0     C15249   6.642  11.769   1.566  0.1257 -0.5943  0.2159
  874MOL0     C15250   6.536  11.870   1.528 -0.4715 -0.3863 -0.5820
  874MOL0     C15251   6.484  11.928   1.668  0.0469 -0.0346  0.8573
  874MOL0     C15252   6.558  12.051   1.723 -0.2306  0.4927  0.0717
  874MOL0     N15253   6.517  12.114   1.849  0.0583  0.2308  0.7023
  874MOL0     C15254   6.583  12.216   1.911  0.4022 -0.8632  0.7811
  874MOL0     C15255   6.516  12.232   2.024  0.4925 -0.4125  0.4987
  874MOL0     C15256   6.534  12.332   2.142 -0.5595  0.1305  0.0049
  874MOL0     C15257   6.671  12.336   2.208 -0.9229 -0.4845  0.2382
  874MOL0     C15258   6.687  12.471   2.277 -0.4549 -0.3732 -0.2635
  874MOL0     C15259   6.794  12.478   2.384  0.0659 -0.4114 -0.9110
  874MOL0     O15260   6.764  12.389   2.492 -0.2036 -0.2494  0.1503
  874MOL0     C15261   6.825  12.373   2.612 -1.3303  0.1421  0.6084
  874MOL0     C15262   6.773  12.263   2.678 -0.0981  0.3394  0.7476
  874MOL0     C15263   6.828  12.218   2.804  0.9257  1.2070  1.0924
  874MOL0     C15264   6.929  12.289   2.860 -0.3314  0.3207  0.7352
  874MOL0     C15265   6.977  12.242   2.992  0.1389 -0.1026 -1.2125
  874MOL0     O15266   7.106  12.238   3.013  0.1321 -0.1407  0.3972
  874MOL0     C15267   7.147  12.170   3.122 -0.1434 -0.5637 -0.2061
  874MOL0     C15268   7.266  12.222   3.180 -0.2404 -0.0657 -0.1550
  874MOL0     C15269   7.316  12.160   3.294  0.7933  0.1544  0.5284
  874MOL0     C15270   7.257  12.046   3.353  0.3483 -0.3595  0.1657
  874MOL0     O15271   7.303  11.993   3.467  0.0771  0.7573  0.1703
  874MOL0     C15272   7.210  11.926   3.557 -0.3879 -0.1850 -0.0452
  874MOL0     C15273   7.197  12.015   3.683  0.3446 -0.5119  0.1591
  874MOL0     C15274   7.138  12.149   3.640 -0.0705  0.4867 -0.5209
  874MOL0     C15275   7.125  12.243   3.754  0.5431 -0.4952 -1.1567
  874MOL0     C15276   7.012  12.215   3.847 -0.0337 -1.3697  0.0469
  874MOL0     C15277   6.983  12.339   3.923 -0.3295  1.1403 -0.3786
  874MOL0     C15278   6.873  12.309   4.021 -0.0122  0.0600  0.7611
  874MOL0     C15279   6.854  12.425   4.116  0.3159 -0.3122 -0.6349
  874MOL0    Cl15280   6.708  12.401   4.202 -0.0071 -0.9080  0.0304
  874MOL0     C15281   7.136  12.001   3.287 -0.6278 -0.1044 -0.4038
  874MOL0     C15282   7.088  12.059   3.176 -0.4920  0.1407  0.4018
  874MOL0     O15283   6.887  12.217   3.077 -0.1076  0.1455 -1.0924
  874MOL0     C15284   6.993  12.392   2.787 -0.5972 -1.4458  0.0475
  874MOL0     C15285   6.943  12.428   2.661 -0.0201 -0.0351 -0.4077
  874MOL0     N15286   6.410  12.137   2.024 -0.8303 -1.0762  0.3347
  874MOL0     N15287   6.419  12.067   1.916  0.0458  0.3217 -0.5734
  874MOL0     C15288   7.237  11.399   1.292  0.1806 -0.0131  0.4571
  874MOL0     C15289   7.356  11.331   1.270  0.4141 -0.3486 -0.6596
  874MOL0     C15290   7.717  11.061   1.342 -0.9050 -0.5991  0.3478
  874MOL0     C15291   7.811  11.114   1.260 -0.9794  0.3393  0.8560
  874MOL0     C15292   7.927  11.057   1.211  0.3119 -0.9189  0.0685
  874MOL0     C15293   7.962  10.935   1.264 -0.0651  0.2489  0.0414
  874MOL0     O15294   8.076  10.871   1.232  0.4015  0.2364  0.1377
  874MOL0     C15295   8.140  10.906   1.106 -0.0137  0.3614  0.0116
  874MOL0     C15296   8.252  11.016   1.126  0.1435 -0.0133  0.1834
  874MOL0     C15297   8.400  10.965   1.129  0.5836 -0.1948  0.3040
  874MOL0     C15298   8.500  11.079   1.173  0.0141 -0.6476  0.0396
  874MOL0     C15299   8.629  11.023   1.202 -0.4082 -0.2302 -0.2924
  874MOL0     C15300   8.741  11.001   1.250 -0.6326 -0.1549 -0.4556
  874MOL0     C15301   7.877  10.869   1.348  1.1928  0.2469 -0.5632
  874MOL0     C15302   7.750  10.925   1.385 -0.0666 -0.5258 -0.1359
  874MOL0     H15303   7.458  11.326   1.601  2.2149 -4.4246 -1.5471
  874MOL0     H15304   7.241  11.437   1.622 -1.3581  1.7704 -1.3787
  874MOL0     H15305   7.041  11.611   1.604 -3.3392  3.1870 -0.9426
  874MOL0     H15306   7.006  11.438   1.651 -1.9541 -1.8565 -1.5751
  874MOL0     H15307   6.820  11.585   1.665  0.8096 -1.8491  1.5643
  874MOL0     H15308   6.789  11.446   1.562 -0.3961  0.3711 -0.1277
  874MOL0     H15309   6.838  11.561   1.368  0.7446  0.1121  1.1226
  874MOL0     H15310   6.880  11.713   1.462 -0.7396  1.0593 -2.1907
  874MOL0     H15311   6.674  11.750   1.347  0.2813 -1.1903 -0.6531
  874MOL0     H15312   6.593  11.615   1.436 -0.2820 -1.1001  5.2162
  874MOL0     H15313   6.729  11.826   1.600 -0.3911  0.5054 -0.2513
  874MOL0     H15314   6.603  11.700   1.641 -0.4547  0.9625  1.4100
  874MOL0     H15315   6.460  11.823   1.466 -1.0076  0.9280 -0.9312
  874MOL0     H15316   6.573  11.957   1.474 -1.6363  0.7677  0.4221
  874MOL0     H15317   6.382  11.958   1.642 -1.3637 -4.0373  1.1706
  874MOL0     H15318   6.483  11.851   1.745  1.9152 -1.1065 -0.1240
  874MOL0     H15319   6.542  12.136   1.656  0.3794  2.3153  2.1201
  874MOL0     H15320   6.661  12.021   1.741 -0.6798 -1.5222 -0.4484
  874MOL0     H15321   6.674  12.264   1.876  1.8399 -4.6895 -1.3728
  874MOL0     H15322   6.462  12.302   2.219  0.2771  1.2506  1.2563
  874MOL0     H15323   6.504  12.436   2.121  0.6246  0.5294  0.2491
  874MOL0     H15324   6.744  12.327   2.126 -0.9407 -0.9107  0.2676
  874MOL0     H15325   6.679  12.247   2.271 -4.1208 -2.3622 -1.7586
  874MOL0     H15326   6.683  12.550   2.201 -1.9357  1.3275  1.4695
  874MOL0     H15327   6.597  12.491   2.337 -0.9955 -2.0553 -0.4626
  874MOL0     H15328   6.809  12.579   2.422  0.4140 -0.9029  0.2943
  874MOL0     H15329   6.885  12.440   2.338  0.8011  1.0360 -0.7039
  874MOL0     H15330   6.697  12.204   2.629  1.8258 -1.8430  0.2063
  874MOL0     H15331   6.787  12.123   2.838  0.0367  0.9877 -0.4900
  874MOL0     H15332   7.327  12.301   3.135 -0.3314  1.1726  1.7687
  874MOL0     H15333   7.400  12.213   3.337  2.1125 -1.4585  0.0483
  874MOL0     H15334   7.272  11.844   3.594  0.5643  0.3215 -0.4778
  874MOL0     H15335   7.112  11.887   3.529 -0.4303 -0.5125  0.5397
  874MOL0     H15336   7.297  12.027   3.726 -0.6549  1.7769  2.0913
  874MOL0     H15337   7.128  11.972   3.757  0.9439  0.9319  1.6294
  874MOL0     H15338   7.038  12.132   3.599 -0.1000 -2.6545  0.5761
  874MOL0     H15339   7.196  12.192   3.557 -2.1971  0.4253 -2.1226
  874MOL0     H15340   7.213  12.235   3.818 -0.1841 -0.4089 -0.1174
  874MOL0     H15341   7.111  12.345   3.715  0.4807 -0.0323  0.0330
  874MOL0     H15342   7.029  12.130   3.914 -2.6683 -1.1059  1.1723
  874MOL0     H15343   6.921  12.195   3.791 -2.6399 -1.3964  3.9204
  874MOL0     H15344   6.945  12.418   3.857 -0.8284  1.0254 -0.2361
  874MOL0     H15345   7.072  12.378   3.973  2.9279 -1.5265 -3.5097
  874MOL0     H15346   6.778  12.305   3.968 -1.5197  1.9545  3.1048
  874MOL0     H15347   6.883  12.222   4.086 -2.8100  0.5149  1.9328
  874MOL0     H15348   6.845  12.521   4.065  2.3326  1.9444  2.8802
  874MOL0     H15349   6.943  12.428   4.179  1.7392  0.6531 -2.5779
  874MOL0     H15350   7.084  11.917   3.330 -0.9173  0.5041  0.4666
  874MOL0     H15351   6.999  12.012   3.136 -1.1620  0.1239  1.8364
  874MOL0     H15352   7.080  12.440   2.831  1.4112 -2.6191 -2.4118
  874MOL0     H15353   6.980  12.495   2.585 -4.8224  0.6977 -2.4383
  874MOL0     H15354   7.170  11.411   1.208 -0.1525 -0.3002  0.6784
  874MOL0     H15355   7.387  11.290   1.175 -0.0728 -1.0746 -0.5171
  874MOL0     H15356   7.780  11.212   1.224  1.3711  1.4886  1.6857
  874MOL0     H15357   7.974  11.121   1.137 -0.2271 -0.1770  0.3455
  874MOL0     H15358   8.067  10.958   1.044  0.6554  1.5218  0.1807
  874MOL0     H15359   8.178  10.817   1.055 -0.6309  0.5870 -0.8475
  874MOL0     H15360   8.235  11.086   1.043  1.5028 -1.0503 -1.0298
  874MOL0     H15361   8.227  11.070   1.217  0.9592  0.6541  0.0261
  874MOL0     H15362   8.440  10.925   1.035 -1.8827 -1.2482 -0.3893
  874MOL0     H15363   8.393  10.893   1.211 -0.5721  2.3226  2.5637
  874MOL0     H15364   8.515  11.151   1.092 -1.5881  2.5501  2.3924
  874MOL0     H15365   8.458  11.134   1.257  0.5002  0.3032 -0.3320
  874MOL0     H15366   8.837  10.970   1.285  0.8545  3.0163 -1.4581
  874MOL0     H15367   7.916  10.773   1.379  1.0585  0.0399 -1.0181
  874MOL0     H15368   7.683  10.888   1.462 -1.0515  3.1655  0.9821
  875MOL0     O15369   6.272  10.463   3.705 -1.0601 -0.1102  0.2482
  875MOL0     C15370   6.388  10.401   3.719  0.1571  0.3565 -0.1571
  875MOL0     O15371   6.502  10.422   3.646 -0.1185 -0.4481  0.1349
  875MOL0     C15372   6.507  10.515   3.550 -0.0320  0.0363  1.5506
  875MOL0     C15373   6.414  10.516   3.450  0.3577 -0.8845  0.1350
  875MOL0     C15374   6.404  10.608   3.346  0.8132  0.3405  0.0632
  875MOL0     C15375   6.510  10.705   3.335 -0.0422  1.0879  0.4236
  875MOL0     O15376   6.491  10.796   3.226 -0.3658 -0.6114 -0.4418
  875MOL0     C15377   6.587  10.904   3.217 -0.1535 -0.4610  0.2194
  875MOL0     C15378   6.547  11.018   3.314 -0.6105  0.0828  0.0116
  875MOL0     C15379   6.595  11.144   3.254  0.6025  0.1909  0.6682
  875MOL0     C15380   6.551  11.269   3.342 -0.3784  0.7812 -0.5911
  875MOL0     C15381   6.624  11.399   3.304  0.6877 -0.5356  0.1982
  875MOL0     C15382   6.642  11.424   3.155  0.7400 -0.6120 -0.3395
  875MOL0     C15383   6.720  11.547   3.116 -0.5399  0.3591  0.2856
  875MOL0     C15384   6.642  11.680   3.128  0.1377  0.9674 -0.3971
  875MOL0     N15385   6.601  11.726   2.996 -0.5079 -0.8070 -0.4721
  875MOL0     C15386   6.514  11.667   2.913 -0.0273  0.5965 -0.2744
  875MOL0     C15387   6.502  11.744   2.802  0.0066 -0.2027 -0.1972
  875MOL0     C15388   6.442  11.692   2.674 -0.0268 -0.2140  0.7664
  875MOL0     C15389   6.360  11.797   2.592  0.1532  0.1876 -0.6820
  875MOL0     C15390   6.438  11.879   2.490  0.1191  0.3671 -0.2778
  875MOL0     C15391   6.366  11.982   2.399  0.0059  0.8803 -0.8279
  875MOL0     O15392   6.268  12.060   2.468  0.3381  0.2124 -0.0128
  875MOL0     C15393   6.199  12.160   2.396  0.2770  0.4984  0.0759
  875MOL0     C15394   6.145  12.266   2.472  0.0286 -0.4431  0.2640
  875MOL0     C15395   6.105  12.386   2.417  0.7340  0.1671  0.4061
  875MOL0     C15396   6.102  12.405   2.275 -0.2120  0.6271 -0.1612
  875MOL0     C15397   6.052  12.525   2.221 -0.3177 -1.1392 -0.4933
  875MOL0     O15398   6.034  12.638   2.304 -0.0166 -0.2641 -0.4772
  875MOL0     C15399   5.967  12.754   2.262 -0.3425  0.7233  0.3376
  875MOL0     C15400   6.026  12.880   2.301  1.2133  0.1301 -0.0176
  875MOL0     C15401   5.953  12.995   2.284 -0.2838 -0.1507 -0.7624
  875MOL0     C15402   5.823  12.993   2.230  0.6690  0.5196 -0.0479
  875MOL0     O15403   5.761  13.119   2.238  0.0057  0.3141  0.9556
  875MOL0     C15404   5.623  13.141   2.207 -0.3773 -0.4872  0.0093
  875MOL0     C15405   5.605  13.296   2.189 -0.0306 -0.4750 -0.0478
  875MOL0     C15406   5.666  13.356   2.059 -0.3623  0.3378 -0.2040
  875MOL0     C15407   5.704  13.504   2.057 -0.9461 -0.7683 -0.5203
  875MOL0     C15408   5.587  13.598   2.105 -0.5037  0.3722 -0.3771
  875MOL0     C15409   5.619  13.732   2.047  0.4707 -0.1671  0.4803
  875MOL0     C15410   5.534  13.833   2.119 -0.6189  0.5039  0.6175
  875MOL0     C15411   5.583  13.973   2.089  0.4653 -0.5535  0.7050
  875MOL0    Cl15412   5.532  14.108   2.193 -0.1948  0.4365 -0.2896
  875MOL0     C15413   5.768  12.863   2.185 -0.3716  0.9263  0.1871
  875MOL0     C15414   5.845  12.753   2.192  0.0594  1.4320  0.1197
  875MOL0     O15415   6.019  12.519   2.103 -0.0878 -0.3295 -0.2404
  875MOL0     C15416   6.141  12.295   2.198  0.0479  0.9493 -0.6071
  875MOL0     C15417   6.188  12.179   2.257  0.0828 -0.6379 -0.1302
  875MOL0     N15418   6.582  11.856   2.812  0.2121 -0.1306 -1.3470
  875MOL0     N15419   6.641  11.845   2.930  0.8427  0.9950  0.2068
  875MOL0     C15420   6.605  10.713   3.434  0.0691 -0.8164 -0.1708
  875MOL0     C15421   6.604  10.616   3.541 -1.1917 -0.1732 -0.1655
  875MOL0     C15422   6.377  10.270   3.800 -0.3951 -0.7468  0.8187
  875MOL0     C15423   6.256  10.203   3.808  0.3260  1.8188 -0.7530
  875MOL0     C15424   6.255  10.076   3.870 -0.4677  0.5397 -0.7875
  875MOL0     C15425   6.372  10.015   3.925  1.1289 -0.9755  0.7142
  875MOL0     O15426   6.357   9.906   4.003  1.0435  0.5055  0.6466
  875MOL0     C15427   6.278   9.799   3.952 -0.3033  0.3651 -0.0739
  875MOL0     C15428   6.356   9.671   3.953  0.1691 -0.3111 -0.8800
  875MOL0     C15429   6.359   9.606   4.100 -0.1207  0.6571 -0.2252
  875MOL0     C15430   6.447   9.479   4.097  0.4840 -0.0445  0.2537
  875MOL0     C15431   6.386   9.366   4.025 -0.1169 -0.5865 -1.3286
  875MOL0     C15432   6.303   9.298   3.974 -0.0856  0.4670  0.3625
  875MOL0     C15433   6.483  10.095   3.923 -1.4974  0.8966 -0.6536
  875MOL0     C15434   6.487  10.219   3.859  0.7901 -0.1846  0.7598
  875MOL0     H15435   6.338  10.439   3.446 -1.2445  0.6882 -3.0175
  875MOL0     H15436   6.336  10.599   3.262 -1.2949 -0.4882  1.7759
  875MOL0     H15437   6.590  10.946   3.116  0.2430 -1.6107 -0.2735
  875MOL0     H15438   6.691  10.870   3.223  0.7899  2.0830 -0.4679
  875MOL0     H15439   6.597  11.003   3.410 -1.1528 -1.0232  0.1274
  875MOL0     H15440   6.438  11.024   3.320 -0.5278  1.9205  0.2821
  875MOL0     H15441   6.561  11.158   3.151 -0.6718 -0.4158  0.9802
  875MOL0     H15442   6.704  11.140   3.246  0.8285  1.0825  2.6744
  875MOL0     H15443   6.445  11.295   3.335 -0.2189  1.9380  0.9746
  875MOL0     H15444   6.575  11.242   3.445  0.8737  0.2906 -0.9871
  875MOL0     H15445   6.725  11.397   3.345  1.5434  1.7768 -1.5629
  875MOL0     H15446   6.563  11.476   3.351 -0.1349 -2.1317  1.8467
  875MOL0     H15447   6.539  11.432   3.118  0.9898 -0.5128 -1.0170
  875MOL0     H15448   6.690  11.341   3.103 -0.0519 -0.1376 -1.8999
  875MOL0     H15449   6.813  11.547   3.175 -0.8479 -1.9347  0.8839
  875MOL0     H15450   6.749  11.545   3.010 -2.4970  2.3124 -0.3549
  875MOL0     H15451   6.709  11.751   3.177 -0.4964  0.0960  1.9066
  875MOL0     H15452   6.551  11.672   3.188 -0.1531  1.5477 -0.7553
  875MOL0     H15453   6.464  11.573   2.934 -0.9907  1.2660  0.5066
  875MOL0     H15454   6.389  11.601   2.703  0.9273 -0.6388  1.1862
  875MOL0     H15455   6.525  11.650   2.617 -0.7963 -1.1264  0.2838
  875MOL0     H15456   6.289  11.858   2.648 -0.6066 -0.6298 -0.7423
  875MOL0     H15457   6.298  11.738   2.524  1.2079 -2.0107  0.1552
  875MOL0     H15458   6.519  11.924   2.548 -0.4350 -0.4095  1.1656
  875MOL0     H15459   6.484  11.805   2.424  3.5925  2.0848 -0.0051
  875MOL0     H15460   6.314  11.944   2.310 -0.6579  0.0420 -0.1101
  875MOL0     H15461   6.450  12.046   2.375  1.6860  1.0416  4.2086
  875MOL0     H15462   6.152  12.255   2.580  1.3255 -0.8792  0.1461
  875MOL0     H15463   6.081  12.464   2.489 -1.4255  0.1045 -0.1632
  875MOL0     H15464   6.129  12.891   2.333  1.6682 -2.3180 -0.4600
  875MOL0     H15465   5.999  13.093   2.289  0.0271 -0.0524 -3.7990
  875MOL0     H15466   5.555  13.117   2.289 -0.1732 -1.8305 -0.1956
  875MOL0     H15467   5.598  13.077   2.122  2.3588 -3.0866  0.9942
  875MOL0     H15468   5.651  13.346   2.274 -0.4092  2.8668 -1.6491
  875MOL0     H15469   5.500  13.319   2.210 -0.5905 -1.8571 -1.1701
  875MOL0     H15470   5.601  13.347   1.972 -2.3602 -0.7037  1.3059
  875MOL0     H15471   5.762  13.307   2.038  1.7019  4.6047 -1.8379
  875MOL0     H15472   5.782  13.522   2.131 -0.4688 -1.1539 -0.9251
  875MOL0     H15473   5.742  13.540   1.960 -1.2571 -0.5911 -0.5783
  875MOL0     H15474   5.604  13.602   2.213 -1.1752  1.9778 -0.3007
  875MOL0     H15475   5.483  13.564   2.093 -0.7166  1.2812 -1.2511
  875MOL0     H15476   5.598  13.729   1.940  2.9560 -0.6910 -0.0535
  875MOL0     H15477   5.727  13.746   2.047  0.5954  1.3119 -5.1354
  875MOL0     H15478   5.427  13.824   2.095 -0.6196  2.1547 -0.0925
  875MOL0     H15479   5.541  13.826   2.228 -1.1662  0.5270  0.6616
  875MOL0     H15480   5.548  13.991   1.987 -1.3613 -3.8163  0.6306
  875MOL0     H15481   5.692  13.975   2.087  0.4712 -1.1226 -0.3078
  875MOL0     H15482   5.663  12.857   2.161 -0.9278 -0.2317  2.5602
  875MOL0     H15483   5.800  12.656   2.171 -3.5956  3.4307 -2.2025
  875MOL0     H15484   6.129  12.301   2.090  0.6219 -1.1336 -0.8352
  875MOL0     H15485   6.231  12.100   2.195 -1.1501 -1.6457  0.2579
  875MOL0     H15486   6.686  10.785   3.433  0.3015 -1.0749  0.0752
  875MOL0     H15487   6.667  10.613   3.630 -3.8664  0.6853  1.9180
  875MOL0     H15488   6.166  10.227   3.752  0.0125 -0.0713 -1.1236
  875MOL0     H15489   6.158  10.027   3.859 -1.1605  1.3248  1.3156
  875MOL0     H15490   6.252   9.811   3.846 -1.8319  2.3413  0.4832
  875MOL0     H15491   6.186   9.791   4.010 -0.7797  0.5072 -0.7989
  875MOL0     H15492   6.320   9.599   3.879 -0.1871  0.8732 -1.8766
  875MOL0     H15493   6.460   9.687   3.924  1.1897  1.6245  3.1957
  875MOL0     H15494   6.258   9.584   4.136  0.8762 -2.6433  0.9708
  875MOL0     H15495   6.410   9.659   4.181 -0.0901 -1.5093  1.2747
  875MOL0     H15496   6.548   9.493   4.057  0.1414 -1.6159 -1.2843
  875MOL0     H15497   6.452   9.443   4.200  3.3543 -0.2857  0.0976
  875MOL0     H15498   6.226   9.230   3.941 -1.0348  2.0275 -0.7928
  875MOL0     H15499   6.574  10.053   3.965 -0.5351  3.7662  0.4123
  875MOL0     H15500   6.584  10.267   3.845 -0.1869  1.5211 -0.5212
  876MOL0     O15501   7.490   8.403   3.551 -0.2031  0.9613  0.2638
  876MOL0     C15502   7.523   8.302   3.486  0.1830 -0.0864 -0.8497
  876MOL0     O15503   7.572   8.296   3.357 -0.3564  0.2123 -0.9758
  876MOL0     C15504   7.618   8.409   3.300 -0.4532 -0.8999 -0.8036
  876MOL0     C15505   7.525   8.506   3.272 -0.6759 -0.4139 -1.1080
  876MOL0     C15506   7.575   8.625   3.201  0.6996  0.4623 -0.3952
  876MOL0     C15507   7.701   8.649   3.164 -0.4820  0.7217  0.3000
  876MOL0     O15508   7.733   8.763   3.110 -0.0846 -0.5167  0.7709
  876MOL0     C15509   7.864   8.785   3.054  0.4079  0.4366  0.6206
  876MOL0     C15510   7.874   8.711   2.915 -1.1622  0.5441 -0.0331
  876MOL0     C15511   7.761   8.742   2.808 -0.3992  0.7464  0.5129
  876MOL0     C15512   7.774   8.880   2.737  0.7576  0.0235 -0.4774
  876MOL0     C15513   7.668   8.892   2.622 -0.1388  0.3398 -0.1976
  876MOL0     C15514   7.681   9.034   2.562  0.2110 -0.4305 -0.0112
  876MOL0     C15515   7.597   9.047   2.434  0.3260  0.5406  0.0230
  876MOL0     C15516   7.565   9.183   2.377 -0.0912 -0.4379  0.4110
  876MOL0     N15517   7.462   9.174   2.275  0.1032 -0.1704 -0.1393
  876MOL0     C15518   7.493   9.130   2.150 -0.7328  0.5230  0.5106
  876MOL0     C15519   7.387   9.167   2.071 -0.6775 -0.3661 -1.0860
  876MOL0     C15520   7.362   9.126   1.929  1.1530  1.0509  0.2765
  876MOL0     C15521   7.449   9.199   1.825 -0.5566  0.3231 -0.1183
  876MOL0     C15522   7.584   9.130   1.823 -0.9341  0.2890 -0.1018
  876MOL0     C15523   7.686   9.202   1.739 -0.3649 -0.3396 -0.1867
  876MOL0     O15524   7.748   9.115   1.644  0.2107  0.2405  0.4560
  876MOL0     C15525   7.838   9.020   1.686 -0.0267 -1.1115 -0.4438
  876MOL0     C15526   7.866   8.914   1.593 -0.4539 -0.1119  0.1898
  876MOL0     C15527   7.961   8.808   1.621  0.6366  0.2210 -0.8965
  876MOL0     C15528   8.018   8.804   1.751  1.0866  1.2259  0.5699
  876MOL0     C15529   8.106   8.692   1.789 -0.3660  0.7133  0.0615
  876MOL0     O15530   8.183   8.704   1.895  0.4940 -0.0547 -0.0534
  876MOL0     C15531   8.240   8.588   1.934  0.9860 -1.1099  0.3462
  876MOL0     C15532   8.371   8.570   1.913 -0.5873  0.3202  0.7745
  876MOL0     C15533   8.444   8.467   1.968  0.2264 -0.1511 -0.0087
  876MOL0     C15534   8.388   8.375   2.042  0.7939  0.7447 -0.7773
  876MOL0     O15535   8.468   8.288   2.106  0.6956  0.1117  0.2187
  876MOL0     C15536   8.418   8.187   2.194 -0.3725  0.0955 -0.2128
  876MOL0     C15537   8.531   8.114   2.272  0.4044  0.2341  0.2099
  876MOL0     C15538   8.641   8.208   2.316 -0.3311  0.4048  0.1752
  876MOL0     C15539   8.737   8.129   2.420  0.3095 -0.3927 -0.8401
  876MOL0     C15540   8.851   8.228   2.470  0.9283  0.7908  0.1120
  876MOL0     C15541   8.945   8.162   2.573  0.4361  0.1171 -0.5741
  876MOL0     C15542   9.019   8.260   2.665 -0.5064  0.3121  0.4476
  876MOL0     C15543   9.105   8.189   2.767 -0.6524  0.7753  0.2741
  876MOL0    Cl15544   9.010   8.068   2.877  0.0179 -0.2961  0.1354
  876MOL0     C15545   8.243   8.382   2.061 -0.6259  0.1364 -0.2332
  876MOL0     C15546   8.171   8.490   2.001 -0.0249  0.3866 -0.1695
  876MOL0     O15547   8.109   8.594   1.717  0.5265  0.1280  0.0115
  876MOL0     C15548   8.001   8.917   1.834 -0.2803  0.7268  0.4570
  876MOL0     C15549   7.909   9.015   1.809 -0.2584 -0.2865  0.2509
  876MOL0     N15550   7.302   9.233   2.154 -0.1727 -0.9276 -0.4900
  876MOL0     N15551   7.339   9.230   2.278 -0.7056  0.3118  0.5102
  876MOL0     C15552   7.791   8.536   3.194 -0.5168  0.4088  0.5046
  876MOL0     C15553   7.752   8.423   3.260  0.0641  0.6237 -0.8859
  876MOL0     C15554   7.516   8.179   3.571  0.2132 -0.0718 -0.1642
  876MOL0     C15555   7.478   8.184   3.711 -0.0051 -0.1164  0.0483
  876MOL0     C15556   7.491   8.064   3.790 -0.4090  0.4822 -0.5418
  876MOL0     C15557   7.529   7.943   3.733  0.5618  0.1759 -0.2592
  876MOL0     O15558   7.547   7.831   3.817  0.0720 -0.2608 -0.7838
  876MOL0     C15559   7.645   7.735   3.782 -0.7305  0.6481 -0.1400
  876MOL0     C15560   7.785   7.771   3.738 -0.2773  1.3480  0.0023
  876MOL0     C15561   7.857   7.856   3.843  0.4307  0.3680 -0.2754
  876MOL0     C15562   8.016   7.861   3.844  0.1993 -0.0827 -0.4032
  876MOL0     C15563   8.057   7.905   3.974  0.2650 -0.5367 -0.8787
  876MOL0     C15564   8.112   7.930   4.078 -0.2086  0.7237 -0.0340
  876MOL0     C15565   7.541   7.936   3.599  0.3106 -0.3257 -0.4053
  876MOL0     C15566   7.538   8.054   3.524 -0.7512  0.8650  0.0166
  876MOL0     H15567   7.419   8.493   3.292 -0.7378 -0.9546 -1.7514
  876MOL0     H15568   7.506   8.708   3.191 -1.5206 -1.0641  1.4249
  876MOL0     H15569   7.948   8.774   3.123  0.8046  2.7592  0.5828
  876MOL0     H15570   7.864   8.890   3.024  2.3700  0.0158 -1.0250
  876MOL0     H15571   7.864   8.602   2.923 -2.2524  0.7486  2.3203
  876MOL0     H15572   7.972   8.744   2.879  0.2418  1.1665  3.9148
  876MOL0     H15573   7.660   8.742   2.852 -1.8897  3.3279 -2.4939
  876MOL0     H15574   7.764   8.667   2.729 -2.2952 -1.1863  2.1564
  876MOL0     H15575   7.750   8.964   2.802  1.9680 -0.0395  0.0654
  876MOL0     H15576   7.872   8.903   2.695  1.7553 -1.1814  1.0771
  876MOL0     H15577   7.569   8.853   2.647 -0.6242 -2.3163 -5.0737
  876MOL0     H15578   7.707   8.817   2.552  0.3015 -2.6463  2.9746
  876MOL0     H15579   7.782   9.065   2.532 -1.1988  4.9219 -0.3153
  876MOL0     H15580   7.655   9.111   2.635  0.0790 -0.6255  0.1481
  876MOL0     H15581   7.643   8.989   2.353 -3.2095 -2.9070  0.1879
  876MOL0     H15582   7.501   9.001   2.459 -0.4684  1.9264 -0.3674
  876MOL0     H15583   7.651   9.246   2.352 -0.0293  0.7119  3.1793
  876MOL0     H15584   7.528   9.251   2.454  0.6555 -0.3640  0.7197
  876MOL0     H15585   7.589   9.082   2.131 -0.8380  0.9936 -1.3433
  876MOL0     H15586   7.257   9.128   1.899  1.6453  0.1102 -1.7042
  876MOL0     H15587   7.391   9.021   1.918 -1.3460  0.4810 -1.7285
  876MOL0     H15588   7.444   9.308   1.840  5.4795  0.7310  1.3511
  876MOL0     H15589   7.406   9.196   1.725 -0.3499 -1.0185 -0.1778
  876MOL0     H15590   7.621   9.120   1.926 -1.6310 -3.8984 -0.1020
  876MOL0     H15591   7.580   9.027   1.789  1.2510  0.8219 -2.2074
  876MOL0     H15592   7.753   9.264   1.799 -0.3348  0.6306 -1.1841
  876MOL0     H15593   7.630   9.273   1.677 -0.8190 -1.9879 -1.7312
  876MOL0     H15594   7.805   8.919   1.503 -0.8459 -1.6714  0.3515
  876MOL0     H15595   7.960   8.729   1.547 -1.7468 -0.0124 -0.7056
  876MOL0     H15596   8.428   8.645   1.859 -1.9002  1.9563  1.5619
  876MOL0     H15597   8.547   8.469   1.933 -1.2330  0.4921 -5.0407
  876MOL0     H15598   8.361   8.113   2.137  1.8017 -1.4573 -0.4617
  876MOL0     H15599   8.357   8.247   2.263  1.1454  2.5070 -0.8292
  876MOL0     H15600   8.575   8.039   2.206 -0.9754  2.2399 -3.2542
  876MOL0     H15601   8.480   8.066   2.357 -2.3602  0.7982 -1.0210
  876MOL0     H15602   8.603   8.301   2.359 -0.4681  0.1287  0.6596
  876MOL0     H15603   8.691   8.245   2.226 -0.8220  0.5487 -0.0473
  876MOL0     H15604   8.675   8.097   2.504 -0.2280 -0.3691 -1.2232
  876MOL0     H15605   8.780   8.041   2.371  4.6306  0.5521  0.7811
  876MOL0     H15606   8.795   8.302   2.527  0.0064 -0.6447  1.1370
  876MOL0     H15607   8.913   8.273   2.392  4.2478  0.9229  2.6141
  876MOL0     H15608   9.023   8.114   2.513  1.6373  0.0477  0.9844
  876MOL0     H15609   8.876   8.099   2.631  0.1661  1.0511  0.1442
  876MOL0     H15610   9.087   8.329   2.614  0.4853 -0.4673  0.6892
  876MOL0     H15611   8.937   8.311   2.716 -2.3770 -2.4384  0.3911
  876MOL0     H15612   9.161   8.259   2.830  2.5951 -1.0053 -0.4300
  876MOL0     H15613   9.182   8.142   2.704 -0.3284  1.4025  0.1872
  876MOL0     H15614   8.191   8.312   2.125  0.7039 -1.4264 -0.7771
  876MOL0     H15615   8.064   8.492   2.018  0.1305  2.6569  0.9257
  876MOL0     H15616   8.063   8.911   1.923 -0.2563 -3.0202  0.3434
  876MOL0     H15617   7.898   9.089   1.888  2.1821  1.1096 -0.6113
  876MOL0     H15618   7.897   8.550   3.174 -0.7056  1.0198 -0.1161
  876MOL0     H15619   7.820   8.340   3.274 -1.9589 -0.8199  1.1165
  876MOL0     H15620   7.457   8.279   3.759  1.0420  1.2357 -1.9782
  876MOL0     H15621   7.476   8.057   3.897 -0.9876  0.7968 -0.5977
  876MOL0     H15622   7.592   7.677   3.706  0.6826  1.7762 -2.0857
  876MOL0     H15623   7.670   7.658   3.856 -1.0017 -1.2609 -1.9240
  876MOL0     H15624   7.839   7.678   3.714  1.2173  1.7738  1.5603
  876MOL0     H15625   7.787   7.825   3.643  2.4294  2.8429  0.7873
  876MOL0     H15626   7.830   7.812   3.940  0.1883 -3.7500 -1.9968
  876MOL0     H15627   7.830   7.962   3.848  1.4762  0.6226  0.3893
  876MOL0     H15628   8.055   7.760   3.824 -0.3310 -0.7769  1.7674
  876MOL0     H15629   8.043   7.937   3.770 -2.4491  3.4417  1.9544
  876MOL0     H15630   8.170   7.932   4.168  0.3370 -0.2062 -0.3527
  876MOL0     H15631   7.528   7.842   3.547 -0.5932  0.1777 -1.1436
  876MOL0     H15632   7.555   8.054   3.417 -0.3194 -1.5543  0.0346
  877MOL0     O15633   6.431   4.425   1.104 -0.2944 -0.7718  0.0970
  877MOL0     C15634   6.328   4.409   1.031 -0.7060 -0.2764  0.7458
  877MOL0     O15635   6.271   4.285   0.993  0.0233 -0.5177  0.2382
  877MOL0     C15636   6.314   4.167   1.052  0.6232 -0.0914 -0.1127
  877MOL0     C15637   6.298   4.046   0.980 -1.1665  0.9328  0.0996
  877MOL0     C15638   6.341   3.919   1.033  0.2166  0.1089 -0.4106
  877MOL0     C15639   6.395   3.916   1.167 -0.0742  0.3004  0.0404
  877MOL0     O15640   6.444   3.798   1.220 -0.1137 -0.3033  0.3540
  877MOL0     C15641   6.383   3.738   1.339 -0.6221 -1.6708  0.2369
  877MOL0     C15642   6.251   3.670   1.307  0.7690  0.4423  0.6357
  877MOL0     C15643   6.224   3.549   1.398 -1.0593 -0.4473  0.1367
  877MOL0     C15644   6.298   3.433   1.317  0.9834 -0.2263 -0.1857
  877MOL0     C15645   6.280   3.302   1.398 -0.1064  0.2657 -0.3437
  877MOL0     C15646   6.189   3.198   1.322  1.2665  0.0009 -0.6776
  877MOL0     C15647   6.180   3.072   1.407 -0.3004 -0.0261 -0.1129
  877MOL0     C15648   6.287   2.954   1.382  0.2340 -0.4696 -0.1415
  877MOL0     N15649   6.332   2.944   1.250 -0.6846 -1.0374  0.8870
  877MOL0     C15650   6.287   2.862   1.143  0.8642  0.2879  0.1880
  877MOL0     C15651   6.362   2.901   1.043  0.2463  0.2322 -0.0954
  877MOL0     C15652   6.382   2.835   0.899 -0.2655 -0.0338  0.7531
  877MOL0     C15653   6.280   2.888   0.799 -0.3292 -0.2053  1.5190
  877MOL0     C15654   6.263   3.043   0.793  0.0350 -0.2562  0.8196
  877MOL0     C15655   6.195   3.089   0.668 -0.0983 -0.0687 -0.2199
  877MOL0     O15656   6.247   3.043   0.540 -0.1921 -0.0318 -1.6267
  877MOL0     C15657   6.188   3.076   0.424  0.9580  0.8145  0.0385
  877MOL0     C15658   6.070   3.152   0.408  0.5306 -0.7340 -0.1143
  877MOL0     C15659   6.026   3.171   0.278  0.3815  0.4443  1.0261
  877MOL0     C15660   6.086   3.108   0.165 -0.8432 -1.2798  0.2041
  877MOL0     C15661   6.040   3.115   0.030  0.6310  1.1410 -0.7242
  877MOL0     O15662   6.020   2.992  -0.036  1.0071  0.5567 -0.3637
  877MOL0     C15663   6.031   2.994  -0.172  0.0857  0.6410  0.4758
  877MOL0     C15664   6.136   3.058  -0.229 -0.4621 -0.2798 -0.4502
  877MOL0     C15665   6.156   3.060  -0.373 -0.0268 -0.1596 -0.2199
  877MOL0     C15666   6.052   3.011  -0.451  0.9362 -0.6153  0.3462
  877MOL0     O15667   6.068   3.015  -0.587 -0.5331 -0.0916 -0.0549
  877MOL0     C15668   5.963   3.005  -0.676  0.4084  0.3531 -0.1321
  877MOL0     C15669   6.003   3.029  -0.825 -0.2914  0.5371  0.1272
  877MOL0     C15670   6.114   3.133  -0.863  0.3234  0.4980 -0.3598
  877MOL0     C15671   6.250   3.076  -0.829 -0.0429 -0.0863  0.5064
  877MOL0     C15672   6.368   3.147  -0.898  0.6462 -1.0369  0.9792
  877MOL0     C15673   6.387   3.308  -0.887  0.5621 -0.6259  0.4095
  877MOL0     C15674   6.502   3.356  -0.980  0.3560 -0.6913  0.3514
  877MOL0     C15675   6.543   3.506  -0.976 -0.3259 -0.4488 -0.0226
  877MOL0    Cl15676   6.694   3.531  -1.083  0.1615 -0.4457  0.1623
  877MOL0     C15677   5.948   2.942  -0.392 -0.8366  0.0474  0.7850
  877MOL0     C15678   5.946   2.924  -0.256  0.0577  0.0768  0.4623
  877MOL0     O15679   6.045   3.225  -0.028  0.1778 -0.1795 -0.8697
  877MOL0     C15680   6.200   3.039   0.181  0.4973  0.5562 -0.0223
  877MOL0     C15681   6.248   3.023   0.311  0.3674 -0.4972 -0.3159
  877MOL0     N15682   6.464   2.990   1.081  0.5642  0.4065  0.4296
  877MOL0     N15683   6.442   3.021   1.208 -0.2050  0.0588  0.6631
  877MOL0     C15684   6.398   4.037   1.241 -0.0390  0.0109 -0.2470
  877MOL0     C15685   6.356   4.162   1.188 -0.0207 -0.1224 -0.6392
  877MOL0     C15686   6.273   4.529   0.969 -0.2096  0.1685 -0.6972
  877MOL0     C15687   6.173   4.514   0.872  1.0172 -0.4773 -0.0376
  877MOL0     C15688   6.113   4.623   0.815 -0.1494  0.4617 -1.1407
  877MOL0     C15689   6.154   4.751   0.865 -0.4441  0.2572 -1.1142
  877MOL0     O15690   6.080   4.855   0.825 -0.1315  0.2091  1.0868
  877MOL0     C15691   6.119   5.002   0.830 -0.7201  0.9944 -0.6837
  877MOL0     C15692   6.221   5.044   0.717 -0.0644  0.3880  0.2485
  877MOL0     C15693   6.159   5.053   0.578 -0.3145 -0.5266  0.5287
  877MOL0     C15694   6.046   5.158   0.575  0.2062  0.1236  0.4292
  877MOL0     C15695   6.047   5.286   0.651 -0.1068 -0.3773 -0.5767
  877MOL0     C15696   6.053   5.394   0.702 -0.1149 -0.0327  0.4590
  877MOL0     C15697   6.251   4.764   0.971 -0.1674 -0.1774  0.5474
  877MOL0     C15698   6.305   4.651   1.028 -0.6083  0.1289  0.4506
  877MOL0     H15699   6.265   4.043   0.877  1.4109  1.1038 -0.8044
  877MOL0     H15700   6.336   3.833   0.967  0.4845  1.5903 -2.4473
  877MOL0     H15701   6.377   3.810   1.421  0.5504  0.1966 -1.2188
  877MOL0     H15702   6.454   3.662   1.372  0.0896 -1.7664 -1.4161
  877MOL0     H15703   6.232   3.653   1.201 -2.4889  2.8803  0.6821
  877MOL0     H15704   6.178   3.748   1.331  0.8649  0.4048  1.0578
  877MOL0     H15705   6.117   3.531   1.410 -0.8903 -1.3484  0.3435
  877MOL0     H15706   6.254   3.562   1.502 -2.8129  1.6428  0.4578
  877MOL0     H15707   6.242   3.425   1.223  1.1679 -1.1522 -0.2283
  877MOL0     H15708   6.405   3.448   1.302  1.4129  0.3417  2.8226
  877MOL0     H15709   6.233   3.323   1.494 -1.1982 -3.7470  0.2018
  877MOL0     H15710   6.380   3.265   1.420  0.9389  2.8448 -0.4479
  877MOL0     H15711   6.233   3.179   1.224  2.0665  2.5918 -0.8939
  877MOL0     H15712   6.089   3.240   1.313  0.6110 -0.6790  2.2879
  877MOL0     H15713   6.166   3.093   1.513  1.8336 -0.8003  0.3548
  877MOL0     H15714   6.086   3.033   1.367 -1.1445  1.4311  0.3668
  877MOL0     H15715   6.238   2.860   1.412 -1.5495  0.4803  0.0916
  877MOL0     H15716   6.372   2.950   1.451  1.7106 -3.9045 -1.9071
  877MOL0     H15717   6.203   2.795   1.128  1.5474 -1.2514  2.6744
  877MOL0     H15718   6.371   2.727   0.886  1.9876 -0.0596 -1.9453
  877MOL0     H15719   6.481   2.868   0.864  0.5967 -1.9016  1.2966
  877MOL0     H15720   6.180   2.846   0.815  0.4982 -3.1848 -0.4019
  877MOL0     H15721   6.307   2.855   0.698 -0.7653  1.9213  0.6460
  877MOL0     H15722   6.194   3.072   0.873 -2.6252  0.6535 -1.6321
  877MOL0     H15723   6.363   3.087   0.796 -0.6911  1.9639 -2.4105
  877MOL0     H15724   6.201   3.198   0.669 -1.3882  0.0233  0.9408
  877MOL0     H15725   6.090   3.059   0.672  0.6934 -3.2161 -0.0930
  877MOL0     H15726   6.007   3.194   0.485 -0.7384 -1.0550 -0.9550
  877MOL0     H15727   5.935   3.224   0.251  0.8400  0.8578  0.2552
  877MOL0     H15728   6.213   3.102  -0.166 -2.4434 -0.0071  1.9799
  877MOL0     H15729   6.240   3.092  -0.434 -0.1956 -0.5830 -0.6830
  877MOL0     H15730   5.883   3.074  -0.646  1.4198  0.4405  2.7021
  877MOL0     H15731   5.924   2.903  -0.681  0.5017  0.3549 -3.5471
  877MOL0     H15732   5.913   3.044  -0.885  1.7062  0.8809 -3.0284
  877MOL0     H15733   6.050   2.937  -0.860  2.7863  1.4327  1.5877
  877MOL0     H15734   6.092   3.229  -0.815  0.2034 -0.5723  1.9031
  877MOL0     H15735   6.121   3.152  -0.970  3.5354  2.2698  0.0540
  877MOL0     H15736   6.266   3.086  -0.721 -3.0277  1.3472  0.9064
  877MOL0     H15737   6.264   2.973  -0.864  2.3457  0.7431 -1.2858
  877MOL0     H15738   6.376   3.113  -1.001  0.0966 -1.9425  1.2265
  877MOL0     H15739   6.460   3.106  -0.853  1.4444 -0.2264  0.1230
  877MOL0     H15740   6.407   3.343  -0.786 -0.2839  2.9207 -0.4874
  877MOL0     H15741   6.293   3.358  -0.914 -0.4014 -1.3789  2.2310
  877MOL0     H15742   6.586   3.303  -0.932 -1.5306 -0.4146  4.4029
  877MOL0     H15743   6.483   3.322  -1.082  0.4659 -3.6634  1.2353
  877MOL0     H15744   6.556   3.547  -0.876 -0.9748  1.3890 -0.6535
  877MOL0     H15745   6.465   3.572  -1.016 -0.9826  0.8432  3.1449
  877MOL0     H15746   5.881   2.886  -0.457  0.7762 -1.0988  0.0266
  877MOL0     H15747   5.862   2.875  -0.207 -0.0261  1.6123  1.9880
  877MOL0     H15748   6.253   2.980   0.108  0.7661  0.3966  0.2955
  877MOL0     H15749   6.339   2.966   0.321  2.3520  2.2089 -1.7267
  877MOL0     H15750   6.430   4.043   1.345  2.1540  2.4694 -0.9604
  877MOL0     H15751   6.356   4.254   1.246 -2.1471  0.3517 -1.2825
  877MOL0     H15752   6.144   4.420   0.826  1.1552  0.3444 -1.8979
  877MOL0     H15753   6.039   4.613   0.736  1.6790 -0.2450 -2.8531
  877MOL0     H15754   6.156   5.020   0.931 -1.6077 -1.3724  0.1252
  877MOL0     H15755   6.032   5.069   0.822  0.1527  1.8921 -3.8794
  877MOL0     H15756   6.271   5.138   0.740 -0.9370  0.4851  1.8696
  877MOL0     H15757   6.297   4.965   0.718 -0.1979 -0.0393 -3.8249
  877MOL0     H15758   6.127   4.956   0.539  2.3231 -1.1144 -0.4168
  877MOL0     H15759   6.232   5.085   0.502 -0.1981 -0.6852  0.5740
  877MOL0     H15760   6.034   5.185   0.469 -0.3294 -0.3347  0.3685
  877MOL0     H15761   5.962   5.094   0.602  0.0333 -0.7646 -1.9685
  877MOL0     H15762   6.074   5.489   0.747 -0.2857  0.1359  0.1836
  877MOL0     H15763   6.269   4.859   1.020 -3.6600  1.7774 -1.6065
  877MOL0     H15764   6.370   4.659   1.114  1.1233  2.1032 -0.9333
  878MOL0     O15765   1.112   2.244   9.672 -0.3817 -0.8065  0.0131
  878MOL0     C15766   1.177   2.305   9.587 -0.4888  0.1445  0.3038
  878MOL0     O15767   1.296   2.362   9.595  0.1456  0.3496 -0.8841
  878MOL0     C15768   1.345   2.371   9.726 -0.8292 -0.0348 -0.3051
  878MOL0     C15769   1.315   2.464   9.828 -0.8591  0.5829  0.4076
  878MOL0     C15770   1.374   2.460   9.950  0.3665  0.5483 -1.0474
  878MOL0     C15771   1.450   2.357   9.992  0.3535  0.8898  0.2796
  878MOL0     O15772   1.454   2.338  10.133  0.7740  0.7733 -0.2658
  878MOL0     C15773   1.579   2.277  10.186  1.3746  0.1240  0.3606
  878MOL0     C15774   1.603   2.341  10.317  0.0899 -0.2636 -0.8965
  878MOL0     C15775   1.667   2.228  10.411 -0.1136  0.0210  0.0238
  878MOL0     C15776   1.635   2.270  10.556  0.5516 -0.7483 -0.1690
  878MOL0     C15777   1.690   2.182  10.654 -0.4188 -0.6635 -0.1622
  878MOL0     C15778   1.626   2.205  10.796  0.4824  0.2514  0.0786
  878MOL0     C15779   1.682   2.099  10.894 -0.0251  0.7809 -0.1370
  878MOL0     C15780   1.585   2.080  11.016 -0.3250  0.5805  0.1837
  878MOL0     N15781   1.648   1.987  11.112 -0.2112 -0.2982  0.4360
  878MOL0     C15782   1.674   1.855  11.087 -0.0073 -0.3561 -0.0080
  878MOL0     C15783   1.748   1.826  11.195 -1.2528  0.9888 -0.4791
  878MOL0     C15784   1.815   1.694  11.232  1.0337 -0.1912 -0.2745
  878MOL0     C15785   1.726   1.562  11.200 -0.7121 -0.3959  0.0404
  878MOL0     C15786   1.784   1.438  11.277  0.6791  0.5951 -0.5329
  878MOL0     C15787   1.682   1.321  11.281  0.2348 -0.0068 -0.6173
  878MOL0     O15788   1.628   1.285  11.149 -0.3867 -0.2324 -0.1853
  878MOL0     C15789   1.502   1.237  11.147  0.2495 -0.3601  0.1946
  878MOL0     C15790   1.487   1.111  11.098 -0.2209  0.4047  0.3231
  878MOL0     C15791   1.362   1.055  11.082 -0.2004 -0.3806 -0.3561
  878MOL0     C15792   1.246   1.133  11.100  0.0777 -0.6798  0.3130
  878MOL0     C15793   1.117   1.090  11.066 -0.2870  0.5292  0.2024
  878MOL0     O15794   1.015   1.138  11.127 -0.1141 -0.9471  0.7491
  878MOL0     C15795   0.881   1.108  11.096 -0.3221 -0.3237 -0.0390
  878MOL0     C15796   0.824   0.988  11.063 -0.4387  0.5969  0.4628
  878MOL0     C15797   0.690   0.976  11.048  0.1989  0.8002  1.2533
  878MOL0     C15798   0.603   1.073  11.088  1.1735 -1.0584 -0.3048
  878MOL0     O15799   0.468   1.041  11.077  0.6000  0.1959  0.0292
  878MOL0     C15800   0.385   1.142  11.134  0.8962 -0.0839  0.0416
  878MOL0     C15801   0.230   1.103  11.119  0.2062  0.6021  0.2860
  878MOL0     C15802   0.130   1.183  11.204 -0.3128 -0.0589 -0.4220
  878MOL0     C15803   0.148   1.165  11.359  0.4295 -0.3714 -0.1575
  878MOL0     C15804   0.091   1.271  11.446 -0.9094  0.0701  0.4255
  878MOL0     C15805  -0.060   1.281  11.425 -0.3560  0.0367  0.5146
  878MOL0     C15806  -0.125   1.408  11.482 -0.2147  0.2509  0.2308
  878MOL0     C15807  -0.275   1.425  11.447 -0.8035 -0.1491  0.1419
  878MOL0    Cl15808  -0.355   1.585  11.492 -0.1431  0.3904  0.0527
  878MOL0     C15809   0.656   1.204  11.127 -0.7673 -0.4954  0.0651
  878MOL0     C15810   0.798   1.223  11.121 -0.0969  0.4494  0.5417
  878MOL0     O15811   1.111   0.988  10.994  0.8737 -0.6197 -0.6113
  878MOL0     C15812   1.261   1.266  11.140 -0.0935  0.9319 -1.1404
  878MOL0     C15813   1.384   1.318  11.163  0.2310  0.7180 -0.0244
  878MOL0     N15814   1.769   1.934  11.276 -0.5606  0.2362  0.5758
  878MOL0     N15815   1.708   2.033  11.220  0.0256  0.2122  0.4834
  878MOL0     C15816   1.498   2.278   9.885  0.0617  0.9042  0.1875
  878MOL0     C15817   1.436   2.270   9.759 -0.0910  0.4892  0.1627
  878MOL0     C15818   1.110   2.305   9.448  0.0223  0.6037  0.0108
  878MOL0     C15819   1.132   2.411   9.353  1.2222 -0.4339  0.1370
  878MOL0     C15820   1.077   2.408   9.234  1.1875  0.3987 -0.3658
  878MOL0     C15821   0.979   2.319   9.194 -0.3118  0.0224 -0.5438
  878MOL0     O15822   0.929   2.342   9.074  0.0918  0.0989 -0.4336
  878MOL0     C15823   0.816   2.267   9.029 -0.5599  0.7472 -0.6348
  878MOL0     C15824   0.754   2.327   8.896 -0.4850  0.0719 -1.2633
  878MOL0     C15825   0.722   2.478   8.906  0.1026  0.9577 -0.4134
  878MOL0     C15826   0.572   2.504   8.882  0.2091  0.2276  0.3892
  878MOL0     C15827   0.553   2.648   8.891  0.8597  0.2741  1.6292
  878MOL0     C15828   0.537   2.766   8.919  0.9606  0.0306  1.0787
  878MOL0     C15829   0.964   2.210   9.281  0.5562  0.7219  0.2115
  878MOL0     C15830   1.026   2.201   9.411  0.4994 -1.6582 -0.3980
  878MOL0     H15831   1.260   2.553   9.800 -0.3022  1.5374  2.1599
  878MOL0     H15832   1.336   2.526  10.027  1.9136  0.8883 -0.5592
  878MOL0     H15833   1.666   2.301  10.123 -0.0079 -0.6685 -1.9474
  878MOL0     H15834   1.571   2.168  10.185  1.3831 -0.0183  3.8214
  878MOL0     H15835   1.512   2.386  10.358  1.1889  0.6554  0.6795
  878MOL0     H15836   1.670   2.426  10.301  1.9555 -2.2667 -5.0195
  878MOL0     H15837   1.775   2.216  10.394 -0.0735  0.2508  0.1083
  878MOL0     H15838   1.635   2.126  10.388  1.1325 -0.3082 -0.3172
  878MOL0     H15839   1.672   2.368  10.589  1.3736 -0.6762 -1.2361
  878MOL0     H15840   1.526   2.264  10.557  0.5525 -0.7218  0.6628
  878MOL0     H15841   1.799   2.190  10.657 -0.4998  2.3370 -1.5501
  878MOL0     H15842   1.667   2.079  10.626  0.8546 -1.2057  0.7034
  878MOL0     H15843   1.517   2.197  10.793 -0.0103  2.1874  4.6935
  878MOL0     H15844   1.650   2.309  10.819  0.6565  0.2514 -0.0944
  878MOL0     H15845   1.689   2.010  10.831 -0.8262  0.7716 -0.2145
  878MOL0     H15846   1.780   2.135  10.927  0.2755 -1.7360  2.0990
  878MOL0     H15847   1.496   2.040  10.967 -0.3905  1.6041 -0.5734
  878MOL0     H15848   1.557   2.174  11.063  0.7470  0.2760  1.5070
  878MOL0     H15849   1.639   1.789  11.009 -3.4648 -0.1737  1.2451
  878MOL0     H15850   1.845   1.703  11.337  0.5593 -2.0637  0.0526
  878MOL0     H15851   1.905   1.700  11.170  0.6629  1.2057 -0.7259
  878MOL0     H15852   1.732   1.542  11.093 -0.0047  0.5847 -0.1109
  878MOL0     H15853   1.619   1.581  11.216 -0.1924  0.6851  2.6218
  878MOL0     H15854   1.880   1.419  11.227  2.5841  0.2701  2.9594
  878MOL0     H15855   1.805   1.450  11.383 -1.5425  2.8512 -0.2696
  878MOL0     H15856   1.601   1.348  11.349 -0.6192 -0.1140 -1.5720
  878MOL0     H15857   1.730   1.233  11.326 -0.7863 -0.8482 -1.1441
  878MOL0     H15858   1.569   1.041  11.091 -2.4713 -3.2266  4.9151
  878MOL0     H15859   1.356   0.953  11.043 -1.8792 -1.3191  2.0762
  878MOL0     H15860   0.882   0.897  11.052  0.4403  1.0580  1.2011
  878MOL0     H15861   0.650   0.882  11.012  2.5749  0.5891 -1.1777
  878MOL0     H15862   0.399   1.236  11.080 -1.4220  0.9497  1.0819
  878MOL0     H15863   0.412   1.155  11.239  1.7028  0.4248 -0.2106
  878MOL0     H15864   0.223   0.995  11.137  1.2499  0.7498  1.8808
  878MOL0     H15865   0.207   1.106  11.012  0.2354 -3.2473  0.0347
  878MOL0     H15866   0.022   1.169  11.191 -0.4609 -0.5508  1.1024
  878MOL0     H15867   0.147   1.289  11.185 -1.9823  0.2869 -0.1250
  878MOL0     H15868   0.124   1.064  11.392 -0.1295  0.1454  1.0748
  878MOL0     H15869   0.255   1.171  11.377  0.5000  0.8288 -0.8087
  878MOL0     H15870   0.141   1.368  11.434  0.7542 -0.9457 -1.3604
  878MOL0     H15871   0.118   1.230  11.544 -0.0729 -1.2856 -0.3494
  878MOL0     H15872  -0.112   1.194  11.466  0.7637 -2.9614 -3.7826
  878MOL0     H15873  -0.091   1.278  11.320 -0.0274 -1.2264  0.4445
  878MOL0     H15874  -0.116   1.420  11.590 -1.0513  0.1692  0.3165
  878MOL0     H15875  -0.065   1.482  11.427  0.9422 -1.0236 -0.2693
  878MOL0     H15876  -0.329   1.348  11.502  1.2322  0.1637  2.7947
  878MOL0     H15877  -0.282   1.407  11.339 -0.2937 -3.0568  0.5216
  878MOL0     H15878   0.596   1.292  11.146  0.9728  0.9170 -0.6992
  878MOL0     H15879   0.848   1.319  11.119  0.0201  0.4070 -1.8777
  878MOL0     H15880   1.176   1.331  11.156  0.3161  1.3466 -0.6034
  878MOL0     H15881   1.384   1.423  11.189 -2.9337  0.4817  1.4679
  878MOL0     H15882   1.579   2.206   9.897 -0.3236 -0.2257 -2.9182
  878MOL0     H15883   1.471   2.188   9.699  2.9852  0.4451  1.8206
  878MOL0     H15884   1.206   2.487   9.378 -0.8011  1.4841  0.5815
  878MOL0     H15885   1.116   2.481   9.163 -2.5227  1.0939 -1.9325
  878MOL0     H15886   0.742   2.256   9.108 -0.9608 -0.8589 -1.2063
  878MOL0     H15887   0.845   2.163   9.011 -1.4871 -0.2079  2.6510
  878MOL0     H15888   0.825   2.307   8.815 -0.8570  1.0132 -1.8321
  878MOL0     H15889   0.662   2.272   8.877 -0.4492 -0.1564 -0.8036
  878MOL0     H15890   0.783   2.538   8.839  0.2616 -1.2767 -2.3662
  878MOL0     H15891   0.730   2.513   9.010 -1.3797  0.3990 -0.0815
  878MOL0     H15892   0.529   2.462   8.792 -2.4746  1.6911  0.8930
  878MOL0     H15893   0.510   2.460   8.961 -0.3803 -1.9257 -1.2053
  878MOL0     H15894   0.521   2.858   8.971  1.2099  2.2320 -2.4173
  878MOL0     H15895   0.903   2.130   9.241  0.4992  0.9385 -0.1419
  878MOL0     H15896   1.010   2.115   9.476 -1.3679 -1.1148 -0.0863
  879MOL0     O15897   4.079   0.617   8.556 -0.2776 -0.0926 -0.2730
  879MOL0     C15898   4.110   0.732   8.530  0.1144 -0.3536  0.1521
  879MOL0     O15899   4.023   0.840   8.533 -0.3270 -0.1266  0.0926
  879MOL0     C15900   3.886   0.815   8.573 -0.4182 -0.6435  0.5927
  879MOL0     C15901   3.806   0.718   8.510 -1.1142  0.3092 -0.3268
  879MOL0     C15902   3.673   0.704   8.560 -0.1819 -0.5196 -0.9950
  879MOL0     C15903   3.627   0.779   8.667 -0.1739  0.1603  0.8493
  879MOL0     O15904   3.498   0.768   8.721 -0.6997 -0.3014 -0.0820
  879MOL0     C15905   3.466   0.643   8.775 -0.6677 -0.2873 -0.3427
  879MOL0     C15906   3.381   0.646   8.910 -1.1481 -0.0604  0.1209
  879MOL0     C15907   3.230   0.665   8.888 -0.3786  0.5367 -0.0909
  879MOL0     C15908   3.206   0.814   8.883  0.9239  0.8924  0.5744
  879MOL0     C15909   3.060   0.853   8.874  0.5777 -0.4068 -0.2873
  879MOL0     C15910   3.001   0.864   8.727 -0.0179  0.5269 -0.0987
  879MOL0     C15911   2.879   0.961   8.710 -0.1564 -0.0984 -0.2092
  879MOL0     C15912   2.751   0.916   8.779 -0.7746  0.1335 -0.1032
  879MOL0     N15913   2.641   1.011   8.738  0.2125  0.6346  0.1134
  879MOL0     C15914   2.652   1.138   8.715  0.2703 -0.5112 -1.1217
  879MOL0     C15915   2.529   1.182   8.674 -0.0500  0.1994 -0.6964
  879MOL0     C15916   2.469   1.304   8.619 -0.1579 -1.4851  0.2986
  879MOL0     C15917   2.541   1.352   8.492  0.0445 -0.8438  0.3942
  879MOL0     C15918   2.484   1.279   8.371  0.2967 -0.4846 -0.5521
  879MOL0     C15919   2.507   1.127   8.367 -0.6157  0.4833 -0.0097
  879MOL0     O15920   2.519   1.081   8.230 -0.5681  0.0159  0.1052
  879MOL0     C15921   2.407   1.077   8.151  0.6641 -0.6716  0.9680
  879MOL0     C15922   2.273   1.066   8.200  0.4532 -0.1939  0.0193
  879MOL0     C15923   2.175   1.064   8.105  0.0552 -0.1208 -0.3066
  879MOL0     C15924   2.196   1.066   7.977  0.8026  0.4796  0.5076
  879MOL0     C15925   2.077   1.082   7.880 -0.3246 -1.1606 -0.7429
  879MOL0     O15926   2.096   1.053   7.751  0.0598 -0.0118  0.1070
  879MOL0     C15927   1.979   1.030   7.683 -0.8219  0.6101 -0.3142
  879MOL0     C15928   1.966   0.904   7.635  0.7161  0.0484  0.7890
  879MOL0     C15929   1.854   0.883   7.554  0.2692  0.4387 -0.3938
  879MOL0     C15930   1.768   0.978   7.514 -0.3059  0.3370 -0.4635
  879MOL0     O15931   1.654   0.969   7.433 -0.0810  0.2209  0.1924
  879MOL0     C15932   1.638   0.839   7.389  0.4920  0.4987  0.5367
  879MOL0     C15933   1.493   0.842   7.327  1.4662 -0.3984 -0.6956
  879MOL0     C15934   1.387   0.907   7.424  0.4344  0.4929 -0.3620
  879MOL0     C15935   1.245   0.869   7.375 -0.7882  0.6831 -0.3320
  879MOL0     C15936   1.146   0.932   7.470  0.0382  0.2921  0.8713
  879MOL0     C15937   0.998   0.905   7.430  0.1229 -0.2891  0.7353
  879MOL0     C15938   0.936   0.986   7.316 -0.4315 -0.2898 -0.1799
  879MOL0     C15939   0.781   0.978   7.276 -0.7117  0.4256 -0.4607
  879MOL0    Cl15940   0.675   0.930   7.406 -0.0452 -0.0003  0.2857
  879MOL0     C15941   1.795   1.112   7.556 -0.0018  0.3242  0.1373
  879MOL0     C15942   1.903   1.138   7.643 -0.2071  0.2337  1.5544
  879MOL0     O15943   1.966   1.104   7.931 -0.3784 -0.1822  0.3615
  879MOL0     C15944   2.320   1.065   7.918 -0.8011  0.2839  0.1481
  879MOL0     C15945   2.430   1.086   8.009 -0.6542  0.1725  0.8456
  879MOL0     N15946   2.447   1.078   8.691  0.1077 -0.4449 -0.4854
  879MOL0     N15947   2.511   0.975   8.735 -0.6073 -0.3290 -0.4586
  879MOL0     C15948   3.713   0.871   8.725  0.6827  0.4374 -0.8765
  879MOL0     C15949   3.846   0.886   8.685 -0.0377 -0.4140 -0.4415
  879MOL0     C15950   4.244   0.752   8.480  0.1894  0.1744  0.8705
  879MOL0     C15951   4.276   0.857   8.406  0.1553  1.1757 -0.8393
  879MOL0     C15952   4.409   0.888   8.360  0.5350 -0.3855 -0.8168
  879MOL0     C15953   4.515   0.804   8.389  0.1453 -0.2597  0.5083
  879MOL0     O15954   4.630   0.841   8.335  0.6697 -0.6664  0.2250
  879MOL0     C15955   4.748   0.835   8.416 -0.4976  1.0581 -0.2625
  879MOL0     C15956   4.835   0.951   8.373 -0.1903 -0.8628 -0.6331
  879MOL0     C15957   4.788   1.086   8.446  0.0825 -0.0225 -0.0157
  879MOL0     C15958   4.880   1.203   8.412  0.1147  0.9081 -0.4557
  879MOL0     C15959   4.817   1.332   8.442 -0.2011 -0.1730 -0.5254
  879MOL0     C15960   4.771   1.446   8.464 -0.4165  0.5105 -0.0992
  879MOL0     C15961   4.487   0.694   8.473  0.2275 -0.8837 -1.4198
  879MOL0     C15962   4.356   0.667   8.513  0.1529 -0.0778  0.6899
  879MOL0     H15963   3.849   0.655   8.433  0.4091  1.9269 -0.8448
  879MOL0     H15964   3.619   0.621   8.516  1.9173 -1.6978 -1.4967
  879MOL0     H15965   3.558   0.596   8.810 -0.5116  1.3749  1.6204
  879MOL0     H15966   3.418   0.579   8.700 -1.5382 -0.6189  0.4821
  879MOL0     H15967   3.423   0.714   8.984  0.2438  1.0436 -1.5729
  879MOL0     H15968   3.391   0.546   8.953 -0.6359  1.0518  2.7413
  879MOL0     H15969   3.188   0.617   8.976  0.1944  1.4054  0.6798
  879MOL0     H15970   3.182   0.621   8.801 -0.6294 -0.8512  0.7283
  879MOL0     H15971   3.255   0.857   8.971  3.5861  0.7167 -0.7356
  879MOL0     H15972   3.252   0.861   8.796  0.0303  1.2953  0.3083
  879MOL0     H15973   3.061   0.944   8.934 -0.3117 -1.5148  1.5060
  879MOL0     H15974   3.004   0.776   8.929 -1.8370 -0.4981 -2.6472
  879MOL0     H15975   2.978   0.762   8.694  2.0164 -1.1033  3.0121
  879MOL0     H15976   3.077   0.909   8.661 -0.0100  1.4095  0.4971
  879MOL0     H15977   2.919   1.048   8.763  0.7062  0.0039 -0.9973
  879MOL0     H15978   2.853   0.980   8.605  0.1702 -1.9255 -0.6548
  879MOL0     H15979   2.763   0.923   8.887 -1.4652  2.0824 -0.1064
  879MOL0     H15980   2.722   0.816   8.747  1.9521 -1.1981  1.2260
  879MOL0     H15981   2.746   1.192   8.712 -0.6355  1.1206 -0.7925
  879MOL0     H15982   2.479   1.382   8.695 -0.1321 -1.5116  0.3218
  879MOL0     H15983   2.365   1.284   8.590  0.7270 -3.4514 -1.8685
  879MOL0     H15984   2.651   1.356   8.491  0.1542 -2.6711 -1.0762
  879MOL0     H15985   2.518   1.457   8.472 -2.7272 -1.4222  0.1469
  879MOL0     H15986   2.377   1.300   8.369  0.9468  3.4322 -1.7026
  879MOL0     H15987   2.527   1.334   8.287  0.7869  0.9711  0.6155
  879MOL0     H15988   2.432   1.075   8.427  1.0596  0.5428  2.2516
  879MOL0     H15989   2.598   1.109   8.425 -0.8442  5.3544  2.3232
  879MOL0     H15990   2.249   1.047   8.304  1.0715 -1.8934 -0.1161
  879MOL0     H15991   2.074   1.075   8.142  1.0238  2.1463  2.0184
  879MOL0     H15992   2.042   0.828   7.654 -1.4968 -2.4076  0.3125
  879MOL0     H15993   1.845   0.779   7.523  0.3858  0.5649 -0.8598
  879MOL0     H15994   1.644   0.763   7.467  1.9046 -1.9697 -1.8386
  879MOL0     H15995   1.719   0.813   7.320 -0.6721 -2.5460  0.1516
  879MOL0     H15996   1.471   0.744   7.284 -0.6094  1.1496 -3.4832
  879MOL0     H15997   1.484   0.909   7.241 -3.5299  0.9166  0.5211
  879MOL0     H15998   1.400   1.016   7.421  3.5461  0.2245 -3.9109
  879MOL0     H15999   1.410   0.882   7.528  3.4324 -0.4387 -1.1524
  879MOL0     H16000   1.223   0.895   7.271 -1.0873  0.4032 -0.3395
  879MOL0     H16001   1.237   0.760   7.379  1.8814  0.3322 -1.7555
  879MOL0     H16002   1.143   1.042   7.469 -0.8547  0.2888  1.5873
  879MOL0     H16003   1.168   0.898   7.572  1.1379 -4.0033 -0.5910
  879MOL0     H16004   0.932   0.915   7.517 -0.5500 -2.6238  0.5669
  879MOL0     H16005   1.004   0.801   7.395  2.7028  0.2090 -0.5855
  879MOL0     H16006   0.944   1.090   7.347 -2.6390 -0.2806  0.5002
  879MOL0     H16007   1.004   0.976   7.231 -1.9070  1.8690 -1.6935
  879MOL0     H16008   0.776   0.897   7.202  0.5327  1.1455 -1.3722
  879MOL0     H16009   0.746   1.069   7.226 -0.9193 -0.2379 -1.5669
  879MOL0     H16010   1.725   1.187   7.523  3.1590  1.8130 -4.1081
  879MOL0     H16011   1.926   1.232   7.692  3.9674 -2.3145  5.2357
  879MOL0     H16012   2.332   1.067   7.810 -1.1752 -2.6277 -0.0267
  879MOL0     H16013   2.537   1.078   7.987 -1.1555 -0.7971 -1.5878
  879MOL0     H16014   3.679   0.917   8.817 -2.0669  1.5632 -2.3592
  879MOL0     H16015   3.909   0.957   8.736  0.1566  0.5555 -1.9529
  879MOL0     H16016   4.201   0.932   8.379  0.9987  1.9987 -0.9580
  879MOL0     H16017   4.418   0.975   8.295 -0.6909 -0.7228 -1.4612
  879MOL0     H16018   4.799   0.744   8.384  0.5173  1.3406  0.4795
  879MOL0     H16019   4.741   0.831   8.525  1.9943 -0.3613 -0.0792
  879MOL0     H16020   4.940   0.941   8.400  1.2798  2.0478 -4.3863
  879MOL0     H16021   4.838   0.971   8.266  2.2010 -0.0435 -0.4568
  879MOL0     H16022   4.791   1.084   8.555  3.1688 -0.2521 -0.0423
  879MOL0     H16023   4.684   1.111   8.421 -0.6391 -0.7679  2.0262
  879MOL0     H16024   4.969   1.186   8.473  0.4703 -1.8661 -1.5997
  879MOL0     H16025   4.902   1.189   8.306 -0.6360  2.6840 -0.8791
  879MOL0     H16026   4.759   1.542   8.511  0.0096 -0.9040  3.1679
  879MOL0     H16027   4.571   0.633   8.503  0.8194  2.4554  5.9582
  879MOL0     H16028   4.353   0.576   8.572  2.4370 -3.7117 -4.0514
  880MOL0     O16029   5.861  10.842   6.342 -0.3419 -0.0010 -0.0825
  880MOL0     C16030   5.876  10.798   6.458  0.0701 -0.3853  0.6806
  880MOL0     O16031   5.831  10.864   6.576 -0.2737  0.2114 -0.2747
  880MOL0     C16032   5.715  10.936   6.561  0.1162  0.4364 -0.5967
  880MOL0     C16033   5.605  10.898   6.480  0.6462 -0.4480  0.0697
  880MOL0     C16034   5.488  10.972   6.479  0.0371 -0.0744  0.0211
  880MOL0     C16035   5.470  11.088   6.548 -0.6368 -0.8148  1.0184
  880MOL0     O16036   5.345  11.150   6.545  0.0603  0.1634 -0.2615
  880MOL0     C16037   5.334  11.294   6.553 -0.3925  0.4158  0.9074
  880MOL0     C16038   5.265  11.323   6.419  0.3441 -0.4147  0.1778
  880MOL0     C16039   5.115  11.275   6.420 -0.0223 -1.3724 -0.2406
  880MOL0     C16040   5.050  11.288   6.280 -0.1169  0.5541 -0.5546
  880MOL0     C16041   4.912  11.214   6.277 -0.2939 -0.5886 -0.2423
  880MOL0     C16042   4.856  11.236   6.134 -0.2095 -0.0049 -0.7241
  880MOL0     C16043   4.723  11.164   6.111  0.7164 -0.3648 -0.3252
  880MOL0     C16044   4.642  11.235   6.007  0.1158  0.1941  0.1984
  880MOL0     N16045   4.702  11.236   5.876  0.2460 -0.5146  0.1960
  880MOL0     C16046   4.729  11.126   5.794  0.0282  1.3098  0.2231
  880MOL0     C16047   4.806  11.179   5.697  0.0571 -0.3891 -0.0581
  880MOL0     C16048   4.870  11.103   5.573 -0.0981  0.3219 -0.0161
  880MOL0     C16049   5.019  11.127   5.580  0.5784  0.6985 -0.4054
  880MOL0     C16050   5.082  11.088   5.718  0.2751  0.4706 -0.3134
  880MOL0     C16051   5.228  11.124   5.743 -0.3624 -0.7877  0.3122
  880MOL0     O16052   5.279  11.065   5.866  0.7209  0.4189 -0.2704
  880MOL0     C16053   5.388  11.125   5.915  0.2294 -0.1238 -0.5919
  880MOL0     C16054   5.494  11.182   5.845 -0.5125  0.2487 -0.0512
  880MOL0     C16055   5.613  11.219   5.917  0.6131 -0.2644  0.3465
  880MOL0     C16056   5.613  11.213   6.058  1.2875  0.3035 -0.5859
  880MOL0     C16057   5.728  11.253   6.135 -0.3484  0.1580 -0.4447
  880MOL0     O16058   5.716  11.278   6.270  0.2017  0.2492  0.3446
  880MOL0     C16059   5.816  11.280   6.354 -0.5199 -0.7684 -0.3313
  880MOL0     C16060   5.823  11.392   6.433 -0.1380 -0.2236 -0.1447
  880MOL0     C16061   5.935  11.395   6.522 -0.7371 -0.1635  0.7659
  880MOL0     C16062   6.039  11.308   6.526  0.4673 -0.2593 -0.3970
  880MOL0     O16063   6.142  11.334   6.621 -0.2013  0.8347  0.3498
  880MOL0     C16064   6.103  11.329   6.762 -0.5809  0.2952  0.0220
  880MOL0     C16065   6.224  11.361   6.848 -0.5787 -0.8724 -0.6347
  880MOL0     C16066   6.323  11.241   6.845  0.1367  0.5855 -0.9967
  880MOL0     C16067   6.443  11.272   6.929 -0.3607 -0.5781  0.1182
  880MOL0     C16068   6.541  11.151   6.922 -0.9458 -0.3005 -0.0268
  880MOL0     C16069   6.671  11.181   7.007  0.2129  1.1168 -0.0065
  880MOL0     C16070   6.640  11.232   7.141  0.9258  0.7069  0.3013
  880MOL0     C16071   6.769  11.236   7.240 -0.6269 -0.7882 -0.3072
  880MOL0    Cl16072   6.887  11.335   7.158 -0.1753 -0.3437 -0.1129
  880MOL0     C16073   6.027  11.202   6.444 -0.7094  0.0241  0.4777
  880MOL0     C16074   5.917  11.183   6.356 -0.2959 -0.1276  0.2181
  880MOL0     O16075   5.838  11.279   6.076  0.2694  0.6214  0.0020
  880MOL0     C16076   5.498  11.157   6.124  0.3310  0.2818 -0.4554
  880MOL0     C16077   5.387  11.107   6.057 -0.1099 -0.2401 -0.2909
  880MOL0     N16078   4.837  11.318   5.721  0.1423  0.2862  0.4276
  880MOL0     N16079   4.757  11.345   5.823  0.8166  0.4836 -0.4329
  880MOL0     C16080   5.577  11.125   6.631  0.8776  0.5379  0.8314
  880MOL0     C16081   5.695  11.050   6.643  0.1544 -0.4145  0.3403
  880MOL0     C16082   5.975  10.677   6.491  0.1018 -0.0867 -0.1163
  880MOL0     C16083   5.992  10.638   6.619  0.2726  0.3262 -0.4722
  880MOL0     C16084   6.065  10.526   6.653  1.0545 -0.4787  0.4561
  880MOL0     C16085   6.124  10.443   6.556 -0.2429 -0.6078 -0.9853
  880MOL0     O16086   6.198  10.337   6.603  0.0705  0.7526  0.9962
  880MOL0     C16087   6.234  10.240   6.497  0.0484  0.5431  0.2249
  880MOL0     C16088   6.311  10.132   6.562 -1.0717  0.7178 -0.0448
  880MOL0     C16089   6.306  10.004   6.478 -0.5525 -0.4075  1.0921
  880MOL0     C16090   6.434   9.928   6.486  1.7504 -0.8460  0.0631
  880MOL0     C16091   6.546  10.011   6.450 -0.3116  0.6955 -0.3198
  880MOL0     C16092   6.651  10.069   6.458  0.4081 -0.2236  0.3464
  880MOL0     C16093   6.122  10.489   6.421 -0.9535 -0.0428  0.0376
  880MOL0     C16094   6.052  10.608   6.395  0.7384  0.5877  0.2400
  880MOL0     H16095   5.604  10.805   6.424  4.1877 -0.7783  0.3674
  880MOL0     H16096   5.412  10.918   6.423 -1.7187  2.1056  0.1695
  880MOL0     H16097   5.433  11.339   6.541 -0.1138 -0.5125 -0.4998
  880MOL0     H16098   5.277  11.328   6.640  0.7413 -0.5074  2.0403
  880MOL0     H16099   5.312  11.273   6.334  2.2275 -0.2863  1.1024
  880MOL0     H16100   5.265  11.432   6.408 -0.2410 -0.5484 -1.5615
  880MOL0     H16101   5.054  11.342   6.481  0.4478 -1.0934 -0.0658
  880MOL0     H16102   5.099  11.177   6.466  0.3201 -1.1869  0.2823
  880MOL0     H16103   5.034  11.389   6.241  0.7627  0.6745 -0.6064
  880MOL0     H16104   5.097  11.239   6.194 -1.8401 -2.4418  0.0562
  880MOL0     H16105   4.827  11.242   6.340 -2.4591  0.6663 -3.4663
  880MOL0     H16106   4.946  11.113   6.301  3.6852  0.8096  0.8073
  880MOL0     H16107   4.921  11.183   6.063 -0.0836  0.2368 -0.7920
  880MOL0     H16108   4.859  11.342   6.107 -1.7448  0.4964  0.9204
  880MOL0     H16109   4.740  11.058   6.089  1.9132 -0.1329 -0.6059
  880MOL0     H16110   4.660  11.173   6.200  1.1004  0.4007 -0.1209
  880MOL0     H16111   4.616  11.333   6.049  0.8020  1.1158 -1.4215
  880MOL0     H16112   4.545  11.186   5.996  0.1888  0.5873 -3.7036
  880MOL0     H16113   4.700  11.025   5.821 -1.5133  1.0912 -2.0346
  880MOL0     H16114   4.807  11.137   5.491 -0.7313 -1.4382 -0.2880
  880MOL0     H16115   4.855  10.996   5.588 -0.8151  0.4273  0.0352
  880MOL0     H16116   5.039  11.234   5.569  1.5167  0.2879 -4.1436
  880MOL0     H16117   5.072  11.072   5.502 -0.0690 -0.1476 -0.2634
  880MOL0     H16118   5.024  11.127   5.802  0.3780 -0.0040 -0.0216
  880MOL0     H16119   5.071  10.979   5.721  1.8524  0.3106  1.7576
  880MOL0     H16120   5.234  11.233   5.747 -0.9343 -0.7823  2.4462
  880MOL0     H16121   5.277  11.083   5.654  1.4351  1.2230  0.3063
  880MOL0     H16122   5.485  11.189   5.737 -2.0397  2.6611  0.1510
  880MOL0     H16123   5.707  11.250   5.873  0.2050  0.3542 -0.1131
  880MOL0     H16124   5.754  11.475   6.439 -3.1304 -2.6105  1.5663
  880MOL0     H16125   5.930  11.477   6.593 -3.5014 -1.0940  1.7660
  880MOL0     H16126   6.069  11.228   6.785  1.0399 -0.6843 -1.5830
  880MOL0     H16127   6.018  11.397   6.779 -0.5022  0.3304  0.2756
  880MOL0     H16128   6.205  11.389   6.951  1.2732  5.3940 -1.5728
  880MOL0     H16129   6.273  11.453   6.814  1.6864 -2.2353 -1.3107
  880MOL0     H16130   6.340  11.223   6.738 -2.0959  1.4840 -1.5553
  880MOL0     H16131   6.279  11.152   6.891  1.1247 -0.4197 -1.9365
  880MOL0     H16132   6.496  11.355   6.884  2.6877 -4.6457 -4.9142
  880MOL0     H16133   6.410  11.294   7.031  3.2584  0.1707  1.2524
  880MOL0     H16134   6.583  11.140   6.821 -0.2001 -0.6922  0.3157
  880MOL0     H16135   6.480  11.063   6.946 -2.2318  0.5477 -0.0590
  880MOL0     H16136   6.727  11.261   6.958  0.7856  1.0513  0.5349
  880MOL0     H16137   6.719  11.085   7.028 -3.7516 -0.9816  0.5148
  880MOL0     H16138   6.617  11.336   7.113 -1.6217 -0.3490 -1.8976
  880MOL0     H16139   6.561  11.174   7.189  1.5220 -2.4164 -2.1802
  880MOL0     H16140   6.816  11.138   7.256 -3.3866 -2.3649 -1.1183
  880MOL0     H16141   6.723  11.280   7.330 -0.2220 -1.4338  0.2271
  880MOL0     H16142   6.107  11.130   6.452  0.9293  1.6924 -0.1950
  880MOL0     H16143   5.919  11.085   6.310 -0.8102 -0.3420  0.6386
  880MOL0     H16144   5.511  11.149   6.231  3.8842  2.4039 -0.5420
  880MOL0     H16145   5.307  11.056   6.109  1.1649 -2.4468 -0.3843
  880MOL0     H16146   5.562  11.203   6.705 -0.6414  1.0045  0.0761
  880MOL0     H16147   5.777  11.079   6.708  1.7690 -1.4175 -1.1219
  880MOL0     H16148   5.932  10.677   6.702  0.7839 -1.1399  0.6184
  880MOL0     H16149   6.076  10.491   6.755  0.0871 -0.5013  0.5644
  880MOL0     H16150   6.298  10.281   6.418 -0.4389  1.9063  0.5056
  880MOL0     H16151   6.143  10.196   6.453 -0.6628  0.6901  1.4988
  880MOL0     H16152   6.411  10.166   6.587  0.4185 -4.1941  1.9417
  880MOL0     H16153   6.274  10.114   6.664  1.8158 -1.0889  0.8066
  880MOL0     H16154   6.280  10.032   6.376  1.0193  1.0455  1.0486
  880MOL0     H16155   6.235   9.933   6.521 -0.9903  0.2651  1.4971
  880MOL0     H16156   6.437   9.891   6.589 -1.1448 -1.8101 -0.1093
  880MOL0     H16157   6.425   9.844   6.416 -0.0411 -0.8506  0.2402
  880MOL0     H16158   6.735  10.132   6.479  0.7460 -0.8656  0.9430
  880MOL0     H16159   6.151  10.422   6.341  0.3052 -0.1789  0.5782
  880MOL0     H16160   6.053  10.647   6.294 -1.2161  1.6970  0.5912
  881MOL0     O16161   9.493   8.776   2.350  0.1419 -0.4493  0.3826
  881MOL0     C16162   9.376   8.751   2.328 -0.2036  0.6713  0.3298
  881MOL0     O16163   9.277   8.842   2.335  0.0718 -1.3171  0.3049
  881MOL0     C16164   9.300   8.974   2.355  0.5607 -0.0541 -0.0586
  881MOL0     C16165   9.231   9.071   2.278 -0.4367  0.3712 -0.8294
  881MOL0     C16166   9.239   9.209   2.307  0.2204 -0.4985  0.3295
  881MOL0     C16167   9.303   9.256   2.429  0.8854  0.4944 -0.0480
  881MOL0     O16168   9.295   9.389   2.472  0.7597  0.1777  0.0319
  881MOL0     C16169   9.197   9.471   2.407  0.3130 -0.1072 -1.2392
  881MOL0     C16170   9.160   9.580   2.509  0.7452 -0.0031 -0.4481
  881MOL0     C16171   9.012   9.632   2.492 -0.6443 -0.2185 -0.1957
  881MOL0     C16172   9.012   9.755   2.588 -0.0646 -0.7583  0.1461
  881MOL0     C16173   8.878   9.825   2.600 -0.2286  0.2367 -0.6028
  881MOL0     C16174   8.776   9.748   2.670  0.3764 -0.4123 -0.1647
  881MOL0     C16175   8.655   9.828   2.725  0.4436 -0.2182  0.2660
  881MOL0     C16176   8.581   9.883   2.602  0.5047  0.1135  0.5265
  881MOL0     N16177   8.444   9.928   2.638 -0.1782  0.1346  0.2077
  881MOL0     C16178   8.412  10.050   2.703 -0.2063 -0.3364  0.0914
  881MOL0     C16179   8.277  10.049   2.703  0.8403 -0.5806 -0.5558
  881MOL0     C16180   8.179  10.141   2.782 -0.3776  0.6639  0.0935
  881MOL0     C16181   8.166  10.270   2.712  0.9244 -0.8698 -0.1331
  881MOL0     C16182   8.103  10.388   2.788  0.4943 -0.2212 -0.1014
  881MOL0     C16183   8.181  10.416   2.917 -0.1399 -0.3099 -1.2440
  881MOL0     O16184   8.127  10.536   2.969 -0.3141  0.2362 -0.3637
  881MOL0     C16185   8.180  10.580   3.091 -0.1135  0.1660 -0.6035
  881MOL0     C16186   8.132  10.702   3.138  0.0038 -0.5490 -0.4631
  881MOL0     C16187   8.173  10.750   3.266  0.4195 -0.4104 -0.2714
  881MOL0     C16188   8.263  10.683   3.346  0.2597 -0.6025  0.2623
  881MOL0     C16189   8.315  10.749   3.472 -0.5287  0.2054  0.8354
  881MOL0     O16190   8.274  10.874   3.504  0.1561 -0.6304  0.1038
  881MOL0     C16191   8.307  10.927   3.628  0.0918 -0.8409  0.1914
  881MOL0     C16192   8.319  10.854   3.754  1.2939 -0.0841 -0.1122
  881MOL0     C16193   8.366  10.909   3.877 -0.6559 -0.8743  0.0589
  881MOL0     C16194   8.395  11.045   3.874  0.9749  0.0816 -0.0876
  881MOL0     O16195   8.428  11.093   3.991 -0.9502  0.0059 -0.8263
  881MOL0     C16196   8.415  11.243   3.997  0.1614  0.4004  0.4842
  881MOL0     C16197   8.450  11.301   4.133  0.5509  0.1588 -0.8702
  881MOL0     C16198   8.355  11.252   4.238 -0.0118  0.2048 -1.3606
  881MOL0     C16199   8.211  11.248   4.212  0.2459  0.1572 -0.1433
  881MOL0     C16200   8.135  11.230   4.352  0.2825  0.3840  0.2430
  881MOL0     C16201   7.984  11.258   4.318 -1.0939 -0.4879 -0.0459
  881MOL0     C16202   7.880  11.183   4.400  0.3806  0.3208  0.2230
  881MOL0     C16203   7.893  11.029   4.387 -0.4069  0.8091  0.5047
  881MOL0    Cl16204   7.829  10.977   4.228  0.2085  0.1360  0.0184
  881MOL0     C16205   8.379  11.124   3.757  0.4879  0.3248 -1.0709
  881MOL0     C16206   8.338  11.065   3.636 -0.0381  0.5296 -0.9589
  881MOL0     O16207   8.402  10.684   3.530 -0.3112  1.2418 -0.0165
  881MOL0     C16208   8.316  10.558   3.303 -0.4582 -0.5717  0.2689
  881MOL0     C16209   8.274  10.515   3.176 -0.0286 -0.2338 -0.3998
  881MOL0     N16210   8.233   9.937   2.651  0.9235 -0.6691  0.2413
  881MOL0     N16211   8.328   9.876   2.597 -0.9645  0.0662  0.4314
  881MOL0     C16212   9.377   9.157   2.503 -0.8320  1.6473 -0.0051
  881MOL0     C16213   9.369   9.022   2.466  0.2641  0.4034 -0.3382
  881MOL0     C16214   9.345   8.615   2.294  0.1756  0.0502 -0.1901
  881MOL0     C16215   9.215   8.558   2.313  0.3997 -0.3367  0.9547
  881MOL0     C16216   9.181   8.433   2.268  0.7388 -0.6775  0.3339
  881MOL0     C16217   9.283   8.360   2.213 -0.5048 -0.0993  0.1093
  881MOL0     O16218   9.254   8.237   2.170 -0.5265  0.9175 -0.2023
  881MOL0     C16219   9.208   8.142   2.272 -0.5496 -0.2148 -0.5730
  881MOL0     C16220   9.325   8.045   2.307 -0.2940 -0.1034  0.1378
  881MOL0     C16221   9.299   7.986   2.443  0.0264  0.3540  0.2089
  881MOL0     C16222   9.384   7.876   2.484  0.6711  0.1844  0.1628
  881MOL0     C16223   9.384   7.757   2.390 -0.2314  0.5271  0.7391
  881MOL0     C16224   9.382   7.646   2.333  0.3102 -0.1852  0.0280
  881MOL0     C16225   9.414   8.404   2.192  0.3453  0.3951  0.0828
  881MOL0     C16226   9.441   8.534   2.231 -0.3301  0.8206 -0.4567
  881MOL0     H16227   9.165   9.030   2.202 -0.1624 -1.8482  0.0665
  881MOL0     H16228   9.189   9.281   2.243 -0.9975 -1.2117  0.4453
  881MOL0     H16229   9.114   9.411   2.369  0.4230 -1.2374  0.1640
  881MOL0     H16230   9.236   9.508   2.312 -2.1732  1.3806 -1.7758
  881MOL0     H16231   9.221   9.670   2.495  0.9771  0.4148  2.5084
  881MOL0     H16232   9.181   9.547   2.611 -2.2219 -2.2693 -0.4449
  881MOL0     H16233   8.939   9.555   2.515 -1.2318  0.4604  0.2511
  881MOL0     H16234   8.983   9.666   2.392 -1.4802 -1.6296 -0.4499
  881MOL0     H16235   9.053   9.733   2.687 -0.7925  1.2753  0.9725
  881MOL0     H16236   9.084   9.824   2.543  0.0072 -1.2571 -0.5146
  881MOL0     H16237   8.846   9.855   2.499  0.5488 -0.8783 -1.2104
  881MOL0     H16238   8.909   9.915   2.653  4.7596  1.0889 -4.1837
  881MOL0     H16239   8.825   9.695   2.752 -0.3523  0.0978  0.6187
  881MOL0     H16240   8.747   9.671   2.598 -0.4422  1.3954 -1.8595
  881MOL0     H16241   8.584   9.761   2.775 -0.2892  1.4955  1.6116
  881MOL0     H16242   8.684   9.908   2.793  1.4736 -0.1015 -0.2920
  881MOL0     H16243   8.561   9.806   2.527 -1.6556 -0.4487  1.5865
  881MOL0     H16244   8.638   9.964   2.556 -1.0955 -0.6376 -3.1043
  881MOL0     H16245   8.487  10.122   2.732  0.9580 -0.0188 -3.3322
  881MOL0     H16246   8.228  10.149   2.880  3.3571 -0.1358 -1.5506
  881MOL0     H16247   8.081  10.095   2.799  1.7085 -4.2026  0.6344
  881MOL0     H16248   8.108  10.248   2.622  0.5044  0.8252 -0.3253
  881MOL0     H16249   8.261  10.309   2.672  0.7896 -0.4183 -0.0164
  881MOL0     H16250   8.110  10.472   2.720  3.4499 -0.7188 -0.5400
  881MOL0     H16251   8.001  10.368   2.823  0.3670  1.3854  0.5408
  881MOL0     H16252   8.288  10.429   2.898  0.4382 -1.5926  0.7433
  881MOL0     H16253   8.167  10.337   2.992  1.4495 -0.4453 -1.0610
  881MOL0     H16254   8.055  10.751   3.080  1.8555  0.0570 -2.5308
  881MOL0     H16255   8.139  10.845   3.304  1.1038  0.0043 -0.6910
  881MOL0     H16256   8.293  10.749   3.758 -1.0353  0.2690 -2.5347
  881MOL0     H16257   8.378  10.852   3.969 -0.3250 -1.5840 -0.4183
  881MOL0     H16258   8.317  11.280   3.963  0.7423 -0.3411 -2.2874
  881MOL0     H16259   8.478  11.282   3.917  0.7598  1.3087  1.3789
  881MOL0     H16260   8.436  11.409   4.123  1.3369  0.3859  0.2485
  881MOL0     H16261   8.555  11.288   4.161  0.5739  3.2490  0.9963
  881MOL0     H16262   8.379  11.299   4.333 -1.1911 -2.0958  0.1692
  881MOL0     H16263   8.400  11.153   4.249 -0.7425 -0.1247 -1.3209
  881MOL0     H16264   8.182  11.340   4.159  0.0496  0.4889  0.5307
  881MOL0     H16265   8.186  11.164   4.147  2.0078 -1.0904  0.6996
  881MOL0     H16266   8.165  11.294   4.435  1.7030 -0.5843  0.5193
  881MOL0     H16267   8.138  11.125   4.382 -0.4416 -0.2021 -1.5561
  881MOL0     H16268   7.959  11.233   4.215 -2.9164  1.6613 -0.1940
  881MOL0     H16269   7.963  11.364   4.336 -0.3033 -0.7653  3.1598
  881MOL0     H16270   7.898  11.206   4.506  0.6033  2.2347 -0.2068
  881MOL0     H16271   7.784  11.229   4.378 -0.4401 -1.5610 -0.3780
  881MOL0     H16272   7.833  10.985   4.467 -1.1257 -1.1250 -1.0294
  881MOL0     H16273   7.991  10.988   4.416 -0.4479  1.6088  1.8467
  881MOL0     H16274   8.412  11.226   3.740  0.5434 -0.0938 -3.9593
  881MOL0     H16275   8.321  11.127   3.548  0.9970  2.7427  0.3043
  881MOL0     H16276   8.380  10.492   3.361 -0.4415 -0.7493  0.0515
  881MOL0     H16277   8.317  10.419   3.151  2.0704  0.5139  0.1152
  881MOL0     H16278   9.431   9.194   2.590  3.3735 -4.1176  0.5018
  881MOL0     H16279   9.432   8.955   2.523  0.8423 -4.1064 -5.3920
  881MOL0     H16280   9.150   8.616   2.377  0.2602 -1.4835  1.8908
  881MOL0     H16281   9.076   8.405   2.275  0.2770  0.9110  0.0659
  881MOL0     H16282   9.124   8.083   2.236 -0.3466  0.3624 -2.0524
  881MOL0     H16283   9.174   8.192   2.363  3.0640  1.0610  0.2711
  881MOL0     H16284   9.321   7.987   2.215  0.3937  3.2938 -2.2194
  881MOL0     H16285   9.421   8.097   2.301  0.3312 -1.1417  0.7322
  881MOL0     H16286   9.199   7.942   2.447 -0.6116  1.7301 -0.1255
  881MOL0     H16287   9.301   8.064   2.519  2.7460 -0.1418  0.7264
  881MOL0     H16288   9.486   7.912   2.502  0.1303  1.6671  0.3642
  881MOL0     H16289   9.347   7.840   2.580 -0.8289  2.6823  0.6025
  881MOL0     H16290   9.385   7.555   2.277 -0.1828  0.4538 -1.0529
  881MOL0     H16291   9.498   8.346   2.155  0.7788  0.3190  1.1558
  881MOL0     H16292   9.543   8.568   2.222  1.0302 -1.5912  3.3876
  882MOL0     O16293   9.449   5.786   4.834  0.1375  0.0332 -0.5030
  882MOL0     C16294   9.541   5.774   4.907  0.3150  0.1506 -0.3570
  882MOL0     O16295   9.544   5.701   5.020  0.2646 -0.5739  0.1306
  882MOL0     C16296   9.423   5.676   5.081  0.3208 -0.0859  0.0848
  882MOL0     C16297   9.388   5.546   5.112 -1.4640  0.4264 -0.2938
  882MOL0     C16298   9.275   5.514   5.178  0.2361  0.0425 -0.1343
  882MOL0     C16299   9.177   5.622   5.217 -0.8707 -0.1293 -0.6577
  882MOL0     O16300   9.073   5.604   5.306 -0.2219 -0.8687  0.4591
  882MOL0     C16301   9.071   5.484   5.369 -0.7261  0.3662 -0.4244
  882MOL0     C16302   8.950   5.486   5.463  0.2296 -0.2382 -0.4502
  882MOL0     C16303   8.929   5.360   5.554  0.0022 -0.1655 -0.0479
  882MOL0     C16304   8.843   5.263   5.470 -0.6254 -0.1728 -0.2525
  882MOL0     C16305   8.788   5.153   5.573 -0.8273 -0.4514  0.2574
  882MOL0     C16306   8.742   5.036   5.482  0.3179  0.4222  0.2000
  882MOL0     C16307   8.691   4.918   5.573  0.7459  0.1542 -0.9994
  882MOL0     C16308   8.570   4.955   5.669  0.8917 -0.1239  0.2529
  882MOL0     N16309   8.443   5.000   5.609  0.6304 -0.0175  0.7314
  882MOL0     C16310   8.348   5.095   5.647 -1.4299  0.1722 -0.5193
  882MOL0     C16311   8.233   5.069   5.573 -0.2446 -1.0786 -1.1248
  882MOL0     C16312   8.100   5.153   5.568  0.5975  0.3715 -0.0763
  882MOL0     C16313   7.989   5.105   5.664 -0.2662 -0.0921  0.4741
  882MOL0     C16314   8.045   5.048   5.800 -0.4650 -0.2190  0.2307
  882MOL0     C16315   7.939   5.025   5.897  0.6369 -0.2966 -0.8972
  882MOL0     O16316   7.902   5.159   5.949 -0.0922  1.3663  0.6161
  882MOL0     C16317   7.819   5.163   6.061  0.4208 -0.0228  0.9091
  882MOL0     C16318   7.821   5.278   6.138  1.2631  0.1008  0.8005
  882MOL0     C16319   7.740   5.292   6.254 -0.5938 -0.2495 -0.5841
  882MOL0     C16320   7.668   5.181   6.305 -0.0202 -0.2441  0.1679
  882MOL0     C16321   7.598   5.198   6.432  0.0759  0.1323 -0.2362
  882MOL0     O16322   7.640   5.296   6.517 -0.3303 -0.0473 -0.6323
  882MOL0     C16323   7.577   5.342   6.631  0.1757 -0.0553 -0.7980
  882MOL0     C16324   7.643   5.439   6.707  0.3546  0.0125  0.2905
  882MOL0     C16325   7.590   5.504   6.822  0.5877 -0.1033 -0.0690
  882MOL0     C16326   7.458   5.463   6.870  0.2194  0.2395  1.0289
  882MOL0     O16327   7.401   5.530   6.975 -1.0817  0.5828 -0.1819
  882MOL0     C16328   7.265   5.517   6.980 -0.2627 -0.8083 -0.7903
  882MOL0     C16329   7.214   5.609   7.087 -0.5977  0.0463 -0.5480
  882MOL0     C16330   7.076   5.592   7.134  0.2165 -0.3447 -0.5198
  882MOL0     C16331   7.076   5.655   7.271  1.4937 -0.2806  0.2137
  882MOL0     C16332   6.934   5.670   7.320  0.0188  0.9471 -0.0153
  882MOL0     C16333   6.921   5.763   7.436  0.2817 -0.4730 -0.3666
  882MOL0     C16334   6.780   5.778   7.495  0.5531 -0.4741  0.8816
  882MOL0     C16335   6.720   5.647   7.545  0.2311  0.4410 -0.7876
  882MOL0    Cl16336   6.773   5.625   7.724 -0.9607  0.0923  0.2522
  882MOL0     C16337   7.402   5.357   6.798  0.5107  0.0323  0.5023
  882MOL0     C16338   7.459   5.297   6.681  0.2858 -0.1902 -0.8153
  882MOL0     O16339   7.505   5.124   6.447 -0.4639  0.0331  0.3944
  882MOL0     C16340   7.668   5.070   6.223  0.2069 -0.2192  0.2498
  882MOL0     C16341   7.746   5.063   6.109  0.6709 -0.1384 -1.2283
  882MOL0     N16342   8.255   4.962   5.500  0.4215  0.5234 -0.7305
  882MOL0     N16343   8.383   4.921   5.522 -0.7888 -0.5054  0.2833
  882MOL0     C16344   9.210   5.752   5.176 -0.1875  0.3259 -0.1599
  882MOL0     C16345   9.333   5.776   5.115  0.7882 -0.1618  0.1531
  882MOL0     C16346   9.665   5.844   4.867 -0.2130  0.0359  1.4855
  882MOL0     C16347   9.753   5.874   4.969  0.6715 -0.3371  0.1062
  882MOL0     C16348   9.874   5.945   4.932 -0.5274  0.3600  0.1227
  882MOL0     C16349   9.898   5.979   4.795 -0.3803 -0.7714 -1.1075
  882MOL0     O16350  10.003   6.064   4.774  0.3724 -0.1560 -0.1604
  882MOL0     C16351   9.971   6.171   4.686  0.4493  0.2651  0.9906
  882MOL0     C16352  10.064   6.284   4.731 -0.3378  0.3490  0.7116
  882MOL0     C16353  10.042   6.330   4.878 -0.3229  0.3495  0.4545
  882MOL0     C16354  10.094   6.479   4.893  0.8895  0.4242  0.4003
  882MOL0     C16355  10.233   6.489   4.850  0.0313  0.1208  0.0620
  882MOL0     C16356  10.337   6.482   4.785  0.2099  0.5102 -0.6063
  882MOL0     C16357   9.813   5.945   4.693 -0.2938  0.6449  0.0529
  882MOL0     C16358   9.697   5.885   4.736 -0.3097  0.1739  0.4727
  882MOL0     H16359   9.470   5.476   5.096 -0.2626  1.9497 -1.0250
  882MOL0     H16360   9.261   5.413   5.214 -0.1584  0.6927  1.6151
  882MOL0     H16361   9.159   5.467   5.432 -0.5304  2.1400 -0.1700
  882MOL0     H16362   9.053   5.399   5.302 -0.1232  3.8214 -5.5505
  882MOL0     H16363   8.856   5.507   5.411  1.1729  0.3332 -1.9695
  882MOL0     H16364   8.954   5.579   5.521 -1.4754 -0.1852 -0.3449
  882MOL0     H16365   8.873   5.396   5.641  0.1532 -0.6178  0.2404
  882MOL0     H16366   9.026   5.325   5.592 -0.5078  1.4807  3.0397
  882MOL0     H16367   8.761   5.305   5.411 -1.0000  1.0350  1.0662
  882MOL0     H16368   8.906   5.217   5.393 -2.5028 -1.2606 -1.1870
  882MOL0     H16369   8.705   5.186   5.637 -0.7242  0.9849 -0.3033
  882MOL0     H16370   8.871   5.126   5.639 -3.4448  1.4395  4.7910
  882MOL0     H16371   8.822   5.002   5.416  0.8380  0.9923  0.5199
  882MOL0     H16372   8.657   5.065   5.420  0.0669 -3.1456 -1.3646
  882MOL0     H16373   8.647   4.841   5.509  1.4831 -1.4721  0.3565
  882MOL0     H16374   8.778   4.872   5.620  1.4131 -0.2699 -2.5730
  882MOL0     H16375   8.590   5.036   5.740 -0.9871  0.9016 -0.3255
  882MOL0     H16376   8.556   4.861   5.722  5.0186 -0.0153  1.9200
  882MOL0     H16377   8.345   5.175   5.722 -3.3241 -0.3943  0.0845
  882MOL0     H16378   8.059   5.132   5.469 -1.1023 -0.5950  0.7918
  882MOL0     H16379   8.133   5.257   5.580  0.7737  0.2149  0.9289
  882MOL0     H16380   7.925   5.033   5.613 -1.3952 -0.2008  1.9737
  882MOL0     H16381   7.912   5.182   5.676  1.2000  1.2503  1.8688
  882MOL0     H16382   8.088   4.949   5.782  0.6403  0.2039  0.4633
  882MOL0     H16383   8.116   5.119   5.843 -1.7748  1.1356  0.2157
  882MOL0     H16384   7.964   4.952   5.974 -3.0778  1.1594  2.0138
  882MOL0     H16385   7.857   4.981   5.840  0.1688 -1.5253  0.6396
  882MOL0     H16386   7.879   5.367   6.117  2.2809  0.3116  4.0379
  882MOL0     H16387   7.732   5.386   6.307 -2.0514  0.4357 -1.9441
  882MOL0     H16388   7.747   5.464   6.687  0.0151  0.5900 -0.8198
  882MOL0     H16389   7.656   5.578   6.866  0.5274  1.0735 -1.8654
  882MOL0     H16390   7.234   5.416   7.009  0.6588 -0.2316  2.6678
  882MOL0     H16391   7.215   5.532   6.884 -1.5830 -1.2806 -0.2124
  882MOL0     H16392   7.227   5.713   7.054  0.2216 -0.2207 -1.1105
  882MOL0     H16393   7.279   5.578   7.169 -0.6879 -0.5965 -0.7159
  882MOL0     H16394   7.052   5.486   7.146 -1.6515 -0.1820 -2.2223
  882MOL0     H16395   7.009   5.644   7.065  2.5636  0.6783 -2.1340
  882MOL0     H16396   7.126   5.591   7.345  3.6178 -1.9159 -2.4302
  882MOL0     H16397   7.127   5.752   7.268  5.4397 -2.0915  1.3036
  882MOL0     H16398   6.907   5.570   7.356 -0.5159  0.6553 -1.1533
  882MOL0     H16399   6.856   5.683   7.244 -0.6429  0.1446  0.5011
  882MOL0     H16400   6.961   5.857   7.396  1.7480 -2.3665 -3.7589
  882MOL0     H16401   6.988   5.726   7.514 -0.2784 -0.8295 -0.0584
  882MOL0     H16402   6.793   5.827   7.592 -0.4120  2.1640 -0.2309
  882MOL0     H16403   6.720   5.829   7.419 -0.1808 -2.2645  0.1904
  882MOL0     H16404   6.756   5.553   7.503 -0.0652 -0.8440  1.6325
  882MOL0     H16405   6.611   5.641   7.542  0.1932 -1.2446  1.5080
  882MOL0     H16406   7.311   5.305   6.827 -0.1349 -1.9098 -4.1235
  882MOL0     H16407   7.406   5.218   6.628  2.4709 -2.4027  0.0857
  882MOL0     H16408   7.621   4.983   6.267 -1.9469  1.6917  1.9854
  882MOL0     H16409   7.741   4.963   6.068  0.9703 -1.3162  1.3707
  882MOL0     H16410   9.150   5.834   5.212 -1.3708 -0.6846  0.2280
  882MOL0     H16411   9.360   5.874   5.077  1.7046  0.2910  1.8540
  882MOL0     H16412   9.720   5.853   5.070  3.6836  1.6769  1.6861
  882MOL0     H16413   9.944   5.984   5.006  0.8984  0.4558 -1.2172
  882MOL0     H16414   9.869   6.210   4.687 -1.3990 -3.9042  3.4542
  882MOL0     H16415   9.993   6.134   4.585 -1.1056  0.7134  0.4629
  882MOL0     H16416  10.163   6.243   4.710 -2.1918 -2.7259 -3.4097
  882MOL0     H16417  10.058   6.371   4.665 -0.7607 -0.7536 -0.7557
  882MOL0     H16418  10.081   6.261   4.953 -6.7313 -3.5377  0.8932
  882MOL0     H16419   9.934   6.340   4.891 -0.0784  2.8234  1.1178
  882MOL0     H16420  10.028   6.533   4.825  2.9593  0.3152 -1.8463
  882MOL0     H16421  10.075   6.516   4.994 -0.9233 -0.4286  0.4049
  882MOL0     H16422  10.432   6.477   4.736  0.1220  0.0394 -0.7363
  882MOL0     H16423   9.823   5.981   4.592 -1.1552 -2.7085 -1.3612
  882MOL0     H16424   9.617   5.877   4.663  0.4004 -2.9686 -0.1159
  883MOL0     O16425  11.088   7.824   5.365 -0.3947  0.3961 -0.4434
  883MOL0     C16426  11.189   7.878   5.401 -0.4413  0.0262  0.3359
  883MOL0     O16427  11.210   7.953   5.512  0.5606 -0.2653 -0.2552
  883MOL0     C16428  11.111   7.974   5.600  0.1218  0.2402  0.3826
  883MOL0     C16429  10.975   8.000   5.560 -0.4684  0.0950  0.2207
  883MOL0     C16430  10.869   7.997   5.651 -0.0469 -0.7998 -0.2458
  883MOL0     C16431  10.893   7.997   5.791 -0.8024  0.5944 -0.1408
  883MOL0     O16432  10.791   8.003   5.892 -0.3758 -0.2811 -0.1277
  883MOL0     C16433  10.729   8.133   5.894 -2.0150 -0.0046 -0.1953
  883MOL0     C16434  10.669   8.164   6.038 -0.5593 -0.5494  0.7420
  883MOL0     C16435  10.545   8.084   6.076 -0.0170 -0.6309 -0.2862
  883MOL0     C16436  10.412   8.105   5.991 -0.8669 -1.3273  0.5141
  883MOL0     C16437  10.382   8.249   5.962  0.6623 -0.4715 -0.4063
  883MOL0     C16438  10.224   8.272   5.963 -0.4682 -0.0001  1.2001
  883MOL0     C16439  10.151   8.250   6.095 -0.0276  0.0292 -1.3706
  883MOL0     C16440  10.008   8.303   6.095 -0.3148  0.5619 -0.0313
  883MOL0     N16441   9.942   8.263   6.223  0.4433  0.0264  0.1827
  883MOL0     C16442   9.949   8.317   6.346 -0.9845 -0.3065  0.2427
  883MOL0     C16443   9.864   8.241   6.430 -1.3104  0.3595  0.6399
  883MOL0     C16444   9.839   8.258   6.575 -0.6855 -0.4674  1.0872
  883MOL0     C16445   9.933   8.187   6.655  0.1612 -0.6710  0.0957
  883MOL0     C16446   9.913   8.232   6.806  0.3715  0.2801 -0.1933
  883MOL0     C16447   9.972   8.131   6.906 -0.9523  0.5397  0.5579
  883MOL0     O16448   9.964   8.197   7.031  0.5440  0.0255 -0.6171
  883MOL0     C16449  10.019   8.147   7.138 -0.0467  0.4466 -0.4930
  883MOL0     C16450   9.987   8.221   7.249  0.0750  0.6838 -0.6429
  883MOL0     C16451  10.060   8.193   7.359 -0.6074 -0.2209  0.4431
  883MOL0     C16452  10.139   8.077   7.372  0.2886  0.3938 -1.3715
  883MOL0     C16453  10.209   8.056   7.502  0.1076 -0.3062 -0.3415
  883MOL0     O16454  10.171   8.151   7.602 -0.3456 -0.1698  0.1109
  883MOL0     C16455  10.207   8.136   7.726 -1.4177  0.0713 -0.1461
  883MOL0     C16456  10.213   8.009   7.791  0.2705  0.1761 -0.0547
  883MOL0     C16457  10.233   8.002   7.929 -0.1263  0.0253 -0.7397
  883MOL0     C16458  10.238   8.118   8.011 -0.0842 -0.2352 -1.4966
  883MOL0     O16459  10.252   8.121   8.146 -0.1259 -0.2099  0.5326
  883MOL0     C16460  10.341   8.028   8.207 -0.3610 -0.3390 -0.5806
  883MOL0     C16461  10.348   8.052   8.357  1.5084  0.1173  0.4570
  883MOL0     C16462  10.220   8.013   8.441 -0.0152 -0.4363  0.2563
  883MOL0     C16463  10.240   8.073   8.587 -0.2875 -0.2821  0.1637
  883MOL0     C16464  10.340   7.976   8.671  0.4051  0.6344  0.1556
  883MOL0     C16465  10.343   8.019   8.824 -0.4329  0.2430  0.5862
  883MOL0     C16466  10.208   7.988   8.886  0.3855  0.5556  0.3769
  883MOL0     C16467  10.152   8.100   8.975  0.8151 -1.0547  0.8388
  883MOL0    Cl16468  10.261   8.151   9.107 -0.6180 -0.0921  0.0124
  883MOL0     C16469  10.218   8.243   7.944 -0.2273 -0.5307 -0.0618
  883MOL0     C16470  10.209   8.257   7.801 -0.5377  0.6811  0.2934
  883MOL0     O16471  10.282   7.959   7.511 -0.6737  0.6019  0.9771
  883MOL0     C16472  10.149   7.984   7.267 -0.3304  0.2746 -0.3928
  883MOL0     C16473  10.093   8.027   7.144  0.4091  0.0405 -0.3694
  883MOL0     N16474   9.829   8.130   6.362  0.5584  0.1680  0.8632
  883MOL0     N16475   9.865   8.149   6.237 -0.2034 -1.2323  0.8090
  883MOL0     C16476  11.023   7.970   5.832 -0.0488 -0.2261  0.1367
  883MOL0     C16477  11.135   7.969   5.740  0.4047  0.1326 -0.3461
  883MOL0     C16478  11.311   7.828   5.318 -0.4235 -0.7190  0.1577
  883MOL0     C16479  11.439   7.891   5.341  0.1302 -0.1997  0.8735
  883MOL0     C16480  11.555   7.855   5.272  0.5569  0.4278  0.2506
  883MOL0     C16481  11.551   7.748   5.178  0.4998  0.4045 -0.4577
  883MOL0     O16482  11.663   7.727   5.099  0.8322 -0.2180  0.2424
  883MOL0     C16483  11.701   7.590   5.096 -1.1420  0.8007 -0.0241
  883MOL0     C16484  11.832   7.601   5.019 -0.0956 -0.9991  0.1054
  883MOL0     C16485  11.916   7.470   5.002  0.4084  0.1723 -0.3529
  883MOL0     C16486  12.045   7.503   4.934  0.2827 -0.6642  1.0955
  883MOL0     C16487  12.144   7.569   5.015  0.3192 -0.6988  0.1498
  883MOL0     C16488  12.212   7.636   5.088  0.2380 -0.6166  0.1734
  883MOL0     C16489  11.429   7.681   5.152  0.6506 -0.5386  0.4161
  883MOL0     C16490  11.307   7.730   5.215 -0.6320 -0.3731 -0.4326
  883MOL0     H16491  10.947   8.006   5.455  0.9145  1.9009 -0.0814
  883MOL0     H16492  10.766   8.023   5.628  0.0233 -0.9497 -0.7338
  883MOL0     H16493  10.652   8.140   5.818 -0.6298 -0.3829 -1.6888
  883MOL0     H16494  10.810   8.206   5.884 -2.3375  0.6080  1.3195
  883MOL0     H16495  10.643   8.269   6.049 -3.0561 -1.2998  3.4391
  883MOL0     H16496  10.754   8.162   6.107  0.1951 -0.1316 -0.1406
  883MOL0     H16497  10.506   8.096   6.178  2.1561 -0.9935  0.6413
  883MOL0     H16498  10.573   7.979   6.063 -0.9779 -0.9462  0.0516
  883MOL0     H16499  10.426   8.068   5.889 -3.2557  1.8703 -1.1552
  883MOL0     H16500  10.335   8.054   6.050 -3.0965  0.7565 -0.4299
  883MOL0     H16501  10.420   8.270   5.862 -0.1660  1.2526 -0.3999
  883MOL0     H16502  10.426   8.322   6.031  0.5833 -1.0076  0.2257
  883MOL0     H16503  10.188   8.198   5.890  2.6511  0.9096 -1.5277
  883MOL0     H16504  10.197   8.375   5.937 -0.5997 -0.4737 -0.6978
  883MOL0     H16505  10.166   8.148   6.129 -1.1880 -0.2362 -1.6125
  883MOL0     H16506  10.206   8.309   6.169  0.7295  3.6186 -4.4210
  883MOL0     H16507   9.953   8.261   6.010 -0.0989  1.0639 -0.4234
  883MOL0     H16508  10.002   8.412   6.085  1.3754  0.6199 -0.6450
  883MOL0     H16509   9.984   8.409   6.392 -1.1491 -1.0018  1.8178
  883MOL0     H16510   9.735   8.231   6.599 -2.1793  0.9758 -2.8886
  883MOL0     H16511   9.837   8.358   6.619 -4.4399 -0.5032  1.3798
  883MOL0     H16512  10.040   8.198   6.631  0.5178  4.2812  2.6181
  883MOL0     H16513   9.899   8.084   6.643 -2.0341  0.1447 -1.2793
  883MOL0     H16514   9.973   8.321   6.825 -0.1675  0.4994  0.4949
  883MOL0     H16515   9.810   8.262   6.829 -0.1886 -2.2762  1.0196
  883MOL0     H16516  10.077   8.111   6.885 -1.9322 -1.8518 -3.0969
  883MOL0     H16517   9.938   8.027   6.907  5.6683 -2.0714  0.2080
  883MOL0     H16518   9.920   8.306   7.249 -0.4384  0.2916 -0.9650
  883MOL0     H16519  10.064   8.274   7.431  0.7996  1.5915 -1.5570
  883MOL0     H16520  10.197   7.920   7.731  0.6889 -0.0272  0.1317
  883MOL0     H16521  10.226   7.913   7.991 -0.4467  1.5015  1.4576
  883MOL0     H16522  10.440   8.039   8.161  0.4856 -0.2278  1.1620
  883MOL0     H16523  10.314   7.923   8.192 -0.6118 -0.1961 -1.1607
  883MOL0     H16524  10.357   8.161   8.363 -2.3201  0.5352  1.4509
  883MOL0     H16525  10.436   7.992   8.381  2.2985  0.1164 -2.1257
  883MOL0     H16526  10.204   7.905   8.438 -2.3584 -0.1278 -1.6993
  883MOL0     H16527  10.130   8.046   8.388 -0.9359 -3.0639  0.0694
  883MOL0     H16528  10.285   8.172   8.584 -1.2653  0.3140  2.7481
  883MOL0     H16529  10.144   8.089   8.638 -0.0192 -0.9801  0.9140
  883MOL0     H16530  10.443   7.990   8.636  0.2227 -1.1063 -1.2338
  883MOL0     H16531  10.311   7.872   8.652  0.7636  1.1344 -4.4033
  883MOL0     H16532  10.361   8.127   8.834 -1.0765  0.2201  2.3406
  883MOL0     H16533  10.419   7.977   8.890 -0.3613  2.4506  2.0079
  883MOL0     H16534  10.132   7.954   8.815 -0.3406 -0.0572  1.4255
  883MOL0     H16535  10.213   7.902   8.954 -5.1570 -0.8859 -0.5538
  883MOL0     H16536  10.057   8.070   9.020 -3.0324  5.9500 -0.9956
  883MOL0     H16537  10.138   8.189   8.913 -1.0810 -1.1162  1.1207
  883MOL0     H16538  10.225   8.330   8.008  0.9715 -1.4526  1.0937
  883MOL0     H16539  10.176   8.351   7.759 -1.0998  0.1872 -0.3795
  883MOL0     H16540  10.204   7.893   7.291 -0.3994 -0.0929 -1.5991
  883MOL0     H16541  10.103   7.963   7.056  1.0358 -0.0621 -0.2277
  883MOL0     H16542  11.031   7.961   5.940  0.2965  0.3461  0.1630
  883MOL0     H16543  11.235   7.945   5.774  0.9711  1.3553 -1.1130
  883MOL0     H16544  11.441   7.972   5.414 -3.3964  1.6181 -0.8086
  883MOL0     H16545  11.643   7.918   5.286  1.2520 -0.6893  1.0277
  883MOL0     H16546  11.629   7.534   5.036  0.4610  0.7792 -2.0540
  883MOL0     H16547  11.704   7.540   5.193  0.1325  0.9970  0.0596
  883MOL0     H16548  11.803   7.640   4.921  0.6448  2.1422  1.0453
  883MOL0     H16549  11.895   7.681   5.058  1.1005 -0.3523 -2.8920
  883MOL0     H16550  11.864   7.399   4.938 -2.2183  0.4203  1.3429
  883MOL0     H16551  11.930   7.408   5.092  1.4072  0.3068 -0.4026
  883MOL0     H16552  12.075   7.407   4.890  1.9227 -0.4846  1.7778
  883MOL0     H16553  12.024   7.574   4.853 -1.2842 -2.4638 -0.1733
  883MOL0     H16554  12.260   7.708   5.152 -0.8774 -1.1303  1.6671
  883MOL0     H16555  11.428   7.599   5.081 -0.2632 -1.3744  1.3530
  883MOL0     H16556  11.205   7.701   5.191 -1.0088  0.5747 -0.0323
  884MOL0     O16557   2.673  10.130   4.298  0.3856  0.3673 -0.1751
  884MOL0     C16558   2.568  10.074   4.323  0.6711  0.1401  1.1651
  884MOL0     O16559   2.536   9.991   4.425  0.2587  0.1336  0.1805
  884MOL0     C16560   2.620   9.948   4.522 -0.9749 -0.3530  0.7389
  884MOL0     C16561   2.736  10.025   4.557 -0.4132  0.3313 -0.9559
  884MOL0     C16562   2.837   9.965   4.636  0.0436 -0.7413 -0.7748
  884MOL0     C16563   2.817   9.841   4.703 -0.0908 -1.1660 -0.4665
  884MOL0     O16564   2.909   9.796   4.801  0.0382  0.8970 -0.0472
  884MOL0     C16565   2.998   9.893   4.860 -0.3128  0.2156 -0.1373
  884MOL0     C16566   3.061   9.844   4.991 -0.2477  0.6525  1.0765
  884MOL0     C16567   2.974   9.869   5.120  0.1930  1.0881  0.8090
  884MOL0     C16568   2.917  10.004   5.144  0.1186 -0.8925  0.3819
  884MOL0     C16569   2.799   9.998   5.245 -0.5633  0.5580  0.1857
  884MOL0     C16570   2.726  10.129   5.240  0.0857 -0.6713  0.1392
  884MOL0     C16571   2.643  10.141   5.366 -0.4811 -0.1414 -0.2886
  884MOL0     C16572   2.586  10.280   5.380  0.2779 -0.4132  0.3414
  884MOL0     N16573   2.524  10.304   5.516  0.8945 -0.2690 -0.1491
  884MOL0     C16574   2.413  10.236   5.563  0.4230 -0.2787  0.1491
  884MOL0     C16575   2.385  10.298   5.683  0.1000  0.9884  0.5394
  884MOL0     C16576   2.268  10.276   5.784  0.2266 -0.6035  0.1005
  884MOL0     C16577   2.145  10.364   5.755 -1.5497  0.9381  0.2918
  884MOL0     C16578   2.062  10.418   5.891 -0.1385 -0.8962  0.1372
  884MOL0     C16579   1.993  10.306   5.969  0.2744 -0.1327  0.7185
  884MOL0     O16580   1.874  10.263   5.911  0.1926  0.2851 -0.3268
  884MOL0     C16581   1.764  10.346   5.921  0.2530  0.6816  0.6323
  884MOL0     C16582   1.641  10.287   5.894  0.5610  1.0128 -0.1767
  884MOL0     C16583   1.525  10.370   5.882  1.1655  0.3906  0.1808
  884MOL0     C16584   1.522  10.496   5.924 -0.0329  0.4949  0.1937
  884MOL0     C16585   1.394  10.583   5.920  0.3396  0.1963 -0.3299
  884MOL0     O16586   1.277  10.526   5.882 -0.0292  0.4914 -0.2481
  884MOL0     C16587   1.169  10.607   5.844 -0.5162  0.4314 -0.1311
  884MOL0     C16588   1.057  10.533   5.833  0.4595 -0.6066 -0.3036
  884MOL0     C16589   0.940  10.592   5.792 -0.1180  0.9445 -0.0130
  884MOL0     C16590   0.927  10.719   5.770  0.0938 -0.2390 -0.0756
  884MOL0     O16591   0.817  10.774   5.717  0.0251  0.6551 -0.7845
  884MOL0     C16592   0.805  10.757   5.580  0.1728  0.8401  0.8322
  884MOL0     C16593   0.651  10.763   5.554 -1.0327  1.0999 -0.4391
  884MOL0     C16594   0.568  10.653   5.617  0.2068 -0.4159  0.6153
  884MOL0     C16595   0.577  10.520   5.540 -0.1236 -0.6618 -0.0774
  884MOL0     C16596   0.504  10.408   5.600 -0.3442 -0.1271  0.3408
  884MOL0     C16597   0.350  10.413   5.551  0.8782 -1.1255 -1.3829
  884MOL0     C16598   0.258  10.345   5.661  0.8100 -0.1546 -0.6994
  884MOL0     C16599   0.114  10.377   5.622  1.1169  1.0257  0.0897
  884MOL0    Cl16600   0.004  10.265   5.713 -0.2592  0.6243  0.0293
  884MOL0     C16601   1.036  10.801   5.782  0.3337 -0.2952  0.5048
  884MOL0     C16602   1.164  10.741   5.813  0.3747  0.1238  0.6000
  884MOL0     O16603   1.407  10.699   5.953  0.0516 -0.4863 -0.0414
  884MOL0     C16604   1.646  10.547   5.977  0.1077  0.4474 -0.1961
  884MOL0     C16605   1.765  10.476   5.969 -0.3291 -0.2650  0.2139
  884MOL0     N16606   2.472  10.395   5.705 -0.3164 -0.8318  0.6519
  884MOL0     N16607   2.548  10.408   5.600  0.1971 -0.4639 -0.4719
  884MOL0     C16608   2.692   9.777   4.680  1.2614  0.2562  0.2706
  884MOL0     C16609   2.603   9.829   4.589  1.0903 -0.1537  0.3414
  884MOL0     C16610   2.467  10.107   4.203 -0.6082 -1.0272 -1.1246
  884MOL0     C16611   2.485  10.226   4.127  0.2049  0.5849 -0.0926
  884MOL0     C16612   2.381  10.277   4.044  0.7608 -0.0583 -0.7428
  884MOL0     C16613   2.260  10.215   4.025 -0.9970 -0.4806 -1.0270
  884MOL0     O16614   2.172  10.261   3.931 -0.4078 -0.0508  0.5441
  884MOL0     C16615   2.047  10.186   3.922  0.7386 -0.4179 -0.5079
  884MOL0     C16616   2.038  10.117   3.796  0.1808  0.7631 -0.0583
  884MOL0     C16617   2.100   9.963   3.791 -0.0625 -0.0359 -0.2178
  884MOL0     C16618   2.106   9.923   3.640  1.4108  0.6454  0.6625
  884MOL0     C16619   1.985   9.934   3.547 -0.3976 -0.7995  0.0993
  884MOL0     C16620   1.885   9.947   3.473  0.8262  0.3061 -0.0794
  884MOL0     C16621   2.241  10.093   4.098  0.0099  0.6718  0.1098
  884MOL0     C16622   2.342  10.042   4.184  0.5860 -0.5569  0.0055
  884MOL0     H16623   2.769  10.117   4.512  0.6079  0.3612 -0.1915
  884MOL0     H16624   2.932  10.012   4.661 -1.6323  1.3810  2.2446
  884MOL0     H16625   2.952   9.990   4.879  1.8538  1.0272  1.3797
  884MOL0     H16626   3.082   9.924   4.796 -1.0636  1.0068 -0.7595
  884MOL0     H16627   3.154   9.898   5.010 -0.9508  1.9580  0.9778
  884MOL0     H16628   3.074   9.736   4.984 -1.4068  0.4215  2.0867
  884MOL0     H16629   3.040   9.842   5.203  0.6337  0.5911  0.3059
  884MOL0     H16630   2.887   9.803   5.115  1.2453 -0.3181  0.3685
  884MOL0     H16631   2.987  10.067   5.199  1.4244 -1.5130 -0.5000
  884MOL0     H16632   2.884  10.058   5.054  0.4395 -3.1497 -1.1669
  884MOL0     H16633   2.851   9.972   5.337 -0.2999 -4.9346 -1.1680
  884MOL0     H16634   2.735   9.912   5.225 -2.0362  1.8633 -1.1013
  884MOL0     H16635   2.658  10.134   5.155 -4.4744  0.2941  3.5123
  884MOL0     H16636   2.806  10.203   5.248 -0.2694 -0.1916 -0.6269
  884MOL0     H16637   2.558  10.076   5.346  0.3734 -1.5323  0.4883
  884MOL0     H16638   2.710  10.106   5.445  0.3484 -0.6395 -1.1983
  884MOL0     H16639   2.515  10.307   5.301  2.2143 -1.2941 -1.7999
  884MOL0     H16640   2.672  10.347   5.365 -0.3224  0.2821 -0.0845
  884MOL0     H16641   2.361  10.158   5.508 -0.8872  2.3053 -2.5643
  884MOL0     H16642   2.304  10.300   5.884  3.9425  2.6085 -1.7180
  884MOL0     H16643   2.241  10.170   5.783 -1.5459 -0.1703  0.2673
  884MOL0     H16644   2.071  10.322   5.687  0.5006  0.1953 -1.5870
  884MOL0     H16645   2.194  10.448   5.705  0.0653 -0.2837 -0.2679
  884MOL0     H16646   2.133  10.471   5.954  0.2911  1.2452 -2.0002
  884MOL0     H16647   2.003  10.501   5.853 -0.1777 -1.3121 -0.7571
  884MOL0     H16648   1.974  10.342   6.071  4.2801 -1.8150  2.2840
  884MOL0     H16649   2.058  10.219   5.981 -0.8474 -1.4197 -1.7875
  884MOL0     H16650   1.651  10.189   5.848  1.0968  0.0256  1.9071
  884MOL0     H16651   1.439  10.331   5.829  2.5800 -2.8206  0.0091
  884MOL0     H16652   1.059  10.428   5.858 -0.6513 -0.5541  0.0255
  884MOL0     H16653   0.861  10.520   5.770  1.5516 -1.1301  0.4628
  884MOL0     H16654   0.836  10.657   5.550 -0.6815  0.7137  0.3262
  884MOL0     H16655   0.855  10.826   5.511  2.0882 -1.6854 -0.4838
  884MOL0     H16656   0.642  10.748   5.446 -1.7452 -5.4031  0.1689
  884MOL0     H16657   0.598  10.846   5.601 -3.7348 -0.5587 -0.3661
  884MOL0     H16658   0.464  10.683   5.603  1.1095  1.6973 -2.8382
  884MOL0     H16659   0.594  10.639   5.722 -1.4774 -0.5342  1.0469
  884MOL0     H16660   0.554  10.538   5.435 -0.5914 -0.8392 -0.0083
  884MOL0     H16661   0.682  10.492   5.528  0.0682 -0.1090  0.2725
  884MOL0     H16662   0.507  10.421   5.709  0.3461  2.9227  0.0309
  884MOL0     H16663   0.549  10.314   5.570 -1.4755 -0.4112 -0.5418
  884MOL0     H16664   0.338  10.382   5.446  1.6137  1.7541 -2.4121
  884MOL0     H16665   0.322  10.519   5.542  3.2442 -0.3278 -0.1789
  884MOL0     H16666   0.282  10.238   5.661 -2.8352 -1.1106 -0.8117
  884MOL0     H16667   0.277  10.367   5.766 -2.9885 -0.9215  0.3049
  884MOL0     H16668   0.116  10.355   5.515  1.7413  1.2008  0.0599
  884MOL0     H16669   0.078  10.480   5.626 -2.7029 -0.1777  1.4259
  884MOL0     H16670   1.032  10.909   5.770  0.7641  0.0005  2.6735
  884MOL0     H16671   1.244  10.813   5.804 -0.7442  1.4344  0.8795
  884MOL0     H16672   1.652  10.649   6.013  0.9414  0.9403 -1.6310
  884MOL0     H16673   1.858  10.529   5.989  0.4645 -1.8581  0.9440
  884MOL0     H16674   2.671   9.689   4.740  1.1846  0.3125  0.3271
  884MOL0     H16675   2.516   9.770   4.565  1.4382 -0.1815 -0.9297
  884MOL0     H16676   2.580  10.279   4.124  0.9707 -0.7709 -0.7543
  884MOL0     H16677   2.393  10.365   3.982 -1.5074  0.7766 -0.1021
  884MOL0     H16678   1.966  10.259   3.924  1.1551  0.0469  1.5924
  884MOL0     H16679   2.026  10.119   4.006 -0.1430  0.0410 -0.3545
  884MOL0     H16680   1.936  10.096   3.764 -0.0185 -1.7336  1.8977
  884MOL0     H16681   2.074  10.180   3.715 -2.3659  0.9083 -1.1665
  884MOL0     H16682   2.039   9.891   3.846  0.2922 -0.5402 -0.4742
  884MOL0     H16683   2.200   9.961   3.834  0.5792 -4.2681 -1.4229
  884MOL0     H16684   2.182   9.981   3.587 -0.6499  0.6780 -2.4904
  884MOL0     H16685   2.138   9.819   3.630 -0.5674 -0.1041  1.5710
  884MOL0     H16686   1.797   9.952   3.412 -0.8305 -0.7238  2.0871
  884MOL0     H16687   2.162  10.020   4.086  1.8177 -0.9348 -4.1308
  884MOL0     H16688   2.333   9.942   4.227  0.8485 -1.7371 -2.5194
  885MOL0     O16689   2.836   1.201   5.837  0.1528 -0.5224 -0.7907
  885MOL0     C16690   2.957   1.226   5.821  0.7956  0.6051  0.0976
  885MOL0     O16691   3.023   1.200   5.711  0.2705 -0.0406 -0.2548
  885MOL0     C16692   2.956   1.178   5.599 -0.1738  0.4615  0.6450
  885MOL0     C16693   2.960   1.270   5.494 -0.2953  0.8267 -0.6620
  885MOL0     C16694   2.902   1.243   5.370  0.1783  0.5372 -0.5102
  885MOL0     C16695   2.830   1.124   5.347 -0.7036 -0.9502 -0.3833
  885MOL0     O16696   2.774   1.121   5.226 -0.5119  0.2202 -0.0776
  885MOL0     C16697   2.715   0.994   5.184  0.2422 -0.1490 -0.0450
  885MOL0     C16698   2.713   0.973   5.036  0.4753  0.2006  0.5267
  885MOL0     C16699   2.579   1.027   4.973 -0.2278  0.1746  0.0813
  885MOL0     C16700   2.463   0.944   5.027  0.3667  1.9140 -0.2370
  885MOL0     C16701   2.341   0.980   4.940 -0.3100  0.0264 -0.6270
  885MOL0     C16702   2.290   1.117   4.989 -0.0992 -0.2137  0.4960
  885MOL0     C16703   2.147   1.141   4.925 -0.4221 -0.8483  0.6589
  885MOL0     C16704   2.109   1.293   4.935  0.4343  0.3492 -0.1460
  885MOL0     N16705   2.077   1.317   5.070  0.3310 -0.1209  0.2073
  885MOL0     C16706   2.153   1.317   5.182 -0.2491 -0.1268 -0.7347
  885MOL0     C16707   2.051   1.351   5.269  0.5021  0.2396 -1.5534
  885MOL0     C16708   2.064   1.332   5.422  0.1973 -0.3913 -0.0538
  885MOL0     C16709   2.069   1.188   5.466 -0.0616  1.0157  0.0779
  885MOL0     C16710   1.959   1.094   5.419  0.5931  0.2704 -0.2135
  885MOL0     C16711   1.948   0.961   5.505  0.2921  0.2124  0.0280
  885MOL0     O16712   2.070   0.883   5.522  0.1085 -0.3414 -0.1513
  885MOL0     C16713   2.112   0.850   5.647  0.9251  0.8755  0.3975
  885MOL0     C16714   2.023   0.791   5.740  0.1366 -0.0203  0.0185
  885MOL0     C16715   2.066   0.723   5.852  0.2998 -0.8581 -0.5395
  885MOL0     C16716   2.201   0.704   5.870  0.2075 -0.4972  0.6134
  885MOL0     C16717   2.247   0.611   5.972 -0.0930 -0.0326 -0.8421
  885MOL0     O16718   2.376   0.586   5.972 -0.8047  0.1211  0.5141
  885MOL0     C16719   2.430   0.493   6.062 -0.5399 -0.6392 -0.0156
  885MOL0     C16720   2.430   0.355   6.042 -0.4985  0.4315 -0.0421
  885MOL0     C16721   2.496   0.262   6.124 -0.4771 -0.6034 -0.2061
  885MOL0     C16722   2.553   0.309   6.246  0.3854 -1.1328  0.4430
  885MOL0     O16723   2.606   0.212   6.324 -0.4604  0.9364  0.1371
  885MOL0     C16724   2.651   0.236   6.458  0.0129 -0.2818 -0.2987
  885MOL0     C16725   2.797   0.192   6.479  1.1518  0.2422 -0.5160
  885MOL0     C16726   2.885   0.149   6.359 -0.2741  0.0667 -0.4183
  885MOL0     C16727   3.037   0.128   6.397 -0.6917  0.8080  0.7156
  885MOL0     C16728   3.104   0.069   6.268 -0.0043 -0.3639  1.0772
  885MOL0     C16729   3.261   0.069   6.264 -0.0146  0.9506  0.6773
  885MOL0     C16730   3.336   0.021   6.389  0.4351  0.5054  0.0464
  885MOL0     C16731   3.335  -0.120   6.416 -0.1211  0.9612  0.0079
  885MOL0    Cl16732   3.349  -0.132   6.591 -0.2806  0.3795  0.0773
  885MOL0     C16733   2.551   0.450   6.261 -0.8136 -0.3333  0.7456
  885MOL0     C16734   2.488   0.536   6.174 -0.2395 -0.7458 -0.2723
  885MOL0     O16735   2.165   0.565   6.049  0.8399 -0.4148 -0.0710
  885MOL0     C16736   2.292   0.767   5.781  0.1273  0.1103  1.0009
  885MOL0     C16737   2.245   0.844   5.671  0.2716  0.4460 -0.3041
  885MOL0     N16738   1.933   1.362   5.204 -0.0349 -0.2817  0.0716
  885MOL0     N16739   1.945   1.345   5.082  0.0283  0.6942 -0.6830
  885MOL0     C16740   2.829   1.026   5.441 -0.7195  0.6485  0.1139
  885MOL0     C16741   2.880   1.061   5.571  0.2811  0.3552 -0.3191
  885MOL0     C16742   3.021   1.285   5.941 -0.2740 -0.5510  0.3611
  885MOL0     C16743   3.157   1.339   5.925  0.4460  0.4139  0.1103
  885MOL0     C16744   3.207   1.406   6.033  0.2894 -0.3560 -0.6816
  885MOL0     C16745   3.155   1.411   6.158  0.2386  0.1110 -0.5605
  885MOL0     O16746   3.223   1.457   6.269 -0.0673 -0.0826 -0.7206
  885MOL0     C16747   3.339   1.381   6.305  0.3005 -0.3259 -0.3208
  885MOL0     C16748   3.371   1.435   6.443  0.4719 -0.8734 -0.0779
  885MOL0     C16749   3.387   1.588   6.443 -0.2856  0.9232  0.5636
  885MOL0     C16750   3.458   1.614   6.583 -1.2275 -0.3095  0.0266
  885MOL0     C16751   3.605   1.601   6.578  1.0901 -0.6366 -0.0843
  885MOL0     C16752   3.721   1.577   6.575 -0.3947  0.0661 -0.1429
  885MOL0     C16753   3.031   1.342   6.173  0.4497 -0.7738 -0.6505
  885MOL0     C16754   2.963   1.290   6.066 -1.1360  0.3566 -0.5718
  885MOL0     H16755   3.025   1.355   5.510  0.6188 -0.1185  0.9434
  885MOL0     H16756   2.919   1.312   5.289  0.0230 -1.0696 -1.9709
  885MOL0     H16757   2.617   0.984   5.233  0.4693 -0.6818  0.3162
  885MOL0     H16758   2.771   0.904   5.214  1.6425  1.2088  1.6387
  885MOL0     H16759   2.719   0.865   5.025  1.1926  0.1417  1.3419
  885MOL0     H16760   2.793   1.017   4.977  0.4552  0.4646  0.6946
  885MOL0     H16761   2.575   1.020   4.864  1.1299  1.4642 -0.0785
  885MOL0     H16762   2.562   1.131   5.002 -2.1535  0.7354 -2.6431
  885MOL0     H16763   2.484   0.836   5.026 -0.7661  1.5433  2.9433
  885MOL0     H16764   2.436   0.969   5.130 -2.6326  0.7699 -0.6253
  885MOL0     H16765   2.262   0.904   4.936  0.1124 -0.4290 -0.4796
  885MOL0     H16766   2.386   0.986   4.840  3.0078 -3.3204  0.4013
  885MOL0     H16767   2.362   1.195   4.964 -0.1938 -0.2184  0.2037
  885MOL0     H16768   2.284   1.111   5.098  1.8622  0.4355  0.6882
  885MOL0     H16769   2.151   1.111   4.819 -1.0541  1.1201  0.0361
  885MOL0     H16770   2.078   1.075   4.979  1.3155 -1.3042  2.4087
  885MOL0     H16771   2.026   1.322   4.871  0.5647  1.5753  0.2213
  885MOL0     H16772   2.186   1.365   4.906 -1.3677  1.5293 -2.1893
  885MOL0     H16773   2.258   1.298   5.200 -0.0927  0.1195 -1.3774
  885MOL0     H16774   1.973   1.380   5.461  1.4387  3.3641 -1.3540
  885MOL0     H16775   2.145   1.386   5.472  0.8464 -1.4417  0.0539
  885MOL0     H16776   2.069   1.199   5.575 -3.6345  3.3557 -0.0002
  885MOL0     H16777   2.161   1.136   5.437 -0.4425  1.7129 -2.5994
  885MOL0     H16778   1.860   1.140   5.420 -0.2224 -1.2727 -2.2385
  885MOL0     H16779   1.983   1.073   5.314 -0.5596  0.1860 -0.4736
  885MOL0     H16780   1.873   0.896   5.461  1.0797 -1.7276  1.4225
  885MOL0     H16781   1.904   1.004   5.596  0.2594  0.4868 -0.1147
  885MOL0     H16782   1.914   0.793   5.736  0.1399  0.1308  0.0001
  885MOL0     H16783   1.994   0.665   5.909 -1.5145  1.5635 -0.1978
  885MOL0     H16784   2.369   0.317   5.960 -0.6029 -0.6227  0.5083
  885MOL0     H16785   2.473   0.158   6.104 -3.5257 -0.1270  0.4104
  885MOL0     H16786   2.595   0.183   6.535  1.9319 -1.8457  0.1116
  885MOL0     H16787   2.660   0.343   6.477  0.6360 -0.1884 -1.0478
  885MOL0     H16788   2.785   0.103   6.541  1.6254  2.7176  3.4493
  885MOL0     H16789   2.854   0.256   6.546  1.2043  1.4931 -1.7102
  885MOL0     H16790   2.877   0.234   6.291  2.0797  0.8730  0.2117
  885MOL0     H16791   2.849   0.055   6.317  4.1632 -2.1731  0.2634
  885MOL0     H16792   3.080   0.224   6.425 -1.8119  1.7396 -0.5977
  885MOL0     H16793   3.056   0.054   6.475  0.6480  1.6792  1.2415
  885MOL0     H16794   3.062   0.111   6.176 -0.8758  1.6312  2.3152
  885MOL0     H16795   3.081  -0.038   6.266  1.8475 -0.8189 -1.3086
  885MOL0     H16796   3.271   0.178   6.257 -0.5936  0.9694  0.0494
  885MOL0     H16797   3.301   0.018   6.177  1.1791 -1.5938  2.5973
  885MOL0     H16798   3.445   0.033   6.395  0.9143 -3.0814  5.5831
  885MOL0     H16799   3.292   0.071   6.475 -0.5669 -3.4041  2.0085
  885MOL0     H16800   3.422  -0.170   6.374 -0.4707 -0.3601  0.8023
  885MOL0     H16801   3.238  -0.156   6.381 -0.1347  1.1665 -0.1670
  885MOL0     H16802   2.598   0.498   6.346 -0.0528 -1.2213  0.8361
  885MOL0     H16803   2.500   0.642   6.191 -0.2153 -0.4053 -2.1759
  885MOL0     H16804   2.397   0.757   5.803  0.3153  0.5461  0.3490
  885MOL0     H16805   2.315   0.892   5.604 -2.9756 -1.0412 -5.3604
  885MOL0     H16806   2.770   0.935   5.433 -0.9393  0.9578 -2.4129
  885MOL0     H16807   2.862   0.997   5.658  1.1226  0.2631 -0.2067
  885MOL0     H16808   3.202   1.345   5.826  0.1749  0.4137 -0.0136
  885MOL0     H16809   3.298   1.466   6.024  0.3321  0.6097  3.7449
  885MOL0     H16810   3.423   1.399   6.237 -0.3471 -1.1266 -1.3632
  885MOL0     H16811   3.314   1.275   6.305 -0.2341 -0.2053 -0.3291
  885MOL0     H16812   3.282   1.420   6.505  0.3991  1.2661  0.4216
  885MOL0     H16813   3.453   1.381   6.491  1.6187  1.0325  0.1848
  885MOL0     H16814   3.295   1.646   6.443  0.6173  2.4295  1.0086
  885MOL0     H16815   3.450   1.621   6.360 -3.8090 -3.0107 -4.2354
  885MOL0     H16816   3.439   1.716   6.617  0.6615  0.5491 -1.2896
  885MOL0     H16817   3.407   1.544   6.650  0.7282 -2.2608 -0.3805
  885MOL0     H16818   3.821   1.544   6.595 -0.7448  0.0492  1.7709
  885MOL0     H16819   2.994   1.338   6.275 -0.0567  5.1235 -0.2324
  885MOL0     H16820   2.871   1.236   6.086  1.2142 -3.1222  2.0843
  886MOL0     O16821   0.293   7.230   5.270 -0.4428  0.0755 -0.6782
  886MOL0     C16822   0.180   7.175   5.286 -0.3920  0.7649 -0.7307
  886MOL0     O16823   0.095   7.207   5.383  0.0688  0.0172 -0.7774
  886MOL0     C16824   0.129   7.322   5.454  0.2522  0.4347  0.3781
  886MOL0     C16825   0.046   7.436   5.435 -0.6100 -0.5642 -0.4253
  886MOL0     C16826   0.077   7.549   5.517 -1.2680 -0.0299  0.2015
  886MOL0     C16827   0.166   7.552   5.618 -0.3024 -0.2737  1.5006
  886MOL0     O16828   0.195   7.664   5.693  0.6615  1.1400 -0.3300
  886MOL0     C16829   0.104   7.772   5.695 -1.0552 -0.3357 -1.4279
  886MOL0     C16830   0.135   7.849   5.832 -0.7606  0.6571 -0.3765
  886MOL0     C16831   0.078   7.768   5.950  0.7977 -0.4515 -0.3965
  886MOL0     C16832   0.085   7.857   6.076 -0.1475  0.2762  0.6597
  886MOL0     C16833   0.080   7.773   6.203 -0.9326  0.0435 -0.6367
  886MOL0     C16834   0.200   7.668   6.210 -0.2726 -0.5523  0.4977
  886MOL0     C16835   0.236   7.633   6.363  0.2940 -0.8019 -0.0657
  886MOL0     C16836   0.108   7.597   6.447 -0.1895  0.3271 -0.9700
  886MOL0     N16837   0.065   7.461   6.418  0.2493 -0.3354  0.0562
  886MOL0     C16838  -0.008   7.435   6.310  0.2446  0.4691  0.3138
  886MOL0     C16839  -0.041   7.302   6.324  0.3429  0.2525  1.0070
  886MOL0     C16840  -0.123   7.220   6.227 -0.1929  0.0656  0.0971
  886MOL0     C16841  -0.271   7.219   6.238  0.2698  0.5563  0.4779
  886MOL0     C16842  -0.342   7.156   6.130  0.5177  0.3104 -0.1310
  886MOL0     C16843  -0.490   7.198   6.127 -0.1705 -0.3468  0.4351
  886MOL0     O16844  -0.551   7.140   5.998 -0.6807  0.2917  0.0436
  886MOL0     C16845  -0.672   7.197   5.964 -0.2212  0.1444  0.5562
  886MOL0     C16846  -0.761   7.251   6.056  0.8169  0.3238  0.6617
  886MOL0     C16847  -0.882   7.299   6.012  0.1653 -0.4889  0.0175
  886MOL0     C16848  -0.915   7.312   5.876 -0.1143 -0.6661  0.2446
  886MOL0     C16849  -1.053   7.359   5.842  0.4876  0.6523  0.3618
  886MOL0     O16850  -1.066   7.412   5.716  0.2709  0.8944 -0.6833
  886MOL0     C16851  -1.190   7.456   5.662 -0.6319 -0.6773 -0.0961
  886MOL0     C16852  -1.289   7.527   5.733  0.0903  0.1625 -0.4493
  886MOL0     C16853  -1.409   7.561   5.664  0.1276  0.7015 -0.1410
  886MOL0     C16854  -1.431   7.542   5.525  0.4587  0.3194 -0.0974
  886MOL0     O16855  -1.544   7.586   5.464  0.3740  0.1326  0.2881
  886MOL0     C16856  -1.640   7.494   5.418  0.4535  0.2604  0.4511
  886MOL0     C16857  -1.777   7.525   5.474  0.2762 -1.4692 -0.7076
  886MOL0     C16858  -1.889   7.439   5.435  0.4037  0.1358 -0.1826
  886MOL0     C16859  -1.924   7.436   5.290 -0.4103  0.2586 -0.0735
  886MOL0     C16860  -2.064   7.375   5.273  0.5732 -0.2807 -0.0260
  886MOL0     C16861  -2.127   7.390   5.134  0.5240  0.1053  0.2298
  886MOL0     C16862  -2.225   7.281   5.116 -0.6295 -0.2445  0.1101
  886MOL0     C16863  -2.312   7.284   4.991 -0.0014  0.6760  1.1185
  886MOL0    Cl16864  -2.204   7.295   4.851  0.5520  0.0104  0.1650
  886MOL0     C16865  -1.321   7.483   5.459 -0.4767 -0.5410  0.8808
  886MOL0     C16866  -1.197   7.444   5.524  0.1786  0.5603  0.5528
  886MOL0     O16867  -1.143   7.338   5.920  0.0763  0.8022  0.2551
  886MOL0     C16868  -0.833   7.259   5.783  0.0255  0.6757 -1.1368
  886MOL0     C16869  -0.706   7.200   5.826 -0.0684  0.0374 -0.4655
  886MOL0     N16870   0.009   7.259   6.446  0.3877 -0.0278  0.1974
  886MOL0     N16871   0.069   7.351   6.497  0.7826  0.4419 -0.5703
  886MOL0     C16872   0.240   7.432   5.640 -0.8226  0.6280  0.0561
  886MOL0     C16873   0.223   7.324   5.554  0.1156  0.5660  0.2880
  886MOL0     C16874   0.142   7.073   5.185 -0.7752 -0.1365  0.6093
  886MOL0     C16875   0.211   7.062   5.063 -0.1324 -0.1168 -0.2825
  886MOL0     C16876   0.169   6.972   4.967 -0.2447  0.2617  0.4850
  886MOL0     C16877   0.061   6.888   4.980  0.6768  0.0025  0.5313
  886MOL0     O16878  -0.002   6.823   4.878 -0.2143 -0.3606 -0.2016
  886MOL0     C16879   0.065   6.810   4.753 -0.3658 -0.1739 -0.0498
  886MOL0     C16880  -0.038   6.755   4.654 -0.5903  0.0161 -0.2784
  886MOL0     C16881   0.035   6.691   4.532  0.2347  1.2881  0.2281
  886MOL0     C16882   0.024   6.775   4.405 -0.6366 -0.0261  0.5777
  886MOL0     C16883  -0.097   6.746   4.320 -0.8108 -0.2194 -0.3170
  886MOL0     C16884  -0.196   6.712   4.255 -0.7154  0.0083 -0.5810
  886MOL0     C16885  -0.011   6.890   5.104 -0.3989  0.3545 -0.0052
  886MOL0     C16886   0.033   6.980   5.202 -0.7561  0.4760  0.2928
  886MOL0     H16887  -0.031   7.441   5.359  1.0123  3.7221 -2.0768
  886MOL0     H16888   0.020   7.638   5.494 -1.8216 -0.5439 -0.4692
  886MOL0     H16889  -0.001   7.739   5.693 -0.7848 -1.4541  0.4746
  886MOL0     H16890   0.118   7.845   5.615 -1.1934  0.3077 -0.8852
  886MOL0     H16891   0.083   7.944   5.815 -0.4435  0.8472 -0.2890
  886MOL0     H16892   0.241   7.874   5.836 -1.1272  2.2391  0.0391
  886MOL0     H16893   0.155   7.691   5.964  2.8913  1.5244 -0.5354
  886MOL0     H16894  -0.022   7.733   5.923  1.0126 -3.5153  2.1514
  886MOL0     H16895   0.178   7.915   6.081  1.5040 -2.3059  2.1773
  886MOL0     H16896   0.003   7.930   6.082  0.8297  1.3042  2.1624
  886MOL0     H16897  -0.009   7.711   6.207  0.4210 -1.9057  1.6203
  886MOL0     H16898   0.099   7.832   6.294  1.2018 -3.0320  1.0755
  886MOL0     H16899   0.284   7.716   6.158 -2.2157  2.7175  0.0415
  886MOL0     H16900   0.160   7.584   6.154 -0.3285 -0.5755  0.5734
  886MOL0     H16901   0.308   7.550   6.361  0.9308 -0.4212  2.9043
  886MOL0     H16902   0.293   7.717   6.403 -0.0899 -0.9951  0.9075
  886MOL0     H16903   0.026   7.669   6.437 -2.2183 -1.3978  1.8436
  886MOL0     H16904   0.142   7.613   6.549 -1.6490  0.8757 -0.5408
  886MOL0     H16905  -0.046   7.498   6.230 -0.8151 -1.6378 -0.9416
  886MOL0     H16906  -0.084   7.118   6.241 -1.2268 -0.4451 -0.5875
  886MOL0     H16907  -0.086   7.248   6.127  0.6010 -2.8065 -0.5051
  886MOL0     H16908  -0.313   7.320   6.245 -1.9388 -0.2456 -0.2998
  886MOL0     H16909  -0.292   7.183   6.339 -0.2599 -0.0716  0.1537
  886MOL0     H16910  -0.310   7.193   6.032 -1.0652 -1.4204 -1.3659
  886MOL0     H16911  -0.324   7.048   6.124  1.5585  0.5051 -0.7844
  886MOL0     H16912  -0.506   7.306   6.132 -3.2255 -0.5178 -2.4828
  886MOL0     H16913  -0.541   7.159   6.216 -3.8901  1.7851 -0.5826
  886MOL0     H16914  -0.750   7.257   6.164 -4.2163 -3.1587  1.6906
  886MOL0     H16915  -0.948   7.342   6.087 -2.2567 -0.0965 -2.2165
  886MOL0     H16916  -1.275   7.537   5.840  2.5843  0.1745 -0.7301
  886MOL0     H16917  -1.489   7.607   5.721  2.5072  1.4986  2.8246
  886MOL0     H16918  -1.627   7.388   5.443 -3.2640 -0.2778  0.7277
  886MOL0     H16919  -1.651   7.508   5.311 -1.5635  2.4689  0.8713
  886MOL0     H16920  -1.807   7.629   5.462 -1.6097 -2.0533 -1.3122
  886MOL0     H16921  -1.780   7.506   5.582 -0.0186 -0.9444 -0.6204
  886MOL0     H16922  -1.981   7.460   5.491  0.2586 -1.2928  0.1451
  886MOL0     H16923  -1.852   7.346   5.479  0.9542  0.5515  0.2571
  886MOL0     H16924  -1.931   7.537   5.249 -4.0120  0.4353  0.6477
  886MOL0     H16925  -1.851   7.375   5.236 -1.2169 -2.2868  1.5340
  886MOL0     H16926  -2.140   7.404   5.346 -0.5486 -0.9721 -0.8971
  886MOL0     H16927  -2.044   7.268   5.280  0.2594 -0.4540 -1.4713
  886MOL0     H16928  -2.049   7.382   5.057 -1.7084 -0.7907 -2.0436
  886MOL0     H16929  -2.162   7.493   5.125  1.1388  0.3595  0.6292
  886MOL0     H16930  -2.161   7.193   5.108  1.6376  1.3549 -0.2270
  886MOL0     H16931  -2.290   7.261   5.202 -0.8272 -1.4194 -0.2966
  886MOL0     H16932  -2.377   7.372   4.997 -1.4091 -0.3476  1.3881
  886MOL0     H16933  -2.382   7.201   4.980  0.5837  0.1327  1.4543
  886MOL0     H16934  -1.333   7.477   5.351  4.9438 -0.0544 -0.0121
  886MOL0     H16935  -1.112   7.393   5.481 -0.0853 -1.2954  2.1043
  886MOL0     H16936  -0.869   7.258   5.681  1.0955  0.6497 -1.5304
  886MOL0     H16937  -0.632   7.149   5.764  0.6744 -1.5728  1.6161
  886MOL0     H16938   0.317   7.432   5.716 -1.2773  2.8833  0.6219
  886MOL0     H16939   0.285   7.236   5.564 -1.2818 -0.6604 -1.3748
  886MOL0     H16940   0.286   7.139   5.046 -0.0254  0.4798  2.4993
  886MOL0     H16941   0.228   6.976   4.876  0.6058 -2.0279  0.8881
  886MOL0     H16942   0.144   6.735   4.755  1.6820  1.8703 -0.3524
  886MOL0     H16943   0.104   6.902   4.708 -1.1441  1.4907  2.4661
  886MOL0     H16944  -0.104   6.676   4.692 -0.6370 -0.8061 -1.9666
  886MOL0     H16945  -0.115   6.824   4.618  0.8717  0.5942 -2.5116
  886MOL0     H16946  -0.008   6.592   4.520 -1.7498  1.8865  1.8451
  886MOL0     H16947   0.141   6.684   4.556  0.2895  2.0932  0.2558
  886MOL0     H16948   0.045   6.883   4.410 -2.3270  0.6799 -3.4763
  886MOL0     H16949   0.105   6.730   4.346 -2.8160  0.6050 -3.2569
  886MOL0     H16950  -0.285   6.693   4.199  0.0161 -0.7816 -1.5126
  886MOL0     H16951  -0.087   6.813   5.118  0.6252 -0.7019 -0.1133
  886MOL0     H16952  -0.008   6.967   5.302  0.7683  0.0113  0.8933
  887MOL0     O16953  10.515   5.025   5.224 -1.0205  0.0070 -0.7947
  887MOL0     C16954  10.495   4.906   5.246 -0.6728  1.1204  0.3000
  887MOL0     O16955  10.423   4.856   5.354  0.1678  0.4170  0.7986
  887MOL0     C16956  10.392   4.933   5.466  0.0141  0.1416  0.0046
  887MOL0     C16957  10.456   5.048   5.521  0.0258  1.1003  0.6171
  887MOL0     C16958  10.412   5.117   5.625  0.6617  0.4391 -0.8278
  887MOL0     C16959  10.305   5.063   5.694 -0.0913 -0.9365  0.5589
  887MOL0     O16960  10.252   5.131   5.800 -0.2389  0.5224  0.5296
  887MOL0     C16961  10.209   5.265   5.763  0.3349  0.2155 -0.5456
  887MOL0     C16962  10.162   5.330   5.896  0.3164  0.0290 -0.2383
  887MOL0     C16963  10.164   5.483   5.895 -0.4172  0.5204  0.4269
  887MOL0     C16964  10.129   5.542   6.034  0.1009  0.3633 -0.0711
  887MOL0     C16965  10.131   5.698   6.053 -0.7248 -0.3987  1.2504
  887MOL0     C16966  10.057   5.782   5.951  0.0941 -0.1302  0.5298
  887MOL0     C16967  10.089   5.928   5.975  0.4357 -0.2280 -1.0181
  887MOL0     C16968  10.058   6.021   5.859 -0.1095 -0.0046  0.4783
  887MOL0     N16969  10.154   6.014   5.749  0.7776  0.5997 -0.0496
  887MOL0     C16970  10.294   5.985   5.753  0.2791 -0.3925 -0.5901
  887MOL0     C16971  10.320   5.987   5.615  0.1437 -0.6207  0.4180
  887MOL0     C16972  10.448   5.950   5.546  0.8774  0.4719 -0.1246
  887MOL0     C16973  10.579   6.026   5.565 -0.0215  0.7191  0.5241
  887MOL0     C16974  10.571   6.180   5.555  0.1346  1.0268 -0.5386
  887MOL0     C16975  10.710   6.225   5.587 -0.6239  0.3198  0.0259
  887MOL0     O16976  10.735   6.336   5.498  0.8995 -0.1181 -0.0054
  887MOL0     C16977  10.864   6.388   5.484 -0.0348  0.9304 -0.6954
  887MOL0     C16978  10.959   6.361   5.583  0.3621  0.2489  0.4402
  887MOL0     C16979  11.084   6.410   5.571 -1.5142  0.3831  0.6649
  887MOL0     C16980  11.126   6.490   5.460  1.1101 -0.3434  0.5226
  887MOL0     C16981  11.257   6.539   5.446 -1.5480 -0.1418 -1.1116
  887MOL0     O16982  11.348   6.466   5.520  0.4053  0.2761  0.0083
  887MOL0     C16983  11.478   6.521   5.541 -0.3760 -0.3457 -0.4345
  887MOL0     C16984  11.585   6.431   5.555 -0.7221 -0.0860  0.0631
  887MOL0     C16985  11.711   6.486   5.599 -0.0793  0.6183  0.1388
  887MOL0     C16986  11.725   6.625   5.627 -1.6862 -0.5778 -0.5663
  887MOL0     O16987  11.848   6.676   5.658  1.0465 -0.5111 -0.0517
  887MOL0     C16988  11.873   6.819   5.654 -0.5425  0.4722  0.8145
  887MOL0     C16989  12.024   6.848   5.661 -0.7812 -0.3064  0.0786
  887MOL0     C16990  12.108   6.820   5.538  0.2237  0.6178 -0.5218
  887MOL0     C16991  12.262   6.836   5.588  0.3040  0.6345  0.5318
  887MOL0     C16992  12.368   6.816   5.475  0.3090  0.3188  0.2773
  887MOL0     C16993  12.437   6.951   5.454 -0.5511  0.3467 -0.3111
  887MOL0     C16994  12.548   6.951   5.345  0.1007  0.6181  0.8077
  887MOL0     C16995  12.573   7.103   5.301 -0.3346  0.6176  0.4221
  887MOL0    Cl16996  12.719   7.114   5.194 -0.3234 -0.0568 -0.0816
  887MOL0     C16997  11.615   6.703   5.614 -0.1932 -0.7591  0.3114
  887MOL0     C16998  11.501   6.654   5.569  0.1694 -0.1627 -0.1766
  887MOL0     O16999  11.288   6.636   5.376  0.1372 -0.1464  0.0677
  887MOL0     C17000  11.030   6.526   5.358 -1.0020 -0.0276 -0.0384
  887MOL0     C17001  10.898   6.479   5.383 -1.0882  0.3981  0.3443
  887MOL0     N17002  10.201   6.019   5.540  0.0813  0.9248 -0.4485
  887MOL0     N17003  10.101   6.030   5.628 -0.1651  0.0364 -1.4268
  887MOL0     C17004  10.244   4.948   5.653  0.8051 -0.0295 -0.5407
  887MOL0     C17005  10.282   4.883   5.537 -0.0569 -0.0934 -0.3817
  887MOL0     C17006  10.560   4.800   5.160  0.5017  0.2324 -0.7994
  887MOL0     C17007  10.537   4.659   5.179  0.4837  0.3979  0.3215
  887MOL0     C17008  10.612   4.553   5.115  0.0883 -0.2146  0.5943
  887MOL0     C17009  10.713   4.590   5.026 -0.8116 -0.8131 -0.2042
  887MOL0     O17010  10.792   4.495   4.971  0.0292 -0.2804 -0.4221
  887MOL0     C17011  10.777   4.472   4.826 -0.5896  0.4192 -0.0774
  887MOL0     C17012  10.636   4.430   4.779 -0.1043  0.2133 -0.9622
  887MOL0     C17013  10.577   4.298   4.813  0.2205 -0.1518  0.0504
  887MOL0     C17014  10.678   4.184   4.801 -0.3219  0.7990 -0.8799
  887MOL0     C17015  10.735   4.174   4.667  0.2019  1.1479  0.0780
  887MOL0     C17016  10.764   4.159   4.551 -0.5408 -0.0334  0.4392
  887MOL0     C17017  10.736   4.727   5.010  0.7889 -0.4977  0.4051
  887MOL0     C17018  10.661   4.836   5.069 -0.5493 -0.0120  0.7822
  887MOL0     H17019  10.552   5.068   5.474  0.6365  1.0060  1.7679
  887MOL0     H17020  10.471   5.199   5.664 -0.1985  0.6032  0.1638
  887MOL0     H17021  10.125   5.240   5.697  0.2745 -0.9908 -0.0513
  887MOL0     H17022  10.286   5.322   5.711 -0.1675 -0.6931 -2.3907
  887MOL0     H17023  10.228   5.301   5.978  1.1084 -2.4095 -1.6265
  887MOL0     H17024  10.067   5.280   5.916  1.2537 -1.0398  1.8508
  887MOL0     H17025  10.098   5.527   5.820  0.2969  1.4656  0.3363
  887MOL0     H17026  10.265   5.505   5.861  0.5096 -4.9178 -1.2927
  887MOL0     H17027  10.040   5.493   6.075  0.4135 -0.7181 -0.6334
  887MOL0     H17028  10.206   5.505   6.103 -1.2970 -2.6448  0.0364
  887MOL0     H17029  10.237   5.724   6.043 -0.9452  0.6497  1.4890
  887MOL0     H17030  10.095   5.722   6.153  1.9436 -2.0561  2.7079
  887MOL0     H17031   9.949   5.770   5.958 -0.1765  1.3601 -0.6292
  887MOL0     H17032  10.100   5.758   5.853 -0.6927 -0.2251  0.1979
  887MOL0     H17033  10.029   5.960   6.061  3.5141 -2.4100  2.2298
  887MOL0     H17034  10.195   5.935   6.003  0.1197  0.3986  0.0903
  887MOL0     H17035  10.051   6.121   5.902 -1.8262 -0.9345  2.5607
  887MOL0     H17036   9.955   6.015   5.822  0.8022 -3.4933 -2.0687
  887MOL0     H17037  10.343   5.962   5.847  1.3470 -0.4958 -1.1664
  887MOL0     H17038  10.417   5.946   5.442  1.1462 -0.9953 -0.1677
  887MOL0     H17039  10.460   5.844   5.572  0.7873  0.2335 -1.0257
  887MOL0     H17040  10.662   6.000   5.499  0.1659  2.7598 -0.1135
  887MOL0     H17041  10.615   6.000   5.665  1.0535  0.4515  0.0801
  887MOL0     H17042  10.546   6.200   5.451  2.3890 -1.0002 -1.5820
  887MOL0     H17043  10.494   6.218   5.623  0.8173 -2.5880  2.6506
  887MOL0     H17044  10.787   6.150   5.567  1.1290  2.1850 -0.5782
  887MOL0     H17045  10.712   6.254   5.692  3.8491  0.2286  0.1242
  887MOL0     H17046  10.929   6.300   5.668  0.7817  0.9783  1.1111
  887MOL0     H17047  11.163   6.371   5.635  0.7664 -2.0841 -3.2753
  887MOL0     H17048  11.570   6.324   5.545  2.9660 -0.6924 -0.3691
  887MOL0     H17049  11.797   6.421   5.604 -1.3672 -1.3190 -1.1508
  887MOL0     H17050  11.827   6.875   5.736 -1.4127  1.6841 -0.4554
  887MOL0     H17051  11.852   6.861   5.555 -0.0020 -0.0147  0.4856
  887MOL0     H17052  12.072   6.792   5.741  1.7269  0.1387 -1.0331
  887MOL0     H17053  12.041   6.953   5.688 -1.2747  0.1067 -1.0987
  887MOL0     H17054  12.091   6.888   5.454  2.0412  2.0493  0.1980
  887MOL0     H17055  12.072   6.718   5.518 -0.5762  0.7097  0.4049
  887MOL0     H17056  12.282   6.920   5.655  2.7590 -1.0620  2.0903
  887MOL0     H17057  12.281   6.752   5.656 -0.6655 -0.2408 -0.2503
  887MOL0     H17058  12.327   6.784   5.379 -1.2058  1.1163  0.6324
  887MOL0     H17059  12.427   6.736   5.522  0.3306  1.0437  1.5293
  887MOL0     H17060  12.482   6.987   5.547 -0.7655 -0.1280 -0.0231
  887MOL0     H17061  12.356   7.020   5.430  1.2738  2.1731 -1.6454
  887MOL0     H17062  12.644   6.915   5.383  0.4851  0.9923  0.2052
  887MOL0     H17063  12.516   6.883   5.266  3.1984 -1.1065  0.8556
  887MOL0     H17064  12.598   7.163   5.389 -0.9320  1.6030 -0.0653
  887MOL0     H17065  12.485   7.132   5.243 -0.1595  1.2536  0.4692
  887MOL0     H17066  11.619   6.808   5.642  1.9096 -0.3828 -1.1329
  887MOL0     H17067  11.424   6.730   5.573  2.1401  1.9023  1.1558
  887MOL0     H17068  11.043   6.598   5.278 -3.9339  2.7261  1.7290
  887MOL0     H17069  10.827   6.519   5.311  0.3110 -0.0593 -1.3779
  887MOL0     H17070  10.160   4.921   5.715  0.3709  1.1154 -0.6214
  887MOL0     H17071  10.227   4.811   5.477  3.9252 -0.8522 -3.6496
  887MOL0     H17072  10.457   4.618   5.240  0.4852 -1.1757 -0.6724
  887MOL0     H17073  10.611   4.446   5.131  3.2693 -0.1713  1.6639
  887MOL0     H17074  10.854   4.398   4.805 -3.1940 -2.4173 -0.3416
  887MOL0     H17075  10.795   4.568   4.776  1.3812 -0.8168 -1.8933
  887MOL0     H17076  10.567   4.502   4.825  1.4206  1.5395 -0.6572
  887MOL0     H17077  10.629   4.442   4.671  3.9168  1.4791 -1.2459
  887MOL0     H17078  10.499   4.276   4.740  1.0545  1.3912 -1.3696
  887MOL0     H17079  10.528   4.299   4.911 -0.8127 -2.3970 -0.3683
  887MOL0     H17080  10.758   4.208   4.872  0.1458 -3.5360  0.3585
  887MOL0     H17081  10.620   4.097   4.834 -1.7861  0.7365 -3.3396
  887MOL0     H17082  10.798   4.151   4.450  0.1218  3.9673  0.2061
  887MOL0     H17083  10.806   4.750   4.930 -0.6252  1.9158 -0.2182
  887MOL0     H17084  10.693   4.934   5.037 -2.4339 -0.0628 -1.5221
  888MOL0     O17085  10.833   7.179   9.225  0.0137  0.2841 -0.0793
  888MOL0     C17086  10.899   7.115   9.147 -0.7419  0.3003  0.5549
  888MOL0     O17087  11.035   7.105   9.153 -0.8691 -0.4854  0.4905
  888MOL0     C17088  11.109   7.221   9.202 -0.1415  0.2878  0.2405
  888MOL0     C17089  11.165   7.297   9.107 -0.3346  0.3618  0.5381
  888MOL0     C17090  11.248   7.400   9.142  0.6170 -0.0255  0.0687
  888MOL0     C17091  11.268   7.429   9.280 -0.3341  0.6996  0.1820
  888MOL0     O17092  11.345   7.542   9.312 -0.3843  0.0590 -0.1707
  888MOL0     C17093  11.297   7.626   9.419  0.3695  0.7977 -0.7931
  888MOL0     C17094  11.384   7.747   9.441 -0.9403 -0.2559 -0.7032
  888MOL0     C17095  11.518   7.704   9.502 -0.1467 -0.2050  0.5101
  888MOL0     C17096  11.650   7.749   9.428  0.3001 -1.5562  0.0245
  888MOL0     C17097  11.775   7.743   9.531  0.7391  0.0400  0.1690
  888MOL0     C17098  11.910   7.778   9.477  0.2853  1.6217  0.2343
  888MOL0     C17099  11.966   7.687   9.359 -0.3281  0.0530 -0.6578
  888MOL0     C17100  11.976   7.748   9.229  0.0596 -0.4905 -0.3488
  888MOL0     N17101  11.852   7.808   9.165 -0.8070  0.3461 -0.2172
  888MOL0     C17102  11.756   7.741   9.106  0.0507 -0.1821 -0.4877
  888MOL0     C17103  11.673   7.838   9.059 -0.0655  0.9417 -0.4146
  888MOL0     C17104  11.545   7.831   8.991  0.0704  0.0018 -0.2260
  888MOL0     C17105  11.563   7.840   8.836  0.4263 -0.2929 -0.7114
  888MOL0     C17106  11.429   7.777   8.779 -0.8529  0.5271 -0.5006
  888MOL0     C17107  11.398   7.859   8.661  0.0600 -0.4154 -0.2621
  888MOL0     O17108  11.279   7.798   8.608  0.0623 -0.3154  0.4485
  888MOL0     C17109  11.265   7.786   8.474  0.2416 -0.5588  0.7490
  888MOL0     C17110  11.326   7.860   8.380 -0.7804 -0.7731  0.0227
  888MOL0     C17111  11.304   7.841   8.241 -0.6946 -0.2425 -0.1957
  888MOL0     C17112  11.207   7.757   8.197 -0.1930 -0.7639  0.7417
  888MOL0     C17113  11.177   7.744   8.037 -0.4451 -0.9534 -1.0238
  888MOL0     O17114  11.065   7.674   8.010 -0.3266 -0.1724  0.5076
  888MOL0     C17115  11.041   7.641   7.883 -0.0958  0.1472  0.5025
  888MOL0     C17116  11.010   7.738   7.790 -0.1672  0.3474 -0.3514
  888MOL0     C17117  10.976   7.714   7.661  0.8208 -0.3585  0.0164
  888MOL0     C17118  10.951   7.574   7.634  0.8670  0.5223  0.2783
  888MOL0     O17119  10.908   7.529   7.509  0.2697 -0.0070 -0.4937
  888MOL0     C17120  10.907   7.614   7.386 -0.6369 -0.1769  0.1447
  888MOL0     C17121  10.873   7.514   7.275  0.0317 -0.1749 -0.4580
  888MOL0     C17122  10.839   7.578   7.142 -0.4930  0.3677 -0.6002
  888MOL0     C17123  10.757   7.476   7.064 -0.2816  0.1071  0.2558
  888MOL0     C17124  10.716   7.517   6.919 -0.3204  0.2495 -0.3664
  888MOL0     C17125  10.694   7.384   6.835 -0.3085  0.4127 -0.3709
  888MOL0     C17126  10.636   7.423   6.698  0.0264 -0.6382  0.6640
  888MOL0     C17127  10.597   7.298   6.615 -0.4460 -0.0215  0.2305
  888MOL0    Cl17128  10.613   7.320   6.440  0.0489 -0.0369 -0.0753
  888MOL0     C17129  10.982   7.478   7.726  0.5129 -0.5995  0.1286
  888MOL0     C17130  11.026   7.511   7.849 -0.1812 -0.1664 -0.3529
  888MOL0     O17131  11.248   7.793   7.960 -0.1247  0.0600  0.3747
  888MOL0     C17132  11.141   7.676   8.284  0.7163 -0.4711 -0.2779
  888MOL0     C17133  11.167   7.690   8.421  0.2821 -0.1966 -0.9764
  888MOL0     N17134  11.725   7.959   9.091  0.2114 -0.4407  0.5403
  888MOL0     N17135  11.833   7.940   9.159 -0.1990  0.4449 -0.0780
  888MOL0     C17136  11.221   7.336   9.370  0.3837 -0.3845 -0.4364
  888MOL0     C17137  11.140   7.238   9.329  0.7180  0.1415  0.0459
  888MOL0     C17138  10.828   7.039   9.033  1.1828 -0.3005  0.6807
  888MOL0     C17139  10.904   6.995   8.928 -0.8011 -0.0773  0.0297
  888MOL0     C17140  10.843   6.920   8.825 -0.1064 -0.6745  1.0512
  888MOL0     C17141  10.702   6.922   8.809  1.1093 -0.5664 -0.5574
  888MOL0     O17142  10.641   6.856   8.701  0.2080 -0.1121 -0.5293
  888MOL0     C17143  10.720   6.752   8.630  0.4122 -0.4221 -0.0017
  888MOL0     C17144  10.628   6.654   8.539 -0.2864 -0.1073  0.8727
  888MOL0     C17145  10.581   6.531   8.598  0.7667 -0.1828 -0.8502
  888MOL0     C17146  10.690   6.431   8.631 -0.1992  0.8805 -0.5847
  888MOL0     C17147  10.667   6.345   8.742 -0.4148  0.6907 -0.9093
  888MOL0     C17148  10.652   6.266   8.831 -0.7626 -0.0423  0.8203
  888MOL0     C17149  10.626   6.971   8.925 -0.4935  0.6434  0.9849
  888MOL0     C17150  10.690   7.025   9.034 -0.8326  0.0068 -0.4168
  888MOL0     H17151  11.142   7.284   9.002 -1.9647 -0.9006  1.0287
  888MOL0     H17152  11.282   7.477   9.073 -0.3923 -0.7131 -1.2191
  888MOL0     H17153  11.287   7.578   9.516 -0.1256  3.2417  0.4415
  888MOL0     H17154  11.195   7.653   9.389 -0.8461  0.7806  2.8768
  888MOL0     H17155  11.334   7.819   9.508 -0.8525 -0.5392 -0.3275
  888MOL0     H17156  11.408   7.808   9.354 -1.2330  0.0506 -0.5773
  888MOL0     H17157  11.538   7.597   9.495  5.3735  0.4777  1.4205
  888MOL0     H17158  11.516   7.745   9.604 -1.0674  4.1261 -1.0001
  888MOL0     H17159  11.661   7.677   9.346 -3.3907 -1.3491 -0.8219
  888MOL0     H17160  11.637   7.848   9.385  2.2476 -1.1806  0.1907
  888MOL0     H17161  11.784   7.644   9.575 -1.2164 -0.8050 -1.1770
  888MOL0     H17162  11.755   7.815   9.611  4.5350  0.8151  0.6141
  888MOL0     H17163  11.982   7.773   9.560 -0.0023 -0.5207  0.4149
  888MOL0     H17164  11.907   7.883   9.446 -1.1835  1.8285  1.0034
  888MOL0     H17165  12.060   7.637   9.384  0.6689  2.1680  0.1098
  888MOL0     H17166  11.894   7.605   9.350 -0.8432  0.3818  0.3250
  888MOL0     H17167  12.011   7.670   9.160 -0.7236  0.3600 -1.7509
  888MOL0     H17168  12.056   7.822   9.230  1.6498 -1.9020 -3.9863
  888MOL0     H17169  11.753   7.632   9.102  0.1889 -0.1531 -1.4870
  888MOL0     H17170  11.490   7.915   9.035  1.6514  0.2915  1.3067
  888MOL0     H17171  11.498   7.738   9.026 -4.3549  1.7740 -0.8064
  888MOL0     H17172  11.647   7.782   8.796 -0.6733 -3.1675  0.8005
  888MOL0     H17173  11.574   7.945   8.809  0.4475 -0.2328 -0.4698
  888MOL0     H17174  11.464   7.676   8.753  1.0952  0.9870  0.1785
  888MOL0     H17175  11.347   7.770   8.851 -0.9817 -0.2358 -0.7041
  888MOL0     H17176  11.475   7.861   8.583  0.1782 -0.2552 -0.1410
  888MOL0     H17177  11.379   7.962   8.693 -1.6522 -0.7371 -0.1598
  888MOL0     H17178  11.396   7.939   8.406  0.1534 -1.0700 -1.4748
  888MOL0     H17179  11.336   7.918   8.171  2.0814 -0.8414  0.2829
  888MOL0     H17180  11.015   7.842   7.819  2.7086  1.2020 -3.2232
  888MOL0     H17181  10.934   7.802   7.612 -0.0122 -0.1348  1.0891
  888MOL0     H17182  11.006   7.657   7.370 -1.1305  0.7489 -0.5251
  888MOL0     H17183  10.824   7.685   7.390 -0.6936 -0.2901  1.3335
  888MOL0     H17184  10.793   7.452   7.316  1.0569 -0.2448  1.5663
  888MOL0     H17185  10.953   7.439   7.273  0.8545  0.7016 -1.0629
  888MOL0     H17186  10.927   7.623   7.095 -0.1105  0.1357 -0.1116
  888MOL0     H17187  10.769   7.659   7.164 -0.1823 -0.0738  2.4076
  888MOL0     H17188  10.816   7.384   7.067  0.4159  0.4905  4.6181
  888MOL0     H17189  10.668   7.452   7.123  0.2241 -2.3935  0.1106
  888MOL0     H17190  10.798   7.573   6.872 -0.9094  1.2232 -0.2698
  888MOL0     H17191  10.620   7.569   6.920 -1.1257 -1.1672  1.0920
  888MOL0     H17192  10.633   7.309   6.886  2.2152 -1.5601 -0.1204
  888MOL0     H17193  10.786   7.330   6.815  1.5206  3.0612  0.3520
  888MOL0     H17194  10.540   7.473   6.714  0.1253 -0.4604  0.7071
  888MOL0     H17195  10.692   7.497   6.639 -0.7422  0.6206  1.4580
  888MOL0     H17196  10.502   7.249   6.638  0.0415  0.7779  4.9260
  888MOL0     H17197  10.667   7.220   6.647  0.0543  0.9040  1.4475
  888MOL0     H17198  10.957   7.377   7.692 -2.3937  0.9677 -2.9789
  888MOL0     H17199  11.044   7.430   7.918  1.2190 -1.1562 -1.8067
  888MOL0     H17200  11.051   7.617   8.264 -1.5940  2.7177 -0.0706
  888MOL0     H17201  11.113   7.623   8.487  0.3414  0.5112 -0.1967
  888MOL0     H17202  11.247   7.356   9.473  2.7756 -0.1459 -1.0233
  888MOL0     H17203  11.101   7.176   9.409  0.8824  0.3312  0.2742
  888MOL0     H17204  11.011   7.011   8.937 -0.6579 -1.9656  3.0918
  888MOL0     H17205  10.912   6.888   8.749  1.2384  2.8779  0.5722
  888MOL0     H17206  10.793   6.697   8.690  0.7331  0.7844  0.7388
  888MOL0     H17207  10.776   6.803   8.552  0.4833 -1.6067 -0.7583
  888MOL0     H17208  10.545   6.722   8.524  2.7001  4.0560  1.4450
  888MOL0     H17209  10.693   6.630   8.454  1.6494  2.3689  1.5314
  888MOL0     H17210  10.505   6.482   8.536  1.3408 -0.9733 -0.9446
  888MOL0     H17211  10.530   6.567   8.687  4.6662  4.4446 -0.0727
  888MOL0     H17212  10.711   6.367   8.545  3.9876  1.2555 -0.0522
  888MOL0     H17213  10.785   6.480   8.653  1.2278 -2.5750  1.6544
  888MOL0     H17214  10.652   6.199   8.914 -0.2864  0.8909  1.6008
  888MOL0     H17215  10.517   6.964   8.920 -0.9068  4.7897 -3.1289
  888MOL0     H17216  10.630   7.059   9.119  1.7284 -2.6796  2.7166
  889MOL0     O17217  10.737   8.840  10.250 -0.6187 -0.0559  0.4824
  889MOL0     C17218  10.710   8.878  10.362  1.4424  0.2818  0.4055
  889MOL0     O17219  10.588   8.867  10.429 -0.0073  0.2761 -0.1964
  889MOL0     C17220  10.485   8.796  10.379 -0.3926  0.0795  0.4473
  889MOL0     C17221  10.497   8.673  10.316 -0.5086 -0.1705  0.1628
  889MOL0     C17222  10.383   8.609  10.264  0.5167 -0.1772 -0.4861
  889MOL0     C17223  10.257   8.664  10.301 -0.6172  0.1205  0.0449
  889MOL0     O17224  10.139   8.622  10.261 -0.6167  0.3525  0.8460
  889MOL0     C17225  10.121   8.482  10.271 -0.3293  0.7588 -0.0475
  889MOL0     C17226  10.024   8.455  10.150  0.2590 -0.4831  0.2174
  889MOL0     C17227  10.001   8.306  10.116  0.3979 -0.4261  0.6973
  889MOL0     C17228   9.939   8.320   9.979 -0.5920  0.3783  0.0742
  889MOL0     C17229   9.880   8.178   9.965 -0.1641 -0.0565 -0.1755
  889MOL0     C17230   9.830   8.163   9.817  0.2570  0.7250 -0.1758
  889MOL0     C17231   9.686   8.122   9.803 -0.0203 -0.0501  0.3569
  889MOL0     C17232   9.573   8.222   9.859  0.3949  0.4529 -0.0356
  889MOL0     N17233   9.569   8.336   9.763  0.8277  0.8753 -0.0974
  889MOL0     C17234   9.615   8.466   9.786  1.3487 -0.1011 -0.2507
  889MOL0     C17235   9.589   8.531   9.666 -0.1142  0.6820  0.1154
  889MOL0     C17236   9.620   8.674   9.635  0.3099  0.9164  0.4761
  889MOL0     C17237   9.699   8.753   9.748 -0.7291  0.0149  0.6682
  889MOL0     C17238   9.856   8.742   9.734 -0.1666 -0.7177 -0.2257
  889MOL0     C17239   9.919   8.810   9.851  0.1478  0.4423  1.0421
  889MOL0     O17240   9.884   8.948   9.849 -0.0282 -0.3401 -0.4364
  889MOL0     C17241   9.937   9.027   9.945  0.8692 -0.1156 -1.1180
  889MOL0     C17242   9.994   8.990  10.065 -0.6766 -0.1613 -1.0072
  889MOL0     C17243  10.024   9.082  10.166 -0.4622 -0.9062 -0.3573
  889MOL0     C17244  10.008   9.220  10.142 -0.1113 -0.5507 -0.7232
  889MOL0     C17245  10.047   9.317  10.245 -0.0077 -0.3886 -0.2359
  889MOL0     O17246  10.041   9.452  10.214  0.7425 -0.1861  0.3278
  889MOL0     C17247  10.113   9.531  10.299 -0.0594 -0.2457  0.7258
  889MOL0     C17248  10.063   9.617  10.397  1.0916  0.4866  0.1809
  889MOL0     C17249  10.141   9.715  10.464  0.3305  1.0375 -0.1378
  889MOL0     C17250  10.273   9.725  10.420 -0.0739  0.1374  0.6959
  889MOL0     O17251  10.354   9.816  10.482 -0.2338  0.5455 -0.2355
  889MOL0     C17252  10.292   9.918  10.560 -0.4132 -0.1226 -0.1214
  889MOL0     C17253  10.401  10.023  10.597  0.2130  0.8271 -1.1215
  889MOL0     C17254  10.328  10.149  10.656 -0.7404  0.2259 -0.0697
  889MOL0     C17255  10.424  10.258  10.711 -0.1247  0.6515 -0.6265
  889MOL0     C17256  10.357  10.353  10.807  0.0053 -0.8377 -0.6102
  889MOL0     C17257  10.267  10.454  10.727 -0.2525  1.8655 -0.9746
  889MOL0     C17258  10.200  10.569  10.811 -0.1879 -0.3859  0.5460
  889MOL0     C17259  10.097  10.530  10.915  0.1583  0.6821 -0.6664
  889MOL0    Cl17260  10.041  10.682  10.991  0.1340  0.0483  0.1870
  889MOL0     C17261  10.330   9.644  10.321  0.2808  0.7172  0.5616
  889MOL0     C17262  10.252   9.545  10.266  1.0666 -0.5815 -0.3794
  889MOL0     O17263  10.108   9.274  10.343  0.2052 -0.3928  0.2779
  889MOL0     C17264   9.951   9.263  10.026 -0.8521 -0.3787 -0.4922
  889MOL0     C17265   9.918   9.169   9.923  0.3158 -0.1549 -0.7907
  889MOL0     N17266   9.534   8.445   9.573 -0.5976  0.6928 -0.7163
  889MOL0     N17267   9.511   8.335   9.640  0.2027  1.4030 -0.8120
  889MOL0     C17268  10.244   8.782  10.377 -0.2998 -0.6718  0.1174
  889MOL0     C17269  10.356   8.846  10.422 -0.7779 -0.0944  0.8590
  889MOL0     C17270  10.816   8.947  10.435 -0.9398 -0.4458  0.1914
  889MOL0     C17271  10.908   9.032  10.362  0.1597 -0.3362  0.0754
  889MOL0     C17272  11.014   9.091  10.431 -0.2479 -0.0875 -0.4546
  889MOL0     C17273  11.028   9.064  10.564 -0.1616  0.2639  0.2505
  889MOL0     O17274  11.127   9.120  10.646 -0.3709  0.5444 -0.1110
  889MOL0     C17275  11.223   9.223  10.609  0.6135 -0.0149 -0.9210
  889MOL0     C17276  11.249   9.293  10.750  0.1865 -0.4658  0.2992
  889MOL0     C17277  11.116   9.337  10.834  0.0470  0.7635  0.5480
  889MOL0     C17278  11.163   9.432  10.940  0.1233 -0.6126  0.5682
  889MOL0     C17279  11.247   9.383  11.046 -0.5535  0.1712  0.0839
  889MOL0     C17280  11.307   9.327  11.136  0.9663  0.0268 -0.3609
  889MOL0     C17281  10.925   9.001  10.642 -0.5606 -0.5900 -0.0872
  889MOL0     C17282  10.827   8.944  10.578  0.3823  0.3608  0.6996
  889MOL0     H17283  10.594   8.631  10.294 -1.2565 -1.6379 -0.5268
  889MOL0     H17284  10.388   8.526  10.195 -1.3857  0.7482 -1.8320
  889MOL0     H17285  10.074   8.462  10.367 -0.5132  1.6364  0.0512
  889MOL0     H17286  10.210   8.420  10.278  0.5973  1.8997 -1.2328
  889MOL0     H17287  10.075   8.505  10.068  1.2341 -2.3155 -0.3628
  889MOL0     H17288   9.936   8.514  10.175 -0.0331 -1.0801  0.6465
  889MOL0     H17289   9.929   8.266  10.188 -2.5537  1.3431 -1.0731
  889MOL0     H17290  10.095   8.250  10.109  1.7333  1.9006 -2.8501
  889MOL0     H17291   9.865   8.399   9.965 -0.2615  1.0623  1.9219
  889MOL0     H17292  10.012   8.316   9.898 -0.6387 -1.3250  0.0822
  889MOL0     H17293   9.795   8.154  10.029 -1.8769  0.9980 -1.9498
  889MOL0     H17294   9.961   8.106   9.981  1.8640  2.0856 -0.2208
  889MOL0     H17295   9.880   8.077   9.771  0.3185  0.9698 -0.5750
  889MOL0     H17296   9.843   8.249   9.751 -1.1070 -0.4827 -2.1357
  889MOL0     H17297   9.654   8.100   9.700  0.8437  2.3976 -0.5310
  889MOL0     H17298   9.671   8.026   9.852 -0.8830 -0.8433 -1.3659
  889MOL0     H17299   9.592   8.258   9.961  2.9795 -2.0532  0.5300
  889MOL0     H17300   9.475   8.174   9.868  1.0886 -1.3161 -1.3717
  889MOL0     H17301   9.663   8.499   9.878 -0.2620  1.1283  0.1808
  889MOL0     H17302   9.528   8.722   9.600  2.5972  3.0417 -3.2327
  889MOL0     H17303   9.692   8.660   9.554 -1.3613 -2.9029 -0.5727
  889MOL0     H17304   9.680   8.729   9.853  1.2866  1.6047  1.4515
  889MOL0     H17305   9.665   8.857   9.747  0.5412  0.5278  3.0175
  889MOL0     H17306   9.894   8.641   9.714  0.7556 -0.5729  0.7009
  889MOL0     H17307   9.881   8.802   9.646  3.2100 -0.2053  0.9187
  889MOL0     H17308  10.027   8.806   9.866 -0.0984  2.2101  4.3456
  889MOL0     H17309   9.887   8.755   9.941 -3.0166  1.2880  0.5449
  889MOL0     H17310  10.009   8.884  10.085  2.9079  0.6129  1.3777
  889MOL0     H17311  10.063   9.052  10.263 -0.9831  1.3362  0.6133
  889MOL0     H17312   9.956   9.606  10.409  1.1193 -2.9943 -1.5497
  889MOL0     H17313  10.100   9.776  10.544  0.8606 -1.5215  2.2744
  889MOL0     H17314  10.232   9.887  10.646 -1.8773 -3.7866 -2.2381
  889MOL0     H17315  10.214   9.975  10.509 -1.2781  1.7305  2.9746
  889MOL0     H17316  10.464  10.043  10.510  1.6959  2.4256  0.2518
  889MOL0     H17317  10.458   9.979  10.679 -3.0808 -2.3795 -0.2731
  889MOL0     H17318  10.247  10.128  10.726 -1.2135 -1.1740 -0.9942
  889MOL0     H17319  10.273  10.195  10.574 -1.9610  1.3828  1.3440
  889MOL0     H17320  10.517  10.223  10.759  0.9299  4.1356  0.1538
  889MOL0     H17321  10.460  10.319  10.628 -3.7216 -0.4013 -3.1967
  889MOL0     H17322  10.437  10.413  10.852 -0.0690 -0.3775 -1.0731
  889MOL0     H17323  10.297  10.298  10.880  2.4011 -1.9825  0.6349
  889MOL0     H17324  10.183  10.396  10.688  0.0400  0.2201  0.6791
  889MOL0     H17325  10.323  10.497  10.643 -0.8405  2.8468 -0.8798
  889MOL0     H17326  10.272  10.627  10.870  0.4758  0.5485 -1.1121
  889MOL0     H17327  10.156  10.635  10.735  0.3486 -2.9600 -2.1809
  889MOL0     H17328  10.139  10.452  10.980 -2.3924  0.1473  0.4556
  889MOL0     H17329  10.009  10.482  10.872 -0.7521  0.9713  0.7919
  889MOL0     H17330  10.434   9.660  10.292 -0.0400  1.5439 -0.1691
  889MOL0     H17331  10.292   9.484  10.186  0.9508  2.6488 -3.1212
  889MOL0     H17332   9.906   9.361  10.012 -1.2792 -0.6691 -1.2403
  889MOL0     H17333   9.856   9.190   9.836 -0.0685 -1.4873 -0.8681
  889MOL0     H17334  10.139   8.802  10.393 -0.4242  0.8158 -2.1151
  889MOL0     H17335  10.355   8.933  10.487 -1.3277  2.4773 -2.2932
  889MOL0     H17336  10.876   9.069  10.265 -3.4127 -1.2493  0.7354
  889MOL0     H17337  11.071   9.167  10.378 -1.8711  1.3418 -0.2462
  889MOL0     H17338  11.197   9.294  10.530 -0.3678 -2.3801 -2.8610
  889MOL0     H17339  11.315   9.177  10.573  2.3580  3.3820 -1.1437
  889MOL0     H17340  11.309   9.219  10.803  1.5214  1.8906  2.2436
  889MOL0     H17341  11.316   9.379  10.741  1.8149 -1.7560 -0.5086
  889MOL0     H17342  11.064   9.253  10.881  1.1176 -0.2641 -0.0430
  889MOL0     H17343  11.043   9.382  10.767  0.7552  0.1732 -0.6497
  889MOL0     H17344  11.211   9.517  10.890  1.3110 -0.7536  1.4214
  889MOL0     H17345  11.078   9.480  10.990 -1.2520 -1.7940 -0.5481
  889MOL0     H17346  11.361   9.280  11.215 -1.3368  1.0926  2.0156
  889MOL0     H17347  10.928   8.989  10.750  0.4418 -2.6312 -0.3026
  889MOL0     H17348  10.768   8.877  10.639  1.1057 -1.8340 -0.8787
  890MOL0     O17349   7.176   2.429   4.129  0.4114 -0.3594 -0.0380
  890MOL0     C17350   7.130   2.438   4.016 -0.5349  0.5536  0.0196
  890MOL0     O17351   7.008   2.398   3.984  0.4661  0.0619  0.4202
  890MOL0     C17352   6.920   2.403   4.095  0.6447  0.3400 -0.5629
  890MOL0     C17353   6.872   2.278   4.153 -0.4519 -0.1072  0.2299
  890MOL0     C17354   6.776   2.280   4.253 -0.5709  0.2857 -0.5200
  890MOL0     C17355   6.728   2.404   4.302 -0.9908 -0.7063 -0.6326
  890MOL0     O17356   6.625   2.386   4.391 -0.1526  0.5301 -0.2095
  890MOL0     C17357   6.551   2.506   4.430  0.1864  1.2734 -0.8939
  890MOL0     C17358   6.445   2.468   4.536  0.7905  0.0208 -0.8705
  890MOL0     C17359   6.534   2.430   4.665  0.1346 -0.3463 -0.5716
  890MOL0     C17360   6.459   2.407   4.798  0.0643 -0.2095 -0.0434
  890MOL0     C17361   6.382   2.530   4.849 -0.3628  0.4584 -0.4322
  890MOL0     C17362   6.471   2.635   4.920  0.3541 -0.2424  1.0206
  890MOL0     C17363   6.386   2.753   4.963  0.4285  0.9185 -0.2615
  890MOL0     C17364   6.317   2.830   4.847 -0.3578  0.2603 -0.4485
  890MOL0     N17365   6.410   2.856   4.732  0.1657 -0.8085 -0.0361
  890MOL0     C17366   6.524   2.942   4.743  0.3520  0.0250  0.8588
  890MOL0     C17367   6.575   2.944   4.615  0.3260  0.3811  1.0222
  890MOL0     C17368   6.691   3.029   4.568 -0.5456 -0.1187 -0.1538
  890MOL0     C17369   6.676   3.089   4.424  0.1847 -0.0960  0.0951
  890MOL0     C17370   6.791   3.170   4.382 -0.0852  0.6804  0.0066
  890MOL0     C17371   6.794   3.305   4.443  0.6146 -0.2622  0.0831
  890MOL0     O17372   6.906   3.375   4.386  0.3007 -0.4180 -0.4916
  890MOL0     C17373   7.031   3.355   4.437  0.6233 -0.5245 -0.7474
  890MOL0     C17374   7.126   3.412   4.364  0.5247  0.0593 -1.2667
  890MOL0     C17375   7.262   3.395   4.394 -0.9276 -0.6836  0.4985
  890MOL0     C17376   7.303   3.333   4.507  0.2857 -0.4225 -0.3342
  890MOL0     C17377   7.448   3.330   4.521  0.0194  0.3944 -0.3704
  890MOL0     O17378   7.521   3.400   4.435  0.6241  0.8598 -0.2930
  890MOL0     C17379   7.649   3.371   4.400 -0.1050  0.8042 -0.3814
  890MOL0     C17380   7.750   3.464   4.394 -0.0768 -0.2298 -0.4602
  890MOL0     C17381   7.884   3.421   4.366  0.2853  0.6531 -0.3567
  890MOL0     C17382   7.912   3.285   4.327  0.4135  0.0639 -1.0622
  890MOL0     O17383   8.036   3.241   4.295  0.4008 -0.4355 -0.8439
  890MOL0     C17384   8.112   3.320   4.195 -0.5900  0.6140  0.3080
  890MOL0     C17385   8.236   3.240   4.146  0.7089  1.1401  1.2699
  890MOL0     C17386   8.315   3.187   4.269 -0.8147 -0.9654  0.9904
  890MOL0     C17387   8.454   3.130   4.230 -0.6755 -0.0401 -0.6526
  890MOL0     C17388   8.512   3.077   4.364 -0.3217 -0.2092  0.0257
  890MOL0     C17389   8.637   3.013   4.315 -0.6080  0.9597 -0.3179
  890MOL0     C17390   8.690   2.918   4.429  0.0975 -0.3402  0.7550
  890MOL0     C17391   8.827   2.871   4.396 -0.7408 -0.2040 -0.1896
  890MOL0    Cl17392   8.889   2.772   4.531 -0.2324  0.2381  0.0108
  890MOL0     C17393   7.806   3.195   4.321 -0.6504  1.0613  1.2847
  890MOL0     C17394   7.684   3.238   4.362  0.0952 -0.4762 -0.0181
  890MOL0     O17395   7.483   3.257   4.616 -0.6949 -0.3412  0.4303
  890MOL0     C17396   7.200   3.280   4.586  0.2079 -0.2891 -0.5411
  890MOL0     C17397   7.067   3.285   4.557 -0.2326 -0.1656 -1.0662
  890MOL0     N17398   6.500   2.853   4.542 -0.0802  0.5875  0.3991
  890MOL0     N17399   6.400   2.818   4.611  0.1064 -0.0341  0.2843
  890MOL0     C17400   6.773   2.530   4.254  0.0622 -0.2636 -0.6992
  890MOL0     C17401   6.864   2.524   4.148 -0.3543  0.9756 -0.7599
  890MOL0     C17402   7.215   2.486   3.901  1.1198 -0.4611  0.0800
  890MOL0     C17403   7.155   2.518   3.774 -0.7579  0.0160 -0.0873
  890MOL0     C17404   7.236   2.540   3.668  0.0521 -0.2468 -0.1978
  890MOL0     C17405   7.373   2.557   3.681 -0.3025 -0.2160  0.0840
  890MOL0     O17406   7.443   2.610   3.580 -0.3103  0.2121 -0.0626
  890MOL0     C17407   7.519   2.718   3.604 -0.0021  0.6081  0.4264
  890MOL0     C17408   7.519   2.820   3.494  0.8081  0.4960  0.1127
  890MOL0     C17409   7.374   2.864   3.475 -0.4524 -0.1628  0.3944
  890MOL0     C17410   7.358   2.969   3.369 -0.3431  0.7674 -0.0766
  890MOL0     C17411   7.436   3.085   3.404  0.4368 -0.8830  1.6795
  890MOL0     C17412   7.492   3.197   3.409  0.4204  0.5796 -0.4859
  890MOL0     C17413   7.428   2.547   3.813  0.2166 -0.5077  1.2342
  890MOL0     C17414   7.350   2.508   3.923  0.3034  0.5910  0.3476
  890MOL0     H17415   6.920   2.190   4.111 -0.8790 -0.4133  0.3774
  890MOL0     H17416   6.740   2.181   4.280  0.0833 -0.4405 -2.1193
  890MOL0     H17417   6.504   2.552   4.343 -1.3259 -0.4544 -1.0550
  890MOL0     H17418   6.615   2.581   4.477 -1.3168  1.5779  0.7900
  890MOL0     H17419   6.389   2.380   4.504 -1.5785  1.8901 -2.1918
  890MOL0     H17420   6.373   2.549   4.549  1.1839  0.3316 -0.6193
  890MOL0     H17421   6.604   2.511   4.686  2.4128 -2.6128  1.2883
  890MOL0     H17422   6.593   2.339   4.651  0.6229 -0.0140 -0.7093
  890MOL0     H17423   6.384   2.329   4.787  0.0514  0.1843 -4.2637
  890MOL0     H17424   6.534   2.384   4.874 -0.2460  2.1292  1.0815
  890MOL0     H17425   6.309   2.488   4.919  1.3528 -0.6323  0.7717
  890MOL0     H17426   6.323   2.574   4.768  0.3689  1.1354 -0.6166
  890MOL0     H17427   6.540   2.662   4.839 -0.9775  0.3048  0.0191
  890MOL0     H17428   6.530   2.590   5.000  1.3965 -1.0340 -0.1644
  890MOL0     H17429   6.312   2.716   5.035  0.1780  0.6544 -0.6456
  890MOL0     H17430   6.443   2.823   5.025  0.7552 -0.9880  1.7096
  890MOL0     H17431   6.276   2.926   4.881 -1.5467 -0.1537 -0.6661
  890MOL0     H17432   6.240   2.765   4.805  0.1635 -1.0836  0.6025
  890MOL0     H17433   6.562   3.000   4.826 -0.1272 -0.0836  1.1528
  890MOL0     H17434   6.784   2.975   4.588 -1.5622 -2.3245 -1.0388
  890MOL0     H17435   6.696   3.108   4.644  3.0777  2.2812 -2.6110
  890MOL0     H17436   6.584   3.148   4.417 -0.0120  0.7674  5.4932
  890MOL0     H17437   6.670   3.001   4.359 -0.1108 -1.5602  2.0107
  890MOL0     H17438   6.876   3.103   4.401 -2.6185 -3.2542 -1.2067
  890MOL0     H17439   6.789   3.175   4.273 -0.5947  0.9408  0.0256
  890MOL0     H17440   6.804   3.299   4.552  1.5493  0.7174  0.0700
  890MOL0     H17441   6.715   3.372   4.410  0.5459 -2.3148 -4.7219
  890MOL0     H17442   7.100   3.462   4.271 -1.7552 -1.7085 -1.6575
  890MOL0     H17443   7.337   3.447   4.334  0.9829  0.6359  3.7667
  890MOL0     H17444   7.734   3.567   4.424  2.2819  0.1687 -0.3918
  890MOL0     H17445   7.967   3.490   4.354 -0.5558  1.5140 -1.4130
  890MOL0     H17446   8.144   3.414   4.242  1.0681  0.6381 -0.7855
  890MOL0     H17447   8.052   3.340   4.105 -0.4176 -1.7989 -0.4056
  890MOL0     H17448   8.298   3.298   4.076  1.9226 -2.6561 -1.1470
  890MOL0     H17449   8.214   3.155   4.080  5.5075 -0.4850  1.3675
  890MOL0     H17450   8.263   3.112   4.329 -0.1198  0.5247  3.6494
  890MOL0     H17451   8.333   3.268   4.341 -2.1920  0.4640 -0.1844
  890MOL0     H17452   8.431   3.037   4.176 -0.5687 -1.1039  1.0484
  890MOL0     H17453   8.517   3.191   4.164  0.9349 -0.2534  0.6285
  890MOL0     H17454   8.450   3.009   4.423 -0.7774  1.6290  1.7923
  890MOL0     H17455   8.530   3.157   4.437 -2.3450 -2.2022  2.9511
  890MOL0     H17456   8.714   3.080   4.276  2.4855 -1.6847  0.8062
  890MOL0     H17457   8.609   2.944   4.234 -0.2397 -0.7028  0.9261
  890MOL0     H17458   8.682   2.967   4.526 -1.0696 -0.1525  0.5731
  890MOL0     H17459   8.627   2.828   4.429 -0.0603 -0.2949 -1.5113
  890MOL0     H17460   8.896   2.953   4.374  2.0683 -2.1335  0.8018
  890MOL0     H17461   8.827   2.815   4.302  0.9135 -0.5933  0.0143
  890MOL0     H17462   7.816   3.093   4.288 -0.4864  1.8982 -1.5093
  890MOL0     H17463   7.601   3.168   4.358  0.4010 -0.9551  1.4216
  890MOL0     H17464   7.220   3.229   4.679  0.9983  0.2826 -0.3840
  890MOL0     H17465   6.999   3.230   4.623  2.1549  0.0391  1.7638
  890MOL0     H17466   6.735   2.624   4.291 -0.7130 -0.5686 -0.7081
  890MOL0     H17467   6.878   2.616   4.092 -1.2171  1.4698 -0.1990
  890MOL0     H17468   7.048   2.526   3.755 -0.6806 -1.6081 -1.5441
  890MOL0     H17469   7.184   2.539   3.573  0.1686  1.4144 -0.3038
  890MOL0     H17470   7.625   2.692   3.604 -0.5105 -2.1788 -2.4893
  890MOL0     H17471   7.497   2.768   3.698 -0.5907  0.5137  0.3438
  890MOL0     H17472   7.584   2.905   3.514  0.0851  1.1705 -0.3629
  890MOL0     H17473   7.553   2.778   3.399 -2.3661  1.7966 -1.7654
  890MOL0     H17474   7.320   2.900   3.564 -1.3789  1.0962 -0.6321
  890MOL0     H17475   7.323   2.775   3.437 -1.7147  0.3193  0.9087
  890MOL0     H17476   7.387   2.940   3.268 -4.3356  3.2371 -2.1986
  890MOL0     H17477   7.252   2.997   3.369 -1.2213 -2.0462  2.1632
  890MOL0     H17478   7.538   3.293   3.420  0.9036  0.6055 -2.4030
  890MOL0     H17479   7.535   2.560   3.814  0.3760 -1.3357 -0.6809
  890MOL0     H17480   7.395   2.465   4.012  1.1060 -0.3806 -0.4995
  891MOL0     O17481   1.083   8.554   9.796  1.2768 -0.2622 -0.7655
  891MOL0     C17482   1.120   8.500   9.696 -0.3911 -0.3436  0.8964
  891MOL0     O17483   1.064   8.524   9.567 -0.0889 -0.6147  0.4923
  891MOL0     C17484   0.950   8.598   9.559  0.6518  0.6208  0.3269
  891MOL0     C17485   0.938   8.728   9.611  0.0629  0.4261 -0.5368
  891MOL0     C17486   0.828   8.812   9.572 -0.2329 -0.0806 -0.2214
  891MOL0     C17487   0.717   8.756   9.498  0.4105  0.5354  0.4558
  891MOL0     O17488   0.609   8.840   9.462  0.9835 -0.4660  0.1172
  891MOL0     C17489   0.476   8.781   9.456  0.4236 -0.2365 -0.0884
  891MOL0     C17490   0.379   8.901   9.458 -0.2210 -0.3852 -0.0636
  891MOL0     C17491   0.245   8.838   9.490 -0.9170 -0.7544  0.2197
  891MOL0     C17492   0.184   8.763   9.368  0.3010 -0.2290  0.2530
  891MOL0     C17493   0.032   8.725   9.385  0.1869 -0.0859 -0.2824
  891MOL0     C17494  -0.046   8.681   9.269 -0.4353  0.1217  0.2236
  891MOL0     C17495  -0.180   8.631   9.296 -0.2641  0.0109  0.3582
  891MOL0     C17496  -0.175   8.484   9.350  0.1357 -0.2623  0.7798
  891MOL0     N17497  -0.308   8.423   9.355 -0.1935 -0.9713 -0.1408
  891MOL0     C17498  -0.342   8.323   9.273 -0.0879 -0.6821  0.1691
  891MOL0     C17499  -0.443   8.259   9.340 -0.3209 -0.4463  0.2116
  891MOL0     C17500  -0.504   8.133   9.298  0.4146  0.0753 -0.9794
  891MOL0     C17501  -0.462   8.006   9.377 -0.1036  0.7479 -0.0836
  891MOL0     C17502  -0.333   7.935   9.337  0.4870  0.0175  0.3691
  891MOL0     C17503  -0.343   7.855   9.203  0.4297 -0.6380  0.0153
  891MOL0     O17504  -0.418   7.735   9.215 -0.3224 -0.5021 -0.2086
  891MOL0     C17505  -0.434   7.651   9.100  0.1704 -0.5302 -0.4589
  891MOL0     C17506  -0.473   7.522   9.115  0.4972  0.2120  1.0442
  891MOL0     C17507  -0.480   7.438   8.999 -0.5468 -0.3005 -0.2757
  891MOL0     C17508  -0.453   7.480   8.866 -0.3631  0.1116  0.3364
  891MOL0     C17509  -0.451   7.398   8.743 -0.5816  0.6830 -0.7167
  891MOL0     O17510  -0.456   7.267   8.761 -0.5209  0.0660  0.3292
  891MOL0     C17511  -0.476   7.190   8.648 -0.0533  1.3678 -0.3027
  891MOL0     C17512  -0.373   7.132   8.564  0.7149  0.4583  0.8547
  891MOL0     C17513  -0.415   7.051   8.455  0.8936  0.0713 -0.4310
  891MOL0     C17514  -0.550   7.023   8.433 -0.1037 -0.3699  0.5259
  891MOL0     O17515  -0.602   6.941   8.338  0.5138  0.2552  0.9805
  891MOL0     C17516  -0.506   6.881   8.249 -0.1528  0.8007 -1.0552
  891MOL0     C17517  -0.585   6.779   8.165  1.0283 -0.4727  0.1758
  891MOL0     C17518  -0.688   6.846   8.075  0.2015  0.1375 -0.5168
  891MOL0     C17519  -0.837   6.826   8.107 -0.5925  0.3168 -0.7803
  891MOL0     C17520  -0.933   6.914   8.014  0.9472 -0.3630 -0.1477
  891MOL0     C17521  -1.082   6.887   8.037  0.3490  0.8001 -0.1192
  891MOL0     C17522  -1.180   6.956   7.937 -0.8718  0.6002  0.6232
  891MOL0     C17523  -1.325   6.939   8.001 -1.0628 -0.4440 -0.5606
  891MOL0    Cl17524  -1.471   7.027   7.924 -0.6639 -0.0792  0.4193
  891MOL0     C17525  -0.642   7.077   8.518 -0.0111 -0.1921  0.4047
  891MOL0     C17526  -0.612   7.164   8.625 -0.0834 -0.2967 -0.4927
  891MOL0     O17527  -0.448   7.452   8.636  0.6454  0.3038 -0.0432
  891MOL0     C17528  -0.412   7.613   8.859  0.1542 -0.0499  0.3977
  891MOL0     C17529  -0.407   7.693   8.974 -0.4724 -1.0160  1.0073
  891MOL0     N17530  -0.469   8.329   9.457 -0.4608  0.0817 -0.7256
  891MOL0     N17531  -0.392   8.431   9.465  0.0561  0.2321 -0.4618
  891MOL0     C17532   0.739   8.629   9.442  0.3290 -1.7551 -0.1230
  891MOL0     C17533   0.852   8.558   9.468  0.4786 -0.0926 -0.9290
  891MOL0     C17534   1.232   8.417   9.703 -0.4322 -0.1433 -0.2862
  891MOL0     C17535   1.325   8.423   9.808  0.6480 -0.7689  0.3983
  891MOL0     C17536   1.447   8.357   9.803 -0.3240 -0.3648 -0.5161
  891MOL0     C17537   1.479   8.279   9.699  0.7173 -0.6324  0.3696
  891MOL0     O17538   1.590   8.200   9.680 -0.1903 -0.3023 -0.1019
  891MOL0     C17539   1.658   8.152   9.796 -0.3054  0.2798  0.2926
  891MOL0     C17540   1.749   8.043   9.757 -0.3576 -0.5606 -0.4072
  891MOL0     C17541   1.793   7.947   9.872  0.4200  0.6686 -1.1852
  891MOL0     C17542   1.817   8.022  10.012  0.9805 -0.7946 -0.3919
  891MOL0     C17543   1.885   7.927  10.101  0.6461 -0.4241  0.5649
  891MOL0     C17544   1.949   7.858  10.174 -0.0310  0.3212  0.6775
  891MOL0     C17545   1.398   8.282   9.590  0.5817  0.5288 -0.5803
  891MOL0     C17546   1.275   8.351   9.587 -0.5225  0.1685  0.8669
  891MOL0     H17547   1.028   8.757   9.664  1.1091  0.5404 -2.2822
  891MOL0     H17548   0.827   8.909   9.621  0.9353 -0.2702  0.2113
  891MOL0     H17549   0.454   8.710   9.536 -1.4789 -1.6204 -1.7239
  891MOL0     H17550   0.463   8.718   9.368 -0.5622 -0.6236  0.3206
  891MOL0     H17551   0.375   8.945   9.358 -0.3603  1.2335  0.6169
  891MOL0     H17552   0.399   8.968   9.542  2.8259  0.0129 -0.9840
  891MOL0     H17553   0.170   8.914   9.515 -0.0082 -0.6600  2.9699
  891MOL0     H17554   0.251   8.774   9.578  1.0157 -0.5635  0.2638
  891MOL0     H17555   0.203   8.828   9.283 -0.6017 -2.3179 -1.6380
  891MOL0     H17556   0.240   8.673   9.341 -1.0851 -0.9752 -0.2326
  891MOL0     H17557  -0.022   8.808   9.432 -0.4587 -0.2426 -0.7412
  891MOL0     H17558   0.033   8.649   9.464 -1.0131  1.6375  1.5094
  891MOL0     H17559   0.009   8.609   9.209 -1.1113 -1.3730  1.3375
  891MOL0     H17560  -0.067   8.768   9.205 -1.0666  0.1709  0.4900
  891MOL0     H17561  -0.223   8.701   9.368 -0.3580  1.3044 -0.8991
  891MOL0     H17562  -0.245   8.626   9.208 -1.7252 -5.3528  1.3670
  891MOL0     H17563  -0.140   8.488   9.454  3.6578  1.8206 -0.3136
  891MOL0     H17564  -0.111   8.425   9.284 -1.7150  3.9147 -5.7786
  891MOL0     H17565  -0.286   8.281   9.190 -1.4836 -1.1865 -0.5458
  891MOL0     H17566  -0.470   8.119   9.195  0.1981  2.8483 -1.4915
  891MOL0     H17567  -0.613   8.131   9.295  0.4037 -1.6663 -0.6346
  891MOL0     H17568  -0.545   7.934   9.373 -0.1330  0.8326 -1.9624
  891MOL0     H17569  -0.452   8.041   9.480  3.3475 -1.0344  0.3465
  891MOL0     H17570  -0.256   8.012   9.323 -0.6299  0.8183 -1.7106
  891MOL0     H17571  -0.292   7.872   9.417  4.9366  2.1952  0.1360
  891MOL0     H17572  -0.244   7.846   9.157  0.6408  1.1987  0.0321
  891MOL0     H17573  -0.406   7.916   9.138  0.0209 -0.3575  0.6645
  891MOL0     H17574  -0.488   7.474   9.211 -0.3021 -0.8094  0.4258
  891MOL0     H17575  -0.522   7.338   9.011 -1.1650 -0.0164 -0.0618
  891MOL0     H17576  -0.269   7.163   8.565  1.2450 -1.1659  0.2682
  891MOL0     H17577  -0.335   7.012   8.393  0.4588 -0.5304 -0.6211
  891MOL0     H17578  -0.444   6.820   8.315 -1.8610  2.5047  2.3584
  891MOL0     H17579  -0.448   6.956   8.195  1.0163  2.2231  1.9431
  891MOL0     H17580  -0.637   6.713   8.236  2.4579 -0.5571  1.1988
  891MOL0     H17581  -0.527   6.706   8.107  0.4931  0.1258 -1.1494
  891MOL0     H17582  -0.663   6.805   7.976 -1.8183  0.0428 -1.0456
  891MOL0     H17583  -0.668   6.953   8.081  1.6628 -0.2038  2.7772
  891MOL0     H17584  -0.865   6.721   8.094 -1.1909  0.1285  1.5079
  891MOL0     H17585  -0.851   6.855   8.212  1.4953 -2.1613  0.2922
  891MOL0     H17586  -0.908   6.879   7.914  3.3439  1.7147 -0.3640
  891MOL0     H17587  -0.913   7.021   8.017  1.0572 -0.3935  0.3500
  891MOL0     H17588  -1.103   6.923   8.138  1.4477 -0.2399  0.5122
  891MOL0     H17589  -1.099   6.779   8.033  1.7306  0.4212  2.4497
  891MOL0     H17590  -1.166   7.061   7.911  0.6523 -0.6014 -4.7667
  891MOL0     H17591  -1.168   6.903   7.842 -2.9933  0.8373  0.1717
  891MOL0     H17592  -1.308   6.971   8.104  0.1673 -2.3556 -0.1306
  891MOL0     H17593  -1.348   6.832   7.998  1.3734 -0.9995 -1.8405
  891MOL0     H17594  -0.744   7.046   8.500  0.5948 -3.6104  2.0031
  891MOL0     H17595  -0.690   7.200   8.691 -0.5500 -2.6128  0.3056
  891MOL0     H17596  -0.373   7.661   8.770  2.7081  0.3210  1.6146
  891MOL0     H17597  -0.374   7.794   8.954  4.4631 -2.2542  1.6501
  891MOL0     H17598   0.675   8.603   9.357 -2.8897  1.4444  1.0612
  891MOL0     H17599   0.863   8.461   9.421 -1.0406 -0.3821 -0.7348
  891MOL0     H17600   1.298   8.466   9.903  1.6817  1.9042 -0.4238
  891MOL0     H17601   1.513   8.354   9.890  2.3217  3.6349 -2.0889
  891MOL0     H17602   1.572   8.111   9.852 -0.4531 -1.9641 -1.4351
  891MOL0     H17603   1.707   8.230   9.856 -2.2223  0.2337  2.0632
  891MOL0     H17604   1.711   7.981   9.676 -0.5670 -0.3493 -0.4727
  891MOL0     H17605   1.845   8.078   9.717  0.5485 -1.6307  0.7712
  891MOL0     H17606   1.877   7.889   9.833  0.5758  0.4111 -0.4881
  891MOL0     H17607   1.711   7.875   9.880  0.8241  0.3956  4.0165
  891MOL0     H17608   1.887   8.104   9.996  0.8424 -0.1208  2.0437
  891MOL0     H17609   1.721   8.054  10.052  0.9109 -1.2726 -0.1702
  891MOL0     H17610   2.020   7.788  10.213  2.6351  2.7997  0.6107
  891MOL0     H17611   1.423   8.242   9.493  2.2163  0.8019 -0.2892
  891MOL0     H17612   1.210   8.346   9.501  0.9393  0.2601 -0.2969
  892MOL0     O17613   4.783   8.203   3.770  0.2852 -0.6986  0.4496
  892MOL0     C17614   4.846   8.141   3.676  0.3561  0.7216  0.3682
  892MOL0     O17615   4.944   8.204   3.603  0.4166 -0.7589 -0.0986
  892MOL0     C17616   4.960   8.334   3.624 -0.1323  0.0918 -0.0639
  892MOL0     C17617   5.078   8.394   3.671  0.7869  0.0779 -0.4666
  892MOL0     C17618   5.082   8.534   3.675 -0.7556  0.5449  0.3453
  892MOL0     C17619   4.978   8.612   3.633 -0.8177 -0.3530 -0.0581
  892MOL0     O17620   4.985   8.751   3.635  0.1417 -0.3707 -0.0616
  892MOL0     C17621   5.069   8.819   3.732  0.2940 -0.0370 -0.0346
  892MOL0     C17622   5.215   8.829   3.679 -0.0409  0.3263  0.5727
  892MOL0     C17623   5.237   8.958   3.620 -0.4894 -0.6646 -0.7106
  892MOL0     C17624   5.199   8.979   3.479 -0.7387 -0.7494  0.8109
  892MOL0     C17625   5.207   9.126   3.439  0.2939 -0.0267 -0.2378
  892MOL0     C17626   5.230   9.140   3.287 -0.4633 -0.3182  0.1885
  892MOL0     C17627   5.104   9.129   3.203  0.2749 -0.5428  0.1710
  892MOL0     C17628   5.080   9.229   3.092  0.8544 -0.3571  0.2688
  892MOL0     N17629   5.179   9.233   2.985 -0.8230 -0.1556 -0.1085
  892MOL0     C17630   5.201   9.133   2.887 -1.0388 -0.8495 -0.6395
  892MOL0     C17631   5.318   9.185   2.817 -0.9141  0.0008  0.1499
  892MOL0     C17632   5.383   9.126   2.708 -0.2101 -0.7484  0.8336
  892MOL0     C17633   5.508   9.208   2.669 -0.6443  0.1770 -0.0871
  892MOL0     C17634   5.619   9.138   2.597  0.8001  0.5744 -0.3128
  892MOL0     C17635   5.684   9.025   2.683 -0.3624  0.2690  0.5657
  892MOL0     O17636   5.819   9.019   2.622 -0.1577 -0.9350 -0.2670
  892MOL0     C17637   5.925   9.089   2.680 -0.1971  0.3940  0.8803
  892MOL0     C17638   5.921   9.199   2.771 -0.4690  0.1392  0.3587
  892MOL0     C17639   6.038   9.246   2.830  0.0903 -0.0640 -0.2406
  892MOL0     C17640   6.161   9.188   2.796  1.3228  0.3993  0.8561
  892MOL0     C17641   6.280   9.258   2.841 -0.7108 -0.3628 -0.1226
  892MOL0     O17642   6.261   9.371   2.923  0.1300 -0.4546  0.9761
  892MOL0     C17643   6.378   9.441   2.951  0.3121  0.0397 -1.1587
  892MOL0     C17644   6.425   9.551   2.874 -0.1056 -0.6744  0.1436
  892MOL0     C17645   6.553   9.607   2.897  0.5521  0.5372  0.9324
  892MOL0     C17646   6.623   9.566   3.000 -0.0795  0.2031 -0.3248
  892MOL0     O17647   6.732   9.647   3.018  0.7084  0.2408  0.1922
  892MOL0     C17648   6.821   9.624   3.125  0.0773 -0.1775 -0.0048
  892MOL0     C17649   6.944   9.712   3.116  0.1863 -0.1936 -0.0988
  892MOL0     C17650   7.020   9.701   3.250  0.0645  0.2305  0.6496
  892MOL0     C17651   6.959   9.781   3.368 -0.2166  0.0757  0.0954
  892MOL0     C17652   7.023   9.741   3.494 -0.1699  0.3333 -0.4134
  892MOL0     C17653   6.993   9.816   3.622  0.7786  0.2976  0.1716
  892MOL0     C17654   7.036   9.962   3.622  0.4123 -0.4678 -0.4857
  892MOL0     C17655   7.009  10.020   3.762  0.5299 -0.1239 -1.0349
  892MOL0    Cl17656   6.832   9.996   3.805  0.2545  0.0329  0.0692
  892MOL0     C17657   6.581   9.459   3.079 -0.1959 -0.6857 -0.3667
  892MOL0     C17658   6.463   9.391   3.045 -0.0017  0.2967 -0.7923
  892MOL0     O17659   6.387   9.235   2.779  0.7698  0.2539 -0.1183
  892MOL0     C17660   6.167   9.070   2.721  0.2336 -0.2609  0.6450
  892MOL0     C17661   6.050   9.023   2.662 -0.1705 -0.7710  0.0271
  892MOL0     N17662   5.359   9.300   2.891  0.0319  0.4142  0.7314
  892MOL0     N17663   5.269   9.331   2.976  0.0718 -0.8201  0.3644
  892MOL0     C17664   4.866   8.551   3.590  0.8258  0.5896  0.1175
  892MOL0     C17665   4.849   8.412   3.580 -0.0584  0.2113  0.9623
  892MOL0     C17666   4.824   7.995   3.651 -0.3946  0.5361 -0.9755
  892MOL0     C17667   4.699   7.937   3.697 -0.1687 -0.2122  0.0436
  892MOL0     C17668   4.691   7.797   3.683 -0.8724  1.1723  0.6470
  892MOL0     C17669   4.790   7.722   3.608 -0.2515  0.3085 -0.3244
  892MOL0     O17670   4.783   7.588   3.579 -0.2474  0.7326  0.1749
  892MOL0     C17671   4.752   7.492   3.680 -0.5326  0.1501 -0.1305
  892MOL0     C17672   4.791   7.349   3.638  0.1302 -0.9961  0.6960
  892MOL0     C17673   4.763   7.239   3.741 -0.6384  1.2056  0.4747
  892MOL0     C17674   4.823   7.105   3.712  1.0458  0.2159  0.7362
  892MOL0     C17675   4.780   7.052   3.580  0.8628 -0.1085 -0.4514
  892MOL0     C17676   4.735   7.011   3.479  0.4882  0.6601 -0.3096
  892MOL0     C17677   4.903   7.784   3.570 -0.0279 -0.0562 -0.5638
  892MOL0     C17678   4.915   7.921   3.583  0.2514 -0.0256  0.0482
  892MOL0     H17679   5.151   8.318   3.695 -1.9640 -2.2610  1.2707
  892MOL0     H17680   5.176   8.585   3.694 -0.6590  0.2618  0.6379
  892MOL0     H17681   5.072   8.773   3.831  0.7168 -2.9431 -1.2736
  892MOL0     H17682   5.031   8.921   3.743 -0.2086 -0.0547 -1.3698
  892MOL0     H17683   5.232   8.751   3.604  2.3165 -1.6322  2.9427
  892MOL0     H17684   5.288   8.819   3.760 -0.2148  0.7657  0.7832
  892MOL0     H17685   5.345   8.978   3.624 -0.9590  2.5685 -1.1624
  892MOL0     H17686   5.187   9.032   3.684 -0.9446  0.0973 -1.9268
  892MOL0     H17687   5.279   8.937   3.417 -1.6407  0.9381 -1.6892
  892MOL0     H17688   5.100   8.936   3.461 -2.5989  3.1182  0.6303
  892MOL0     H17689   5.289   9.172   3.495 -0.3657 -1.5433  2.0999
  892MOL0     H17690   5.117   9.177   3.476  2.1783  3.9826 -0.5761
  892MOL0     H17691   5.307   9.069   3.256 -1.5698 -0.0628 -3.6180
  892MOL0     H17692   5.273   9.238   3.262  0.8498  0.7257  5.3272
  892MOL0     H17693   5.099   9.031   3.154  4.0074 -0.0875 -1.4378
  892MOL0     H17694   5.022   9.132   3.275 -0.7315 -0.9901 -0.9249
  892MOL0     H17695   5.088   9.331   3.132 -2.3095  1.0741 -2.2835
  892MOL0     H17696   4.979   9.223   3.051  1.7056  0.3871 -2.0876
  892MOL0     H17697   5.142   9.042   2.877 -2.6341 -0.0804  1.1924
  892MOL0     H17698   5.307   9.125   2.629 -0.8355 -2.3899  1.4022
  892MOL0     H17699   5.405   9.022   2.733  1.8770 -1.7035 -3.8777
  892MOL0     H17700   5.566   9.258   2.747  0.8244  1.9445 -2.1763
  892MOL0     H17701   5.489   9.280   2.589  1.3307 -0.1553 -0.9363
  892MOL0     H17702   5.592   9.094   2.500  1.3845 -0.2294 -0.1221
  892MOL0     H17703   5.698   9.208   2.568 -0.9157  4.4683  3.4161
  892MOL0     H17704   5.629   8.933   2.665  1.4631 -0.3263 -2.9675
  892MOL0     H17705   5.692   9.055   2.788  0.9200  2.9543 -0.1910
  892MOL0     H17706   5.836   9.257   2.807 -0.0677  1.9202 -1.3853
  892MOL0     H17707   6.026   9.331   2.897 -0.6373 -1.0378  0.9140
  892MOL0     H17708   6.364   9.568   2.786 -1.9291 -2.7651  0.9121
  892MOL0     H17709   6.597   9.686   2.838 -1.9480  2.4415  1.4349
  892MOL0     H17710   6.868   9.526   3.117 -0.7238 -0.6576  1.0571
  892MOL0     H17711   6.772   9.623   3.222  0.6910 -0.1164  0.3088
  892MOL0     H17712   6.916   9.818   3.110  1.3546  0.1568  0.2504
  892MOL0     H17713   6.995   9.691   3.022 -1.4466  2.8731 -1.8352
  892MOL0     H17714   7.125   9.732   3.242 -0.3317  1.7414  0.8631
  892MOL0     H17715   7.030   9.592   3.252 -0.7941 -0.0303 -2.7603
  892MOL0     H17716   6.977   9.888   3.358  3.4527 -0.1379  2.5521
  892MOL0     H17717   6.850   9.774   3.373 -0.7165  4.4320 -0.6860
  892MOL0     H17718   7.130   9.751   3.473  0.2006  0.0176  1.2056
  892MOL0     H17719   7.000   9.637   3.517  0.2589  0.9021  3.3269
  892MOL0     H17720   7.049   9.767   3.703  0.2901  1.4241  1.2141
  892MOL0     H17721   6.886   9.816   3.642  0.8963 -2.7719  1.3831
  892MOL0     H17722   7.137   9.981   3.586  0.2959  3.4540  0.7561
  892MOL0     H17723   6.965  10.008   3.553  1.5641  0.4704 -1.0790
  892MOL0     H17724   7.030  10.128   3.764 -0.3367  0.0503  0.6060
  892MOL0     H17725   7.071   9.968   3.835 -0.9801  0.1719  0.5226
  892MOL0     H17726   6.642   9.435   3.165  2.9507 -0.2751 -2.2917
  892MOL0     H17727   6.440   9.310   3.113  0.8995  2.4214  2.2702
  892MOL0     H17728   6.261   9.017   2.710  0.5610  0.4660 -0.2618
  892MOL0     H17729   6.061   8.933   2.602  1.8484 -1.4651  1.3232
  892MOL0     H17730   4.784   8.616   3.561  0.3247  0.5231  1.3484
  892MOL0     H17731   4.760   8.365   3.537  0.7050 -0.4208  0.0373
  892MOL0     H17732   4.618   7.989   3.746 -3.1458 -4.4466  0.2116
  892MOL0     H17733   4.595   7.760   3.718 -0.4127 -0.3030  0.4377
  892MOL0     H17734   4.646   7.508   3.701 -0.8350 -0.5362 -1.0476
  892MOL0     H17735   4.809   7.526   3.767  0.2617  1.1354 -1.0134
  892MOL0     H17736   4.741   7.318   3.545 -0.6230  1.7636  0.0817
  892MOL0     H17737   4.898   7.356   3.616 -0.0650 -1.0525 -0.3248
  892MOL0     H17738   4.654   7.229   3.741 -1.3389  5.5119 -3.0780
  892MOL0     H17739   4.801   7.292   3.829 -1.0052 -0.8087  1.9194
  892MOL0     H17740   4.931   7.119   3.717  0.7506  2.4755  4.1644
  892MOL0     H17741   4.791   7.044   3.798 -2.6652 -0.4723 -0.9288
  892MOL0     H17742   4.695   6.973   3.387  2.3897 -0.9593 -0.5487
  892MOL0     H17743   4.965   7.728   3.502  0.8856 -1.9942  1.7208
  892MOL0     H17744   5.007   7.961   3.541  2.5806 -0.7203  3.9424
  893MOL0     O17745   3.194   0.403   9.583 -0.2243  0.0956  0.3603
  893MOL0     C17746   3.080   0.353   9.577  0.7163  0.4511  0.3040
  893MOL0     O17747   3.028   0.281   9.474  0.3652  0.4093 -0.4213
  893MOL0     C17748   3.097   0.258   9.360  0.1904  0.5166  0.0537
  893MOL0     C17749   3.033   0.293   9.244 -0.6090 -0.1728 -0.3707
  893MOL0     C17750   3.084   0.277   9.123 -0.3397  0.0789  0.4185
  893MOL0     C17751   3.211   0.216   9.106  0.6821  0.3668  0.0797
  893MOL0     O17752   3.258   0.212   8.975  0.4996 -0.1694 -0.3247
  893MOL0     C17753   3.388   0.144   8.948 -0.1244 -0.8887 -0.2006
  893MOL0     C17754   3.423   0.131   8.802 -0.3850 -0.0281  0.4995
  893MOL0     C17755   3.551   0.041   8.774 -0.4238  0.1308 -0.4744
  893MOL0     C17756   3.687   0.086   8.837  1.0951  0.5844  0.6540
  893MOL0     C17757   3.800  -0.011   8.812 -0.0035 -0.0911  0.5792
  893MOL0     C17758   3.876   0.037   8.680  0.7327 -0.0681 -0.0597
  893MOL0     C17759   3.995  -0.058   8.658 -0.4907  0.5811  0.1966
  893MOL0     C17760   4.060  -0.021   8.526  0.6697  0.0770  0.3554
  893MOL0     N17761   4.177  -0.106   8.493 -0.3451  0.1141  0.6507
  893MOL0     C17762   4.208  -0.241   8.528 -0.0392 -0.4107  0.5218
  893MOL0     C17763   4.332  -0.258   8.468 -0.8106  0.4178 -0.2739
  893MOL0     C17764   4.416  -0.381   8.485  0.2934  0.1542  1.1109
  893MOL0     C17765   4.520  -0.346   8.586  0.2298 -0.9490  0.4238
  893MOL0     C17766   4.633  -0.260   8.528  0.1656  0.7816  0.4360
  893MOL0     C17767   4.731  -0.344   8.440  0.7721 -0.6464  0.1088
  893MOL0     O17768   4.821  -0.253   8.359 -0.2521 -0.2748 -0.3656
  893MOL0     C17769   4.937  -0.305   8.297  0.5705  0.2594  1.4377
  893MOL0     C17770   4.980  -0.435   8.315  0.6705 -0.0295  0.4068
  893MOL0     C17771   5.068  -0.499   8.226  0.9140  0.5154 -0.9598
  893MOL0     C17772   5.144  -0.418   8.133  0.9094  0.5480  0.7638
  893MOL0     C17773   5.245  -0.468   8.040  0.4665  0.1740 -0.0717
  893MOL0     O17774   5.239  -0.427   7.903 -0.0979  0.0073 -0.1618
  893MOL0     C17775   5.338  -0.474   7.816  0.5997 -0.5310 -0.6064
  893MOL0     C17776   5.307  -0.506   7.688  0.5392 -0.2017  0.7092
  893MOL0     C17777   5.410  -0.552   7.601  0.2357 -0.3513  0.6213
  893MOL0     C17778   5.540  -0.565   7.637 -0.5066  0.8553  0.5153
  893MOL0     O17779   5.621  -0.611   7.534  0.6684 -0.3776  0.5791
  893MOL0     C17780   5.757  -0.636   7.577 -0.2992  1.2495  0.6270
  893MOL0     C17781   5.851  -0.646   7.452 -0.7249  0.9923 -0.2850
  893MOL0     C17782   5.794  -0.755   7.356  0.5377  1.4361  0.0191
  893MOL0     C17783   5.789  -0.898   7.410 -1.1232  0.2341  0.8576
  893MOL0     C17784   5.716  -0.985   7.310 -0.1748  0.1610 -0.4667
  893MOL0     C17785   5.768  -1.134   7.298  0.2347 -0.7502  0.4731
  893MOL0     C17786   5.879  -1.163   7.196  0.4510  0.3900  0.6007
  893MOL0     C17787   6.011  -1.114   7.257  0.6198 -0.3757 -0.2899
  893MOL0    Cl17788   6.144  -1.181   7.162 -0.2178  0.7692 -0.7405
  893MOL0     C17789   5.577  -0.528   7.764  0.3103 -0.7169 -0.2174
  893MOL0     C17790   5.476  -0.480   7.853 -0.0929  1.1456  0.6926
  893MOL0     O17791   5.322  -0.549   8.088 -0.2800  0.6737 -0.3192
  893MOL0     C17792   5.098  -0.286   8.113  0.0847  0.3179 -0.2287
  893MOL0     C17793   4.999  -0.228   8.195  0.4186 -0.4188 -0.6413
  893MOL0     N17794   4.367  -0.150   8.404 -0.6612  0.6668  0.6753
  893MOL0     N17795   4.281  -0.056   8.426 -0.6410  0.1304 -0.0083
  893MOL0     C17796   3.281   0.177   9.216  1.1626  0.3601  0.1528
  893MOL0     C17797   3.220   0.195   9.339 -0.6180  0.0101 -0.7951
  893MOL0     C17798   2.985   0.380   9.683  0.7566  0.2863 -0.1328
  893MOL0     C17799   2.847   0.360   9.662  0.8438 -0.3772 -0.2158
  893MOL0     C17800   2.767   0.387   9.765  0.2670  0.0015 -0.2049
  893MOL0     C17801   2.814   0.432   9.890 -0.2226  0.2508  0.5163
  893MOL0     O17802   2.732   0.461   9.993  0.4905 -0.4894  0.1876
  893MOL0     C17803   2.649   0.356  10.046 -0.2891 -0.8689  0.5389
  893MOL0     C17804   2.547   0.413  10.137  0.6860  0.6466 -0.0438
  893MOL0     C17805   2.441   0.494  10.064 -0.4068  0.9733 -0.3450
  893MOL0     C17806   2.344   0.579  10.152 -0.4948 -0.0635  0.2917
  893MOL0     C17807   2.223   0.600  10.068  0.4654  0.4974 -0.4467
  893MOL0     C17808   2.121   0.608  10.010 -0.4676  0.5516 -0.8891
  893MOL0     C17809   2.950   0.452   9.909  0.7233 -0.2910  0.2664
  893MOL0     C17810   3.040   0.421   9.808 -0.3918 -0.5518  0.4007
  893MOL0     H17811   2.935   0.339   9.252  0.5416  2.4555 -0.2273
  893MOL0     H17812   3.029   0.316   9.038  2.6909 -3.8675 -3.8733
  893MOL0     H17813   3.378   0.046   8.996 -1.5749 -1.4025 -1.4508
  893MOL0     H17814   3.465   0.187   9.012 -0.9639  0.0351  0.2145
  893MOL0     H17815   3.444   0.229   8.758 -0.2657 -1.1324 -2.1239
  893MOL0     H17816   3.329   0.108   8.750 -2.0867  5.1903  0.6941
  893MOL0     H17817   3.563   0.018   8.667 -0.5310 -0.6809 -0.3134
  893MOL0     H17818   3.545  -0.054   8.827  0.9553  0.3664  0.1481
  893MOL0     H17819   3.720   0.184   8.799  2.7249 -0.8249 -1.8786
  893MOL0     H17820   3.673   0.090   8.945  1.1636  1.7377  0.6305
  893MOL0     H17821   3.768  -0.116   8.812 -0.0373 -0.0805  0.7007
  893MOL0     H17822   3.876  -0.001   8.890  2.8843  1.8361 -2.2162
  893MOL0     H17823   3.912   0.138   8.703  1.5456 -0.7759  1.9424
  893MOL0     H17824   3.808   0.049   8.595  0.3044 -0.3719  0.2401
  893MOL0     H17825   4.069  -0.060   8.739  1.2329  0.7394 -1.3281
  893MOL0     H17826   3.958  -0.161   8.662 -1.5406  0.9485  0.1553
  893MOL0     H17827   4.086   0.085   8.533  1.3766 -0.1655  1.6996
  893MOL0     H17828   3.994  -0.016   8.439  1.1677  3.2882  0.0567
  893MOL0     H17829   4.172  -0.301   8.611  1.9682 -2.1887  0.1915
  893MOL0     H17830   4.462  -0.421   8.394  0.9421  0.0570  1.4725
  893MOL0     H17831   4.362  -0.465   8.530 -1.8917  1.2051  0.5860
  893MOL0     H17832   4.558  -0.444   8.617  1.2329 -0.2832  1.3486
  893MOL0     H17833   4.490  -0.280   8.668  0.4835  2.6139 -2.0985
  893MOL0     H17834   4.592  -0.176   8.471 -3.3768 -1.1535 -0.1223
  893MOL0     H17835   4.704  -0.219   8.600  0.3230 -0.6553  1.1343
  893MOL0     H17836   4.680  -0.414   8.373  3.0596 -2.8820  0.5362
  893MOL0     H17837   4.791  -0.404   8.509 -0.9359  0.1218  2.3565
  893MOL0     H17838   4.946  -0.480   8.408 -1.2866  1.0774  0.2838
  893MOL0     H17839   5.102  -0.598   8.256  0.6367  0.1363 -1.8740
  893MOL0     H17840   5.214  -0.462   7.654  1.4985  3.0564  1.9079
  893MOL0     H17841   5.372  -0.586   7.505 -1.2427 -0.2574  1.1416
  893MOL0     H17842   5.758  -0.728   7.637  0.4893 -0.9257 -2.4835
  893MOL0     H17843   5.801  -0.556   7.638  0.8388 -0.1859  1.7781
  893MOL0     H17844   5.957  -0.658   7.476 -1.1584 -0.5826  1.0326
  893MOL0     H17845   5.857  -0.549   7.403  0.8864  1.6878  1.2018
  893MOL0     H17846   5.855  -0.760   7.265 -1.8787  0.3455 -1.6534
  893MOL0     H17847   5.690  -0.728   7.335  0.5943  2.6537  1.1695
  893MOL0     H17848   5.893  -0.924   7.431 -0.9823 -3.1738 -2.8219
  893MOL0     H17849   5.728  -0.908   7.501 -0.0397  2.5464  1.9122
  893MOL0     H17850   5.716  -0.941   7.209 -1.3635 -1.4437 -1.2135
  893MOL0     H17851   5.609  -0.982   7.333  0.1319 -0.1530  1.0936
  893MOL0     H17852   5.676  -1.184   7.266 -0.6344 -1.3472  3.5541
  893MOL0     H17853   5.786  -1.168   7.400 -0.8089 -3.2752 -0.1111
  893MOL0     H17854   5.884  -1.271   7.185  0.1016  0.1781  2.3114
  893MOL0     H17855   5.855  -1.118   7.099  1.5980 -0.6939 -0.2164
  893MOL0     H17856   6.007  -1.166   7.353 -2.0036 -0.8250 -0.5633
  893MOL0     H17857   6.023  -1.006   7.259  1.8460 -0.5152  1.2827
  893MOL0     H17858   5.680  -0.534   7.798  0.8410  5.3195  0.1856
  893MOL0     H17859   5.495  -0.491   7.960 -0.6999 -1.7420  0.5751
  893MOL0     H17860   5.147  -0.217   8.045  2.7148 -2.4492 -1.4182
  893MOL0     H17861   4.972  -0.124   8.177  0.0977 -0.3233  0.3455
  893MOL0     H17862   3.382   0.141   9.200  0.4311 -1.7681  0.0555
  893MOL0     H17863   3.278   0.192   9.431 -0.5614 -0.4663 -0.8457
  893MOL0     H17864   2.800   0.349   9.565 -1.1468 -0.8462  0.7562
  893MOL0     H17865   2.658   0.382   9.767 -0.4189  6.5084  0.1893
  893MOL0     H17866   2.705   0.280  10.101  0.9753 -1.6830 -1.7518
  893MOL0     H17867   2.600   0.313   9.958  0.7655  1.5580 -1.3190
  893MOL0     H17868   2.494   0.331  10.187 -0.5783  0.6970 -1.2436
  893MOL0     H17869   2.608   0.472  10.206  2.5466  0.6750 -1.6377
  893MOL0     H17870   2.377   0.422  10.012  1.2973 -1.0597  0.2420
  893MOL0     H17871   2.492   0.546   9.982 -0.4202  0.9342 -0.3780
  893MOL0     H17872   2.317   0.525  10.244 -2.1584  0.4582  0.1511
  893MOL0     H17873   2.392   0.669  10.190  2.1739 -2.2398  2.4695
  893MOL0     H17874   2.034   0.618   9.948 -0.9793 -0.8990 -0.4533
  893MOL0     H17875   2.978   0.501  10.002 -1.0831  2.0756 -0.3229
  893MOL0     H17876   3.148   0.432   9.814  0.0490 -3.0433 -1.4773
  894MOL0     O17877   3.771  10.405   6.790  0.6432 -0.3331  0.6918
  894MOL0     C17878   3.743  10.504   6.857  0.1040 -0.0165  0.2077
  894MOL0     O17879   3.649  10.597   6.822 -0.4100 -0.1567 -0.4618
  894MOL0     C17880   3.598  10.606   6.693  0.4127 -0.3363 -0.0173
  894MOL0     C17881   3.599  10.734   6.635 -0.2839  0.8055  0.3546
  894MOL0     C17882   3.561  10.748   6.501 -0.7012  0.0946 -0.3168
  894MOL0     C17883   3.497  10.637   6.434 -0.1405 -0.1790  0.7996
  894MOL0     O17884   3.461  10.651   6.307  0.3121  0.8741  0.3992
  894MOL0     C17885   3.402  10.772   6.257 -0.1362 -0.2692  0.2494
  894MOL0     C17886   3.286  10.844   6.337 -0.3607  1.1521 -0.6973
  894MOL0     C17887   3.156  10.765   6.317  0.3256  0.3296  1.1311
  894MOL0     C17888   3.159  10.625   6.378  0.8692  0.1798  0.5547
  894MOL0     C17889   3.019  10.578   6.404  0.2865  0.2743  0.7740
  894MOL0     C17890   3.003  10.423   6.424  0.0419  0.3505  0.5267
  894MOL0     C17891   3.094  10.363   6.527 -0.2670  0.5231  0.5977
  894MOL0     C17892   3.049  10.219   6.565  0.1109  0.4577 -1.2919
  894MOL0     N17893   3.127  10.155   6.674  0.7548 -0.2061  0.3007
  894MOL0     C17894   3.252  10.104   6.650  0.7212 -0.2454 -0.1828
  894MOL0     C17895   3.274  10.032   6.760  0.0577 -0.2924  0.1149
  894MOL0     C17896   3.400   9.948   6.773  0.3708  0.0843  0.6276
  894MOL0     C17897   3.518  10.022   6.841  0.1351 -0.8136  0.4258
  894MOL0     C17898   3.642   9.940   6.867 -0.5822  0.3054  1.4683
  894MOL0     C17899   3.758  10.018   6.919  0.1935 -0.2298 -0.3705
  894MOL0     O17900   3.874   9.943   6.882  0.4329  0.4958 -0.2755
  894MOL0     C17901   3.931   9.984   6.764 -0.9169 -0.3756  0.3159
  894MOL0     C17902   3.914  10.103   6.692 -0.3174 -0.3884 -1.1922
  894MOL0     C17903   4.000  10.137   6.589 -1.2708 -0.2230 -0.3234
  894MOL0     C17904   4.111  10.052   6.556 -0.1722  0.8797  0.3995
  894MOL0     C17905   4.207  10.081   6.452 -0.8288  0.2152  0.3080
  894MOL0     O17906   4.177  10.193   6.368  0.7943 -0.0192 -0.2691
  894MOL0     C17907   4.254  10.191   6.252  0.2845 -0.5600  0.2151
  894MOL0     C17908   4.217  10.114   6.147 -0.1781  1.1464 -0.0387
  894MOL0     C17909   4.292  10.113   6.036 -0.2481  0.0641  0.8407
  894MOL0     C17910   4.405  10.190   6.021  0.4300  0.2624 -0.0842
  894MOL0     O17911   4.447  10.213   5.891  0.4886  0.5134  0.1512
  894MOL0     C17912   4.581  10.277   5.871 -0.3079  0.5431  0.0635
  894MOL0     C17913   4.638  10.257   5.737 -0.9484 -0.3662  1.2057
  894MOL0     C17914   4.530  10.299   5.634  1.1219 -0.0054 -0.1117
  894MOL0     C17915   4.577  10.281   5.485 -0.3954 -0.0623 -0.3819
  894MOL0     C17916   4.494  10.352   5.382  0.5007  0.6699 -0.2421
  894MOL0     C17917   4.353  10.317   5.410  0.2268 -0.2794  0.5625
  894MOL0     C17918   4.269  10.373   5.288  0.3842 -0.4718 -0.2280
  894MOL0     C17919   4.133  10.305   5.276 -0.2062  0.3935  0.1223
  894MOL0    Cl17920   4.156  10.151   5.178  0.0512  0.0227 -0.0061
  894MOL0     C17921   4.454  10.250   6.142 -0.2526 -0.5160 -0.1792
  894MOL0     C17922   4.378  10.255   6.253 -0.0978  0.5402 -0.0388
  894MOL0     O17923   4.301  10.007   6.436 -0.4019  0.7588 -0.2254
  894MOL0     C17924   4.126   9.929   6.630 -0.2321 -0.1466  0.1151
  894MOL0     C17925   4.034   9.901   6.729 -0.2342  0.0256 -0.5828
  894MOL0     N17926   3.173  10.054   6.851 -0.1783  0.7075 -0.3290
  894MOL0     N17927   3.088  10.120   6.795 -0.4822 -0.3659  0.3475
  894MOL0     C17928   3.494  10.514   6.498  0.1761 -0.1950 -0.6484
  894MOL0     C17929   3.539  10.500   6.629 -0.7719 -0.3176  0.7444
  894MOL0     C17930   3.816  10.514   6.985 -0.6770  0.2752  0.2064
  894MOL0     C17931   3.921  10.420   7.016  0.4217 -0.4427 -0.2355
  894MOL0     C17932   3.982  10.417   7.142  0.3502 -0.3148 -0.4813
  894MOL0     C17933   3.939  10.499   7.246 -1.0362  0.0075  0.6751
  894MOL0     O17934   3.991  10.482   7.368 -0.3334 -0.3924 -0.8976
  894MOL0     C17935   4.069  10.593   7.413  1.1827  0.3068  0.5076
  894MOL0     C17936   4.078  10.578   7.566  0.4305  1.1272 -0.4070
  894MOL0     C17937   3.961  10.630   7.649  0.6522  0.4701 -0.0691
  894MOL0     C17938   4.012  10.649   7.793 -0.9042 -0.3434 -1.1149
  894MOL0     C17939   4.104  10.771   7.793  0.1161  0.5252  0.5425
  894MOL0     C17940   4.178  10.865   7.790 -0.5977 -0.4995 -0.8544
  894MOL0     C17941   3.846  10.598   7.215  0.6431  0.5768  0.3002
  894MOL0     C17942   3.784  10.603   7.089  0.9448  0.2614  0.0628
  894MOL0     H17943   3.647  10.808   6.698 -0.3845  1.4168 -0.2753
  894MOL0     H17944   3.589  10.845   6.462 -0.0947 -0.1639 -0.5366
  894MOL0     H17945   3.363  10.749   6.157  1.4806  1.6416 -0.9019
  894MOL0     H17946   3.477  10.849   6.235  0.5721 -1.3467 -1.3701
  894MOL0     H17947   3.277  10.948   6.307 -1.9781  1.8510  1.9401
  894MOL0     H17948   3.301  10.852   6.445 -0.7854 -3.3783 -0.0926
  894MOL0     H17949   3.135  10.760   6.209  0.4600 -0.2110  1.1251
  894MOL0     H17950   3.080  10.836   6.351 -0.5318  0.8705 -1.6020
  894MOL0     H17951   3.212  10.571   6.299  3.1909  1.6216  1.0389
  894MOL0     H17952   3.216  10.612   6.470  0.1415  0.0719  1.0005
  894MOL0     H17953   2.962  10.613   6.317 -0.6838 -1.9850  0.4488
  894MOL0     H17954   2.990  10.621   6.500 -0.1082  0.9465  0.3641
  894MOL0     H17955   3.024  10.362   6.336  1.1623  0.3216  0.7940
  894MOL0     H17956   2.902  10.396   6.456 -0.8062 -0.9424 -2.8350
  894MOL0     H17957   3.199  10.367   6.499 -0.3440 -1.2916 -0.0652
  894MOL0     H17958   3.094  10.417   6.622 -2.3562 -0.3371  1.1395
  894MOL0     H17959   3.064  10.143   6.487 -1.6893 -0.5314 -0.7315
  894MOL0     H17960   2.949  10.227   6.607  1.5128  1.3939  2.1926
  894MOL0     H17961   3.325  10.111   6.570  2.4301  3.1211  1.4918
  894MOL0     H17962   3.438   9.905   6.680 -0.0228 -1.0305  0.9680
  894MOL0     H17963   3.359   9.874   6.843 -5.1649  1.2122 -0.9051
  894MOL0     H17964   3.486  10.068   6.936 -0.4018 -0.9670  0.3241
  894MOL0     H17965   3.538  10.101   6.769 -3.7232 -0.6774 -0.7021
  894MOL0     H17966   3.610   9.859   6.932 -1.0551  0.5941  1.6041
  894MOL0     H17967   3.669   9.899   6.769  1.0922  0.0928  1.9870
  894MOL0     H17968   3.758  10.012   7.028 -1.7264  0.4533 -0.3066
  894MOL0     H17969   3.772  10.122   6.888  4.3669 -0.9106 -1.4360
  894MOL0     H17970   3.842  10.184   6.707 -0.8250 -1.2487  1.4886
  894MOL0     H17971   3.975  10.229   6.539  0.9870  2.3005  2.7868
  894MOL0     H17972   4.124  10.058   6.148 -0.4700  1.5637 -1.6539
  894MOL0     H17973   4.269  10.052   5.949  2.9095  0.0535 -0.1070
  894MOL0     H17974   4.651  10.217   5.930 -2.0493 -1.0790  0.5826
  894MOL0     H17975   4.583  10.380   5.906 -0.6207  0.7978 -0.6463
  894MOL0     H17976   4.662  10.153   5.712 -0.0465 -0.2345  1.5018
  894MOL0     H17977   4.736  10.306   5.732 -0.1561 -1.8374  1.7737
  894MOL0     H17978   4.499  10.403   5.646  1.6006  0.2129 -0.7357
  894MOL0     H17979   4.441  10.238   5.656  0.1213  1.8493  1.3204
  894MOL0     H17980   4.680  10.316   5.476  1.0223 -3.3214  1.3413
  894MOL0     H17981   4.594  10.173   5.476  2.7026 -0.1648  3.4758
  894MOL0     H17982   4.528  10.324   5.282  1.4767  3.7796 -0.8980
  894MOL0     H17983   4.503  10.461   5.380 -0.0894  0.7223 -1.8462
  894MOL0     H17984   4.306  10.355   5.500 -0.7575 -0.7812  0.2751
  894MOL0     H17985   4.341  10.208   5.407  0.7909 -0.3347 -1.6559
  894MOL0     H17986   4.254  10.479   5.310 -0.1376 -0.8186  1.1938
  894MOL0     H17987   4.330  10.372   5.197  1.5428  4.2492  0.1936
  894MOL0     H17988   4.049  10.355   5.227  0.8407 -0.5712 -2.8528
  894MOL0     H17989   4.092  10.286   5.376 -0.7153  1.9603  0.2247
  894MOL0     H17990   4.540  10.316   6.146 -1.2220  0.7564  2.1917
  894MOL0     H17991   4.401  10.318   6.338 -0.6293 -2.0575  2.1629
  894MOL0     H17992   4.205   9.855   6.622 -0.8425 -0.9807  1.2925
  894MOL0     H17993   4.059   9.809   6.781  0.6101  0.5255 -0.0850
  894MOL0     H17994   3.467  10.425   6.442  0.0518  1.3020 -3.1505
  894MOL0     H17995   3.517  10.411   6.687 -0.0582 -1.0320 -0.0521
  894MOL0     H17996   3.961  10.350   6.942 -2.9850 -1.0129 -1.7107
  894MOL0     H17997   4.063  10.349   7.166  2.1000  1.6674 -0.5553
  894MOL0     H17998   4.026  10.690   7.385 -1.6132 -1.0984 -0.3759
  894MOL0     H17999   4.168  10.590   7.366  0.8109 -0.4687 -0.2515
  894MOL0     H18000   4.093  10.472   7.590 -0.2802  1.0746 -0.1670
  894MOL0     H18001   4.174  10.624   7.595  0.5627  0.5257  0.1462
  894MOL0     H18002   3.881  10.556   7.643  1.2800 -0.0777 -3.3575
  894MOL0     H18003   3.914  10.717   7.603 -1.4441 -1.6654 -2.1949
  894MOL0     H18004   3.930  10.658   7.864 -0.9841 -0.6076 -1.1741
  894MOL0     H18005   4.072  10.566   7.832 -1.7288  0.0190  1.0241
  894MOL0     H18006   4.253  10.942   7.785  2.7380 -3.2435  1.9710
  894MOL0     H18007   3.797  10.672   7.277 -1.8449  1.2479 -2.2472
  894MOL0     H18008   3.695  10.663   7.071  1.4620  0.8415 -0.5985
  895MOL0     O18009   5.948   7.514   4.112 -0.0531  0.2691 -0.7134
  895MOL0     C18010   5.960   7.423   4.199 -0.2829 -0.2022  0.2259
  895MOL0     O18011   6.073   7.390   4.269 -1.0270  0.5568  0.5871
  895MOL0     C18012   6.187   7.459   4.235  0.2930  0.3937 -0.7785
  895MOL0     C18013   6.258   7.421   4.122  0.0837 -0.0852 -0.1174
  895MOL0     C18014   6.363   7.505   4.075  0.3535  0.2568  0.0545
  895MOL0     C18015   6.406   7.619   4.142 -0.1646  0.0028  0.9028
  895MOL0     O18016   6.516   7.695   4.106 -0.4212  0.5306  0.1690
  895MOL0     C18017   6.587   7.659   3.994 -0.5465 -0.0990 -0.3464
  895MOL0     C18018   6.655   7.783   3.928  0.1968  0.1899 -0.0337
  895MOL0     C18019   6.756   7.860   4.008  0.1728 -0.4359 -0.3285
  895MOL0     C18020   6.811   7.989   3.949 -0.0592 -0.1925 -0.2406
  895MOL0     C18021   6.933   8.042   4.025 -0.7312 -0.5607 -0.9131
  895MOL0     C18022   6.877   8.102   4.155  0.4406  0.2826  1.0864
  895MOL0     C18023   6.968   8.203   4.216  0.3804  1.1018  0.1727
  895MOL0     C18024   6.910   8.281   4.333  0.3835 -0.1122 -0.7127
  895MOL0     N18025   6.898   8.200   4.451 -0.3548  0.1076 -0.5539
  895MOL0     C18026   6.774   8.156   4.501 -0.2217 -0.4069  0.3246
  895MOL0     C18027   6.815   8.055   4.586  0.3152  0.4575  0.5081
  895MOL0     C18028   6.715   7.955   4.650 -0.0087 -0.3434 -0.6604
  895MOL0     C18029   6.710   7.827   4.562  0.7352 -0.2191  0.1717
  895MOL0     C18030   6.630   7.726   4.641 -0.1399  0.1344  0.6015
  895MOL0     C18031   6.575   7.617   4.562 -0.3511 -0.9028  0.0611
  895MOL0     O18032   6.549   7.511   4.656 -0.0215  0.9675  0.4672
  895MOL0     C18033   6.492   7.401   4.589 -0.7062 -0.2444  0.0856
  895MOL0     C18034   6.438   7.303   4.673  0.8453 -0.7937  0.6030
  895MOL0     C18035   6.367   7.193   4.626  0.0837 -0.2571 -0.3499
  895MOL0     C18036   6.340   7.182   4.490 -0.2839 -0.6187  0.7852
  895MOL0     C18037   6.274   7.075   4.437 -0.4462  0.4204  0.1437
  895MOL0     O18038   6.243   7.080   4.300  0.3218 -0.0108 -0.2581
  895MOL0     C18039   6.216   6.956   4.243  0.4270  0.0710 -0.0925
  895MOL0     C18040   6.298   6.839   4.253  0.0654 -0.2729 -0.0380
  895MOL0     C18041   6.249   6.725   4.198  0.5625  0.6904 -0.1612
  895MOL0     C18042   6.127   6.716   4.130  0.2988 -0.0167 -0.3481
  895MOL0     O18043   6.072   6.608   4.072 -0.1715 -0.5425 -0.5810
  895MOL0     C18044   6.109   6.475   4.098 -0.2576 -0.1812 -0.5039
  895MOL0     C18045   6.032   6.389   3.991 -0.2800 -0.4733 -0.0602
  895MOL0     C18046   6.074   6.421   3.844  0.5134  0.3584  0.1412
  895MOL0     C18047   6.221   6.379   3.812  0.2908 -0.6478 -0.1787
  895MOL0     C18048   6.262   6.409   3.672 -0.9031 -0.1644 -0.2063
  895MOL0     C18049   6.399   6.352   3.641  0.3837 -0.6581 -0.7755
  895MOL0     C18050   6.430   6.372   3.489  0.5627 -0.0479 -0.1864
  895MOL0     C18051   6.536   6.270   3.443  1.0072  0.1108 -0.5924
  895MOL0    Cl18052   6.658   6.367   3.385 -0.3860 -0.1746 -0.3320
  895MOL0     C18053   6.044   6.833   4.112 -0.5387 -0.8015  0.2029
  895MOL0     C18054   6.099   6.950   4.162 -0.1140 -0.0745  0.1720
  895MOL0     O18055   6.259   6.971   4.513  0.3696  0.1165 -0.2528
  895MOL0     C18056   6.411   7.261   4.406 -0.9542  0.7370 -0.0966
  895MOL0     C18057   6.478   7.377   4.453 -0.4989  0.6286 -1.0914
  895MOL0     N18058   6.959   8.056   4.593  0.4744  0.8109 -0.8255
  895MOL0     N18059   7.002   8.142   4.519 -0.6463 -0.0472  0.2096
  895MOL0     C18060   6.342   7.650   4.260  0.4625  0.4411 -0.2378
  895MOL0     C18061   6.233   7.571   4.305 -0.1552  0.1098 -0.1096
  895MOL0     C18062   5.847   7.324   4.202  0.7299 -0.0043 -0.2916
  895MOL0     C18063   5.732   7.346   4.120 -0.8167 -1.2849  0.8515
  895MOL0     C18064   5.624   7.261   4.125  0.3172  1.4513 -0.2171
  895MOL0     C18065   5.630   7.146   4.195  0.3998 -0.2470 -0.1710
  895MOL0     O18066   5.519   7.065   4.168  0.2842 -0.2251 -0.2608
  895MOL0     C18067   5.493   6.947   4.260 -0.1133 -0.5900 -0.0212
  895MOL0     C18068   5.547   6.821   4.199 -0.3750  0.0676 -0.2723
  895MOL0     C18069   5.569   6.713   4.316  0.5658  0.3928 -0.3304
  895MOL0     C18070   5.639   6.582   4.270  0.2234 -0.6213  0.2623
  895MOL0     C18071   5.553   6.514   4.174 -0.6189  0.0520  0.0622
  895MOL0     C18072   5.476   6.471   4.096  0.8551 -1.1012 -0.2649
  895MOL0     C18073   5.735   7.119   4.277  0.0632  0.3272  1.3372
  895MOL0     C18074   5.840   7.218   4.294  0.2088  0.9103  0.4561
  895MOL0     H18075   6.243   7.335   4.057  1.1627 -2.2680  2.3386
  895MOL0     H18076   6.422   7.470   3.990  0.4990 -0.8897  0.6085
  895MOL0     H18077   6.521   7.617   3.917 -0.2978 -0.7385 -0.2169
  895MOL0     H18078   6.667   7.591   4.025  0.0835  1.3368  1.3805
  895MOL0     H18079   6.573   7.853   3.907 -1.3743 -1.2933  0.9445
  895MOL0     H18080   6.702   7.729   3.846 -1.7363 -2.4627  0.4770
  895MOL0     H18081   6.830   7.784   4.036  0.0035 -0.6573 -0.4809
  895MOL0     H18082   6.705   7.891   4.100 -0.0362 -0.7473 -0.3378
  895MOL0     H18083   6.855   7.978   3.849  2.2255  0.5746  0.6118
  895MOL0     H18084   6.729   8.060   3.943 -1.7710 -2.1237 -0.9838
  895MOL0     H18085   6.968   8.122   3.960  0.7682  0.4967  1.0918
  895MOL0     H18086   7.000   7.958   4.043  0.9360  0.7526 -0.7556
  895MOL0     H18087   6.849   8.024   4.227  0.4169 -0.0904  0.6788
  895MOL0     H18088   6.785   8.158   4.132 -0.6222 -1.9869 -0.6610
  895MOL0     H18089   7.056   8.149   4.253  0.6944  1.5171  0.0397
  895MOL0     H18090   7.002   8.262   4.131  0.9241  0.0113 -0.4018
  895MOL0     H18091   6.811   8.315   4.302 -0.8226 -0.1267  2.7478
  895MOL0     H18092   6.973   8.370   4.344  0.7482 -0.2300 -1.7343
  895MOL0     H18093   6.676   8.166   4.454 -0.8517  0.3701  1.7480
  895MOL0     H18094   6.616   8.000   4.657  0.8560  1.3747  2.0259
  895MOL0     H18095   6.746   7.930   4.752 -0.6981 -2.0621 -0.8363
  895MOL0     H18096   6.811   7.794   4.539  0.4252 -1.3127  0.3296
  895MOL0     H18097   6.657   7.859   4.471  1.2888 -0.8935 -0.4028
  895MOL0     H18098   6.700   7.685   4.715  1.7027 -0.3703 -1.3372
  895MOL0     H18099   6.544   7.773   4.688  0.1784 -0.1914  1.5371
  895MOL0     H18100   6.655   7.592   4.491  0.2746 -2.2370  1.1767
  895MOL0     H18101   6.489   7.648   4.502 -0.1366 -2.6507 -1.2410
  895MOL0     H18102   6.458   7.332   4.776  0.5302  2.7402 -0.2053
  895MOL0     H18103   6.340   7.116   4.698  2.4656 -0.7908  0.0429
  895MOL0     H18104   6.393   6.837   4.305 -0.3083  1.4964  0.7873
  895MOL0     H18105   6.308   6.634   4.200 -1.9747 -1.1497 -2.0382
  895MOL0     H18106   6.083   6.461   4.203  0.8960  0.0075 -0.1750
  895MOL0     H18107   6.218   6.462   4.093 -0.1909 -1.9455  2.6084
  895MOL0     H18108   5.924   6.402   4.003 -0.0878 -0.9337  3.2594
  895MOL0     H18109   6.058   6.285   4.013  0.3128 -0.4789 -0.7713
  895MOL0     H18110   6.073   6.529   3.831  2.8408  0.5701  1.2787
  895MOL0     H18111   6.004   6.369   3.778  0.6296  1.4708 -0.8893
  895MOL0     H18112   6.300   6.419   3.876  2.1230 -2.8724 -0.9405
  895MOL0     H18113   6.232   6.273   3.836  0.3822 -1.1546 -2.2702
  895MOL0     H18114   6.274   6.517   3.653  2.2146 -0.5683 -1.0586
  895MOL0     H18115   6.196   6.351   3.607  1.4257 -2.7603 -0.4210
  895MOL0     H18116   6.397   6.244   3.659 -1.8020 -0.9168 -2.1557
  895MOL0     H18117   6.470   6.401   3.708 -2.3637  1.2871  0.8996
  895MOL0     H18118   6.340   6.360   3.428 -0.6380  2.3727  0.9371
  895MOL0     H18119   6.465   6.476   3.481 -0.0086  0.2835  1.2756
  895MOL0     H18120   6.502   6.203   3.363 -0.4143  1.2074 -0.9691
  895MOL0     H18121   6.561   6.208   3.529 -1.3641  2.1402  1.7456
  895MOL0     H18122   5.954   6.824   4.053 -1.1155 -1.5503  1.1692
  895MOL0     H18123   6.045   7.044   4.152  0.7468  0.5924  1.4196
  895MOL0     H18124   6.408   7.225   4.304  3.5773 -0.3298 -0.0753
  895MOL0     H18125   6.524   7.434   4.373 -0.0940  2.1969  0.2259
  895MOL0     H18126   6.377   7.740   4.308  0.4088 -0.1144  0.8708
  895MOL0     H18127   6.186   7.623   4.388  1.1253 -1.1483  1.4875
  895MOL0     H18128   5.714   7.431   4.054 -1.0994  1.9167  4.6313
  895MOL0     H18129   5.536   7.284   4.066  0.8889  2.1163 -0.8345
  895MOL0     H18130   5.385   6.929   4.266 -0.2090 -0.5924 -1.4007
  895MOL0     H18131   5.518   6.964   4.365 -0.1301  1.9751 -0.3510
  895MOL0     H18132   5.476   6.781   4.126 -1.1668 -0.3332  0.7052
  895MOL0     H18133   5.646   6.847   4.160 -0.7565  1.2195 -0.5318
  895MOL0     H18134   5.470   6.690   4.357  0.9728 -0.8415  0.0065
  895MOL0     H18135   5.636   6.747   4.395 -1.0042 -0.6760  1.5839
  895MOL0     H18136   5.739   6.609   4.235  0.0131 -1.1684 -0.8139
  895MOL0     H18137   5.651   6.510   4.351 -1.7685 -0.3959  0.8275
  895MOL0     H18138   5.404   6.423   4.033 -0.8840  1.2534 -0.2213
  895MOL0     H18139   5.750   7.027   4.331  0.9875  1.9807  4.0920
  895MOL0     H18140   5.927   7.207   4.358  0.5443  0.0735 -0.1356
  896MOL0     O18141   7.473   5.215   7.565 -0.1509  0.1567 -0.8237
  896MOL0     C18142   7.541   5.115   7.547  0.3146 -0.1158  0.7579
  896MOL0     O18143   7.495   4.992   7.527  0.1168 -0.0128  0.0550
  896MOL0     C18144   7.381   4.957   7.596  0.0746 -0.0639 -0.1282
  896MOL0     C18145   7.348   4.989   7.728  0.2614 -0.2235  0.0611
  896MOL0     C18146   7.242   4.937   7.797  0.0349  0.1574  0.8614
  896MOL0     C18147   7.159   4.849   7.744  0.2377 -0.3836 -0.1677
  896MOL0     O18148   7.052   4.802   7.820 -0.5343  0.0972  0.5635
  896MOL0     C18149   7.030   4.661   7.822 -0.9188  0.1922 -0.5301
  896MOL0     C18150   6.875   4.638   7.843  0.6329 -0.5909 -0.8539
  896MOL0     C18151   6.783   4.672   7.728 -0.1136 -0.3290 -0.9457
  896MOL0     C18152   6.639   4.675   7.773  0.0997  0.4719  0.0921
  896MOL0     C18153   6.541   4.574   7.718 -0.4377 -0.0023 -0.0783
  896MOL0     C18154   6.481   4.612   7.587  0.4740 -0.5069  0.6959
  896MOL0     C18155   6.379   4.729   7.596  0.6364 -0.3722  0.9459
  896MOL0     C18156   6.342   4.762   7.444 -0.2851  0.0169  0.1165
  896MOL0     N18157   6.230   4.860   7.435 -0.0374  0.2044  0.3028
  896MOL0     C18158   6.234   4.999   7.454  0.6742  0.8123 -0.4619
  896MOL0     C18159   6.106   5.041   7.450  0.2449 -0.8719  0.5662
  896MOL0     C18160   6.062   5.179   7.498 -0.4067  0.2563  0.8892
  896MOL0     C18161   6.028   5.182   7.651 -0.9880 -0.8182  0.7680
  896MOL0     C18162   5.889   5.167   7.698  0.4700 -0.0767  0.4978
  896MOL0     C18163   5.837   5.018   7.717 -0.4453  0.7251 -0.3142
  896MOL0     O18164   5.696   5.014   7.746  0.2121 -0.0466 -0.1530
  896MOL0     C18165   5.615   5.066   7.645 -0.1771  0.8134  0.0067
  896MOL0     C18166   5.637   5.024   7.511  0.0239 -0.2759 -0.3044
  896MOL0     C18167   5.566   5.088   7.405  0.8389 -0.1061  0.1237
  896MOL0     C18168   5.466   5.185   7.435  0.5900 -0.0898  0.8175
  896MOL0     C18169   5.380   5.234   7.323  0.0247 -0.7585 -0.4000
  896MOL0     O18170   5.274   5.320   7.363 -0.4491  0.6012  0.0897
  896MOL0     C18171   5.170   5.350   7.287  0.4865 -0.1682 -0.0076
  896MOL0     C18172   5.189   5.432   7.175  0.7353 -0.7267  0.5866
  896MOL0     C18173   5.075   5.471   7.106 -0.3983 -0.7102  0.3303
  896MOL0     C18174   4.946   5.421   7.137 -0.4600 -0.4536  0.6049
  896MOL0     O18175   4.835   5.458   7.063  0.7942 -0.1482  0.1851
  896MOL0     C18176   4.832   5.598   7.018  0.1624  1.3475  0.5116
  896MOL0     C18177   4.698   5.617   6.959 -0.6946  0.1196 -0.3497
  896MOL0     C18178   4.682   5.763   6.910  0.8445 -0.4353  0.1102
  896MOL0     C18179   4.537   5.789   6.854  0.0396 -0.2315  0.4039
  896MOL0     C18180   4.498   5.933   6.849 -0.2424 -0.7657 -0.1691
  896MOL0     C18181   4.508   6.002   6.990 -0.4398 -0.1603  0.5244
  896MOL0     C18182   4.396   6.111   6.994 -0.3078 -0.0132 -0.5488
  896MOL0     C18183   4.261   6.049   7.014 -0.3281 -1.1482 -0.0404
  896MOL0    Cl18184   4.141   6.175   7.027  0.1165  0.0056  0.2656
  896MOL0     C18185   4.934   5.347   7.252  0.6239 -0.1686  0.1028
  896MOL0     C18186   5.045   5.301   7.325 -0.0919 -0.1747  0.2646
  896MOL0     O18187   5.395   5.197   7.212  0.2297 -0.1588 -0.2989
  896MOL0     C18188   5.442   5.224   7.567  0.2538  0.2080  0.7389
  896MOL0     C18189   5.516   5.161   7.669  1.0059 -0.0674 -0.1505
  896MOL0     N18190   6.025   4.934   7.423 -0.6988 -0.4561 -0.3550
  896MOL0     N18191   6.102   4.827   7.413  0.2279  0.5086 -0.3914
  896MOL0     C18192   7.181   4.812   7.610 -0.3230 -0.0883  0.3357
  896MOL0     C18193   7.300   4.858   7.536  1.5202 -0.3735 -0.3630
  896MOL0     C18194   7.679   5.130   7.510 -0.2476  0.5050 -0.9857
  896MOL0     C18195   7.746   5.251   7.536 -0.7282 -0.4299 -0.0765
  896MOL0     C18196   7.880   5.259   7.499  1.3808 -0.0098  0.3802
  896MOL0     C18197   7.956   5.158   7.444  0.0237 -0.4017  0.0831
  896MOL0     O18198   8.094   5.162   7.425 -0.4763 -0.3873 -0.3336
  896MOL0     C18199   8.157   5.279   7.465 -0.1468 -0.6583  0.7804
  896MOL0     C18200   8.304   5.263   7.432 -0.0130 -0.3069  1.1161
  896MOL0     C18201   8.340   5.309   7.281 -0.5380 -0.0816 -0.5540
  896MOL0     C18202   8.493   5.322   7.272 -0.2198  0.0621  0.1045
  896MOL0     C18203   8.549   5.454   7.310  0.4659  0.0985  1.1825
  896MOL0     C18204   8.608   5.557   7.344  0.2253 -0.4760  0.1507
  896MOL0     C18205   7.884   5.042   7.423  0.0317 -0.7774  0.3393
  896MOL0     C18206   7.749   5.027   7.452 -0.5207  1.1357  1.4220
  896MOL0     H18207   7.419   5.055   7.777 -0.6324 -0.4474  1.7081
  896MOL0     H18208   7.224   4.958   7.902 -0.8493 -0.9220  0.9321
  896MOL0     H18209   7.098   4.614   7.893 -1.8645 -0.7543 -0.2136
  896MOL0     H18210   7.048   4.613   7.725 -1.7882  1.6056 -1.4307
  896MOL0     H18211   6.846   4.696   7.931 -0.8810 -1.2348 -0.9148
  896MOL0     H18212   6.859   4.533   7.866 -3.3890  0.4335  2.0718
  896MOL0     H18213   6.785   4.582   7.665 -1.8282  0.0050 -1.5213
  896MOL0     H18214   6.815   4.766   7.681 -0.9886 -0.4709 -1.8467
  896MOL0     H18215   6.639   4.650   7.879  0.6028 -0.1208 -0.0431
  896MOL0     H18216   6.603   4.779   7.771  1.7679  1.0747 -0.7076
  896MOL0     H18217   6.453   4.563   7.781 -1.6040 -0.6757 -1.7480
  896MOL0     H18218   6.591   4.476   7.716 -0.3093  0.0429  0.8549
  896MOL0     H18219   6.422   4.525   7.557 -0.7048  0.1710  0.9593
  896MOL0     H18220   6.549   4.633   7.504 -0.7028 -0.1421 -0.2077
  896MOL0     H18221   6.289   4.703   7.654  1.4902 -2.6093  1.3514
  896MOL0     H18222   6.427   4.812   7.649  0.5914 -0.5073  1.2007
  896MOL0     H18223   6.310   4.666   7.402 -0.8055 -0.0000  0.5371
  896MOL0     H18224   6.427   4.798   7.385 -2.9397  0.6896 -3.6371
  896MOL0     H18225   6.318   5.060   7.486  0.8088  0.5271 -0.2620
  896MOL0     H18226   5.973   5.207   7.440  0.2368 -0.3444 -0.4426
  896MOL0     H18227   6.134   5.255   7.464  0.5484 -0.7718  0.5331
  896MOL0     H18228   6.066   5.279   7.685 -1.7398 -0.0181 -0.6015
  896MOL0     H18229   6.082   5.103   7.703 -0.4267 -1.9190 -1.3832
  896MOL0     H18230   5.876   5.215   7.796  1.9002  3.4536 -0.8793
  896MOL0     H18231   5.825   5.219   7.626  0.4804  0.3382  0.7839
  896MOL0     H18232   5.889   4.979   7.804 -0.9653  0.3349 -0.1720
  896MOL0     H18233   5.856   4.960   7.626 -1.8194 -0.4140  0.0843
  896MOL0     H18234   5.706   4.946   7.482  0.8135  0.4660 -0.4724
  896MOL0     H18235   5.590   5.055   7.304 -0.2226  0.8182 -0.4473
  896MOL0     H18236   5.287   5.456   7.136 -0.2309 -1.8919 -3.0309
  896MOL0     H18237   5.087   5.534   7.019  0.4332  1.2564  1.7787
  896MOL0     H18238   4.901   5.630   6.939 -0.5671 -1.6996 -1.5312
  896MOL0     H18239   4.849   5.665   7.103  0.4963  1.7300  0.1549
  896MOL0     H18240   4.623   5.611   7.039  0.4028  1.8524  0.8615
  896MOL0     H18241   4.679   5.540   6.883  0.0981  0.4453 -0.8880
  896MOL0     H18242   4.741   5.773   6.818 -0.4650 -0.3982 -0.7566
  896MOL0     H18243   4.721   5.840   6.977 -2.6679  0.2586  1.5931
  896MOL0     H18244   4.545   5.760   6.749  0.6364  1.9710 -0.1995
  896MOL0     H18245   4.452   5.730   6.888 -0.2376 -1.6484 -2.4357
  896MOL0     H18246   4.397   5.949   6.812 -0.2311  1.0116  0.4831
  896MOL0     H18247   4.562   5.979   6.773  2.7190 -2.3954  1.1275
  896MOL0     H18248   4.611   6.034   7.009 -1.2295  1.4224  2.5466
  896MOL0     H18249   4.481   5.927   7.065 -3.9462  1.4443  1.0920
  896MOL0     H18250   4.421   6.171   7.082 -0.8190  1.8807 -1.6306
  896MOL0     H18251   4.407   6.173   6.905  2.4572 -1.7563 -1.5458
  896MOL0     H18252   4.256   5.983   7.101 -0.4508  1.0978  1.7438
  896MOL0     H18253   4.236   5.987   6.927 -1.8918 -0.8911  0.1871
  896MOL0     H18254   4.840   5.305   7.288 -0.2893  3.0967  1.9409
  896MOL0     H18255   5.035   5.243   7.416  0.3282 -1.1911 -0.3203
  896MOL0     H18256   5.361   5.296   7.579 -2.2175 -2.3653  0.6412
  896MOL0     H18257   5.501   5.197   7.770  0.4922  1.2795 -0.6885
  896MOL0     H18258   7.120   4.737   7.559  0.3890 -1.0673  0.8784
  896MOL0     H18259   7.318   4.834   7.432  0.2464  0.2652 -0.7523
  896MOL0     H18260   7.691   5.331   7.585  0.0148 -0.4929  0.8833
  896MOL0     H18261   7.919   5.355   7.532 -2.9054  2.3365 -0.6668
  896MOL0     H18262   8.136   5.276   7.572 -2.6480 -2.2908  0.3325
  896MOL0     H18263   8.112   5.367   7.418  2.8168  0.4111 -0.3079
  896MOL0     H18264   8.358   5.333   7.497 -2.2376  2.1422  0.5159
  896MOL0     H18265   8.347   5.163   7.439 -0.3828 -0.5567  0.0157
  896MOL0     H18266   8.296   5.403   7.247 -1.6749 -0.0510  0.9120
  896MOL0     H18267   8.301   5.238   7.207  0.0203  0.3635 -1.2935
  896MOL0     H18268   8.546   5.245   7.329 -0.0553  0.6316  0.7401
  896MOL0     H18269   8.524   5.310   7.169  1.8510 -2.7187  0.9542
  896MOL0     H18270   8.665   5.642   7.375  1.1584 -1.0729  0.1178
  896MOL0     H18271   7.942   4.951   7.413  0.6967 -0.3769  0.4772
  896MOL0     H18272   7.702   4.934   7.422 -1.6793  2.1116  0.1117
  897MOL0     O18273   7.111   5.777   1.130  0.0189  0.8825  0.3225
  897MOL0     C18274   7.137   5.677   1.200  0.9251  0.3502  0.4133
  897MOL0     O18275   7.079   5.650   1.319  0.1040  0.0730  0.0676
  897MOL0     C18276   6.975   5.722   1.368 -0.3073 -0.1390 -0.2821
  897MOL0     C18277   6.983   5.861   1.392  0.8424  0.8712  0.3917
  897MOL0     C18278   6.867   5.918   1.445  0.0205 -1.2131 -0.3437
  897MOL0     C18279   6.755   5.848   1.484 -0.2796 -0.0055 -0.3462
  897MOL0     O18280   6.641   5.912   1.533 -0.0200  0.1177  0.1126
  897MOL0     C18281   6.592   6.032   1.468 -0.2909 -0.3969  1.3385
  897MOL0     C18282   6.532   6.020   1.320 -0.2325 -0.8184 -0.5518
  897MOL0     C18283   6.441   5.896   1.297  0.9010  0.3007 -0.4426
  897MOL0     C18284   6.373   5.906   1.153 -0.5197 -0.6275 -1.0247
  897MOL0     C18285   6.291   5.785   1.130 -0.2499  0.0409  0.0037
  897MOL0     C18286   6.198   5.758   1.007 -0.4820  0.5163 -0.2553
  897MOL0     C18287   6.101   5.882   0.989  0.1377  1.0114 -0.5443
  897MOL0     C18288   6.046   5.902   0.849 -0.2036  0.4794  1.7113
  897MOL0     N18289   5.943   5.810   0.818  0.6244  0.0765 -0.8402
  897MOL0     C18290   5.834   5.805   0.895 -0.2619 -0.2660 -1.0965
  897MOL0     C18291   5.760   5.715   0.840  1.4079 -0.0006 -0.1107
  897MOL0     C18292   5.620   5.698   0.883 -0.3657  0.2836 -0.4738
  897MOL0     C18293   5.622   5.619   1.014  0.0025  0.6783  0.2747
  897MOL0     C18294   5.576   5.722   1.126 -0.8108  1.5883  0.0906
  897MOL0     C18295   5.551   5.672   1.275  0.7627  0.7108 -0.9789
  897MOL0     O18296   5.443   5.573   1.268 -0.1749 -0.5468 -0.3954
  897MOL0     C18297   5.312   5.624   1.266 -0.9147 -0.1051 -0.5940
  897MOL0     C18298   5.220   5.530   1.280 -0.4461  0.2279 -0.4552
  897MOL0     C18299   5.085   5.553   1.278 -0.1140 -0.4909 -0.1363
  897MOL0     C18300   5.038   5.690   1.272 -0.8444 -0.5148  0.0449
  897MOL0     C18301   4.890   5.725   1.274 -1.1967  0.4708 -0.3311
  897MOL0     O18302   4.862   5.859   1.259  0.3858 -0.1966 -1.0464
  897MOL0     C18303   4.741   5.903   1.208  1.0013  0.2997  0.2588
  897MOL0     C18304   4.621   5.836   1.177 -0.2587  0.1455 -0.1359
  897MOL0     C18305   4.519   5.902   1.106 -0.2250  0.4253  0.9679
  897MOL0     C18306   4.533   6.038   1.061  1.0532  0.1009  0.0728
  897MOL0     O18307   4.431   6.108   0.994 -0.7003 -0.1860 -0.3160
  897MOL0     C18308   4.463   6.231   0.933  0.5782  0.3508  0.6883
  897MOL0     C18309   4.362   6.274   0.830  0.6056 -0.2551  0.3170
  897MOL0     C18310   4.218   6.283   0.875  0.2866  0.7906 -0.4914
  897MOL0     C18311   4.139   6.315   0.755 -0.2315 -0.7725  0.4491
  897MOL0     C18312   3.993   6.309   0.775 -0.8066  0.1163  0.0388
  897MOL0     C18313   3.922   6.344   0.641 -0.2112 -0.1953 -0.1987
  897MOL0     C18314   3.925   6.498   0.608 -0.8567  0.8189 -0.3526
  897MOL0     C18315   3.867   6.516   0.458 -0.1472  0.2105  0.2049
  897MOL0    Cl18316   3.775   6.679   0.442  0.5504  0.0099 -0.0038
  897MOL0     C18317   4.649   6.105   1.113 -0.3239 -0.4688 -0.5467
  897MOL0     C18318   4.750   6.045   1.188 -0.0910  0.5727 -0.5161
  897MOL0     O18319   4.817   5.626   1.280  0.4121 -0.9166  0.0920
  897MOL0     C18320   5.139   5.794   1.274  0.5685 -1.1385 -0.1288
  897MOL0     C18321   5.275   5.758   1.276  0.8759  0.3897 -0.5327
  897MOL0     N18322   5.826   5.652   0.737  0.4434 -0.2257  0.1211
  897MOL0     N18323   5.937   5.716   0.720  0.6895 -0.0077 -0.0840
  897MOL0     C18324   6.752   5.709   1.465  1.2771  0.8864 -0.3979
  897MOL0     C18325   6.862   5.649   1.405 -0.6985 -0.1679 -0.6881
  897MOL0     C18326   7.239   5.582   1.146  0.4855  0.4182  0.7519
  897MOL0     C18327   7.234   5.443   1.182  0.9849 -1.4107  0.1256
  897MOL0     C18328   7.326   5.346   1.121 -0.3735  0.0071  0.2063
  897MOL0     C18329   7.397   5.389   1.015 -0.1787  0.6065  0.1166
  897MOL0     O18330   7.470   5.302   0.929 -0.3290 -0.2336  0.1290
  897MOL0     C18331   7.441   5.168   0.931 -0.4417  0.1100  0.3506
  897MOL0     C18332   7.550   5.090   0.858  0.0811 -0.1354 -0.2792
  897MOL0     C18333   7.521   4.939   0.866 -0.3775  0.6706  0.0659
  897MOL0     C18334   7.603   4.860   0.755  0.2245  0.0947 -0.2422
  897MOL0     C18335   7.581   4.713   0.760 -0.3278  0.3653 -1.0152
  897MOL0     C18336   7.548   4.595   0.746  0.3118  0.5448  1.0402
  897MOL0     C18337   7.397   5.517   0.973 -0.3643 -0.6640  0.3137
  897MOL0     C18338   7.324   5.614   1.039 -0.5389  0.5112 -0.6767
  897MOL0     H18339   7.070   5.911   1.351  1.8835 -0.9616  0.2599
  897MOL0     H18340   6.881   6.025   1.453  0.4473 -1.0275 -2.7321
  897MOL0     H18341   6.673   6.105   1.472  1.3690 -1.7161 -3.0729
  897MOL0     H18342   6.519   6.078   1.537  1.2814  0.8138  2.2656
  897MOL0     H18343   6.622   6.018   1.257  2.3986 -1.9702  2.9482
  897MOL0     H18344   6.475   6.111   1.296  0.1629 -1.0603 -2.5760
  897MOL0     H18345   6.375   5.869   1.380 -0.2070  0.5394 -1.2209
  897MOL0     H18346   6.503   5.806   1.299  1.0446  0.3792 -1.1290
  897MOL0     H18347   6.300   5.987   1.154  0.2352  0.1123  1.2987
  897MOL0     H18348   6.447   5.921   1.074  1.7354  0.0210  1.0734
  897MOL0     H18349   6.230   5.764   1.219  0.2758  2.2458  0.9458
  897MOL0     H18350   6.366   5.705   1.125  0.0135 -0.0491  3.2677
  897MOL0     H18351   6.151   5.661   1.027 -0.8622  0.7052 -0.2120
  897MOL0     H18352   6.249   5.744   0.912 -2.4900  1.2775 -1.5128
  897MOL0     H18353   6.018   5.889   1.060 -1.7237 -0.7104 -2.4220
  897MOL0     H18354   6.156   5.977   0.982 -1.1929  1.8864  0.3531
  897MOL0     H18355   6.120   5.887   0.769 -1.0076  1.1071  0.8301
  897MOL0     H18356   5.993   5.996   0.834 -1.3198 -0.1066  1.8973
  897MOL0     H18357   5.815   5.875   0.976 -0.2722 -2.3922  0.8416
  897MOL0     H18358   5.564   5.640   0.809 -2.2689  1.9914 -0.4776
  897MOL0     H18359   5.570   5.793   0.906  5.1497  3.5194 -0.1185
  897MOL0     H18360   5.714   5.562   1.027  1.7089  3.1250 -0.4164
  897MOL0     H18361   5.546   5.540   1.009  1.0476 -0.3800  0.6255
  897MOL0     H18362   5.655   5.797   1.120  1.4114 -0.6755 -1.1389
  897MOL0     H18363   5.480   5.756   1.085  0.1505  0.5489 -3.4013
  897MOL0     H18364   5.520   5.762   1.329 -2.7884 -0.8787 -0.0246
  897MOL0     H18365   5.636   5.631   1.329  0.5732  3.1614  1.4156
  897MOL0     H18366   5.264   5.432   1.270  1.7016  0.9282  1.3245
  897MOL0     H18367   5.021   5.466   1.283 -0.7675 -0.0711 -0.9288
  897MOL0     H18368   4.608   5.732   1.206  1.8142  0.1836  1.1055
  897MOL0     H18369   4.429   5.850   1.076 -1.8366  2.8452  1.3565
  897MOL0     H18370   4.561   6.229   0.885  0.1548 -2.2168 -0.1875
  897MOL0     H18371   4.459   6.313   1.006 -3.1393  0.6544  0.3260
  897MOL0     H18372   4.376   6.227   0.732  3.3217  1.3021 -0.1478
  897MOL0     H18373   4.387   6.380   0.818 -0.7742  0.0695  0.1414
  897MOL0     H18374   4.206   6.347   0.962 -1.9496  0.2018 -0.2982
  897MOL0     H18375   4.183   6.186   0.912  1.2996 -0.2006 -1.9836
  897MOL0     H18376   4.172   6.410   0.713 -1.2889 -0.8532 -0.6364
  897MOL0     H18377   4.163   6.239   0.679  1.6831 -0.3128  0.5491
  897MOL0     H18378   3.973   6.385   0.851 -2.9664 -1.4622  1.1585
  897MOL0     H18379   3.962   6.212   0.814 -1.0448  0.5769  1.0023
  897MOL0     H18380   3.818   6.333   0.673 -0.9136  2.9493 -1.1284
  897MOL0     H18381   3.962   6.286   0.557  1.4285 -0.1475  0.5076
  897MOL0     H18382   3.869   6.544   0.690  1.5582  1.4663  1.0431
  897MOL0     H18383   4.026   6.540   0.610 -1.2716  1.8617  1.5100
  897MOL0     H18384   3.808   6.426   0.438  1.9401 -0.7782 -1.9606
  897MOL0     H18385   3.944   6.531   0.382  0.3835 -0.8761  0.5075
  897MOL0     H18386   4.651   6.213   1.105 -0.8889 -0.2837  1.3426
  897MOL0     H18387   4.837   6.106   1.206  0.5180 -0.3315 -0.3445
  897MOL0     H18388   5.109   5.897   1.256 -2.3956 -2.0589 -0.9059
  897MOL0     H18389   5.340   5.845   1.274  0.4930  0.7107  0.6282
  897MOL0     H18390   6.667   5.648   1.494  0.4105  1.6826 -1.1494
  897MOL0     H18391   6.866   5.542   1.383  1.1431  0.1799 -2.3578
  897MOL0     H18392   7.168   5.412   1.262  2.2182 -3.4852  0.4145
  897MOL0     H18393   7.324   5.245   1.160 -0.7832  0.6230  1.8417
  897MOL0     H18394   7.342   5.152   0.888 -1.0946  0.5751  1.6450
  897MOL0     H18395   7.435   5.137   1.036 -2.5435  0.0025  0.2395
  897MOL0     H18396   7.549   5.113   0.751 -1.2076 -2.8852 -0.9476
  897MOL0     H18397   7.644   5.122   0.904 -0.8528  4.1799 -0.9800
  897MOL0     H18398   7.415   4.934   0.839 -0.8890  0.4455  1.9734
  897MOL0     H18399   7.546   4.893   0.962 -0.3400 -1.4353 -0.8999
  897MOL0     H18400   7.583   4.901   0.656  0.1939 -1.2208 -0.8119
  897MOL0     H18401   7.708   4.881   0.777 -0.9539  3.2410  3.5102
  897MOL0     H18402   7.526   4.491   0.740 -0.1609  0.7177 -0.9600
  897MOL0     H18403   7.460   5.535   0.886  3.1006 -2.3799  2.2695
  897MOL0     H18404   7.318   5.715   0.999  1.9270  1.8141  1.8840
  898MOL0     O18405   5.213   9.845   7.727  0.5301 -0.2633 -0.5337
  898MOL0     C18406   5.099   9.797   7.708 -0.0769 -0.3792 -0.1520
  898MOL0     O18407   4.998   9.860   7.638  0.5934 -0.1908  1.2387
  898MOL0     C18408   5.015   9.990   7.590  1.1588 -0.7014 -0.5650
  898MOL0     C18409   5.113  10.034   7.506 -0.2017 -1.0820 -0.5004
  898MOL0     C18410   5.105  10.171   7.457  0.3188 -0.1491  0.1388
  898MOL0     C18411   5.003  10.259   7.504 -0.0125  1.0627 -0.9010
  898MOL0     O18412   4.990  10.394   7.472  0.3015 -0.2653 -1.2900
  898MOL0     C18413   5.097  10.460   7.410  0.5895 -0.0668  1.1046
  898MOL0     C18414   5.038  10.609   7.396 -0.4070 -0.1349  0.3983
  898MOL0     C18415   5.004  10.686   7.529  0.1250 -1.1421  0.8002
  898MOL0     C18416   4.877  10.658   7.622 -0.5487 -1.4812 -0.2925
  898MOL0     C18417   4.872  10.752   7.744  0.4213  0.1992  0.4612
  898MOL0     C18418   4.839  10.900   7.707 -1.3132  0.5516  0.6338
  898MOL0     C18419   4.861  10.991   7.827 -0.1885 -0.7594  0.5104
  898MOL0     C18420   4.802  11.134   7.806 -0.6441  0.6649 -0.3400
  898MOL0     N18421   4.661  11.142   7.833 -0.2567 -0.1877 -0.9289
  898MOL0     C18422   4.607  11.109   7.960 -0.4292 -0.2986 -0.9297
  898MOL0     C18423   4.474  11.121   7.944 -0.5161 -0.5282 -0.7316
  898MOL0     C18424   4.371  11.128   8.044  0.5744 -0.3474  0.4711
  898MOL0     C18425   4.238  11.187   8.000  0.4167  0.3176 -0.2437
  898MOL0     C18426   4.132  11.187   8.110 -0.8312 -0.4135 -0.3945
  898MOL0     C18427   3.997  11.223   8.045  0.6307 -0.0943 -0.7022
  898MOL0     O18428   3.902  11.236   8.156 -0.2755 -0.0489 -0.2324
  898MOL0     C18429   3.778  11.292   8.137 -0.8147 -0.5527 -0.0344
  898MOL0     C18430   3.717  11.350   8.021 -0.5301  0.5997 -0.0631
  898MOL0     C18431   3.586  11.385   8.026  1.1523 -0.8576 -0.1423
  898MOL0     C18432   3.511  11.388   8.151  0.3003 -0.2843  0.4919
  898MOL0     C18433   3.368  11.432   8.154  0.1109  0.3961 -0.4815
  898MOL0     O18434   3.308  11.492   8.052  0.5093 -0.0742  0.1478
  898MOL0     C18435   3.180  11.537   8.051 -0.7719 -0.4271  0.6777
  898MOL0     C18436   3.110  11.608   8.154 -0.0347 -0.4244 -0.1317
  898MOL0     C18437   2.979  11.656   8.133  0.4008  0.2353 -0.4908
  898MOL0     C18438   2.917  11.643   8.011 -0.3926 -0.4798 -0.0223
  898MOL0     O18439   2.791  11.698   8.004 -0.1742  0.5948 -0.7601
  898MOL0     C18440   2.706  11.604   7.936  0.9038  0.5017  0.3048
  898MOL0     C18441   2.564  11.657   7.939  0.0174  0.4819 -0.3312
  898MOL0     C18442   2.458  11.548   7.898 -0.3073  0.0902 -0.5522
  898MOL0     C18443   2.438  11.558   7.742  1.1131  0.2249  0.5107
  898MOL0     C18444   2.336  11.463   7.685  0.1316 -0.3632 -0.4009
  898MOL0     C18445   2.186  11.463   7.741 -0.7445 -0.4447  0.7288
  898MOL0     C18446   2.118  11.603   7.725 -0.5015  0.3802  0.1087
  898MOL0     C18447   1.968  11.580   7.744 -0.1183 -0.0337  0.5926
  898MOL0    Cl18448   1.884  11.736   7.698 -0.1646 -0.1405  0.5348
  898MOL0     C18449   2.978  11.572   7.915  0.3932  0.6083  0.3449
  898MOL0     C18450   3.111  11.529   7.932  0.8181  0.2065 -1.0545
  898MOL0     O18451   3.309  11.391   8.252  0.1182 -0.6496 -0.8922
  898MOL0     C18452   3.567  11.329   8.265 -0.2855 -0.6410  0.3469
  898MOL0     C18453   3.698  11.283   8.255 -0.2210 -0.6019 -0.5551
  898MOL0     N18454   4.453  11.154   7.812 -0.8982 -0.6731 -0.0190
  898MOL0     N18455   4.561  11.168   7.750 -0.1592 -0.2114 -0.0985
  898MOL0     C18456   4.913  10.213   7.596  0.1508  1.2800 -0.5344
  898MOL0     C18457   4.917  10.080   7.635 -0.4282  0.4289  0.1356
  898MOL0     C18458   5.061   9.671   7.769 -0.5487 -0.1627 -1.0787
  898MOL0     C18459   5.158   9.578   7.814 -0.1949  0.3038 -1.2285
  898MOL0     C18460   5.120   9.460   7.879 -0.5900 -0.2141  0.1424
  898MOL0     C18461   4.980   9.431   7.910 -1.0223 -0.1507 -0.5821
  898MOL0     O18462   4.937   9.321   7.971  0.5045 -0.5070  0.5669
  898MOL0     C18463   5.038   9.220   8.006  0.4729 -0.1445  0.8083
  898MOL0     C18464   4.965   9.085   8.048 -0.2760  0.4710  0.3907
  898MOL0     C18465   4.867   9.037   7.942 -0.2276  0.5793  0.0591
  898MOL0     C18466   4.892   8.892   7.911 -0.1622  0.8347 -0.0789
  898MOL0     C18467   4.874   8.799   8.020  0.6315 -0.4352 -0.2986
  898MOL0     C18468   4.862   8.710   8.102 -1.1878 -0.8572 -0.1949
  898MOL0     C18469   4.892   9.532   7.885 -0.6371 -0.1183  0.4475
  898MOL0     C18470   4.928   9.651   7.807  0.2108  0.2711 -0.0697
  898MOL0     H18471   5.198   9.972   7.482  1.5476  0.7408  0.6895
  898MOL0     H18472   5.174  10.206   7.381  1.2360  2.3096  1.9455
  898MOL0     H18473   5.103  10.418   7.309 -1.2890 -2.2000  1.8023
  898MOL0     H18474   5.187  10.458   7.472  2.4430  3.0390 -1.1969
  898MOL0     H18475   4.948  10.585   7.339 -0.5216  0.5274  0.2865
  898MOL0     H18476   5.106  10.666   7.332  1.0676 -0.5783  1.5010
  898MOL0     H18477   5.004  10.792   7.502  1.8048 -1.4038 -0.4354
  898MOL0     H18478   5.103  10.672   7.574  0.8014  3.4319  1.2478
  898MOL0     H18479   4.784  10.671   7.566 -0.3651  1.1529 -0.1448
  898MOL0     H18480   4.882  10.559   7.669  3.5552 -1.2272  0.2318
  898MOL0     H18481   4.963  10.736   7.802  1.1672  0.5775 -0.5806
  898MOL0     H18482   4.792  10.713   7.807  2.7250 -2.3012  2.0952
  898MOL0     H18483   4.736  10.893   7.673 -0.4551 -4.1486 -1.8493
  898MOL0     H18484   4.908  10.929   7.627  2.0125 -1.5646  2.5132
  898MOL0     H18485   4.809  10.955   7.916 -2.3095 -0.6809 -0.6482
  898MOL0     H18486   4.968  10.997   7.850  0.0487 -0.1745 -0.6317
  898MOL0     H18487   4.825  11.144   7.700  0.0385 -0.9204 -0.3744
  898MOL0     H18488   4.860  11.200   7.871 -0.8419  0.7206 -0.2175
  898MOL0     H18489   4.666  11.110   8.052  1.1060 -0.9732 -1.8589
  898MOL0     H18490   4.408  11.190   8.126  0.4151  0.1595  0.1684
  898MOL0     H18491   4.352  11.029   8.087 -0.8064 -1.9805 -3.4479
  898MOL0     H18492   4.197  11.138   7.912  4.3246  2.8643 -3.9108
  898MOL0     H18493   4.253  11.285   7.954  4.5193 -0.1501 -0.3175
  898MOL0     H18494   4.133  11.093   8.166 -1.3279  0.8017  1.7472
  898MOL0     H18495   4.152  11.264   8.185  3.0982 -2.9553  1.4723
  898MOL0     H18496   3.959  11.146   7.977  0.4840 -1.3847  0.7851
  898MOL0     H18497   3.988  11.314   7.985 -1.3362  2.7423  3.3905
  898MOL0     H18498   3.778  11.354   7.931  0.5170  0.4994  0.6269
  898MOL0     H18499   3.542  11.426   7.936  1.9388 -1.7589 -0.9484
  898MOL0     H18500   3.157  11.621   8.251  0.8522  2.5189 -0.8312
  898MOL0     H18501   2.923  11.696   8.217  0.7571 -0.1645 -0.0593
  898MOL0     H18502   2.703  11.510   7.992  2.4458 -0.4230 -1.0812
  898MOL0     H18503   2.729  11.598   7.830  0.0550 -0.3018  0.1472
  898MOL0     H18504   2.544  11.750   7.885 -1.6345  0.0478 -0.5021
  898MOL0     H18505   2.541  11.673   8.045  3.6354  0.6205  0.5773
  898MOL0     H18506   2.366  11.571   7.953  0.2537  0.7789  0.1084
  898MOL0     H18507   2.491  11.444   7.912 -4.0248 -1.3190 -0.9837
  898MOL0     H18508   2.398  11.658   7.722 -0.8202 -0.7377 -0.7305
  898MOL0     H18509   2.536  11.553   7.694  1.4586 -2.4272  1.3467
  898MOL0     H18510   2.381  11.364   7.703  0.8029  0.1289  0.7076
  898MOL0     H18511   2.334  11.476   7.576  1.2208 -4.7379 -1.1602
  898MOL0     H18512   2.183  11.430   7.845  2.0683 -2.0982  0.4040
  898MOL0     H18513   2.142  11.384   7.681 -1.7898 -1.8375  3.1844
  898MOL0     H18514   2.152  11.679   7.796  2.0624 -0.2693 -0.3206
  898MOL0     H18515   2.140  11.653   7.630 -3.7440 -1.9659 -2.1091
  898MOL0     H18516   1.945  11.560   7.849  0.7088  0.5711  0.8997
  898MOL0     H18517   1.936  11.487   7.696 -2.3739  0.9917  0.0025
  898MOL0     H18518   2.921  11.566   7.823 -0.4425 -2.2206  0.9539
  898MOL0     H18519   3.147  11.500   7.834 -2.6768  0.1627 -2.4981
  898MOL0     H18520   3.515  11.322   8.360 -0.8983  0.0421  0.0687
  898MOL0     H18521   3.743  11.229   8.338  1.7036  3.0058  1.0183
  898MOL0     H18522   4.856  10.292   7.642 -0.1002  2.6236 -2.9636
  898MOL0     H18523   4.839  10.028   7.689  1.4167 -0.6305  1.9393
  898MOL0     H18524   5.262   9.605   7.797  0.4142 -1.6531 -0.8700
  898MOL0     H18525   5.201   9.392   7.899 -0.6757  0.0345  1.3889
  898MOL0     H18526   5.101   9.247   8.091 -0.6244 -1.7981  2.2305
  898MOL0     H18527   5.114   9.199   7.929 -1.2582  1.0483 -1.3261
  898MOL0     H18528   5.034   9.004   8.073 -0.9582 -0.5102 -0.8224
  898MOL0     H18529   4.911   9.106   8.141  0.1074 -1.7896  1.1918
  898MOL0     H18530   4.872   9.093   7.848 -0.1030 -0.6440 -0.6825
  898MOL0     H18531   4.761   9.053   7.964 -1.3587 -1.4100 -3.3260
  898MOL0     H18532   4.824   8.862   7.830 -1.0446  0.1232  0.8989
  898MOL0     H18533   4.992   8.867   7.875 -0.6119 -0.9005 -0.2291
  898MOL0     H18534   4.851   8.641   8.183 -3.7185 -0.6307 -0.2600
  898MOL0     H18535   4.788   9.511   7.906 -0.6637  1.5264  2.2789
  898MOL0     H18536   4.852   9.729   7.813  1.0578  1.2122 -1.2250
  899MOL0     O18537   1.385   3.512  10.876  0.6308 -0.1546  0.2964
  899MOL0     C18538   1.472   3.457  10.806 -0.1374  0.8379  0.0765
  899MOL0     O18539   1.461   3.429  10.674  0.5185  0.5200  0.0148
  899MOL0     C18540   1.340   3.457  10.600 -0.7480  1.2726 -0.6790
  899MOL0     C18541   1.309   3.575  10.524  0.1077  0.6065 -0.0424
  899MOL0     C18542   1.197   3.572  10.440  0.6649 -0.1773  0.4082
  899MOL0     C18543   1.107   3.467  10.443 -0.6076  0.0808  0.7619
  899MOL0     O18544   1.018   3.432  10.340 -1.0705 -0.3265 -0.9296
  899MOL0     C18545   0.925   3.534  10.296 -0.0665  1.2860  0.3474
  899MOL0     C18546   0.861   3.607  10.425 -0.4173  0.1472  0.2873
  899MOL0     C18547   0.732   3.666  10.384  0.2064 -0.6113 -0.2878
  899MOL0     C18548   0.658   3.714  10.516  0.7627 -0.2241 -0.4801
  899MOL0     C18549   0.591   3.850  10.501 -0.3995  0.8790 -1.1233
  899MOL0     C18550   0.494   3.889  10.609 -0.0486 -0.5780 -0.6575
  899MOL0     C18551   0.366   3.806  10.598 -0.2499  0.5555  0.2765
  899MOL0     C18552   0.262   3.853  10.696 -0.5014 -1.1914 -0.3601
  899MOL0     N18553   0.137   3.770  10.695 -0.3355  0.4447  0.5106
  899MOL0     C18554   0.098   3.671  10.782  0.1224 -0.1832 -1.3324
  899MOL0     C18555  -0.030   3.645  10.741  0.8034  0.4374  0.0267
  899MOL0     C18556  -0.119   3.543  10.810  0.0864  0.2515 -0.6293
  899MOL0     C18557  -0.056   3.402  10.805  0.0432 -0.3406  0.2897
  899MOL0     C18558  -0.153   3.292  10.877  0.2841 -0.1615  0.9388
  899MOL0     C18559  -0.102   3.151  10.868 -0.0243  1.2131  0.7343
  899MOL0     O18560   0.039   3.146  10.844 -0.0348 -0.4796  0.4181
  899MOL0     C18561   0.110   3.053  10.918 -0.8924 -0.0507 -0.3397
  899MOL0     C18562   0.116   3.056  11.060 -0.4151  0.2987  0.6095
  899MOL0     C18563   0.200   2.954  11.120  0.1643  0.4781 -0.2397
  899MOL0     C18564   0.265   2.856  11.041 -0.5255 -0.6713  0.3501
  899MOL0     C18565   0.353   2.770  11.127  0.0981 -0.1466 -0.9974
  899MOL0     O18566   0.342   2.773  11.261 -0.5453  0.5639  0.0120
  899MOL0     C18567   0.420   2.705  11.345 -0.7116  0.1119  0.6643
  899MOL0     C18568   0.459   2.568  11.331 -1.0813  0.4166  0.2692
  899MOL0     C18569   0.562   2.511  11.416  0.0481 -0.2704  0.0319
  899MOL0     C18570   0.601   2.586  11.524  0.5118 -0.1301  0.4600
  899MOL0     O18571   0.688   2.536  11.621 -0.0104  0.2062 -0.4006
  899MOL0     C18572   0.798   2.461  11.571 -0.6686  0.6374  0.6313
  899MOL0     C18573   0.908   2.441  11.674  0.3428  0.3564  0.9946
  899MOL0     C18574   0.996   2.568  11.684 -0.2827  0.2526 -0.4041
  899MOL0     C18575   1.120   2.532  11.769  0.2763  0.8468  0.4453
  899MOL0     C18576   1.225   2.456  11.680 -0.0755  0.1759 -0.1999
  899MOL0     C18577   1.347   2.417  11.754  0.7114  0.3985 -0.0567
  899MOL0     C18578   1.462   2.354  11.668  0.6923  0.1569  0.2539
  899MOL0     C18579   1.600   2.333  11.728  0.0991  1.0116  0.2269
  899MOL0    Cl18580   1.715   2.226  11.621 -0.0970  0.6339  0.5031
  899MOL0     C18581   0.557   2.716  11.546 -0.1048  0.6863  0.0504
  899MOL0     C18582   0.466   2.772  11.457 -0.2038  0.5096  0.4431
  899MOL0     O18583   0.450   2.712  11.071  0.3143  0.1512  0.4566
  899MOL0     C18584   0.264   2.865  10.901  0.6792  0.1000 -1.2589
  899MOL0     C18585   0.190   2.970  10.850 -0.0833 -0.5913 -0.1488
  899MOL0     N18586  -0.067   3.722  10.632  0.3299 -0.0501 -0.3159
  899MOL0     N18587   0.030   3.800  10.610 -0.5179 -0.2683  0.4490
  899MOL0     C18588   1.129   3.355  10.526 -0.2150  0.7452 -0.2996
  899MOL0     C18589   1.245   3.347  10.604 -0.2853  0.6550  0.0924
  899MOL0     C18590   1.600   3.430  10.865  0.1977 -0.4989  1.1736
  899MOL0     C18591   1.679   3.326  10.806 -0.4047  0.3660 -0.2529
  899MOL0     C18592   1.799   3.288  10.868  0.5353 -0.8390  0.3062
  899MOL0     C18593   1.839   3.359  10.990 -0.0342  0.0584 -0.1947
  899MOL0     O18594   1.958   3.331  11.050  0.8959 -0.3221  0.2088
  899MOL0     C18595   1.964   3.343  11.192 -0.5517 -0.9328 -0.1397
  899MOL0     C18596   2.069   3.446  11.227 -0.9984  0.1968  0.6265
  899MOL0     C18597   2.209   3.389  11.173  0.0146 -0.2050  0.7317
  899MOL0     C18598   2.313   3.487  11.235  1.1504 -0.6071 -0.0995
  899MOL0     C18599   2.450   3.453  11.188 -0.9153 -2.1633 -0.5729
  899MOL0     C18600   2.572   3.422  11.181 -0.1427  0.0555 -0.5126
  899MOL0     C18601   1.751   3.454  11.045 -0.7081 -0.2452  0.2342
  899MOL0     C18602   1.641   3.498  10.976  0.4246  0.1796 -0.1377
  899MOL0     H18603   1.388   3.649  10.528  0.9823 -0.2785 -0.7126
  899MOL0     H18604   1.192   3.648  10.363  0.4765  1.5011  2.0153
  899MOL0     H18605   0.851   3.493  10.226  0.6289  2.1109 -0.9106
  899MOL0     H18606   0.966   3.603  10.222 -2.1621  2.0851 -0.1616
  899MOL0     H18607   0.923   3.689  10.462  0.8790 -2.2052  3.8171
  899MOL0     H18608   0.842   3.535  10.505 -1.2034 -0.6225 -0.5606
  899MOL0     H18609   0.674   3.584  10.340 -0.3558 -0.7604  0.7095
  899MOL0     H18610   0.741   3.744  10.307  0.0572  0.0902  0.3985
  899MOL0     H18611   0.578   3.643  10.539 -0.6153  1.3383 -0.2860
  899MOL0     H18612   0.719   3.723  10.606 -1.2131 -0.9121  0.9796
  899MOL0     H18613   0.542   3.863  10.404 -4.0404 -1.2236  0.2265
  899MOL0     H18614   0.678   3.916  10.507 -0.4181  0.8121  2.9795
  899MOL0     H18615   0.475   3.997  10.604  2.8477  0.2942  3.0007
  899MOL0     H18616   0.526   3.877  10.712 -3.4205 -0.8587  0.4717
  899MOL0     H18617   0.334   3.815  10.493 -0.6360  1.6418  0.4754
  899MOL0     H18618   0.390   3.701  10.616  0.0171  1.0493  3.1392
  899MOL0     H18619   0.239   3.958  10.677  0.5495 -1.4620 -3.9068
  899MOL0     H18620   0.302   3.844  10.798  0.6937  1.6491 -0.4900
  899MOL0     H18621   0.135   3.622  10.872 -1.0692 -4.6483 -3.0302
  899MOL0     H18622  -0.213   3.539  10.754 -0.2158 -0.0505 -0.1001
  899MOL0     H18623  -0.132   3.585  10.910 -0.3433 -0.3260 -0.4431
  899MOL0     H18624   0.035   3.398  10.866 -1.6184 -1.0183  2.9195
  899MOL0     H18625  -0.041   3.374  10.701 -0.2215  0.0886  0.1356
  899MOL0     H18626  -0.174   3.307  10.983  0.0290  0.1348  0.8488
  899MOL0     H18627  -0.251   3.296  10.828  1.1382 -3.1233 -1.2822
  899MOL0     H18628  -0.142   3.099  10.781 -1.8608  1.3032  1.4916
  899MOL0     H18629  -0.136   3.090  10.952 -1.1882  0.1046 -0.4952
  899MOL0     H18630   0.057   3.124  11.121 -3.5922 -1.7395  0.0493
  899MOL0     H18631   0.178   2.960  11.227 -0.3206  2.4310 -0.4132
  899MOL0     H18632   0.419   2.517  11.244  2.4256  1.7302 -2.3393
  899MOL0     H18633   0.593   2.408  11.405 -2.4549 -1.5919  3.6761
  899MOL0     H18634   0.844   2.507  11.484 -1.6574  0.1460 -0.1730
  899MOL0     H18635   0.764   2.365  11.530  5.0317 -0.8545 -1.5513
  899MOL0     H18636   0.965   2.353  11.642 -2.4215 -2.3717  3.0414
  899MOL0     H18637   0.871   2.407  11.771 -0.4832  0.3270  0.6769
  899MOL0     H18638   0.938   2.646  11.736 -1.2089 -2.1040  2.3810
  899MOL0     H18639   1.026   2.591  11.582 -1.1336  1.4081 -0.4160
  899MOL0     H18640   1.172   2.618  11.812 -2.1827  1.1573  3.0671
  899MOL0     H18641   1.088   2.478  11.858  0.8860 -0.8180 -0.2878
  899MOL0     H18642   1.247   2.527  11.599  0.6004 -0.0609 -0.2293
  899MOL0     H18643   1.178   2.364  11.645  2.1306 -1.8262  1.7585
  899MOL0     H18644   1.323   2.352  11.838  1.0318 -2.5278 -2.0610
  899MOL0     H18645   1.403   2.499  11.800  1.8567 -0.1800 -0.3650
  899MOL0     H18646   1.413   2.262  11.635  0.0633  0.8937 -0.9815
  899MOL0     H18647   1.475   2.406  11.572  0.2950 -2.1237 -1.1088
  899MOL0     H18648   1.594   2.299  11.832 -2.2343 -2.6120 -0.9414
  899MOL0     H18649   1.650   2.431  11.726 -0.4041  1.2741  0.5225
  899MOL0     H18650   0.591   2.757  11.640 -0.6455  1.3358 -0.0275
  899MOL0     H18651   0.423   2.871  11.455  1.2396  1.1356 -0.5826
  899MOL0     H18652   0.324   2.794  10.844  4.4369  2.5223 -0.6565
  899MOL0     H18653   0.184   2.974  10.741  1.3769  1.0889 -0.2179
  899MOL0     H18654   1.067   3.266  10.535  0.7536  0.1446  0.7329
  899MOL0     H18655   1.240   3.254  10.661 -0.1180  2.3105  3.0241
  899MOL0     H18656   1.642   3.253  10.735 -0.2772 -1.3927  1.4203
  899MOL0     H18657   1.859   3.206  10.831  3.0294  0.5833  1.0148
  899MOL0     H18658   1.996   3.247  11.234 -0.6166 -0.7730  0.2776
  899MOL0     H18659   1.865   3.366  11.234 -1.5620 -0.6543 -2.5013
  899MOL0     H18660   2.046   3.539  11.176  3.4601  0.5077 -1.2532
  899MOL0     H18661   2.067   3.461  11.335  0.2045 -2.1649  1.0470
  899MOL0     H18662   2.207   3.386  11.064  1.7194 -1.3029  0.6931
  899MOL0     H18663   2.228   3.284  11.200  1.5098 -0.3779 -0.7998
  899MOL0     H18664   2.281   3.591  11.230  0.1208 -0.9001  0.1527
  899MOL0     H18665   2.308   3.472  11.343 -2.7603 -0.7834 -0.1888
  899MOL0     H18666   2.672   3.386  11.173  0.5962  1.6692  0.8284
  899MOL0     H18667   1.780   3.518  11.128 -2.1420 -1.6025  1.8528
  899MOL0     H18668   1.569   3.565  11.022 -2.2657 -2.9914  0.7368
  900MOL0     O18669  11.163   3.353   4.554 -0.5216  0.3013 -0.9133
  900MOL0     C18670  11.059   3.300   4.541 -1.0825  0.4697 -0.4631
  900MOL0     O18671  10.994   3.298   4.419  0.2572  0.2684 -0.3056
  900MOL0     C18672  11.077   3.293   4.306 -0.3684 -0.8722  0.0733
  900MOL0     C18673  11.034   3.351   4.180  0.0128 -0.1622  0.0600
  900MOL0     C18674  11.109   3.343   4.066 -0.6991 -1.2719 -0.6522
  900MOL0     C18675  11.237   3.300   4.077  0.1867 -0.4053  0.9188
  900MOL0     O18676  11.324   3.307   3.974  0.0645  0.4522 -0.1444
  900MOL0     C18677  11.311   3.195   3.882  0.1930 -0.0146 -1.4463
  900MOL0     C18678  11.219   3.233   3.769 -0.3943 -0.4292  0.1550
  900MOL0     C18679  11.265   3.360   3.688  0.8968 -0.0890 -0.7718
  900MOL0     C18680  11.414   3.372   3.668 -0.2066  0.6095 -0.0494
  900MOL0     C18681  11.456   3.471   3.558  0.5902 -0.4854  0.2355
  900MOL0     C18682  11.604   3.487   3.550 -0.2819  0.2610 -0.0513
  900MOL0     C18683  11.668   3.576   3.437  0.3216 -0.3631  0.5308
  900MOL0     C18684  11.819   3.555   3.459 -0.2061 -0.4637 -0.8628
  900MOL0     N18685  11.898   3.646   3.374  0.4550 -0.4880  0.1152
  900MOL0     C18686  11.892   3.782   3.378 -0.0838 -0.2874 -0.1491
  900MOL0     C18687  11.972   3.816   3.277 -0.6677  0.3266 -0.6850
  900MOL0     C18688  12.007   3.965   3.252 -0.6898  0.5203  1.2692
  900MOL0     C18689  12.053   4.000   3.110 -0.6441  0.2669 -0.1627
  900MOL0     C18690  12.212   3.990   3.109  0.0629 -0.0005  0.0035
  900MOL0     C18691  12.263   4.001   2.965 -0.1542  0.4189 -1.1222
  900MOL0     O18692  12.411   4.008   2.976 -0.3541  1.0167 -0.5630
  900MOL0     C18693  12.479   3.936   2.885 -0.9422 -0.6352  0.7591
  900MOL0     C18694  12.583   3.995   2.816 -1.1325 -0.0103 -1.2134
  900MOL0     C18695  12.656   3.939   2.715  0.3897 -0.5840 -0.2905
  900MOL0     C18696  12.606   3.820   2.655 -0.8439 -0.7158 -0.8092
  900MOL0     C18697  12.661   3.772   2.524 -0.1580  0.0909 -0.1762
  900MOL0     O18698  12.703   3.863   2.429 -1.6428 -0.5274 -0.0873
  900MOL0     C18699  12.761   3.818   2.315 -0.7869  0.6900 -0.2855
  900MOL0     C18700  12.901   3.845   2.298  0.1937 -0.4366 -0.2405
  900MOL0     C18701  12.958   3.788   2.184 -0.3822  0.0074  0.1161
  900MOL0     C18702  12.885   3.733   2.080 -0.3902  0.2534 -0.8052
  900MOL0     O18703  12.951   3.705   1.968 -0.1337  0.1533 -1.1244
  900MOL0     C18704  12.895   3.614   1.875 -0.7197  1.0016  0.0515
  900MOL0     C18705  12.979   3.482   1.865  0.1150  0.3012  0.2646
  900MOL0     C18706  13.125   3.505   1.826 -0.3072  0.2368 -0.4155
  900MOL0     C18707  13.204   3.373   1.835  0.2361  0.4881  1.0657
  900MOL0     C18708  13.315   3.374   1.941  0.1382 -0.6963 -0.1608
  900MOL0     C18709  13.460   3.337   1.897  0.3498 -0.3112 -0.7258
  900MOL0     C18710  13.469   3.191   1.855  0.6140 -0.4241  0.6753
  900MOL0     C18711  13.616   3.168   1.804 -0.1541  1.2241  0.2338
  900MOL0    Cl18712  13.750   3.194   1.918  0.5257  0.3027  0.3311
  900MOL0     C18713  12.745   3.721   2.095 -0.1334  0.1556 -0.1018
  900MOL0     C18714  12.684   3.759   2.216 -0.9893 -0.2105  0.1469
  900MOL0     O18715  12.675   3.646   2.514  0.6020 -0.3001  0.0279
  900MOL0     C18716  12.502   3.756   2.724  0.9216 -0.0671 -0.5673
  900MOL0     C18717  12.452   3.808   2.845 -0.0989  0.0145  0.2211
  900MOL0     N18718  12.034   3.703   3.222 -0.1510 -0.3279 -0.8152
  900MOL0     N18719  11.987   3.602   3.282 -0.0522  0.3246 -0.6178
  900MOL0     C18720  11.282   3.241   4.194  0.0754 -0.5303  0.7444
  900MOL0     C18721  11.200   3.230   4.302 -0.0595  0.5504  0.4122
  900MOL0     C18722  10.985   3.240   4.654 -0.0334 -0.2787 -0.4107
  900MOL0     C18723  11.047   3.245   4.784  0.3654 -0.2433  0.5057
  900MOL0     C18724  10.989   3.203   4.902 -0.4043 -0.0797 -0.3620
  900MOL0     C18725  10.863   3.146   4.900 -0.2475 -0.4661  0.2176
  900MOL0     O18726  10.806   3.112   5.023  0.4181  0.3216  0.1088
  900MOL0     C18727  10.677   3.060   5.026  0.0380 -0.3608 -0.0888
  900MOL0     C18728  10.665   2.910   5.003  0.5309  0.1500 -0.3178
  900MOL0     C18729  10.779   2.833   5.066 -0.2742  0.2259 -0.0829
  900MOL0     C18730  10.756   2.793   5.215  0.0246  0.0818 -0.2731
  900MOL0     C18731  10.794   2.898   5.302 -0.5086  0.2607  0.3514
  900MOL0     C18732  10.844   2.978   5.376 -0.5849  0.1635 -0.5424
  900MOL0     C18733  10.801   3.133   4.773  0.0909  0.4028  0.3761
  900MOL0     C18734  10.853   3.185   4.657  0.1925 -0.4372  0.3770
  900MOL0     H18735  10.933   3.389   4.162  0.8216  1.0445 -2.4505
  900MOL0     H18736  11.080   3.408   3.984  0.3461 -0.9825 -0.8098
  900MOL0     H18737  11.288   3.105   3.940  3.2443  1.2831  2.1064
  900MOL0     H18738  11.410   3.174   3.841  0.3319  0.0990 -1.1655
  900MOL0     H18739  11.118   3.254   3.806  1.0810  2.4321  3.0832
  900MOL0     H18740  11.216   3.149   3.699  1.9155  1.4825 -2.4740
  900MOL0     H18741  11.223   3.451   3.732 -3.2955 -0.1907 -3.8688
  900MOL0     H18742  11.214   3.341   3.592  1.2274 -2.9942 -0.4688
  900MOL0     H18743  11.447   3.401   3.768 -0.7304  0.1775  0.2502
  900MOL0     H18744  11.463   3.278   3.643  0.9867  1.0852  0.4213
  900MOL0     H18745  11.426   3.566   3.604  2.4945 -0.8972  2.5317
  900MOL0     H18746  11.417   3.441   3.461 -0.8559 -2.8299  1.4675
  900MOL0     H18747  11.643   3.389   3.521  0.3924  0.0740  1.4054
  900MOL0     H18748  11.648   3.513   3.647 -0.0954 -1.4406  0.3464
  900MOL0     H18749  11.650   3.542   3.335  1.8036  0.4132 -0.0297
  900MOL0     H18750  11.644   3.680   3.462  2.2584  0.0409  0.9307
  900MOL0     H18751  11.835   3.449   3.435 -1.9024 -1.5320  2.2062
  900MOL0     H18752  11.831   3.574   3.566  2.5855 -1.3350 -0.9494
  900MOL0     H18753  11.844   3.847   3.450 -0.5240 -0.0323 -0.6608
  900MOL0     H18754  12.082   4.002   3.323 -0.0280 -0.9387  1.3687
  900MOL0     H18755  11.917   4.024   3.272 -1.0804  1.0457 -1.5881
  900MOL0     H18756  12.018   4.103   3.094  1.6524  0.8311 -2.1731
  900MOL0     H18757  11.999   3.936   3.040 -1.9843  0.5492  0.5940
  900MOL0     H18758  12.249   4.065   3.179 -0.6996  0.0159  0.3973
  900MOL0     H18759  12.249   3.891   3.136 -3.2544 -1.7643 -1.3010
  900MOL0     H18760  12.244   4.094   2.911 -1.9197  0.4929 -0.4235
  900MOL0     H18761  12.233   3.914   2.907 -0.4062  1.0310 -1.9277
  900MOL0     H18762  12.606   4.094   2.855 -1.8506 -1.0845  2.3610
  900MOL0     H18763  12.725   4.002   2.660 -2.1263  2.7904  0.1502
  900MOL0     H18764  12.964   3.897   2.369  1.5750  1.5404 -2.7462
  900MOL0     H18765  13.065   3.793   2.164 -0.6968  1.4897 -1.3689
  900MOL0     H18766  12.910   3.669   1.781 -0.3115  1.4057  0.3443
  900MOL0     H18767  12.788   3.605   1.894 -1.0245  3.6811  0.0509
  900MOL0     H18768  12.922   3.412   1.803 -0.3849 -2.9103  3.9293
  900MOL0     H18769  12.990   3.431   1.962  2.6147  1.2833  0.5517
  900MOL0     H18770  13.167   3.583   1.890 -2.4379  0.0870  1.2973
  900MOL0     H18771  13.126   3.550   1.726  0.0100  0.4364 -0.3245
  900MOL0     H18772  13.138   3.288   1.853  0.5529 -0.1557 -0.6612
  900MOL0     H18773  13.241   3.356   1.734 -2.2648 -1.0920  0.3250
  900MOL0     H18774  13.280   3.325   2.032 -1.1437  2.0308  0.9083
  900MOL0     H18775  13.328   3.480   1.962 -3.1285  0.1188 -1.6146
  900MOL0     H18776  13.526   3.340   1.984  0.9576 -2.0346 -1.0899
  900MOL0     H18777  13.492   3.405   1.817  0.2340  0.4627 -0.1215
  900MOL0     H18778  13.439   3.129   1.939  2.6878 -1.6792  0.5602
  900MOL0     H18779  13.403   3.182   1.768  1.4612 -2.7766  0.1870
  900MOL0     H18780  13.639   3.220   1.710 -1.7046 -0.2311 -1.0322
  900MOL0     H18781  13.633   3.060   1.791  2.1649  1.3760  1.4810
  900MOL0     H18782  12.678   3.689   2.016  2.3584  0.1666 -2.4014
  900MOL0     H18783  12.576   3.744   2.214 -1.2396  1.4537 -0.0335
  900MOL0     H18784  12.468   3.660   2.687  0.5165 -0.4949  0.8542
  900MOL0     H18785  12.378   3.751   2.901  0.3412 -0.4102  0.3728
  900MOL0     H18786  11.380   3.195   4.200 -0.3624 -1.3708  1.7006
  900MOL0     H18787  11.234   3.176   4.391 -0.3026 -1.2641 -0.5405
  900MOL0     H18788  11.150   3.278   4.780  0.7070 -1.3727 -0.7211
  900MOL0     H18789  11.035   3.219   4.999 -2.2679  1.2248  0.3637
  900MOL0     H18790  10.604   3.112   4.963 -0.9677 -0.8861  0.6178
  900MOL0     H18791  10.654   3.084   5.130  3.7668  2.9169  0.2226
  900MOL0     H18792  10.565   2.886   5.041  0.5073  1.5660  0.5895
  900MOL0     H18793  10.665   2.896   4.894 -2.9718 -1.3823 -0.2649
  900MOL0     H18794  10.878   2.877   5.047  0.5787 -1.6639 -0.3137
  900MOL0     H18795  10.786   2.740   5.009  0.8291 -0.4692  1.1323
  900MOL0     H18796  10.651   2.770   5.235  0.5940 -2.1931  0.4312
  900MOL0     H18797  10.821   2.709   5.240  0.3519 -0.1451 -1.7852
  900MOL0     H18798  10.863   3.051   5.451 -1.3208  0.4059 -0.5899
  900MOL0     H18799  10.700   3.094   4.762  0.6925 -1.3859  0.7861
  900MOL0     H18800  10.797   3.193   4.564  0.2090  2.5590  0.5217
  901MOL0     O18801  10.537   4.746   6.476 -0.1684 -0.7362 -0.8121
  901MOL0     C18802  10.651   4.759   6.444 -0.3367  0.5913  0.8953
  901MOL0     O18803  10.715   4.877   6.446 -0.3598  0.2945  0.6999
  901MOL0     C18804  10.651   4.995   6.455  0.4268 -0.7017 -0.0970
  901MOL0     C18805  10.521   5.026   6.410  0.1693  0.4178 -1.1789
  901MOL0     C18806  10.476   5.157   6.403  0.2262  0.0829  0.1272
  901MOL0     C18807  10.562   5.259   6.451  1.1954 -0.6945 -0.3617
  901MOL0     O18808  10.535   5.394   6.450 -0.5024 -0.7805 -0.1353
  901MOL0     C18809  10.394   5.423   6.478 -0.3648 -0.0291 -0.1125
  901MOL0     C18810  10.363   5.570   6.513  0.0989 -0.3934 -0.5154
  901MOL0     C18811  10.374   5.669   6.394  0.0430 -0.4431  0.4968
  901MOL0     C18812  10.348   5.812   6.436  0.2314 -0.1625  0.5687
  901MOL0     C18813  10.337   5.900   6.310 -0.4849 -0.7213 -1.3798
  901MOL0     C18814  10.381   6.043   6.330  0.2000 -1.1004  0.1158
  901MOL0     C18815  10.392   6.119   6.195  0.0524  0.2943 -0.3001
  901MOL0     C18816  10.467   6.250   6.201 -0.7693  0.2203  0.2797
  901MOL0     N18817  10.476   6.304   6.070  0.0545 -1.0022 -0.7205
  901MOL0     C18818  10.379   6.374   6.008 -0.3724  0.5654 -0.5082
  901MOL0     C18819  10.411   6.379   5.874  0.1151  0.2898  0.4475
  901MOL0     C18820  10.334   6.435   5.748 -0.5763  0.8369  0.2308
  901MOL0     C18821  10.199   6.362   5.723 -0.1509 -0.3308  0.2104
  901MOL0     C18822  10.085   6.447   5.673 -0.1496 -0.7677 -0.5040
  901MOL0     C18823   9.945   6.383   5.691 -0.8853 -0.1855  0.8085
  901MOL0     O18824   9.924   6.328   5.815 -0.0588 -0.6532 -0.4104
  901MOL0     C18825   9.797   6.292   5.857  0.8007 -0.1141  0.6582
  901MOL0     C18826   9.679   6.292   5.770  1.2566 -0.3065 -0.2095
  901MOL0     C18827   9.556   6.256   5.817  0.7236  0.0284  0.8167
  901MOL0     C18828   9.535   6.219   5.948  0.2618  0.4068 -0.9341
  901MOL0     C18829   9.413   6.161   5.985  0.5994  0.1350  0.6034
  901MOL0     O18830   9.390   6.156   6.120  0.4975  0.3050 -0.2176
  901MOL0     C18831   9.275   6.112   6.183 -0.3100  0.1122  0.2379
  901MOL0     C18832   9.261   6.130   6.320 -0.8990 -0.0091  0.0126
  901MOL0     C18833   9.156   6.095   6.393 -0.0746  0.3395  0.2885
  901MOL0     C18834   9.055   6.031   6.332  0.9232  0.6870 -0.2547
  901MOL0     O18835   8.955   5.964   6.399  0.6001 -0.2805 -0.1680
  901MOL0     C18836   8.923   6.017   6.524 -0.4144  0.3018 -0.0368
  901MOL0     C18837   8.992   5.937   6.632 -0.3370 -0.0969  0.1648
  901MOL0     C18838   8.968   6.000   6.773  0.1894 -1.0626  0.2488
  901MOL0     C18839   9.079   5.947   6.865 -0.0864  0.3594  0.9619
  901MOL0     C18840   9.087   5.998   7.007 -0.3247  0.3073 -0.1065
  901MOL0     C18841   8.950   6.018   7.075 -0.8807 -0.0993 -0.1236
  901MOL0     C18842   8.974   6.054   7.225  0.6181  0.0192  0.5041
  901MOL0     C18843   8.851   6.061   7.319  0.2640 -0.4996 -0.2264
  901MOL0    Cl18844   8.800   5.896   7.364 -0.1052 -0.2497  0.0532
  901MOL0     C18845   9.053   6.011   6.193  0.6306  0.2291 -0.0247
  901MOL0     C18846   9.157   6.061   6.110  0.1013  0.4157 -0.1802
  901MOL0     O18847   9.348   6.103   5.898  0.3710 -0.5475 -0.2769
  901MOL0     C18848   9.641   6.223   6.043  0.0876 -0.3816  0.4429
  901MOL0     C18849   9.767   6.260   5.993  0.5841  1.1034  0.2578
  901MOL0     N18850  10.548   6.337   5.865 -0.4931  0.9083  0.4196
  901MOL0     N18851  10.576   6.284   5.985 -0.5318 -0.0472 -0.9434
  901MOL0     C18852  10.694   5.229   6.487 -0.4683 -0.0063  0.6715
  901MOL0     C18853  10.742   5.102   6.484  0.6598 -0.0675 -0.3747
  901MOL0     C18854  10.716   4.641   6.389  0.1626 -0.1775 -0.0514
  901MOL0     C18855  10.847   4.658   6.323 -0.1410  0.1966 -0.3241
  901MOL0     C18856  10.922   4.552   6.276 -0.8099 -0.3746 -0.5346
  901MOL0     C18857  10.874   4.423   6.283 -0.8223  0.3082  0.4276
  901MOL0     O18858  10.933   4.314   6.232  0.9353  0.3436  0.6575
  901MOL0     C18859  11.061   4.319   6.166  0.8775  0.2174  0.8731
  901MOL0     C18860  11.116   4.180   6.111 -0.3877 -0.7097  0.1088
  901MOL0     C18861  11.113   4.067   6.217  0.0506 -0.2681 -0.0335
  901MOL0     C18862  11.111   3.928   6.143  1.0415 -0.6352  0.1194
  901MOL0     C18863  11.214   3.904   6.040  0.1887 -0.6710  0.4409
  901MOL0     C18864  11.279   3.879   5.947 -0.5367 -0.2278 -1.0722
  901MOL0     C18865  10.762   4.400   6.355 -0.1669 -0.2599  0.2181
  901MOL0     C18866  10.684   4.509   6.407 -0.5281 -0.0966 -0.0250
  901MOL0     H18867  10.460   4.946   6.369  2.6779 -2.4239  0.2028
  901MOL0     H18868  10.379   5.183   6.363  1.3960  1.6580 -1.8809
  901MOL0     H18869  10.361   5.364   6.564  1.5882  1.1032  1.4920
  901MOL0     H18870  10.334   5.394   6.391 -3.0711 -0.7040  1.8256
  901MOL0     H18871  10.424   5.606   6.596 -3.4646  1.4801  1.5613
  901MOL0     H18872  10.259   5.575   6.547  0.0054 -1.5542 -0.5757
  901MOL0     H18873  10.322   5.620   6.311  1.7530 -4.1965  1.4542
  901MOL0     H18874  10.482   5.662   6.379 -0.1861 -1.7204 -0.7658
  901MOL0     H18875  10.259   5.822   6.499 -0.4296  3.0119 -0.6812
  901MOL0     H18876  10.431   5.850   6.496 -0.1500  0.4322  0.7224
  901MOL0     H18877  10.234   5.886   6.275 -0.4986 -1.7348 -0.9832
  901MOL0     H18878  10.410   5.848   6.247  1.4748 -0.7384  0.7621
  901MOL0     H18879  10.474   6.054   6.385 -0.5892  0.3542  1.2402
  901MOL0     H18880  10.312   6.099   6.395 -1.7210 -1.4039 -1.5437
  901MOL0     H18881  10.433   6.059   6.114 -1.8013  1.1592 -1.9481
  901MOL0     H18882  10.292   6.148   6.160 -0.0326  3.8744  2.2805
  901MOL0     H18883  10.573   6.245   6.228  0.0225  2.1615 -2.1703
  901MOL0     H18884  10.426   6.328   6.266 -1.2235  1.7919 -1.7916
  901MOL0     H18885  10.287   6.406   6.055 -1.4527 -1.8071 -0.8702
  901MOL0     H18886  10.395   6.405   5.662 -0.6620 -0.9235  0.7274
  901MOL0     H18887  10.329   6.543   5.760  0.8676  0.8155  1.4060
  901MOL0     H18888  10.166   6.311   5.815 -0.7193 -3.0271 -1.3704
  901MOL0     H18889  10.210   6.276   5.657  0.4491  0.5209 -0.8211
  901MOL0     H18890  10.091   6.546   5.718 -3.3619 -0.4909 -0.5165
  901MOL0     H18891  10.111   6.468   5.568 -0.1142 -0.7482 -0.4915
  901MOL0     H18892   9.924   6.309   5.613 -3.7845  0.1999  1.0968
  901MOL0     H18893   9.870   6.462   5.679 -0.2406  0.3418  0.1420
  901MOL0     H18894   9.678   6.331   5.669  0.0451  1.8749  0.5816
  901MOL0     H18895   9.475   6.242   5.745  0.0410 -0.1852  1.6039
  901MOL0     H18896   9.327   6.186   6.385 -1.0828 -2.3408  2.4073
  901MOL0     H18897   9.140   6.120   6.498 -1.1792  3.2615 -0.4883
  901MOL0     H18898   8.818   5.996   6.546 -0.2720 -2.5211 -1.6391
  901MOL0     H18899   8.949   6.123   6.534  0.7808  0.1341 -1.0755
  901MOL0     H18900   9.096   5.917   6.603 -0.1694  0.5015  0.3369
  901MOL0     H18901   8.947   5.837   6.630  1.5372 -1.0100  0.3822
  901MOL0     H18902   8.871   5.975   6.818  1.6580 -0.6203  4.0255
  901MOL0     H18903   8.985   6.107   6.790 -1.6237 -0.5336 -0.9877
  901MOL0     H18904   9.055   5.840   6.866  0.6023  0.1548 -0.8260
  901MOL0     H18905   9.171   5.973   6.812 -1.0021  1.0716 -0.3309
  901MOL0     H18906   9.155   6.084   7.008  2.4459 -1.6917  2.8085
  901MOL0     H18907   9.143   5.930   7.072 -0.8767  3.4142  4.0493
  901MOL0     H18908   8.900   5.920   7.065 -1.2100  0.0103  0.4536
  901MOL0     H18909   8.877   6.087   7.032 -0.1370  0.3814 -0.6436
  901MOL0     H18910   9.039   5.980   7.271  3.5067  0.6707 -2.1437
  901MOL0     H18911   9.028   6.149   7.214 -0.4089  0.3725 -2.4586
  901MOL0     H18912   8.771   6.103   7.258 -1.5985 -1.6519  1.3432
  901MOL0     H18913   8.872   6.129   7.402  2.7616  1.7563 -2.4842
  901MOL0     H18914   8.971   5.952   6.155  0.2014 -0.6716  2.1195
  901MOL0     H18915   9.146   6.049   6.003  0.5567 -0.2392 -0.1609
  901MOL0     H18916   9.621   6.215   6.149 -0.4874  2.0557  0.5701
  901MOL0     H18917   9.855   6.271   6.056  0.8304  0.0314  0.1228
  901MOL0     H18918  10.764   5.304   6.522  1.6488  0.1691 -3.3426
  901MOL0     H18919  10.850   5.097   6.479  0.9200  3.5675 -1.9213
  901MOL0     H18920  10.887   4.758   6.307  1.4493 -0.5781 -1.4477
  901MOL0     H18921  11.020   4.562   6.231 -0.5858 -1.4129 -0.3212
  901MOL0     H18922  11.138   4.344   6.239 -0.4131  1.8544  1.7482
  901MOL0     H18923  11.063   4.393   6.086 -2.5930 -2.4762 -2.0863
  901MOL0     H18924  11.062   4.152   6.020  3.2672 -0.2104 -2.4089
  901MOL0     H18925  11.217   4.190   6.071 -0.3896  1.0868  0.4796
  901MOL0     H18926  11.022   4.060   6.276  0.9859 -1.5823  1.3065
  901MOL0     H18927  11.200   4.079   6.282  0.2173 -1.8273  0.0628
  901MOL0     H18928  11.127   3.857   6.225 -1.4695 -1.4140  0.0124
  901MOL0     H18929  11.013   3.912   6.097  0.4789  0.1965  0.9833
  901MOL0     H18930  11.344   3.868   5.863 -0.2344  1.8977 -1.1821
  901MOL0     H18931  10.731   4.299   6.382 -1.0109  0.2022  1.0334
  901MOL0     H18932  10.591   4.485   6.457 -1.5587  1.1899 -1.2335
  902MOL0     O18933   0.103   9.340  11.381  0.2987 -0.2061  0.1832
  902MOL0     C18934   0.120   9.341  11.505  0.9671  0.4121 -0.2324
  902MOL0     O18935   0.081   9.239  11.589 -0.1234  0.6501  0.3059
  902MOL0     C18936   0.001   9.132  11.539 -0.7806 -0.6068  0.2560
  902MOL0     C18937  -0.122   9.121  11.604 -0.1384  0.3887 -0.0803
  902MOL0     C18938  -0.205   9.019  11.561  0.1311  0.0005 -0.0698
  902MOL0     C18939  -0.167   8.919  11.475 -0.0718 -0.1799  0.6474
  902MOL0     O18940  -0.235   8.801  11.447  0.2875 -0.1507 -0.2102
  902MOL0     C18941  -0.373   8.784  11.485  0.6906  0.1392  0.4205
  902MOL0     C18942  -0.442   8.642  11.458 -0.0967  0.2842  0.6032
  902MOL0     C18943  -0.368   8.523  11.525  0.7862  0.0980 -0.0920
  902MOL0     C18944  -0.455   8.397  11.516  0.7515  0.3112  0.8300
  902MOL0     C18945  -0.423   8.320  11.396  0.5392 -0.2446  0.6923
  902MOL0     C18946  -0.488   8.178  11.372  0.4140 -0.2835 -0.2634
  902MOL0     C18947  -0.643   8.205  11.356  0.4122 -0.2706 -0.1124
  902MOL0     C18948  -0.725   8.091  11.306  0.0346 -0.2984 -0.1886
  902MOL0     N18949  -0.655   8.017  11.188 -0.0483  0.4462 -0.2875
  902MOL0     C18950  -0.564   7.908  11.207 -0.3339  0.2635  0.1010
  902MOL0     C18951  -0.562   7.846  11.086 -0.6502  0.2949 -0.3807
  902MOL0     C18952  -0.462   7.743  11.040 -0.6557  0.3077  1.0179
  902MOL0     C18953  -0.537   7.611  11.011  0.4008 -0.5537  0.0670
  902MOL0     C18954  -0.594   7.554  11.134 -0.2740 -0.2201  0.2547
  902MOL0     C18955  -0.690   7.446  11.110 -0.3407  0.4447 -0.6764
  902MOL0     O18956  -0.805   7.504  11.039 -0.0189 -0.1308 -0.0610
  902MOL0     C18957  -0.894   7.411  10.994 -1.3976  0.3384 -0.2315
  902MOL0     C18958  -1.009   7.463  10.938 -0.0201 -0.1900  0.9720
  902MOL0     C18959  -1.110   7.369  10.898 -0.4514 -0.6579  0.5285
  902MOL0     C18960  -1.090   7.226  10.901  1.0484 -0.9852 -0.5764
  902MOL0     C18961  -1.192   7.137  10.843  1.3106 -0.8125 -0.1086
  902MOL0     O18962  -1.275   7.197  10.754  0.1912 -0.2682  0.6299
  902MOL0     C18963  -1.360   7.123  10.672 -0.1575 -0.6074 -1.0336
  902MOL0     C18964  -1.479   7.183  10.637  0.0361  0.7215  0.3728
  902MOL0     C18965  -1.577   7.121  10.568 -0.0738 -0.7070  0.9087
  902MOL0     C18966  -1.554   6.989  10.519  0.0537 -0.4493 -0.5730
  902MOL0     O18967  -1.643   6.911  10.442  0.9023 -0.5018 -0.3430
  902MOL0     C18968  -1.777   6.949  10.439 -0.0589 -0.7018  0.3625
  902MOL0     C18969  -1.831   6.919  10.294 -0.3110 -0.6118 -0.9817
  902MOL0     C18970  -1.904   6.787  10.285  0.1611  0.8443  0.3420
  902MOL0     C18971  -1.963   6.767  10.139  0.4545 -0.1479  0.3164
  902MOL0     C18972  -2.052   6.647  10.102 -0.1088 -0.5116 -0.3414
  902MOL0     C18973  -2.013   6.509  10.159  0.3308  0.0577  0.7259
  902MOL0     C18974  -2.144   6.420  10.174  0.0205  0.6695  0.0370
  902MOL0     C18975  -2.116   6.269  10.163 -1.2737 -1.4278  0.2976
  902MOL0    Cl18976  -2.102   6.246   9.982 -0.2557 -0.6030  0.2064
  902MOL0     C18977  -1.426   6.929  10.539 -0.8557  0.3991  0.3775
  902MOL0     C18978  -1.330   6.987  10.621 -0.5010 -0.5279 -0.0294
  902MOL0     O18979  -1.202   7.021  10.879 -0.2338  0.3782  0.2453
  902MOL0     C18980  -0.980   7.183  10.960 -0.0652  0.1735 -0.3005
  902MOL0     C18981  -0.878   7.267  11.004  0.5409 -0.8907 -0.2226
  902MOL0     N18982  -0.650   7.903  10.995  0.2628 -0.5289 -0.7815
  902MOL0     N18983  -0.702   8.002  11.059 -0.6870 -0.3249 -0.4407
  902MOL0     C18984  -0.040   8.935  11.418  0.2136  0.2580 -0.1944
  902MOL0     C18985   0.046   9.043  11.446 -0.0454  0.0862  0.3022
  902MOL0     C18986   0.185   9.469  11.562  0.0730  0.9745 -0.3085
  902MOL0     C18987   0.191   9.468  11.694  0.2648 -0.9933 -0.4313
  902MOL0     C18988   0.251   9.582  11.763  0.1405 -1.0189  0.1477
  902MOL0     C18989   0.305   9.696  11.677  0.7500  0.7738  0.2484
  902MOL0     O18990   0.364   9.815  11.718  0.0958 -0.4944 -0.2056
  902MOL0     C18991   0.357   9.843  11.853 -0.4475 -0.5896 -0.8277
  902MOL0     C18992   0.424   9.973  11.883 -0.9305  0.0329  1.3936
  902MOL0     C18993   0.578   9.962  11.876 -0.1986 -0.3344 -0.3896
  902MOL0     C18994   0.653  10.085  11.934  0.4353  0.2298  0.0728
  902MOL0     C18995   0.775  10.090  11.867 -0.3512  0.2248  0.1822
  902MOL0     C18996   0.885  10.113  11.818 -0.9273  1.6361 -0.2036
  902MOL0     C18997   0.304   9.685  11.538  0.1109  0.5641 -0.3128
  902MOL0     C18998   0.242   9.570  11.484 -0.7610  0.4461  0.4835
  902MOL0     H18999  -0.153   9.199  11.674 -0.3736  1.9291 -1.8207
  902MOL0     H19000  -0.307   9.014  11.598  0.4975 -3.4321  0.8201
  902MOL0     H19001  -0.437   8.850  11.426  1.4341  0.2678 -0.2550
  902MOL0     H19002  -0.403   8.809  11.587 -3.7070 -1.5510 -0.2288
  902MOL0     H19003  -0.453   8.628  11.350  1.1276 -0.5552  0.5613
  902MOL0     H19004  -0.547   8.649  11.484 -1.2312 -1.4904 -2.8454
  902MOL0     H19005  -0.351   8.565  11.624 -3.9528  1.1973  0.5310
  902MOL0     H19006  -0.264   8.508  11.494  1.8143  4.4639  0.6253
  902MOL0     H19007  -0.433   8.329  11.599 -0.4899 -2.0212 -0.6402
  902MOL0     H19008  -0.560   8.427  11.510  0.5262 -0.4539 -4.7704
  902MOL0     H19009  -0.313   8.314  11.395  0.6445  1.3307 -0.2929
  902MOL0     H19010  -0.446   8.378  11.307 -0.9623  0.0021  1.2098
  902MOL0     H19011  -0.480   8.116  11.462 -1.6752 -1.6204 -0.9160
  902MOL0     H19012  -0.440   8.128  11.288 -1.6012 -1.5203 -0.7670
  902MOL0     H19013  -0.678   8.238  11.455  2.1298  2.2263 -0.2274
  902MOL0     H19014  -0.660   8.297  11.299 -0.8999  0.8241  1.9004
  902MOL0     H19015  -0.830   8.114  11.287 -0.7373  1.0107  4.4567
  902MOL0     H19016  -0.726   8.027  11.395  1.5277  2.2605  1.7939
  902MOL0     H19017  -0.511   7.889  11.300  2.1141 -1.3720 -1.5038
  902MOL0     H19018  -0.382   7.715  11.109 -2.5514 -1.2654  2.7246
  902MOL0     H19019  -0.411   7.778  10.951  2.5309 -1.1090  2.1179
  902MOL0     H19020  -0.464   7.542  10.968  2.1876 -0.3974  2.6570
  902MOL0     H19021  -0.611   7.630  10.933  0.1044  1.6566  0.8241
  902MOL0     H19022  -0.512   7.513  11.194  0.6743  1.8044  0.4242
  902MOL0     H19023  -0.653   7.628  11.189 -0.2528 -1.2528  1.7594
  902MOL0     H19024  -0.726   7.401  11.203  0.7281 -0.6038 -0.7413
  902MOL0     H19025  -0.630   7.372  11.056  2.0724  1.3389  0.6250
  902MOL0     H19026  -1.012   7.570  10.920  0.3836 -0.5425 -1.4546
  902MOL0     H19027  -1.209   7.402  10.869 -0.7964  0.9435  3.1269
  902MOL0     H19028  -1.502   7.282  10.673  0.9981  0.8077  0.7744
  902MOL0     H19029  -1.666   7.181  10.550  0.6157 -0.1377 -0.8318
  902MOL0     H19030  -1.813   7.046  10.476 -2.8997 -2.4798  2.7977
  902MOL0     H19031  -1.824   6.883  10.513  0.0852 -1.0840  0.1146
  902MOL0     H19032  -1.742   6.923  10.231  1.1961  1.8535  1.1274
  902MOL0     H19033  -1.905   6.987  10.250  0.8716  0.3310 -1.5652
  902MOL0     H19034  -1.979   6.782  10.364  2.0279 -2.1955  2.1078
  902MOL0     H19035  -1.833   6.706  10.305 -2.7940 -1.5245  2.0164
  902MOL0     H19036  -2.022   6.855  10.114  1.1023  0.5754  1.2640
  902MOL0     H19037  -1.871   6.752  10.082  2.1175  3.4282  1.7790
  902MOL0     H19038  -2.047   6.645   9.993 -2.6853  0.2209 -0.5406
  902MOL0     H19039  -2.157   6.662  10.129  0.3528  0.7744  0.8748
  902MOL0     H19040  -1.973   6.519  10.261 -0.8886  0.1368  1.2191
  902MOL0     H19041  -1.929   6.465  10.105 -0.2209  0.5020 -0.5178
  902MOL0     H19042  -2.191   6.430  10.272  0.4833 -0.6584  0.4106
  902MOL0     H19043  -2.214   6.435  10.092  1.5788  0.3758 -1.4057
  902MOL0     H19044  -2.206   6.225  10.208 -1.6748 -2.8978 -1.8030
  902MOL0     H19045  -2.021   6.230  10.201 -2.3542  0.2468  5.4482
  902MOL0     H19046  -1.413   6.827  10.505 -1.6170  1.0066 -1.9066
  902MOL0     H19047  -1.232   6.942  10.636  0.2766  1.0642 -0.2148
  902MOL0     H19048  -0.967   7.076  10.970  1.1956  0.3869  0.6707
  902MOL0     H19049  -0.789   7.222  11.046  0.4104 -1.6466 -0.7449
  902MOL0     H19050  -0.014   8.860  11.344  1.0947 -0.4022  0.7503
  902MOL0     H19051   0.137   9.051  11.387  0.3888 -1.7345  0.6360
  902MOL0     H19052   0.154   9.388  11.758 -1.3279 -0.0390 -0.1041
  902MOL0     H19053   0.234   9.591  11.870 -4.0645  1.1670 -0.4661
  902MOL0     H19054   0.400   9.762  11.913  2.1928  1.5859  0.4202
  902MOL0     H19055   0.253   9.854  11.885  0.5112 -0.0065  2.4073
  902MOL0     H19056   0.395  10.047  11.808 -4.9618 -1.7093  0.9568
  902MOL0     H19057   0.397  10.020  11.978  0.8630  0.2768  1.8069
  902MOL0     H19058   0.606   9.972  11.771 -0.3111 -0.4434 -0.4300
  902MOL0     H19059   0.615   9.869  11.921  1.2445 -0.8851 -2.5886
  902MOL0     H19060   0.593  10.177  11.927 -2.8925 -1.7634  0.1130
  902MOL0     H19061   0.671  10.062  12.039  0.2779 -2.5337 -0.4478
  902MOL0     H19062   0.973  10.138  11.763  1.3786  1.5745  3.2282
  902MOL0     H19063   0.347   9.765  11.479  1.8836 -0.5690 -0.6424
  902MOL0     H19064   0.241   9.567  11.376  4.4794  2.8687  0.0531
  903MOL0     O19065   1.706  10.629   1.640  0.3035  0.5691 -0.0649
  903MOL0     C19066   1.674  10.596   1.752 -0.9936  0.1647  0.1055
  903MOL0     O19067   1.755  10.623   1.863 -1.1326  0.1948  0.6372
  903MOL0     C19068   1.879  10.692   1.861 -0.5009  0.4601  0.7587
  903MOL0     C19069   1.895  10.812   1.779  0.0368  0.1088 -0.2685
  903MOL0     C19070   2.019  10.870   1.776 -0.7025  0.1764  0.5105
  903MOL0     C19071   2.117  10.840   1.870  0.2841  0.0072 -0.1448
  903MOL0     O19072   2.237  10.892   1.846 -0.5235 -0.0658  0.3219
  903MOL0     C19073   2.304  10.967   1.946 -0.0524 -0.0292  0.6818
  903MOL0     C19074   2.254  11.113   1.963  0.2712 -0.2298  0.1529
  903MOL0     C19075   2.234  11.198   1.833  0.1949  0.1461  0.0286
  903MOL0     C19076   2.240  11.355   1.868 -0.2399  0.0763  0.7385
  903MOL0     C19077   2.249  11.435   1.744 -0.2634 -0.2217 -0.6278
  903MOL0     C19078   2.387  11.442   1.690 -0.0892 -0.2646  0.7836
  903MOL0     C19079   2.400  11.544   1.583  0.0603 -0.7079  0.3793
  903MOL0     C19080   2.514  11.522   1.484 -0.3702 -0.1161 -0.4839
  903MOL0     N19081   2.482  11.416   1.385  0.2901 -1.6205  0.4796
  903MOL0     C19082   2.489  11.450   1.253 -0.3605  0.6477 -0.7053
  903MOL0     C19083   2.521  11.343   1.186  0.4395  0.6820  0.2667
  903MOL0     C19084   2.545  11.335   1.036 -0.1472 -0.7805 -0.3738
  903MOL0     C19085   2.411  11.342   0.969 -0.3441 -0.4615  0.7119
  903MOL0     C19086   2.305  11.456   1.004 -0.8881 -0.4180  0.0256
  903MOL0     C19087   2.169  11.427   0.943 -0.4567  1.2516  0.4442
  903MOL0     O19088   2.187  11.417   0.800  0.3542 -0.7779 -0.5794
  903MOL0     C19089   2.072  11.376   0.731 -0.5250 -0.7540 -0.3620
  903MOL0     C19090   1.942  11.396   0.784  0.3522  0.5403 -0.6731
  903MOL0     C19091   1.828  11.339   0.721 -0.9580 -0.4316  0.7246
  903MOL0     C19092   1.849  11.266   0.596 -0.0807 -0.8033 -1.1959
  903MOL0     C19093   1.733  11.218   0.519  0.4685 -0.4432 -0.3317
  903MOL0     O19094   1.753  11.115   0.426  0.2143  0.0115 -0.1939
  903MOL0     C19095   1.654  11.063   0.348  0.0415  0.1214  0.2475
  903MOL0     C19096   1.622  11.150   0.245 -0.0520 -0.0219 -0.1889
  903MOL0     C19097   1.527  11.101   0.151  0.2873  0.2133 -0.5651
  903MOL0     C19098   1.466  10.986   0.173 -1.2318  0.5425 -0.8095
  903MOL0     O19099   1.381  10.948   0.078  0.2875 -0.7446 -0.3778
  903MOL0     C19100   1.257  10.875   0.106 -0.6869 -0.4042  1.0852
  903MOL0     C19101   1.172  10.900  -0.025  0.2845  0.2702  0.8646
  903MOL0     C19102   1.135  11.052  -0.026  0.3399  0.0210  0.0454
  903MOL0     C19103   1.049  11.083  -0.150  0.3027 -0.0051  0.5373
  903MOL0     C19104   0.938  11.186  -0.140 -0.8218  0.1636 -0.2050
  903MOL0     C19105   0.981  11.306  -0.057 -0.0977 -0.6335  0.0394
  903MOL0     C19106   0.876  11.424  -0.029 -0.0421  0.7645 -0.2777
  903MOL0     C19107   0.754  11.366   0.043  0.6824 -0.9968 -0.3407
  903MOL0    Cl19108   0.818  11.295   0.197  0.0948  0.0954 -0.4555
  903MOL0     C19109   1.504  10.900   0.279 -0.5072  0.5822  0.0618
  903MOL0     C19110   1.597  10.940   0.373 -0.2202 -0.2761  0.3147
  903MOL0     O19111   1.627  11.265   0.541 -0.7440  0.6431 -0.2835
  903MOL0     C19112   1.976  11.244   0.548 -0.1416 -0.6532  0.3651
  903MOL0     C19113   2.085  11.304   0.614  0.4167  0.5765  0.2829
  903MOL0     N19114   2.531  11.245   1.279 -1.1687 -0.1435  0.2597
  903MOL0     N19115   2.503  11.284   1.394 -0.2643 -0.2691  0.4491
  903MOL0     C19116   2.096  10.731   1.956 -0.2888  0.0187 -0.2233
  903MOL0     C19117   1.978  10.653   1.952 -0.6391  0.1512 -0.7206
  903MOL0     C19118   1.541  10.539   1.769  0.1365 -0.3625 -0.8542
  903MOL0     C19119   1.439  10.544   1.663  0.6424 -0.5701 -0.6914
  903MOL0     C19120   1.312  10.510   1.693  1.1481 -0.1127 -0.3112
  903MOL0     C19121   1.270  10.454   1.815 -0.1530 -0.1499  0.0517
  903MOL0     O19122   1.147  10.397   1.809 -0.1298  0.1562  0.0654
  903MOL0     C19123   1.086  10.342   1.921  0.2826 -0.1624 -0.3810
  903MOL0     C19124   0.956  10.279   1.884  0.0169 -0.2828  0.5580
  903MOL0     C19125   0.975  10.160   1.797 -0.0918 -0.4653 -0.2605
  903MOL0     C19126   0.827  10.127   1.741 -0.4237  0.4760 -0.2292
  903MOL0     C19127   0.733  10.088   1.845 -0.0960  0.5728  0.3820
  903MOL0     C19128   0.670  10.041   1.933  1.0258  0.5227  0.2558
  903MOL0     C19129   1.360  10.457   1.922 -0.4637 -0.3380 -0.1684
  903MOL0     C19130   1.494  10.502   1.896  0.3657  0.6430 -0.0082
  903MOL0     H19131   1.817  10.857   1.718 -0.7452  3.4005  2.8457
  903MOL0     H19132   2.021  10.948   1.700 -0.1320  0.4802  0.8358
  903MOL0     H19133   2.410  10.968   1.918 -0.5879 -0.3063 -1.6004
  903MOL0     H19134   2.297  10.910   2.039  1.5395 -0.8430  0.3413
  903MOL0     H19135   2.315  11.169   2.035 -0.0748 -0.0871  0.3390
  903MOL0     H19136   2.153  11.111   2.006 -0.7776  3.6144 -1.6974
  903MOL0     H19137   2.139  11.171   1.787 -0.1088 -1.6128  1.5790
  903MOL0     H19138   2.315  11.171   1.765 -0.9923 -1.1640 -0.9076
  903MOL0     H19139   2.159  11.382   1.936 -1.3265  2.0546 -1.2301
  903MOL0     H19140   2.335  11.376   1.919  1.4847 -1.1788 -1.7331
  903MOL0     H19141   2.202  11.533   1.760  0.2003 -0.1806  0.5915
  903MOL0     H19142   2.179  11.394   1.671  0.6047 -1.1995 -0.9307
  903MOL0     H19143   2.419  11.339   1.673 -0.3293 -1.0621  4.4673
  903MOL0     H19144   2.454  11.480   1.767 -0.7648 -0.0309  1.2664
  903MOL0     H19145   2.300  11.558   1.540 -0.0357  1.3028  1.1302
  903MOL0     H19146   2.415  11.639   1.636 -1.2876 -2.3050  3.8907
  903MOL0     H19147   2.599  11.503   1.550 -0.4005 -0.1593 -0.4569
  903MOL0     H19148   2.549  11.610   1.429  0.1497 -0.8708 -1.3959
  903MOL0     H19149   2.497  11.549   1.209  0.4800  1.7287  1.7075
  903MOL0     H19150   2.611  11.252   1.012 -1.8551 -2.4640  0.5101
  903MOL0     H19151   2.594  11.428   1.004 -2.2145  0.6042  0.2590
  903MOL0     H19152   2.358  11.254   1.005 -1.6662  0.0897  0.2038
  903MOL0     H19153   2.422  11.326   0.861  0.9309  2.3471  0.3132
  903MOL0     H19154   2.286  11.472   1.111 -1.2935  0.1027 -0.1217
  903MOL0     H19155   2.341  11.548   0.957 -3.3477  0.4717 -0.2524
  903MOL0     H19156   2.097  11.502   0.978  2.0180  2.8737  2.4871
  903MOL0     H19157   2.139  11.328   0.978  0.5275  1.1300  0.9988
  903MOL0     H19158   1.925  11.456   0.874  0.0087 -2.4330  1.4080
  903MOL0     H19159   1.730  11.359   0.762  0.1757 -2.8571  5.2577
  903MOL0     H19160   1.677  11.244   0.240 -1.5229  0.8339 -1.3528
  903MOL0     H19161   1.500  11.158   0.062 -5.0874 -0.6695  0.1855
  903MOL0     H19162   1.202  10.924   0.187 -1.6723 -0.4277  0.4541
  903MOL0     H19163   1.285  10.770   0.112  3.1348  0.3895 -0.0955
  903MOL0     H19164   1.071  10.859  -0.019  1.1451 -2.6536 -2.1080
  903MOL0     H19165   1.221  10.866  -0.117 -3.4770  2.2738 -2.1687
  903MOL0     H19166   1.225  11.112  -0.043 -0.0798  0.0194 -2.5740
  903MOL0     H19167   1.081  11.078   0.066 -0.2481  2.8018 -0.9742
  903MOL0     H19168   1.125  11.105  -0.226  1.4797 -0.3187  1.5731
  903MOL0     H19169   0.987  10.999  -0.182 -1.7783  0.5396  2.8371
  903MOL0     H19170   0.849  11.141  -0.096 -0.5372  0.4639  0.6991
  903MOL0     H19171   0.899  11.219  -0.237 -1.6620  0.0681  0.0973
  903MOL0     H19172   1.063  11.357  -0.109 -0.1126 -0.7591 -0.1107
  903MOL0     H19173   1.017  11.268   0.039 -0.0592 -3.1507 -0.8939
  903MOL0     H19174   0.923  11.509   0.021  2.2993 -0.6700  0.1362
  903MOL0     H19175   0.840  11.450  -0.129  0.8899 -0.8826 -1.0810
  903MOL0     H19176   0.690  11.295  -0.011  1.9383 -2.3363 -0.1155
  903MOL0     H19177   0.689  11.448   0.073 -1.7068 -2.2670 -1.7198
  903MOL0     H19178   1.446  10.809   0.286  0.3953 -0.1345 -1.3812
  903MOL0     H19179   1.617  10.879   0.460  1.5731 -1.1854 -0.6748
  903MOL0     H19180   1.997  11.195   0.453  0.6176  2.0247 -0.9539
  903MOL0     H19181   2.184  11.308   0.571  0.0271  2.3906 -0.5467
  903MOL0     H19182   2.181  10.701   2.016  1.8718  2.2393 -2.0080
  903MOL0     H19183   1.984  10.557   2.004  2.5665  1.5682  1.9104
  903MOL0     H19184   1.463  10.579   1.564  3.8386 -0.6105 -0.0404
  903MOL0     H19185   1.232  10.500   1.620 -4.0726  2.9387  4.2242
  903MOL0     H19186   1.058  10.412   2.000 -1.1779 -0.6786 -0.4185
  903MOL0     H19187   1.155  10.269   1.964  4.1601  3.9273  1.2211
  903MOL0     H19188   0.920  10.246   1.982 -2.5348  2.9733  0.8654
  903MOL0     H19189   0.890  10.351   1.836 -0.8043 -0.6694  1.0916
  903MOL0     H19190   1.015  10.067   1.840  1.1894 -0.4142 -1.2768
  903MOL0     H19191   1.043  10.203   1.722 -0.7607  3.0471  0.9731
  903MOL0     H19192   0.791  10.216   1.690  1.8108  1.7130  0.2333
  903MOL0     H19193   0.830  10.051   1.662 -0.3893 -0.6012  0.7680
  903MOL0     H19194   0.630   9.989   2.018  1.8187  2.0371  1.6003
  903MOL0     H19195   1.329  10.409   2.015  0.2143 -3.6056 -1.4887
  903MOL0     H19196   1.563  10.491   1.979  2.3341 -3.4567 -1.8938
  904MOL0     O19197  10.230   6.683   7.415 -0.1547  1.0553 -0.1463
  904MOL0     C19198  10.330   6.725   7.350 -0.2730 -0.0599 -0.8722
  904MOL0     O19199  10.331   6.765   7.219  0.5362  0.0094  0.3458
  904MOL0     C19200  10.229   6.774   7.134  0.0006  0.4641 -0.5828
  904MOL0     C19201  10.273   6.794   6.997 -0.6111 -0.8933  0.4442
  904MOL0     C19202  10.186   6.827   6.889  0.0545 -0.3833 -1.5625
  904MOL0     C19203  10.045   6.824   6.913 -0.4401 -0.5500 -0.4234
  904MOL0     O19204   9.953   6.856   6.814 -0.2354 -0.2491  0.7268
  904MOL0     C19205   9.967   6.788   6.693  0.1281  0.5502  0.9648
  904MOL0     C19206   9.980   6.872   6.567  0.5939  0.2598  1.0522
  904MOL0     C19207   9.848   6.908   6.500  0.7172  0.7763  0.3603
  904MOL0     C19208   9.870   7.000   6.375 -0.7384  0.7446 -0.1763
  904MOL0     C19209   9.731   7.036   6.312 -0.8521  0.0624  1.4073
  904MOL0     C19210   9.632   6.922   6.307  0.2557 -0.0219  0.1738
  904MOL0     C19211   9.505   6.946   6.215  0.6489 -0.0724 -0.2087
  904MOL0     C19212   9.405   7.061   6.255 -0.5428 -0.4654  0.1360
  904MOL0     N19213   9.338   7.048   6.392  0.2362  0.0345  0.3968
  904MOL0     C19214   9.380   7.097   6.519  0.5024  0.6778  0.3364
  904MOL0     C19215   9.322   7.027   6.609 -0.7502 -0.7737 -0.2712
  904MOL0     C19216   9.329   7.045   6.759  0.4854 -0.0810  0.0943
  904MOL0     C19217   9.232   7.145   6.822  0.6634  0.1671  0.6618
  904MOL0     C19218   9.225   7.120   6.972 -1.0368 -0.3490  0.6095
  904MOL0     C19219   9.364   7.133   7.042  1.0706 -0.1003 -0.4961
  904MOL0     O19220   9.333   7.104   7.181  0.2943 -0.0863  0.1601
  904MOL0     C19221   9.416   7.158   7.278  0.6273 -0.1926 -0.0145
  904MOL0     C19222   9.491   7.287   7.277 -0.2836  0.7149 -0.7129
  904MOL0     C19223   9.572   7.324   7.389 -0.4174  0.3593  0.3956
  904MOL0     C19224   9.567   7.252   7.504  0.4539  0.5553 -0.8965
  904MOL0     C19225   9.643   7.313   7.619  1.2587  0.6512  0.6705
  904MOL0     O19226   9.754   7.380   7.596  0.7367 -0.2089 -0.9082
  904MOL0     C19227   9.842   7.406   7.700  0.6280  0.0757 -0.5376
  904MOL0     C19228   9.809   7.516   7.788 -0.3780 -0.0408 -0.8341
  904MOL0     C19229   9.908   7.544   7.893 -0.4532 -0.8167  0.7851
  904MOL0     C19230  10.025   7.463   7.906  0.5528  0.2793  0.0799
  904MOL0     O19231  10.129   7.490   7.999 -0.4420  0.2998 -0.0281
  904MOL0     C19232  10.083   7.542   8.126 -0.6780 -0.1871  0.0957
  904MOL0     C19233  10.202   7.568   8.222  0.1336  0.2744 -0.4008
  904MOL0     C19234  10.226   7.446   8.319 -0.3278 -1.2475  0.1180
  904MOL0     C19235  10.276   7.322   8.249  0.1987 -0.1796 -0.0522
  904MOL0     C19236  10.308   7.202   8.333  0.5863  0.2056 -0.4727
  904MOL0     C19237  10.208   7.178   8.448 -0.0026  0.3556 -1.2943
  904MOL0     C19238  10.245   7.062   8.540  0.9228 -0.8614  0.3857
  904MOL0     C19239  10.148   7.010   8.648  0.3370  0.2755  0.2953
  904MOL0    Cl19240  10.067   7.149   8.739  0.0511  0.2839  0.0892
  904MOL0     C19241  10.045   7.344   7.837 -0.3270 -0.0857  0.0868
  904MOL0     C19242   9.955   7.320   7.731  0.2794  0.0544  0.4128
  904MOL0     O19243   9.586   7.293   7.726 -0.3059  0.0039 -0.5704
  904MOL0     C19244   9.475   7.141   7.509  0.4854  0.2312 -0.1836
  904MOL0     C19245   9.413   7.087   7.399  0.3273  1.0056 -0.0302
  904MOL0     N19246   9.274   6.917   6.541  0.0359  0.3572 -0.6975
  904MOL0     N19247   9.276   6.928   6.418 -0.2371 -0.4472  0.2731
  904MOL0     C19248   9.997   6.808   7.048  0.0992 -0.3660 -0.0812
  904MOL0     C19249  10.085   6.773   7.152 -0.2716 -0.5648  0.0452
  904MOL0     C19250  10.467   6.720   7.417  0.0187 -0.2160 -0.9659
  904MOL0     C19251  10.461   6.723   7.558 -0.5444  0.3258 -0.8083
  904MOL0     C19252  10.586   6.724   7.630  0.4656 -0.8484  0.7628
  904MOL0     C19253  10.709   6.746   7.565  0.5317  0.4266  0.8810
  904MOL0     O19254  10.806   6.801   7.650  0.2818  0.6730  0.5389
  904MOL0     C19255  10.938   6.757   7.609  1.0649  0.2312 -0.9342
  904MOL0     C19256  11.002   6.677   7.716 -0.4389  0.5915  0.0465
  904MOL0     C19257  10.932   6.542   7.728 -0.2588  0.0076 -0.4334
  904MOL0     C19258  11.005   6.468   7.847  0.4559  1.0401 -0.4563
  904MOL0     C19259  11.116   6.379   7.789 -0.0725 -0.4635  0.0058
  904MOL0     C19260  11.220   6.322   7.755  0.7581  0.2468 -0.9506
  904MOL0     C19261  10.705   6.755   7.423  0.3121  0.7848 -0.3220
  904MOL0     C19262  10.589   6.740   7.349  0.4171  0.8511  0.0191
  904MOL0     H19263  10.382   6.801   6.991 -0.8037  1.6550 -1.2679
  904MOL0     H19264  10.244   6.853   6.800  2.7207 -1.2947 -0.2175
  904MOL0     H19265   9.881   6.721   6.678  1.0719 -0.0768 -2.9673
  904MOL0     H19266  10.046   6.712   6.690 -0.0141  0.4312 -0.8447
  904MOL0     H19267  10.048   6.822   6.498  0.9634  0.6290  1.1446
  904MOL0     H19268  10.031   6.962   6.603  3.0136 -0.9982  0.9566
  904MOL0     H19269   9.784   6.954   6.575  0.0114  0.5914 -0.1138
  904MOL0     H19270   9.804   6.812   6.469 -0.9737  1.1332  1.5095
  904MOL0     H19271   9.917   7.091   6.413  0.7398 -0.0612 -0.0104
  904MOL0     H19272   9.935   6.958   6.298 -1.2152  2.2100 -1.4508
  904MOL0     H19273   9.749   7.068   6.209 -1.4206  0.9106  1.5638
  904MOL0     H19274   9.691   7.117   6.373  1.5105  1.7700  0.8152
  904MOL0     H19275   9.601   6.920   6.411 -1.5055 -1.9591 -0.3245
  904MOL0     H19276   9.684   6.828   6.285 -1.1779 -1.0796  1.1486
  904MOL0     H19277   9.532   6.956   6.109 -0.9452 -2.9174 -1.0056
  904MOL0     H19278   9.446   6.854   6.214  0.2997  0.1366 -1.6154
  904MOL0     H19279   9.330   7.075   6.176 -0.5083 -0.2478  0.1407
  904MOL0     H19280   9.450   7.160   6.253 -1.9492  0.1835 -1.0208
  904MOL0     H19281   9.443   7.185   6.529  0.8373  0.5841 -0.7545
  904MOL0     H19282   9.431   7.078   6.779  0.2742  0.7024 -0.0978
  904MOL0     H19283   9.318   6.945   6.804 -1.5505 -0.0748 -0.2757
  904MOL0     H19284   9.130   7.138   6.785  0.8787 -1.8890  0.3467
  904MOL0     H19285   9.270   7.247   6.813 -3.4930  2.0464  2.1824
  904MOL0     H19286   9.158   7.196   7.013  1.8352  3.2876 -0.8236
  904MOL0     H19287   9.185   7.021   6.994  1.1123 -1.3499  0.3252
  904MOL0     H19288   9.425   7.221   7.022  1.4920 -0.4135 -0.5888
  904MOL0     H19289   9.428   7.053   7.003  1.2438 -0.1623 -0.0855
  904MOL0     H19290   9.485   7.348   7.187  0.9356 -0.7923 -1.8972
  904MOL0     H19291   9.630   7.415   7.378 -0.3956  0.5243  1.7521
  904MOL0     H19292   9.716   7.571   7.780  0.0619  0.8880  0.2103
  904MOL0     H19293   9.893   7.631   7.957  0.7910 -0.5900  0.7905
  904MOL0     H19294  10.022   7.465   8.175  0.8151 -1.6978 -0.3383
  904MOL0     H19295  10.022   7.633   8.119 -2.4767 -1.2855  0.9026
  904MOL0     H19296  10.177   7.663   8.268 -3.3927  0.7492 -2.8997
  904MOL0     H19297  10.292   7.579   8.161  1.1897 -3.1166  0.3103
  904MOL0     H19298  10.131   7.429   8.371 -1.0256  1.4277 -0.1794
  904MOL0     H19299  10.307   7.479   8.385 -1.0905  1.9344 -0.4079
  904MOL0     H19300  10.201   7.286   8.178  0.0132  0.3826 -0.1478
  904MOL0     H19301  10.363   7.349   8.189  0.1514  1.2603  0.4885
  904MOL0     H19302  10.410   7.210   8.374  0.4344 -1.6028  0.3483
  904MOL0     H19303  10.317   7.118   8.264 -0.1776  0.4990 -0.9421
  904MOL0     H19304  10.108   7.157   8.409 -1.5317 -0.7692  2.6862
  904MOL0     H19305  10.203   7.264   8.515  1.7732 -1.5089  1.4192
  904MOL0     H19306  10.265   6.974   8.478  1.7845 -0.3036 -0.1480
  904MOL0     H19307  10.334   7.095   8.594  1.7261  0.0409 -1.4099
  904MOL0     H19308  10.207   6.937   8.704  0.1580  1.1593  1.7048
  904MOL0     H19309  10.064   6.961   8.598  0.4839  1.0237 -0.7045
  904MOL0     H19310  10.131   7.286   7.870  0.3152  1.4167  1.1602
  904MOL0     H19311   9.958   7.235   7.663 -3.9558  0.4818 -0.6297
  904MOL0     H19312   9.472   7.095   7.607  0.3790  4.3939  1.9997
  904MOL0     H19313   9.351   6.998   7.400  0.2490  0.8963 -3.2126
  904MOL0     H19314   9.892   6.798   7.074 -0.4722 -1.6941 -2.5475
  904MOL0     H19315  10.042   6.764   7.252  1.9304  2.5501  1.4450
  904MOL0     H19316  10.361   6.724   7.601 -0.4719  0.9764 -0.6474
  904MOL0     H19317  10.596   6.724   7.738  0.8776 -1.3947  0.7324
  904MOL0     H19318  10.997   6.845   7.585  1.0029  0.9790  1.3816
  904MOL0     H19319  10.931   6.704   7.513  4.1160 -1.1475 -0.5142
  904MOL0     H19320  11.102   6.639   7.692 -1.9959 -3.5416 -0.8141
  904MOL0     H19321  10.996   6.736   7.808 -2.1829  0.2561  0.1836
  904MOL0     H19322  10.935   6.473   7.644 -3.5157 -1.1707  0.2836
  904MOL0     H19323  10.828   6.569   7.748 -0.9335  0.0545 -3.6111
  904MOL0     H19324  11.062   6.530   7.915  1.6846  0.0170 -0.5183
  904MOL0     H19325  10.918   6.423   7.896 -1.1370  2.3088 -1.9693
  904MOL0     H19326  11.299   6.261   7.719 -2.2726 -2.7420 -3.1259
  904MOL0     H19327  10.798   6.768   7.370  2.1415 -0.8500  2.2892
  904MOL0     H19328  10.584   6.746   7.241  2.7962  4.8365 -0.0580
  905MOL0     O19329   2.821  10.988   9.388  0.2674 -0.1218 -0.3795
  905MOL0     C19330   2.863  10.883   9.425 -0.2408  0.6942 -0.5574
  905MOL0     O19331   2.787  10.779   9.467 -0.0234 -0.2180  0.2628
  905MOL0     C19332   2.659  10.798   9.500 -0.2906  0.2690  0.4520
  905MOL0     C19333   2.616  10.825   9.634 -0.4478  0.7162  0.5059
  905MOL0     C19334   2.490  10.880   9.657  0.1765 -1.2357  0.8647
  905MOL0     C19335   2.395  10.896   9.549  0.4626 -0.1425 -0.4400
  905MOL0     O19336   2.277  10.954   9.582  0.5855  0.7042  1.0917
  905MOL0     C19337   2.152  10.910   9.532 -0.3297 -0.1963  0.3042
  905MOL0     C19338   2.035  10.986   9.600  0.8749  0.2232  0.0251
  905MOL0     C19339   2.030  11.130   9.560 -0.3159 -0.2559 -0.0303
  905MOL0     C19340   1.944  11.214   9.652 -0.0513  0.1788  1.0238
  905MOL0     C19341   1.997  11.244   9.796  0.3013  0.3476  0.6634
  905MOL0     C19342   1.956  11.384   9.833 -0.5810 -0.5808  0.2276
  905MOL0     C19343   1.804  11.381   9.854  0.3524  0.4209 -0.0677
  905MOL0     C19344   1.749  11.513   9.882  0.3689  0.0197 -0.1759
  905MOL0     N19345   1.789  11.568  10.016  0.7749  0.2161  0.0631
  905MOL0     C19346   1.722  11.523  10.126 -0.0939  0.8089  0.3890
  905MOL0     C19347   1.757  11.608  10.226  0.3329  0.7480  0.2309
  905MOL0     C19348   1.709  11.582  10.369  0.5565  0.6494 -0.3970
  905MOL0     C19349   1.807  11.476  10.440 -0.7364  0.3918  0.3683
  905MOL0     C19350   1.955  11.522  10.467  0.1874  0.5361 -0.3640
  905MOL0     C19351   2.043  11.421  10.542  0.7752  0.1317 -0.0695
  905MOL0     O19352   2.124  11.491  10.640 -0.8083 -0.2770  0.8134
  905MOL0     C19353   2.236  11.413  10.685  0.2045  0.6468 -0.3451
  905MOL0     C19354   2.337  11.467  10.759 -0.7902 -0.3828 -0.2561
  905MOL0     C19355   2.450  11.407  10.801 -0.2220  0.5419  1.0213
  905MOL0     C19356   2.464  11.272  10.784 -0.5884 -0.2913 -0.2785
  905MOL0     C19357   2.589  11.202  10.830 -0.1176  0.5844  0.1537
  905MOL0     O19358   2.703  11.273  10.872 -0.0777 -0.5703 -0.0095
  905MOL0     C19359   2.817  11.223  10.928  0.4876 -0.5225  0.4826
  905MOL0     C19360   2.845  11.138  11.035  0.4101  0.4024  0.0964
  905MOL0     C19361   2.980  11.105  11.073 -0.6176 -0.0652 -0.1749
  905MOL0     C19362   3.083  11.165  11.003 -0.3650 -0.3907  0.5867
  905MOL0     O19363   3.218  11.147  11.009 -0.7912  1.2066 -0.0971
  905MOL0     C19364   3.282  11.043  11.091 -1.2193  0.4539  0.0417
  905MOL0     C19365   3.431  11.084  11.100 -0.7102 -0.8366 -0.2319
  905MOL0     C19366   3.500  10.973  11.179 -0.6080  0.2617 -0.3524
  905MOL0     C19367   3.514  10.827  11.115 -0.4358  0.0462 -0.1219
  905MOL0     C19368   3.586  10.739  11.201  0.3519 -0.6558 -0.6331
  905MOL0     C19369   3.612  10.595  11.143 -0.8752  0.0611  0.7064
  905MOL0     C19370   3.725  10.521  11.213 -0.5509 -0.4358 -0.4098
  905MOL0     C19371   3.845  10.490  11.116  0.3444 -0.9077  0.3966
  905MOL0    Cl19372   3.790  10.376  10.992  0.1290  0.6492  0.0041
  905MOL0     C19373   3.054  11.260  10.907 -0.0964  0.6296 -0.8586
  905MOL0     C19374   2.926  11.280  10.863  0.7424  0.8794 -0.3104
  905MOL0     O19375   2.583  11.077  10.842 -0.5003  0.0587 -0.0405
  905MOL0     C19376   2.360  11.202  10.712 -0.7854 -1.1413 -0.2719
  905MOL0     C19377   2.249  11.271  10.662  0.0119  0.1672  0.3927
  905MOL0     N19378   1.852  11.695  10.174 -0.0319  0.2287  0.0052
  905MOL0     N19379   1.875  11.681  10.046 -0.2031  0.4439 -0.7147
  905MOL0     C19380   2.434  10.849   9.422 -0.2936 -0.5232  0.3680
  905MOL0     C19381   2.563  10.802   9.401  0.6308  0.6425  0.3614
  905MOL0     C19382   3.007  10.872   9.422  0.3423  0.6144  0.5672
  905MOL0     C19383   3.061  10.758   9.479 -0.3807 -0.2169  0.8833
  905MOL0     C19384   3.199  10.728   9.463  0.1848  0.4124 -0.7303
  905MOL0     C19385   3.282  10.810   9.392 -0.3619 -0.0004  0.0046
  905MOL0     O19386   3.413  10.754   9.383 -0.6173 -0.1125 -0.3925
  905MOL0     C19387   3.511  10.831   9.322 -0.1015 -0.5922 -0.9621
  905MOL0     C19388   3.627  10.752   9.280  0.6690  0.5910  0.1187
  905MOL0     C19389   3.753  10.819   9.242  0.0657 -0.0411 -1.0115
  905MOL0     C19390   3.861  10.729   9.188 -0.7248  0.5548 -0.0926
  905MOL0     C19391   3.976  10.808   9.144  0.1997 -0.6309 -1.0692
  905MOL0     C19392   4.071  10.876   9.097  0.0162  1.2924  0.0771
  905MOL0     C19393   3.231  10.931   9.335  0.2734 -0.5582  0.6413
  905MOL0     C19394   3.096  10.958   9.361  0.0978 -0.3074 -0.3042
  905MOL0     H19395   2.689  10.798   9.710 -0.4131  0.3977  0.3603
  905MOL0     H19396   2.463  10.909   9.758 -1.2957  2.1184 -0.3696
  905MOL0     H19397   2.142  10.804   9.555  3.6823 -1.0601 -1.1149
  905MOL0     H19398   2.156  10.933   9.426  1.5643  2.2495  0.8217
  905MOL0     H19399   2.047  10.979   9.709 -2.5207  0.1198  0.5146
  905MOL0     H19400   1.947  10.928   9.571  3.4152 -4.5852  0.9946
  905MOL0     H19401   1.999  11.138   9.455  1.5230 -0.5487 -0.6422
  905MOL0     H19402   2.130  11.175   9.568 -1.6319  3.0250 -0.6570
  905MOL0     H19403   1.931  11.306   9.592  1.3785 -0.3939 -0.2524
  905MOL0     H19404   1.847  11.167   9.663  0.7893 -2.6663 -2.0376
  905MOL0     H19405   2.106  11.237   9.791  0.3434  0.9795  0.5726
  905MOL0     H19406   1.956  11.177   9.872 -1.1437 -1.0741 -1.2852
  905MOL0     H19407   1.989  11.445   9.749  4.5503 -0.5909  1.8740
  905MOL0     H19408   2.014  11.422   9.918  1.9704 -1.5085 -1.0064
  905MOL0     H19409   1.743  11.354   9.766 -0.3927  1.7833 -0.0015
  905MOL0     H19410   1.784  11.307   9.932 -0.1379  1.7114  1.0669
  905MOL0     H19411   1.639  11.517   9.887  0.3633 -0.7102  0.4429
  905MOL0     H19412   1.776  11.574   9.796  1.6853 -2.5653 -1.6993
  905MOL0     H19413   1.654  11.441  10.146 -0.4505  1.0902  0.3365
  905MOL0     H19414   1.609  11.538  10.369  0.9101 -0.1798 -1.1128
  905MOL0     H19415   1.714  11.669  10.435 -1.0613 -0.1936  0.9094
  905MOL0     H19416   1.817  11.386  10.379 -0.0091  0.1174  0.8795
  905MOL0     H19417   1.761  11.440  10.533  3.6600 -0.2313  2.5427
  905MOL0     H19418   1.999  11.547  10.370  0.3935 -0.7483 -0.6261
  905MOL0     H19419   1.944  11.612  10.529  1.6733  0.3747  0.1678
  905MOL0     H19420   2.114  11.371  10.475  3.4472  0.8930  2.0194
  905MOL0     H19421   1.973  11.357  10.598 -2.1621  1.4691 -1.9628
  905MOL0     H19422   2.330  11.572  10.787 -2.1585 -0.7228  0.7952
  905MOL0     H19423   2.525  11.471  10.846  0.2353  0.9877 -0.3355
  905MOL0     H19424   2.767  11.090  11.094 -0.0328 -1.2744 -1.7639
  905MOL0     H19425   2.991  11.034  11.154 -0.1103  0.3913  0.1579
  905MOL0     H19426   3.281  10.944  11.045 -1.1104  0.1853  0.5979
  905MOL0     H19427   3.243  11.039  11.193 -1.2763  2.3840  0.1433
  905MOL0     H19428   3.425  11.180  11.152 -2.8968 -0.4529 -1.0926
  905MOL0     H19429   3.472  11.097  11.000  0.8768 -1.0122  0.3638
  905MOL0     H19430   3.443  10.956  11.271 -2.4669  0.3998 -1.4505
  905MOL0     H19431   3.603  11.006  11.198  0.0379 -1.1288 -1.2562
  905MOL0     H19432   3.420  10.776  11.092 -2.2241  2.8060  0.5952
  905MOL0     H19433   3.570  10.836  11.021 -1.6047  3.2028 -0.6400
  905MOL0     H19434   3.531  10.719  11.293 -2.8047 -1.5070 -2.5327
  905MOL0     H19435   3.688  10.772  11.220  0.8010 -1.7829 -0.9788
  905MOL0     H19436   3.623  10.588  11.034  4.2948 -2.9743  1.0592
  905MOL0     H19437   3.517  10.544  11.160 -0.2964 -1.8200 -1.2125
  905MOL0     H19438   3.762  10.585  11.293  1.3000 -0.5993 -1.0860
  905MOL0     H19439   3.693  10.423  11.250 -0.0095 -2.3483 -4.4402
  905MOL0     H19440   3.927  10.438  11.166  1.4021  0.4460  0.1143
  905MOL0     H19441   3.881  10.579  11.064 -1.4970 -1.6481 -2.3657
  905MOL0     H19442   3.135  11.315  10.860  0.5599  2.0223  1.7508
  905MOL0     H19443   2.908  11.331  10.769 -1.6232  1.5145  0.4239
  905MOL0     H19444   2.364  11.094  10.726  2.2482 -0.8446  2.2716
  905MOL0     H19445   2.178  11.207  10.610 -0.4195  0.8357  0.1460
  905MOL0     H19446   2.364  10.832   9.341  1.4607 -2.9551 -0.7556
  905MOL0     H19447   2.585  10.779   9.298  0.4548  0.0402  0.4525
  905MOL0     H19448   3.002  10.686   9.535 -2.6326 -1.4565 -2.7211
  905MOL0     H19449   3.247  10.644   9.513 -2.2514  1.0877  3.1564
  905MOL0     H19450   3.554  10.907   9.388 -0.9093  0.5817 -1.7469
  905MOL0     H19451   3.460  10.880   9.238  2.6262 -1.0861 -3.0167
  905MOL0     H19452   3.653  10.680   9.358  0.1325  0.2139 -0.0432
  905MOL0     H19453   3.595  10.707   9.185 -0.4058  1.6083 -0.0172
  905MOL0     H19454   3.800  10.874   9.324  1.2616 -0.4644 -1.3916
  905MOL0     H19455   3.719  10.893   9.169 -0.3558  2.2614  1.3736
  905MOL0     H19456   3.892  10.665   9.271  1.1937  1.6539  0.0874
  905MOL0     H19457   3.825  10.659   9.112  2.2367 -2.5546  1.1147
  905MOL0     H19458   4.157  10.924   9.056 -0.3050  0.1042 -2.1907
  905MOL0     H19459   3.287  10.998   9.271  1.1251  0.1622  2.0999
  905MOL0     H19460   3.039  11.040   9.319 -2.3524 -1.3922  0.7314
  906MOL0     O19461  10.012   4.773   1.851  0.2788  0.8704 -0.3286
  906MOL0     C19462  10.072   4.707   1.931 -0.7325 -0.1088  0.1495
  906MOL0     O19463  10.029   4.595   2.003 -0.1011 -0.0971 -0.5001
  906MOL0     C19464   9.900   4.542   1.967  0.2323 -0.3310 -0.3649
  906MOL0     C19465   9.791   4.555   2.056  0.2677  0.7261  0.4412
  906MOL0     C19466   9.668   4.488   2.018 -1.0580 -0.3996 -0.3912
  906MOL0     C19467   9.644   4.439   1.887 -0.4284  0.1581 -0.7984
  906MOL0     O19468   9.524   4.378   1.846 -1.5854  0.8001  0.3358
  906MOL0     C19469   9.401   4.398   1.925 -0.6543  0.7590  0.6199
  906MOL0     C19470   9.298   4.324   1.843 -0.9301 -0.1507  0.1983
  906MOL0     C19471   9.153   4.353   1.888  1.0039  1.0713  1.0459
  906MOL0     C19472   9.049   4.274   1.787  0.8044  0.2926 -0.0415
  906MOL0     C19473   8.922   4.223   1.860  0.8930 -0.8107  0.3632
  906MOL0     C19474   8.936   4.134   1.985  0.0512 -0.1947 -0.3872
  906MOL0     C19475   8.807   4.086   2.050 -0.2577 -0.5334  0.5583
  906MOL0     C19476   8.821   3.992   2.168 -0.1487  0.4537  0.2289
  906MOL0     N19477   8.861   3.852   2.125 -0.3999 -0.2385 -0.2837
  906MOL0     C19478   8.991   3.813   2.092  0.5052 -0.0075 -0.6334
  906MOL0     C19479   8.980   3.686   2.046  0.2045 -0.1697  0.3365
  906MOL0     C19480   9.088   3.603   1.993 -0.1605 -0.0107 -0.4279
  906MOL0     C19481   9.065   3.495   1.885 -0.0968 -0.8009  0.2133
  906MOL0     C19482   8.990   3.562   1.765 -0.8709 -0.7359 -0.4671
  906MOL0     C19483   8.952   3.453   1.667 -0.1563  0.4385  0.1820
  906MOL0     O19484   8.847   3.375   1.725  0.1486 -0.6980 -0.3079
  906MOL0     C19485   8.742   3.341   1.649 -0.3215  0.3598  0.5821
  906MOL0     C19486   8.617   3.328   1.707 -0.8848 -0.2263  0.6047
  906MOL0     C19487   8.508   3.303   1.634  0.0911  1.1689  0.3913
  906MOL0     C19488   8.516   3.264   1.496  1.3561  1.1381  0.1221
  906MOL0     C19489   8.404   3.252   1.404 -0.8150 -0.0896 -0.4437
  906MOL0     O19490   8.427   3.263   1.277 -0.0708 -0.3001 -0.3533
  906MOL0     C19491   8.332   3.321   1.190  0.2270  0.8722  0.2429
  906MOL0     C19492   8.263   3.242   1.098 -0.0668 -0.8032 -0.1957
  906MOL0     C19493   8.172   3.301   1.014  0.1876 -0.0045 -0.3712
  906MOL0     C19494   8.136   3.441   1.025  0.2876  0.7195  0.2974
  906MOL0     O19495   8.050   3.512   0.950 -0.0724  0.2416 -0.3916
  906MOL0     C19496   7.952   3.440   0.883  0.1139 -0.1667  0.3084
  906MOL0     C19497   7.835   3.374   0.965  0.0857  0.2584  0.0904
  906MOL0     C19498   7.797   3.460   1.083 -0.0017  0.1111  0.3487
  906MOL0     C19499   7.753   3.600   1.042 -0.8598  0.5429  0.0312
  906MOL0     C19500   7.671   3.669   1.143  0.6722  0.1918 -1.5454
  906MOL0     C19501   7.757   3.701   1.268 -0.7276 -0.5706  1.1511
  906MOL0     C19502   7.703   3.838   1.334  0.9080 -0.0299  0.3549
  906MOL0     C19503   7.786   3.871   1.461  0.0917 -0.1478 -0.7371
  906MOL0    Cl19504   7.776   4.040   1.514  0.0352 -0.4348  0.1667
  906MOL0     C19505   8.203   3.515   1.130  0.0777 -1.1244  0.4082
  906MOL0     C19506   8.303   3.454   1.209  0.1993 -0.3452 -0.1184
  906MOL0     O19507   8.292   3.245   1.446 -0.5270  0.8979 -0.0433
  906MOL0     C19508   8.638   3.261   1.432  0.2097  1.2891 -0.3265
  906MOL0     C19509   8.753   3.306   1.509  0.8844  0.4209 -1.0581
  906MOL0     N19510   8.845   3.655   2.049 -0.5124 -0.2590  0.0422
  906MOL0     N19511   8.771   3.755   2.097 -0.3429 -0.0039  0.1959
  906MOL0     C19512   9.753   4.440   1.796 -0.6276  0.1408  0.4168
  906MOL0     C19513   9.880   4.474   1.842  0.9691 -0.3874 -0.6468
  906MOL0     C19514  10.207   4.750   1.960 -1.8626  0.6548  0.4588
  906MOL0     C19515  10.247   4.890   1.956  0.0875  0.2530  0.4847
  906MOL0     C19516  10.368   4.937   2.001 -1.3433 -0.6696 -0.3407
  906MOL0     C19517  10.471   4.847   2.027 -0.1972 -0.0504  0.0297
  906MOL0     O19518  10.581   4.903   2.085 -0.3848 -0.4020 -0.2979
  906MOL0     C19519  10.677   4.820   2.148  0.6531  0.2572 -0.6303
  906MOL0     C19520  10.790   4.904   2.202 -0.6719 -0.4401 -0.1425
  906MOL0     C19521  10.848   4.970   2.069 -0.6479  1.1880  0.2286
  906MOL0     C19522  11.002   4.975   2.079 -0.5524 -0.1887  0.5152
  906MOL0     C19523  11.064   5.090   2.157 -1.1592  0.0380  1.2145
  906MOL0     C19524  11.105   5.184   2.228 -0.2283  0.5718  0.4147
  906MOL0     C19525  10.452   4.706   2.010  0.1769 -0.8215 -0.6916
  906MOL0     C19526  10.319   4.663   1.982 -0.3667  0.4385 -0.1976
  906MOL0     H19527   9.795   4.583   2.161 -1.5215 -3.6990  1.9546
  906MOL0     H19528   9.587   4.485   2.090 -1.9721 -0.0643 -1.3750
  906MOL0     H19529   9.371   4.503   1.920 -0.9282  0.6596  0.0619
  906MOL0     H19530   9.407   4.359   2.027  1.0571  1.9212  1.0109
  906MOL0     H19531   9.332   4.221   1.859  1.7259  0.8975  1.9450
  906MOL0     H19532   9.305   4.360   1.740 -2.7744  2.0010  0.7513
  906MOL0     H19533   9.136   4.461   1.889 -3.0607  0.7404  5.0141
  906MOL0     H19534   9.128   4.310   1.986  1.5332 -0.0975  0.6834
  906MOL0     H19535   9.022   4.331   1.697  0.8453  0.7364  0.2223
  906MOL0     H19536   9.107   4.186   1.759  2.1039  1.8395 -2.5462
  906MOL0     H19537   8.865   4.157   1.793  0.6867 -0.0689 -0.2079
  906MOL0     H19538   8.855   4.306   1.882 -0.5481 -1.9988  0.6530
  906MOL0     H19539   8.989   4.190   2.062  0.2441  0.6680 -1.1356
  906MOL0     H19540   9.002   4.049   1.967  1.0686 -0.9586  5.1555
  906MOL0     H19541   8.754   4.173   2.090 -2.6056 -2.6923  2.5158
  906MOL0     H19542   8.738   4.041   1.979 -2.0455  0.4748  1.5909
  906MOL0     H19543   8.728   3.984   2.224  0.4287  2.4427  1.6009
  906MOL0     H19544   8.897   4.036   2.234  1.1280  0.1677 -1.0078
  906MOL0     H19545   9.074   3.870   2.130  0.3845 -0.0013 -0.3713
  906MOL0     H19546   9.151   3.547   2.063  0.5970 -4.0466 -3.9182
  906MOL0     H19547   9.157   3.678   1.954  0.2078  1.1523  2.2132
  906MOL0     H19548   8.998   3.427   1.940  0.1572 -0.4939  0.9113
  906MOL0     H19549   9.157   3.438   1.869  0.9267  1.0684 -0.9224
  906MOL0     H19550   8.900   3.613   1.799 -1.7348 -0.1864 -3.3597
  906MOL0     H19551   9.047   3.638   1.711 -2.9194  0.2577 -1.2992
  906MOL0     H19552   9.036   3.392   1.631 -0.3517  0.5312 -0.4469
  906MOL0     H19553   8.922   3.511   1.579 -1.2321 -1.5438 -0.8277
  906MOL0     H19554   8.592   3.361   1.807  0.5430  7.3061 -0.9431
  906MOL0     H19555   8.412   3.289   1.684 -1.7432  0.5088 -3.0050
  906MOL0     H19556   8.280   3.135   1.085 -0.9976 -1.0981  0.8437
  906MOL0     H19557   8.123   3.246   0.934  0.8306  0.8617 -1.3852
  906MOL0     H19558   8.001   3.368   0.816  1.7486  1.5131 -0.3733
  906MOL0     H19559   7.900   3.507   0.814  1.8801  0.4677 -0.4719
  906MOL0     H19560   7.868   3.282   1.016 -0.1966  0.3296  0.4083
  906MOL0     H19561   7.746   3.357   0.904 -0.1051  1.2720  0.0756
  906MOL0     H19562   7.881   3.467   1.152 -0.7519  2.6081  1.1229
  906MOL0     H19563   7.716   3.414   1.141  0.6973 -1.6057  0.0271
  906MOL0     H19564   7.839   3.667   1.030  1.5666 -2.2932  0.6317
  906MOL0     H19565   7.688   3.582   0.956 -2.5841 -0.6079  1.4973
  906MOL0     H19566   7.591   3.605   1.181  0.5834  1.2229  0.1362
  906MOL0     H19567   7.625   3.761   1.107 -0.4812  0.0407 -0.5423
  906MOL0     H19568   7.856   3.733   1.234 -1.3473 -0.4940 -0.6784
  906MOL0     H19569   7.769   3.619   1.339  2.3999 -0.7215  0.6227
  906MOL0     H19570   7.690   3.916   1.258 -0.4830  1.2612  1.8244
  906MOL0     H19571   7.602   3.812   1.369 -0.0816  1.6821 -1.0461
  906MOL0     H19572   7.890   3.854   1.430  0.8030 -1.6380  2.0682
  906MOL0     H19573   7.769   3.804   1.546 -0.9420 -2.4679 -2.6511
  906MOL0     H19574   8.164   3.612   1.160  0.0986 -1.6862  2.4059
  906MOL0     H19575   8.346   3.513   1.290  0.4547 -1.0653  0.2739
  906MOL0     H19576   8.638   3.218   1.333 -1.6394 -0.2872  0.2914
  906MOL0     H19577   8.853   3.310   1.467  0.5565  0.1957 -1.8851
  906MOL0     H19578   9.741   4.415   1.692 -1.4644  0.1150  0.5116
  906MOL0     H19579   9.966   4.488   1.778 -1.2744  2.4509 -3.3970
  906MOL0     H19580  10.171   4.968   1.950 -1.5039 -1.2672 -0.0918
  906MOL0     H19581  10.394   5.041   2.015  0.0992 -1.3596  3.2077
  906MOL0     H19582  10.723   4.750   2.078 -0.9848 -0.8758 -0.6167
  906MOL0     H19583  10.632   4.768   2.233 -1.7070  1.7936 -0.8322
  906MOL0     H19584  10.757   4.979   2.274 -1.9923 -0.4407 -0.7164
  906MOL0     H19585  10.857   4.837   2.257  0.8011  0.2425 -1.0462
  906MOL0     H19586  10.801   5.069   2.064 -1.5458  0.7086 -2.0041
  906MOL0     H19587  10.818   4.923   1.976  1.7066  1.2651 -0.6421
  906MOL0     H19588  11.055   4.883   2.104 -1.3060 -1.6677 -2.8110
  906MOL0     H19589  11.029   4.984   1.973 -1.7928  2.0890  0.3271
  906MOL0     H19590  11.149   5.262   2.287 -0.2917 -0.6139  2.1081
  906MOL0     H19591  10.520   4.622   2.015  0.1041 -0.9083 -1.0876
  906MOL0     H19592  10.298   4.556   1.983 -2.3500  0.7860 -0.8364
  907MOL0     O19593   3.782   2.231   2.897  0.1730  0.9576 -1.1552
  907MOL0     C19594   3.803   2.112   2.854 -0.6042 -0.5313  1.0330
  907MOL0     O19595   3.855   2.014   2.927 -0.1915 -0.2065 -1.1051
  907MOL0     C19596   3.893   2.057   3.059 -0.4240 -0.3618 -0.1093
  907MOL0     C19597   3.808   2.055   3.173  0.6167 -0.8533  0.7226
  907MOL0     C19598   3.867   2.068   3.298 -0.6940  0.4096 -0.1057
  907MOL0     C19599   4.007   2.082   3.318 -0.0282 -1.1118 -0.8167
  907MOL0     O19600   4.060   2.101   3.453  0.1071  0.1350 -0.2737
  907MOL0     C19601   4.065   2.249   3.476  0.1747 -0.1533 -0.4205
  907MOL0     C19602   4.120   2.283   3.611  0.2032  0.5053 -0.3198
  907MOL0     C19603   4.053   2.189   3.716  0.2606 -0.4730  1.9538
  907MOL0     C19604   4.100   2.233   3.852 -0.0437 -0.2308 -1.2045
  907MOL0     C19605   4.074   2.126   3.965 -0.7621  0.4561  0.7286
  907MOL0     C19606   4.173   2.009   3.967  0.6804  0.5516  0.4066
  907MOL0     C19607   4.320   2.060   4.000 -0.1207 -0.4832 -0.4444
  907MOL0     C19608   4.331   2.117   4.146 -0.7741  0.0439  0.3434
  907MOL0     N19609   4.284   2.032   4.248 -0.0365  0.5653 -0.6961
  907MOL0     C19610   4.324   1.904   4.259 -0.2190  0.3475  0.5415
  907MOL0     C19611   4.302   1.862   4.385 -0.1298  0.1136  0.4525
  907MOL0     C19612   4.335   1.726   4.445 -0.5626  0.3520  0.3083
  907MOL0     C19613   4.348   1.729   4.597  0.0326  0.1143 -1.1636
  907MOL0     C19614   4.353   1.586   4.658 -0.1636  0.0080 -0.6902
  907MOL0     C19615   4.362   1.583   4.810  0.6009  0.9558 -0.6470
  907MOL0     O19616   4.490   1.641   4.858  0.5789 -0.2879  0.4455
  907MOL0     C19617   4.538   1.593   4.976 -0.1873 -0.1882 -0.1718
  907MOL0     C19618   4.669   1.622   4.991 -0.0703 -0.1078  0.4132
  907MOL0     C19619   4.735   1.590   5.105 -0.9551 -0.9865 -0.1187
  907MOL0     C19620   4.680   1.505   5.206  0.1335 -0.4826 -0.6627
  907MOL0     C19621   4.768   1.448   5.314  1.2045  0.1413 -0.0015
  907MOL0     O19622   4.699   1.379   5.407  0.0244 -0.4068  0.2662
  907MOL0     C19623   4.786   1.339   5.504 -0.3255  0.7894  0.7108
  907MOL0     C19624   4.900   1.256   5.484 -0.7670 -0.5408 -0.3523
  907MOL0     C19625   4.995   1.241   5.586 -0.3930  0.7141  0.1607
  907MOL0     C19626   4.970   1.283   5.714 -0.3913  0.1737 -0.5488
  907MOL0     O19627   5.050   1.274   5.828  0.1626 -0.0267  0.2748
  907MOL0     C19628   5.191   1.286   5.803 -0.0687 -0.2906  1.0612
  907MOL0     C19629   5.296   1.248   5.902 -0.2045  0.2687  0.4702
  907MOL0     C19630   5.346   1.099   5.893  0.0195  1.1651  0.2641
  907MOL0     C19631   5.421   1.038   6.015  0.6309  0.5068 -0.0930
  907MOL0     C19632   5.568   1.081   6.011 -0.5057  0.9954  0.6408
  907MOL0     C19633   5.654   0.968   6.057 -0.9813 -0.1179 -0.3507
  907MOL0     C19634   5.655   0.966   6.212 -0.6136  0.0280 -0.0223
  907MOL0     C19635   5.739   0.847   6.268 -0.3746 -0.5238  0.3928
  907MOL0    Cl19636   5.691   0.810   6.438 -0.0074  0.0770 -0.1880
  907MOL0     C19637   4.844   1.346   5.739  0.1802  0.4177  0.3127
  907MOL0     C19638   4.758   1.381   5.638  0.3676 -0.3815 -0.5597
  907MOL0     O19639   4.892   1.470   5.308  0.1946  0.6094  0.1383
  907MOL0     C19640   4.549   1.471   5.187 -0.4276  0.3725 -0.2546
  907MOL0     C19641   4.476   1.519   5.080  0.6936 -0.4449  0.7980
  907MOL0     N19642   4.251   1.973   4.453  0.3668  0.0289  0.6414
  907MOL0     N19643   4.248   2.072   4.377  0.6123 -1.0620  0.3975
  907MOL0     C19644   4.085   2.093   3.202  0.0928  0.0984 -0.6515
  907MOL0     C19645   4.032   2.061   3.081 -0.7270 -0.2178  0.9287
  907MOL0     C19646   3.753   2.073   2.718 -0.3096  0.2819 -0.2218
  907MOL0     C19647   3.751   1.949   2.661 -0.5715 -0.1932 -0.6728
  907MOL0     C19648   3.692   1.913   2.540 -0.5011 -0.4360  1.0371
  907MOL0     C19649   3.647   2.017   2.459  0.0064  0.9024  0.8009
  907MOL0     O19650   3.589   2.002   2.328 -0.7747 -0.0558  0.4694
  907MOL0     C19651   3.553   1.868   2.277  0.0171 -0.2430 -0.5505
  907MOL0     C19652   3.512   1.853   2.135 -0.0684 -0.4666  0.3173
  907MOL0     C19653   3.481   1.702   2.105  0.0025  0.5401 -0.5008
  907MOL0     C19654   3.353   1.686   2.023 -0.3206 -0.9612  0.8835
  907MOL0     C19655   3.302   1.550   2.028 -0.1258  0.9209 -0.4444
  907MOL0     C19656   3.285   1.434   2.031  1.6005  0.3415  1.0041
  907MOL0     C19657   3.655   2.151   2.511 -0.0357  1.0916  0.9601
  907MOL0     C19658   3.709   2.180   2.635  0.3766 -0.3585 -0.6666
  907MOL0     H19659   3.703   2.038   3.156 -0.7402  0.9327  5.6558
  907MOL0     H19660   3.806   2.060   3.387 -0.7773 -0.4802 -0.2368
  907MOL0     H19661   3.963   2.285   3.466  0.2762 -0.3597 -2.6399
  907MOL0     H19662   4.114   2.310   3.400 -1.8853 -0.9085 -2.4591
  907MOL0     H19663   4.106   2.389   3.634 -1.2627  0.2003  0.3148
  907MOL0     H19664   4.228   2.265   3.611  0.0421 -0.5447 -0.9343
  907MOL0     H19665   4.087   2.087   3.697 -3.7775 -1.6720 -0.0616
  907MOL0     H19666   3.943   2.187   3.709  0.1550 -0.1251  3.2044
  907MOL0     H19667   4.203   2.269   3.859  0.2880 -1.4149  2.4075
  907MOL0     H19668   4.032   2.313   3.882 -0.2481 -0.6377 -0.5508
  907MOL0     H19669   3.974   2.087   3.948 -1.6355  2.3934  1.1438
  907MOL0     H19670   4.081   2.176   4.062 -3.9458  1.5871  0.4782
  907MOL0     H19671   4.161   1.968   3.866 -3.5390  2.5534 -0.1246
  907MOL0     H19672   4.142   1.938   4.044 -3.1002  2.7128  1.1098
  907MOL0     H19673   4.403   1.991   3.986  0.1682  0.2298 -2.6039
  907MOL0     H19674   4.345   2.137   3.926  1.7890 -0.5248  0.1118
  907MOL0     H19675   4.284   2.215   4.161  2.6818  2.5233 -3.0381
  907MOL0     H19676   4.436   2.137   4.169 -0.7092  3.0981 -1.9982
  907MOL0     H19677   4.364   1.833   4.188 -2.6266 -3.7946  2.9241
  907MOL0     H19678   4.437   1.702   4.413  0.1486  0.2092  2.5398
  907MOL0     H19679   4.266   1.647   4.413 -0.0156 -0.1271  0.3018
  907MOL0     H19680   4.265   1.782   4.645  0.4066  3.1294 -3.5437
  907MOL0     H19681   4.442   1.777   4.623  0.1066 -0.6442  0.0241
  907MOL0     H19682   4.272   1.517   4.633  0.0253 -1.1033  1.5299
  907MOL0     H19683   4.441   1.535   4.616  1.2713  1.3726  0.5351
  907MOL0     H19684   4.346   1.484   4.853  4.3568  1.1101  1.5946
  907MOL0     H19685   4.282   1.640   4.858  2.6049  2.4238  1.1691
  907MOL0     H19686   4.726   1.675   4.915  0.2828 -3.9639 -2.2927
  907MOL0     H19687   4.835   1.634   5.107 -1.6904  0.7737  1.4207
  907MOL0     H19688   4.924   1.203   5.393 -0.2379 -2.0394  0.6267
  907MOL0     H19689   5.086   1.184   5.567 -0.6075 -0.6368  2.7144
  907MOL0     H19690   5.202   1.392   5.779  0.4440  0.0485  2.6623
  907MOL0     H19691   5.221   1.231   5.714  0.3837 -0.0571  1.0663
  907MOL0     H19692   5.246   1.267   5.997 -0.2598 -1.7535  0.8863
  907MOL0     H19693   5.377   1.321   5.901 -0.5958  0.7028 -0.5066
  907MOL0     H19694   5.412   1.087   5.807 -1.4318 -0.1405 -0.7265
  907MOL0     H19695   5.256   1.040   5.875  0.3148  1.2727 -1.7118
  907MOL0     H19696   5.382   1.078   6.110 -0.4217 -0.9631  0.1204
  907MOL0     H19697   5.414   0.929   6.008  2.4167  0.4678 -2.1265
  907MOL0     H19698   5.580   1.170   6.073  0.2759  0.9135  0.6116
  907MOL0     H19699   5.599   1.100   5.908 -2.6343  1.6228  0.0544
  907MOL0     H19700   5.757   0.998   6.034  0.1558  1.5247  5.1805
  907MOL0     H19701   5.623   0.869   6.023 -3.8076  0.2209  0.9794
  907MOL0     H19702   5.712   1.052   6.247 -0.7105  0.3103 -0.5610
  907MOL0     H19703   5.551   0.963   6.244 -0.5796  3.8681  0.9019
  907MOL0     H19704   5.845   0.874   6.272 -1.2601  3.5975  4.3153
  907MOL0     H19705   5.724   0.764   6.200  2.6040 -2.3108  1.7223
  907MOL0     H19706   4.808   1.394   5.829 -1.1614 -3.6630  2.1747
  907MOL0     H19707   4.669   1.438   5.662  2.7194  2.5766  2.0996
  907MOL0     H19708   4.505   1.408   5.263  3.1075 -0.2380  1.5098
  907MOL0     H19709   4.372   1.489   5.079  0.5974 -0.2898 -2.2984
  907MOL0     H19710   4.193   2.097   3.212 -0.0229 -0.8937  1.6060
  907MOL0     H19711   4.094   2.065   2.992  1.0309 -4.5935  1.6789
  907MOL0     H19712   3.789   1.877   2.733  0.7907  1.4857  0.3737
  907MOL0     H19713   3.667   1.814   2.504 -2.1140 -0.3682  1.8689
  907MOL0     H19714   3.482   1.831   2.352 -2.7130  0.6564 -2.4916
  907MOL0     H19715   3.643   1.806   2.280 -1.3712 -2.3530 -0.0534
  907MOL0     H19716   3.417   1.905   2.122  1.5114  2.0480 -2.4298
  907MOL0     H19717   3.591   1.900   2.075  0.4665 -1.8118 -0.0711
  907MOL0     H19718   3.449   1.656   2.199 -1.5418  1.5088 -0.5150
  907MOL0     H19719   3.567   1.648   2.064 -2.1994 -2.7770 -1.1815
  907MOL0     H19720   3.280   1.756   2.065  2.4006  2.3752  0.5219
  907MOL0     H19721   3.373   1.722   1.921  1.0731 -0.6228  1.2499
  907MOL0     H19722   3.271   1.328   2.025 -2.4207  0.2577  5.3752
  907MOL0     H19723   3.624   2.230   2.444 -2.3882  0.3212  1.0395
  907MOL0     H19724   3.712   2.282   2.674 -1.1057 -0.2575 -0.7415
  908MOL0     O19725   7.724   5.239   9.946 -0.0970 -0.1531  0.1919
  908MOL0     C19726   7.781   5.331   9.880  0.9017  0.5114  1.4253
  908MOL0     O19727   7.712   5.431   9.819 -0.5027 -0.4302 -0.3052
  908MOL0     C19728   7.567   5.414   9.807 -0.8367 -0.3500 -0.7556
  908MOL0     C19729   7.517   5.440   9.685  0.3847  0.6304  0.5503
  908MOL0     C19730   7.377   5.414   9.656 -0.6313 -0.5520  0.0740
  908MOL0     C19731   7.306   5.352   9.752  1.2655  0.0353 -0.1108
  908MOL0     O19732   7.177   5.305   9.708  0.4330 -0.3665  0.0069
  908MOL0     C19733   7.059   5.336   9.784  0.5007 -0.4512 -0.0484
  908MOL0     C19734   6.944   5.229   9.768  1.1843  0.4580 -0.1776
  908MOL0     C19735   6.799   5.277   9.812  0.1620  0.0334  0.2624
  908MOL0     C19736   6.741   5.406   9.734  0.8692  0.5049  0.5287
  908MOL0     C19737   6.612   5.454   9.795 -1.4515  0.4265 -0.8201
  908MOL0     C19738   6.638   5.499   9.939  0.3423  0.3333  0.4453
  908MOL0     C19739   6.527   5.595   9.978 -1.8656 -0.2730 -0.8709
  908MOL0     C19740   6.397   5.524  10.021 -0.3472 -0.3016  0.5211
  908MOL0     N19741   6.307   5.624  10.067 -0.4033  0.0299  0.8791
  908MOL0     C19742   6.180   5.637  10.012 -1.0395 -0.2916  0.3768
  908MOL0     C19743   6.109   5.705  10.107 -0.0027 -0.0375  0.3771
  908MOL0     C19744   5.964   5.754  10.102 -0.1887 -0.3382  0.0697
  908MOL0     C19745   5.863   5.656  10.047 -0.5721  0.0849  0.3304
  908MOL0     C19746   5.852   5.644   9.896  0.8479  0.2801  0.0825
  908MOL0     C19747   5.735   5.564   9.861  0.6992 -0.1606 -0.2410
  908MOL0     O19748   5.605   5.617   9.893 -0.6954  0.7997  0.5190
  908MOL0     C19749   5.503   5.548   9.843  0.3442 -0.4999 -0.1548
  908MOL0     C19750   5.469   5.412   9.874 -0.2273 -0.0867  0.1306
  908MOL0     C19751   5.358   5.350   9.823  0.1906  0.1717  0.4383
  908MOL0     C19752   5.271   5.423   9.739 -0.7723 -1.5563  0.0751
  908MOL0     C19753   5.153   5.357   9.675 -0.1835  0.3133  0.2455
  908MOL0     O19754   5.112   5.231   9.727 -0.2269 -0.2818 -0.7076
  908MOL0     C19755   5.011   5.167   9.657  0.2688  0.4416 -0.9708
  908MOL0     C19756   4.877   5.209   9.635  0.5040  0.1563  0.1674
  908MOL0     C19757   4.794   5.133   9.551  0.1509  0.2050 -0.5251
  908MOL0     C19758   4.835   5.014   9.490 -0.3661  0.3557  0.7174
  908MOL0     O19759   4.755   4.951   9.405  0.0452 -0.4222 -0.2941
  908MOL0     C19760   4.730   4.814   9.438  0.3759 -0.4713  0.2225
  908MOL0     C19761   4.721   4.715   9.321 -0.5153  0.5274 -0.6211
  908MOL0     C19762   4.587   4.729   9.242 -0.4655  0.7093 -0.0368
  908MOL0     C19763   4.576   4.620   9.138  0.1639 -0.0851  1.5508
  908MOL0     C19764   4.451   4.658   9.054  0.0498  0.0834  0.6289
  908MOL0     C19765   4.452   4.584   8.919 -0.2750 -0.3103  0.6665
  908MOL0     C19766   4.313   4.611   8.859  0.2579  0.8766 -0.6426
  908MOL0     C19767   4.286   4.499   8.762  0.2601 -1.0412 -0.2554
  908MOL0    Cl19768   4.380   4.503   8.610  0.4395  0.3213  0.1287
  908MOL0     C19769   4.957   4.965   9.533 -0.0763  0.1259  0.0015
  908MOL0     C19770   5.048   5.037   9.608 -0.5314 -0.4946  0.8416
  908MOL0     O19771   5.102   5.415   9.581 -0.0983  0.9736 -0.2156
  908MOL0     C19772   5.305   5.557   9.701  0.3314 -0.0830  0.1983
  908MOL0     C19773   5.415   5.619   9.760  0.0429 -0.5442 -0.7303
  908MOL0     N19774   6.196   5.737  10.206 -0.0471 -0.1720  0.2903
  908MOL0     N19775   6.315   5.685  10.192 -0.2059  0.3089 -0.5849
  908MOL0     C19776   7.352   5.338   9.880 -0.2331 -0.8883  0.1903
  908MOL0     C19777   7.479   5.371   9.912 -0.0416  0.3595 -0.0370
  908MOL0     C19778   7.929   5.339   9.868  0.4473  0.1248 -0.1901
  908MOL0     C19779   8.010   5.230   9.903  0.1504 -0.5588 -0.2735
  908MOL0     C19780   8.145   5.235   9.882 -0.6870 -0.8491 -0.0434
  908MOL0     C19781   8.209   5.347   9.813 -0.4426 -0.0248 -0.5121
  908MOL0     O19782   8.344   5.328   9.805 -0.3044 -0.5285  0.1249
  908MOL0     C19783   8.416   5.431   9.857  0.0434  0.0813 -0.3312
  908MOL0     C19784   8.566   5.408   9.858  0.4533  0.3289 -0.3269
  908MOL0     C19785   8.613   5.291   9.952  0.3218 -0.3430 -0.5483
  908MOL0     C19786   8.528   5.253  10.065 -0.3431 -0.1912  0.1503
  908MOL0     C19787   8.504   5.349  10.176 -0.0908  0.2267 -0.3004
  908MOL0     C19788   8.500   5.428  10.271 -0.1309  0.3579  1.2875
  908MOL0     C19789   8.131   5.455   9.765  0.7022 -1.1004 -0.5782
  908MOL0     C19790   7.994   5.445   9.799  0.9828 -0.5688 -0.7847
  908MOL0     H19791   7.572   5.478   9.599 -2.0968  0.8650 -1.0368
  908MOL0     H19792   7.331   5.422   9.558 -1.1414 -1.5874  0.2134
  908MOL0     H19793   7.029   5.434   9.746  1.8381  0.7330  1.7449
  908MOL0     H19794   7.077   5.334   9.892  2.0467  0.9452 -0.2328
  908MOL0     H19795   6.970   5.137   9.820 -1.1605  0.3717  0.9565
  908MOL0     H19796   6.933   5.204   9.662 -0.3361 -0.2004  0.1209
  908MOL0     H19797   6.789   5.285   9.920 -3.2007 -0.9213  0.1407
  908MOL0     H19798   6.722   5.201   9.793 -0.2523  1.2626 -4.0587
  908MOL0     H19799   6.813   5.484   9.709  3.1495 -2.2404 -2.3877
  908MOL0     H19800   6.711   5.381   9.632 -1.5652  2.4667  0.6673
  908MOL0     H19801   6.534   5.378   9.788 -0.7213 -0.7917  2.6173
  908MOL0     H19802   6.595   5.549   9.743  0.2537  0.1845 -1.8913
  908MOL0     H19803   6.733   5.554   9.938  0.9871 -0.7283 -0.8403
  908MOL0     H19804   6.648   5.413  10.005  0.4327 -0.0051 -0.0030
  908MOL0     H19805   6.570   5.658  10.056  2.3673 -1.6503 -1.8086
  908MOL0     H19806   6.495   5.670   9.906 -0.6242  0.5150 -0.6387
  908MOL0     H19807   6.430   5.464  10.106 -2.1891 -1.4216  0.4938
  908MOL0     H19808   6.352   5.463   9.942  1.0131 -3.1276  1.7930
  908MOL0     H19809   6.153   5.598   9.914  0.8589 -2.8400  0.7461
  908MOL0     H19810   5.953   5.855  10.062  0.7177 -0.9339 -1.8007
  908MOL0     H19811   5.935   5.760  10.208  1.3169  0.6195  0.4622
  908MOL0     H19812   5.764   5.687  10.083 -2.5944 -4.0888 -0.9514
  908MOL0     H19813   5.895   5.558  10.084 -0.1380 -0.3234 -1.0808
  908MOL0     H19814   5.852   5.743   9.851 -0.1954  0.7194  1.0021
  908MOL0     H19815   5.942   5.593   9.858 -0.3496 -1.5138 -0.4511
  908MOL0     H19816   5.753   5.474   9.921 -0.1497 -0.4499 -0.3983
  908MOL0     H19817   5.732   5.527   9.758  4.6406 -0.8544 -0.2403
  908MOL0     H19818   5.529   5.370   9.954 -1.3503 -2.8781 -0.3880
  908MOL0     H19819   5.347   5.247   9.855  0.8697  0.9139  3.4488
  908MOL0     H19820   4.846   5.307   9.671 -1.6619 -0.6312  0.5511
  908MOL0     H19821   4.697   5.173   9.523  1.0330  2.6958 -0.2319
  908MOL0     H19822   4.635   4.810   9.493  1.5047 -4.5517  2.2690
  908MOL0     H19823   4.806   4.774   9.506  2.2874 -0.9770 -2.0829
  908MOL0     H19824   4.714   4.619   9.373 -1.4637  0.0319 -1.6210
  908MOL0     H19825   4.814   4.719   9.263  1.9090  0.5132  2.9392
  908MOL0     H19826   4.583   4.828   9.194 -0.5394  0.0090 -1.5273
  908MOL0     H19827   4.496   4.722   9.302 -2.2925  2.5720 -2.3529
  908MOL0     H19828   4.658   4.628   9.066 -0.1971 -0.2810  1.1171
  908MOL0     H19829   4.575   4.518   9.177  0.3219 -1.3145 -1.4395
  908MOL0     H19830   4.457   4.761   9.017  2.9910 -0.7548 -1.5922
  908MOL0     H19831   4.357   4.638   9.106 -2.4343  3.7320 -1.9186
  908MOL0     H19832   4.476   4.477   8.930  2.0232  0.2800  2.0746
  908MOL0     H19833   4.533   4.624   8.857 -0.4708 -2.1323 -0.8541
  908MOL0     H19834   4.242   4.620   8.942  3.7480 -1.3490  2.9878
  908MOL0     H19835   4.304   4.706   8.807 -2.6029  1.3576  0.5363
  908MOL0     H19836   4.180   4.510   8.737  0.2355  0.8001  0.4773
  908MOL0     H19837   4.309   4.406   8.815 -0.4724 -1.2843 -0.3531
  908MOL0     H19838   4.992   4.865   9.511 -2.0883 -0.2074 -2.0019
  908MOL0     H19839   5.154   5.019   9.622 -0.0379  1.5720  0.1234
  908MOL0     H19840   5.237   5.604   9.632  0.8974 -2.2096 -1.9482
  908MOL0     H19841   5.437   5.721   9.729  4.2393 -0.7964  0.8070
  908MOL0     H19842   7.282   5.303   9.955  0.5736  0.9448  1.8972
  908MOL0     H19843   7.515   5.361  10.013 -0.4021 -0.0583  0.0534
  908MOL0     H19844   7.956   5.150   9.952 -1.7027  2.0659  2.3227
  908MOL0     H19845   8.211   5.150   9.892 -1.3513 -1.8111 -2.7125
  908MOL0     H19846   8.377   5.463   9.954  2.0156 -0.6819  0.7758
  908MOL0     H19847   8.398   5.512   9.786  0.6841 -0.0272 -0.6293
  908MOL0     H19848   8.595   5.369   9.760  0.8960  1.3484 -0.6101
  908MOL0     H19849   8.626   5.498   9.877 -0.2224  1.5252 -3.2971
  908MOL0     H19850   8.712   5.310   9.992 -0.1200  0.6725  0.0985
  908MOL0     H19851   8.632   5.207   9.884  1.0827 -0.3295 -0.3592
  908MOL0     H19852   8.428   5.219  10.036  0.7010 -1.6381 -2.0128
  908MOL0     H19853   8.577   5.169  10.115 -0.3896  0.8646  2.0845
  908MOL0     H19854   8.473   5.492  10.352 -0.5062  0.4056  1.1280
  908MOL0     H19855   8.172   5.531   9.699 -1.0667 -2.2409 -3.1491
  908MOL0     H19856   7.939   5.532   9.765 -1.3750 -2.2584 -1.5581
  909MOL0     O19857   4.068  10.819   8.550  0.1484 -0.1356  0.3780
  909MOL0     C19858   4.047  10.813   8.429 -0.3874 -0.2258 -0.8525
  909MOL0     O19859   3.929  10.841   8.375  0.1593  0.1111  1.0491
  909MOL0     C19860   3.823  10.898   8.448 -0.0505  0.2126 -0.3700
  909MOL0     C19861   3.690  10.891   8.399 -0.3534  0.1069 -0.2572
  909MOL0     C19862   3.578  10.953   8.448 -0.6705 -0.4713  0.1638
  909MOL0     C19863   3.601  11.040   8.559  1.0290 -0.6220 -1.1356
  909MOL0     O19864   3.502  11.111   8.633  0.1524  0.7712 -0.1875
  909MOL0     C19865   3.378  11.131   8.569 -0.0423 -0.0057 -0.3383
  909MOL0     C19866   3.296  11.234   8.644 -0.2615 -0.3454 -0.8982
  909MOL0     C19867   3.158  11.275   8.587  0.3199 -0.0411  0.2281
  909MOL0     C19868   3.077  11.151   8.547  0.0376 -0.3419 -0.0671
  909MOL0     C19869   2.931  11.184   8.520 -0.1245 -0.4179  0.3906
  909MOL0     C19870   2.919  11.307   8.417  0.6443  0.9103 -0.4192
  909MOL0     C19871   2.783  11.381   8.414  1.0837  0.1112 -0.2785
  909MOL0     C19872   2.717  11.401   8.277 -0.7717 -0.3028 -0.4336
  909MOL0     N19873   2.613  11.504   8.297  0.5460  0.0888  0.6729
  909MOL0     C19874   2.497  11.488   8.364  0.1700  0.8545  1.0444
  909MOL0     C19875   2.444  11.607   8.384  0.0716 -0.0426  0.3422
  909MOL0     C19876   2.322  11.649   8.456 -0.0785  0.1543  0.4548
  909MOL0     C19877   2.199  11.642   8.374  0.0008  0.8607 -0.4033
  909MOL0     C19878   2.206  11.724   8.236  0.3847  0.6177  0.2857
  909MOL0     C19879   2.066  11.737   8.186 -0.4678  1.0369 -0.2175
  909MOL0     O19880   1.990  11.609   8.189  0.4024  0.3721  0.5092
  909MOL0     C19881   1.869  11.613   8.121  0.3741  0.2410  0.5490
  909MOL0     C19882   1.809  11.489   8.097 -0.1677  0.3258  0.2078
  909MOL0     C19883   1.688  11.481   8.035 -0.1654  0.2553  0.1067
  909MOL0     C19884   1.625  11.597   7.991 -0.3773  0.2943 -0.8568
  909MOL0     C19885   1.490  11.586   7.936  1.1603 -0.0385  0.1558
  909MOL0     O19886   1.423  11.703   7.914  0.0728  0.2935 -0.2601
  909MOL0     C19887   1.319  11.709   7.827  0.1501  0.1952 -0.1302
  909MOL0     C19888   1.217  11.787   7.873  0.1301 -0.3935 -0.0961
  909MOL0     C19889   1.117  11.834   7.776  0.0540  1.0088  0.4205
  909MOL0     C19890   1.130  11.792   7.648 -0.7301 -0.2748 -0.0560
  909MOL0     O19891   1.033  11.836   7.569 -0.3605 -0.0435  0.3094
  909MOL0     C19892   0.989  11.750   7.463  0.8083 -1.4496  0.7514
  909MOL0     C19893   0.842  11.774   7.413 -0.2356  0.3987 -0.2447
  909MOL0     C19894   0.748  11.763   7.534  0.3843  0.6447 -0.4015
  909MOL0     C19895   0.603  11.733   7.495 -0.5254  0.3200 -0.0058
  909MOL0     C19896   0.521  11.712   7.624 -0.6918 -0.0149  0.4786
  909MOL0     C19897   0.361  11.706   7.591 -0.2851  0.0274 -0.7609
  909MOL0     C19898   0.323  11.613   7.486  0.4638 -0.4457  0.0445
  909MOL0     C19899   0.175  11.601   7.474 -0.3586  0.3357 -0.3849
  909MOL0    Cl19900   0.111  11.745   7.398 -0.0540  0.3790  0.1344
  909MOL0     C19901   1.232  11.713   7.609 -0.4221 -0.5587  0.3494
  909MOL0     C19902   1.328  11.672   7.702 -0.9436 -0.6308 -0.1084
  909MOL0     O19903   1.430  11.479   7.907  0.2771 -0.3666  0.0535
  909MOL0     C19904   1.684  11.723   8.016  0.6447  0.5358  0.1108
  909MOL0     C19905   1.809  11.732   8.076  0.3354 -0.1317  0.9138
  909MOL0     N19906   2.515  11.704   8.312 -0.6253  0.2618  0.8349
  909MOL0     N19907   2.623  11.642   8.267 -0.8138  1.2198 -0.4255
  909MOL0     C19908   3.731  11.061   8.608  0.8330 -0.0774 -0.0275
  909MOL0     C19909   3.836  10.987   8.556  0.1822 -0.0860 -0.4711
  909MOL0     C19910   4.152  10.757   8.342 -0.5860 -0.6859  0.4171
  909MOL0     C19911   4.159  10.775   8.201  0.1940  0.0005 -0.9999
  909MOL0     C19912   4.272  10.740   8.133  0.3215  0.7539  0.4479
  909MOL0     C19913   4.378  10.671   8.198 -0.6714  0.5239  0.2309
  909MOL0     O19914   4.490  10.620   8.135  0.6832 -0.9422  0.6718
  909MOL0     C19915   4.509  10.648   7.995 -0.6914 -1.3859 -0.3086
  909MOL0     C19916   4.471  10.533   7.914  0.3107  0.5580 -0.5200
  909MOL0     C19917   4.459  10.559   7.765  0.2296 -0.3596 -0.3537
  909MOL0     C19918   4.451  10.431   7.686 -0.3899  0.3145 -0.5643
  909MOL0     C19919   4.352  10.337   7.738 -1.1255  0.5232 -0.2133
  909MOL0     C19920   4.284  10.250   7.782 -0.0849  0.0904 -0.0080
  909MOL0     C19921   4.377  10.663   8.341 -0.1997  0.9406 -0.5664
  909MOL0     C19922   4.266  10.706   8.410  0.0271 -1.0063 -1.3736
  909MOL0     H19923   3.688  10.834   8.307  1.2123  2.7154 -2.0325
  909MOL0     H19924   3.486  10.927   8.397 -0.3251  0.0310 -0.7622
  909MOL0     H19925   3.331  11.032   8.570 -0.4105  0.1681  0.0275
  909MOL0     H19926   3.388  11.156   8.463  2.2600  0.0419 -0.1612
  909MOL0     H19927   3.352  11.327   8.637 -2.6486  1.1549 -1.4157
  909MOL0     H19928   3.285  11.204   8.749 -0.6766  0.8289 -0.5850
  909MOL0     H19929   3.181  11.326   8.493 -1.6536  0.1518 -0.1912
  909MOL0     H19930   3.101  11.340   8.654  0.9940  1.1587 -0.3107
  909MOL0     H19931   3.133  11.116   8.461  1.5077  0.3724  0.5691
  909MOL0     H19932   3.077  11.086   8.635  2.0997 -1.0961 -0.5710
  909MOL0     H19933   2.889  11.220   8.615 -0.9815  1.0496 -0.4945
  909MOL0     H19934   2.869  11.103   8.479  2.2221 -2.2173  0.2118
  909MOL0     H19935   2.931  11.255   8.321  1.9844 -0.9380  0.6975
  909MOL0     H19936   2.996  11.384   8.431  0.6973  0.9407 -0.8474
  909MOL0     H19937   2.717  11.308   8.462  0.4847 -1.1638 -2.8243
  909MOL0     H19938   2.789  11.474   8.470  0.8089 -1.3127  2.2461
  909MOL0     H19939   2.672  11.305   8.250 -1.9916  1.1475 -4.0789
  909MOL0     H19940   2.788  11.426   8.198  0.5580  0.1711  0.8566
  909MOL0     H19941   2.460  11.396   8.409  0.5941  0.7746  1.2357
  909MOL0     H19942   2.345  11.753   8.481  0.7796  1.2912 -4.1137
  909MOL0     H19943   2.311  11.578   8.538  0.1224  0.5632  0.8439
  909MOL0     H19944   2.125  11.679   8.446 -0.3092 -2.3773  1.1181
  909MOL0     H19945   2.192  11.535   8.351 -3.3526  0.9887 -0.5205
  909MOL0     H19946   2.233  11.828   8.257 -1.1773  0.9511  0.7356
  909MOL0     H19947   2.275  11.689   8.158  0.8284  1.0464  0.4786
  909MOL0     H19948   2.064  11.780   8.085  2.4157  3.0627  0.4777
  909MOL0     H19949   2.016  11.810   8.249 -2.1316 -0.6059  0.4475
  909MOL0     H19950   1.852  11.394   8.127  1.7379 -0.2338 -3.6868
  909MOL0     H19951   1.653  11.381   8.009  1.3392 -0.7882  1.8680
  909MOL0     H19952   1.219  11.816   7.978  0.4085  1.0522 -0.4837
  909MOL0     H19953   1.037  11.900   7.807 -0.1234  0.3202  1.4902
  909MOL0     H19954   0.983  11.646   7.497  1.6258 -2.2077 -1.3073
  909MOL0     H19955   1.055  11.763   7.377 -0.1181 -2.2705 -0.1232
  909MOL0     H19956   0.822  11.700   7.335  0.1372 -0.9836  0.9261
  909MOL0     H19957   0.835  11.872   7.366 -1.4797  0.4527  0.0209
  909MOL0     H19958   0.762  11.852   7.596 -0.2156  1.5758 -1.5583
  909MOL0     H19959   0.782  11.672   7.585  4.1815  1.5760 -0.9730
  909MOL0     H19960   0.551  11.810   7.438  0.1547  0.6202 -0.2303
  909MOL0     H19961   0.617  11.643   7.435 -0.8876  0.4009 -0.2168
  909MOL0     H19962   0.547  11.777   7.707  0.4291 -1.4293  1.2909
  909MOL0     H19963   0.559  11.618   7.666  1.3780  1.3136  1.7841
  909MOL0     H19964   0.313  11.804   7.579 -2.1079 -0.7993 -0.5920
  909MOL0     H19965   0.330  11.650   7.680 -0.8342 -1.3914 -1.8070
  909MOL0     H19966   0.353  11.657   7.390  3.1903  0.4224  1.2149
  909MOL0     H19967   0.356  11.509   7.486 -1.9693 -1.3803 -3.0109
  909MOL0     H19968   0.135  11.590   7.575  1.2866 -1.9549  0.0964
  909MOL0     H19969   0.151  11.509   7.418 -1.3185 -1.2885  2.4587
  909MOL0     H19970   1.249  11.697   7.503  0.5536 -1.6953  0.6558
  909MOL0     H19971   1.410  11.613   7.661 -2.4930  0.0624 -4.8264
  909MOL0     H19972   1.627  11.806   7.976 -0.4941  0.1051  0.7742
  909MOL0     H19973   1.851  11.830   8.094  0.0181 -0.1652  1.9106
  909MOL0     H19974   3.749  11.130   8.690  3.3499  0.7795 -1.2036
  909MOL0     H19975   3.939  10.990   8.591 -0.2055 -3.1546  1.3180
  909MOL0     H19976   4.088  10.837   8.147  0.3740  0.4816 -0.6833
  909MOL0     H19977   4.279  10.761   8.026  2.0519  0.3808  0.4483
  909MOL0     H19978   4.616  10.663   7.975 -1.0955  2.0606 -0.5442
  909MOL0     H19979   4.465  10.740   7.956 -3.4895 -3.6678 -3.0319
  909MOL0     H19980   4.547  10.455   7.929  0.7731  0.6756 -2.0440
  909MOL0     H19981   4.390  10.475   7.959  0.1613 -2.7936 -4.3753
  909MOL0     H19982   4.545  10.612   7.723  2.0288 -1.3842  1.8322
  909MOL0     H19983   4.376  10.629   7.749  0.6202  0.7040  1.8887
  909MOL0     H19984   4.420  10.450   7.583 -2.9877  0.2954  0.1501
  909MOL0     H19985   4.554  10.395   7.691 -0.2487  0.8372  0.6718
  909MOL0     H19986   4.226  10.175   7.833  1.9224 -1.9347 -0.5317
  909MOL0     H19987   4.458  10.616   8.395 -0.1079  1.2916 -0.3971
  909MOL0     H19988   4.271  10.696   8.518  1.5809 -0.7433 -1.3882
  910MOL0     O19989   0.497   2.759   4.105 -0.8451 -0.1990  0.2730
  910MOL0     C19990   0.451   2.652   4.073 -0.1193 -0.3012 -0.0264
  910MOL0     O19991   0.446   2.549   4.143 -0.9110  0.5346  0.3829
  910MOL0     C19992   0.482   2.563   4.277  1.0255 -0.4931 -0.3008
  910MOL0     C19993   0.405   2.644   4.361 -0.0423 -0.4536 -0.2238
  910MOL0     C19994   0.432   2.643   4.497 -0.3176  1.4352  0.4157
  910MOL0     C19995   0.531   2.559   4.551 -0.1178 -0.3913 -0.8302
  910MOL0     O19996   0.554   2.542   4.689 -0.2646 -0.3983  0.6383
  910MOL0     C19997   0.438   2.533   4.768  0.0006 -0.2799 -0.6163
  910MOL0     C19998   0.475   2.563   4.910 -0.2728 -0.9120 -0.0141
  910MOL0     C19999   0.375   2.542   5.012 -0.3458  0.2085 -0.4643
  910MOL0     C20000   0.244   2.617   4.992  0.4714 -0.4905  0.6036
  910MOL0     C20001   0.181   2.642   5.131 -0.6552  0.3819  0.1446
  910MOL0     C20002   0.104   2.523   5.176  0.6411  1.8760 -0.8444
  910MOL0     C20003   0.015   2.540   5.298 -1.0232 -0.7110 -1.0178
  910MOL0     C20004  -0.110   2.636   5.265  0.2203  0.5530 -0.4233
  910MOL0     N20005  -0.204   2.637   5.377  0.9994  0.3893 -0.5978
  910MOL0     C20006  -0.345   2.629   5.370  0.1785  0.6110  0.4579
  910MOL0     C20007  -0.378   2.646   5.499 -0.2492  0.7355  0.3572
  910MOL0     C20008  -0.520   2.632   5.556  0.8124  0.4317  0.8751
  910MOL0     C20009  -0.516   2.504   5.651 -0.3405 -0.4473  0.2650
  910MOL0     C20010  -0.495   2.366   5.583 -0.3376  0.0326  0.5701
  910MOL0     C20011  -0.604   2.334   5.485  0.2454  0.6824  0.5714
  910MOL0     O20012  -0.744   2.360   5.536 -0.3333 -0.3399 -0.9137
  910MOL0     C20013  -0.854   2.299   5.489 -0.7714  0.0967 -0.3671
  910MOL0     C20014  -0.868   2.255   5.356 -0.2635 -0.5409 -1.1308
  910MOL0     C20015  -0.983   2.185   5.326 -0.2074 -0.3651 -0.3449
  910MOL0     C20016  -1.086   2.170   5.417  0.0589  1.5007 -0.1501
  910MOL0     C20017  -1.208   2.077   5.397  0.7022  0.3049 -0.0362
  910MOL0     O20018  -1.210   2.004   5.283  0.2108  0.2948 -0.3295
  910MOL0     C20019  -1.320   1.925   5.256 -0.7861 -0.3877 -0.1332
  910MOL0     C20020  -1.440   1.999   5.241 -0.3059  0.4666  0.3709
  910MOL0     C20021  -1.564   1.930   5.218 -0.8499 -0.8387 -0.2903
  910MOL0     C20022  -1.570   1.784   5.214 -0.1708  0.3352  0.1629
  910MOL0     O20023  -1.684   1.716   5.196  0.0522  0.5918  0.5046
  910MOL0     C20024  -1.751   1.736   5.067  0.6665 -0.5588 -0.2454
  910MOL0     C20025  -1.699   1.637   4.958 -0.0920  0.7566  0.1820
  910MOL0     C20026  -1.800   1.591   4.851 -1.1872 -0.1156  0.4783
  910MOL0     C20027  -1.742   1.503   4.741  0.4898  1.3519 -0.7243
  910MOL0     C20028  -1.822   1.497   4.617  0.3811  0.2450  0.0447
  910MOL0     C20029  -1.800   1.629   4.533 -0.6159 -0.1685 -0.2177
  910MOL0     C20030  -1.860   1.615   4.392 -0.5340  0.2456 -0.2550
  910MOL0     C20031  -1.810   1.728   4.301 -0.6556  0.2743  1.0588
  910MOL0    Cl20032  -1.918   1.851   4.304  0.5793 -0.0978  0.0942
  910MOL0     C20033  -1.450   1.715   5.228 -1.5234  0.4867 -0.1565
  910MOL0     C20034  -1.327   1.782   5.242  0.1216  0.0629 -0.5327
  910MOL0     O20035  -1.299   2.074   5.483  1.0852 -0.1698  0.1213
  910MOL0     C20036  -1.068   2.222   5.546 -0.7139 -1.1277 -0.9013
  910MOL0     C20037  -0.947   2.286   5.588 -0.4811 -0.0051  0.1890
  910MOL0     N20038  -0.265   2.664   5.575  0.4894  0.1901  0.1598
  910MOL0     N20039  -0.163   2.676   5.502 -0.7455 -0.4505 -0.5450
  910MOL0     C20040   0.606   2.489   4.464 -0.6599  0.2475  0.5992
  910MOL0     C20041   0.582   2.491   4.332 -0.7723 -0.3056 -0.3008
  910MOL0     C20042   0.428   2.630   3.924  0.2556  0.5826  0.7304
  910MOL0     C20043   0.362   2.507   3.887 -0.7481 -0.1135 -0.0698
  910MOL0     C20044   0.346   2.466   3.751 -0.8615 -0.1739  0.3206
  910MOL0     C20045   0.395   2.547   3.649  0.1358  0.3255 -0.1673
  910MOL0     O20046   0.374   2.499   3.524  0.1630 -0.0112 -0.8069
  910MOL0     C20047   0.435   2.560   3.404 -0.1476  0.0375  0.0910
  910MOL0     C20048   0.358   2.690   3.371  0.0265  0.0080 -0.2298
  910MOL0     C20049   0.458   2.808   3.356  0.4969  0.5523 -0.7341
  910MOL0     C20050   0.385   2.931   3.288 -0.2763 -1.0494  0.3090
  910MOL0     C20051   0.460   3.064   3.277  0.4299  0.3828 -0.1895
  910MOL0     C20052   0.520   3.178   3.267  0.5107 -0.6641 -0.5950
  910MOL0     C20053   0.466   2.665   3.690 -0.4588 -0.1780 -0.6868
  910MOL0     C20054   0.488   2.708   3.815 -0.6298 -0.1004 -0.1489
  910MOL0     H20055   0.331   2.715   4.326  0.4725 -0.1567 -0.7307
  910MOL0     H20056   0.371   2.700   4.567 -0.1034  1.0408  0.9307
  910MOL0     H20057   0.408   2.428   4.768 -0.7564 -0.0761 -1.2748
  910MOL0     H20058   0.352   2.597   4.748  1.1191  3.5831  4.8276
  910MOL0     H20059   0.498   2.669   4.919 -0.2101 -0.7087 -2.1487
  910MOL0     H20060   0.569   2.512   4.935  0.7050  0.1664 -1.3329
  910MOL0     H20061   0.428   2.574   5.103 -1.9603  0.4085  0.4487
  910MOL0     H20062   0.354   2.436   5.024 -5.5783  1.1566  1.2617
  910MOL0     H20063   0.275   2.716   4.959 -2.2313  0.4704  0.7147
  910MOL0     H20064   0.181   2.584   4.909 -1.1736  0.0442  1.5931
  910MOL0     H20065   0.118   2.730   5.117  0.5434  1.3242  0.4807
  910MOL0     H20066   0.255   2.676   5.204  0.2170  2.9176 -1.7716
  910MOL0     H20067   0.168   2.437   5.195 -1.3942  0.3230 -0.5919
  910MOL0     H20068   0.031   2.483   5.104  1.2412 -3.2073  1.0091
  910MOL0     H20069  -0.020   2.442   5.332 -0.2632 -0.5711  0.2347
  910MOL0     H20070   0.070   2.596   5.374 -1.5293 -0.3078 -0.9416
  910MOL0     H20071  -0.177   2.608   5.183 -2.3955 -1.4480  2.1597
  910MOL0     H20072  -0.073   2.736   5.242  1.4035  0.3620  0.5556
  910MOL0     H20073  -0.424   2.602   5.300 -1.4237  3.9326  0.7904
  910MOL0     H20074  -0.589   2.623   5.472  1.6486  0.1698  0.1955
  910MOL0     H20075  -0.554   2.719   5.612 -3.5634 -1.3663  1.4341
  910MOL0     H20076  -0.618   2.507   5.691 -3.7674 -0.1286 -6.8685
  910MOL0     H20077  -0.437   2.526   5.723  0.8008  0.7003 -1.2498
  910MOL0     H20078  -0.406   2.359   5.520 -0.5895  1.6582 -0.0238
  910MOL0     H20079  -0.492   2.281   5.652 -0.0813 -1.4443 -1.1816
  910MOL0     H20080  -0.599   2.236   5.437 -2.7738  1.6923 -2.2261
  910MOL0     H20081  -0.592   2.398   5.397  0.7390 -1.2526 -0.8476
  910MOL0     H20082  -0.790   2.273   5.283 -0.5917 -2.9510 -2.1578
  910MOL0     H20083  -0.995   2.160   5.221  4.4987  2.9356 -1.9940
  910MOL0     H20084  -1.434   2.106   5.262 -0.6391  0.5803 -0.0987
  910MOL0     H20085  -1.662   1.974   5.210 -0.2034  0.4242 -1.6039
  910MOL0     H20086  -1.730   1.838   5.035  1.5099 -1.4121 -2.6165
  910MOL0     H20087  -1.859   1.717   5.066 -0.1462  3.3129 -0.3096
  910MOL0     H20088  -1.656   1.554   5.014  1.5373  1.2713 -0.2726
  910MOL0     H20089  -1.617   1.685   4.905  0.4455 -0.8135 -0.4704
  910MOL0     H20090  -1.830   1.687   4.809 -0.3009  1.1292  2.5094
  910MOL0     H20091  -1.888   1.540   4.891 -0.9742  0.1541  1.3076
  910MOL0     H20092  -1.640   1.530   4.712  1.2806 -0.9014 -0.2452
  910MOL0     H20093  -1.735   1.401   4.780  3.3307  1.8706  0.3569
  910MOL0     H20094  -1.930   1.482   4.632  0.2401 -1.2732 -2.0687
  910MOL0     H20095  -1.791   1.409   4.560  0.4843 -1.4203  2.4816
  910MOL0     H20096  -1.694   1.653   4.526 -0.8520  1.0697  0.1695
  910MOL0     H20097  -1.843   1.717   4.581  0.7544 -0.9598  2.7015
  910MOL0     H20098  -1.836   1.515   4.354  1.7792  0.6342  0.0346
  910MOL0     H20099  -1.969   1.620   4.397 -0.5855 -0.7982 -0.0182
  910MOL0     H20100  -1.806   1.700   4.195  3.7232 -0.3628  1.2137
  910MOL0     H20101  -1.706   1.760   4.316 -0.5770  0.4380  0.2553
  910MOL0     H20102  -1.452   1.607   5.236  1.0946  0.4276  0.6426
  910MOL0     H20103  -1.243   1.715   5.259 -2.3541 -3.1581 -0.1976
  910MOL0     H20104  -1.140   2.199   5.625  1.9582  0.9084  2.4219
  910MOL0     H20105  -0.947   2.328   5.688 -0.2845  3.7078 -1.2188
  910MOL0     H20106   0.682   2.418   4.494  1.1453  0.4218 -3.0852
  910MOL0     H20107   0.651   2.439   4.266 -1.5410 -0.8830 -0.6577
  910MOL0     H20108   0.316   2.441   3.960 -2.3165  2.3170  1.2735
  910MOL0     H20109   0.292   2.374   3.730  0.6499 -1.4120  1.5409
  910MOL0     H20110   0.437   2.499   3.313  2.3883 -0.5950  0.5020
  910MOL0     H20111   0.539   2.582   3.427 -0.5420  1.7925  0.3300
  910MOL0     H20112   0.309   2.674   3.275 -1.0414 -1.9865  0.5953
  910MOL0     H20113   0.278   2.708   3.442 -1.8271  2.5056 -2.7002
  910MOL0     H20114   0.534   2.767   3.290  0.0358 -1.4490 -0.1026
  910MOL0     H20115   0.504   2.833   3.452  2.5810 -5.0559  0.1207
  910MOL0     H20116   0.334   2.904   3.196 -0.6116 -1.2114  0.5413
  910MOL0     H20117   0.305   2.961   3.356  2.6111  3.1961  2.2800
  910MOL0     H20118   0.585   3.263   3.271 -1.0399  0.5408  0.5893
  910MOL0     H20119   0.521   2.711   3.609 -0.1377 -2.0045 -1.5395
  910MOL0     H20120   0.543   2.795   3.849 -1.4292 -0.5767  2.6095
  911MOL0     O20121   4.113   4.459   5.306  0.0098  1.0454 -0.2694
  911MOL0     C20122   4.130   4.570   5.251  0.3573 -0.1051  0.2459
  911MOL0     O20123   4.207   4.673   5.300 -0.4779 -0.1047  0.1784
  911MOL0     C20124   4.261   4.673   5.422  0.7788  0.8092  0.5978
  911MOL0     C20125   4.182   4.654   5.530 -0.1977 -0.5534  0.9434
  911MOL0     C20126   4.234   4.632   5.656 -0.1604 -0.1079  0.1418
  911MOL0     C20127   4.368   4.618   5.681  0.6821  0.1554  0.2607
  911MOL0     O20128   4.409   4.581   5.806 -0.0270  0.7218 -0.0094
  911MOL0     C20129   4.555   4.567   5.821  0.7584  0.6295  0.2650
  911MOL0     C20130   4.555   4.519   5.969 -1.0121  0.3863 -0.0829
  911MOL0     C20131   4.693   4.464   6.001  0.1342 -0.1384  0.0601
  911MOL0     C20132   4.811   4.560   5.983 -0.4787 -0.5009  0.1191
  911MOL0     C20133   4.948   4.487   6.007  0.1721  0.2641  0.2400
  911MOL0     C20134   5.072   4.581   6.004  0.2978  0.5586 -0.3233
  911MOL0     C20135   5.071   4.713   6.077  1.1477  0.4111  0.0663
  911MOL0     C20136   5.153   4.700   6.215  0.4644  0.3474 -0.0072
  911MOL0     N20137   5.092   4.611   6.314  0.0065  0.8240  0.3832
  911MOL0     C20138   4.959   4.596   6.330 -1.4641 -0.1331 -0.7117
  911MOL0     C20139   4.945   4.505   6.434 -0.4350 -0.4104 -0.5967
  911MOL0     C20140   4.814   4.466   6.499 -0.3783 -0.1225  0.4939
  911MOL0     C20141   4.727   4.384   6.405 -0.0653  0.3257  0.9012
  911MOL0     C20142   4.590   4.372   6.479  0.5085 -0.6137 -0.4229
  911MOL0     C20143   4.494   4.294   6.388  0.2123  0.5300  0.9358
  911MOL0     O20144   4.365   4.305   6.432 -0.5124 -0.6264  0.1821
  911MOL0     C20145   4.273   4.284   6.331  0.1270 -0.3886  0.6886
  911MOL0     C20146   4.287   4.183   6.228 -1.4097 -0.8758  0.3980
  911MOL0     C20147   4.177   4.176   6.148 -0.2187  0.1815 -0.3023
  911MOL0     C20148   4.065   4.251   6.160 -0.7299 -0.2784 -0.1855
  911MOL0     C20149   3.937   4.213   6.085 -0.2409 -0.6921 -0.2776
  911MOL0     O20150   3.913   4.086   6.034 -0.3961  0.2013 -0.3668
  911MOL0     C20151   3.851   4.086   5.911  1.1824 -0.0478 -0.5504
  911MOL0     C20152   3.901   4.146   5.793  0.2689 -0.2001 -0.6200
  911MOL0     C20153   3.839   4.155   5.671  1.5866  0.1700  0.2006
  911MOL0     C20154   3.716   4.086   5.665  0.2678 -0.5500  0.1307
  911MOL0     O20155   3.666   4.101   5.541 -0.3843 -0.6242  0.6712
  911MOL0     C20156   3.518   4.107   5.531  0.3289 -0.1082  0.5826
  911MOL0     C20157   3.490   4.181   5.410 -0.0831 -0.3444 -0.0462
  911MOL0     C20158   3.339   4.180   5.382 -0.2155 -0.3837 -0.4105
  911MOL0     C20159   3.294   4.050   5.321 -0.5010  0.8219 -0.4424
  911MOL0     C20160   3.144   4.042   5.301  0.3920 -1.0782 -0.7183
  911MOL0     C20161   3.079   4.145   5.195 -0.1643 -0.3847 -0.3966
  911MOL0     C20162   2.947   4.119   5.118  0.3012  0.3219  0.4425
  911MOL0     C20163   2.822   4.193   5.168  0.3807 -0.1919  0.1558
  911MOL0    Cl20164   2.692   4.185   5.044 -0.1266 -0.1182  0.5336
  911MOL0     C20165   3.661   4.019   5.771 -1.0034 -0.6322 -0.3885
  911MOL0     C20166   3.724   4.024   5.900 -0.3014 -0.6549  0.2669
  911MOL0     O20167   3.861   4.305   6.064 -0.2081  0.1459  0.2176
  911MOL0     C20168   4.071   4.366   6.243 -0.0764 -0.2444  0.4719
  911MOL0     C20169   4.176   4.377   6.332 -0.1334 -0.5008 -0.7623
  911MOL0     N20170   5.071   4.467   6.464 -0.4137  0.5701 -0.6297
  911MOL0     N20171   5.164   4.536   6.404  1.3090 -0.2406 -1.1003
  911MOL0     C20172   4.448   4.635   5.566 -0.0914  0.4665  0.0077
  911MOL0     C20173   4.396   4.663   5.440 -0.5269 -0.7096  0.4072
  911MOL0     C20174   4.067   4.593   5.118 -0.0542  0.5168 -0.8078
  911MOL0     C20175   4.101   4.700   5.045  0.6071  0.1765  0.5574
  911MOL0     C20176   4.050   4.725   4.917 -0.5555 -0.6758 -0.3467
  911MOL0     C20177   3.958   4.639   4.862  0.6978 -0.4195 -0.7552
  911MOL0     O20178   3.897   4.694   4.746 -0.0156 -0.5129 -0.2591
  911MOL0     C20179   3.794   4.622   4.677  0.3032 -0.1085 -0.2705
  911MOL0     C20180   3.669   4.696   4.732 -0.6390 -0.6228 -0.1510
  911MOL0     C20181   3.610   4.630   4.860  0.5807  0.2256 -0.0384
  911MOL0     C20182   3.482   4.694   4.900 -1.1143 -0.4944 -1.2205
  911MOL0     C20183   3.404   4.614   4.991 -1.1335  0.0051 -0.4379
  911MOL0     C20184   3.344   4.561   5.085 -0.4349  0.5350  0.0043
  911MOL0     C20185   3.923   4.518   4.933  0.6538 -0.3842 -0.3002
  911MOL0     C20186   3.966   4.508   5.064  0.2556  0.0480  0.0923
  911MOL0     H20187   4.076   4.648   5.509 -0.3256  3.2065 -0.2978
  911MOL0     H20188   4.153   4.614   5.727 -1.2743  2.2359 -0.4108
  911MOL0     H20189   4.612   4.659   5.809  2.6258 -0.7387 -2.7486
  911MOL0     H20190   4.590   4.487   5.754  0.6886  0.6577  0.1957
  911MOL0     H20191   4.471   4.452   5.991 -3.0995  2.4616 -1.2914
  911MOL0     H20192   4.540   4.604   6.036  0.9358 -0.6736  1.8383
  911MOL0     H20193   4.702   4.367   5.952 -0.0886 -0.8809  1.4541
  911MOL0     H20194   4.697   4.441   6.108  0.3741  2.3052  0.6361
  911MOL0     H20195   4.816   4.610   5.886 -2.3275 -0.7141 -0.1223
  911MOL0     H20196   4.795   4.631   6.065 -0.1466 -2.0395  1.5778
  911MOL0     H20197   4.965   4.406   5.936  3.9384 -1.8356  3.1460
  911MOL0     H20198   4.953   4.442   6.106 -2.0446  0.6431  0.5866
  911MOL0     H20199   5.089   4.606   5.899 -0.0896 -0.0155 -0.5250
  911MOL0     H20200   5.166   4.534   6.036 -0.1232  0.3573  0.6533
  911MOL0     H20201   5.106   4.789   6.007  2.0233  0.9818  1.0971
  911MOL0     H20202   4.965   4.739   6.090  0.4791 -1.3909 -1.4029
  911MOL0     H20203   5.167   4.800   6.257  0.3848  0.3237  0.0754
  911MOL0     H20204   5.253   4.664   6.190 -0.7528 -1.4668 -2.8948
  911MOL0     H20205   4.887   4.660   6.281 -0.8927  1.6998  0.7169
  911MOL0     H20206   4.764   4.558   6.528  0.5497 -0.1942  2.5276
  911MOL0     H20207   4.821   4.409   6.592 -2.2777 -0.4020  0.5046
  911MOL0     H20208   4.767   4.283   6.393 -2.4844 -0.5201 -1.0190
  911MOL0     H20209   4.706   4.431   6.308  2.2076 -0.8018 -0.2246
  911MOL0     H20210   4.598   4.322   6.576  1.6013  0.6971  0.1993
  911MOL0     H20211   4.547   4.471   6.491  0.2388 -0.6343 -1.1699
  911MOL0     H20212   4.516   4.187   6.376  1.0022  0.5554  1.9785
  911MOL0     H20213   4.507   4.345   6.293  1.6007  0.4615  1.0726
  911MOL0     H20214   4.375   4.121   6.218 -2.5196 -2.3504 -0.5734
  911MOL0     H20215   4.176   4.098   6.073 -0.1546 -2.0093  1.8555
  911MOL0     H20216   4.000   4.187   5.809 -0.0191  0.0941  0.4573
  911MOL0     H20217   3.879   4.203   5.582 -2.4704 -2.0809 -3.2494
  911MOL0     H20218   3.499   4.172   5.617  4.2980 -0.2188  1.7783
  911MOL0     H20219   3.472   4.009   5.536  1.5138 -0.6264  2.7404
  911MOL0     H20220   3.545   4.139   5.326  0.8673 -1.6443  1.1689
  911MOL0     H20221   3.546   4.274   5.424  0.4726 -0.4651 -1.3360
  911MOL0     H20222   3.322   4.269   5.320  0.4090  0.6542  0.8721
  911MOL0     H20223   3.273   4.203   5.465 -4.6625  1.7173 -4.0654
  911MOL0     H20224   3.343   4.023   5.227  0.1054 -0.2965  0.1725
  911MOL0     H20225   3.324   3.963   5.380  1.2042  2.7024  1.6134
  911MOL0     H20226   3.083   4.072   5.387  0.6704 -0.4623 -0.7258
  911MOL0     H20227   3.116   3.940   5.275 -0.5964 -1.7185  2.3938
  911MOL0     H20228   3.159   4.161   5.122  1.7466  1.0958  1.8577
  911MOL0     H20229   3.055   4.244   5.234 -0.5812  0.0615 -1.7321
  911MOL0     H20230   2.967   4.140   5.013  1.9686 -0.0081  0.6524
  911MOL0     H20231   2.929   4.011   5.108  0.5030 -0.2225  4.4049
  911MOL0     H20232   2.853   4.296   5.190 -1.2054  0.3240  0.1138
  911MOL0     H20233   2.782   4.138   5.254  0.3961 -2.5433 -1.2681
  911MOL0     H20234   3.561   3.979   5.763 -0.8342 -1.0230 -0.5993
  911MOL0     H20235   3.684   3.962   5.979 -0.9284  0.9598  1.2470
  911MOL0     H20236   3.982   4.427   6.243 -1.3118 -1.9627 -0.9164
  911MOL0     H20237   4.180   4.457   6.405 -1.0353  0.2529 -1.5091
  911MOL0     H20238   4.556   4.620   5.571 -0.3430 -2.4399 -1.0865
  911MOL0     H20239   4.456   4.672   5.351  2.0178  1.9042  2.2118
  911MOL0     H20240   4.169   4.774   5.087 -0.4193  1.8351 -0.5653
  911MOL0     H20241   4.071   4.818   4.865  0.8169 -1.3906 -1.1290
  911MOL0     H20242   3.792   4.516   4.704 -2.1015  0.4054  2.0499
  911MOL0     H20243   3.798   4.635   4.569 -1.4003  0.9442 -0.2526
  911MOL0     H20244   3.692   4.801   4.754 -2.6017  0.2298 -1.7577
  911MOL0     H20245   3.597   4.714   4.651 -2.4887 -0.6152  1.4131
  911MOL0     H20246   3.686   4.640   4.938  0.0940  1.5977  0.3018
  911MOL0     H20247   3.587   4.524   4.852  1.4100  0.0418 -0.1173
  911MOL0     H20248   3.514   4.792   4.936 -0.4819 -0.7984 -0.9378
  911MOL0     H20249   3.418   4.710   4.813 -1.1514 -2.6450 -1.6576
  911MOL0     H20250   3.296   4.514   5.169 -2.2269 -0.5512 -1.5421
  911MOL0     H20251   3.848   4.445   4.904 -1.7399  0.5917  2.7948
  911MOL0     H20252   3.926   4.419   5.113  2.8992 -1.7891 -0.8207
  912MOL0     O20253   0.356  10.278   3.674 -0.3167  0.8845  0.2594
  912MOL0     C20254   0.335  10.153   3.673  0.4576  0.6810 -0.4097
  912MOL0     O20255   0.430  10.052   3.635 -0.0032 -0.0847 -0.2552
  912MOL0     C20256   0.564  10.072   3.625 -0.2555  0.4840 -0.3526
  912MOL0     C20257   0.631  10.164   3.701 -0.2609 -0.8871  0.1595
  912MOL0     C20258   0.778  10.182   3.693  1.0572 -0.2527  1.0161
  912MOL0     C20259   0.847  10.099   3.607  0.6061 -0.1784  0.2206
  912MOL0     O20260   0.983  10.077   3.621 -0.2971 -0.3090  0.6255
  912MOL0     C20261   1.019  10.026   3.751  2.0956 -0.6387  0.3937
  912MOL0     C20262   1.140   9.939   3.735 -0.6702  0.5106 -0.5894
  912MOL0     C20263   1.254  10.011   3.658  0.0430  0.1689 -0.3753
  912MOL0     C20264   1.376   9.919   3.642  0.7673  0.6039 -0.5962
  912MOL0     C20265   1.465   9.918   3.774 -0.4118 -1.1812  1.1917
  912MOL0     C20266   1.615   9.945   3.759 -0.7873 -0.1143 -1.1706
  912MOL0     C20267   1.695   9.957   3.890  1.7619 -0.5658 -0.6818
  912MOL0     C20268   1.652   9.855   4.007 -0.4403  0.8375 -0.2331
  912MOL0     N20269   1.738   9.889   4.124 -0.0402  0.3395  0.7531
  912MOL0     C20270   1.718  10.000   4.205  0.4367  0.2648 -0.3358
  912MOL0     C20271   1.841  10.028   4.249  0.0699  0.1686 -0.2523
  912MOL0     C20272   1.888  10.125   4.350 -0.7448  0.8035 -0.6442
  912MOL0     C20273   2.003  10.219   4.288  0.0379  0.7125  0.1643
  912MOL0     C20274   2.016  10.377   4.331 -0.7688 -0.0185  0.1035
  912MOL0     C20275   2.082  10.408   4.476 -0.6679  1.0707 -0.2864
  912MOL0     O20276   2.216  10.356   4.465  0.6506 -0.4383  0.8616
  912MOL0     C20277   2.302  10.344   4.569  0.0352 -0.0498 -0.3077
  912MOL0     C20278   2.286  10.376   4.703  0.5399 -0.5069 -0.6381
  912MOL0     C20279   2.398  10.377   4.788 -0.7285 -0.5672  0.5207
  912MOL0     C20280   2.534  10.348   4.739 -0.4618  0.4712  0.8078
  912MOL0     C20281   2.652  10.333   4.833  0.4317 -1.1783 -0.0610
  912MOL0     O20282   2.778  10.335   4.776 -0.1056 -0.0961  0.5626
  912MOL0     C20283   2.892  10.322   4.852  0.3946 -0.1111 -1.1204
  912MOL0     C20284   2.899  10.350   4.989 -0.0413  0.5957  0.3019
  912MOL0     C20285   3.029  10.338   5.050 -0.5871 -0.1282 -0.0142
  912MOL0     C20286   3.139  10.294   4.972  0.3528  0.2300  0.2151
  912MOL0     O20287   3.247  10.274   5.047 -0.2734  1.0620 -0.7274
  912MOL0     C20288   3.366  10.210   4.999  1.0701 -0.8216 -0.8537
  912MOL0     C20289   3.464  10.225   5.109 -0.3264  0.0844  0.1753
  912MOL0     C20290   3.581  10.125   5.087 -0.5348  0.1637 -0.6323
  912MOL0     C20291   3.683  10.143   5.200 -0.3480  0.0116 -0.2009
  912MOL0     C20292   3.798  10.038   5.180  0.9698  0.4341  0.4953
  912MOL0     C20293   3.765   9.884   5.171 -0.4641 -0.9895  0.1236
  912MOL0     C20294   3.895   9.806   5.189  0.1983 -0.7599 -0.0875
  912MOL0     C20295   3.985   9.793   5.064 -0.7544  0.4055  0.3036
  912MOL0    Cl20296   3.871   9.679   4.950  0.0668 -0.0447 -0.1798
  912MOL0     C20297   3.124  10.270   4.833 -0.1647  0.8250 -0.5494
  912MOL0     C20298   3.001  10.289   4.777 -0.4231 -0.0624  0.4096
  912MOL0     O20299   2.618  10.319   4.948  0.7582 -1.2624  0.2532
  912MOL0     C20300   2.547  10.325   4.608 -0.4412  0.2005  0.9083
  912MOL0     C20301   2.431  10.325   4.527 -0.7455 -1.1209  0.1744
  912MOL0     N20302   1.932   9.935   4.195 -0.2329 -0.5309 -0.1132
  912MOL0     N20303   1.871   9.857   4.124  0.2813 -0.1342  0.9167
  912MOL0     C20304   0.770  10.007   3.526 -0.4295 -0.0622  0.1672
  912MOL0     C20305   0.637   9.994   3.539  0.5511  1.0052  0.4504
  912MOL0     C20306   0.188  10.106   3.683  0.3418  0.6610 -0.5264
  912MOL0     C20307   0.084  10.194   3.704  0.3252  1.1797  0.3602
  912MOL0     C20308  -0.045  10.144   3.722  0.8075  0.9400  0.4578
  912MOL0     C20309  -0.073  10.004   3.718  0.4486  0.3556 -0.9646
  912MOL0     O20310  -0.203   9.949   3.717 -0.5174  0.1279  0.3422
  912MOL0     C20311  -0.312  10.030   3.706 -0.1018 -0.7500  1.0641
  912MOL0     C20312  -0.353  10.069   3.567 -0.9244  0.7589  0.5179
  912MOL0     C20313  -0.418   9.962   3.489 -0.6389  0.3229  0.2115
  912MOL0     C20314  -0.562   9.943   3.523  0.8931 -0.2219  0.8105
  912MOL0     C20315  -0.606   9.806   3.479  0.2201  0.9532  0.8421
  912MOL0     C20316  -0.634   9.688   3.447 -0.5963 -0.1439  0.1170
  912MOL0     C20317   0.032   9.919   3.719  0.4562 -0.2883  1.0271
  912MOL0     C20318   0.160   9.965   3.689  0.5140  0.4955  0.2238
  912MOL0     H20319   0.568  10.226   3.763 -1.2045  0.0223 -1.6436
  912MOL0     H20320   0.836  10.252   3.753  1.2468 -1.0879  1.8371
  912MOL0     H20321   0.942   9.952   3.773  2.4241 -1.1174 -0.0249
  912MOL0     H20322   1.023  10.108   3.823  0.1358  1.8560 -2.0971
  912MOL0     H20323   1.113   9.847   3.682  0.3097  0.2103 -0.5923
  912MOL0     H20324   1.172   9.910   3.836 -0.3151  0.5934 -0.6773
  912MOL0     H20325   1.286  10.104   3.705  0.7234 -0.4351  0.3872
  912MOL0     H20326   1.210  10.044   3.563  1.3686  2.6083 -0.2074
  912MOL0     H20327   1.334   9.822   3.614  5.4369 -1.0710 -2.7574
  912MOL0     H20328   1.434   9.946   3.553 -0.2985  0.0327 -1.4919
  912MOL0     H20329   1.464   9.816   3.814  1.4567 -0.7842  2.3398
  912MOL0     H20330   1.414   9.991   3.837 -2.9883 -0.7895 -1.1495
  912MOL0     H20331   1.647  10.029   3.698  0.9129  1.2048  1.3789
  912MOL0     H20332   1.649   9.854   3.710 -2.1701 -0.4317 -1.6024
  912MOL0     H20333   1.802   9.938   3.878  1.9496 -1.3252  1.6476
  912MOL0     H20334   1.683  10.054   3.940 -1.1303 -0.7284 -0.8440
  912MOL0     H20335   1.679   9.754   3.975  1.4032  0.8534  1.1444
  912MOL0     H20336   1.546   9.870   4.032 -1.2235 -1.6495 -1.6615
  912MOL0     H20337   1.620  10.044   4.221 -0.9103 -2.2390 -1.1264
  912MOL0     H20338   1.932  10.083   4.440 -0.4305  2.6943  0.1435
  912MOL0     H20339   1.804  10.194   4.368 -0.3347  1.3105 -0.6371
  912MOL0     H20340   1.983  10.223   4.181  4.1077  1.2607 -0.7583
  912MOL0     H20341   2.098  10.166   4.300  1.5301  3.2221  0.1335
  912MOL0     H20342   2.065  10.429   4.248 -1.7801 -0.6859 -0.9512
  912MOL0     H20343   1.917  10.422   4.328 -0.5728  0.5600  1.5661
  912MOL0     H20344   2.026  10.364   4.558  0.1676 -1.7975 -1.1432
  912MOL0     H20345   2.089  10.517   4.489 -0.2963  1.2452 -1.7965
  912MOL0     H20346   2.188  10.406   4.738  1.1686  2.1206 -0.9485
  912MOL0     H20347   2.387  10.419   4.887  1.3200  3.5065 -0.7657
  912MOL0     H20348   2.811  10.370   5.051 -0.4787  0.4603 -0.2664
  912MOL0     H20349   3.030  10.357   5.157 -0.7189  1.6987 -0.3066
  912MOL0     H20350   3.399  10.261   4.908  1.2832  1.0912  0.2483
  912MOL0     H20351   3.337  10.107   4.979  2.3034 -1.7710  1.7607
  912MOL0     H20352   3.418  10.202   5.206 -1.8063  0.6219 -0.3880
  912MOL0     H20353   3.501  10.328   5.103  0.4454 -0.2930 -3.0950
  912MOL0     H20354   3.635  10.126   4.991  0.4013 -0.0266 -0.1188
  912MOL0     H20355   3.546  10.022   5.089  0.1013 -0.0469  1.3600
  912MOL0     H20356   3.716  10.248   5.201  0.0889 -0.1244  0.6313
  912MOL0     H20357   3.631  10.116   5.292 -2.2495 -3.0352 -2.0163
  912MOL0     H20358   3.857  10.055   5.270 -2.3563 -1.9523  3.3675
  912MOL0     H20359   3.862  10.065   5.095  2.3806 -1.5395  0.8585
  912MOL0     H20360   3.716   9.870   5.075  1.1381 -1.0742 -0.7054
  912MOL0     H20361   3.694   9.863   5.252  0.5732  1.2829  1.7544
  912MOL0     H20362   3.955   9.854   5.267  3.0324 -2.2434 -1.2015
  912MOL0     H20363   3.866   9.703   5.215 -1.9941 -0.5034 -1.2464
  912MOL0     H20364   4.081   9.754   5.100 -1.6540 -0.7925  1.4821
  912MOL0     H20365   4.011   9.891   5.022  3.2354 -0.1447  1.0468
  912MOL0     H20366   3.205  10.242   4.766 -3.4414 -2.6510 -3.4821
  912MOL0     H20367   2.991  10.253   4.675 -1.4042  0.9556  0.1084
  912MOL0     H20368   2.641  10.309   4.557 -0.3717  0.7592  0.8584
  912MOL0     H20369   2.451  10.305   4.422 -0.5205  0.8279 -0.1785
  912MOL0     H20370   0.814   9.936   3.457 -3.0154  0.7083 -2.4842
  912MOL0     H20371   0.585   9.932   3.468  2.2290  0.5178 -0.4049
  912MOL0     H20372   0.104  10.301   3.697  0.9792  1.2685  2.6173
  912MOL0     H20373  -0.124  10.219   3.726 -1.5013 -1.4119  3.6022
  912MOL0     H20374  -0.310  10.125   3.760  0.7484  0.2773 -0.6623
  912MOL0     H20375  -0.386   9.958   3.742 -0.3955 -0.6648  0.6532
  912MOL0     H20376  -0.424  10.152   3.574 -2.9600 -0.9902  1.8143
  912MOL0     H20377  -0.261  10.092   3.513 -0.2400  0.1575  1.4050
  912MOL0     H20378  -0.353   9.875   3.505  1.6317  1.0059 -3.9107
  912MOL0     H20379  -0.421   9.998   3.386 -0.5562  1.8504  0.7233
  912MOL0     H20380  -0.598   9.964   3.624 -1.5045 -0.7265  0.1165
  912MOL0     H20381  -0.611  10.020   3.462  3.4987  0.4834 -0.5825
  912MOL0     H20382  -0.653   9.584   3.432  0.1442  0.0966 -3.0938
  912MOL0     H20383   0.013   9.814   3.704 -0.3859 -0.2494  1.7402
  912MOL0     H20384   0.242   9.896   3.669  1.5109  1.8997 -0.7528
  913MOL0     O20385   8.787   7.843   1.710  0.1789 -0.2399  1.2627
  913MOL0     C20386   8.803   7.750   1.624 -0.6820  0.3310 -0.8279
  913MOL0     O20387   8.757   7.751   1.498 -0.1599 -0.5184 -0.0194
  913MOL0     C20388   8.704   7.861   1.437  0.0649 -0.1950  0.0061
  913MOL0     C20389   8.623   7.844   1.327 -0.1635  0.2962 -0.0115
  913MOL0     C20390   8.561   7.949   1.260  0.3025  1.3737  0.0250
  913MOL0     C20391   8.590   8.083   1.297  0.3746  0.4354  0.6510
  913MOL0     O20392   8.526   8.179   1.212 -0.4334  0.0613 -0.5844
  913MOL0     C20393   8.553   8.316   1.244  0.5840  0.3803  0.8390
  913MOL0     C20394   8.529   8.414   1.131  0.0964  0.3835  0.1440
  913MOL0     C20395   8.569   8.554   1.167 -0.2710 -0.3269 -0.4808
  913MOL0     C20396   8.553   8.645   1.049  1.1117  0.5629  0.2459
  913MOL0     C20397   8.603   8.779   1.078  0.7579  0.1866 -0.1281
  913MOL0     C20398   8.629   8.862   0.952  0.6200  0.1699 -0.5040
  913MOL0     C20399   8.737   8.967   0.964 -0.2548 -1.5387  1.2356
  913MOL0     C20400   8.688   9.086   1.056 -0.6729  0.0301  0.0834
  913MOL0     N20401   8.809   9.168   1.070  0.2761 -0.3315  0.0958
  913MOL0     C20402   8.858   9.256   0.973  0.2567 -0.4261  0.3798
  913MOL0     C20403   8.996   9.275   0.999  0.7711 -0.2367  0.6609
  913MOL0     C20404   9.106   9.324   0.911  0.3054  0.7169  0.3142
  913MOL0     C20405   9.157   9.204   0.817 -0.4956  0.0783 -0.1343
  913MOL0     C20406   9.260   9.266   0.721  0.5305 -0.1185 -0.4158
  913MOL0     C20407   9.342   9.161   0.649 -0.5154  0.6353  0.5275
  913MOL0     O20408   9.472   9.162   0.696  0.2688  0.5870  0.5689
  913MOL0     C20409   9.549   9.276   0.680  0.7183  0.1529  0.2577
  913MOL0     C20410   9.623   9.316   0.793 -0.4764 -0.1140 -1.0048
  913MOL0     C20411   9.734   9.405   0.770 -0.2181  0.7575 -0.1273
  913MOL0     C20412   9.779   9.447   0.639  1.2188  0.3273  1.2713
  913MOL0     C20413   9.908   9.506   0.612 -0.7582  0.2987  0.0709
  913MOL0     O20414   9.962   9.521   0.481 -0.7082 -0.1745 -0.3580
  913MOL0     C20415  10.088   9.592   0.469 -0.5886 -0.0723  0.2384
  913MOL0     C20416  10.179   9.545   0.369  0.8855  0.3397 -0.2145
  913MOL0     C20417  10.290   9.624   0.341 -0.5818  0.1561  0.5724
  913MOL0     C20418  10.312   9.748   0.403  0.5684  0.4303 -0.4571
  913MOL0     O20419  10.416   9.820   0.373 -0.6121 -0.0820  0.3330
  913MOL0     C20420  10.530   9.799   0.456 -0.6726 -0.0506  0.1205
  913MOL0     C20421  10.664   9.826   0.377  0.2199 -0.2905  0.4957
  913MOL0     C20422  10.784   9.822   0.472 -0.4748  0.2122 -0.0639
  913MOL0     C20423  10.830   9.965   0.517 -0.3847 -0.2531 -0.1714
  913MOL0     C20424  10.966   9.954   0.592 -0.4239 -0.8465 -0.9955
  913MOL0     C20425  11.025  10.092   0.638 -0.5956 -0.1321 -0.3161
  913MOL0     C20426  11.172  10.077   0.688 -0.2685  0.4407 -0.4793
  913MOL0     C20427  11.264  10.196   0.697 -0.3426 -0.1502  0.8200
  913MOL0    Cl20428  11.445  10.150   0.700  0.1066  0.2860  0.4122
  913MOL0     C20429  10.222   9.786   0.498  0.2810 -0.6056 -0.1838
  913MOL0     C20430  10.113   9.711   0.533  0.0851  0.4591  0.2370
  913MOL0     O20431   9.981   9.526   0.709 -0.9025  0.1032 -0.2849
  913MOL0     C20432   9.697   9.413   0.537  0.4691 -0.1514 -1.5616
  913MOL0     C20433   9.586   9.330   0.552 -0.3420 -0.5059  0.2091
  913MOL0     N20434   9.014   9.215   1.121 -0.4751 -0.1230 -0.0957
  913MOL0     N20435   8.905   9.157   1.165 -0.2730  0.0983 -0.4821
  913MOL0     C20436   8.683   8.110   1.399  0.5944  0.2716  0.0737
  913MOL0     C20437   8.725   8.003   1.469 -1.0894  0.4101 -0.0863
  913MOL0     C20438   8.889   7.636   1.675  0.0263 -0.1533 -0.1969
  913MOL0     C20439   8.972   7.663   1.776 -0.1385 -0.7432 -1.4411
  913MOL0     C20440   9.075   7.567   1.817 -0.3969  1.1988  0.4615
  913MOL0     C20441   9.052   7.432   1.784 -0.6339 -0.1371  0.1383
  913MOL0     O20442   9.141   7.338   1.828  0.3243  0.2895 -0.0987
  913MOL0     C20443   9.208   7.364   1.944  0.2727 -0.4191 -0.5383
  913MOL0     C20444   9.271   7.229   1.986 -0.0177  0.5198 -0.7102
  913MOL0     C20445   9.384   7.187   1.879  0.8804 -0.7133 -0.9127
  913MOL0     C20446   9.472   7.291   1.826 -0.3807  0.1714  0.2918
  913MOL0     C20447   9.581   7.310   1.927 -0.0566 -1.2132 -0.0183
  913MOL0     C20448   9.681   7.326   1.997  0.7291 -0.7666  0.1725
  913MOL0     C20449   8.954   7.401   1.690  0.0544  0.1753 -0.2871
  913MOL0     C20450   8.885   7.503   1.626 -0.1010  0.1051 -0.2225
  913MOL0     H20451   8.609   7.743   1.289 -1.3407 -0.3214  1.9129
  913MOL0     H20452   8.502   7.912   1.177 -1.4027  2.0109  0.9099
  913MOL0     H20453   8.661   8.324   1.259  0.9806  1.1307 -1.8283
  913MOL0     H20454   8.498   8.335   1.336 -2.1167 -4.9629  0.7155
  913MOL0     H20455   8.427   8.418   1.093 -0.7153  1.2177  2.3065
  913MOL0     H20456   8.579   8.373   1.042 -0.2390 -1.7015  0.8526
  913MOL0     H20457   8.672   8.543   1.199 -0.9109 -3.5247  0.8062
  913MOL0     H20458   8.507   8.578   1.254 -2.9583 -0.6274 -2.1625
  913MOL0     H20459   8.625   8.601   0.980  0.2332 -3.1304  1.4992
  913MOL0     H20460   8.444   8.638   1.036  0.2671  1.4871  5.0150
  913MOL0     H20461   8.695   8.757   1.131  1.8420 -1.0886 -2.3628
  913MOL0     H20462   8.526   8.826   1.140  1.2937  1.5140 -0.4352
  913MOL0     H20463   8.538   8.917   0.925 -0.8875 -0.2965  3.0668
  913MOL0     H20464   8.654   8.792   0.871  0.7049  0.7454 -0.9844
  913MOL0     H20465   8.829   8.929   1.008  0.4989 -2.8291 -1.2375
  913MOL0     H20466   8.763   9.009   0.866  0.5645  0.8793  2.4054
  913MOL0     H20467   8.643   9.067   1.154 -0.9584  2.9931  0.6204
  913MOL0     H20468   8.601   9.126   1.003 -2.6662 -3.9474 -0.0783
  913MOL0     H20469   8.824   9.266   0.870  1.5136 -1.1904 -0.1335
  913MOL0     H20470   9.186   9.370   0.970  2.3819 -0.1073 -1.7000
  913MOL0     H20471   9.070   9.398   0.839 -0.0478 -2.7529 -3.4617
  913MOL0     H20472   9.078   9.158   0.758  1.6391 -2.1885 -1.4006
  913MOL0     H20473   9.189   9.127   0.888 -0.7509  0.5833  0.5436
  913MOL0     H20474   9.202   9.323   0.648  0.3544  1.3348  0.8018
  913MOL0     H20475   9.328   9.328   0.779 -0.1568 -1.3617  1.8513
  913MOL0     H20476   9.337   9.184   0.542  0.2427  3.0269  0.9611
  913MOL0     H20477   9.291   9.065   0.660  1.7838 -0.9355 -1.3159
  913MOL0     H20478   9.594   9.271   0.887  3.6363 -3.4249 -1.0565
  913MOL0     H20479   9.804   9.420   0.852  0.8614 -1.2432 -0.5978
  913MOL0     H20480  10.160   9.454   0.312  1.0815  0.4089 -0.3939
  913MOL0     H20481  10.362   9.589   0.268  0.4805  0.7627  1.3014
  913MOL0     H20482  10.532   9.699   0.500 -1.8969  0.7500  2.1143
  913MOL0     H20483  10.536   9.872   0.538  1.4980  0.0314 -0.0281
  913MOL0     H20484  10.660   9.930   0.345  3.1681 -0.0601  0.6487
  913MOL0     H20485  10.675   9.761   0.290  4.1142  1.4589 -0.5424
  913MOL0     H20486  10.862   9.771   0.414 -2.3416 -2.6550 -0.2312
  913MOL0     H20487  10.758   9.755   0.554  3.1934  1.5954  2.4782
  913MOL0     H20488  10.834  10.039   0.437  0.3966  0.4053  0.4585
  913MOL0     H20489  10.763  10.002   0.595  0.5721 -0.4682  0.7760
  913MOL0     H20490  11.033   9.914   0.515 -3.1740  0.0393 -4.0718
  913MOL0     H20491  10.955   9.892   0.681  0.9823 -1.6041 -1.3220
  913MOL0     H20492  10.973  10.133   0.725  0.1891  0.6862 -0.2084
  913MOL0     H20493  11.010  10.157   0.551 -2.2392 -0.6455 -0.4579
  913MOL0     H20494  11.161  10.035   0.788  0.3513  1.0664 -0.1335
  913MOL0     H20495  11.225  10.010   0.620 -1.6996  0.0808 -1.2728
  913MOL0     H20496  11.253  10.263   0.783  2.2551  1.8024 -0.2467
  913MOL0     H20497  11.252  10.250   0.602  1.0757  0.4431  0.9667
  913MOL0     H20498  10.246   9.883   0.541  2.8480 -0.2008 -2.2709
  913MOL0     H20499  10.048   9.751   0.611  1.7075 -0.3128  2.0583
  913MOL0     H20500   9.724   9.436   0.435 -0.2216 -2.0758 -2.2351
  913MOL0     H20501   9.522   9.298   0.470  0.8575 -1.9163 -0.2206
  913MOL0     H20502   8.694   8.211   1.436  2.8721  0.5723 -1.2772
  913MOL0     H20503   8.801   8.027   1.543  1.0385 -1.4266 -1.5215
  913MOL0     H20504   8.967   7.768   1.805 -2.7396 -1.0149 -0.6238
  913MOL0     H20505   9.156   7.609   1.876 -0.7741  0.7668  1.3139
  913MOL0     H20506   9.136   7.391   2.021 -3.9827  1.2852 -4.6338
  913MOL0     H20507   9.279   7.443   1.919  2.7995 -3.0505 -2.3586
  913MOL0     H20508   9.315   7.229   2.086 -2.2472 -1.7809  0.3779
  913MOL0     H20509   9.189   7.158   1.995 -2.4118  3.3468  4.2827
  913MOL0     H20510   9.332   7.146   1.792  0.0235 -2.4592  0.3581
  913MOL0     H20511   9.439   7.102   1.920 -1.8612 -2.3110 -0.2998
  913MOL0     H20512   9.517   7.271   1.728 -3.0861  1.4972 -1.3215
  913MOL0     H20513   9.419   7.385   1.810  0.4051  0.1340 -3.4649
  913MOL0     H20514   9.762   7.316   2.067  0.7946  1.3813  0.4760
  913MOL0     H20515   8.947   7.297   1.660 -0.7280 -0.5308  2.1360
  913MOL0     H20516   8.832   7.486   1.533  1.6806  1.8986 -1.6552
  914MOL0     O20517   4.034   6.501   7.869  0.3018  0.6563  0.9228
  914MOL0     C20518   4.093   6.592   7.919 -1.0369 -0.5817 -0.8798
  914MOL0     O20519   4.043   6.698   7.990  0.7108  0.3570  0.3186
  914MOL0     C20520   3.916   6.692   8.046 -0.3334  0.1362 -0.0125
  914MOL0     C20521   3.807   6.674   7.969  0.3236  0.6212 -0.3152
  914MOL0     C20522   3.672   6.658   8.027  0.3222 -0.5703  0.0333
  914MOL0     C20523   3.657   6.646   8.160 -0.8751 -0.1350  0.8222
  914MOL0     O20524   3.545   6.595   8.220 -0.7397 -0.5729 -0.8002
  914MOL0     C20525   3.544   6.549   8.356 -0.0921 -0.5303  0.1007
  914MOL0     C20526   3.406   6.504   8.406 -1.0617 -0.6944  0.3050
  914MOL0     C20527   3.325   6.632   8.439 -0.2063  0.2377  0.2807
  914MOL0     C20528   3.175   6.619   8.461  0.7322  0.0246  0.1508
  914MOL0     C20529   3.089   6.647   8.341  0.5529 -0.5307 -0.8992
  914MOL0     C20530   2.947   6.699   8.379 -0.1058  0.6992 -0.5678
  914MOL0     C20531   2.844   6.581   8.382  0.7697 -0.7252 -0.0118
  914MOL0     C20532   2.837   6.499   8.518 -1.5920  0.5120 -0.4274
  914MOL0     N20533   2.757   6.569   8.618  0.4387  0.5041 -0.9698
  914MOL0     C20534   2.643   6.521   8.669 -0.7453  0.2800 -0.7310
  914MOL0     C20535   2.598   6.615   8.754 -0.5955 -0.1396  1.2266
  914MOL0     C20536   2.470   6.604   8.829 -0.4216 -0.3360 -0.1480
  914MOL0     C20537   2.463   6.486   8.924 -0.0981  0.3911  0.0752
  914MOL0     C20538   2.325   6.491   8.990 -0.5130  0.3390  0.2027
  914MOL0     C20539   2.297   6.367   9.073  0.8991  0.0197  0.7145
  914MOL0     O20540   2.203   6.379   9.180  0.4199 -0.5685 -0.2895
  914MOL0     C20541   2.255   6.394   9.309  0.1735  0.5101  0.2145
  914MOL0     C20542   2.163   6.364   9.411  0.1589 -1.0127 -0.3921
  914MOL0     C20543   2.207   6.378   9.542 -0.4500 -0.6550  0.2625
  914MOL0     C20544   2.346   6.404   9.574 -0.0311 -0.8714  0.1719
  914MOL0     C20545   2.383   6.416   9.715  0.1042 -0.2099 -0.8279
  914MOL0     O20546   2.516   6.440   9.740  0.0087 -0.1806 -0.1322
  914MOL0     C20547   2.573   6.434   9.868 -0.6456  0.3299  0.5448
  914MOL0     C20548   2.532   6.380   9.985  0.8369  0.8720 -1.1913
  914MOL0     C20549   2.602   6.392  10.101  0.4841 -1.0655 -1.2862
  914MOL0     C20550   2.728   6.456  10.100 -0.4841 -0.0004 -0.1790
  914MOL0     O20551   2.823   6.449  10.201 -0.9002  0.4192 -0.0906
  914MOL0     C20552   2.761   6.473  10.330 -1.1078  0.1087  0.3765
  914MOL0     C20553   2.862   6.508  10.438 -0.5252 -0.2503 -0.4052
  914MOL0     C20554   2.930   6.380  10.506 -0.1270 -0.0664  0.0983
  914MOL0     C20555   3.027   6.430  10.620  0.1074 -0.4171 -0.3136
  914MOL0     C20556   3.166   6.457  10.569  0.3265  0.2064 -0.1507
  914MOL0     C20557   3.250   6.521  10.676 -0.7430  1.1479 -0.7463
  914MOL0     C20558   3.398   6.491  10.662  0.1242 -0.1770 -0.4788
  914MOL0     C20559   3.435   6.352  10.692 -0.5085  0.4562 -0.6378
  914MOL0    Cl20560   3.413   6.321  10.868  0.0184 -0.0718  0.2370
  914MOL0     C20561   2.776   6.507   9.974 -0.2148  0.8994 -1.0711
  914MOL0     C20562   2.702   6.498   9.860  0.6223  0.5633 -0.6818
  914MOL0     O20563   2.293   6.387   9.801 -0.7271  0.2486 -0.0610
  914MOL0     C20564   2.438   6.430   9.470  0.1759 -0.4987  0.2250
  914MOL0     C20565   2.394   6.427   9.339 -0.1256  1.0380  0.4358
  914MOL0     N20566   2.687   6.717   8.751  0.8026 -0.9165  0.6722
  914MOL0     N20567   2.788   6.686   8.677  0.3359 -0.2653 -0.2389
  914MOL0     C20568   3.769   6.679   8.238 -0.3445  0.5077 -0.0747
  914MOL0     C20569   3.901   6.698   8.187  0.5352 -0.9757 -0.3434
  914MOL0     C20570   4.239   6.597   7.897 -0.3877  0.8649  1.0067
  914MOL0     C20571   4.306   6.515   7.802 -0.1576 -0.0527 -0.1577
  914MOL0     C20572   4.443   6.537   7.774  0.7554 -0.1474 -0.2527
  914MOL0     C20573   4.520   6.635   7.850 -0.6776 -0.7773  0.0827
  914MOL0     O20574   4.663   6.645   7.837 -1.0039 -0.5335 -0.3532
  914MOL0     C20575   4.715   6.772   7.816  0.5005  0.5320  0.3658
  914MOL0     C20576   4.842   6.750   7.724  0.2049  0.3813  0.5649
  914MOL0     C20577   4.947   6.677   7.807 -0.4580 -0.7907  0.1099
  914MOL0     C20578   5.057   6.608   7.726  0.0791  0.3906  0.3758
  914MOL0     C20579   5.159   6.550   7.818  0.8693  0.8061 -1.1727
  914MOL0     C20580   5.232   6.526   7.905 -0.1771  0.5013 -0.1502
  914MOL0     C20581   4.453   6.703   7.952  0.0921  1.2219 -0.2336
  914MOL0     C20582   4.323   6.687   7.978  0.1901 -1.2749 -0.5238
  914MOL0     H20583   3.818   6.663   7.861 -2.6943  0.5005 -0.7023
  914MOL0     H20584   3.594   6.625   7.960  0.4496 -0.9304  0.0563
  914MOL0     H20585   3.582   6.625   8.425  1.7068 -1.3861  0.1053
  914MOL0     H20586   3.607   6.463   8.378 -1.0813 -1.6229 -1.1902
  914MOL0     H20587   3.420   6.447   8.498 -2.2232  2.3813  2.5277
  914MOL0     H20588   3.362   6.437   8.331  0.2315 -3.0984  1.5819
  914MOL0     H20589   3.341   6.708   8.362 -1.7929  0.9154  0.5753
  914MOL0     H20590   3.367   6.671   8.532  1.7093 -0.2419 -0.3360
  914MOL0     H20591   3.153   6.519   8.497  1.8673 -0.1048  0.5424
  914MOL0     H20592   3.136   6.699   8.524 -3.5541  0.2429 -2.4046
  914MOL0     H20593   3.073   6.558   8.280 -1.4280 -1.1624  0.4420
  914MOL0     H20594   3.128   6.727   8.278 -0.5026  0.4635 -0.3310
  914MOL0     H20595   2.905   6.769   8.306 -2.6888 -0.6391 -0.4786
  914MOL0     H20596   2.947   6.751   8.475  0.0527 -0.1805 -0.0878
  914MOL0     H20597   2.754   6.641   8.368  1.3262 -0.4212 -2.7764
  914MOL0     H20598   2.841   6.510   8.299 -0.7594 -1.5890  0.7345
  914MOL0     H20599   2.942   6.496   8.550 -0.6915  4.2311 -2.4392
  914MOL0     H20600   2.790   6.402   8.504  1.0951 -0.9889  0.1818
  914MOL0     H20601   2.585   6.432   8.648 -2.3058  1.2728 -0.8018
  914MOL0     H20602   2.389   6.603   8.755  0.5716  5.2504 -1.8580
  914MOL0     H20603   2.456   6.693   8.891 -0.7093  0.2118 -0.9666
  914MOL0     H20604   2.542   6.496   8.998 -1.3573 -1.8174  1.8419
  914MOL0     H20605   2.477   6.397   8.861 -0.8218  1.0430 -1.0415
  914MOL0     H20606   2.342   6.575   9.058  4.4313 -0.6588  0.6241
  914MOL0     H20607   2.243   6.524   8.926 -1.7744  3.1353  2.9862
  914MOL0     H20608   2.384   6.316   9.115  0.9461  0.2824  0.9363
  914MOL0     H20609   2.270   6.288   9.003  4.3703 -0.1247 -0.6425
  914MOL0     H20610   2.058   6.342   9.398 -0.0284 -0.6758  0.4855
  914MOL0     H20611   2.126   6.374   9.614 -1.5431  0.3827 -0.8582
  914MOL0     H20612   2.434   6.332   9.986  2.6466 -3.4935  2.8846
  914MOL0     H20613   2.560   6.350  10.192  0.8055 -0.1692 -0.7026
  914MOL0     H20614   2.713   6.381  10.365  1.2624 -0.3122  2.8438
  914MOL0     H20615   2.689   6.555  10.329  1.5198  2.6269 -1.8709
  914MOL0     H20616   2.797   6.560  10.509  0.1268  0.6211 -0.4226
  914MOL0     H20617   2.941   6.573  10.399  0.0898 -1.0932 -0.5993
  914MOL0     H20618   2.992   6.321  10.437  1.8818 -2.2080  3.4057
  914MOL0     H20619   2.859   6.308  10.546 -1.4072 -0.7852 -3.1366
  914MOL0     H20620   2.982   6.523  10.654 -0.6950  0.5400 -3.5886
  914MOL0     H20621   3.046   6.361  10.703 -0.1050  1.0176  0.9731
  914MOL0     H20622   3.170   6.529  10.487 -2.4443  3.0701  1.9889
  914MOL0     H20623   3.205   6.363  10.529 -0.1016  0.1015 -0.3293
  914MOL0     H20624   3.229   6.481  10.776  2.4950 -0.2907 -0.5225
  914MOL0     H20625   3.232   6.629  10.677  0.4804  1.3829  0.7709
  914MOL0     H20626   3.424   6.519  10.560  0.8044 -1.6011 -0.7078
  914MOL0     H20627   3.438   6.561  10.737 -4.6913  1.4972  0.8973
  914MOL0     H20628   3.538   6.322  10.666 -0.2625  1.6262 -1.0618
  914MOL0     H20629   3.367   6.283  10.641 -1.7028  1.2511 -0.1365
  914MOL0     H20630   2.872   6.557   9.977 -0.4629  1.3103  0.4344
  914MOL0     H20631   2.734   6.529   9.760 -0.6038 -0.6262 -1.4808
  914MOL0     H20632   2.538   6.469   9.487 -1.3736  2.4032  4.2114
  914MOL0     H20633   2.460   6.455   9.257 -1.0987  1.0144 -0.3786
  914MOL0     H20634   3.765   6.675   8.346 -0.8574  1.1723 -0.0631
  914MOL0     H20635   3.988   6.709   8.251 -1.3451 -1.3185  2.4749
  914MOL0     H20636   4.257   6.433   7.751  1.0704 -3.5911  3.7258
  914MOL0     H20637   4.486   6.473   7.697 -0.0120  0.6934 -1.4185
  914MOL0     H20638   4.745   6.818   7.911 -0.3284  1.8108  0.0346
  914MOL0     H20639   4.642   6.827   7.756  2.7491 -0.4276 -3.6569
  914MOL0     H20640   4.817   6.689   7.637  1.4324 -1.1206  1.2242
  914MOL0     H20641   4.870   6.849   7.686 -1.0612  1.3056  1.8928
  914MOL0     H20642   4.901   6.607   7.877 -1.1810  2.7111  3.5201
  914MOL0     H20643   4.988   6.753   7.875 -2.0266  1.9488 -1.7809
  914MOL0     H20644   5.013   6.527   7.667  0.9153 -0.0465  0.3491
  914MOL0     H20645   5.107   6.683   7.664 -1.3362  0.2415 -1.0077
  914MOL0     H20646   5.289   6.493   7.990 -2.3760 -2.7146  0.2527
  914MOL0     H20647   4.512   6.783   7.996 -0.5635  1.0986  0.9019
  914MOL0     H20648   4.281   6.751   8.055  1.6854 -0.9267  0.0203
  915MOL0     O20649   5.888   4.610   5.961 -0.1180  0.1660 -0.1918
  915MOL0     C20650   5.860   4.490   5.963  0.0102  0.7151 -1.0782
  915MOL0     O20651   5.918   4.389   5.890  0.7576  0.5524 -0.1634
  915MOL0     C20652   6.038   4.410   5.839 -0.3872 -0.8372  0.1911
  915MOL0     C20653   6.151   4.356   5.901 -0.7881 -0.5291 -0.0268
  915MOL0     C20654   6.261   4.366   5.820 -0.0089  0.4504 -0.3373
  915MOL0     C20655   6.277   4.450   5.715 -0.6823 -0.0495  0.5440
  915MOL0     O20656   6.404   4.453   5.655  0.1410 -0.0595  0.4606
  915MOL0     C20657   6.424   4.508   5.525  0.1122  0.1711  0.6946
  915MOL0     C20658   6.577   4.492   5.493 -1.2797  0.3759  0.1230
  915MOL0     C20659   6.617   4.510   5.337  1.0985 -0.9573  1.0853
  915MOL0     C20660   6.767   4.533   5.321 -0.2728  0.4792  0.1064
  915MOL0     C20661   6.823   4.664   5.361  0.2297 -0.6863  0.0670
  915MOL0     C20662   6.970   4.675   5.334  0.3229 -0.7894  0.4090
  915MOL0     C20663   7.013   4.822   5.371 -0.6181 -0.1960 -0.0128
  915MOL0     C20664   7.151   4.855   5.322 -0.4953  0.8177  0.9957
  915MOL0     N20665   7.205   4.982   5.364 -0.1202  0.4751  0.1157
  915MOL0     C20666   7.335   4.995   5.389 -0.1986 -0.6535 -0.0341
  915MOL0     C20667   7.366   5.125   5.382  0.5140 -0.6021  0.6821
  915MOL0     C20668   7.502   5.195   5.407 -1.4276  0.2320 -0.0788
  915MOL0     C20669   7.616   5.143   5.303 -1.1714  0.0839 -0.5873
  915MOL0     C20670   7.578   5.172   5.151 -0.1365  0.2232  0.7589
  915MOL0     C20671   7.507   5.310   5.121 -0.5472 -0.1908  0.5529
  915MOL0     O20672   7.532   5.335   4.982  0.5540  0.6277 -0.4708
  915MOL0     C20673   7.482   5.450   4.926  0.2942  0.0019  0.2166
  915MOL0     C20674   7.397   5.550   4.971 -0.0010  1.0154  0.2956
  915MOL0     C20675   7.355   5.657   4.902  0.6639 -1.1258  1.0642
  915MOL0     C20676   7.400   5.674   4.764  0.3122 -0.1614 -0.3882
  915MOL0     C20677   7.348   5.776   4.673  0.4224  0.2527 -0.1556
  915MOL0     O20678   7.252   5.852   4.735 -0.0806  0.1321 -0.7852
  915MOL0     C20679   7.193   5.952   4.665 -0.2827 -0.1284 -0.4847
  915MOL0     C20680   7.059   5.942   4.654  0.6549  0.4307  0.6911
  915MOL0     C20681   6.984   6.038   4.580  0.0968 -0.6106  1.0362
  915MOL0     C20682   7.056   6.145   4.509 -0.7243 -0.5135 -0.5056
  915MOL0     O20683   6.998   6.240   4.425  1.3278 -0.0215 -0.2107
  915MOL0     C20684   6.857   6.260   4.438 -0.8596 -0.6283  1.1268
  915MOL0     C20685   6.823   6.399   4.371 -1.0216  0.2760  0.3210
  915MOL0     C20686   6.808   6.509   4.466  0.2008 -0.4273 -0.3202
  915MOL0     C20687   6.758   6.645   4.407 -0.2722  0.1888  0.1256
  915MOL0     C20688   6.768   6.762   4.508 -0.3075 -0.1993  0.3549
  915MOL0     C20689   6.643   6.837   4.545  0.0147  0.6352 -0.1848
  915MOL0     C20690   6.670   6.952   4.643 -0.8560  0.2754 -0.3709
  915MOL0     C20691   6.746   7.065   4.568  0.4962  0.2689 -0.6644
  915MOL0    Cl20692   6.761   7.201   4.683  0.1928  0.0801  0.7085
  915MOL0     C20693   7.196   6.155   4.519  0.2862 -0.4558  0.5627
  915MOL0     C20694   7.262   6.060   4.604 -0.4659  0.2530 -1.3598
  915MOL0     O20695   7.381   5.783   4.554 -0.5362  0.3317  0.1557
  915MOL0     C20696   7.500   5.584   4.722  0.1302 -0.6969  0.5047
  915MOL0     C20697   7.542   5.477   4.801  0.8607 -0.0877  0.5616
  915MOL0     N20698   7.248   5.191   5.356  0.5076 -0.0879 -0.6622
  915MOL0     N20699   7.147   5.100   5.351  0.8857 -0.7135 -0.1335
  915MOL0     C20700   6.170   4.536   5.674  0.0352 -0.1946 -0.1943
  915MOL0     C20701   6.051   4.510   5.736  0.5184 -1.0045 -0.0481
  915MOL0     C20702   5.737   4.456   6.043  0.8273  0.9787 -0.0935
  915MOL0     C20703   5.697   4.321   6.055  0.0498 -0.3901  0.7909
  915MOL0     C20704   5.578   4.296   6.123  0.4912 -0.9009  0.4788
  915MOL0     C20705   5.504   4.397   6.185 -0.1183  0.3258  1.3175
  915MOL0     O20706   5.376   4.378   6.240 -1.0249 -0.1555 -0.0366
  915MOL0     C20707   5.352   4.262   6.327  0.3830 -0.1135 -0.2000
  915MOL0     C20708   5.458   4.246   6.442  0.8802  0.4732 -0.4137
  915MOL0     C20709   5.485   4.381   6.516 -0.7735  0.5984 -0.4527
  915MOL0     C20710   5.575   4.350   6.637 -0.6519  0.9890 -0.3789
  915MOL0     C20711   5.625   4.460   6.713  0.0952  0.1956  0.8623
  915MOL0     C20712   5.683   4.548   6.781 -0.0437  1.3031  0.3439
  915MOL0     C20713   5.547   4.530   6.165 -0.2806  0.2530 -0.0433
  915MOL0     C20714   5.662   4.555   6.102 -0.3091  1.0023  0.2501
  915MOL0     H20715   6.163   4.283   5.980  1.0910  1.7402  1.9468
  915MOL0     H20716   6.348   4.309   5.851  2.2614  1.9856 -3.4009
  915MOL0     H20717   6.390   4.608   5.498 -0.9209 -0.2076  0.5455
  915MOL0     H20718   6.364   4.444   5.460  1.7692  0.4207 -1.2057
  915MOL0     H20719   6.600   4.395   5.540  4.1919  0.4525 -1.6348
  915MOL0     H20720   6.631   4.556   5.563 -1.2873 -0.8396  1.2784
  915MOL0     H20721   6.563   4.596   5.297 -1.1367 -1.6796  2.3488
  915MOL0     H20722   6.591   4.418   5.282 -0.2918 -1.7275  2.9268
  915MOL0     H20723   6.822   4.445   5.356  0.8127  2.1582  2.9351
  915MOL0     H20724   6.788   4.537   5.214  1.9435  3.9566  0.5311
  915MOL0     H20725   6.797   4.680   5.466  2.6795  0.4810  0.5718
  915MOL0     H20726   6.779   4.747   5.305  0.6631  0.8089  1.8423
  915MOL0     H20727   7.002   4.677   5.229  1.8151  4.8781  0.6655
  915MOL0     H20728   7.027   4.595   5.382  1.6781  0.0945  0.3230
  915MOL0     H20729   6.940   4.887   5.323 -0.0114  0.5920  0.1121
  915MOL0     H20730   7.014   4.851   5.477  2.3926  0.7431 -0.1787
  915MOL0     H20731   7.148   4.847   5.213 -1.4762 -0.2062  1.0835
  915MOL0     H20732   7.216   4.779   5.367  0.7361  0.8153 -0.7001
  915MOL0     H20733   7.401   4.909   5.395 -2.8806 -2.7959  1.4687
  915MOL0     H20734   7.540   5.184   5.509  2.2261  0.1610 -1.3128
  915MOL0     H20735   7.506   5.302   5.386  0.5451  0.9789  3.3759
  915MOL0     H20736   7.626   5.036   5.326  0.7199  0.2233 -0.6628
  915MOL0     H20737   7.708   5.195   5.329 -1.5786 -0.5449  2.4459
  915MOL0     H20738   7.675   5.157   5.103 -2.1735 -0.5913 -3.5577
  915MOL0     H20739   7.527   5.079   5.124 -1.6658  1.5429 -1.1146
  915MOL0     H20740   7.557   5.394   5.170 -0.0756 -1.0249  1.5398
  915MOL0     H20741   7.402   5.291   5.148 -0.5557 -1.2504 -0.1661
  915MOL0     H20742   7.340   5.536   5.063  0.1133 -0.0466  0.2230
  915MOL0     H20743   7.285   5.732   4.936  1.2530 -0.0611  0.0030
  915MOL0     H20744   7.009   5.856   4.698 -0.0110  1.2641  1.6145
  915MOL0     H20745   6.876   6.030   4.579 -0.1578  2.1489  0.6538
  915MOL0     H20746   6.830   6.274   4.543  0.7645 -0.4277  1.5472
  915MOL0     H20747   6.812   6.171   4.392  3.5535 -1.4495 -2.2028
  915MOL0     H20748   6.725   6.400   4.322 -0.2946 -1.1694 -1.2464
  915MOL0     H20749   6.889   6.419   4.286 -4.1442 -1.3206 -2.7553
  915MOL0     H20750   6.903   6.535   4.514  0.0732  4.5563 -2.1132
  915MOL0     H20751   6.741   6.482   4.548  1.9811 -1.9675  0.7126
  915MOL0     H20752   6.815   6.657   4.315 -0.6590  0.6745 -0.0574
  915MOL0     H20753   6.653   6.642   4.375 -0.0936  0.2640 -0.4653
  915MOL0     H20754   6.841   6.834   4.470 -0.2206 -0.3853  0.1665
  915MOL0     H20755   6.819   6.712   4.590  0.7788 -4.8943 -2.7699
  915MOL0     H20756   6.578   6.760   4.587  0.4351  0.8146  0.8160
  915MOL0     H20757   6.592   6.867   4.453 -2.5659  0.7540  1.2120
  915MOL0     H20758   6.573   6.991   4.677 -1.3155 -1.4947  0.4943
  915MOL0     H20759   6.729   6.915   4.727  0.3533  1.5395 -0.6449
  915MOL0     H20760   6.687   7.092   4.480 -2.8828 -3.7299  0.0556
  915MOL0     H20761   6.847   7.031   4.542  0.6552  2.0140 -2.4889
  915MOL0     H20762   7.260   6.228   4.469 -2.6353 -0.1188 -3.1237
  915MOL0     H20763   7.368   6.063   4.623 -0.3972 -0.0101 -1.6974
  915MOL0     H20764   7.539   5.610   4.624 -0.2654  0.9227  0.7451
  915MOL0     H20765   7.604   5.399   4.757  1.3035  0.2738  0.5323
  915MOL0     H20766   6.175   4.617   5.602 -2.6480  1.4577  1.3364
  915MOL0     H20767   5.960   4.561   5.707 -0.5187 -0.8246  3.1252
  915MOL0     H20768   5.754   4.238   6.016  0.4596  0.1736  0.1692
  915MOL0     H20769   5.560   4.189   6.134  0.9959 -0.8138  2.7225
  915MOL0     H20770   5.334   4.177   6.260 -1.7014  1.6934 -2.1043
  915MOL0     H20771   5.254   4.275   6.373 -0.0077  2.5938 -1.6055
  915MOL0     H20772   5.418   4.162   6.500  0.2712  0.8436 -0.2852
  915MOL0     H20773   5.555   4.223   6.398  0.3841  1.8544 -2.3771
  915MOL0     H20774   5.388   4.425   6.543 -1.0448 -0.4078  0.2894
  915MOL0     H20775   5.536   4.453   6.453  0.9592  1.4133  1.7460
  915MOL0     H20776   5.526   4.282   6.708  1.2036  1.0027  0.9827
  915MOL0     H20777   5.661   4.298   6.594  1.1552  1.2170  2.6505
  915MOL0     H20778   5.739   4.628   6.826 -0.7942  1.7698  0.4643
  915MOL0     H20779   5.488   4.608   6.211  1.2083  0.7548  1.1320
  915MOL0     H20780   5.677   4.662   6.101  1.1543  0.8529 -1.8153
  916MOL0     O20781   3.080   5.412   0.596 -0.2052 -0.5248  0.5146
  916MOL0     C20782   3.201   5.434   0.578  1.3432 -0.1439 -0.2083
  916MOL0     O20783   3.247   5.561   0.548 -1.0050 -0.0348  0.1071
  916MOL0     C20784   3.165   5.662   0.584  0.2586  0.4635  0.1431
  916MOL0     C20785   3.073   5.702   0.486 -0.0745 -1.0044  0.2222
  916MOL0     C20786   2.978   5.808   0.500  0.1054  0.8481  0.4680
  916MOL0     C20787   2.973   5.874   0.627 -0.6929 -0.0370 -0.3579
  916MOL0     O20788   2.894   5.987   0.655 -0.9844  0.3468 -0.3655
  916MOL0     C20789   2.792   6.010   0.560 -0.7202  0.1181  0.2032
  916MOL0     C20790   2.685   6.114   0.600  0.0076 -0.7206 -0.7073
  916MOL0     C20791   2.642   6.097   0.747  0.1411  0.4057  0.6205
  916MOL0     C20792   2.516   6.190   0.783 -1.1132  0.3775 -0.3935
  916MOL0     C20793   2.463   6.173   0.929  0.1469  0.2216 -0.1938
  916MOL0     C20794   2.519   6.265   1.029  0.3098  1.2885 -0.2214
  916MOL0     C20795   2.662   6.228   1.070  0.4582 -0.1116  0.6470
  916MOL0     C20796   2.712   6.331   1.168 -0.2357  0.3025  0.4467
  916MOL0     N20797   2.851   6.298   1.203 -0.3053  0.8220  0.5242
  916MOL0     C20798   2.954   6.277   1.112  0.1084  0.4232  1.4684
  916MOL0     C20799   3.062   6.250   1.189  0.8294 -0.1659 -0.4327
  916MOL0     C20800   3.207   6.228   1.137 -1.4855 -0.0256  0.1995
  916MOL0     C20801   3.224   6.186   0.990  0.0554 -0.0500  0.7060
  916MOL0     C20802   3.356   6.114   0.966 -0.4727 -0.5541 -0.4769
  916MOL0     C20803   3.362   6.051   0.824 -0.3921 -0.2553 -0.4611
  916MOL0     O20804   3.495   6.057   0.760  0.5253 -0.1314 -0.0278
  916MOL0     C20805   3.524   5.959   0.658  0.5007 -0.7059 -0.4590
  916MOL0     C20806   3.431   5.898   0.576 -0.1669 -0.8954 -0.7156
  916MOL0     C20807   3.472   5.807   0.475  0.5089 -0.6372  0.3144
  916MOL0     C20808   3.602   5.774   0.454  0.3416 -0.2656 -0.1558
  916MOL0     C20809   3.647   5.689   0.348 -0.9373  0.5149  0.5270
  916MOL0     O20810   3.782   5.663   0.346 -0.2281 -0.4978 -0.5724
  916MOL0     C20811   3.834   5.578   0.260 -0.3923  0.3603 -0.3372
  916MOL0     C20812   3.841   5.438   0.270 -0.2660  0.1518 -0.2761
  916MOL0     C20813   3.918   5.360   0.183 -0.3034 -0.1129 -0.3203
  916MOL0     C20814   4.009   5.411   0.097 -0.2409 -0.0525  0.4842
  916MOL0     O20815   4.075   5.328   0.022  1.0273  0.1216 -0.1616
  916MOL0     C20816   4.215   5.350  -0.002  0.0611  0.4162  0.1073
  916MOL0     C20817   4.289   5.317   0.136 -0.4245  0.5294  1.0684
  916MOL0     C20818   4.431   5.344   0.105  0.6298 -1.0977  0.0703
  916MOL0     C20819   4.516   5.354   0.228 -0.3472  0.4605 -0.0120
  916MOL0     C20820   4.655   5.404   0.190  0.1413 -0.2740  0.2400
  916MOL0     C20821   4.743   5.400   0.311  0.2166  0.1819  0.0044
  916MOL0     C20822   4.873   5.485   0.279 -0.7096  0.1988 -0.2868
  916MOL0     C20823   4.906   5.544   0.415 -0.9991  0.2076 -0.1427
  916MOL0    Cl20824   4.771   5.656   0.483 -0.1040  0.2963 -0.2364
  916MOL0     C20825   4.014   5.554   0.090  0.9143 -0.3039 -0.6341
  916MOL0     C20826   3.923   5.636   0.167 -0.1393 -0.8958 -0.1840
  916MOL0     O20827   3.571   5.644   0.268 -0.6009  0.4919  0.2709
  916MOL0     C20828   3.697   5.818   0.553 -0.4693  0.4056  0.5857
  916MOL0     C20829   3.659   5.914   0.647 -0.5453  0.2204 -1.3921
  916MOL0     N20830   3.017   6.244   1.318 -0.1739 -0.7597 -0.7108
  916MOL0     N20831   2.895   6.264   1.329  0.8694 -0.4521 -0.3820
  916MOL0     C20832   3.053   5.827   0.734 -0.4792  0.2877  0.3552
  916MOL0     C20833   3.148   5.726   0.708 -0.4920  1.0602  0.5196
  916MOL0     C20834   3.297   5.319   0.557  0.5974 -0.7872  0.6027
  916MOL0     C20835   3.396   5.324   0.466 -0.1478  0.0982 -0.2243
  916MOL0     C20836   3.491   5.225   0.441  0.6062  0.2424  0.0366
  916MOL0     C20837   3.481   5.103   0.503  0.9575  0.8678 -0.0375
  916MOL0     O20838   3.569   5.008   0.459  0.2283 -0.1864 -0.1133
  916MOL0     C20839   3.599   4.894   0.540  0.1120  0.9166  0.3710
  916MOL0     C20840   3.701   4.933   0.638 -0.4597 -0.0264  0.1298
  916MOL0     C20841   3.741   4.821   0.733 -0.5453  0.8011  0.2240
  916MOL0     C20842   3.720   4.836   0.886  0.4268 -0.4157  0.1713
  916MOL0     C20843   3.806   4.953   0.932 -0.3067  0.8811 -0.2121
  916MOL0     C20844   3.865   5.048   0.969  0.6157  0.6023 -0.2432
  916MOL0     C20845   3.368   5.086   0.589 -0.5030  0.3827 -0.2929
  916MOL0     C20846   3.284   5.194   0.619  0.1612 -0.5102 -0.9528
  916MOL0     H20847   3.067   5.656   0.388 -2.3939  1.9628 -1.2126
  916MOL0     H20848   2.925   5.844   0.413  1.3044  1.1270 -0.1587
  916MOL0     H20849   2.736   5.916   0.562  0.4401 -0.6551 -1.3020
  916MOL0     H20850   2.833   6.036   0.462  0.5812  0.3404  0.7883
  916MOL0     H20851   2.601   6.111   0.531 -0.1984  0.3134 -0.5093
  916MOL0     H20852   2.736   6.210   0.593 -2.6511  0.6953 -2.7483
  916MOL0     H20853   2.722   6.085   0.821  0.3596 -2.8871 -0.0210
  916MOL0     H20854   2.604   5.995   0.751 -1.1362  0.8323  0.1404
  916MOL0     H20855   2.527   6.294   0.753 -0.9513  0.5279  0.1874
  916MOL0     H20856   2.437   6.151   0.717  0.8951  0.8641 -3.2616
  916MOL0     H20857   2.473   6.070   0.967  0.4644 -0.8453 -2.9235
  916MOL0     H20858   2.354   6.187   0.927 -0.1960 -2.0487 -1.7782
  916MOL0     H20859   2.445   6.269   1.109 -0.2036  1.1760 -0.6887
  916MOL0     H20860   2.527   6.361   0.977  2.0493  1.7634  0.8588
  916MOL0     H20861   2.651   6.140   1.134 -0.2055 -1.9045 -1.7968
  916MOL0     H20862   2.728   6.224   0.984  0.9737  0.8918  0.9773
  916MOL0     H20863   2.643   6.341   1.252 -1.8578  0.1109 -0.8109
  916MOL0     H20864   2.723   6.430   1.122  2.1245 -0.5551 -1.0017
  916MOL0     H20865   2.961   6.276   1.004  0.2792 -2.1192  1.4365
  916MOL0     H20866   3.260   6.162   1.206 -1.2478  0.5890  0.6203
  916MOL0     H20867   3.263   6.321   1.144 -0.2917 -0.5054 -2.2420
  916MOL0     H20868   3.216   6.266   0.916 -0.9733 -1.1825 -0.4367
  916MOL0     H20869   3.139   6.120   0.975 -2.7838  2.8605  2.6635
  916MOL0     H20870   3.427   6.196   0.981 -2.4729  1.5008 -1.6794
  916MOL0     H20871   3.399   6.045   1.039  1.5225  0.5730 -0.4956
  916MOL0     H20872   3.307   6.116   0.754 -0.6607  2.8485  2.3565
  916MOL0     H20873   3.313   5.953   0.821  0.4878 -0.7495  0.8115
  916MOL0     H20874   3.325   5.924   0.580 -0.1176 -0.8058  0.1863
  916MOL0     H20875   3.395   5.767   0.410 -2.2910  1.9439  1.8187
  916MOL0     H20876   3.785   5.383   0.344 -0.6369 -1.8451 -1.9304
  916MOL0     H20877   3.915   5.252   0.180 -0.9253 -0.0793 -2.0863
  916MOL0     H20878   4.234   5.455  -0.024 -1.7582  0.9706  0.9693
  916MOL0     H20879   4.248   5.290  -0.088 -2.1387 -1.2326  0.3108
  916MOL0     H20880   4.280   5.212   0.165 -1.2878  0.2486 -0.1279
  916MOL0     H20881   4.248   5.372   0.221  0.5009 -0.0154  1.8864
  916MOL0     H20882   4.441   5.441   0.055  2.3763 -0.3472  1.7483
  916MOL0     H20883   4.475   5.271   0.036 -3.4642 -3.1524 -0.7210
  916MOL0     H20884   4.471   5.422   0.301  0.3889  0.3809  0.5262
  916MOL0     H20885   4.511   5.258   0.280  1.9145  0.4405  0.2575
  916MOL0     H20886   4.632   5.505   0.156 -3.4587 -0.2053  2.3753
  916MOL0     H20887   4.702   5.355   0.104 -0.5194 -2.4272  1.0403
  916MOL0     H20888   4.785   5.298   0.313  3.1670  1.2493 -1.0725
  916MOL0     H20889   4.691   5.417   0.405  2.1037 -0.3661  1.2231
  916MOL0     H20890   4.960   5.427   0.248  0.8757  2.2547  0.0678
  916MOL0     H20891   4.860   5.563   0.203  0.0119 -0.4530 -1.1093
  916MOL0     H20892   4.989   5.613   0.401 -0.6683 -0.0407  0.5572
  916MOL0     H20893   4.927   5.457   0.478 -2.0165 -1.6779 -2.2649
  916MOL0     H20894   4.075   5.610   0.019 -0.4827  0.8997 -0.9490
  916MOL0     H20895   3.922   5.744   0.156  0.1507 -0.8946 -0.1927
  916MOL0     H20896   3.795   5.775   0.538 -0.9118 -0.9290  1.3948
  916MOL0     H20897   3.745   5.959   0.696  0.1594  0.0777 -2.4769
  916MOL0     H20898   3.036   5.881   0.826  0.3339  0.0849  0.6268
  916MOL0     H20899   3.207   5.692   0.793  0.1691 -0.9120 -0.6692
  916MOL0     H20900   3.416   5.418   0.415  2.5712 -1.4311 -2.2669
  916MOL0     H20901   3.572   5.241   0.372 -0.5737 -2.0421 -2.0174
  916MOL0     H20902   3.641   4.813   0.480 -2.2834 -2.2265  2.6143
  916MOL0     H20903   3.510   4.846   0.582 -0.8004  0.3844 -1.9877
  916MOL0     H20904   3.791   4.970   0.589  0.7610  0.9862  2.9337
  916MOL0     H20905   3.665   5.015   0.701 -2.4010  0.8314 -1.9565
  916MOL0     H20906   3.847   4.806   0.709 -1.1319 -3.3947 -0.5342
  916MOL0     H20907   3.692   4.728   0.702  3.1657 -1.9047  1.6633
  916MOL0     H20908   3.616   4.869   0.894  1.2617  3.0804 -1.4954
  916MOL0     H20909   3.750   4.745   0.938 -0.5162 -0.7321  0.1842
  916MOL0     H20910   3.910   5.139   1.001  0.7452  1.1744 -1.9608
  916MOL0     H20911   3.356   4.991   0.640  1.2728  1.6444  2.7947
  916MOL0     H20912   3.196   5.185   0.682  1.3627 -2.0011  0.5899
  917MOL0     O20913   4.197   8.496  11.250 -0.4045  0.2638 -0.4809
  917MOL0     C20914   4.282   8.449  11.325  0.1829 -0.2984 -1.2274
  917MOL0     O20915   4.269   8.355  11.422  0.4451 -0.4717 -0.0600
  917MOL0     C20916   4.153   8.297  11.426  0.0523  1.0526 -0.3014
  917MOL0     C20917   4.160   8.157  11.394 -0.0358  0.2116  0.2872
  917MOL0     C20918   4.045   8.071  11.399  0.3531  0.8008 -0.5487
  917MOL0     C20919   3.935   8.134  11.452  1.2385 -0.4425  0.5600
  917MOL0     O20920   3.822   8.060  11.487 -0.0122 -0.4855 -0.1655
  917MOL0     C20921   3.795   7.933  11.435  0.0706  0.8769 -0.9530
  917MOL0     C20922   3.822   7.822  11.537  0.6331  0.0795 -1.3309
  917MOL0     C20923   3.775   7.859  11.686  0.4663 -0.5858  0.0306
  917MOL0     C20924   3.627   7.882  11.680 -1.0138 -0.5205 -0.1871
  917MOL0     C20925   3.551   7.866  11.813 -0.3653  0.9095 -0.7489
  917MOL0     C20926   3.561   7.717  11.859  0.1048  0.3236 -0.2423
  917MOL0     C20927   3.559   7.683  12.012 -0.1270  0.0099 -0.1799
  917MOL0     C20928   3.430   7.679  12.100  0.3814 -0.2745 -0.8447
  917MOL0     N20929   3.342   7.552  12.081  0.3239 -0.3219 -0.1071
  917MOL0     C20930   3.275   7.527  11.971 -0.8496 -0.0138  0.7887
  917MOL0     C20931   3.233   7.395  11.990 -0.0812  0.0710 -0.0012
  917MOL0     C20932   3.189   7.299  11.887  0.1661  0.6634 -0.7336
  917MOL0     C20933   3.052   7.327  11.828 -0.9656 -0.9001 -0.5925
  917MOL0     C20934   2.999   7.231  11.720 -0.9231  0.2592 -0.7776
  917MOL0     C20935   2.872   7.271  11.664  1.1550 -1.0303 -0.2811
  917MOL0     O20936   2.773   7.314  11.762 -0.2206 -0.0375 -0.1185
  917MOL0     C20937   2.676   7.390  11.706 -0.5257 -0.1796  0.6955
  917MOL0     C20938   2.601   7.349  11.592 -0.1224 -1.2028  0.1223
  917MOL0     C20939   2.512   7.439  11.531 -0.2035  0.1624  0.2970
  917MOL0     C20940   2.481   7.558  11.591  0.6577 -0.0695 -0.2317
  917MOL0     C20941   2.376   7.658  11.532  0.9454 -0.1740  0.4158
  917MOL0     O20942   2.391   7.779  11.579  0.5497  0.3345  0.1081
  917MOL0     C20943   2.294   7.876  11.577 -0.5259 -0.7240 -0.9557
  917MOL0     C20944   2.153   7.852  11.553 -0.8859 -0.6096  0.6255
  917MOL0     C20945   2.065   7.962  11.548  0.0755 -0.2766 -0.2993
  917MOL0     C20946   2.120   8.093  11.558  0.2015 -0.7795 -0.4151
  917MOL0     O20947   2.038   8.202  11.560 -0.6799  0.4003 -0.6245
  917MOL0     C20948   2.009   8.251  11.690 -0.3237  0.2470  0.9060
  917MOL0     C20949   1.882   8.322  11.676  0.6389 -0.9218 -0.0533
  917MOL0     C20950   1.906   8.474  11.651  0.3446 -1.2519  0.0052
  917MOL0     C20951   1.780   8.561  11.656 -0.0501  0.4909 -0.1695
  917MOL0     C20952   1.774   8.694  11.584  0.3228  0.9402  0.7154
  917MOL0     C20953   1.652   8.776  11.640 -0.3606 -0.4166  0.0700
  917MOL0     C20954   1.505   8.725  11.610 -0.2981 -0.1661  0.1953
  917MOL0     C20955   1.493   8.681  11.467  0.2626 -0.2774 -0.4008
  917MOL0    Cl20956   1.505   8.818  11.356  0.1965  0.2438 -0.6561
  917MOL0     C20957   2.257   8.110  11.596  0.4244  0.2724 -0.4880
  917MOL0     C20958   2.344   7.997  11.604 -0.3545  0.0364 -0.0944
  917MOL0     O20959   2.296   7.622  11.450  0.7402  0.5650  0.0411
  917MOL0     C20960   2.548   7.587  11.711 -0.2842 -0.0132 -0.4217
  917MOL0     C20961   2.648   7.507  11.759 -0.4446 -0.1200 -0.0109
  917MOL0     N20962   3.286   7.345  12.100 -0.5499  0.0223  0.1213
  917MOL0     N20963   3.350   7.439  12.159 -0.5917 -1.0546 -0.4343
  917MOL0     C20964   3.922   8.269  11.479  0.2627 -0.2256  0.1498
  917MOL0     C20965   4.031   8.352  11.470 -0.2099  0.6541  0.6735
  917MOL0     C20966   4.417   8.504  11.319 -0.6726  0.3625  0.3326
  917MOL0     C20967   4.445   8.630  11.258  0.4640  0.1362  0.2043
  917MOL0     C20968   4.574   8.669  11.252 -0.1566 -1.0118 -0.2426
  917MOL0     C20969   4.684   8.587  11.295  0.0680  0.0144  0.2690
  917MOL0     O20970   4.817   8.614  11.273 -0.2957  0.2264 -0.4694
  917MOL0     C20971   4.853   8.757  11.257 -0.3465  0.6081 -0.2437
  917MOL0     C20972   4.994   8.770  11.311 -0.1625 -0.4193  0.9175
  917MOL0     C20973   5.014   8.920  11.293 -0.7287  0.0393 -0.3349
  917MOL0     C20974   5.160   8.947  11.322 -0.1623  1.2317 -0.3855
  917MOL0     C20975   5.243   8.934  11.209  0.7198 -0.1750 -0.2289
  917MOL0     C20976   5.323   8.914  11.124 -0.0561  0.4956  0.5024
  917MOL0     C20977   4.660   8.473  11.372  0.1655  0.7184 -0.7887
  917MOL0     C20978   4.529   8.427  11.381  0.3892  0.6662  0.4719
  917MOL0     H20979   4.258   8.111  11.384  0.3077  0.9260  0.2441
  917MOL0     H20980   4.051   7.967  11.368  0.9314  0.7731 -0.3468
  917MOL0     H20981   3.843   7.905  11.341 -4.2459 -2.6681 -2.4339
  917MOL0     H20982   3.690   7.945  11.408 -0.3557  0.2066  0.2860
  917MOL0     H20983   3.931   7.813  11.535  0.6691  0.3292 -0.7319
  917MOL0     H20984   3.769   7.733  11.502  2.2679 -1.3020 -0.4162
  917MOL0     H20985   3.831   7.947  11.718 -3.2780  2.2204 -0.4961
  917MOL0     H20986   3.800   7.772  11.747 -1.8052 -0.5375  1.1233
  917MOL0     H20987   3.605   7.976  11.629 -2.1726  0.3773  1.8472
  917MOL0     H20988   3.595   7.800  11.616  0.7485 -0.6097 -1.0164
  917MOL0     H20989   3.446   7.898  11.813 -0.6011  0.1632 -1.8388
  917MOL0     H20990   3.600   7.924  11.893 -2.3116  0.6812  0.6954
  917MOL0     H20991   3.646   7.663  11.816 -0.3412 -1.9490  1.5211
  917MOL0     H20992   3.475   7.670  11.808  0.4857 -0.5292 -0.1227
  917MOL0     H20993   3.604   7.583  12.015 -0.4783 -0.2683 -2.3978
  917MOL0     H20994   3.626   7.753  12.061 -0.7390  2.5566 -2.7027
  917MOL0     H20995   3.369   7.768  12.084 -0.1385 -0.2612  0.9367
  917MOL0     H20996   3.472   7.678  12.201  3.2508  0.0510 -1.9364
  917MOL0     H20997   3.266   7.597  11.888  0.0037  2.0205  2.3454
  917MOL0     H20998   3.182   7.202  11.937 -0.0944 -0.2734 -2.5087
  917MOL0     H20999   3.272   7.297  11.816 -0.0388 -0.2496 -0.9628
  917MOL0     H21000   3.072   7.426  11.786  1.0674  0.3899  3.0068
  917MOL0     H21001   2.980   7.358  11.905 -0.4527  0.6361 -0.6996
  917MOL0     H21002   3.069   7.230  11.635 -0.0525 -0.0872 -0.0743
  917MOL0     H21003   2.988   7.136  11.773 -0.2785  0.6560  0.0908
  917MOL0     H21004   2.836   7.179  11.615  0.6689 -0.2778 -1.3791
  917MOL0     H21005   2.879   7.337  11.577 -2.6673  1.3714  0.9849
  917MOL0     H21006   2.614   7.253  11.543 -0.4044 -1.7045  0.9905
  917MOL0     H21007   2.453   7.420  11.441  1.9818 -0.0039 -1.1647
  917MOL0     H21008   2.108   7.753  11.545 -2.8900  0.3560 -0.8587
  917MOL0     H21009   1.959   7.941  11.535  0.1931 -2.5298  1.5609
  917MOL0     H21010   2.089   8.310  11.735  2.8869  0.8882 -4.6887
  917MOL0     H21011   1.997   8.166  11.758  1.5694  0.5529  1.6737
  917MOL0     H21012   1.828   8.311  11.770 -1.4577  1.0204 -0.9400
  917MOL0     H21013   1.825   8.273  11.597 -0.6910  2.2457 -1.2250
  917MOL0     H21014   1.952   8.480  11.551 -1.4014 -2.9053 -0.9501
  917MOL0     H21015   1.976   8.519  11.722  1.6475  0.1420 -2.0147
  917MOL0     H21016   1.697   8.510  11.607 -1.5323  4.1251 -1.7896
  917MOL0     H21017   1.747   8.557  11.760 -0.1492 -2.5062 -0.2195
  917MOL0     H21018   1.778   8.679  11.475 -1.5309 -1.2112  0.8637
  917MOL0     H21019   1.870   8.735  11.617  1.1363 -0.8760  0.6967
  917MOL0     H21020   1.662   8.878  11.601  0.9179  0.5747  2.7521
  917MOL0     H21021   1.670   8.794  11.746  1.1439  3.2625 -0.6378
  917MOL0     H21022   1.475   8.640  11.671  0.8375 -1.9177 -1.5756
  917MOL0     H21023   1.437   8.809  11.632 -2.5519 -1.0336 -2.8246
  917MOL0     H21024   1.393   8.641  11.449 -0.4230  1.0114  0.3759
  917MOL0     H21025   1.574   8.610  11.446  0.4064  0.3714 -2.2098
  917MOL0     H21026   2.294   8.211  11.602 -0.5540  0.8779 -3.3105
  917MOL0     H21027   2.451   8.000  11.622 -0.3110 -3.6468  0.9950
  917MOL0     H21028   2.528   7.681  11.761  0.7073 -0.2077  0.3680
  917MOL0     H21029   2.705   7.561  11.833 -1.0433 -0.3115  0.6016
  917MOL0     H21030   3.831   8.317  11.516 -0.7558 -1.4876 -0.6238
  917MOL0     H21031   4.029   8.456  11.502 -0.1646  0.3629  1.6523
  917MOL0     H21032   4.355   8.687  11.238 -2.1390 -2.3601  3.4401
  917MOL0     H21033   4.596   8.769  11.216  2.2572 -1.9988 -1.7851
  917MOL0     H21034   4.779   8.810  11.318 -2.3077 -2.2671  0.0911
  917MOL0     H21035   4.851   8.780  11.150  0.5535 -3.1336 -1.2353
  917MOL0     H21036   4.991   8.747  11.418 -1.8885  0.8569  1.1740
  917MOL0     H21037   5.066   8.705  11.260 -0.9182 -0.3421 -0.2694
  917MOL0     H21038   4.954   8.968  11.371 -1.0567  1.7154 -1.5454
  917MOL0     H21039   4.987   8.958  11.194 -1.0503  0.8980  0.0703
  917MOL0     H21040   5.171   9.050  11.357  0.8619  1.4946 -1.3988
  917MOL0     H21041   5.193   8.875  11.399 -1.4418 -1.7066 -2.4085
  917MOL0     H21042   5.404   8.912  11.054 -0.4224 -0.3395  0.0778
  917MOL0     H21043   4.747   8.412  11.394 -0.6027 -0.6889 -1.5858
  917MOL0     H21044   4.512   8.336  11.437  0.7506  1.2815  1.6040
  918MOL0     O21045   9.062   9.553   0.445 -0.0645  0.2696 -0.4089
  918MOL0     C21046   9.090   9.435   0.444  0.4987  0.6782  0.4497
  918MOL0     O21047   9.203   9.384   0.386 -0.2191  1.8352 -0.4284
  918MOL0     C21048   9.304   9.466   0.353 -0.1356 -0.3771  1.7702
  918MOL0     C21049   9.363   9.559   0.435 -0.7635 -0.4296 -0.3868
  918MOL0     C21050   9.465   9.656   0.390  0.6566 -0.4812 -1.4371
  918MOL0     C21051   9.509   9.655   0.253  0.6095  0.5315  0.2260
  918MOL0     O21052   9.599   9.737   0.197  0.2028  0.8855 -0.1781
  918MOL0     C21053   9.671   9.826   0.289  0.1474 -0.2157  0.9119
  918MOL0     C21054   9.782   9.884   0.202 -0.0298  0.0358 -1.0778
  918MOL0     C21055   9.882   9.781   0.146  1.1734  0.2964  0.2608
  918MOL0     C21056   9.949   9.828   0.019  0.3318 -0.1768  1.0375
  918MOL0     C21057  10.055   9.717  -0.022  0.9528 -0.5831 -0.4018
  918MOL0     C21058  10.108   9.770  -0.144 -0.2104 -0.0375  0.3163
  918MOL0     C21059  10.192   9.660  -0.216 -0.5712 -0.0686 -0.5725
  918MOL0     C21060  10.314   9.619  -0.141 -0.3665  0.5247  0.1713
  918MOL0     N21061  10.311   9.476  -0.119  0.4623 -0.7822 -0.2728
  918MOL0     C21062  10.257   9.435  -0.001  0.0006  0.9616  0.3255
  918MOL0     C21063  10.259   9.300  -0.013 -1.0328  0.1386 -0.0360
  918MOL0     C21064  10.197   9.209   0.087 -0.1354  0.1114  0.9896
  918MOL0     C21065  10.055   9.152   0.039 -0.2411 -0.4962 -0.6813
  918MOL0     C21066   9.956   9.255  -0.007 -0.0939 -0.7387  0.5447
  918MOL0     C21067   9.818   9.191  -0.013  0.1072 -0.4833  0.0200
  918MOL0     O21068   9.843   9.077  -0.101  0.3262 -0.3202  0.3208
  918MOL0     C21069   9.745   8.979  -0.113 -1.6367 -0.6406 -0.5663
  918MOL0     C21070   9.729   8.889  -0.006 -0.1887  0.1659  0.6442
  918MOL0     C21071   9.647   8.777  -0.018  0.3596 -0.3280  0.3280
  918MOL0     C21072   9.555   8.772  -0.120 -0.0989 -0.6829  0.9396
  918MOL0     C21073   9.462   8.655  -0.129  0.0746  0.4365  0.7152
  918MOL0     O21074   9.421   8.618  -0.253 -0.7566  0.2701 -0.5195
  918MOL0     C21075   9.356   8.497  -0.259 -0.0307 -0.4767  0.6681
  918MOL0     C21076   9.410   8.368  -0.250 -0.1117  0.0390  0.0974
  918MOL0     C21077   9.325   8.260  -0.229  1.3692 -0.3362 -0.1993
  918MOL0     C21078   9.184   8.270  -0.242 -0.0122 -0.3911 -1.1882
  918MOL0     O21079   9.086   8.170  -0.226  0.2619  0.7654 -0.4380
  918MOL0     C21080   9.129   8.038  -0.214  0.1700 -0.2342 -0.0353
  918MOL0     C21081   9.007   7.947  -0.221 -0.7214  0.3715 -0.3701
  918MOL0     C21082   8.889   7.989  -0.309 -0.2057  0.0215 -0.4362
  918MOL0     C21083   8.753   7.928  -0.281  0.6090 -0.1455  0.5088
  918MOL0     C21084   8.645   7.960  -0.387  0.4570  0.1758  0.3117
  918MOL0     C21085   8.524   7.869  -0.368  0.4510 -1.1565 -0.2136
  918MOL0     C21086   8.419   7.914  -0.470 -0.1907 -0.0298  0.2428
  918MOL0     C21087   8.287   7.844  -0.426  0.5995 -0.3953  0.6694
  918MOL0    Cl21088   8.154   7.898  -0.557 -0.1287 -0.6668 -0.1409
  918MOL0     C21089   9.133   8.401  -0.263  0.2808 -0.7370 -0.1309
  918MOL0     C21090   9.219   8.511  -0.277  0.6869  0.5617  0.6996
  918MOL0     O21091   9.435   8.593  -0.021 -0.6278  0.5651 -0.1190
  918MOL0     C21092   9.558   8.872  -0.226 -0.5617  0.0969  0.0248
  918MOL0     C21093   9.656   8.977  -0.221 -0.1455 -0.4339 -0.0708
  918MOL0     N21094  10.312   9.264  -0.133  0.2766  0.4927  0.3722
  918MOL0     N21095  10.343   9.370  -0.192 -0.2791 -0.6501 -0.8001
  918MOL0     C21096   9.456   9.554   0.174 -0.0976  0.0575  0.3948
  918MOL0     C21097   9.351   9.467   0.218  0.5262  0.1424 -0.2653
  918MOL0     C21098   8.988   9.334   0.480 -0.3447  0.5400 -0.5251
  918MOL0     C21099   8.870   9.379   0.536  0.4149 -0.2221 -0.9707
  918MOL0     C21100   8.773   9.292   0.574  0.7349  0.0561 -0.1590
  918MOL0     C21101   8.781   9.155   0.556  0.2984 -0.5500 -0.3833
  918MOL0     O21102   8.692   9.069   0.607 -0.4444 -0.2754 -0.0161
  918MOL0     C21103   8.588   9.039   0.510  0.1358  0.5153  0.0722
  918MOL0     C21104   8.457   9.121   0.518 -0.1200  1.0657  0.9316
  918MOL0     C21105   8.381   9.068   0.639 -0.1067 -0.5733 -0.6095
  918MOL0     C21106   8.290   8.946   0.615 -0.8393  0.8219 -0.3821
  918MOL0     C21107   8.243   8.885   0.738 -0.0062  1.2038  0.4607
  918MOL0     C21108   8.222   8.840   0.846 -0.4764  0.5991 -0.5704
  918MOL0     C21109   8.902   9.104   0.505  0.6483  0.5565  0.0250
  918MOL0     C21110   9.000   9.194   0.462  0.1568 -0.1560 -0.2450
  918MOL0     H21111   9.344   9.573   0.540  2.0157  0.5691  0.0742
  918MOL0     H21112   9.494   9.730   0.464 -1.8966 -0.8917  0.0840
  918MOL0     H21113   9.705   9.764   0.373  0.5998 -3.6930 -1.6080
  918MOL0     H21114   9.614   9.912   0.325  0.7515 -0.2714  2.0546
  918MOL0     H21115   9.853   9.950   0.253  1.0741 -0.4632 -1.9152
  918MOL0     H21116   9.735   9.939   0.120 -0.2700  1.3145 -0.1014
  918MOL0     H21117   9.825   9.695   0.110  1.1963  0.0827  0.7236
  918MOL0     H21118   9.960   9.754   0.218  0.6206 -2.5581 -0.0807
  918MOL0     H21119   9.867   9.849  -0.050 -0.0262  2.0944  2.0746
  918MOL0     H21120  10.003   9.918   0.049 -0.1217  0.1553  0.8640
  918MOL0     H21121  10.003   9.624  -0.043 -0.4544  0.5307 -2.2074
  918MOL0     H21122  10.139   9.706   0.047 -1.1549 -0.4782  2.3489
  918MOL0     H21123  10.174   9.857  -0.136 -0.7022  0.5496 -1.5300
  918MOL0     H21124  10.032   9.792  -0.219 -3.4344 -3.1939  2.3519
  918MOL0     H21125  10.132   9.568  -0.215  0.8033 -0.9991  0.4802
  918MOL0     H21126  10.223   9.689  -0.316 -0.0548 -2.8761 -1.3205
  918MOL0     H21127  10.340   9.666  -0.046  0.0730 -0.8993  0.7825
  918MOL0     H21128  10.401   9.630  -0.207  1.7992 -1.4405  2.5004
  918MOL0     H21129  10.214   9.502   0.072  5.0889  5.1497  0.1360
  918MOL0     H21130  10.189   9.256   0.185  0.3971  0.0168  1.0842
  918MOL0     H21131  10.269   9.128   0.101  0.8349  0.2324 -2.3532
  918MOL0     H21132  10.008   9.098   0.121 -1.8950  1.2745 -0.3823
  918MOL0     H21133  10.069   9.074  -0.036 -0.9912 -1.5323  0.2184
  918MOL0     H21134   9.953   9.339   0.063  0.8835  0.1524 -0.4470
  918MOL0     H21135   9.992   9.288  -0.105 -1.6477 -3.2122 -0.9641
  918MOL0     H21136   9.746   9.262  -0.054  1.6672 -0.3471 -2.6933
  918MOL0     H21137   9.801   9.157   0.090  1.8616 -0.1697  0.4568
  918MOL0     H21138   9.799   8.913   0.073  0.7187  0.9103 -0.3569
  918MOL0     H21139   9.634   8.700   0.057  0.5375 -1.3737 -0.6792
  918MOL0     H21140   9.514   8.347  -0.227 -0.8413  0.3953  4.7378
  918MOL0     H21141   9.363   8.162  -0.201 -1.7463 -2.2936 -2.1367
  918MOL0     H21142   9.183   8.022  -0.121  0.5210 -1.6368 -0.4605
  918MOL0     H21143   9.180   8.015  -0.308 -2.0638  1.0055 -1.6485
  918MOL0     H21144   8.972   7.966  -0.119  2.7769  1.4487  0.7906
  918MOL0     H21145   9.036   7.843  -0.237  0.8080  1.1377 -3.3095
  918MOL0     H21146   8.918   7.959  -0.410 -2.2697 -1.2224 -0.7166
  918MOL0     H21147   8.890   8.098  -0.317  1.3855 -0.0532 -1.8977
  918MOL0     H21148   8.762   7.820  -0.267 -3.2037 -0.4777  1.4784
  918MOL0     H21149   8.712   7.954  -0.183  1.4045 -0.1752  0.8535
  918MOL0     H21150   8.684   7.933  -0.486 -0.4863 -0.9814  0.2378
  918MOL0     H21151   8.617   8.065  -0.372  1.3991  0.7293 -1.4502
  918MOL0     H21152   8.488   7.888  -0.267  1.6533  0.1580  0.0101
  918MOL0     H21153   8.543   7.763  -0.387  1.6733 -1.1302  0.7425
  918MOL0     H21154   8.415   8.023  -0.465 -0.0099  0.3568 -4.0335
  918MOL0     H21155   8.452   7.889  -0.571  1.3710 -2.5228  1.2769
  918MOL0     H21156   8.263   7.880  -0.325  1.2529  2.2366 -0.0206
  918MOL0     H21157   8.294   7.735  -0.423 -2.5906 -0.9676 -3.6489
  918MOL0     H21158   9.027   8.413  -0.282  1.0949  3.8462 -3.5817
  918MOL0     H21159   9.180   8.607  -0.310  2.0275  0.5146 -1.1727
  918MOL0     H21160   9.465   8.878  -0.281 -1.2753  0.2749  1.2003
  918MOL0     H21161   9.666   9.048  -0.302 -2.1597 -1.2804 -1.1544
  918MOL0     H21162   9.499   9.556   0.075 -0.0844  0.8503  0.4058
  918MOL0     H21163   9.318   9.394   0.144 -3.5612  3.2390 -1.9438
  918MOL0     H21164   8.863   9.484   0.565  2.0267 -1.1785  3.9321
  918MOL0     H21165   8.685   9.339   0.615  0.7003  0.8438 -1.1083
  918MOL0     H21166   8.557   8.934   0.521 -0.6149  0.9250  2.1942
  918MOL0     H21167   8.630   9.056   0.410 -1.6377 -2.0647 -1.2547
  918MOL0     H21168   8.481   9.228   0.518 -0.4811  1.1536  0.0466
  918MOL0     H21169   8.389   9.101   0.435  1.8996  0.4499 -0.6421
  918MOL0     H21170   8.309   9.142   0.676 -0.4259  0.4590 -3.1109
  918MOL0     H21171   8.447   9.055   0.725 -3.9768 -0.6703  2.7092
  918MOL0     H21172   8.212   8.966   0.540  0.0853  2.0839 -1.0542
  918MOL0     H21173   8.353   8.872   0.564 -0.5667  0.4884  0.4315
  918MOL0     H21174   8.206   8.791   0.940  1.2225 -2.5709 -1.7759
  918MOL0     H21175   8.914   8.996   0.508 -0.3503  0.3495  4.8206
  918MOL0     H21176   9.093   9.164   0.415 -0.5619 -0.5723 -1.4316
  919MOL0     O21177   9.244  10.998  10.741 -0.5025 -0.1211  0.0611
  919MOL0     C21178   9.189  11.081  10.803  0.0305  0.5742  0.2364
  919MOL0     O21179   9.187  11.214  10.774  0.0535  0.0789 -0.2314
  919MOL0     C21180   9.272  11.244  10.666 -0.3345 -0.3137  0.7795
  919MOL0     C21181   9.405  11.251  10.679 -0.5171  1.3589  0.3114
  919MOL0     C21182   9.486  11.276  10.571  0.3166  0.3775 -1.0183
  919MOL0     C21183   9.433  11.301  10.444 -0.4866 -0.0662 -0.6815
  919MOL0     O21184   9.513  11.329  10.335  0.0190 -0.8105  0.1662
  919MOL0     C21185   9.482  11.457  10.265  0.0424 -0.3856  0.0888
  919MOL0     C21186   9.605  11.488  10.179  0.8307  0.0187  0.2150
  919MOL0     C21187   9.590  11.621  10.105  0.2058  0.9632  0.1333
  919MOL0     C21188   9.703  11.638  10.002 -0.6724 -0.8516 -0.0848
  919MOL0     C21189   9.683  11.770   9.936 -0.2667 -0.0936 -0.6905
  919MOL0     C21190   9.809  11.862   9.929 -0.4227  0.1902 -1.1538
  919MOL0     C21191   9.767  12.001   9.876  0.1822  0.0199 -0.2709
  919MOL0     C21192   9.871  12.115   9.899  0.9727 -0.6937 -0.1984
  919MOL0     N21193   9.988  12.110   9.821  0.6640 -0.2778 -0.1837
  919MOL0     C21194   9.996  12.152   9.697  0.1546  0.2427  0.3522
  919MOL0     C21195  10.121  12.125   9.651  0.1465  0.1616  0.0503
  919MOL0     C21196  10.179  12.145   9.514 -0.3546 -0.7102 -0.1234
  919MOL0     C21197  10.236  12.293   9.513 -1.0163 -0.2912  0.7634
  919MOL0     C21198  10.338  12.306   9.395  0.3806 -1.0049 -0.2542
  919MOL0     C21199  10.382  12.448   9.363 -0.4015  0.3541  0.1093
  919MOL0     O21200  10.432  12.526   9.475  0.2704  0.4484 -0.1503
  919MOL0     C21201  10.534  12.616   9.450 -0.7903 -0.1759  0.1199
  919MOL0     C21202  10.561  12.676   9.328 -0.0685  1.2904 -0.2130
  919MOL0     C21203  10.644  12.785   9.319 -0.1488  0.4604  0.1480
  919MOL0     C21204  10.717  12.825   9.433 -0.1276 -0.6097 -0.1497
  919MOL0     C21205  10.800  12.949   9.428  0.0425  0.2496  0.0168
  919MOL0     O21206  10.764  13.041   9.335  0.1151  0.0920 -0.1717
  919MOL0     C21207  10.843  13.146   9.333  0.3418  0.3464  0.0980
  919MOL0     C21208  10.795  13.275   9.372  1.0776  0.5846 -0.3977
  919MOL0     C21209  10.879  13.385   9.372  0.1485  0.0542 -0.5081
  919MOL0     C21210  11.014  13.372   9.326  0.0704  0.7060 -0.0854
  919MOL0     O21211  11.105  13.474   9.333  0.4415 -0.0018  0.7824
  919MOL0     C21212  11.070  13.614   9.332 -0.1355  0.3178  0.8850
  919MOL0     C21213  11.174  13.702   9.395  0.0045  0.5938  0.3077
  919MOL0     C21214  11.298  13.684   9.318 -1.0422  0.9401  0.4028
  919MOL0     C21215  11.411  13.769   9.364  0.2318  0.0068  0.5198
  919MOL0     C21216  11.518  13.756   9.249 -0.3215 -0.1186 -0.8322
  919MOL0     C21217  11.628  13.864   9.274 -0.5590 -0.1058 -0.3056
  919MOL0     C21218  11.609  14.018   9.265 -0.3166  0.3488 -0.4400
  919MOL0     C21219  11.752  14.079   9.258  0.1009  0.0213 -0.4661
  919MOL0    Cl21220  11.725  14.257   9.218 -0.2561 -0.0982 -0.0980
  919MOL0     C21221  11.060  13.247   9.299  0.5042 -1.3197  0.1417
  919MOL0     C21222  10.978  13.134   9.294 -0.1002  0.0009 -0.5103
  919MOL0     O21223  10.889  12.962   9.517 -0.1690 -0.0902  0.7674
  919MOL0     C21224  10.710  12.760   9.552  0.5949 -0.2576 -0.0870
  919MOL0     C21225  10.611  12.662   9.561 -0.3680 -0.7157 -0.3355
  919MOL0     N21226  10.187  12.066   9.756 -0.2545 -0.3423 -0.0231
  919MOL0     N21227  10.105  12.059   9.863  0.3081 -0.3595  0.6438
  919MOL0     C21228   9.291  11.295  10.435  0.1759 -1.2596  0.7253
  919MOL0     C21229   9.209  11.281  10.543  0.0788  0.1829 -0.4864
  919MOL0     C21230   9.113  11.038  10.935 -0.1541  0.0007  0.0511
  919MOL0     C21231   9.049  11.135  11.010 -0.3218  0.5448 -0.1482
  919MOL0     C21232   8.970  11.099  11.118 -0.5380  0.1305 -0.7457
  919MOL0     C21233   8.970  10.965  11.163 -0.2109  1.0334  0.3969
  919MOL0     O21234   8.887  10.919  11.260 -0.0155  0.5912  0.8992
  919MOL0     C21235   8.938  10.948  11.393  0.3097  0.0027 -0.4085
  919MOL0     C21236   8.892  10.848  11.501  1.4699 -0.3515 -0.2284
  919MOL0     C21237   8.738  10.830  11.497  0.4540  0.0770  0.8711
  919MOL0     C21238   8.688  10.702  11.567 -0.4043  0.6721 -0.6070
  919MOL0     C21239   8.738  10.677  11.706  0.1900  0.2268 -0.6119
  919MOL0     C21240   8.779  10.646  11.818  0.5531 -1.2280  0.8960
  919MOL0     C21241   9.039  10.866  11.093 -0.3424 -0.3303  0.0515
  919MOL0     C21242   9.109  10.904  10.978  0.3386 -0.0571 -0.3090
  919MOL0     H21243   9.456  11.226  10.771  0.8012 -2.5852 -1.2308
  919MOL0     H21244   9.593  11.273  10.590  0.4130 -1.7554 -1.6661
  919MOL0     H21245   9.453  11.542  10.327 -4.7742  0.2972 -2.6086
  919MOL0     H21246   9.397  11.438  10.199  0.2117 -1.8408  0.2398
  919MOL0     H21247   9.616  11.399  10.115  1.8654 -0.1055  0.5541
  919MOL0     H21248   9.688  11.509  10.247  0.0207 -0.6450  1.4524
  919MOL0     H21249   9.581  11.707  10.171 -2.0195  1.4801 -0.7606
  919MOL0     H21250   9.501  11.611  10.042 -0.5432 -3.1411  1.4998
  919MOL0     H21251   9.807  11.642  10.036  0.6601 -1.0427 -3.7452
  919MOL0     H21252   9.717  11.573   9.916  2.6969 -0.3499 -0.0439
  919MOL0     H21253   9.604  11.835   9.975  2.5734  3.6494 -0.5721
  919MOL0     H21254   9.651  11.754   9.832  1.8148  3.1313 -1.9971
  919MOL0     H21255   9.891  11.815   9.874 -3.0159 -5.1017 -1.1069
  919MOL0     H21256   9.852  11.871  10.030 -3.0601 -0.0502  0.0738
  919MOL0     H21257   9.746  11.983   9.770  1.9599 -3.7329 -0.1524
  919MOL0     H21258   9.678  12.033   9.931  0.6613 -1.6167  1.5913
  919MOL0     H21259   9.908  12.125  10.001  4.6684  0.6350 -1.5048
  919MOL0     H21260   9.814  12.207   9.880  1.6518 -0.2343 -0.0520
  919MOL0     H21261   9.921  12.176   9.622  1.3275 -1.3337 -1.4341
  919MOL0     H21262  10.100  12.134   9.440  0.3433 -0.4610 -0.9171
  919MOL0     H21263  10.259  12.075   9.490  1.4982  1.2614 -0.0097
  919MOL0     H21264  10.283  12.313   9.609 -0.1533  0.5756  0.1850
  919MOL0     H21265  10.156  12.359   9.477  0.7014  0.3708 -2.2164
  919MOL0     H21266  10.431  12.249   9.407 -0.0309 -1.6226  0.0632
  919MOL0     H21267  10.286  12.270   9.305 -3.5686  2.4675  0.3030
  919MOL0     H21268  10.304  12.508   9.315 -2.2360 -0.2740  2.0752
  919MOL0     H21269  10.467  12.426   9.298  1.0802  1.1894  1.6828
  919MOL0     H21270  10.495  12.648   9.246  0.1284 -0.0756  0.0687
  919MOL0     H21271  10.657  12.848   9.231  0.9974 -0.8273 -0.6350
  919MOL0     H21272  10.692  13.280   9.407  1.5257  0.4509  1.0023
  919MOL0     H21273  10.845  13.487   9.389  0.6667  0.1967 -0.3100
  919MOL0     H21274  10.982  13.630   9.394  0.1571  2.1816  0.8848
  919MOL0     H21275  11.069  13.644   9.226  1.3279  2.1033  1.3243
  919MOL0     H21276  11.178  13.677   9.502 -0.7115  3.0110  0.9865
  919MOL0     H21277  11.146  13.808   9.401 -0.0342  0.5260  1.6301
  919MOL0     H21278  11.274  13.714   9.216  2.5706 -2.1985 -1.6057
  919MOL0     H21279  11.323  13.578   9.309 -2.5445  0.7120 -1.7834
  919MOL0     H21280  11.376  13.872   9.377 -0.2244 -0.3038  2.0087
  919MOL0     H21281  11.441  13.720   9.458 -1.1666 -3.1253 -0.5422
  919MOL0     H21282  11.471  13.772   9.152 -2.9074  0.6049  0.4277
  919MOL0     H21283  11.570  13.660   9.256  0.0944  0.2099  0.9823
  919MOL0     H21284  11.701  13.853   9.193 -0.5845  2.0239 -0.6851
  919MOL0     H21285  11.676  13.853   9.372  2.9515  3.7827 -1.3024
  919MOL0     H21286  11.576  14.043   9.164  0.8407 -1.9753 -1.4763
  919MOL0     H21287  11.549  14.057   9.348  1.0486 -2.2951  1.9502
  919MOL0     H21288  11.806  14.038   9.172  1.9940 -3.0079  1.9597
  919MOL0     H21289  11.817  14.060   9.344  1.8303 -1.3811 -1.9881
  919MOL0     H21290  11.168  13.246   9.294  0.7225  3.6047 -1.2889
  919MOL0     H21291  11.020  13.035   9.280 -0.0403 -0.6041  2.9795
  919MOL0     H21292  10.758  12.791   9.644  2.5576 -0.4807 -0.9789
  919MOL0     H21293  10.595  12.609   9.654 -1.2949 -0.4787 -0.3535
  919MOL0     H21294   9.233  11.321  10.347 -3.3714  1.4896  3.6042
  919MOL0     H21295   9.102  11.264  10.532  0.4277 -1.3239 -1.9159
  919MOL0     H21296   9.050  11.235  10.967  0.1115  1.2476  1.4027
  919MOL0     H21297   8.905  11.176  11.159 -0.8492  0.5372 -1.9468
  919MOL0     H21298   8.919  11.052  11.420  0.0998 -0.6831  2.3685
  919MOL0     H21299   9.046  10.935  11.380  0.3623  2.2389 -3.7260
  919MOL0     H21300   8.937  10.750  11.483 -1.9049 -2.0342 -0.2428
  919MOL0     H21301   8.913  10.880  11.603 -1.8362  1.0883  0.1228
  919MOL0     H21302   8.704  10.835  11.393 -0.9983 -2.3688  1.1491
  919MOL0     H21303   8.694  10.915  11.550  1.9903  1.2250  0.3785
  919MOL0     H21304   8.579  10.704  11.563 -0.4788 -0.3220  0.2969
  919MOL0     H21305   8.721  10.614  11.511  1.0843  1.0144 -0.3176
  919MOL0     H21306   8.828  10.617  11.909 -0.6006 -2.9711  1.0167
  919MOL0     H21307   9.026  10.760  11.116 -2.4287 -0.6273 -2.1228
  919MOL0     H21308   9.160  10.837  10.910  1.1305 -0.3859  0.5690
  920MOL0     O21309   8.100   5.100   6.565  0.9554 -0.0614  0.0917
  920MOL0     C21310   8.170   5.185   6.625 -0.7562  0.9473 -0.6945
  920MOL0     O21311   8.134   5.248   6.742 -0.8155 -0.1055 -0.4694
  920MOL0     C21312   8.019   5.218   6.815 -0.2821 -0.0544  0.1888
  920MOL0     C21313   8.032   5.221   6.959 -0.1530  0.0265  0.3147
  920MOL0     C21314   7.926   5.185   7.040  0.2555 -1.2107 -0.0558
  920MOL0     C21315   7.800   5.156   6.985  0.7651 -0.0556  0.2756
  920MOL0     O21316   7.706   5.129   7.080  0.2955 -0.1302  0.1338
  920MOL0     C21317   7.573   5.149   7.039  0.0676 -0.0584 -0.2173
  920MOL0     C21318   7.487   5.120   7.161  0.4535 -0.2698  0.2413
  920MOL0     C21319   7.333   5.156   7.136  0.1996 -0.3371 -0.5164
  920MOL0     C21320   7.262   5.098   7.256  0.5155 -0.3204 -0.2351
  920MOL0     C21321   7.112   5.157   7.280 -1.3395 -1.1785  0.0457
  920MOL0     C21322   7.056   5.110   7.409  0.5861  0.4882 -0.4298
  920MOL0     C21323   6.933   5.182   7.446 -0.1883  1.2209  0.7729
  920MOL0     C21324   6.898   5.157   7.592 -0.2737  0.2962  0.2044
  920MOL0     N21325   6.756   5.174   7.622  0.1670  0.2150  0.5830
  920MOL0     C21326   6.703   5.282   7.689  0.2368 -0.5355 -0.0074
  920MOL0     C21327   6.580   5.247   7.719  0.3618  0.5510 -0.5438
  920MOL0     C21328   6.477   5.321   7.802 -0.1136  1.4243  0.0601
  920MOL0     C21329   6.376   5.405   7.718 -0.5489 -1.0573 -0.5000
  920MOL0     C21330   6.378   5.552   7.766 -0.2021 -0.5903  0.1852
  920MOL0     C21331   6.275   5.640   7.690  0.6111  0.3816 -0.2371
  920MOL0     O21332   6.290   5.625   7.549  0.6050 -0.6753 -0.4019
  920MOL0     C21333   6.181   5.658   7.466 -0.3088  0.1464 -0.2986
  920MOL0     C21334   6.073   5.741   7.509  0.7067  0.7231  0.0994
  920MOL0     C21335   5.982   5.771   7.412  0.7348 -0.4066  0.1797
  920MOL0     C21336   5.987   5.720   7.286  1.0970 -0.3065  0.3498
  920MOL0     C21337   5.878   5.759   7.189 -0.1835  0.6843 -0.2717
  920MOL0     O21338   5.770   5.834   7.234 -0.3903  0.7195  0.2544
  920MOL0     C21339   5.659   5.865   7.156  0.3014  0.7389 -0.3114
  920MOL0     C21340   5.572   5.941   7.217  1.4091  0.2863  0.3839
  920MOL0     C21341   5.447   5.975   7.161 -0.1856  1.0031  1.0076
  920MOL0     C21342   5.417   5.944   7.024  0.2317  0.8608  0.3594
  920MOL0     O21343   5.304   5.990   6.964 -0.1141 -0.3779  0.2039
  920MOL0     C21344   5.201   5.895   6.939 -0.3342  0.7243  0.1755
  920MOL0     C21345   5.127   5.916   6.811  0.8780  0.4733 -0.6338
  920MOL0     C21346   5.031   6.038   6.793 -1.1104 -0.3374 -0.3240
  920MOL0     C21347   4.983   6.057   6.645 -0.0388 -1.6602  0.2067
  920MOL0     C21348   4.876   5.955   6.609 -1.0683 -0.8122  0.3445
  920MOL0     C21349   4.789   5.986   6.490 -0.4624 -0.2187  0.4672
  920MOL0     C21350   4.718   6.117   6.486  0.3343 -1.6309  1.2649
  920MOL0     C21351   4.593   6.108   6.383  0.5045  0.0904  0.2670
  920MOL0    Cl21352   4.460   6.012   6.454  0.2103 -0.0221 -0.1821
  920MOL0     C21353   5.512   5.858   6.961 -0.5999 -0.7607  0.4246
  920MOL0     C21354   5.632   5.826   7.023  0.0860  0.1151 -0.4845
  920MOL0     O21355   5.904   5.740   7.071  0.1746  0.2224 -0.6383
  920MOL0     C21356   6.086   5.640   7.245 -0.4232  0.2164  0.2089
  920MOL0     C21357   6.182   5.598   7.338  0.6563  0.5575 -0.1083
  920MOL0     N21358   6.550   5.126   7.666  0.2736  1.2290 -0.4438
  920MOL0     N21359   6.657   5.082   7.619 -0.4187  0.3324 -0.8557
  920MOL0     C21360   7.789   5.143   6.839 -0.4404  1.2388 -0.3312
  920MOL0     C21361   7.893   5.182   6.759  0.9441  0.0569 -0.7382
  920MOL0     C21362   8.312   5.191   6.575 -0.2401 -0.2766 -0.7805
  920MOL0     C21363   8.414   5.249   6.648  0.0248 -0.3682  0.6641
  920MOL0     C21364   8.545   5.249   6.603  0.1424  0.2811  0.1899
  920MOL0     C21365   8.574   5.191   6.475 -1.2542 -0.2749 -0.1981
  920MOL0     O21366   8.701   5.160   6.435  0.1647  0.1079 -0.5720
  920MOL0     C21367   8.818   5.226   6.489 -0.2591 -0.3780  0.1444
  920MOL0     C21368   8.937   5.216   6.396  0.1049  1.0106  0.6146
  920MOL0     C21369   9.066   5.277   6.455 -0.6698  0.5527 -0.3763
  920MOL0     C21370   9.191   5.272   6.358 -0.8656  0.4959  0.3019
  920MOL0     C21371   9.319   5.319   6.431 -0.1853  0.2421 -0.5522
  920MOL0     C21372   9.418   5.352   6.499  0.6258 -0.9473 -0.4037
  920MOL0     C21373   8.473   5.143   6.392  0.8421  0.4186  0.1964
  920MOL0     C21374   8.344   5.145   6.443  1.0244  0.3396  0.2804
  920MOL0     H21375   8.127   5.255   6.998 -1.1482 -0.3980  3.4584
  920MOL0     H21376   7.946   5.197   7.146  0.0672  0.0928 -0.1541
  920MOL0     H21377   7.545   5.086   6.954  2.1766 -1.1263 -0.1866
  920MOL0     H21378   7.556   5.253   7.010  0.8425  0.6540  1.7248
  920MOL0     H21379   7.535   5.174   7.244 -2.8774  1.9632  0.9275
  920MOL0     H21380   7.488   5.013   7.182  5.2419 -0.1515  1.8813
  920MOL0     H21381   7.291   5.118   7.042  0.9985  1.1986 -1.5327
  920MOL0     H21382   7.313   5.263   7.135  1.2908 -0.0695  1.1230
  920MOL0     H21383   7.244   4.992   7.233 -2.6949 -0.2059  1.1757
  920MOL0     H21384   7.318   5.131   7.344 -2.7069  4.5441  0.3878
  920MOL0     H21385   7.052   5.132   7.191 -2.5986  0.8326  0.2443
  920MOL0     H21386   7.118   5.266   7.278  0.3438 -1.2440 -1.7475
  920MOL0     H21387   7.135   5.138   7.480 -0.6865  3.4468 -0.0373
  920MOL0     H21388   7.040   5.002   7.408  3.9287 -0.1495  0.9197
  920MOL0     H21389   6.947   5.288   7.424  0.0453  0.9864 -0.2383
  920MOL0     H21390   6.851   5.142   7.386  1.5051  1.7550 -2.0599
  920MOL0     H21391   6.964   5.228   7.644  0.6719 -1.1960  1.1078
  920MOL0     H21392   6.917   5.050   7.605 -1.2999  0.4090  3.5039
  920MOL0     H21393   6.743   5.376   7.725 -2.2851 -0.2021  2.1808
  920MOL0     H21394   6.538   5.391   7.860  1.3473 -0.2527  0.6146
  920MOL0     H21395   6.439   5.245   7.870  0.7946  1.2106  0.3428
  920MOL0     H21396   6.276   5.362   7.727 -0.7886 -0.8121 -1.8453
  920MOL0     H21397   6.408   5.411   7.614  4.1706  3.5837  0.7621
  920MOL0     H21398   6.354   5.570   7.871 -3.5332  1.9993 -0.8340
  920MOL0     H21399   6.481   5.584   7.752 -0.3136  0.9709  2.3946
  920MOL0     H21400   6.298   5.744   7.714  3.4582 -0.2059 -0.0070
  920MOL0     H21401   6.173   5.613   7.720  0.3170  1.8160  0.1331
  920MOL0     H21402   6.065   5.785   7.608 -2.0023 -1.2606  0.8643
  920MOL0     H21403   5.895   5.827   7.446  0.7278 -0.1118 -0.3066
  920MOL0     H21404   5.587   5.969   7.320 -0.3332  0.2043  0.6896
  920MOL0     H21405   5.371   6.030   7.215 -1.4863  1.4346 -1.1326
  920MOL0     H21406   5.132   5.878   7.022 -0.4648 -1.0428 -0.2617
  920MOL0     H21407   5.243   5.794   6.935 -0.9010  0.3567  2.3904
  920MOL0     H21408   5.072   5.826   6.781  0.4784  1.2110 -2.2733
  920MOL0     H21409   5.206   5.917   6.734  0.5555  3.0366 -1.0168
  920MOL0     H21410   5.082   6.133   6.810 -0.5290 -1.0084  2.1070
  920MOL0     H21411   4.947   6.034   6.862 -1.1138 -1.4721 -0.3613
  920MOL0     H21412   4.945   6.159   6.637 -1.2811 -1.9582  1.6037
  920MOL0     H21413   5.075   6.059   6.587 -1.6465  3.0786 -2.6875
  920MOL0     H21414   4.801   5.962   6.689  0.1769  1.5274  1.4087
  920MOL0     H21415   4.921   5.855   6.605  2.1447  0.5520 -0.3668
  920MOL0     H21416   4.711   5.909   6.487  0.6016 -1.3066 -0.6962
  920MOL0     H21417   4.858   5.975   6.406  1.6087  0.1615  2.0283
  920MOL0     H21418   4.673   6.142   6.582  1.5004  1.8503  1.0528
  920MOL0     H21419   4.793   6.194   6.463  0.9595 -2.5283  0.2064
  920MOL0     H21420   4.619   6.065   6.286 -1.7130 -0.5758 -0.0968
  920MOL0     H21421   4.558   6.210   6.364  0.9194 -0.2076 -2.5074
  920MOL0     H21422   5.504   5.824   6.859 -2.5377 -1.9474  0.9350
  920MOL0     H21423   5.697   5.761   6.965  0.0946 -2.5849  2.2453
  920MOL0     H21424   6.092   5.598   7.145  3.6464  1.1687 -0.1264
  920MOL0     H21425   6.263   5.537   7.300  2.7297  0.5456  3.8088
  920MOL0     H21426   7.696   5.112   6.791 -1.2486 -1.9585  2.8386
  920MOL0     H21427   7.880   5.183   6.651 -1.5134 -0.3830 -0.5123
  920MOL0     H21428   8.379   5.283   6.745  0.8011 -1.4908  1.3617
  920MOL0     H21429   8.620   5.299   6.664 -3.0838  0.8300  4.0778
  920MOL0     H21430   8.831   5.183   6.588  1.5044 -0.1404  0.0382
  920MOL0     H21431   8.807   5.335   6.491 -0.1687 -0.3378 -0.9924
  920MOL0     H21432   8.948   5.111   6.367 -5.0075  0.4523 -0.1583
  920MOL0     H21433   8.912   5.281   6.312  1.5076 -0.0780 -0.7088
  920MOL0     H21434   9.076   5.234   6.555  2.5924  3.0800  0.5529
  920MOL0     H21435   9.038   5.382   6.463  1.1375  1.0774 -0.4705
  920MOL0     H21436   9.202   5.172   6.314 -1.3780 -0.1471  1.5908
  920MOL0     H21437   9.176   5.333   6.269 -1.4668  0.7978  0.6059
  920MOL0     H21438   9.486   5.375   6.579  0.1117  1.3142 -0.5306
  920MOL0     H21439   8.486   5.104   6.291  1.1559 -0.2072  0.4698
  920MOL0     H21440   8.268   5.113   6.373  1.4234 -0.7470  0.3185
  921MOL0     O21441   1.444   7.650   1.333 -0.1662  0.5205  0.8422
  921MOL0     C21442   1.440   7.730   1.235  0.3128  0.7084 -1.4731
  921MOL0     O21443   1.348   7.736   1.134 -0.1849 -0.1074  0.3786
  921MOL0     C21444   1.250   7.639   1.134 -0.5157 -0.5896  0.1718
  921MOL0     C21445   1.122   7.678   1.101 -0.0515  0.3311 -0.1632
  921MOL0     C21446   1.020   7.586   1.073 -0.0418  0.2547 -0.6790
  921MOL0     C21447   1.047   7.449   1.088 -0.5128  0.2295 -0.6128
  921MOL0     O21448   0.947   7.362   1.072  0.6402 -0.0020  0.1834
  921MOL0     C21449   1.003   7.244   1.010 -0.2157  0.7564  0.1118
  921MOL0     C21450   0.883   7.182   0.937 -0.5126  0.8024  0.8956
  921MOL0     C21451   0.756   7.141   1.014 -0.2850 -0.3656 -0.0821
  921MOL0     C21452   0.669   7.056   0.932 -0.2201  1.3763  0.4941
  921MOL0     C21453   0.527   7.039   0.984 -0.3024  0.2830  0.3269
  921MOL0     C21454   0.440   7.169   0.996  0.2827  1.0485 -0.5150
  921MOL0     C21455   0.416   7.248   0.865 -0.9897  0.1702  0.3305
  921MOL0     C21456   0.382   7.166   0.741 -0.2174 -0.4918  0.6197
  921MOL0     N21457   0.326   7.262   0.640  0.0750  0.4152  0.0862
  921MOL0     C21458   0.201   7.305   0.637 -0.6898 -0.5490  0.8969
  921MOL0     C21459   0.202   7.415   0.561 -0.4185 -0.7633  0.7869
  921MOL0     C21460   0.079   7.484   0.524  0.1443  0.7692 -0.2560
  921MOL0     C21461   0.083   7.619   0.472 -0.3077  0.0792  0.7752
  921MOL0     C21462   0.129   7.628   0.322 -0.9169  0.1035 -0.2684
  921MOL0     C21463   0.039   7.572   0.215  0.0876  0.3965 -0.0586
  921MOL0     O21464  -0.099   7.593   0.251  0.6090 -0.5704  0.0125
  921MOL0     C21465  -0.195   7.513   0.196 -0.1568  0.3291  0.3035
  921MOL0     C21466  -0.186   7.467   0.065  0.8743  0.1957 -0.3277
  921MOL0     C21467  -0.293   7.388   0.012 -0.2062  1.1707 -0.0271
  921MOL0     C21468  -0.397   7.338   0.096 -0.2400  0.7830  0.7251
  921MOL0     C21469  -0.508   7.249   0.046  0.7918 -0.0377 -0.5293
  921MOL0     O21470  -0.587   7.184   0.142  0.2719  0.3394  0.4134
  921MOL0     C21471  -0.693   7.103   0.102  1.0555  0.9304 -1.0647
  921MOL0     C21472  -0.699   6.978   0.167  0.1643 -0.0875 -0.0231
  921MOL0     C21473  -0.804   6.888   0.151 -0.9854  0.0665 -1.1370
  921MOL0     C21474  -0.913   6.922   0.070 -0.4488  0.9761 -0.4816
  921MOL0     O21475  -1.009   6.829   0.071  0.6470 -0.0924  0.5588
  921MOL0     C21476  -1.140   6.864   0.037  0.1086 -0.0899  0.5921
  921MOL0     C21477  -1.237   6.754   0.076  0.1891  0.2554  0.2820
  921MOL0     C21478  -1.356   6.773  -0.024 -0.4008  0.7913  0.3269
  921MOL0     C21479  -1.442   6.645   0.010 -0.1334  1.3907  0.2431
  921MOL0     C21480  -1.592   6.669  -0.031 -0.0761  0.1105  0.3385
  921MOL0     C21481  -1.617   6.644  -0.175  0.3463  0.5506 -0.3749
  921MOL0     C21482  -1.761   6.697  -0.214  0.3382  0.4740  0.0731
  921MOL0     C21483  -1.778   6.730  -0.360 -0.6344  0.7232 -0.5330
  921MOL0    Cl21484  -1.926   6.816  -0.402 -0.1860  0.3325  0.1733
  921MOL0     C21485  -0.919   7.054   0.016 -0.2262 -0.2877  0.6621
  921MOL0     C21486  -0.808   7.145   0.035 -0.4605  0.1546  0.4527
  921MOL0     O21487  -0.526   7.252  -0.074 -0.5634  0.0540  0.1151
  921MOL0     C21488  -0.394   7.381   0.233 -0.0984 -0.5361  0.5244
  921MOL0     C21489  -0.295   7.468   0.279  0.2145 -0.2126  0.4626
  921MOL0     N21490   0.329   7.436   0.511  0.2457  1.7420 -0.0366
  921MOL0     N21491   0.403   7.347   0.557  0.8028  0.1885 -0.3609
  921MOL0     C21492   1.169   7.406   1.147 -0.1896  0.2205 -0.1759
  921MOL0     C21493   1.276   7.497   1.151  0.2471 -0.1547 -0.7440
  921MOL0     C21494   1.537   7.840   1.239 -0.8684 -0.2220 -0.0327
  921MOL0     C21495   1.549   7.917   1.358  0.0749 -0.1899  1.2319
  921MOL0     C21496   1.625   8.034   1.349  1.2992 -0.5934 -0.1033
  921MOL0     C21497   1.702   8.071   1.237 -0.2136  0.6923  0.5283
  921MOL0     O21498   1.771   8.187   1.225 -0.8394 -0.7754  0.0899
  921MOL0     C21499   1.807   8.253   1.353 -1.2472  0.9170  0.2179
  921MOL0     C21500   1.918   8.359   1.325 -0.1443 -0.5664 -0.3780
  921MOL0     C21501   2.063   8.310   1.329  0.5399  1.0135 -0.1921
  921MOL0     C21502   2.164   8.396   1.401 -0.0560 -0.7185  0.5676
  921MOL0     C21503   2.177   8.530   1.340  0.0525  0.4259  0.3178
  921MOL0     C21504   2.165   8.647   1.304  0.3597  0.0448 -0.1456
  921MOL0     C21505   1.701   7.984   1.122 -0.2188  0.3813  0.1400
  921MOL0     C21506   1.618   7.871   1.125 -1.0775 -0.2737 -0.5189
  921MOL0     H21507   1.100   7.784   1.089  0.9647  0.7663  1.5031
  921MOL0     H21508   0.924   7.628   1.044 -0.1811  1.6930  1.6350
  921MOL0     H21509   1.043   7.179   1.088  0.7455  1.5374  0.2987
  921MOL0     H21510   1.077   7.268   0.933  1.6559  3.3642  2.5083
  921MOL0     H21511   0.911   7.092   0.881 -1.2594 -0.0162  1.7996
  921MOL0     H21512   0.865   7.260   0.863  1.7622  0.6886  0.1378
  921MOL0     H21513   0.703   7.234   1.037 -0.5642 -0.5730  0.1144
  921MOL0     H21514   0.779   7.094   1.110 -3.1039  0.0120  0.8691
  921MOL0     H21515   0.673   7.070   0.824  1.4560 -3.1908 -0.2443
  921MOL0     H21516   0.707   6.954   0.943 -1.8342  0.6231 -0.5025
  921MOL0     H21517   0.529   7.008   1.089 -1.4985  0.4837  0.4226
  921MOL0     H21518   0.463   6.969   0.928 -1.0511 -0.6598  2.2759
  921MOL0     H21519   0.478   7.235   1.075  0.9880 -0.3204  0.3287
  921MOL0     H21520   0.346   7.147   1.048  1.8525  2.0338  3.0715
  921MOL0     H21521   0.338   7.324   0.876  0.3223  2.1418 -2.5927
  921MOL0     H21522   0.505   7.309   0.843  0.9463 -3.1284 -1.8988
  921MOL0     H21523   0.314   7.081   0.752 -0.5670 -0.2340  0.4661
  921MOL0     H21524   0.473   7.121   0.700 -0.0779  1.8435 -1.8687
  921MOL0     H21525   0.112   7.268   0.687 -0.8562  1.7113  2.3984
  921MOL0     H21526   0.002   7.474   0.601  1.0936  0.4043  0.6620
  921MOL0     H21527   0.043   7.417   0.446 -0.5591  0.3989  0.3750
  921MOL0     H21528   0.143   7.691   0.528  1.0033  2.6841 -3.5383
  921MOL0     H21529  -0.015   7.667   0.481  0.5017  1.6217  1.6168
  921MOL0     H21530   0.124   7.735   0.297 -2.5091  0.3274  0.9189
  921MOL0     H21531   0.230   7.591   0.300  0.4085  4.7275 -3.6694
  921MOL0     H21532   0.065   7.468   0.193  0.2147  0.8119 -2.0615
  921MOL0     H21533   0.051   7.615   0.115 -1.5058 -1.6657 -1.2115
  921MOL0     H21534  -0.105   7.502   0.002  0.1085  1.0510 -0.8701
  921MOL0     H21535  -0.286   7.356  -0.091 -0.6738  3.6702 -0.8796
  921MOL0     H21536  -0.607   6.947   0.216  0.5897 -1.1444 -1.4196
  921MOL0     H21537  -0.810   6.793   0.203 -2.2052  1.0295  0.6284
  921MOL0     H21538  -1.144   6.874  -0.072 -2.4468 -0.4666  0.5879
  921MOL0     H21539  -1.168   6.961   0.077 -0.5473 -0.5810  1.3472
  921MOL0     H21540  -1.277   6.761   0.178 -3.0426 -1.5172 -0.7405
  921MOL0     H21541  -1.206   6.651   0.058  0.4040  0.5301 -1.0319
  921MOL0     H21542  -1.323   6.766  -0.128 -1.1151 -1.4459  0.2029
  921MOL0     H21543  -1.402   6.872  -0.020 -2.9190 -0.3400  1.0581
  921MOL0     H21544  -1.397   6.560  -0.043  0.3297  0.1122  2.5680
  921MOL0     H21545  -1.442   6.631   0.118  2.3216  0.8593  0.2290
  921MOL0     H21546  -1.603   6.776  -0.010  0.8488  0.6234 -1.5492
  921MOL0     H21547  -1.668   6.618   0.029 -0.1732  1.2554  1.2376
  921MOL0     H21548  -1.596   6.537  -0.189  0.9847  0.4684  1.0556
  921MOL0     H21549  -1.545   6.707  -0.229  2.4380  1.6014  3.3080
  921MOL0     H21550  -1.839   6.629  -0.180  0.3575  0.6525  0.4697
  921MOL0     H21551  -1.775   6.790  -0.159 -0.3006  1.1921 -1.2626
  921MOL0     H21552  -1.768   6.632  -0.409 -0.0146  0.1947  0.6069
  921MOL0     H21553  -1.695   6.793  -0.392  0.7969 -0.5848  0.4535
  921MOL0     H21554  -0.997   7.064  -0.059  0.4908 -1.1829 -0.2419
  921MOL0     H21555  -0.802   7.244  -0.009  2.1305  0.4416  1.2802
  921MOL0     H21556  -0.475   7.346   0.295 -1.7918 -0.0249 -1.2896
  921MOL0     H21557  -0.286   7.503   0.382 -0.5289  0.9518  0.1554
  921MOL0     H21558   1.193   7.301   1.163  2.6476  0.5020 -1.9930
  921MOL0     H21559   1.372   7.464   1.189 -0.3516 -2.5247 -1.1367
  921MOL0     H21560   1.493   7.890   1.447  0.6327  2.1275  2.3512
  921MOL0     H21561   1.635   8.090   1.442  0.6065  1.5198 -1.2274
  921MOL0     H21562   1.850   8.178   1.420 -1.0513 -0.7581 -1.6818
  921MOL0     H21563   1.715   8.295   1.394 -1.8577 -0.8978  0.8005
  921MOL0     H21564   1.900   8.403   1.226 -2.1336 -0.2387  0.0739
  921MOL0     H21565   1.906   8.441   1.397  3.8527  1.2318 -1.4939
  921MOL0     H21566   2.094   8.305   1.225  2.8586 -0.2868  0.5027
  921MOL0     H21567   2.058   8.215   1.383  1.8265 -0.9096 -3.1938
  921MOL0     H21568   2.131   8.408   1.504  2.3915  0.4832  1.2771
  921MOL0     H21569   2.264   8.356   1.423 -0.3507 -1.1493  1.1416
  921MOL0     H21570   2.156   8.753   1.298  1.9876  0.2018 -0.1268
  921MOL0     H21571   1.771   7.998   1.040  1.7355 -1.6356  1.3546
  921MOL0     H21572   1.613   7.805   1.040 -1.0941  0.4636 -1.0960
  922MOL0     O21573   2.267   8.155   3.172  0.7725  0.5466  0.3113
  922MOL0     C21574   2.287   8.274   3.146 -0.2530  0.9958  0.5190
  922MOL0     O21575   2.197   8.371   3.162 -0.0151 -0.4398  0.5659
  922MOL0     C21576   2.072   8.320   3.165  0.4069 -0.9670  0.0702
  922MOL0     C21577   2.009   8.303   3.042  0.5426 -0.0118 -0.3283
  922MOL0     C21578   1.884   8.235   3.043 -0.4148 -1.1178  0.9735
  922MOL0     C21579   1.830   8.190   3.163  0.3202  0.3612  0.0508
  922MOL0     O21580   1.722   8.107   3.153  0.2032  0.0170  0.5154
  922MOL0     C21581   1.691   8.001   3.236 -0.5757 -1.0038 -1.1297
  922MOL0     C21582   1.545   7.979   3.263 -0.5191 -0.5168 -0.2276
  922MOL0     C21583   1.465   7.949   3.130  0.2060  1.8418 -0.7559
  922MOL0     C21584   1.308   7.913   3.153  0.0939 -0.1861  0.1637
  922MOL0     C21585   1.280   7.768   3.150  0.0346  0.7397 -0.5847
  922MOL0     C21586   1.124   7.737   3.140  0.8649  0.0717  0.5466
  922MOL0     C21587   1.113   7.588   3.086 -0.7355 -0.6542  0.0145
  922MOL0     C21588   0.970   7.550   3.108  0.9053 -0.4644 -0.4430
  922MOL0     N21589   0.966   7.410   3.086  0.4330 -0.3338  0.4073
  922MOL0     C21590   0.903   7.353   2.984 -1.0499  0.3419  0.4778
  922MOL0     C21591   0.896   7.223   3.017 -1.1966 -0.3858  0.7415
  922MOL0     C21592   0.842   7.106   2.937  0.0768  0.7787  0.2066
  922MOL0     C21593   0.742   7.010   3.005  0.4552 -0.9052  0.1334
  922MOL0     C21594   0.603   7.088   3.022  0.0994 -0.5389  0.0708
  922MOL0     C21595   0.510   7.011   3.110 -0.3518  0.1044 -1.2567
  922MOL0     O21596   0.377   7.066   3.111 -0.3495 -0.7607  0.1567
  922MOL0     C21597   0.276   7.016   3.189  0.3572 -0.2279  0.4021
  922MOL0     C21598   0.169   7.109   3.223 -0.5922  0.2324  0.5371
  922MOL0     C21599   0.066   7.065   3.307 -0.2014 -0.2791  0.1174
  922MOL0     C21600   0.060   6.928   3.349 -0.3621 -0.4954  0.6756
  922MOL0     C21601  -0.062   6.876   3.413 -0.3505  0.3052  0.7549
  922MOL0     O21602  -0.060   6.758   3.482 -0.0677  0.6871  0.6249
  922MOL0     C21603  -0.177   6.696   3.522 -0.2379 -0.1887  0.1151
  922MOL0     C21604  -0.272   6.630   3.434  0.4732  0.1986  0.3251
  922MOL0     C21605  -0.386   6.567   3.499  0.2877 -0.2060 -0.7822
  922MOL0     C21606  -0.401   6.567   3.639 -0.5003  0.7803  0.1841
  922MOL0     O21607  -0.501   6.505   3.710  0.2691  0.1450 -0.5289
  922MOL0     C21608  -0.569   6.393   3.656  0.1838  1.7480 -0.0549
  922MOL0     C21609  -0.639   6.313   3.763  0.1794 -1.2636 -0.2117
  922MOL0     C21610  -0.777   6.379   3.796  0.2091  0.3883 -0.3930
  922MOL0     C21611  -0.762   6.521   3.856  0.0010  0.3254  0.0814
  922MOL0     C21612  -0.900   6.575   3.911 -0.8258  0.5237  0.3885
  922MOL0     C21613  -0.893   6.727   3.925  0.2266  0.6578  0.4309
  922MOL0     C21614  -0.762   6.775   3.989 -0.1511  0.4766 -0.0479
  922MOL0     C21615  -0.796   6.899   4.072  0.0383  0.2812  0.1046
  922MOL0    Cl21616  -0.846   7.030   3.964 -0.0411 -0.5799 -0.0147
  922MOL0     C21617  -0.313   6.641   3.717 -0.1225 -0.6288  0.4469
  922MOL0     C21618  -0.200   6.702   3.658  0.8908 -0.7021  0.1390
  922MOL0     O21619  -0.164   6.939   3.390  0.2354 -0.0109 -0.1782
  922MOL0     C21620   0.168   6.847   3.316 -0.1523  0.6983 -1.2829
  922MOL0     C21621   0.278   6.893   3.246  1.5165  0.9645  0.9395
  922MOL0     N21622   0.937   7.209   3.143  0.1786  0.1250 -0.9159
  922MOL0     N21623   0.968   7.322   3.188  0.3311  0.0352  0.1781
  922MOL0     C21624   1.885   8.217   3.283  0.0029 -0.3046 -1.0252
  922MOL0     C21625   2.011   8.278   3.283 -0.1879 -0.4335  0.0484
  922MOL0     C21626   2.417   8.313   3.089 -0.6956 -0.4958  0.0810
  922MOL0     C21627   2.524   8.221   3.069  0.1470  0.2254 -0.0768
  922MOL0     C21628   2.640   8.263   3.015  0.1214 -0.9846  0.6822
  922MOL0     C21629   2.665   8.392   2.977  0.2815 -0.0491  0.2852
  922MOL0     O21630   2.788   8.425   2.927 -0.9622  1.1725  0.0595
  922MOL0     C21631   2.818   8.395   2.783 -0.0044  0.0354 -1.0346
  922MOL0     C21632   2.972   8.442   2.779  1.3570 -0.0933 -0.3747
  922MOL0     C21633   3.053   8.390   2.664 -0.2089  0.4308  0.2450
  922MOL0     C21634   3.017   8.450   2.531  0.6919 -1.2742  0.7393
  922MOL0     C21635   2.887   8.414   2.475  0.1864  0.9026  0.1612
  922MOL0     C21636   2.785   8.391   2.414 -0.4216 -0.5190 -0.1038
  922MOL0     C21637   2.555   8.484   2.987 -0.3645 -0.2929 -0.4837
  922MOL0     C21638   2.436   8.444   3.034  0.2321  0.8657  0.5895
  922MOL0     H21639   2.051   8.335   2.947 -0.4018 -3.1039 -1.9348
  922MOL0     H21640   1.847   8.213   2.943 -0.0103  1.3553  0.1940
  922MOL0     H21641   1.742   8.003   3.332  0.6462 -3.2383 -1.6687
  922MOL0     H21642   1.720   7.914   3.177 -2.8931 -2.5901 -0.0753
  922MOL0     H21643   1.498   8.054   3.326  0.9877  0.3299 -0.0713
  922MOL0     H21644   1.554   7.893   3.330  3.6355 -0.5294 -0.5698
  922MOL0     H21645   1.506   7.856   3.089 -0.3701  0.0441  2.4280
  922MOL0     H21646   1.484   8.023   3.053  0.5806  0.3340 -2.1749
  922MOL0     H21647   1.268   7.947   3.249 -5.4951 -1.9018 -1.1395
  922MOL0     H21648   1.250   7.961   3.073  0.5480 -0.4765 -0.3490
  922MOL0     H21649   1.314   7.721   3.242  0.3235  1.0938 -0.5042
  922MOL0     H21650   1.342   7.729   3.069 -4.9925  3.0250 -6.4406
  922MOL0     H21651   1.071   7.797   3.066  0.7970  1.8652  1.9886
  922MOL0     H21652   1.083   7.767   3.236 -1.9450  1.1874 -0.9091
  922MOL0     H21653   1.124   7.594   2.978 -2.7361 -3.1154 -0.4372
  922MOL0     H21654   1.182   7.522   3.140 -0.5973  0.9417  1.9184
  922MOL0     H21655   0.897   7.592   3.038 -2.1537 -2.6747  1.1650
  922MOL0     H21656   0.945   7.574   3.212 -1.2500 -0.1218 -1.0039
  922MOL0     H21657   0.878   7.391   2.886 -0.2857 -2.5980 -0.9701
  922MOL0     H21658   0.932   7.063   2.892 -0.8410  0.7458 -1.7229
  922MOL0     H21659   0.788   7.154   2.855  2.1576  0.0215 -1.7060
  922MOL0     H21660   0.788   6.981   3.100 -0.4907  1.4170  1.3945
  922MOL0     H21661   0.732   6.920   2.944 -0.3395 -0.9818  0.3694
  922MOL0     H21662   0.610   7.186   3.071 -0.9038  0.4128 -1.6013
  922MOL0     H21663   0.559   7.110   2.925  2.8623 -0.4116 -1.2454
  922MOL0     H21664   0.557   7.020   3.208 -0.7382 -2.0804 -0.8228
  922MOL0     H21665   0.505   6.903   3.093 -0.6687 -0.0903 -0.0372
  922MOL0     H21666   0.173   7.206   3.175 -0.3871  0.4303  0.9585
  922MOL0     H21667  -0.010   7.141   3.329  1.7159  2.2768 -1.5195
  922MOL0     H21668  -0.248   6.642   3.329  2.1662  2.8411  0.9154
  922MOL0     H21669  -0.452   6.506   3.438 -0.9353 -0.8502  1.1129
  922MOL0     H21670  -0.501   6.328   3.601 -3.0517  0.4911 -2.9029
  922MOL0     H21671  -0.652   6.415   3.589  0.2947 -2.3672 -1.8347
  922MOL0     H21672  -0.575   6.308   3.851  1.6231 -0.2376 -1.1571
  922MOL0     H21673  -0.647   6.211   3.726 -0.0933 -1.8711  1.4513
  922MOL0     H21674  -0.821   6.311   3.869 -1.8362  1.6893 -0.3381
  922MOL0     H21675  -0.847   6.377   3.711  1.7172 -0.8856 -1.6861
  922MOL0     H21676  -0.679   6.524   3.928  0.4391 -1.9830 -0.2405
  922MOL0     H21677  -0.736   6.581   3.769  2.5985 -0.8695 -0.0624
  922MOL0     H21678  -0.921   6.522   4.004 -1.0424 -2.0155 -1.0306
  922MOL0     H21679  -0.975   6.534   3.842  1.7188 -4.0911 -0.0037
  922MOL0     H21680  -0.976   6.761   3.987  0.6146  0.2069  1.2162
  922MOL0     H21681  -0.900   6.775   3.827 -0.8531  1.3944  0.8516
  922MOL0     H21682  -0.714   6.704   4.056  0.3819 -1.1692 -2.0664
  922MOL0     H21683  -0.685   6.815   3.922  1.5940 -0.4695  1.3329
  922MOL0     H21684  -0.705   6.936   4.122  1.1851 -0.3228 -1.4454
  922MOL0     H21685  -0.874   6.886   4.147 -0.6136  2.8783 -0.0258
  922MOL0     H21686  -0.336   6.647   3.822 -3.3304  1.2549 -0.2126
  922MOL0     H21687  -0.137   6.769   3.716  0.4198 -0.4779  0.3963
  922MOL0     H21688   0.153   6.746   3.355 -1.8270  2.7898  4.4917
  922MOL0     H21689   0.345   6.814   3.212 -0.4661  0.6658 -2.6987
  922MOL0     H21690   1.838   8.187   3.376  2.1584 -2.1834 -0.4582
  922MOL0     H21691   2.057   8.302   3.378 -0.8345  1.4577 -0.0760
  922MOL0     H21692   2.502   8.123   3.111  0.0513  0.5937  0.7458
  922MOL0     H21693   2.722   8.192   3.018  0.3052 -0.8294 -0.3605
  922MOL0     H21694   2.757   8.455   2.714  1.6606  0.7717 -1.9187
  922MOL0     H21695   2.808   8.291   2.752  0.1781  0.2047 -1.6811
  922MOL0     H21696   2.983   8.551   2.779 -1.8579  0.3288 -1.7123
  922MOL0     H21697   3.008   8.401   2.874 -0.3152 -0.8306 -0.0272
  922MOL0     H21698   3.038   8.282   2.664  3.2632 -0.1670  0.8485
  922MOL0     H21699   3.159   8.409   2.679 -0.0177 -0.6363  0.2745
  922MOL0     H21700   3.007   8.558   2.548  3.9469 -0.6714 -0.4224
  922MOL0     H21701   3.093   8.426   2.457  2.0120  1.2934  1.1353
  922MOL0     H21702   2.691   8.367   2.370 -0.7346 -1.0578  0.8330
  922MOL0     H21703   2.577   8.590   2.977 -2.1904  0.7613  4.0879
  922MOL0     H21704   2.347   8.506   3.035 -0.1915  0.3469 -0.9235
  923MOL0     O21705   7.563   0.466   7.579 -0.0298  0.2853 -0.2796
  923MOL0     C21706   7.646   0.380   7.572 -0.2109 -0.0779 -0.4547
  923MOL0     O21707   7.660   0.285   7.656  0.3067 -0.2224 -1.0903
  923MOL0     C21708   7.592   0.272   7.778  0.1044  0.2822 -0.6693
  923MOL0     C21709   7.456   0.302   7.806  0.2145 -0.6110 -0.4554
  923MOL0     C21710   7.389   0.289   7.932 -0.4515  0.0431  0.4737
  923MOL0     C21711   7.459   0.223   8.039 -0.0743 -1.1708 -0.5036
  923MOL0     O21712   7.393   0.210   8.159 -0.2552 -0.1395  0.6720
  923MOL0     C21713   7.469   0.165   8.270  0.0791 -0.5159  0.2990
  923MOL0     C21714   7.379   0.176   8.394 -0.1827  0.2766  0.6388
  923MOL0     C21715   7.252   0.090   8.400  1.0733  0.5354  0.4340
  923MOL0     C21716   7.195   0.095   8.547  0.4282  0.3520 -0.7913
  923MOL0     C21717   7.071   0.005   8.564 -0.4314 -0.4688  0.6029
  923MOL0     C21718   6.956   0.062   8.475 -0.2401  0.2380 -0.0701
  923MOL0     C21719   6.821  -0.016   8.518 -0.4159  0.3564  0.4729
  923MOL0     C21720   6.714   0.049   8.432  0.5024 -0.2873  1.0914
  923MOL0     N21721   6.587  -0.031   8.433 -0.0980 -0.6888  0.2943
  923MOL0     C21722   6.574  -0.170   8.439  0.7483 -0.9143 -0.1521
  923MOL0     C21723   6.442  -0.191   8.434  0.8578  0.0088 -0.0835
  923MOL0     C21724   6.368  -0.324   8.430 -0.3192 -0.9934  0.8108
  923MOL0     C21725   6.263  -0.334   8.541  0.0522  0.0238 -0.8169
  923MOL0     C21726   6.119  -0.315   8.488  0.1010  0.3355 -0.0859
  923MOL0     C21727   6.005  -0.360   8.580  0.2164 -0.4265 -0.2679
  923MOL0     O21728   6.038  -0.485   8.631  0.2923  0.0206 -0.2798
  923MOL0     C21729   5.958  -0.548   8.718 -0.2426  0.7394 -0.0348
  923MOL0     C21730   6.008  -0.634   8.819 -0.7657  0.1009 -0.1859
  923MOL0     C21731   5.928  -0.698   8.911 -0.9750 -0.2497  0.1668
  923MOL0     C21732   5.790  -0.670   8.900 -0.5782  0.8626  0.4213
  923MOL0     C21733   5.685  -0.759   8.977 -1.2093 -0.6528 -0.2242
  923MOL0     O21734   5.559  -0.778   8.936  0.1394 -0.4260  0.4706
  923MOL0     C21735   5.467  -0.847   9.020  0.4824 -0.7190 -0.1840
  923MOL0     C21736   5.367  -0.929   8.955 -0.7312 -0.2787  1.1529
  923MOL0     C21737   5.269  -0.996   9.035  0.2408  0.9003 -0.5544
  923MOL0     C21738   5.271  -0.981   9.177 -0.2612  0.8097  0.5171
  923MOL0     O21739   5.187  -1.054   9.260  0.3737  0.7961  0.3159
  923MOL0     C21740   5.054  -1.007   9.246  0.1877 -0.2774  1.2198
  923MOL0     C21741   4.945  -1.101   9.319 -0.3358 -1.3567 -0.0838
  923MOL0     C21742   4.814  -1.029   9.316  0.7950  0.3782 -0.3592
  923MOL0     C21743   4.730  -1.054   9.450 -0.3098 -0.4969  0.3988
  923MOL0     C21744   4.599  -1.128   9.414  0.8642 -0.2181 -0.4274
  923MOL0     C21745   4.482  -1.028   9.364  0.7620  0.9978  0.1200
  923MOL0     C21746   4.415  -0.931   9.474  0.1069  0.0159  0.5401
  923MOL0     C21747   4.278  -0.878   9.439  0.5300  0.7367 -1.3198
  923MOL0    Cl21748   4.159  -1.009   9.450  0.0989  0.0888  0.6108
  923MOL0     C21749   5.366  -0.906   9.233 -0.3654 -0.2173  0.3512
  923MOL0     C21750   5.466  -0.845   9.158  0.8849 -0.2075  0.0647
  923MOL0     O21751   5.737  -0.787   9.090 -0.4318 -0.3426 -0.2784
  923MOL0     C21752   5.737  -0.586   8.806  0.4978 -0.8099  0.7070
  923MOL0     C21753   5.820  -0.525   8.716 -0.4938 -0.1491 -0.5990
  923MOL0     N21754   6.373  -0.072   8.449  0.3376 -0.9289 -0.5775
  923MOL0     N21755   6.467   0.022   8.446 -0.1089 -1.1090  0.3788
  923MOL0     C21756   7.599   0.181   8.008  0.0993  0.6674 -0.0041
  923MOL0     C21757   7.651   0.197   7.882  0.2044 -0.6172  0.0752
  923MOL0     C21758   7.746   0.396   7.468  0.8210  0.4035 -0.4103
  923MOL0     C21759   7.740   0.495   7.368 -0.7530  0.8730 -0.1796
  923MOL0     C21760   7.849   0.506   7.284  0.2319 -0.4856 -1.3235
  923MOL0     C21761   7.938   0.396   7.280 -1.0354 -0.1091  0.8882
  923MOL0     O21762   8.051   0.398   7.194 -0.2191  0.3530 -0.9463
  923MOL0     C21763   8.151   0.473   7.252  0.0480  0.9536 -0.5210
  923MOL0     C21764   8.290   0.429   7.210 -0.4713  0.3469  0.2329
  923MOL0     C21765   8.315   0.277   7.239 -0.8124 -0.1550 -0.3648
  923MOL0     C21766   8.377   0.256   7.383  0.1023  0.0974 -0.9297
  923MOL0     C21767   8.455   0.136   7.382 -0.8626  0.2332 -1.1145
  923MOL0     C21768   8.521   0.034   7.391  0.5463  0.2099 -0.2613
  923MOL0     C21769   7.932   0.293   7.368 -0.4868 -0.0337  0.7105
  923MOL0     C21770   7.840   0.292   7.468  0.0736 -0.5957  0.3735
  923MOL0     H21771   7.408   0.342   7.717  0.7707  0.2255 -0.3816
  923MOL0     H21772   7.294   0.338   7.949 -0.9303 -0.2119 -1.2169
  923MOL0     H21773   7.553   0.228   8.299  0.6394 -2.2388  2.7417
  923MOL0     H21774   7.516   0.068   8.252  0.0039 -0.3665 -0.8059
  923MOL0     H21775   7.357   0.282   8.409  1.4402  0.6118  0.7929
  923MOL0     H21776   7.440   0.122   8.467 -1.1392 -1.1361  0.4250
  923MOL0     H21777   7.282  -0.013   8.380  1.3007  1.0466 -2.3600
  923MOL0     H21778   7.178   0.105   8.320  1.2960  3.3444  0.6807
  923MOL0     H21779   7.269   0.073   8.625  0.3311  2.2610 -0.1019
  923MOL0     H21780   7.173   0.201   8.565 -0.5874  0.1394 -0.7067
  923MOL0     H21781   7.049   0.009   8.672 -0.6847  0.5238  0.5316
  923MOL0     H21782   7.109  -0.090   8.528  0.7112  0.9211 -2.1390
  923MOL0     H21783   6.971   0.060   8.366 -2.6071  2.5669 -0.5538
  923MOL0     H21784   6.956   0.166   8.509 -4.0444  0.4784 -0.3382
  923MOL0     H21785   6.825  -0.124   8.501  1.6663 -0.3126  4.1037
  923MOL0     H21786   6.802  -0.006   8.625 -0.2934 -1.0137  0.6377
  923MOL0     H21787   6.750   0.065   8.330  1.6470 -1.3351  1.3053
  923MOL0     H21788   6.706   0.152   8.470 -1.0997 -0.6729  1.8957
  923MOL0     H21789   6.660  -0.235   8.427  0.0213 -2.5635  2.5586
  923MOL0     H21790   6.436  -0.408   8.446 -2.7836 -3.3929 -0.3547
  923MOL0     H21791   6.321  -0.339   8.332  2.4876 -0.2694 -0.7538
  923MOL0     H21792   6.297  -0.264   8.617  0.1247 -1.9787  1.1078
  923MOL0     H21793   6.269  -0.435   8.584 -2.3815  0.5120  0.8673
  923MOL0     H21794   6.100  -0.212   8.457 -2.3693 -0.7138 -2.4821
  923MOL0     H21795   6.102  -0.382   8.403  1.6856 -0.7408  0.3922
  923MOL0     H21796   5.909  -0.360   8.528  0.7112 -3.4499 -1.3216
  923MOL0     H21797   5.998  -0.288   8.663  2.7707  0.3168 -0.6117
  923MOL0     H21798   6.115  -0.642   8.832 -0.6568  1.2791 -0.2393
  923MOL0     H21799   5.969  -0.768   8.984  0.9527  0.4399 -0.1929
  923MOL0     H21800   5.372  -0.929   8.847  1.2933  0.1873  1.2009
  923MOL0     H21801   5.195  -1.054   8.980  0.4415  0.6650 -0.5789
  923MOL0     H21802   5.027  -0.987   9.142  3.7055  4.0929  0.8464
  923MOL0     H21803   5.052  -0.912   9.300  0.2586  0.5392 -0.1733
  923MOL0     H21804   4.985  -1.109   9.421 -0.3124  1.7094  0.2497
  923MOL0     H21805   4.932  -1.201   9.277 -1.7322 -0.5730 -1.6338
  923MOL0     H21806   4.751  -1.050   9.229  1.1390  1.0065 -0.7681
  923MOL0     H21807   4.828  -0.921   9.310  1.1974  0.2739 -1.3762
  923MOL0     H21808   4.805  -1.109   9.509  2.2817  1.3262 -0.9753
  923MOL0     H21809   4.711  -0.958   9.498  1.4353  0.3901 -0.5711
  923MOL0     H21810   4.578  -1.193   9.499  0.4845 -0.7735 -0.9378
  923MOL0     H21811   4.612  -1.190   9.324  1.3561  3.1392 -2.8485
  923MOL0     H21812   4.407  -1.098   9.326  0.5131  1.5761 -0.4766
  923MOL0     H21813   4.512  -0.974   9.274  0.5023  0.7636 -0.1106
  923MOL0     H21814   4.398  -0.990   9.565  1.1175 -2.2191 -0.6238
  923MOL0     H21815   4.476  -0.845   9.503 -0.6579  0.1945  1.6516
  923MOL0     H21816   4.278  -0.834   9.338  1.4324  2.0963 -0.7603
  923MOL0     H21817   4.247  -0.800   9.510  0.6313 -0.2626 -0.1559
  923MOL0     H21818   5.354  -0.892   9.340  0.6747  3.5349  0.1085
  923MOL0     H21819   5.543  -0.787   9.207  3.4296 -2.0396 -1.5134
  923MOL0     H21820   5.632  -0.565   8.791  0.7831 -1.3040 -2.6688
  923MOL0     H21821   5.772  -0.453   8.651  2.7753  1.6731 -1.2593
  923MOL0     H21822   7.661   0.132   8.081  0.9324  1.4064 -0.1939
  923MOL0     H21823   7.747   0.155   7.853 -0.7093 -1.0767 -2.6617
  923MOL0     H21824   7.666   0.575   7.368 -1.1938  0.4718 -0.5703
  923MOL0     H21825   7.861   0.603   7.237 -1.6096  1.3861  1.7474
  923MOL0     H21826   8.149   0.466   7.362  2.4024  2.1674 -0.3331
  923MOL0     H21827   8.136   0.579   7.229 -1.6961  1.0278  0.7969
  923MOL0     H21828   8.302   0.455   7.105 -1.5009 -1.8298 -0.4769
  923MOL0     H21829   8.366   0.483   7.266 -1.7433  1.6078  0.8220
  923MOL0     H21830   8.395   0.261   7.166  0.8408  2.2239  0.8142
  923MOL0     H21831   8.225   0.218   7.218 -0.6427  0.1151 -1.9567
  923MOL0     H21832   8.445   0.335   7.417 -0.4585 -1.1625  3.8534
  923MOL0     H21833   8.290   0.247   7.449  0.3217 -0.0669 -0.6623
  923MOL0     H21834   8.570  -0.060   7.380 -2.5057 -1.5000 -0.3228
  923MOL0     H21835   8.010   0.219   7.354  0.2911  1.0123 -0.8301
  923MOL0     H21836   7.851   0.212   7.541 -0.9228  0.7350  2.0480
  924MOL0     O21837  10.035  11.161   0.961  0.7725  0.5024 -0.4989
  924MOL0     C21838  10.136  11.199   1.008  0.4237  0.2172  0.3723
  924MOL0     O21839  10.167  11.201   1.140 -0.7480  0.8230 -0.6104
  924MOL0     C21840  10.073  11.180   1.233  0.7073  0.2496 -0.3649
  924MOL0     C21841   9.979  11.284   1.256 -0.2898  0.1379 -0.3000
  924MOL0     C21842   9.869  11.273   1.334 -0.9425 -0.0351 -0.1337
  924MOL0     C21843   9.849  11.162   1.408  0.3074 -0.1956 -1.0097
  924MOL0     O21844   9.734  11.137   1.480  0.0556 -0.5782 -0.0607
  924MOL0     C21845   9.726  11.242   1.581  0.3091  0.6007 -0.6490
  924MOL0     C21846   9.628  11.210   1.686 -0.0862  0.3732 -0.4200
  924MOL0     C21847   9.478  11.187   1.634 -0.2289 -0.6414  0.2092
  924MOL0     C21848   9.371  11.140   1.735  0.0754 -0.0677  0.3001
  924MOL0     C21849   9.228  11.117   1.676  1.4440  0.5046 -0.3817
  924MOL0     C21850   9.130  11.052   1.786 -0.4340 -0.0202  0.4157
  924MOL0     C21851   9.111  10.900   1.762  0.3590  0.3502 -0.0252
  924MOL0     C21852   9.034  10.816   1.864 -0.7855 -0.1148  0.4842
  924MOL0     N21853   9.011  10.686   1.808 -0.3299  0.0210  0.2602
  924MOL0     C21854   9.104  10.592   1.770 -0.4948  0.3006 -0.8079
  924MOL0     C21855   9.035  10.486   1.733 -0.3060  0.1466  0.9994
  924MOL0     C21856   9.097  10.354   1.679  0.1397 -0.9150 -0.0993
  924MOL0     C21857   9.005  10.279   1.580  0.6330 -0.4801  0.5103
  924MOL0     C21858   9.095  10.215   1.481  0.0050 -0.8336  0.4472
  924MOL0     C21859   9.013  10.128   1.391 -0.6861  0.1283  0.0106
  924MOL0     O21860   8.908  10.203   1.342  0.3907 -0.3567 -0.3201
  924MOL0     C21861   8.794  10.138   1.303 -0.9552  0.2155  1.0654
  924MOL0     C21862   8.804  10.026   1.220  0.2194  0.1756  0.5711
  924MOL0     C21863   8.688   9.960   1.181  0.1045  0.3149  0.4804
  924MOL0     C21864   8.561  10.012   1.218 -0.7192  0.1487 -0.2905
  924MOL0     C21865   8.432   9.954   1.176  0.7328 -1.1399 -0.4542
  924MOL0     O21866   8.307   9.991   1.232 -0.1593 -0.3452 -1.1529
  924MOL0     C21867   8.198   9.921   1.178  0.0995 -0.1228 -0.8037
  924MOL0     C21868   8.163   9.955   1.052  0.0590  0.7145 -0.1297
  924MOL0     C21869   8.058   9.878   0.995  0.4402 -1.0771  0.7791
  924MOL0     C21870   8.002   9.767   1.053 -0.6513  0.4690  0.3855
  924MOL0     O21871   7.914   9.692   0.981  0.2085  0.2802 -0.3008
  924MOL0     C21872   7.857   9.583   1.053 -0.1153 -0.1017 -0.2100
  924MOL0     C21873   7.747   9.513   0.973  0.0010 -0.1776 -0.5803
  924MOL0     C21874   7.700   9.386   1.036  0.6179 -0.7481 -0.2629
  924MOL0     C21875   7.812   9.282   1.051  0.2215  0.6906 -0.4892
  924MOL0     C21876   7.755   9.137   1.082  0.2201  0.7064  0.0819
  924MOL0     C21877   7.663   9.122   1.205 -0.5384  1.2580  0.4714
  924MOL0     C21878   7.652   8.979   1.244  0.6530  0.5429 -0.5848
  924MOL0     C21879   7.534   8.965   1.344 -0.0072  0.1742 -0.3726
  924MOL0    Cl21880   7.503   8.807   1.411  0.0778 -0.0311 -0.2403
  924MOL0     C21881   8.054   9.728   1.177 -0.2706 -0.3006 -0.9898
  924MOL0     C21882   8.150   9.811   1.243  0.3661 -0.2767  0.1010
  924MOL0     O21883   8.440   9.870   1.087  1.4117 -0.3302 -0.1352
  924MOL0     C21884   8.556  10.126   1.304 -0.7189  0.1790  0.3964
  924MOL0     C21885   8.677  10.193   1.347  0.1569  0.1086  0.2694
  924MOL0     N21886   8.903  10.519   1.747 -0.1469  0.7508  0.1099
  924MOL0     N21887   8.888  10.639   1.797 -0.2048 -0.5421  0.1156
  924MOL0     C21888   9.928  11.046   1.388 -0.8492  0.0832  0.7544
  924MOL0     C21889  10.035  11.063   1.297  0.0622  0.0527  0.2705
  924MOL0     C21890  10.228  11.263   0.912 -1.0167 -0.2732  0.2023
  924MOL0     C21891  10.308  11.369   0.946  0.2066  0.8746  0.6929
  924MOL0     C21892  10.392  11.433   0.861  0.6664  0.5125 -0.2522
  924MOL0     C21893  10.408  11.377   0.730  1.1979  0.3739 -0.5292
  924MOL0     O21894  10.466  11.447   0.626  0.0655  0.6489  0.9079
  924MOL0     C21895  10.564  11.553   0.639 -0.2608  0.8965 -0.1181
  924MOL0     C21896  10.678  11.557   0.534  0.8721 -0.4393 -0.2602
  924MOL0     C21897  10.758  11.684   0.544  0.4976 -1.1645  0.4972
  924MOL0     C21898  10.879  11.692   0.645  0.3478  0.4581  0.0661
  924MOL0     C21899  10.979  11.596   0.600  0.0118 -0.0758 -0.8328
  924MOL0     C21900  11.069  11.528   0.567 -0.5610  0.4068  0.1926
  924MOL0     C21901  10.329  11.268   0.695 -0.3053 -0.4972 -0.1032
  924MOL0     C21902  10.237  11.216   0.777  0.1328  0.3326  0.4977
  924MOL0     H21903   9.985  11.381   1.208  1.1925  1.1324  1.7611
  924MOL0     H21904   9.803  11.358   1.330 -0.0459  0.6862 -4.2925
  924MOL0     H21905   9.697  11.342   1.547 -1.3854  1.6989  3.4293
  924MOL0     H21906   9.823  11.258   1.630 -1.3493  0.4923  3.0001
  924MOL0     H21907   9.638  11.294   1.754  0.3969 -0.6336  0.7933
  924MOL0     H21908   9.665  11.118   1.734 -0.6389  2.1406  3.8101
  924MOL0     H21909   9.479  11.104   1.563 -1.0669 -0.5534  0.0774
  924MOL0     H21910   9.449  11.282   1.587  0.3057 -0.3735  0.4170
  924MOL0     H21911   9.411  11.053   1.788  0.5090  0.5799  1.0691
  924MOL0     H21912   9.368  11.221   1.809  1.1654 -0.0460  0.3498
  924MOL0     H21913   9.240  11.059   1.584  1.5330 -1.6443  0.9208
  924MOL0     H21914   9.170  11.203   1.641 -3.1387 -3.3089 -3.4609
  924MOL0     H21915   9.033  11.103   1.783 -0.6069 -0.3839 -0.3115
  924MOL0     H21916   9.181  11.070   1.881  1.0656 -0.7340 -0.2207
  924MOL0     H21917   9.047  10.893   1.674 -4.4557 -4.0548  3.2091
  924MOL0     H21918   9.207  10.860   1.730  0.3095  0.7460 -0.6957
  924MOL0     H21919   8.935  10.861   1.876 -1.3206  0.0194 -3.3609
  924MOL0     H21920   9.074  10.802   1.966 -1.4328 -4.1201  0.3566
  924MOL0     H21921   9.212  10.589   1.769 -0.5114 -0.3590 -1.3225
  924MOL0     H21922   9.120  10.288   1.762  0.4816 -2.6816 -1.5418
  924MOL0     H21923   9.186  10.376   1.620 -1.0165 -1.5947 -2.2014
  924MOL0     H21924   8.929  10.342   1.533 -2.0643 -2.8556  1.4048
  924MOL0     H21925   8.940  10.208   1.631  0.3453 -0.8926 -0.4059
  924MOL0     H21926   9.132  10.296   1.417  0.5831 -1.8862 -0.5979
  924MOL0     H21927   9.179  10.154   1.515 -2.1406 -5.0034 -1.0510
  924MOL0     H21928   8.979  10.047   1.455  1.6229 -0.0852  1.0525
  924MOL0     H21929   9.063  10.086   1.303 -3.1277  0.8468 -1.8536
  924MOL0     H21930   8.892   9.971   1.188 -1.8259 -3.5040  0.7187
  924MOL0     H21931   8.700   9.863   1.132  1.8277 -0.6780  2.6824
  924MOL0     H21932   8.208  10.032   0.989  0.1498  2.4136  1.8954
  924MOL0     H21933   8.016   9.907   0.899  1.1852  0.8428  0.9958
  924MOL0     H21934   7.812   9.630   1.141  1.2173  5.2538 -1.9966
  924MOL0     H21935   7.938   9.513   1.076 -1.8185 -1.4097  2.1928
  924MOL0     H21936   7.771   9.481   0.871  2.5535  1.0705 -0.4507
  924MOL0     H21937   7.672   9.591   0.964  1.2780  1.2545  0.6567
  924MOL0     H21938   7.628   9.352   0.961  0.6413  1.0123 -1.1504
  924MOL0     H21939   7.661   9.432   1.127 -1.7431 -1.5063 -0.8248
  924MOL0     H21940   7.881   9.282   0.967  2.2840 -3.6829  0.8781
  924MOL0     H21941   7.864   9.311   1.143 -0.3179 -0.6304  0.2748
  924MOL0     H21942   7.849   9.080   1.079 -0.1505 -0.1340  2.3789
  924MOL0     H21943   7.696   9.111   0.995  4.5807 -2.5731 -2.3010
  924MOL0     H21944   7.561   9.152   1.180 -0.2764  1.8628  0.1286
  924MOL0     H21945   7.703   9.177   1.291  2.6325  0.0714 -0.1068
  924MOL0     H21946   7.628   8.914   1.160 -1.8653 -1.8188  1.7701
  924MOL0     H21947   7.745   8.958   1.297  0.1314  2.0318  1.0418
  924MOL0     H21948   7.442   8.987   1.289  0.0921  0.1791 -0.5371
  924MOL0     H21949   7.543   9.033   1.430 -0.9706 -0.3553  0.1666
  924MOL0     H21950   8.023   9.638   1.229 -3.5763  1.0525 -0.3438
  924MOL0     H21951   8.199   9.777   1.334  1.3864  1.9040  0.4426
  924MOL0     H21952   8.465  10.163   1.349 -0.0650 -2.7751  4.7762
  924MOL0     H21953   8.666  10.280   1.410  1.1397  0.4007  0.0412
  924MOL0     H21954   9.912  10.942   1.413  3.7898 -0.3235  2.9736
  924MOL0     H21955  10.109  10.986   1.282 -1.2572 -0.7623 -2.9587
  924MOL0     H21956  10.299  11.417   1.043  0.7377 -0.9826  1.7162
  924MOL0     H21957  10.435  11.527   0.892 -0.9447  0.1733  3.6131
  924MOL0     H21958  10.620  11.528   0.729  1.2189 -0.0788 -1.2517
  924MOL0     H21959  10.509  11.647   0.647 -0.8724  0.6218 -0.8380
  924MOL0     H21960  10.751  11.475   0.539 -0.1370 -1.3877  4.8282
  924MOL0     H21961  10.621  11.548   0.441  0.5494  4.6528 -0.8394
  924MOL0     H21962  10.688  11.766   0.562  0.4277 -1.1493  0.1659
  924MOL0     H21963  10.787  11.715   0.443  0.6932 -1.4975  0.4496
  924MOL0     H21964  10.924  11.789   0.670 -3.6221  3.0482 -1.7828
  924MOL0     H21965  10.843  11.658   0.742  2.3214 -1.0916  0.3177
  924MOL0     H21966  11.143  11.453   0.548 -0.0148  0.7217  1.0148
  924MOL0     H21967  10.326  11.233   0.593 -2.9273  0.1218 -0.3111
  924MOL0     H21968  10.181  11.129   0.745  0.3319  1.0252 -1.9306
  925MOL0     O21969   3.545   4.025   2.164  0.8731  0.2946  0.2719
  925MOL0     C21970   3.667   4.024   2.159 -0.6002 -0.0808  0.3334
  925MOL0     O21971   3.753   4.030   2.257  0.1074 -0.4027 -0.3262
  925MOL0     C21972   3.717   4.080   2.379 -0.6299  0.2363  0.7477
  925MOL0     C21973   3.649   4.201   2.384  0.2999  0.7224  0.0188
  925MOL0     C21974   3.640   4.271   2.506 -0.1667 -0.2246 -0.5119
  925MOL0     C21975   3.688   4.215   2.628 -0.4605  0.4797 -0.5246
  925MOL0     O21976   3.681   4.285   2.741 -0.8444  0.2851  0.6319
  925MOL0     C21977   3.767   4.256   2.845 -0.4700 -0.3093 -0.5143
  925MOL0     C21978   3.727   4.341   2.964 -0.3468 -0.5181  0.8505
  925MOL0     C21979   3.801   4.309   3.096 -0.1844  1.0704 -0.5832
  925MOL0     C21980   3.783   4.168   3.138 -0.1969 -0.0235  1.0816
  925MOL0     C21981   3.854   4.153   3.278  0.2258  0.0087  0.4648
  925MOL0     C21982   3.995   4.164   3.264 -0.2800  0.1855  0.1133
  925MOL0     C21983   4.072   4.150   3.401 -0.8740  0.4144 -0.1526
  925MOL0     C21984   4.143   4.285   3.437 -0.0135  0.1920  0.4995
  925MOL0     N21985   4.235   4.333   3.329  0.5020 -0.8886  0.1451
  925MOL0     C21986   4.321   4.245   3.260 -0.1162  0.5237 -0.4354
  925MOL0     C21987   4.408   4.336   3.204 -0.0381  0.4315  0.2514
  925MOL0     C21988   4.529   4.288   3.126  0.1948  0.2153  0.0888
  925MOL0     C21989   4.632   4.408   3.121  0.2645  0.3372 -0.3488
  925MOL0     C21990   4.688   4.438   3.270  0.7152  1.0641  0.2612
  925MOL0     C21991   4.840   4.438   3.253 -0.1931 -0.0343 -0.3430
  925MOL0     O21992   4.913   4.313   3.281  0.0328  0.4862 -0.8282
  925MOL0     C21993   5.001   4.305   3.384  0.3140 -0.1251 -0.2473
  925MOL0     C21994   5.101   4.208   3.381  1.0515  0.4040 -0.1086
  925MOL0     C21995   5.198   4.198   3.474  0.6839  0.1747  0.1142
  925MOL0     C21996   5.179   4.277   3.593 -0.2704  0.0574 -0.3083
  925MOL0     C21997   5.275   4.275   3.707  0.1571 -1.5799 -1.0238
  925MOL0     O21998   5.350   4.174   3.754  0.0957  0.8566  0.0942
  925MOL0     C21999   5.311   4.047   3.709  0.8218 -0.7715 -1.2651
  925MOL0     C22000   5.386   3.954   3.632 -0.6784  0.6480  0.3759
  925MOL0     C22001   5.351   3.817   3.609 -0.6117 -0.3992 -0.1864
  925MOL0     C22002   5.230   3.777   3.653  0.0159  1.2035  0.1355
  925MOL0     O22003   5.197   3.643   3.622  0.2603 -0.3135 -0.6594
  925MOL0     C22004   5.080   3.592   3.675 -0.2512 -0.1229  0.5827
  925MOL0     C22005   5.077   3.442   3.656  1.0124  0.9760  0.1130
  925MOL0     C22006   5.102   3.402   3.513 -0.5230  0.4472 -0.3531
  925MOL0     C22007   5.166   3.263   3.489  1.0853  0.3821 -0.9246
  925MOL0     C22008   5.072   3.146   3.536 -0.1229  0.3042  0.7134
  925MOL0     C22009   5.133   3.013   3.551 -0.0302 -0.2786 -0.7600
  925MOL0     C22010   5.024   2.908   3.592  0.7459 -0.2938  0.5334
  925MOL0     C22011   5.011   2.893   3.745  1.4167 -0.3731  0.2321
  925MOL0    Cl22012   4.880   3.005   3.792 -0.2418  0.3028 -0.1189
  925MOL0     C22013   5.149   3.867   3.727  0.4020 -1.4627  0.6189
  925MOL0     C22014   5.192   3.997   3.764 -0.4375  0.3767 -0.5001
  925MOL0     O22015   5.282   4.388   3.760  0.0253  0.1707  0.1961
  925MOL0     C22016   5.076   4.372   3.600 -1.0279  0.0264  0.1626
  925MOL0     C22017   4.985   4.377   3.496 -0.9164 -0.1602 -0.3432
  925MOL0     N22018   4.379   4.468   3.237 -0.1583 -0.2919  0.2175
  925MOL0     N22019   4.277   4.463   3.316  0.1009  0.3833  0.2606
  925MOL0     C22020   3.743   4.081   2.617  0.5053 -0.2375  0.3725
  925MOL0     C22021   3.765   4.031   2.493 -0.2121  0.4662  0.5434
  925MOL0     C22022   3.739   4.021   2.023 -0.0903 -0.8304  0.5563
  925MOL0     C22023   3.882   4.039   2.025  0.9832 -0.0995  0.8839
  925MOL0     C22024   3.951   4.033   1.904  0.0643 -0.7937  0.0335
  925MOL0     C22025   3.886   4.002   1.787  0.6270 -0.0375 -0.2351
  925MOL0     O22026   3.952   3.979   1.668 -0.0137 -0.6092  0.0277
  925MOL0     C22027   3.921   4.075   1.565 -0.8539 -0.0255  0.9364
  925MOL0     C22028   4.032   4.065   1.456  0.4031  0.3873  0.6227
  925MOL0     C22029   4.025   3.970   1.341 -0.9019 -0.2628  0.1417
  925MOL0     C22030   4.121   3.989   1.222 -0.4858 -0.2056 -0.5442
  925MOL0     C22031   4.112   3.882   1.127  1.0750  0.1377 -0.5463
  925MOL0     C22032   4.078   3.808   1.037 -0.9312  0.3987  0.1962
  925MOL0     C22033   3.744   3.983   1.792 -0.6371  0.0002  1.0428
  925MOL0     C22034   3.669   3.996   1.905  0.1386  0.1397  0.3554
  925MOL0     H22035   3.586   4.242   2.305 -2.8727 -0.3339  1.8004
  925MOL0     H22036   3.594   4.370   2.506 -0.4909 -0.3531 -2.0364
  925MOL0     H22037   3.866   4.275   2.802 -1.3739  0.7602 -2.2367
  925MOL0     H22038   3.762   4.150   2.873 -0.8624 -0.4030 -0.9221
  925MOL0     H22039   3.621   4.320   2.980 -0.7494 -0.4221 -1.3694
  925MOL0     H22040   3.745   4.446   2.942 -0.2748 -0.3950  1.4837
  925MOL0     H22041   3.759   4.378   3.170 -1.5094 -0.9200  0.6145
  925MOL0     H22042   3.906   4.332   3.078 -0.0979  1.6876  0.5942
  925MOL0     H22043   3.675   4.150   3.142 -0.2027 -0.2663  0.1544
  925MOL0     H22044   3.834   4.103   3.066 -1.4572  0.0067  0.1186
  925MOL0     H22045   3.840   4.053   3.318  1.6874 -0.5460 -0.3212
  925MOL0     H22046   3.817   4.234   3.342  1.0915  0.1137  0.8556
  925MOL0     H22047   4.035   4.259   3.226  3.0169 -0.2622  2.0676
  925MOL0     H22048   4.024   4.079   3.202 -1.0875 -2.1730  2.8113
  925MOL0     H22049   4.001   4.121   3.479 -1.1454  4.2435  1.2022
  925MOL0     H22050   4.161   4.086   3.403 -0.1419  1.3756  2.8114
  925MOL0     H22051   4.193   4.266   3.532  1.8807 -0.2126 -0.5372
  925MOL0     H22052   4.067   4.360   3.461 -0.3738 -0.2816  0.8605
  925MOL0     H22053   4.329   4.138   3.274 -2.1270  0.2128 -1.3823
  925MOL0     H22054   4.504   4.261   3.023 -0.6184 -2.9757  1.0435
  925MOL0     H22055   4.581   4.200   3.164  2.2811  1.8175  1.2124
  925MOL0     H22056   4.591   4.496   3.070 -0.7844 -1.0455 -1.9924
  925MOL0     H22057   4.699   4.365   3.046  2.8086 -3.5417  3.6268
  925MOL0     H22058   4.664   4.528   3.328  1.4524  1.9376 -0.7465
  925MOL0     H22059   4.665   4.351   3.332 -1.6770  2.7201  1.8595
  925MOL0     H22060   4.886   4.525   3.301 -0.4457  0.4509 -0.9576
  925MOL0     H22061   4.852   4.478   3.152 -1.6594  1.6819  0.0998
  925MOL0     H22062   5.099   4.154   3.288  0.7922  2.9588 -1.6933
  925MOL0     H22063   5.279   4.128   3.460  1.0010  0.2988  1.2305
  925MOL0     H22064   5.481   3.992   3.594 -0.6542  0.3589  0.1378
  925MOL0     H22065   5.418   3.742   3.567  1.8792  1.8655 -0.5606
  925MOL0     H22066   4.990   3.632   3.626  0.2855  2.0150  1.2346
  925MOL0     H22067   5.081   3.614   3.782  2.0006  2.0673  0.1898
  925MOL0     H22068   4.979   3.402   3.685  0.1340  1.0779 -2.4322
  925MOL0     H22069   5.161   3.412   3.719 -1.0389  0.8442  2.9621
  925MOL0     H22070   5.176   3.472   3.476 -2.2981  2.8598  0.4032
  925MOL0     H22071   5.011   3.419   3.454 -1.4302  1.0894  1.1698
  925MOL0     H22072   5.186   3.259   3.381 -0.4787 -3.9860 -1.2659
  925MOL0     H22073   5.260   3.254   3.544 -0.8629 -0.2047  2.6326
  925MOL0     H22074   4.989   3.137   3.466 -0.6281  3.3174  0.8026
  925MOL0     H22075   5.031   3.187   3.629  1.3849 -0.2788  1.6738
  925MOL0     H22076   5.198   3.018   3.639 -1.2438 -1.8528  0.2899
  925MOL0     H22077   5.186   2.986   3.460  4.1617  1.9384  0.7384
  925MOL0     H22078   4.927   2.933   3.549  0.0514 -0.7513  1.7823
  925MOL0     H22079   5.054   2.815   3.543  0.9268  0.6059 -1.1077
  925MOL0     H22080   5.110   2.904   3.791  1.4878 -0.2521  0.0515
  925MOL0     H22081   4.985   2.789   3.765 -2.3254  0.2688 -0.6284
  925MOL0     H22082   5.045   3.859   3.758  0.4368 -1.7062  0.6742
  925MOL0     H22083   5.135   4.053   3.837  1.4215  1.1995  0.3667
  925MOL0     H22084   5.057   4.432   3.688 -3.2064  0.8076 -0.7732
  925MOL0     H22085   4.904   4.446   3.516 -3.0036 -1.8955 -2.2527
  925MOL0     H22086   3.794   4.032   2.700  1.3059 -2.6321 -1.4393
  925MOL0     H22087   3.807   3.932   2.481 -1.9774 -0.5147  1.9831
  925MOL0     H22088   3.935   4.068   2.115  1.8766 -1.4192  0.8114
  925MOL0     H22089   4.059   4.041   1.897  0.0841  0.6453  1.5011
  925MOL0     H22090   3.922   4.175   1.609 -0.1321 -0.0588  1.0096
  925MOL0     H22091   3.829   4.061   1.508  0.8179 -1.0452 -1.7228
  925MOL0     H22092   4.049   4.167   1.422  4.0333  0.4365  2.0773
  925MOL0     H22093   4.122   4.035   1.512 -1.9287 -1.5014  3.6915
  925MOL0     H22094   3.925   3.974   1.297  0.0717  2.2610 -2.0876
  925MOL0     H22095   4.051   3.880   1.398  0.4856  1.3129  2.1560
  925MOL0     H22096   4.115   4.088   1.175  2.5042  0.2412 -0.2204
  925MOL0     H22097   4.222   3.975   1.262 -2.4067 -2.2569  4.2659
  925MOL0     H22098   4.055   3.742   0.956  0.3632 -1.0553  0.9444
  925MOL0     H22099   3.702   3.958   1.695  0.9680  3.1538 -0.6195
  925MOL0     H22100   3.562   3.981   1.889  0.0606 -0.7829  1.6281
  926MOL0     O22101   4.041   0.463   4.297 -0.4343 -0.6514  0.1468
  926MOL0     C22102   4.102   0.362   4.324 -0.2394 -0.3779  0.0974
  926MOL0     O22103   4.086   0.290   4.442 -1.0922  0.0099  0.0387
  926MOL0     C22104   4.005   0.330   4.551  0.5634  0.2372  0.5260
  926MOL0     C22105   4.015   0.254   4.665  0.9866  0.2191  0.0855
  926MOL0     C22106   3.941   0.277   4.778  0.0600  0.3914 -0.2894
  926MOL0     C22107   3.852   0.385   4.787 -0.0352 -0.8949 -0.0971
  926MOL0     O22108   3.754   0.397   4.888  0.4652  0.2666  0.6011
  926MOL0     C22109   3.633   0.481   4.880  0.0286  0.0632 -0.4625
  926MOL0     C22110   3.530   0.428   4.994  1.0759  0.2139 -0.8299
  926MOL0     C22111   3.517   0.274   5.002 -0.0729 -0.2377 -0.3129
  926MOL0     C22112   3.396   0.207   5.064 -0.5888 -0.2150  0.0065
  926MOL0     C22113   3.371   0.062   5.002  0.1602 -0.1965 -0.0884
  926MOL0     C22114   3.319   0.052   4.858 -0.7668  0.5162  0.2270
  926MOL0     C22115   3.165   0.069   4.861 -0.4586 -0.2596 -0.3509
  926MOL0     C22116   3.117   0.122   4.718 -0.9700  0.2155 -0.3821
  926MOL0     N22117   3.165   0.260   4.685 -0.4050  0.3141 -0.8222
  926MOL0     C22118   3.164   0.379   4.769 -0.4888 -0.2291  1.0763
  926MOL0     C22119   3.196   0.478   4.678  0.3245 -0.6167 -1.2053
  926MOL0     C22120   3.208   0.621   4.711  0.2776 -0.9960 -0.1263
  926MOL0     C22121   3.122   0.716   4.614  0.5251 -0.1694 -0.1294
  926MOL0     C22122   3.137   0.873   4.626  0.2616 -0.0215  0.2260
  926MOL0     C22123   3.034   0.933   4.515 -0.8891  0.0922 -0.3407
  926MOL0     O22124   3.072   1.064   4.476  0.3350 -0.5705 -0.5048
  926MOL0     C22125   2.992   1.130   4.385 -0.4712  0.7909  0.4432
  926MOL0     C22126   3.048   1.246   4.337 -0.7718  0.4560 -0.1006
  926MOL0     C22127   2.974   1.335   4.253  0.2656  0.2012 -0.1958
  926MOL0     C22128   2.849   1.302   4.197  0.0791  1.2317 -0.6631
  926MOL0     C22129   2.767   1.392   4.109  0.3415 -0.7393  1.2281
  926MOL0     O22130   2.651   1.343   4.072  0.2722 -0.4687  0.4996
  926MOL0     C22131   2.571   1.399   3.976  0.4882  0.0257  0.8708
  926MOL0     C22132   2.497   1.516   4.009 -0.3787 -0.3901  0.1797
  926MOL0     C22133   2.416   1.576   3.907 -0.5049  0.5129  0.3488
  926MOL0     C22134   2.411   1.519   3.771 -0.3293 -1.1368 -0.8277
  926MOL0     O22135   2.346   1.566   3.665  0.2847  0.1516  0.0741
  926MOL0     C22136   2.332   1.706   3.644 -0.2272 -0.5657 -0.4728
  926MOL0     C22137   2.219   1.739   3.542 -0.5443  0.2996  0.3666
  926MOL0     C22138   2.088   1.744   3.614 -1.2574 -0.1049 -0.6715
  926MOL0     C22139   1.969   1.756   3.517 -0.5731 -0.9028  0.1411
  926MOL0     C22140   1.831   1.762   3.587 -0.2717  0.4416 -0.6900
  926MOL0     C22141   1.722   1.816   3.510  0.2187 -0.9528 -0.2023
  926MOL0     C22142   1.618   1.713   3.476 -0.2669  0.4620 -0.4281
  926MOL0     C22143   1.533   1.762   3.359  0.6847  0.2311  0.4361
  926MOL0    Cl22144   1.431   1.629   3.288 -0.5424  0.4941  0.1758
  926MOL0     C22145   2.489   1.409   3.751 -1.3306 -0.6211 -0.1437
  926MOL0     C22146   2.562   1.332   3.848 -0.2202  0.5704 -0.8432
  926MOL0     O22147   2.814   1.502   4.078 -0.1259  0.3848 -0.2103
  926MOL0     C22148   2.808   1.171   4.228  0.3176  0.2497 -0.2688
  926MOL0     C22149   2.868   1.099   4.330  0.5233  0.7473  0.3008
  926MOL0     N22150   3.239   0.422   4.565  1.2652  1.5282  0.8534
  926MOL0     N22151   3.216   0.300   4.565  0.0516 -0.0070  0.4671
  926MOL0     C22152   3.840   0.462   4.673  0.1017  0.0557  0.0794
  926MOL0     C22153   3.916   0.434   4.562  0.1589 -0.5403  0.2249
  926MOL0     C22154   4.201   0.319   4.218 -0.1405 -0.5382 -0.6562
  926MOL0     C22155   4.243   0.414   4.125  0.7019 -0.1955 -0.9197
  926MOL0     C22156   4.349   0.392   4.044  0.0391 -0.7592 -0.0204
  926MOL0     C22157   4.422   0.276   4.055 -0.6471  0.1522 -0.2537
  926MOL0     O22158   4.535   0.270   3.977  0.0174  0.8330  1.1231
  926MOL0     C22159   4.632   0.175   4.014  0.3846 -0.6436  0.1563
  926MOL0     C22160   4.750   0.186   3.923  0.2567  0.3404 -0.6274
  926MOL0     C22161   4.812   0.325   3.903  1.5657  0.3764 -0.0945
  926MOL0     C22162   4.876   0.366   4.038 -0.6638 -0.9305 -0.7224
  926MOL0     C22163   4.943   0.497   4.031 -0.5746 -0.0609  0.1465
  926MOL0     C22164   5.006   0.601   4.013 -0.7467 -0.8944 -1.4486
  926MOL0     C22165   4.377   0.176   4.141 -0.3524  1.0088 -0.0989
  926MOL0     C22166   4.264   0.194   4.216 -0.8824 -0.1300  0.3223
  926MOL0     H22167   4.076   0.165   4.674 -2.2854 -2.0515  2.0147
  926MOL0     H22168   3.939   0.207   4.862  0.8474 -1.2088 -1.5334
  926MOL0     H22169   3.581   0.477   4.785  3.5483 -1.3020 -2.5438
  926MOL0     H22170   3.660   0.586   4.889  0.5894 -0.1651  0.9830
  926MOL0     H22171   3.431   0.473   4.980 -1.1957 -4.0572 -0.0445
  926MOL0     H22172   3.563   0.471   5.089 -0.9474  2.6004 -1.1137
  926MOL0     H22173   3.585   0.244   5.083 -2.9439  1.1671  2.8990
  926MOL0     H22174   3.526   0.236   4.900  1.2288 -0.3253 -0.1726
  926MOL0     H22175   3.397   0.211   5.174 -3.0202  0.0718  0.0768
  926MOL0     H22176   3.305   0.259   5.033 -1.7341 -1.8327  0.5173
  926MOL0     H22177   3.295   0.017   5.066  2.3504 -3.6960  0.3416
  926MOL0     H22178   3.462   0.003   5.018  0.0842  0.0532  1.4158
  926MOL0     H22179   3.344  -0.045   4.814  2.7242  1.1034  0.6115
  926MOL0     H22180   3.364   0.132   4.797  0.6184 -1.2734 -1.2123
  926MOL0     H22181   3.114  -0.025   4.884 -0.5281 -0.5279 -1.5215
  926MOL0     H22182   3.139   0.149   4.930 -0.0399  2.3210 -2.9905
  926MOL0     H22183   3.012   0.152   4.724 -0.4544  1.8792  2.0568
  926MOL0     H22184   3.131   0.048   4.639  2.1224 -0.5446  0.7220
  926MOL0     H22185   3.138   0.392   4.874  0.3968  0.5905  1.2112
  926MOL0     H22186   3.314   0.647   4.713  0.1074 -0.3435  1.0116
  926MOL0     H22187   3.186   0.634   4.817  4.4896 -0.7364  0.8865
  926MOL0     H22188   3.015   0.699   4.628  0.4194  0.2135 -0.4319
  926MOL0     H22189   3.147   0.691   4.510 -3.0250  0.3175 -1.2319
  926MOL0     H22190   3.119   0.909   4.728  0.1113  0.9987 -0.1486
  926MOL0     H22191   3.238   0.899   4.594 -0.4565  0.9832 -1.3985
  926MOL0     H22192   2.936   0.928   4.563 -0.7718 -1.6815 -0.2028
  926MOL0     H22193   3.043   0.872   4.425  1.3567 -0.6892  0.3447
  926MOL0     H22194   3.136   1.285   4.386 -1.8176 -0.8297  3.0277
  926MOL0     H22195   3.008   1.436   4.232  0.3203 -0.2165 -2.4274
  926MOL0     H22196   2.493   1.567   4.105  0.6521 -0.2773  0.1684
  926MOL0     H22197   2.334   1.646   3.926 -1.5357  0.4028 -3.0251
  926MOL0     H22198   2.430   1.746   3.618  1.0041 -2.3224  1.1450
  926MOL0     H22199   2.303   1.740   3.745 -1.3976  1.7531 -1.5045
  926MOL0     H22200   2.223   1.653   3.474  0.7566  0.0920  0.6900
  926MOL0     H22201   2.252   1.835   3.503  0.0117  0.0345  0.1834
  926MOL0     H22202   2.093   1.828   3.683 -0.1455 -0.4919 -0.2561
  926MOL0     H22203   2.083   1.645   3.660  3.6905  0.4144  1.7330
  926MOL0     H22204   1.985   1.851   3.466 -1.3994  1.0171  3.1753
  926MOL0     H22205   1.975   1.671   3.449 -0.8101 -1.9991  1.4430
  926MOL0     H22206   1.827   1.822   3.678 -1.8022  0.1630 -0.5481
  926MOL0     H22207   1.823   1.656   3.614 -2.9529  0.5125 -0.9581
  926MOL0     H22208   1.759   1.870   3.422 -0.5345  1.9009  1.1080
  926MOL0     H22209   1.661   1.880   3.575 -0.2876  0.4710 -1.9950
  926MOL0     H22210   1.661   1.619   3.439 -0.8516 -1.0755  2.4355
  926MOL0     H22211   1.559   1.683   3.564  2.4167 -0.9369  1.0383
  926MOL0     H22212   1.593   1.805   3.279  0.5058 -1.2470 -0.5366
  926MOL0     H22213   1.462   1.833   3.404  0.8911 -1.2268  3.3131
  926MOL0     H22214   2.505   1.366   3.653 -2.5472 -1.9300  0.1945
  926MOL0     H22215   2.624   1.246   3.827 -0.4321  0.2092 -0.0291
  926MOL0     H22216   2.713   1.138   4.187  0.1769  1.0882 -0.6370
  926MOL0     H22217   2.821   1.011   4.372  0.4882  1.6438  2.2631
  926MOL0     H22218   3.755   0.528   4.659 -1.3070 -1.9059 -1.2237
  926MOL0     H22219   3.909   0.497   4.474  0.5439  0.0773  0.6298
  926MOL0     H22220   4.194   0.510   4.129  1.5929  0.2168  1.4259
  926MOL0     H22221   4.373   0.472   3.975  0.5805 -1.5488 -0.7633
  926MOL0     H22222   4.580   0.081   3.997  0.0907 -0.5001  0.2506
  926MOL0     H22223   4.660   0.184   4.119  3.5787  1.8961 -0.7599
  926MOL0     H22224   4.824   0.114   3.960 -0.7513 -1.5887 -2.1917
  926MOL0     H22225   4.724   0.154   3.822  2.1115 -2.4739 -0.3035
  926MOL0     H22226   4.750   0.399   3.851  0.0699 -0.9132 -0.2141
  926MOL0     H22227   4.893   0.317   3.831  4.5587  0.1189  3.0595
  926MOL0     H22228   4.810   0.376   4.125  2.7977 -0.3245  2.0997
  926MOL0     H22229   4.949   0.290   4.068 -1.6967 -1.3079  0.9772
  926MOL0     H22230   5.055   0.696   4.004 -0.4289 -0.9967 -0.8412
  926MOL0     H22231   4.428   0.081   4.154 -1.8996  0.1539 -0.0826
  926MOL0     H22232   4.235   0.112   4.281 -2.7726 -0.9752 -1.4751
  927MOL0     O22233   3.633   2.808   7.378  0.8412 -0.9263 -0.1509
  927MOL0     C22234   3.729   2.873   7.349 -0.5467 -0.5208  0.0814
  927MOL0     O22235   3.737   2.986   7.279  0.1354 -0.5764 -0.5632
  927MOL0     C22236   3.622   3.048   7.249  1.3222  0.0544  0.6916
  927MOL0     C22237   3.577   3.047   7.115  0.5260 -0.3842  0.7991
  927MOL0     C22238   3.451   3.102   7.081  0.1009  0.0831 -0.2998
  927MOL0     C22239   3.371   3.179   7.171 -1.3952 -0.0529 -0.3405
  927MOL0     O22240   3.250   3.234   7.148  0.9914 -0.1502 -0.4056
  927MOL0     C22241   3.202   3.248   7.015 -0.2337 -0.5696 -0.2396
  927MOL0     C22242   3.079   3.339   7.003 -0.1646  0.2062  0.1517
  927MOL0     C22243   3.109   3.485   6.961  0.2118 -0.2130 -0.2018
  927MOL0     C22244   2.972   3.560   6.998 -0.1388 -0.5023 -1.1002
  927MOL0     C22245   3.001   3.709   6.986  0.6479  0.0527  0.0123
  927MOL0     C22246   2.895   3.797   7.046  0.1195  0.1864  0.5422
  927MOL0     C22247   2.904   3.945   6.999  0.6224 -1.0992 -0.4223
  927MOL0     C22248   2.836   3.979   6.862 -0.3324  0.3099 -0.3672
  927MOL0     N22249   2.900   3.936   6.734  0.5011 -0.9645 -0.1934
  927MOL0     C22250   3.013   3.991   6.669  0.3388 -0.0901  0.4354
  927MOL0     C22251   3.034   3.906   6.565  0.0378  0.0476  0.1682
  927MOL0     C22252   3.170   3.905   6.487  0.3251 -0.7089  0.4761
  927MOL0     C22253   3.283   3.978   6.554 -0.4463 -0.0289 -0.5576
  927MOL0     C22254   3.410   3.980   6.464 -1.3621  0.8021  0.0398
  927MOL0     C22255   3.544   3.993   6.537  0.2651  0.4628  0.2212
  927MOL0     O22256   3.657   3.969   6.452  1.0312 -0.6253  0.4412
  927MOL0     C22257   3.787   3.984   6.502  0.5824  0.2901  0.1938
  927MOL0     C22258   3.820   4.000   6.638 -0.2804 -0.2271  0.5816
  927MOL0     C22259   3.955   3.993   6.671 -0.5453  0.1998 -0.7462
  927MOL0     C22260   4.053   3.991   6.570  0.3700 -0.3752  0.3397
  927MOL0     C22261   4.197   3.970   6.599 -1.5747 -0.2299  1.2450
  927MOL0     O22262   4.227   3.976   6.732 -0.4603 -0.7091 -0.9581
  927MOL0     C22263   4.353   3.956   6.779  0.2956  1.1388  0.1085
  927MOL0     C22264   4.463   4.027   6.715  0.6696  0.4779  0.1745
  927MOL0     C22265   4.590   3.997   6.764  0.0237 -0.2274 -0.4633
  927MOL0     C22266   4.615   3.902   6.864 -0.0613 -0.4477 -0.4973
  927MOL0     O22267   4.731   3.862   6.907 -0.6011 -0.7674 -0.0426
  927MOL0     C22268   4.856   3.901   6.837  0.8909  1.0829  0.0813
  927MOL0     C22269   4.964   3.846   6.920 -0.6091 -0.0435 -0.1180
  927MOL0     C22270   4.967   3.689   6.899 -0.5813 -0.4610  0.4049
  927MOL0     C22271   5.078   3.638   6.993  0.7359  0.7880 -0.3813
  927MOL0     C22272   5.091   3.482   6.988 -0.3286  1.2460 -0.0592
  927MOL0     C22273   4.962   3.408   7.014 -0.0936  0.1457  0.2452
  927MOL0     C22274   4.987   3.262   7.030  0.2711  2.0619 -0.6178
  927MOL0     C22275   4.863   3.201   7.092  0.1003 -0.6741  0.6006
  927MOL0    Cl22276   4.868   3.021   7.106 -0.0616 -0.2087  0.0785
  927MOL0     C22277   4.499   3.837   6.926  0.1542  0.1572 -0.0714
  927MOL0     C22278   4.362   3.860   6.887 -0.2371 -0.0644  0.4428
  927MOL0     O22279   4.264   3.908   6.514  0.0456  0.7891  0.0392
  927MOL0     C22280   4.017   3.994   6.437  0.8751 -0.6692  0.5861
  927MOL0     C22281   3.881   3.988   6.395 -1.3098  0.1394  0.0979
  927MOL0     N22282   2.932   3.810   6.573  0.5142 -0.7218  0.1119
  927MOL0     N22283   2.852   3.833   6.665 -0.5033 -0.5490  0.2874
  927MOL0     C22284   3.415   3.177   7.307 -0.5480 -0.0657  0.3833
  927MOL0     C22285   3.535   3.117   7.345 -0.3574  0.3256  0.8986
  927MOL0     C22286   3.856   2.819   7.407 -0.0199 -0.5207  0.1231
  927MOL0     C22287   3.860   2.701   7.493  0.5648  0.2880  0.0028
  927MOL0     C22288   3.979   2.645   7.531  0.2689 -0.3783 -0.0981
  927MOL0     C22289   4.108   2.701   7.504  0.5650  1.0010 -0.0877
  927MOL0     O22290   4.215   2.634   7.548  0.1075 -0.3422  0.4674
  927MOL0     C22291   4.348   2.676   7.514  0.8465  1.3935 -0.8778
  927MOL0     C22292   4.435   2.603   7.613 -1.5394  0.5690  0.7195
  927MOL0     C22293   4.441   2.684   7.741 -0.0028 -0.9026  0.7862
  927MOL0     C22294   4.334   2.646   7.837 -1.4417 -0.4117 -0.2625
  927MOL0     C22295   4.343   2.724   7.960  0.0347  0.6082  0.6694
  927MOL0     C22296   4.342   2.783   8.067 -0.6800 -0.5717  1.1701
  927MOL0     C22297   4.106   2.818   7.422  1.0370 -0.4225 -0.2567
  927MOL0     C22298   3.983   2.881   7.382 -1.0632  0.7250 -0.1226
  927MOL0     H22299   3.644   3.002   7.043 -0.5342 -2.5652  1.0855
  927MOL0     H22300   3.424   3.098   6.976 -1.1749 -0.4721  0.0277
  927MOL0     H22301   3.175   3.148   6.981 -2.3012 -1.5770  3.7470
  927MOL0     H22302   3.276   3.281   6.941 -0.3188  1.2454  0.4166
  927MOL0     H22303   3.036   3.343   7.104  1.2714  2.1069  0.7360
  927MOL0     H22304   3.008   3.300   6.930 -0.1147 -0.1819  0.3080
  927MOL0     H22305   3.149   3.496   6.860 -1.6763  0.1494 -0.9504
  927MOL0     H22306   3.181   3.532   7.029  2.1581 -2.0667 -0.8670
  927MOL0     H22307   2.890   3.532   6.932 -2.1690 -1.7505  1.7335
  927MOL0     H22308   2.929   3.530   7.094  0.7064  4.2574  1.0418
  927MOL0     H22309   3.019   3.720   6.879 -2.0649 -3.0758 -0.9697
  927MOL0     H22310   3.093   3.732   7.039  0.3277  0.5036  0.3872
  927MOL0     H22311   2.902   3.811   7.154  3.1472 -0.1648  0.4949
  927MOL0     H22312   2.794   3.760   7.033  0.2319 -0.0801  0.4237
  927MOL0     H22313   2.847   4.005   7.070 -0.8393 -1.1957 -1.4564
  927MOL0     H22314   3.009   3.974   7.007  0.2023  0.9374 -1.3442
  927MOL0     H22315   2.824   4.088   6.860  3.6170  1.0316  2.4664
  927MOL0     H22316   2.735   3.939   6.869 -0.0755 -0.5682 -1.4419
  927MOL0     H22317   3.074   4.072   6.709 -1.7849  1.2003  1.2318
  927MOL0     H22318   3.149   3.941   6.385 -0.6860 -0.5658  0.7262
  927MOL0     H22319   3.190   3.799   6.469  1.1724 -0.6291  0.9035
  927MOL0     H22320   3.316   3.928   6.645  0.4157  0.7940 -0.3904
  927MOL0     H22321   3.248   4.075   6.592 -0.9922 -0.4903  0.1311
  927MOL0     H22322   3.428   3.885   6.413  2.7808  1.6130 -0.4022
  927MOL0     H22323   3.405   4.061   6.390  2.1515  1.2074  0.0563
  927MOL0     H22324   3.548   3.918   6.616 -4.5547  2.6929  3.0725
  927MOL0     H22325   3.549   4.086   6.595 -1.5380  4.1626 -4.7966
  927MOL0     H22326   3.743   4.023   6.710  0.5176 -1.9960  2.0689
  927MOL0     H22327   3.986   4.000   6.775 -3.1058 -1.5988  0.2172
  927MOL0     H22328   4.447   4.088   6.627  0.3259  0.4463  0.2130
  927MOL0     H22329   4.675   4.046   6.717  1.0565  1.7024  3.0623
  927MOL0     H22330   4.864   4.010   6.836 -0.8183  1.2638 -2.0930
  927MOL0     H22331   4.856   3.864   6.734 -0.1978 -2.3607  1.1478
  927MOL0     H22332   4.946   3.866   7.026 -1.1953  2.1931 -0.5930
  927MOL0     H22333   5.055   3.900   6.894 -0.3742 -1.2207 -1.9976
  927MOL0     H22334   4.995   3.662   6.797 -1.2937  4.0309 -1.2121
  927MOL0     H22335   4.875   3.641   6.934  1.9220 -3.0123  4.3190
  927MOL0     H22336   5.174   3.683   6.965  0.6575  0.1517 -1.7562
  927MOL0     H22337   5.061   3.664   7.098  1.6561 -0.2890  0.0586
  927MOL0     H22338   5.160   3.454   7.068 -3.8937  0.2432  2.9463
  927MOL0     H22339   5.132   3.444   6.894 -0.5583  1.9029 -0.4342
  927MOL0     H22340   4.899   3.418   6.925 -0.0980 -0.8619  0.1336
  927MOL0     H22341   4.902   3.454   7.093 -5.2154  0.6885 -3.4620
  927MOL0     H22342   5.001   3.227   6.928 -1.1907  1.1072 -0.5267
  927MOL0     H22343   5.071   3.223   7.089 -2.4287 -0.8802  1.7095
  927MOL0     H22344   4.773   3.240   7.045  0.8370 -0.6856 -0.8508
  927MOL0     H22345   4.856   3.239   7.195 -1.4820 -1.4924  0.8196
  927MOL0     H22346   4.526   3.757   6.994 -1.8453 -1.8944 -1.5393
  927MOL0     H22347   4.273   3.807   6.918  0.3583 -1.2861  0.1276
  927MOL0     H22348   4.086   3.985   6.354 -1.3467  1.3437 -1.6360
  927MOL0     H22349   3.848   3.977   6.292 -0.8242  2.5370 -0.3846
  927MOL0     H22350   3.338   3.202   7.379 -0.9698  3.9078 -1.1539
  927MOL0     H22351   3.573   3.121   7.446  3.6288 -0.0806 -0.3946
  927MOL0     H22352   3.760   2.660   7.500  1.5717 -2.5220 -0.7361
  927MOL0     H22353   3.967   2.562   7.600  1.4217 -1.4958 -1.1761
  927MOL0     H22354   4.362   2.784   7.506 -0.9106  1.6036 -1.5418
  927MOL0     H22355   4.352   2.635   7.412 -1.7067 -1.3267 -0.0467
  927MOL0     H22356   4.404   2.500   7.637  2.2500 -0.5784  1.2440
  927MOL0     H22357   4.534   2.592   7.569 -2.0365  1.8537 -0.7924
  927MOL0     H22358   4.446   2.789   7.711  1.9521 -1.2763 -0.3747
  927MOL0     H22359   4.543   2.669   7.778  0.5911 -0.1430 -0.4810
  927MOL0     H22360   4.236   2.657   7.791 -0.1888  0.2758 -2.9605
  927MOL0     H22361   4.348   2.541   7.862  1.3923 -0.2088 -0.6934
  927MOL0     H22362   4.327   2.838   8.158  2.5245 -1.2630  2.2488
  927MOL0     H22363   4.202   2.865   7.402  1.3522 -0.7046  0.5245
  927MOL0     H22364   3.992   2.972   7.325 -0.3862  1.5880  1.2878
  928MOL0     O22365   1.364  11.037   6.525 -0.5401  1.0287  0.9759
  928MOL0     C22366   1.399  11.155   6.537  0.2690 -0.1458 -2.0795
  928MOL0     O22367   1.318  11.257   6.503  0.7697  0.0054 -0.4671
  928MOL0     C22368   1.211  11.248   6.419  0.6353  0.1352 -1.2621
  928MOL0     C22369   1.147  11.372   6.408 -1.3158  0.4060  0.9893
  928MOL0     C22370   1.037  11.393   6.321  0.5514  0.4936 -1.0379
  928MOL0     C22371   0.988  11.280   6.250 -0.0560 -1.1372  0.4229
  928MOL0     O22372   0.876  11.289   6.178  0.3732 -0.6775  0.5111
  928MOL0     C22373   0.762  11.370   6.220 -0.0295 -0.1339 -1.6376
  928MOL0     C22374   0.655  11.337   6.127  0.7163  0.2253  1.1768
  928MOL0     C22375   0.535  11.436   6.139  0.0394 -0.4347 -0.0081
  928MOL0     C22376   0.413  11.404   6.045 -1.1315 -0.1643 -0.3893
  928MOL0     C22377   0.304  11.512   6.055 -0.6483  0.5634 -0.6255
  928MOL0     C22378   0.225  11.497   6.189  0.1133 -0.0008  0.4240
  928MOL0     C22379   0.115  11.608   6.195 -0.7435 -0.8454 -0.3829
  928MOL0     C22380   0.022  11.593   6.315 -0.3090  0.2530 -0.4556
  928MOL0     N22381  -0.124  11.620   6.311 -0.3023 -0.1651  0.2214
  928MOL0     C22382  -0.196  11.570   6.206 -0.6994 -0.3566  0.2775
  928MOL0     C22383  -0.325  11.603   6.248 -0.2626  0.9803  0.3258
  928MOL0     C22384  -0.451  11.557   6.185  1.0106 -0.2133 -0.3364
  928MOL0     C22385  -0.582  11.628   6.220 -0.3129  0.4046  1.1632
  928MOL0     C22386  -0.598  11.765   6.145 -0.6257 -0.2825 -0.2892
  928MOL0     C22387  -0.613  11.758   5.984  0.6899 -0.2160  0.0922
  928MOL0     O22388  -0.721  11.677   5.933 -0.1881  0.0933  0.0380
  928MOL0     C22389  -0.848  11.711   5.966 -0.2772 -0.0659 -1.7362
  928MOL0     C22390  -0.931  11.612   6.027  0.6187  0.5185 -0.4873
  928MOL0     C22391  -1.065  11.639   6.054  0.7489 -1.1267 -0.6457
  928MOL0     C22392  -1.117  11.774   6.042  0.3206  0.0437  0.5075
  928MOL0     C22393  -1.260  11.806   6.074  0.8792  0.1830  0.7859
  928MOL0     O22394  -1.310  11.927   6.074 -0.3348 -0.6966  0.7062
  928MOL0     C22395  -1.443  11.942   6.100  1.0305 -0.3056 -0.3348
  928MOL0     C22396  -1.518  12.018   6.009  0.2059  0.7898 -0.8291
  928MOL0     C22397  -1.661  12.019   6.017 -0.1124 -0.2322 -0.8047
  928MOL0     C22398  -1.722  11.964   6.130  0.0725 -0.4206 -0.0520
  928MOL0     O22399  -1.857  11.979   6.132  0.8165  0.2864  0.3509
  928MOL0     C22400  -1.939  11.899   6.225  0.1375  1.0414  0.3469
  928MOL0     C22401  -2.084  11.900   6.161 -0.0133  0.5752  0.7787
  928MOL0     C22402  -2.169  11.809   6.243  0.5610  0.4528 -0.0248
  928MOL0     C22403  -2.319  11.818   6.187  0.5521 -0.4525 -0.2133
  928MOL0     C22404  -2.415  11.752   6.294 -0.2152 -0.1382  0.2317
  928MOL0     C22405  -2.548  11.682   6.250  0.4698 -0.5671 -0.3797
  928MOL0     C22406  -2.652  11.785   6.183 -0.7347 -0.2720 -0.4915
  928MOL0     C22407  -2.759  11.707   6.101 -0.4443 -0.4397 -0.0272
  928MOL0    Cl22408  -2.903  11.819   6.082  0.1454  0.2591  0.4347
  928MOL0     C22409  -1.651  11.901   6.226  0.4868  0.3602  0.3291
  928MOL0     C22410  -1.514  11.879   6.212  0.6886 -0.9731 -0.4400
  928MOL0     O22411  -1.331  11.702   6.091  0.5446 -0.6131 -0.0557
  928MOL0     C22412  -1.032  11.876   5.993 -0.0974  0.3151 -0.4517
  928MOL0     C22413  -0.898  11.842   5.955  0.2324  0.4465  0.1329
  928MOL0     N22414  -0.326  11.657   6.373  0.5971 -0.1651 -0.6697
  928MOL0     N22415  -0.205  11.674   6.408 -0.6366 -0.0357  0.1610
  928MOL0     C22416   1.057  11.156   6.255  0.4584  0.0282  0.0612
  928MOL0     C22417   1.159  11.144   6.349 -0.0624 -0.0731  0.1629
  928MOL0     C22418   1.538  11.180   6.572  0.4711 -0.7085  0.4203
  928MOL0     C22419   1.594  11.307   6.545 -0.1087 -0.0104  0.5222
  928MOL0     C22420   1.725  11.338   6.582 -0.0464  0.4845 -0.3881
  928MOL0     C22421   1.810  11.238   6.641  0.0204 -0.1131  0.4437
  928MOL0     O22422   1.938  11.258   6.682 -0.1696  0.0901 -0.2116
  928MOL0     C22423   2.012  11.353   6.617 -0.6396  0.6297 -0.3710
  928MOL0     C22424   2.157  11.342   6.648 -1.2413 -0.7334  0.5679
  928MOL0     C22425   2.225  11.201   6.634 -0.3127 -0.7685 -0.4103
  928MOL0     C22426   2.337  11.181   6.733 -0.0650  0.4438 -0.0509
  928MOL0     C22427   2.464  11.262   6.720  0.6207  0.1098  0.5927
  928MOL0     C22428   2.554  11.347   6.715 -0.0207  0.6800  0.9042
  928MOL0     C22429   1.755  11.121   6.678 -0.1432 -0.2134  0.3627
  928MOL0     C22430   1.624  11.089   6.645  0.8069  0.5849 -0.0467
  928MOL0     H22431   1.186  11.449   6.473  1.2045  1.7168 -1.8520
  928MOL0     H22432   0.976  11.482   6.320 -2.5733 -1.4139  1.5197
  928MOL0     H22433   0.782  11.477   6.215 -2.5408  0.5883  0.7512
  928MOL0     H22434   0.729  11.344   6.321  0.4929  4.4956 -0.0428
  928MOL0     H22435   0.623  11.235   6.150 -1.1985  0.8556  1.5344
  928MOL0     H22436   0.685  11.338   6.022 -0.8312  1.2351  0.7030
  928MOL0     H22437   0.557  11.541   6.117 -0.0901 -0.1591  1.1270
  928MOL0     H22438   0.504  11.433   6.243  2.0783  2.8162  0.8323
  928MOL0     H22439   0.458  11.403   5.945  0.8592 -0.4133  0.4721
  928MOL0     H22440   0.373  11.306   6.074 -1.9235  0.6175  1.3148
  928MOL0     H22441   0.235  11.504   5.971 -0.9708  3.8082 -0.7674
  928MOL0     H22442   0.355  11.608   6.056  1.0071 -0.2611 -1.3942
  928MOL0     H22443   0.288  11.492   6.278  0.0342 -2.1578  0.4031
  928MOL0     H22444   0.176  11.400   6.178  1.2062 -0.3862 -1.4100
  928MOL0     H22445   0.174  11.698   6.217 -1.3745 -0.9847  2.0858
  928MOL0     H22446   0.059  11.614   6.101 -1.9204 -0.2878  0.3373
  928MOL0     H22447   0.051  11.656   6.400 -2.9432  1.9613 -0.7121
  928MOL0     H22448   0.047  11.499   6.365 -1.1519  0.8658  1.1787
  928MOL0     H22449  -0.161  11.513   6.120  1.4889 -1.9605  2.1031
  928MOL0     H22450  -0.459  11.452   6.214  1.1359 -0.1729 -0.1548
  928MOL0     H22451  -0.427  11.562   6.079  3.0217 -7.2493 -0.7322
  928MOL0     H22452  -0.592  11.639   6.328 -1.1702  2.5722  0.9166
  928MOL0     H22453  -0.662  11.561   6.188  1.2927 -0.9440 -0.2093
  928MOL0     H22454  -0.689  11.811   6.184 -2.2068 -3.1858 -0.2556
  928MOL0     H22455  -0.501  11.815   6.157 -0.0763 -1.5375  0.7340
  928MOL0     H22456  -0.520  11.715   5.947 -1.2353 -1.1212 -4.3260
  928MOL0     H22457  -0.616  11.862   5.948 -0.7236 -1.4094 -3.7207
  928MOL0     H22458  -0.892  11.513   6.050  0.1827  0.7249  1.2976
  928MOL0     H22459  -1.131  11.557   6.079 -0.9467  0.4696  0.4438
  928MOL0     H22460  -1.477  12.064   5.920  2.9348 -0.2734 -0.2255
  928MOL0     H22461  -1.726  12.065   5.944 -0.2124  2.5059  0.8767
  928MOL0     H22462  -1.940  11.953   6.320 -1.0299  0.5076  0.6558
  928MOL0     H22463  -1.899  11.798   6.235 -4.8248 -1.4931 -1.7720
  928MOL0     H22464  -2.084  11.864   6.058  1.3980  0.2605  0.8632
  928MOL0     H22465  -2.130  11.999   6.168 -4.1654 -1.2029  1.1331
  928MOL0     H22466  -2.176  11.826   6.351  1.7942  2.4699 -0.2213
  928MOL0     H22467  -2.141  11.704   6.226  1.1536  0.1856  2.2881
  928MOL0     H22468  -2.343  11.923   6.172  1.5370  0.3742  3.2589
  928MOL0     H22469  -2.327  11.781   6.084 -0.8619 -1.1018  0.1044
  928MOL0     H22470  -2.429  11.825   6.374  2.2859 -0.0262  0.6486
  928MOL0     H22471  -2.365  11.665   6.337  1.8698  0.4419 -0.9264
  928MOL0     H22472  -2.594  11.648   6.343  2.2218 -1.6274  0.1458
  928MOL0     H22473  -2.535  11.590   6.193  1.4715 -0.7427  0.1016
  928MOL0     H22474  -2.705  11.847   6.256  1.3933  0.2162  0.7142
  928MOL0     H22475  -2.597  11.852   6.117 -1.8783  4.0804  2.5518
  928MOL0     H22476  -2.785  11.610   6.143 -1.8046 -0.3274 -0.5508
  928MOL0     H22477  -2.731  11.684   5.998 -1.7806 -0.1990 -0.4681
  928MOL0     H22478  -1.699  11.843   6.304  1.4937  0.0801  0.7672
  928MOL0     H22479  -1.460  11.835   6.295 -1.1396 -2.2506  0.1206
  928MOL0     H22480  -1.064  11.979   5.995 -2.2551 -0.3199  1.9814
  928MOL0     H22481  -0.828  11.923   5.938  2.8897 -1.2234  2.0632
  928MOL0     H22482   1.030  11.080   6.182 -0.7308 -1.2227  1.7281
  928MOL0     H22483   1.219  11.053   6.341  1.9917  1.1393  0.9091
  928MOL0     H22484   1.529  11.385   6.508 -1.9173 -1.3004  0.7750
  928MOL0     H22485   1.767  11.437   6.571  4.5585 -1.2246 -0.1418
  928MOL0     H22486   1.978  11.457   6.619  3.6024  2.2131 -1.0268
  928MOL0     H22487   2.004  11.320   6.513  1.5126 -1.3689  0.0089
  928MOL0     H22488   2.213  11.413   6.587 -0.8582 -0.0964  1.6373
  928MOL0     H22489   2.170  11.368   6.753 -0.0490 -2.0409  0.7741
  928MOL0     H22490   2.258  11.190   6.531  2.3353  1.3852  0.0790
  928MOL0     H22491   2.152  11.123   6.659 -1.2469  0.1387 -0.1953
  928MOL0     H22492   2.287  11.197   6.830 -2.2279  1.2133 -1.2230
  928MOL0     H22493   2.365  11.075   6.731 -0.1506  0.3449  1.9678
  928MOL0     H22494   2.632  11.419   6.704 -1.8096  2.2914 -3.8898
  928MOL0     H22495   1.817  11.056   6.739  2.4304  1.5730 -0.1446
  928MOL0     H22496   1.591  10.990   6.673  1.4023  1.4923  4.9759
  929MOL0     O22497   3.217   9.513  10.558 -0.3783  0.2712 -0.8382
  929MOL0     C22498   3.291   9.547  10.659  0.1570  1.7031 -0.8352
  929MOL0     O22499   3.243   9.594  10.778 -0.3447  0.0049  0.4234
  929MOL0     C22500   3.110   9.617  10.785  0.4966  0.0775 -0.1829
  929MOL0     C22501   3.059   9.742  10.733 -0.0040 -0.4967  0.7983
  929MOL0     C22502   2.920   9.776  10.742  0.0367  0.7329  0.3440
  929MOL0     C22503   2.831   9.700  10.817 -0.8479 -0.0512  0.7313
  929MOL0     O22504   2.698   9.728  10.825 -1.1484 -0.8109  0.3773
  929MOL0     C22505   2.657   9.750  10.966 -0.4898  0.3595 -0.4878
  929MOL0     C22506   2.522   9.798  10.977 -0.6372 -0.0031 -0.5731
  929MOL0     C22507   2.488   9.848  11.118  0.1406 -0.1556  0.7087
  929MOL0     C22508   2.362   9.788  11.186  0.5986 -0.1093  0.2983
  929MOL0     C22509   2.339   9.827  11.330  0.8123 -0.0299 -0.3939
  929MOL0     C22510   2.431   9.754  11.419 -0.4963  0.9083 -0.9702
  929MOL0     C22511   2.452   9.840  11.556 -0.4296 -0.6590  0.4293
  929MOL0     C22512   2.456   9.746  11.674  0.4908 -0.2688 -0.3759
  929MOL0     N22513   2.328   9.668  11.713 -1.2692 -0.5755 -0.2947
  929MOL0     C22514   2.218   9.731  11.753 -0.3602  0.4154 -0.5268
  929MOL0     C22515   2.127   9.628  11.773  0.5958  0.3303  0.4093
  929MOL0     C22516   1.981   9.642  11.814 -0.3474  0.7105 -0.2259
  929MOL0     C22517   1.936   9.571  11.940 -0.6485 -0.5891  0.4658
  929MOL0     C22518   1.776   9.557  11.948 -0.1318 -0.5911 -0.0016
  929MOL0     C22519   1.712   9.699  11.938 -0.8015  1.1314 -0.3313
  929MOL0     O22520   1.608   9.710  12.035 -0.1947 -0.1906  0.0363
  929MOL0     C22521   1.518   9.812  12.028 -0.3273 -0.1276  0.2805
  929MOL0     C22522   1.513   9.908  11.926  0.5979 -0.5358 -0.4900
  929MOL0     C22523   1.423  10.016  11.946 -0.1664 -0.1385 -0.0789
  929MOL0     C22524   1.327  10.016  12.051  1.2310  0.1298 -0.0516
  929MOL0     C22525   1.202  10.105  12.054 -0.2573 -0.7951 -0.8739
  929MOL0     O22526   1.113  10.102  12.161 -0.1059  0.2274 -1.2274
  929MOL0     C22527   1.028  10.216  12.164  0.4083  0.5684 -0.1117
  929MOL0     C22528   1.074  10.332  12.221 -0.5446 -0.4272 -0.0176
  929MOL0     C22529   0.991  10.434  12.252  0.4328 -0.3919  0.3219
  929MOL0     C22530   0.854  10.425  12.223  0.0848  0.5823  0.1867
  929MOL0     O22531   0.750  10.517  12.253  0.0130 -0.1682 -0.6828
  929MOL0     C22532   0.787  10.625  12.351 -0.3490 -0.2641 -0.2243
  929MOL0     C22533   0.658  10.704  12.387  0.3097 -0.4718  0.7519
  929MOL0     C22534   0.683  10.844  12.442 -0.7583  0.1200 -0.1844
  929MOL0     C22535   0.771  10.948  12.345 -0.1091  1.1185  0.1619
  929MOL0     C22536   0.681  11.008  12.236 -0.0556  0.3485 -0.0069
  929MOL0     C22537   0.764  11.099  12.146 -0.0665  0.2555  0.5520
  929MOL0     C22538   0.694  11.138  12.013 -0.4843 -1.0225 -0.2513
  929MOL0     C22539   0.589  11.251  12.025 -0.1262 -0.2653  0.2058
  929MOL0    Cl22540   0.509  11.270  11.861 -0.6555 -0.1185  0.1232
  929MOL0     C22541   0.811  10.309  12.164  0.3686  1.1658  0.1046
  929MOL0     C22542   0.894  10.197  12.146  0.6291 -0.4473  0.0683
  929MOL0     O22543   1.206  10.197  11.965 -0.4625 -0.9808 -0.1819
  929MOL0     C22544   1.325   9.915  12.145 -1.0461  0.2290  0.2902
  929MOL0     C22545   1.419   9.814  12.130 -0.4097 -0.2178 -0.2373
  929MOL0     N22546   2.189   9.510  11.748  0.6045  0.9973 -0.7399
  929MOL0     N22547   2.307   9.533  11.706  0.3188  1.1596 -0.3191
  929MOL0     C22548   2.881   9.583  10.871 -0.4636  0.0792 -0.4019
  929MOL0     C22549   3.014   9.541  10.854  0.4323  0.1469  0.0704
  929MOL0     C22550   3.438   9.542  10.654 -0.2231  0.1796  0.4022
  929MOL0     C22551   3.505   9.461  10.562  0.3519 -0.5918 -0.8136
  929MOL0     C22552   3.643   9.455  10.560 -0.9979  0.5399  0.2610
  929MOL0     C22553   3.715   9.535  10.652 -0.2868 -0.1835 -0.1114
  929MOL0     O22554   3.854   9.539  10.640 -0.2997 -0.4699 -0.0647
  929MOL0     C22555   3.931   9.507  10.766  0.2287  0.5603 -0.6021
  929MOL0     C22556   4.083   9.514  10.737  0.1176  0.1465 -0.6230
  929MOL0     C22557   4.147   9.384  10.684  0.1163 -0.0554 -0.2423
  929MOL0     C22558   4.262   9.411  10.595  0.7056 -0.4267 -0.5596
  929MOL0     C22559   4.382   9.440  10.680  0.4705  0.1355  0.2915
  929MOL0     C22560   4.472   9.463  10.761 -0.3353  1.0768 -0.2181
  929MOL0     C22561   3.653   9.609  10.743  0.8083  0.0787  0.0233
  929MOL0     C22562   3.519   9.609  10.748  0.6783 -0.3570 -0.2763
  929MOL0     H22563   3.126   9.800  10.670  0.5631 -4.7533 -3.0431
  929MOL0     H22564   2.874   9.862  10.695  1.1319  0.9163 -0.4299
  929MOL0     H22565   2.721   9.827  11.009 -0.9239 -0.8300  2.5665
  929MOL0     H22566   2.661   9.655  11.021 -2.7186  1.6142  2.0549
  929MOL0     H22567   2.451   9.720  10.947 -0.1206 -1.1695  1.0540
  929MOL0     H22568   2.517   9.876  10.901 -0.3135  1.4046  0.7951
  929MOL0     H22569   2.468   9.955  11.110 -0.0127 -0.2757 -0.7469
  929MOL0     H22570   2.580   9.839  11.177  0.1358 -0.3048  0.6930
  929MOL0     H22571   2.280   9.820  11.121  0.0493 -0.9881  0.5347
  929MOL0     H22572   2.374   9.679  11.189  0.3786 -0.3867 -3.5656
  929MOL0     H22573   2.238   9.813  11.370  1.6920  0.8768  2.3697
  929MOL0     H22574   2.364   9.933  11.337  0.1815  0.3439 -2.8721
  929MOL0     H22575   2.529   9.739  11.372 -1.7998 -1.5266 -3.1322
  929MOL0     H22576   2.389   9.656  11.443  2.9901 -0.5093  0.0039
  929MOL0     H22577   2.544   9.897  11.541 -1.1091  0.2224 -0.4780
  929MOL0     H22578   2.368   9.908  11.575 -0.0125  0.3819 -1.2534
  929MOL0     H22579   2.489   9.811  11.756  1.2643 -2.9171  1.5383
  929MOL0     H22580   2.530   9.669  11.653 -2.0630 -2.4966 -1.7368
  929MOL0     H22581   2.208   9.839  11.762  1.1883  0.5213  0.1335
  929MOL0     H22582   1.930   9.600  11.727  0.4177 -1.3099  0.2539
  929MOL0     H22583   1.969   9.750  11.825  1.6221  1.0959 -1.2967
  929MOL0     H22584   1.961   9.629  12.029 -3.0437 -0.2557  1.0090
  929MOL0     H22585   1.979   9.471  11.930 -0.0947 -0.3675  0.6284
  929MOL0     H22586   1.744   9.497  11.862  1.3241 -2.6993  0.8193
  929MOL0     H22587   1.752   9.505  12.041 -0.4005 -1.0383 -0.3125
  929MOL0     H22588   1.672   9.720  11.838  0.8428 -1.9451 -1.7954
  929MOL0     H22589   1.788   9.775  11.959 -1.5846  1.9323 -0.3450
  929MOL0     H22590   1.558   9.910  11.827  0.6220 -1.3045 -0.4995
  929MOL0     H22591   1.428  10.092  11.868  0.3828  0.0792  0.1666
  929MOL0     H22592   1.182  10.333  12.236 -0.0042  2.2910 -2.8913
  929MOL0     H22593   1.037  10.517  12.304  1.9719 -0.6860 -0.5287
  929MOL0     H22594   0.865  10.694  12.317 -0.3859 -0.4843 -0.7652
  929MOL0     H22595   0.821  10.575  12.443  1.7213  1.2751 -0.0897
  929MOL0     H22596   0.598  10.652  12.462 -2.2300  0.1013 -0.7785
  929MOL0     H22597   0.611  10.716  12.289 -0.0222 -1.0824  0.8312
  929MOL0     H22598   0.745  10.816  12.527 -0.3219 -3.0609 -1.3873
  929MOL0     H22599   0.591  10.899  12.462 -1.5487  0.0587 -3.1514
  929MOL0     H22600   0.818  11.030  12.400 -1.1277  0.9679  1.2857
  929MOL0     H22601   0.850  10.899  12.287 -0.6070  1.6257 -0.9849
  929MOL0     H22602   0.606  11.076  12.276  1.8433  2.4033  0.2537
  929MOL0     H22603   0.635  10.933  12.170  0.9980  1.2337 -1.8424
  929MOL0     H22604   0.854  11.045  12.114  1.7903  3.2489  0.2857
  929MOL0     H22605   0.788  11.194  12.195 -1.1707  2.2005 -2.3896
  929MOL0     H22606   0.765  11.162  11.934 -1.1793 -1.6795 -1.0913
  929MOL0     H22607   0.639  11.050  11.980 -3.0984  0.0023  1.0613
  929MOL0     H22608   0.641  11.343  12.053 -2.1947  1.9668 -2.7182
  929MOL0     H22609   0.523  11.233  12.111 -1.9349  0.8726 -0.8785
  929MOL0     H22610   0.706  10.294  12.139  0.7880 -1.8117 -0.3245
  929MOL0     H22611   0.856  10.099  12.120 -2.0002  0.2686  0.9073
  929MOL0     H22612   1.269   9.910  12.238  1.7106  0.7021  2.0909
  929MOL0     H22613   1.441   9.737  12.204 -2.6882 -0.6834  0.0179
  929MOL0     H22614   2.824   9.523  10.942  0.7868  0.8759  1.3641
  929MOL0     H22615   3.050   9.448  10.897  0.3865 -0.3969 -1.0339
  929MOL0     H22616   3.446   9.412  10.485 -3.7356  2.8848 -0.2766
  929MOL0     H22617   3.699   9.397  10.488  0.3282  3.1515 -0.9733
  929MOL0     H22618   3.905   9.406  10.799 -0.8785  0.8418 -0.5652
  929MOL0     H22619   3.913   9.588  10.838  0.9044  0.9871 -0.9031
  929MOL0     H22620   4.091   9.594  10.662  0.9852 -1.4088 -2.2553
  929MOL0     H22621   4.131   9.562  10.823  0.4456  1.4646 -1.5034
  929MOL0     H22622   4.071   9.325  10.632 -1.7600  1.3852  0.7415
  929MOL0     H22623   4.165   9.313  10.766 -0.2910 -0.9949 -0.9521
  929MOL0     H22624   4.292   9.329  10.529  2.5343  0.8366 -1.3907
  929MOL0     H22625   4.247   9.495  10.527  3.9140 -0.2593 -1.2174
  929MOL0     H22626   4.554   9.470  10.831 -0.7671  2.0977  0.1985
  929MOL0     H22627   3.714   9.663  10.816  0.7569 -2.4576  2.1001
  929MOL0     H22628   3.471   9.683  10.811 -0.9382 -0.5731 -1.2123
  930MOL0     O22629   6.237   3.887   5.030 -0.6522 -0.9033 -0.0967
  930MOL0     C22630   6.261   3.776   4.991  1.3424  0.1600 -0.1138
  930MOL0     O22631   6.375   3.738   4.924 -0.1710 -0.2470 -1.0013
  930MOL0     C22632   6.485   3.819   4.917  0.5302 -0.4907 -0.6622
  930MOL0     C22633   6.524   3.936   5.002 -0.2949  0.3030 -0.6584
  930MOL0     C22634   6.640   3.998   4.972 -0.1532 -1.2256  0.0141
  930MOL0     C22635   6.722   3.964   4.859  0.9878  0.4271 -0.2626
  930MOL0     O22636   6.828   4.048   4.840 -0.7105 -0.2582 -0.5921
  930MOL0     C22637   6.926   4.033   4.947 -1.4175 -0.2629 -0.4747
  930MOL0     C22638   7.063   4.095   4.932 -0.4575 -0.9292  0.2955
  930MOL0     C22639   7.067   4.222   4.843  0.4708  0.3704  1.2223
  930MOL0     C22640   7.198   4.291   4.860  0.0313 -0.2004 -0.3261
  930MOL0     C22641   7.248   4.359   4.729  0.1976  0.2414  0.1642
  930MOL0     C22642   7.383   4.426   4.736  0.5885 -0.1323  0.4641
  930MOL0     C22643   7.411   4.525   4.616 -0.6518  0.4587  0.8705
  930MOL0     C22644   7.558   4.553   4.610 -0.1437 -0.1623  1.0490
  930MOL0     N22645   7.589   4.651   4.500 -0.1299  0.7186 -0.0415
  930MOL0     C22646   7.610   4.605   4.365 -0.6357 -0.3347 -0.3630
  930MOL0     C22647   7.573   4.709   4.282  0.3647  0.6758 -0.3099
  930MOL0     C22648   7.581   4.721   4.129 -0.0846  0.5972  0.2009
  930MOL0     C22649   7.680   4.633   4.055 -0.5180  0.7363  0.2838
  930MOL0     C22650   7.631   4.487   4.051 -0.1306  0.3216 -0.6984
  930MOL0     C22651   7.755   4.396   4.013 -0.8760 -0.5695 -0.8084
  930MOL0     O22652   7.831   4.333   4.122 -0.3978  0.2262  0.0201
  930MOL0     C22653   7.948   4.272   4.087 -0.3809  0.1294  0.6961
  930MOL0     C22654   8.035   4.239   4.201 -0.4747 -0.5583  0.1792
  930MOL0     C22655   8.153   4.173   4.185  0.3517  0.4634 -1.4178
  930MOL0     C22656   8.198   4.129   4.059  0.7130  1.1525  0.0435
  930MOL0     C22657   8.329   4.061   4.050 -1.6647  0.4287 -0.6849
  930MOL0     O22658   8.416   4.064   4.159  0.6679  0.4779  0.7996
  930MOL0     C22659   8.550   4.079   4.151 -0.3944 -0.4761 -0.5355
  930MOL0     C22660   8.629   4.022   4.253  0.8191  0.2873 -0.4609
  930MOL0     C22661   8.773   4.028   4.250 -0.8249 -0.5516 -0.1186
  930MOL0     C22662   8.836   4.089   4.146 -0.0146  0.7148  0.0593
  930MOL0     O22663   8.974   4.109   4.141  0.2198 -0.4087 -0.9111
  930MOL0     C22664   9.031   4.200   4.237  0.1274  0.0155 -0.0072
  930MOL0     C22665   9.019   4.342   4.177 -0.2709 -0.7835  0.6085
  930MOL0     C22666   9.099   4.441   4.265 -0.5512  0.3218 -0.3044
  930MOL0     C22667   9.050   4.585   4.234  0.5339  0.3403 -0.4733
  930MOL0     C22668   9.100   4.688   4.333 -1.0792  0.5421  0.3141
  930MOL0     C22669   9.250   4.717   4.313  0.4143  0.8971 -0.9787
  930MOL0     C22670   9.281   4.827   4.422  0.0497 -0.6538 -1.1255
  930MOL0     C22671   9.431   4.866   4.415 -0.1349  1.0678 -0.8413
  930MOL0    Cl22672   9.462   5.004   4.550  0.0977 -0.1013  0.4461
  930MOL0     C22673   8.759   4.151   4.048  0.5672 -0.1811 -0.1073
  930MOL0     C22674   8.617   4.152   4.056  0.4097  0.2835 -0.5518
  930MOL0     O22675   8.356   4.008   3.946  0.3691  0.3254  0.3850
  930MOL0     C22676   8.116   4.160   3.940  0.9666 -0.7272  0.0516
  930MOL0     C22677   7.994   4.232   3.962 -0.7033 -0.5222 -0.1007
  930MOL0     N22678   7.531   4.813   4.367  0.2628  0.1650  0.0882
  930MOL0     N22679   7.536   4.774   4.489  0.5253  0.6499  0.5458
  930MOL0     C22680   6.694   3.848   4.774 -0.6113 -0.0048  0.0715
  930MOL0     C22681   6.573   3.774   4.815 -0.8911  0.4589 -0.2048
  930MOL0     C22682   6.159   3.690   5.051 -0.9443  0.7252  0.2730
  930MOL0     C22683   6.054   3.715   5.142  0.5287 -0.1032  0.2319
  930MOL0     C22684   5.965   3.620   5.186 -0.0477 -0.2553  0.2543
  930MOL0     C22685   5.967   3.496   5.120  0.2359  0.1928  0.2638
  930MOL0     O22686   5.888   3.393   5.173 -0.7127 -0.1330  0.7175
  930MOL0     C22687   5.797   3.335   5.076  0.0194 -0.9635 -0.2022
  930MOL0     C22688   5.664   3.386   5.105  0.7211 -0.5265  0.8105
  930MOL0     C22689   5.654   3.535   5.081  0.4512  0.0841  0.0474
  930MOL0     C22690   5.513   3.593   5.130  0.1720 -0.0462 -0.2437
  930MOL0     C22691   5.493   3.733   5.102  0.6081 -0.2371 -0.8218
  930MOL0     C22692   5.466   3.846   5.073 -0.9152 -0.1770  0.0782
  930MOL0     C22693   6.071   3.458   5.040 -0.4594 -0.0176  0.2802
  930MOL0     C22694   6.170   3.551   5.012  0.5485  0.5234 -0.0172
  930MOL0     H22695   6.459   3.977   5.079 -0.3512 -2.2853  0.7790
  930MOL0     H22696   6.650   4.092   5.026 -0.1492 -1.6867  0.8370
  930MOL0     H22697   6.931   3.928   4.979 -0.5363  0.0696  0.5227
  930MOL0     H22698   6.887   4.091   5.031 -0.2994  0.3296 -0.3394
  930MOL0     H22699   7.122   4.016   4.885 -0.3374 -0.1913 -0.8379
  930MOL0     H22700   7.110   4.104   5.030 -0.3857 -2.7946  0.4707
  930MOL0     H22701   6.976   4.279   4.866 -2.5162 -2.7686 -1.6405
  930MOL0     H22702   7.059   4.184   4.741 -1.8791 -2.6633  2.3963
  930MOL0     H22703   7.207   4.354   4.949 -3.1290  1.9932 -1.3638
  930MOL0     H22704   7.271   4.212   4.877  1.0489 -0.1015 -3.6160
  930MOL0     H22705   7.170   4.430   4.696 -1.7810 -2.2997 -0.9777
  930MOL0     H22706   7.242   4.281   4.653 -2.0182 -0.4009  0.8956
  930MOL0     H22707   7.451   4.341   4.731  0.4865 -0.1935  0.0656
  930MOL0     H22708   7.397   4.477   4.831 -0.5268  1.6206 -0.2535
  930MOL0     H22709   7.368   4.485   4.523  1.5943 -0.5128  0.1692
  930MOL0     H22710   7.348   4.613   4.632 -3.3102 -1.3053  0.8258
  930MOL0     H22711   7.614   4.463   4.585 -4.2080 -2.3119 -1.3106
  930MOL0     H22712   7.602   4.596   4.701  0.9607 -0.0974  0.5036
  930MOL0     H22713   7.632   4.501   4.347 -2.2078 -0.5756 -1.0533
  930MOL0     H22714   7.615   4.821   4.103  0.8669  0.1493 -0.3722
  930MOL0     H22715   7.490   4.693   4.076  3.0252 -2.2366 -4.5122
  930MOL0     H22716   7.774   4.631   4.111 -0.6974 -0.2180  0.5725
  930MOL0     H22717   7.687   4.673   3.954 -2.9844 -0.2118 -0.3253
  930MOL0     H22718   7.582   4.461   4.145 -0.9888  3.7006 -0.0786
  930MOL0     H22719   7.557   4.477   3.971  0.4828  0.2918 -1.2717
  930MOL0     H22720   7.834   4.457   3.968  0.3886  1.2323  3.3651
  930MOL0     H22721   7.721   4.322   3.939 -1.2337 -0.1695 -1.0524
  930MOL0     H22722   8.010   4.276   4.300  1.9919  0.7611  0.3961
  930MOL0     H22723   8.221   4.156   4.268  3.1452 -2.1775 -3.9542
  930MOL0     H22724   8.574   3.994   4.342 -1.3517  2.1690 -1.1083
  930MOL0     H22725   8.827   3.987   4.334  0.2140 -0.0281 -0.5104
  930MOL0     H22726   9.136   4.173   4.252  0.2012 -0.1834 -0.8384
  930MOL0     H22727   8.968   4.205   4.327 -1.2168 -0.5224 -0.8807
  930MOL0     H22728   8.922   4.377   4.143  1.7805  1.4140 -3.8198
  930MOL0     H22729   9.080   4.340   4.086  2.8359  0.7918  2.4879
  930MOL0     H22730   9.204   4.429   4.237 -0.5521  0.1887 -0.2529
  930MOL0     H22731   9.096   4.422   4.373 -0.7232  3.2243  0.2803
  930MOL0     H22732   9.077   4.612   4.132  0.7365  1.4739 -0.1270
  930MOL0     H22733   8.941   4.590   4.238  0.3692 -2.2663  0.5284
  930MOL0     H22734   9.081   4.651   4.434  4.0992  0.8546  1.6929
  930MOL0     H22735   9.051   4.786   4.332  1.3542  1.8383  0.5962
  930MOL0     H22736   9.265   4.750   4.209  1.3495  1.7215 -0.5998
  930MOL0     H22737   9.303   4.624   4.331 -3.5238 -1.2996  0.4778
  930MOL0     H22738   9.214   4.911   4.407 -2.9560 -2.1914  2.2829
  930MOL0     H22739   9.259   4.785   4.520 -0.9289 -2.8863 -2.2165
  930MOL0     H22740   9.449   4.905   4.314  0.5035  0.2625 -1.0408
  930MOL0     H22741   9.496   4.784   4.443  0.5714  1.1744 -2.0773
  930MOL0     H22742   8.806   4.197   3.961 -0.4932 -1.5741 -1.4790
  930MOL0     H22743   8.562   4.195   3.973  0.4129 -1.3268 -1.4469
  930MOL0     H22744   8.150   4.131   3.841  0.3001  0.3669 -0.5218
  930MOL0     H22745   7.934   4.266   3.878 -0.9694 -3.9831 -1.4565
  930MOL0     H22746   6.759   3.831   4.689 -0.1204  0.3625  0.3643
  930MOL0     H22747   6.548   3.692   4.749  1.6827  0.1202 -0.8813
  930MOL0     H22748   6.044   3.816   5.181 -0.7958 -0.7152  1.5629
  930MOL0     H22749   5.894   3.644   5.265  0.5884 -0.0883  0.7866
  930MOL0     H22750   5.790   3.226   5.081  1.2792 -1.3122 -3.3419
  930MOL0     H22751   5.828   3.361   4.974 -1.3953 -0.5974 -0.5652
  930MOL0     H22752   5.590   3.352   5.032 -1.5521  1.2143  2.1590
  930MOL0     H22753   5.636   3.357   5.206  0.5808 -0.1458  0.8852
  930MOL0     H22754   5.655   3.565   4.976 -1.4362  3.7419  0.9172
  930MOL0     H22755   5.729   3.588   5.140  1.3173 -0.8351 -0.1866
  930MOL0     H22756   5.438   3.530   5.081 -0.2886 -1.4141  2.0955
  930MOL0     H22757   5.498   3.577   5.237 -0.8561  2.5764  0.0926
  930MOL0     H22758   5.429   3.942   5.042  0.4594 -0.0534 -1.2904
  930MOL0     H22759   6.084   3.357   5.004  0.0512 -0.1478  0.8191
  930MOL0     H22760   6.262   3.527   4.959  0.6315  1.4938 -0.3378
  931MOL0     O22761   5.778  10.940   8.307 -0.6634 -0.2026  0.0911
  931MOL0     C22762   5.737  10.839   8.254 -0.6813  0.9233 -0.1752
  931MOL0     O22763   5.620  10.776   8.286  0.5284  0.6370  0.1389
  931MOL0     C22764   5.529  10.816   8.379 -0.3443  0.9859  0.6141
  931MOL0     C22765   5.469  10.941   8.387  0.0839 -0.5350  1.3469
  931MOL0     C22766   5.409  10.978   8.504  1.1485 -0.8726  0.0875
  931MOL0     C22767   5.406  10.884   8.609 -0.3781 -0.5947 -0.0045
  931MOL0     O22768   5.353  10.921   8.729  0.2162 -0.0408 -0.5810
  931MOL0     C22769   5.252  10.840   8.774 -0.5354  0.3287 -0.0610
  931MOL0     C22770   5.133  10.825   8.664 -0.3812  0.6679 -0.5223
  931MOL0     C22771   5.017  10.760   8.732  0.3517 -0.5464 -1.1546
  931MOL0     C22772   4.911  10.707   8.637 -0.9310  0.0562  0.1846
  931MOL0     C22773   4.811  10.611   8.704 -0.4381  0.3046 -0.1429
  931MOL0     C22774   4.698  10.685   8.767 -0.2168  0.2574 -0.0371
  931MOL0     C22775   4.615  10.587   8.852 -0.4523 -1.2799 -0.5791
  931MOL0     C22776   4.558  10.647   8.981  0.2325  1.4999  0.5725
  931MOL0     N22777   4.521  10.790   8.988 -0.5950 -0.5206 -0.2767
  931MOL0     C22778   4.541  10.859   9.100 -0.0926  0.9751  0.2484
  931MOL0     C22779   4.479  10.974   9.077 -0.0113 -0.1748  0.1776
  931MOL0     C22780   4.473  11.079   9.184 -1.0428 -0.7649  0.4858
  931MOL0     C22781   4.502  11.219   9.122  0.2784 -0.8280  0.7915
  931MOL0     C22782   4.377  11.303   9.120 -0.1514 -0.4510  0.2807
  931MOL0     C22783   4.253  11.250   9.056  0.2238  0.5104 -0.0054
  931MOL0     O22784   4.143  11.325   9.102  0.4931  0.7085 -0.0712
  931MOL0     C22785   4.015  11.285   9.088  0.5176  0.5259  0.8127
  931MOL0     C22786   3.964  11.181   9.003  0.1170  0.1232  0.4457
  931MOL0     C22787   3.831  11.142   8.999  0.0117  0.5103 -0.3739
  931MOL0     C22788   3.744  11.212   9.083  0.6124  0.5132 -0.6580
  931MOL0     C22789   3.600  11.170   9.086 -0.5425  0.6376 -0.0714
  931MOL0     O22790   3.517  11.257   9.153 -1.0970 -0.0024 -0.5217
  931MOL0     C22791   3.381  11.245   9.163 -0.4427 -0.1746  0.6563
  931MOL0     C22792   3.296  11.175   9.065 -0.6859 -0.3607  0.7159
  931MOL0     C22793   3.161  11.186   9.082 -0.2213  1.3105  0.4889
  931MOL0     C22794   3.099  11.241   9.185 -0.1992  0.5459  0.6441
  931MOL0     O22795   2.963  11.252   9.181  0.8687 -0.0661  0.1543
  931MOL0     C22796   2.917  11.377   9.140  0.9348 -0.0617  0.0158
  931MOL0     C22797   2.879  11.371   8.993 -0.3343  0.9352 -1.3628
  931MOL0     C22798   2.844  11.503   8.927  0.1376 -0.1607 -0.3144
  931MOL0     C22799   2.766  11.486   8.798  0.8468  0.3941 -0.9277
  931MOL0     C22800   2.617  11.446   8.804 -0.4999 -0.2587 -0.4527
  931MOL0     C22801   2.535  11.562   8.858  0.5279 -0.0481  0.2440
  931MOL0     C22802   2.393  11.527   8.851  1.1548  0.6762 -0.3599
  931MOL0     C22803   2.296  11.647   8.883 -0.5767 -0.0290 -0.3497
  931MOL0    Cl22804   2.330  11.692   9.064  0.5688  0.2330  0.1300
  931MOL0     C22805   3.183  11.293   9.289 -0.2802 -0.6085  0.1085
  931MOL0     C22806   3.323  11.287   9.281 -0.4703 -0.1097  0.0490
  931MOL0     O22807   3.569  11.060   9.043 -0.5210  0.6366 -0.4254
  931MOL0     C22808   3.781  11.323   9.169 -0.5627 -0.2168  0.9147
  931MOL0     C22809   3.920  11.357   9.163 -0.1862 -0.3511  0.4412
  931MOL0     N22810   4.417  10.972   8.953 -0.0667 -0.7105 -0.0726
  931MOL0     N22811   4.434  10.850   8.902  0.4694 -0.2330 -0.1461
  931MOL0     C22812   5.453  10.758   8.588  0.4020  0.0436 -0.8131
  931MOL0     C22813   5.514  10.714   8.477  0.1771 -0.7952 -0.2885
  931MOL0     C22814   5.817  10.791   8.133  0.5508 -0.6904  0.2842
  931MOL0     C22815   5.748  10.718   8.036 -0.9689  0.0175  0.1832
  931MOL0     C22816   5.824  10.659   7.928  0.1101 -0.7833 -0.8220
  931MOL0     C22817   5.961  10.691   7.910 -0.2792 -0.4589  0.1289
  931MOL0     O22818   6.022  10.664   7.793  0.2944  0.1858  0.0642
  931MOL0     C22819   6.100  10.552   7.785 -0.8634  0.3092  0.2212
  931MOL0     C22820   6.195  10.567   7.659 -0.9273 -0.8543  0.0436
  931MOL0     C22821   6.330  10.658   7.682  0.3068 -0.0714 -0.1646
  931MOL0     C22822   6.398  10.616   7.818  0.0698 -0.6267  0.5620
  931MOL0     C22823   6.530  10.661   7.826 -0.2144 -1.7322  0.1660
  931MOL0     C22824   6.650  10.693   7.829  0.8084  0.1101  0.2974
  931MOL0     C22825   6.024  10.770   8.005  0.5493 -0.1585 -0.2787
  931MOL0     C22826   5.949  10.813   8.122 -0.5937 -0.5651 -0.2280
  931MOL0     H22827   5.459  10.999   8.296 -2.1385 -2.2404  0.4325
  931MOL0     H22828   5.379  11.081   8.519  4.4184 -0.0613  1.8792
  931MOL0     H22829   5.215  10.906   8.853 -0.3041  0.6734 -0.2409
  931MOL0     H22830   5.282  10.742   8.813  1.1347  0.1385 -1.6649
  931MOL0     H22831   5.160  10.786   8.565 -1.1029  1.7201 -1.1617
  931MOL0     H22832   5.105  10.926   8.632 -0.8000 -0.2366 -3.3883
  931MOL0     H22833   4.966  10.834   8.793  0.9166 -1.9267  1.1360
  931MOL0     H22834   5.052  10.680   8.798  1.1433 -0.4947 -1.5031
  931MOL0     H22835   4.862  10.790   8.585 -3.1298  1.7105  4.4194
  931MOL0     H22836   4.962  10.651   8.558  1.6745  2.7315 -0.2148
  931MOL0     H22837   4.867  10.537   8.761  2.1323  0.5569 -2.1541
  931MOL0     H22838   4.756  10.545   8.636  1.8902 -1.2953 -0.5857
  931MOL0     H22839   4.637  10.739   8.694  0.2545  1.5075  0.4636
  931MOL0     H22840   4.737  10.751   8.845  0.4995 -3.8657  3.5164
  931MOL0     H22841   4.542  10.538   8.787 -1.8072 -0.8271  0.5503
  931MOL0     H22842   4.687  10.517   8.896  0.9628  0.5954  0.2715
  931MOL0     H22843   4.626  10.627   9.065  1.3941  1.1096 -0.4439
  931MOL0     H22844   4.456  10.613   9.001 -0.3476  3.5261  1.3282
  931MOL0     H22845   4.592  10.833   9.192  2.1001 -3.2059 -1.8442
  931MOL0     H22846   4.560  11.067   9.250  1.7564  0.2932 -2.7130
  931MOL0     H22847   4.375  11.070   9.232 -1.6328  0.9764 -0.3293
  931MOL0     H22848   4.547  11.208   9.023 -4.0207 -0.6396 -1.4068
  931MOL0     H22849   4.577  11.277   9.177 -0.5409  2.5234 -1.3698
  931MOL0     H22850   4.361  11.347   9.219  2.4014  0.6514  0.2959
  931MOL0     H22851   4.404  11.395   9.069 -1.2408 -0.0641  0.3876
  931MOL0     H22852   4.240  11.143   9.076  1.4953 -0.3104 -2.9528
  931MOL0     H22853   4.267  11.250   8.947 -2.8968 -1.0973 -0.5182
  931MOL0     H22854   4.027  11.116   8.944 -1.3984 -1.4905  0.5226
  931MOL0     H22855   3.792  11.068   8.930 -3.2948  1.1493  0.6036
  931MOL0     H22856   3.339  11.134   8.975 -1.6894  0.7819 -0.3185
  931MOL0     H22857   3.098  11.141   9.006  1.2326  1.4752 -0.8711
  931MOL0     H22858   2.984  11.461   9.161 -0.6512  1.6022 -1.2567
  931MOL0     H22859   2.826  11.405   9.195  0.2412 -1.8237 -0.1880
  931MOL0     H22860   2.787  11.312   8.993  0.0042  0.3429  0.8047
  931MOL0     H22861   2.957  11.322   8.933 -0.0640  1.2680 -1.2845
  931MOL0     H22862   2.941  11.548   8.905  0.8199 -1.3821  0.0705
  931MOL0     H22863   2.804  11.577   8.997 -0.5550 -1.3253  0.5704
  931MOL0     H22864   2.783  11.580   8.744  1.3798 -0.1368 -1.7105
  931MOL0     H22865   2.809  11.400   8.745 -1.0774 -0.8510 -0.5656
  931MOL0     H22866   2.588  11.363   8.870  0.3141  0.3266  0.6797
  931MOL0     H22867   2.588  11.430   8.700 -2.8852  0.0578  0.0962
  931MOL0     H22868   2.548  11.645   8.789  1.7228 -1.3148 -1.1231
  931MOL0     H22869   2.577  11.588   8.956 -1.6265  2.6101  0.5631
  931MOL0     H22870   2.357  11.483   8.758  0.2854 -1.4375  0.9098
  931MOL0     H22871   2.380  11.447   8.925 -0.5920  0.8237 -0.4857
  931MOL0     H22872   2.193  11.611   8.874 -0.0698 -3.3955  3.8385
  931MOL0     H22873   2.326  11.737   8.829  2.4529 -0.1217  0.9618
  931MOL0     H22874   3.139  11.326   9.383 -0.0104 -1.7544  0.6606
  931MOL0     H22875   3.391  11.330   9.354  1.6643 -0.8846 -1.3960
  931MOL0     H22876   3.711  11.380   9.228 -2.4207 -1.2824 -0.1808
  931MOL0     H22877   3.942  11.438   9.232 -0.1741  0.8024 -0.8789
  931MOL0     H22878   5.442  10.679   8.661  0.0319 -0.6586 -1.6093
  931MOL0     H22879   5.553  10.613   8.472  1.3497 -0.8266  4.7497
  931MOL0     H22880   5.644  10.687   8.035 -1.4945  0.7290 -5.6214
  931MOL0     H22881   5.771  10.611   7.847  1.0522 -1.0935 -1.2608
  931MOL0     H22882   6.034  10.465   7.778 -1.8366  0.8648  2.1081
  931MOL0     H22883   6.160  10.545   7.876  0.0003  0.7501 -0.3001
  931MOL0     H22884   6.222  10.466   7.629  0.2124 -1.0505  1.6252
  931MOL0     H22885   6.129  10.608   7.582  0.5720  0.8196 -0.4329
  931MOL0     H22886   6.300  10.763   7.682 -2.5102 -0.7680  1.2090
  931MOL0     H22887   6.392  10.632   7.596  1.3305 -0.1977  0.5923
  931MOL0     H22888   6.339  10.657   7.901  2.0510  2.5499  0.5563
  931MOL0     H22889   6.409  10.507   7.827  1.0589 -0.5561  0.3194
  931MOL0     H22890   6.755  10.711   7.817  0.6499 -0.5816 -3.3127
  931MOL0     H22891   6.122  10.818   8.001 -0.7926  2.9717  1.2273
  931MOL0     H22892   6.009  10.869   8.194  0.1372  0.3073 -1.4620
  932MOL0     O22893   5.414  10.514   1.157 -0.7087  0.0587 -0.3323
  932MOL0     C22894   5.482  10.612   1.116  0.2046  0.5531  0.1966
  932MOL0     O22895   5.438  10.745   1.103  0.0267  0.7721  0.8357
  932MOL0     C22896   5.307  10.777   1.096 -0.5179 -0.8510 -1.8917
  932MOL0     C22897   5.199  10.709   1.033  0.0470 -0.1746  0.1194
  932MOL0     C22898   5.073  10.761   1.029 -0.0350 -0.7132  0.2069
  932MOL0     C22899   5.045  10.889   1.075  0.5283 -0.6484 -0.3252
  932MOL0     O22900   4.921  10.941   1.051  0.5166  0.3736 -0.2240
  932MOL0     C22901   4.900  11.074   1.014  0.6782 -0.2595  0.4903
  932MOL0     C22902   4.781  11.072   0.903 -0.2949 -0.7999 -0.6517
  932MOL0     C22903   4.812  11.012   0.764 -0.1771 -0.5081  0.2133
  932MOL0     C22904   4.688  11.020   0.675  0.1538 -0.5666  1.2500
  932MOL0     C22905   4.699  10.940   0.538  0.3800  0.5347  0.9383
  932MOL0     C22906   4.738  10.797   0.542  1.0654  0.8550 -0.0942
  932MOL0     C22907   4.736  10.729   0.412  0.2763  0.3824 -0.2908
  932MOL0     C22908   4.748  10.575   0.425  0.5443  0.1069 -0.6602
  932MOL0     N22909   4.880  10.523   0.444 -0.3011  0.4247  0.2663
  932MOL0     C22910   4.968  10.474   0.343  0.3883 -0.1326 -0.7813
  932MOL0     C22911   5.075  10.423   0.410  0.1167  0.0291 -0.6209
  932MOL0     C22912   5.193  10.355   0.340 -0.5799  0.1549  1.0240
  932MOL0     C22913   5.142  10.220   0.284  0.2149  0.3723  0.2182
  932MOL0     C22914   5.258  10.117   0.250 -0.4673 -0.0047  1.8061
  932MOL0     C22915   5.275  10.017   0.361 -0.1603 -0.5951  0.4441
  932MOL0     O22916   5.376   9.924   0.335  0.2609 -0.2626 -0.1897
  932MOL0     C22917   5.507   9.960   0.364 -0.6120 -0.4567 -0.0839
  932MOL0     C22918   5.552  10.092   0.358 -0.6837 -0.2437  0.0312
  932MOL0     C22919   5.697  10.113   0.379 -0.7209 -0.1254  0.3202
  932MOL0     C22920   5.785  10.001   0.405  0.2957 -0.7892 -0.0299
  932MOL0     C22921   5.933  10.023   0.413  0.3463  0.5646 -0.6918
  932MOL0     O22922   6.011   9.909   0.421 -0.0606 -0.3113  0.1826
  932MOL0     C22923   6.150   9.928   0.407 -0.2973 -0.8177 -0.3766
  932MOL0     C22924   6.238  10.016   0.478  0.6637 -0.0626  0.0558
  932MOL0     C22925   6.372  10.028   0.444 -0.0071 -0.1634  0.8686
  932MOL0     C22926   6.420   9.946   0.343 -1.1571  0.5822 -0.1242
  932MOL0     O22927   6.563   9.967   0.329  0.0964  1.0903  1.1950
  932MOL0     C22928   6.620   9.936   0.201 -0.0673  0.9380 -0.2970
  932MOL0     C22929   6.729  10.033   0.155 -1.1909 -0.1902  0.1294
  932MOL0     C22930   6.794   9.990   0.024 -1.0528  0.2282  0.3249
  932MOL0     C22931   6.872   9.858   0.032 -0.5317  0.6279  0.3828
  932MOL0     C22932   7.005   9.867   0.106 -0.3178 -0.2433  0.3696
  932MOL0     C22933   7.062   9.730   0.099  0.3203  0.2343  0.9754
  932MOL0     C22934   7.133   9.692  -0.039  0.0911 -0.0737  0.3996
  932MOL0     C22935   7.243   9.587  -0.021 -0.0823 -0.2822  0.9786
  932MOL0    Cl22936   7.303   9.536  -0.180  0.1331 -0.2442  0.2447
  932MOL0     C22937   6.343   9.865   0.262 -0.3355 -0.2049 -0.2629
  932MOL0     C22938   6.205   9.853   0.296 -1.2020  0.6618 -1.0028
  932MOL0     O22939   5.980  10.133   0.403 -0.3161  0.2063 -0.4721
  932MOL0     C22940   5.733   9.877   0.418  0.0038 -0.2383 -0.4051
  932MOL0     C22941   5.597   9.858   0.397 -0.4399  0.2712  1.1471
  932MOL0     N22942   5.061  10.451   0.540 -0.2195  0.0256 -0.4491
  932MOL0     N22943   4.942  10.496   0.555  1.0842 -0.0722  0.1685
  932MOL0     C22944   5.152  10.961   1.131  0.1282  0.9729  0.2592
  932MOL0     C22945   5.276  10.904   1.151  0.0925 -0.5682  0.3505
  932MOL0     C22946   5.627  10.589   1.100 -1.0842 -0.5947  0.4177
  932MOL0     C22947   5.677  10.461   1.074 -0.0164  0.6471  0.0064
  932MOL0     C22948   5.809  10.433   1.075 -0.0106  0.1159  0.0017
  932MOL0     C22949   5.900  10.536   1.080 -0.3979 -0.2680  0.1693
  932MOL0     O22950   6.037  10.532   1.066 -0.7354  0.4140 -0.4678
  932MOL0     C22951   6.084  10.396   1.059  0.3197 -1.1747  0.3395
  932MOL0     C22952   6.232  10.384   1.070  0.5044 -1.0574 -0.2869
  932MOL0     C22953   6.282  10.488   1.165 -0.5206  0.1097 -0.1051
  932MOL0     C22954   6.430  10.456   1.189  0.2858  0.6244 -1.3354
  932MOL0     C22955   6.520  10.486   1.090 -0.0595 -0.3700  0.1710
  932MOL0     C22956   6.601  10.507   1.001  0.5736 -0.6405  0.4580
  932MOL0     C22957   5.850  10.668   1.101 -0.4164  0.5710 -0.1323
  932MOL0     C22958   5.720  10.697   1.109 -0.8215  1.0287 -0.3708
  932MOL0     H22959   5.223  10.616   0.981  2.9495  0.3723  0.3154
  932MOL0     H22960   4.988  10.707   0.987  2.6702 -2.7607 -3.2090
  932MOL0     H22961   4.984  11.121   0.961 -1.1477  1.3446 -1.1330
  932MOL0     H22962   4.869  11.127   1.104 -0.4476 -0.4263  0.2082
  932MOL0     H22963   4.758  11.178   0.896  1.1624 -0.4946 -1.1585
  932MOL0     H22964   4.697  11.025   0.956  1.4688  0.0896  3.3294
  932MOL0     H22965   4.832  10.905   0.777  1.4918 -0.3322 -0.7433
  932MOL0     H22966   4.890  11.064   0.709 -1.5540  0.1571 -1.1842
  932MOL0     H22967   4.602  10.990   0.735 -0.4196  1.8997  1.7711
  932MOL0     H22968   4.680  11.126   0.649  1.2003 -0.8124 -0.1704
  932MOL0     H22969   4.768  11.000   0.478  0.0377  1.0554  1.0556
  932MOL0     H22970   4.604  10.943   0.484  1.5100 -2.4175 -1.4990
  932MOL0     H22971   4.667  10.751   0.611 -0.1042  3.1677  0.3668
  932MOL0     H22972   4.839  10.788   0.583  0.2063 -0.7127  1.8310
  932MOL0     H22973   4.643  10.754   0.360 -0.0096  1.2168  0.6124
  932MOL0     H22974   4.821  10.766   0.353  1.1992  0.8255  1.2659
  932MOL0     H22975   4.700  10.531   0.337  0.1983 -0.8747  0.0086
  932MOL0     H22976   4.681  10.550   0.508  0.1242 -1.1721 -1.3664
  932MOL0     H22977   4.961  10.464   0.235 -0.9263 -0.3961 -0.6932
  932MOL0     H22978   5.264  10.327   0.418  1.3159 -1.2347 -1.0770
  932MOL0     H22979   5.227  10.418   0.257  0.5787 -1.5933  0.1251
  932MOL0     H22980   5.099  10.259   0.191  1.1738 -3.1991 -1.9051
  932MOL0     H22981   5.062  10.179   0.346 -0.7159  1.4750 -0.2148
  932MOL0     H22982   5.235  10.053   0.165  2.1767 -3.1235  3.2159
  932MOL0     H22983   5.354  10.164   0.224  0.0599 -2.4405 -1.1759
  932MOL0     H22984   5.176   9.975   0.382 -0.9589  0.3254 -1.2755
  932MOL0     H22985   5.306  10.075   0.449 -0.0159  2.2494 -1.3465
  932MOL0     H22986   5.502  10.188   0.345 -0.4736 -0.2250 -0.6383
  932MOL0     H22987   5.743  10.208   0.355  0.3323 -0.5472  0.6247
  932MOL0     H22988   6.213  10.076   0.564 -0.4266  0.3658 -0.5407
  932MOL0     H22989   6.443  10.098   0.487 -1.5681 -0.2423  3.8866
  932MOL0     H22990   6.547   9.936   0.119 -0.6411 -1.3843  0.1271
  932MOL0     H22991   6.645   9.830   0.186 -0.1403  1.3126 -4.2685
  932MOL0     H22992   6.807  10.047   0.230 -0.5161 -0.8387 -0.4306
  932MOL0     H22993   6.671  10.125   0.148 -0.1925  0.4501  0.0731
  932MOL0     H22994   6.861  10.070  -0.007  0.0234 -0.2821  1.2791
  932MOL0     H22995   6.715   9.987  -0.052 -0.7751 -1.9248  0.0747
  932MOL0     H22996   6.804   9.781   0.071  0.7107 -2.4028 -2.8694
  932MOL0     H22997   6.892   9.813  -0.066  0.2604 -1.4025  1.4015
  932MOL0     H22998   6.979   9.888   0.211  0.1365  0.1283  0.4124
  932MOL0     H22999   7.073   9.944   0.070  3.7801 -3.3531  0.7422
  932MOL0     H23000   6.988   9.650   0.110 -1.4208  1.4011 -1.4692
  932MOL0     H23001   7.140   9.723   0.176  0.6652 -0.4710  0.5709
  932MOL0     H23002   7.057   9.651  -0.105 -0.5050 -1.9631  2.1411
  932MOL0     H23003   7.187   9.781  -0.071  4.1411 -1.6594  2.1393
  932MOL0     H23004   7.200   9.501   0.032 -0.4032 -0.8421 -0.1552
  932MOL0     H23005   7.328   9.615   0.041  1.4875 -1.1724 -0.6823
  932MOL0     H23006   6.392   9.800   0.190 -2.0088 -2.7991  0.7827
  932MOL0     H23007   6.138   9.781   0.250 -2.4094 -1.1915  3.1609
  932MOL0     H23008   5.796   9.791   0.435  1.2493  0.7732  0.2861
  932MOL0     H23009   5.556   9.757   0.397 -1.1276  0.5156 -0.3163
  932MOL0     H23010   5.131  11.057   1.177 -4.1236 -0.7009  2.4564
  932MOL0     H23011   5.363  10.962   1.179  0.3108 -0.6455 -0.1501
  932MOL0     H23012   5.610  10.376   1.067  0.8458 -0.2206  1.7487
  932MOL0     H23013   5.847  10.332   1.073 -1.1990 -0.3341  0.0343
  932MOL0     H23014   6.061  10.366   0.957  0.9786 -0.4904 -0.0142
  932MOL0     H23015   6.043  10.322   1.128 -2.1944  0.3876  0.6671
  932MOL0     H23016   6.261  10.284   1.105 -1.0237 -1.2055  0.6581
  932MOL0     H23017   6.275  10.404   0.971  1.8339 -0.3758  0.4034
  932MOL0     H23018   6.223  10.492   1.256 -1.3926 -0.2963 -0.6377
  932MOL0     H23019   6.275  10.584   1.113  1.7162  0.8951  0.9304
  932MOL0     H23020   6.471  10.501   1.280 -1.3344 -1.3803  0.5172
  932MOL0     H23021   6.445  10.348   1.201 -0.6479  0.2649 -3.1566
  932MOL0     H23022   6.667  10.521   0.918  0.7351  0.0134  0.6862
  932MOL0     H23023   5.922  10.745   1.130 -0.5706 -0.4572  3.4538
  932MOL0     H23024   5.688  10.800   1.113  1.7443  1.9310  3.9000
  933MOL0     O23025   3.759   8.886   9.083  0.3869  0.2023  0.4842
  933MOL0     C23026   3.820   8.790   9.127 -0.4252 -0.4594 -0.2940
  933MOL0     O23027   3.801   8.667   9.081  0.2117  0.0460 -0.0053
  933MOL0     C23028   3.689   8.637   9.000 -0.5322 -1.2384  0.0275
  933MOL0     C23029   3.709   8.555   8.884  0.1068  0.1573 -1.3117
  933MOL0     C23030   3.595   8.510   8.815 -0.0318 -1.0284 -1.5990
  933MOL0     C23031   3.466   8.545   8.857 -0.0378  0.2943 -0.2394
  933MOL0     O23032   3.363   8.489   8.788 -0.3008 -0.3631 -0.3300
  933MOL0     C23033   3.230   8.478   8.849 -0.3097 -0.1815 -0.6443
  933MOL0     C23034   3.127   8.404   8.763 -0.0406 -0.9666 -0.4455
  933MOL0     C23035   2.983   8.400   8.818 -0.3213  0.1791  1.0440
  933MOL0     C23036   2.944   8.327   8.950  0.0846 -0.4241  0.1114
  933MOL0     C23037   2.959   8.172   8.961 -0.0581  0.0534 -0.4066
  933MOL0     C23038   3.032   8.156   9.096  0.2156 -0.0756 -0.5795
  933MOL0     C23039   3.044   8.007   9.143 -0.3989 -0.5651 -0.0351
  933MOL0     C23040   3.134   7.996   9.270 -0.1501 -0.2897  0.4333
  933MOL0     N23041   3.127   7.860   9.330 -0.1690 -0.0396  0.2339
  933MOL0     C23042   3.012   7.802   9.383  0.1114 -0.6919 -0.2794
  933MOL0     C23043   3.063   7.714   9.475 -0.2411  0.3508  0.3976
  933MOL0     C23044   2.974   7.647   9.566 -0.4576 -0.7388  0.7153
  933MOL0     C23045   3.024   7.659   9.709  0.5300 -0.4737 -0.5542
  933MOL0     C23046   3.058   7.803   9.740 -0.2253  0.6812 -0.4174
  933MOL0     C23047   3.081   7.836   9.888 -0.5603 -0.4718  0.2298
  933MOL0     O23048   3.121   7.974   9.898 -0.7535 -0.4606  0.8121
  933MOL0     C23049   3.188   8.008  10.013 -0.0086  0.6159 -0.4795
  933MOL0     C23050   3.188   7.933  10.137  0.0328 -0.1905  0.2051
  933MOL0     C23051   3.260   7.985  10.248 -0.6504  0.7137 -0.2400
  933MOL0     C23052   3.336   8.107  10.239  0.0035 -0.1230  0.1456
  933MOL0     C23053   3.436   8.140  10.339 -0.5862 -0.6923 -0.5123
  933MOL0     O23054   3.535   8.239  10.304 -0.1765 -0.0949  0.6044
  933MOL0     C23055   3.604   8.307  10.400 -0.4208 -0.7826  0.6506
  933MOL0     C23056   3.702   8.398  10.334  0.4030  0.2262  0.7130
  933MOL0     C23057   3.783   8.477  10.411 -0.4850 -0.2056 -0.3072
  933MOL0     C23058   3.792   8.452  10.551 -0.0091 -0.8322 -0.3066
  933MOL0     O23059   3.884   8.499  10.639  0.3166 -0.6676 -0.7204
  933MOL0     C23060   3.999   8.572  10.584 -0.1606  0.2662 -0.0962
  933MOL0     C23061   3.984   8.711  10.635 -0.5308  0.3250  0.4735
  933MOL0     C23062   3.876   8.792  10.571 -0.1522  0.3288  0.8397
  933MOL0     C23063   3.875   8.923  10.640 -0.0374 -0.6348  0.5448
  933MOL0     C23064   3.778   9.010  10.561  0.8606 -0.0934 -0.0294
  933MOL0     C23065   3.627   8.991  10.586 -0.2476  1.0328  0.3962
  933MOL0     C23066   3.561   9.045  10.453  0.0081  0.4429 -0.5084
  933MOL0     C23067   3.509   8.941  10.355  0.6887 -0.3603 -0.3022
  933MOL0    Cl23068   3.618   8.816  10.315  0.1738 -0.5699 -0.2870
  933MOL0     C23069   3.704   8.361  10.609 -0.9119  0.4752 -0.4557
  933MOL0     C23070   3.622   8.287  10.533  0.2272  0.4344 -0.1207
  933MOL0     O23071   3.418   8.109  10.455  0.6321  0.4595 -1.0183
  933MOL0     C23072   3.322   8.180  10.130 -0.0652 -0.3388 -0.3422
  933MOL0     C23073   3.258   8.126  10.011 -0.8446 -0.8045 -0.4683
  933MOL0     N23074   3.194   7.686   9.449 -0.5858  0.3934 -0.4402
  933MOL0     N23075   3.234   7.781   9.376 -0.2899  0.0772  0.3223
  933MOL0     C23076   3.455   8.622   8.973 -0.2087 -0.0266 -0.1457
  933MOL0     C23077   3.557   8.671   9.037 -0.3615  0.5114 -0.7139
  933MOL0     C23078   3.946   8.816   9.205 -0.5139 -0.5534  0.3987
  933MOL0     C23079   3.974   8.938   9.277  0.2119 -0.5633 -0.1642
  933MOL0     C23080   4.092   8.975   9.338 -0.5511 -0.0673  0.0963
  933MOL0     C23081   4.206   8.879   9.329 -0.3681  0.2414  0.8807
  933MOL0     O23082   4.335   8.908   9.359 -0.3830 -0.2771 -0.4036
  933MOL0     C23083   4.362   9.035   9.408 -0.7767 -0.1563  0.0236
  933MOL0     C23084   4.515   9.068   9.412  0.6237  0.4119 -0.5321
  933MOL0     C23085   4.575   9.037   9.551 -0.0058  0.7315 -1.2452
  933MOL0     C23086   4.705   8.953   9.559 -0.5146 -0.0523  0.0533
  933MOL0     C23087   4.686   8.813   9.558 -0.1424 -0.2750 -0.0508
  933MOL0     C23088   4.683   8.691   9.555  0.7100  0.4996  0.9346
  933MOL0     C23089   4.179   8.753   9.274 -0.2312  0.2817 -0.1894
  933MOL0     C23090   4.052   8.730   9.217  0.3239  0.5778 -0.3615
  933MOL0     H23091   3.808   8.521   8.855 -0.5436  0.0094 -3.5515
  933MOL0     H23092   3.605   8.421   8.754 -0.5012 -3.0311  1.0422
  933MOL0     H23093   3.201   8.581   8.873 -1.3428 -1.3759  4.4201
  933MOL0     H23094   3.242   8.434   8.948 -0.7975  2.1263  0.5076
  933MOL0     H23095   3.168   8.306   8.740  0.8970 -1.0201  1.2512
  933MOL0     H23096   3.127   8.457   8.668  2.9115  0.5080  0.2549
  933MOL0     H23097   2.916   8.369   8.737 -0.7845  0.2845  1.3819
  933MOL0     H23098   2.964   8.504   8.847 -1.1218  0.3561 -0.0319
  933MOL0     H23099   2.984   8.384   9.034  0.6697  0.3295 -0.6626
  933MOL0     H23100   2.836   8.346   8.952  0.2165  0.2806  1.1741
  933MOL0     H23101   3.021   8.133   8.879 -3.2896 -2.2382 -1.9630
  933MOL0     H23102   2.863   8.122   8.947 -0.5483  0.3975  1.4418
  933MOL0     H23103   2.965   8.213   9.161  0.0948  1.4120 -1.9621
  933MOL0     H23104   3.132   8.201   9.100  1.0868 -1.7699  4.3075
  933MOL0     H23105   2.945   7.965   9.163 -1.0889  1.9088  2.4696
  933MOL0     H23106   3.097   7.942   9.074  0.2621 -0.9731  0.8352
  933MOL0     H23107   3.110   8.077   9.340  0.7222 -1.5513  2.2923
  933MOL0     H23108   3.237   8.003   9.236 -0.8815  2.3310 -1.5122
  933MOL0     H23109   2.912   7.838   9.362 -0.2257  0.1792  2.4450
  933MOL0     H23110   2.984   7.544   9.532  1.2659 -0.4723  0.3099
  933MOL0     H23111   2.869   7.667   9.545 -0.7401 -1.6401  1.2181
  933MOL0     H23112   3.119   7.605   9.715  1.4204  0.9231 -1.5747
  933MOL0     H23113   2.945   7.620   9.775 -2.5294 -0.0101 -3.6946
  933MOL0     H23114   3.143   7.837   9.680  1.3383 -0.4385  1.0601
  933MOL0     H23115   2.965   7.850   9.708 -0.2048  0.3358 -1.0105
  933MOL0     H23116   3.159   7.769   9.926 -0.2478 -1.5335 -2.0925
  933MOL0     H23117   2.996   7.816   9.954  0.1047 -1.1615  0.8939
  933MOL0     H23118   3.125   7.846  10.149 -1.1458  0.0226 -3.2613
  933MOL0     H23119   3.281   7.919  10.332 -0.7937  0.4994 -0.3726
  933MOL0     H23120   3.704   8.415  10.227  3.5534 -1.0805  0.4473
  933MOL0     H23121   3.856   8.542  10.364  0.9821  0.1295  2.2166
  933MOL0     H23122   4.020   8.559  10.477 -0.0125 -0.5861  0.0280
  933MOL0     H23123   4.092   8.535  10.628  0.0958 -1.1695 -1.7215
  933MOL0     H23124   4.080   8.757  10.612 -0.0552 -2.4615 -4.3600
  933MOL0     H23125   3.968   8.706  10.744 -1.5502  0.4213  0.3356
  933MOL0     H23126   3.777   8.749  10.592 -0.8989  1.8643  0.5966
  933MOL0     H23127   3.886   8.793  10.462 -1.9200  0.3864  0.6478
  933MOL0     H23128   3.847   8.906  10.744  0.7444  3.2086  1.5330
  933MOL0     H23129   3.960   8.990  10.629  0.8085 -1.3536  2.4374
  933MOL0     H23130   3.804   8.989  10.456 -0.2929 -1.7971 -0.0243
  933MOL0     H23131   3.806   9.114  10.579  1.7545 -0.8469  3.8214
  933MOL0     H23132   3.608   9.049  10.677  0.4144 -0.5301  1.5759
  933MOL0     H23133   3.601   8.886  10.604 -1.0554  1.1559 -0.0352
  933MOL0     H23134   3.474   9.108  10.474 -1.2952 -0.9802 -1.4323
  933MOL0     H23135   3.626   9.113  10.398  2.5351 -2.5040 -1.4437
  933MOL0     H23136   3.468   8.991  10.267  1.3624  0.3737 -0.2051
  933MOL0     H23137   3.427   8.889  10.406 -1.1119  3.1329  0.6629
  933MOL0     H23138   3.711   8.328  10.712  1.0310 -3.6970 -1.6657
  933MOL0     H23139   3.585   8.202  10.591  3.1419 -0.9815 -0.1799
  933MOL0     H23140   3.374   8.273  10.107 -1.8945  0.4573 -1.4525
  933MOL0     H23141   3.274   8.191   9.925  0.8991 -2.7692 -1.7238
  933MOL0     H23142   3.359   8.655   9.011  0.0452 -2.5790  3.2680
  933MOL0     H23143   3.547   8.725   9.131  0.1834 -0.5313 -0.0265
  933MOL0     H23144   3.891   9.007   9.293 -0.0568 -0.3464 -2.2319
  933MOL0     H23145   4.089   9.067   9.396 -3.6423 -3.0170  5.3820
  933MOL0     H23146   4.315   9.033   9.507  0.3312 -5.8541  0.7793
  933MOL0     H23147   4.320   9.106   9.337  1.0977  1.1710  0.1650
  933MOL0     H23148   4.561   8.995   9.344 -0.2168  0.7711 -1.5102
  933MOL0     H23149   4.543   9.169   9.380  2.4061 -0.1007 -0.6983
  933MOL0     H23150   4.505   9.005   9.628  2.6906 -2.4365  0.1466
  933MOL0     H23151   4.626   9.125   9.590  2.9133 -0.3953 -2.2368
  933MOL0     H23152   4.777   8.981   9.482  0.8442  0.5376  1.4901
  933MOL0     H23153   4.747   8.968   9.659 -1.1789 -0.5404  0.4176
  933MOL0     H23154   4.673   8.586   9.573 -1.8086  0.2763 -1.1823
  933MOL0     H23155   4.250   8.671   9.281 -1.5048 -0.7172  1.9419
  933MOL0     H23156   4.048   8.633   9.168 -0.5006 -0.5680  1.8341
  934MOL0     O23157   9.156   4.972  10.521 -0.3673 -0.1713  0.2497
  934MOL0     C23158   9.234   5.022  10.603  0.0501 -0.0323 -1.0400
  934MOL0     O23159   9.222   5.002  10.742 -0.8289  0.7615 -0.1287
  934MOL0     C23160   9.110   4.939  10.787  0.1654 -0.0157 -0.1149
  934MOL0     C23161   9.116   4.809  10.827  0.2091 -0.4976 -0.0191
  934MOL0     C23162   9.004   4.752  10.878  0.9654 -0.2992 -0.8526
  934MOL0     C23163   8.888   4.822  10.910 -0.1521  0.3167  0.1270
  934MOL0     O23164   8.776   4.763  10.960 -0.3650  0.6769 -0.7917
  934MOL0     C23165   8.755   4.631  10.919  0.7678  1.0113  0.3659
  934MOL0     C23166   8.613   4.606  10.961 -0.0208  0.7824  0.1439
  934MOL0     C23167   8.511   4.680  10.865 -0.3160  0.0441 -0.0750
  934MOL0     C23168   8.368   4.653  10.923  0.4691 -0.3115 -1.0895
  934MOL0     C23169   8.304   4.533  10.853  0.7597  0.6482 -0.2986
  934MOL0     C23170   8.161   4.505  10.886  1.5332 -0.1043 -0.1932
  934MOL0     C23171   8.057   4.610  10.856 -0.3307 -0.1157  0.1879
  934MOL0     C23172   8.045   4.654  10.704  0.6088  0.2113  0.4811
  934MOL0     N23173   7.976   4.524  10.640 -0.1228 -0.1672  0.1208
  934MOL0     C23174   8.039   4.411  10.589 -0.4465  0.1159 -0.7271
  934MOL0     C23175   7.935   4.343  10.529 -0.1260 -0.7404 -0.6107
  934MOL0     C23176   7.941   4.201  10.461 -0.8785  0.1376  0.0233
  934MOL0     C23177   8.090   4.146  10.446 -0.2648  0.1177  0.3001
  934MOL0     C23178   8.124   4.013  10.367 -0.0368  0.1982  0.0312
  934MOL0     C23179   8.269   3.990  10.346 -0.4129 -0.1962  0.0040
  934MOL0     O23180   8.347   3.979  10.470 -0.3262  1.3199 -0.0919
  934MOL0     C23181   8.459   4.059  10.498 -0.6111  0.7400 -0.1777
  934MOL0     C23182   8.556   4.080  10.397  0.9623  0.2496 -1.0168
  934MOL0     C23183   8.654   4.176  10.420  0.2631  0.3597  0.3095
  934MOL0     C23184   8.667   4.237  10.542  0.0200 -0.0179  0.7352
  934MOL0     C23185   8.766   4.339  10.566 -0.6162  0.1285  0.4846
  934MOL0     O23186   8.862   4.357  10.467 -0.0100  0.3810 -0.0475
  934MOL0     C23187   8.981   4.405  10.503  0.1080 -0.0633  0.0869
  934MOL0     C23188   9.080   4.317  10.531 -0.1680  0.5980 -0.5808
  934MOL0     C23189   9.202   4.370  10.576 -1.0388  0.0348  0.7781
  934MOL0     C23190   9.232   4.510  10.569 -0.1560  0.3302  0.7862
  934MOL0     O23191   9.360   4.553  10.595 -0.0063  0.4029 -0.2434
  934MOL0     C23192   9.392   4.689  10.555 -0.2460 -0.5190  0.5448
  934MOL0     C23193   9.536   4.725  10.593  0.4360 -0.3038 -0.1506
  934MOL0     C23194   9.607   4.817  10.506 -0.6052  0.2404 -0.0702
  934MOL0     C23195   9.740   4.849  10.572  0.1254  0.3508 -0.2754
  934MOL0     C23196   9.803   4.974  10.512  0.5826  0.2003  0.5407
  934MOL0     C23197   9.878   4.937  10.380  0.7438  0.6730  1.3209
  934MOL0     C23198   9.920   5.062  10.313  0.4931 -0.1634 -0.4626
  934MOL0     C23199  10.049   5.028  10.224  0.1099  0.0008  0.1466
  934MOL0    Cl23200  10.192   4.964  10.314 -0.0986  0.6038  0.2474
  934MOL0     C23201   9.123   4.587  10.518 -0.0009  1.1020  0.8031
  934MOL0     C23202   8.998   4.536  10.497  0.4957 -0.9123 -0.2972
  934MOL0     O23203   8.775   4.384  10.677 -0.8371 -0.5114 -0.5505
  934MOL0     C23204   8.579   4.202  10.643  0.1888  0.3707 -0.0536
  934MOL0     C23205   8.480   4.106  10.622 -0.3721 -0.9952 -0.5607
  934MOL0     N23206   7.817   4.402  10.559  0.2485 -0.3151 -0.4737
  934MOL0     N23207   7.844   4.514  10.616  0.6745  0.6893 -0.1643
  934MOL0     C23208   8.890   4.958  10.885 -0.4931 -0.3783  0.9843
  934MOL0     C23209   8.996   5.012  10.816 -0.1127  1.2571 -0.4250
  934MOL0     C23210   9.340   5.125  10.565  0.6915 -0.6326  0.1669
  934MOL0     C23211   9.356   5.167  10.432  0.0991  0.8292  0.0136
  934MOL0     C23212   9.470   5.241  10.387 -0.6458 -0.9600 -0.2149
  934MOL0     C23213   9.561   5.282  10.478  0.4813 -0.5534 -0.4496
  934MOL0     O23214   9.660   5.365  10.435 -0.6198  0.1950  0.2230
  934MOL0     C23215   9.708   5.450  10.533  0.8557  0.1305 -0.5231
  934MOL0     C23216   9.804   5.547  10.470  0.1997  0.2283 -0.0701
  934MOL0     C23217   9.942   5.468  10.447  0.7444 -0.2464 -0.5688
  934MOL0     C23218  10.000   5.459  10.306 -0.3632 -0.5861 -0.2407
  934MOL0     C23219  10.138   5.408  10.296  0.5807 -0.1747 -0.8161
  934MOL0     C23220  10.257   5.380  10.287  0.6229  0.1229 -0.6068
  934MOL0     C23221   9.546   5.247  10.614  0.2877  0.2953  0.2614
  934MOL0     C23222   9.440   5.164  10.656 -0.0220 -0.0249  0.7717
  934MOL0     H23223   9.203   4.744  10.821 -1.1747 -2.3652 -0.9399
  934MOL0     H23224   9.006   4.644  10.890  2.1387 -0.1905  0.1190
  934MOL0     H23225   8.820   4.554  10.962 -3.2092 -3.0777 -0.1376
  934MOL0     H23226   8.767   4.629  10.810 -3.0532  4.7771 -0.3995
  934MOL0     H23227   8.596   4.626  11.067  0.1215 -1.3205  0.6068
  934MOL0     H23228   8.582   4.502  10.945 -2.9269  1.4666  0.8011
  934MOL0     H23229   8.527   4.653  10.760  2.6859  0.9919  0.0226
  934MOL0     H23230   8.532   4.787  10.864 -3.0692  0.6506 -0.9200
  934MOL0     H23231   8.363   4.644  11.032 -0.8969 -0.2683 -1.1281
  934MOL0     H23232   8.305   4.740  10.901 -0.3091  0.1928  2.5212
  934MOL0     H23233   8.372   4.447  10.852  0.8255  0.6553 -2.6102
  934MOL0     H23234   8.298   4.566  10.749 -0.4152  1.0184 -0.1253
  934MOL0     H23235   8.152   4.483  10.993  1.5198  2.1215  0.3140
  934MOL0     H23236   8.148   4.407  10.841 -1.5078 -0.6301  1.5857
  934MOL0     H23237   7.960   4.567  10.880 -0.6550 -0.9419 -2.2898
  934MOL0     H23238   8.066   4.701  10.916 -1.2322  1.1127 -1.4723
  934MOL0     H23239   8.140   4.684  10.658  1.6641 -0.0421  2.4139
  934MOL0     H23240   7.970   4.732  10.697 -1.7648 -1.9969 -0.4262
  934MOL0     H23241   8.143   4.382  10.590 -0.2168  0.9183  0.1681
  934MOL0     H23242   7.883   4.215  10.369  1.2848  2.2002 -1.1321
  934MOL0     H23243   7.894   4.117  10.513  0.2825 -1.9123 -2.0534
  934MOL0     H23244   8.131   4.116  10.543  0.6903  1.4789  0.3513
  934MOL0     H23245   8.148   4.230  10.408 -3.9308  2.0548 -1.4805
  934MOL0     H23246   8.087   3.924  10.417  1.7158  0.6106  2.2315
  934MOL0     H23247   8.080   4.025  10.267 -1.6051  1.7083  0.8612
  934MOL0     H23248   8.308   4.067  10.278 -1.5489 -2.2868 -3.2436
  934MOL0     H23249   8.278   3.903  10.281  0.1971  1.9969 -3.1037
  934MOL0     H23250   8.541   4.049  10.294  1.4721  1.5157 -1.4920
  934MOL0     H23251   8.720   4.210  10.341 -0.6513 -1.8914 -1.5306
  934MOL0     H23252   9.062   4.210  10.532 -3.9518  1.1143  0.2517
  934MOL0     H23253   9.288   4.308  10.600 -0.5968  0.3843  0.1365
  934MOL0     H23254   9.327   4.762  10.604  1.8671 -0.0780  2.9164
  934MOL0     H23255   9.386   4.696  10.446 -0.0076 -2.9160  0.3255
  934MOL0     H23256   9.588   4.629  10.600 -2.2486 -1.8449  0.2665
  934MOL0     H23257   9.539   4.761  10.696  1.2185  0.4406 -0.4241
  934MOL0     H23258   9.558   4.913  10.492  3.4648  2.3870 -1.5570
  934MOL0     H23259   9.614   4.760  10.413 -2.9251  0.0285 -0.1666
  934MOL0     H23260   9.717   4.881  10.674  2.1235  4.3057 -0.8722
  934MOL0     H23261   9.815   4.770  10.574 -0.6737 -0.4190  1.6834
  934MOL0     H23262   9.878   5.009  10.584  0.6020  0.5710  0.3436
  934MOL0     H23263   9.727   5.050  10.491  2.7703  1.8297 -2.1658
  934MOL0     H23264   9.797   4.887  10.326  0.2915  1.9836  0.7399
  934MOL0     H23265   9.962   4.868  10.393  1.6783  1.5400  0.2072
  934MOL0     H23266   9.834   5.102  10.258  2.0001  1.3686 -1.8044
  934MOL0     H23267   9.947   5.138  10.387 -2.0275  0.3503  0.0294
  934MOL0     H23268  10.085   5.119  10.177 -1.7343  1.1177  0.7883
  934MOL0     H23269  10.007   4.964  10.146 -0.2132  0.8685 -0.4027
  934MOL0     H23270   9.150   4.693  10.518  2.9098  0.4594  0.7205
  934MOL0     H23271   8.908   4.595  10.479 -0.5046 -3.4342 -5.1194
  934MOL0     H23272   8.570   4.262  10.733 -1.5489 -0.3466  0.2973
  934MOL0     H23273   8.422   4.076  10.709  0.7621 -2.9243 -0.4082
  934MOL0     H23274   8.804   5.011  10.925 -0.8457 -0.7531  0.7374
  934MOL0     H23275   9.016   5.118  10.806  1.0242  0.9609 -1.5168
  934MOL0     H23276   9.287   5.125  10.359 -0.2403 -0.2005  0.8892
  934MOL0     H23277   9.467   5.271  10.283 -0.9051  0.1194  0.0959
  934MOL0     H23278   9.757   5.389  10.609  0.1425  1.5163  1.1269
  934MOL0     H23279   9.626   5.501  10.585 -0.1265  0.6134 -2.4723
  934MOL0     H23280   9.758   5.591  10.381  2.8746 -1.4064 -2.4743
  934MOL0     H23281   9.819   5.627  10.543  2.2982  0.9106 -1.1623
  934MOL0     H23282   9.930   5.366  10.484  1.0697 -0.3793 -0.8256
  934MOL0     H23283  10.017   5.518  10.509  0.3008  0.1280 -0.3288
  934MOL0     H23284   9.936   5.397  10.242 -0.6637 -3.7488  2.8281
  934MOL0     H23285   9.997   5.559  10.262 -1.9573 -1.0730 -1.3347
  934MOL0     H23286  10.363   5.367  10.278  0.2434 -2.4183 -2.5776
  934MOL0     H23287   9.626   5.270  10.684 -1.0036 -2.3389  2.8303
  934MOL0     H23288   9.428   5.139  10.761 -3.5256 -0.7972  0.3069
  935MOL0     O23289  10.308   1.017   0.849 -0.5882  0.7912 -0.5456
  935MOL0     C23290  10.349   0.974   0.747 -0.4056  0.2067 -0.3828
  935MOL0     O23291  10.293   0.887   0.657  0.5584  0.2045 -0.5753
  935MOL0     C23292  10.171   0.828   0.682  0.2215  0.1151  0.2366
  935MOL0     C23293  10.120   0.807   0.813  0.4095 -0.2868  0.0313
  935MOL0     C23294   9.988   0.755   0.827 -0.2104  0.5718 -1.1682
  935MOL0     C23295   9.910   0.716   0.724 -0.7759  0.3890 -0.7279
  935MOL0     O23296   9.790   0.653   0.752  0.2307 -0.4202  0.4376
  935MOL0     C23297   9.705   0.635   0.646 -0.5216 -0.6616  0.6066
  935MOL0     C23298   9.566   0.619   0.714  0.0549 -0.4484  0.0101
  935MOL0     C23299   9.460   0.579   0.610  0.2401  1.0075  0.2911
  935MOL0     C23300   9.478   0.431   0.574  0.2936  1.0116 -0.5069
  935MOL0     C23301   9.347   0.360   0.528  0.3070  0.7055  0.1230
  935MOL0     C23302   9.355   0.212   0.552 -1.8468  0.6763  0.0332
  935MOL0     C23303   9.242   0.123   0.499 -0.1686  0.0337 -0.6243
  935MOL0     C23304   9.246   0.091   0.353 -0.1474  0.4182  0.6754
  935MOL0     N23305   9.200   0.201   0.268 -0.5431  0.3649 -0.2853
  935MOL0     C23306   9.278   0.250   0.166 -0.0927  0.2460  0.4668
  935MOL0     C23307   9.212   0.358   0.123  0.1559 -1.3188  0.2077
  935MOL0     C23308   9.222   0.428  -0.008 -0.8530 -0.2047  0.3871
  935MOL0     C23309   9.228   0.323  -0.129  0.3934 -0.9248  0.3548
  935MOL0     C23310   9.233   0.399  -0.256  0.2363 -0.0471 -0.5710
  935MOL0     C23311   9.371   0.435  -0.295  0.0600 -0.4179  0.7913
  935MOL0     O23312   9.440   0.543  -0.224 -0.0716  0.0989 -0.4693
  935MOL0     C23313   9.580   0.553  -0.240 -0.2469  0.2740  0.4596
  935MOL0     C23314   9.663   0.495  -0.341  0.0606  0.3335  0.6288
  935MOL0     C23315   9.806   0.507  -0.324  0.1074  0.0574 -0.2255
  935MOL0     C23316   9.857   0.581  -0.226  0.3284 -0.5101 -0.0560
  935MOL0     C23317  10.005   0.607  -0.235  0.0777  0.5772 -0.1609
  935MOL0     O23318  10.073   0.580  -0.354 -0.1231 -0.0719  0.3736
  935MOL0     C23319  10.208   0.602  -0.372 -0.2036 -0.1436 -0.2168
  935MOL0     C23320  10.283   0.510  -0.454 -0.2304 -0.3015  0.2740
  935MOL0     C23321  10.423   0.526  -0.482  0.4700 -0.8774  0.7618
  935MOL0     C23322  10.491   0.637  -0.427 -0.5517  0.4561 -0.7903
  935MOL0     O23323  10.624   0.645  -0.470 -0.4783  0.3796 -0.2525
  935MOL0     C23324  10.668   0.782  -0.495  0.5167  0.6617 -0.5736
  935MOL0     C23325  10.812   0.756  -0.559  0.0822 -0.7897  0.6596
  935MOL0     C23326  10.842   0.866  -0.665  0.3281 -0.3821 -0.2087
  935MOL0     C23327  10.963   0.841  -0.748 -1.0574 -0.2134  0.0781
  935MOL0     C23328  10.971   0.939  -0.872  0.1800 -0.0053  0.2873
  935MOL0     C23329  11.043   0.877  -0.992  0.0665  0.2232 -0.4285
  935MOL0     C23330  10.972   0.761  -1.063  0.0781 -0.0690  0.1080
  935MOL0     C23331  11.069   0.673  -1.134 -0.5359 -0.0265  0.3256
  935MOL0    Cl23332  10.955   0.571  -1.240  0.1664  0.0430 -0.0349
  935MOL0     C23333  10.425   0.726  -0.350  0.0537  0.2508 -0.3844
  935MOL0     C23334  10.283   0.708  -0.317 -0.4159  0.1836  0.6957
  935MOL0     O23335  10.057   0.637  -0.127 -0.2177 -0.2714 -0.0728
  935MOL0     C23336   9.773   0.647  -0.132 -0.5781  0.9288 -0.7543
  935MOL0     C23337   9.640   0.638  -0.147  0.5098 -0.3620 -0.5761
  935MOL0     N23338   9.104   0.373   0.215 -0.2094 -0.5245  1.1779
  935MOL0     N23339   9.098   0.280   0.297  0.1802  0.4322  0.4433
  935MOL0     C23340   9.958   0.743   0.596 -0.6748  0.1704  0.0643
  935MOL0     C23341  10.093   0.785   0.577 -0.2018  0.0198  0.2430
  935MOL0     C23342  10.492   1.013   0.712  0.0325 -0.0516 -0.4093
  935MOL0     C23343  10.573   1.101   0.794  0.3062  0.4625 -0.5204
  935MOL0     C23344  10.702   1.132   0.763  0.0115  0.3890  0.0806
  935MOL0     C23345  10.766   1.078   0.648  0.3714 -0.8346 -0.4498
  935MOL0     O23346  10.902   1.105   0.643  0.3200  0.7350  0.0589
  935MOL0     C23347  10.968   1.065   0.519 -0.6866  0.3411 -0.3406
  935MOL0     C23348  11.090   1.151   0.496 -1.0036 -0.0183  0.4470
  935MOL0     C23349  11.166   1.105   0.368  0.3568  0.0664 -0.1942
  935MOL0     C23350  11.309   1.168   0.346  0.6474 -0.4221  0.2921
  935MOL0     C23351  11.398   1.160   0.468  0.2295  0.1551  0.3702
  935MOL0     C23352  11.459   1.150   0.571 -0.0776 -0.6607  0.2908
  935MOL0     C23353  10.689   0.994   0.567  0.2745  0.8278  1.0026
  935MOL0     C23354  10.554   0.964   0.599 -0.1756 -0.5045  0.2108
  935MOL0     H23355  10.174   0.836   0.903  0.2527 -1.5570  0.5576
  935MOL0     H23356   9.942   0.742   0.925  0.9246 -2.4877 -0.9255
  935MOL0     H23357   9.733   0.545   0.589  1.6878 -0.1162  0.7312
  935MOL0     H23358   9.711   0.721   0.579  5.0815 -0.7986  0.4587
  935MOL0     H23359   9.539   0.714   0.762  2.7369 -1.3076  3.6655
  935MOL0     H23360   9.571   0.550   0.799  4.8351  2.3362  2.4058
  935MOL0     H23361   9.472   0.633   0.516  3.0600 -0.4850 -0.2837
  935MOL0     H23362   9.360   0.596   0.652  0.5123 -1.3527  2.1372
  935MOL0     H23363   9.555   0.421   0.497  0.4311  2.8883 -0.6698
  935MOL0     H23364   9.499   0.371   0.663 -2.8060  0.3216 -0.1330
  935MOL0     H23365   9.338   0.377   0.421  0.5410 -1.9473 -0.3749
  935MOL0     H23366   9.248   0.386   0.569  0.5727 -1.8627  2.7361
  935MOL0     H23367   9.383   0.197   0.657  3.6158 -0.3273 -1.2794
  935MOL0     H23368   9.448   0.182   0.502 -0.1634  1.3643  2.5705
  935MOL0     H23369   9.246   0.023   0.543 -1.7188  0.5851  0.9040
  935MOL0     H23370   9.153   0.181   0.526  1.4243  1.3315  2.3207
  935MOL0     H23371   9.172   0.012   0.336  1.2080 -0.3276 -2.4947
  935MOL0     H23372   9.339   0.040   0.328 -0.8051 -0.4249 -0.1833
  935MOL0     H23373   9.360   0.201   0.113  0.5493  0.3203  1.3762
  935MOL0     H23374   9.311   0.492  -0.016 -1.2435  0.6501  2.2247
  935MOL0     H23375   9.136   0.496  -0.007 -0.0973  0.7889  1.4260
  935MOL0     H23376   9.134   0.267  -0.129 -0.7972  0.9030  2.0808
  935MOL0     H23377   9.313   0.255  -0.129  2.4580  1.4712  1.2786
  935MOL0     H23378   9.194   0.329  -0.331  1.5219 -0.2900 -1.0329
  935MOL0     H23379   9.170   0.488  -0.246  1.8941  1.2762 -1.4630
  935MOL0     H23380   9.373   0.459  -0.401  1.8381 -0.9903  0.6731
  935MOL0     H23381   9.427   0.341  -0.295  0.2304 -0.3489 -0.9352
  935MOL0     H23382   9.622   0.441  -0.425  1.7482  0.3305 -0.2428
  935MOL0     H23383   9.876   0.459  -0.391  1.4622  2.4048 -0.6111
  935MOL0     H23384  10.225   0.437  -0.510 -0.4304  1.0952 -1.4325
  935MOL0     H23385  10.474   0.464  -0.554 -0.8408 -0.5601 -0.4813
  935MOL0     H23386  10.679   0.829  -0.397  1.0285  0.2446 -0.4266
  935MOL0     H23387  10.588   0.835  -0.548  0.5397  1.5460  0.2492
  935MOL0     H23388  10.800   0.660  -0.609 -0.2430 -0.5033  0.1786
  935MOL0     H23389  10.873   0.742  -0.469  1.2587 -3.3505 -0.4543
  935MOL0     H23390  10.858   0.965  -0.622 -2.8207  0.4844 -0.8277
  935MOL0     H23391  10.760   0.882  -0.735  1.7374  1.4614 -1.5342
  935MOL0     H23392  11.047   0.867  -0.682 -0.6695  0.5010 -0.6680
  935MOL0     H23393  10.953   0.735  -0.773  1.6548 -0.8619  1.3110
  935MOL0     H23394  11.034   1.024  -0.844  2.2163 -2.0236  2.2740
  935MOL0     H23395  10.872   0.964  -0.910  0.3558 -0.4426 -0.4685
  935MOL0     H23396  11.145   0.855  -0.961  0.3851  3.3129  1.0891
  935MOL0     H23397  11.043   0.952  -1.072  0.1096 -1.3306 -1.9319
  935MOL0     H23398  10.907   0.712  -0.990 -1.8654  2.5355  0.2935
  935MOL0     H23399  10.908   0.798  -1.144  0.4401 -1.6357 -0.9361
  935MOL0     H23400  11.126   0.612  -1.064 -0.0496 -0.9750 -0.8473
  935MOL0     H23401  11.138   0.730  -1.198 -0.3883  1.1682  1.5038
  935MOL0     H23402  10.471   0.816  -0.312 -3.4269  0.5936  3.8791
  935MOL0     H23403  10.227   0.781  -0.259 -1.1412 -0.9326  1.4369
  935MOL0     H23404   9.815   0.717  -0.061 -1.8837  1.2454 -0.2670
  935MOL0     H23405   9.575   0.710  -0.096 -0.4076 -0.6195 -1.3503
  935MOL0     H23406   9.907   0.724   0.503 -0.4777  1.6832 -0.3767
  935MOL0     H23407  10.128   0.815   0.478 -0.1229 -2.8436 -0.7006
  935MOL0     H23408  10.540   1.137   0.891 -1.5007 -0.8952 -0.5865
  935MOL0     H23409  10.768   1.183   0.833 -1.7596  0.8754  1.4607
  935MOL0     H23410  10.899   1.082   0.436 -0.3155  2.9192 -0.2131
  935MOL0     H23411  10.983   0.957   0.523  0.2339  0.4674  3.0702
  935MOL0     H23412  11.070   1.257   0.480 -1.5157 -0.2761 -0.7345
  935MOL0     H23413  11.155   1.129   0.581  0.4625 -0.2438 -0.6838
  935MOL0     H23414  11.106   1.131   0.280 -2.2059  0.4131  1.5699
  935MOL0     H23415  11.182   0.997   0.362 -2.4678 -0.5866  2.2428
  935MOL0     H23416  11.369   1.116   0.272 -0.4704  1.6708 -2.2343
  935MOL0     H23417  11.292   1.268   0.307 -2.6942 -2.4834 -4.4734
  935MOL0     H23418  11.517   1.150   0.661 -1.8903  3.7907  1.7456
  935MOL0     H23419  10.733   0.944   0.481 -0.5969  3.1549 -0.8805
  935MOL0     H23420  10.515   0.887   0.534 -0.3720 -1.2420  1.1731
  936MOL0     O23421  10.326   0.651   1.202  0.6883 -0.6154 -0.0757
  936MOL0     C23422  10.432   0.670   1.253 -0.1450 -0.6209 -1.1790
  936MOL0     O23423  10.517   0.576   1.312  0.0905  0.7671  0.1472
  936MOL0     C23424  10.491   0.445   1.326  0.5643 -0.2477 -0.2093
  936MOL0     C23425  10.583   0.354   1.281  0.3485 -0.2454  0.1424
  936MOL0     C23426  10.557   0.221   1.266  0.6034  0.3603 -0.1046
  936MOL0     C23427  10.427   0.181   1.285  0.7991 -1.2486 -0.2410
  936MOL0     O23428  10.415   0.050   1.271 -0.4063  0.5115 -1.0103
  936MOL0     C23429  10.321  -0.019   1.358 -0.1140 -0.0751 -0.4181
  936MOL0     C23430  10.388  -0.162   1.379 -0.6898  0.5635  0.9844
  936MOL0     C23431  10.346  -0.235   1.507 -0.8900 -1.3783 -0.3785
  936MOL0     C23432  10.384  -0.171   1.640  0.0361 -0.4748  0.4016
  936MOL0     C23433  10.327  -0.243   1.756  0.3709 -0.2951 -0.3505
  936MOL0     C23434  10.289  -0.154   1.873 -0.3370 -0.3550 -0.8270
  936MOL0     C23435  10.212  -0.256   1.961 -0.7746  0.2395  0.9310
  936MOL0     C23436  10.066  -0.264   1.936 -0.3487  0.1250 -0.1067
  936MOL0     N23437  10.005  -0.137   1.966  0.3151  0.2948  0.2090
  936MOL0     C23438   9.998  -0.074   2.093 -0.8013  1.0071  0.1893
  936MOL0     C23439   9.902   0.020   2.079 -0.8231 -0.0620  0.4894
  936MOL0     C23440   9.862   0.113   2.193  0.0139  1.3957  0.7671
  936MOL0     C23441   9.741   0.195   2.158  0.0187  0.4816  0.5451
  936MOL0     C23442   9.615   0.102   2.126  0.1844  0.0104  0.6249
  936MOL0     C23443   9.485   0.167   2.149  0.0337  0.4399  0.3134
  936MOL0     O23444   9.478   0.234   2.272 -0.2155 -0.0189  0.1088
  936MOL0     C23445   9.372   0.312   2.309  0.0577  0.3587 -0.8663
  936MOL0     C23446   9.383   0.378   2.438  0.2675  0.3880 -0.9955
  936MOL0     C23447   9.268   0.440   2.490  0.9021  0.6665 -0.1350
  936MOL0     C23448   9.156   0.465   2.411 -0.5725 -1.0022  0.0366
  936MOL0     C23449   9.046   0.550   2.460  0.4469 -0.2356  0.5859
  936MOL0     O23450   9.062   0.599   2.588 -0.3083 -0.4211 -0.2375
  936MOL0     C23451   8.949   0.649   2.641 -0.4254 -0.3554  0.4454
  936MOL0     C23452   8.966   0.775   2.696  0.6107 -0.6182 -0.1874
  936MOL0     C23453   8.862   0.834   2.755  0.4164 -0.2611 -0.2708
  936MOL0     C23454   8.739   0.762   2.779  0.1314 -0.3738 -0.0698
  936MOL0     O23455   8.621   0.819   2.823  0.2168 -0.1863  0.3795
  936MOL0     C23456   8.613   0.966   2.815  0.2264 -0.3053  0.1337
  936MOL0     C23457   8.613   1.017   2.666  0.0352  0.1949 -0.2128
  936MOL0     C23458   8.553   1.155   2.658 -0.0470 -0.8305  0.7925
  936MOL0     C23459   8.504   1.191   2.515 -0.3549  0.0672 -0.0855
  936MOL0     C23460   8.446   1.332   2.499 -0.3560 -0.7462 -0.6739
  936MOL0     C23461   8.375   1.339   2.373  0.9782  0.6133  0.2052
  936MOL0     C23462   8.335   1.480   2.316 -0.9172  0.4903 -0.4792
  936MOL0     C23463   8.235   1.459   2.197 -1.0562 -0.7594  0.7607
  936MOL0    Cl23464   8.167   1.608   2.127 -0.3583 -0.4227  0.1409
  936MOL0     C23465   8.721   0.631   2.734 -0.1981  1.0766  0.8086
  936MOL0     C23466   8.828   0.574   2.662  0.9196 -0.0145 -0.2454
  936MOL0     O23467   8.951   0.574   2.387  0.4850  0.1299 -0.1881
  936MOL0     C23468   9.151   0.415   2.284  0.2102  0.1595 -0.1290
  936MOL0     C23469   9.251   0.327   2.242  0.0055 -0.2602  0.6611
  936MOL0     N23470   9.859   0.027   1.949  1.0203 -0.2412  0.3767
  936MOL0     N23471   9.918  -0.068   1.885 -0.5177 -1.4575 -0.0953
  936MOL0     C23472  10.335   0.269   1.343  0.5194 -0.2843  0.4477
  936MOL0     C23473  10.371   0.399   1.370 -0.7956  0.5133  0.2337
  936MOL0     C23474  10.479   0.809   1.259 -0.7720  0.2181 -0.8987
  936MOL0     C23475  10.603   0.850   1.315  0.0397 -0.2417  0.3606
  936MOL0     C23476  10.668   0.966   1.275 -0.5849  0.2505 -0.8020
  936MOL0     C23477  10.599   1.064   1.205  0.9987 -0.3989  1.0990
  936MOL0     O23478  10.662   1.184   1.180 -0.6564  0.0118 -0.2681
  936MOL0     C23479  10.594   1.303   1.173 -0.4768 -0.4194 -0.4715
  936MOL0     C23480  10.652   1.399   1.069 -0.7224  0.1775  0.1823
  936MOL0     C23481  10.563   1.532   1.081 -0.3981 -1.0442 -0.0623
  936MOL0     C23482  10.593   1.640   0.982 -0.6197 -0.1549  0.1603
  936MOL0     C23483  10.481   1.734   0.971  0.5709  0.4320 -1.1854
  936MOL0     C23484  10.383   1.795   0.969  0.7323  0.0037 -0.5327
  936MOL0     C23485  10.465   1.036   1.159  0.9673  0.3694 -0.7444
  936MOL0     C23486  10.406   0.909   1.193 -0.2013  0.2557  0.5243
  936MOL0     H23487  10.680   0.386   1.247  0.9331 -0.8727  1.1749
  936MOL0     H23488  10.628   0.145   1.234  0.2708  0.6764 -1.6858
  936MOL0     H23489  10.225  -0.039   1.311 -0.1633 -1.1401  0.0957
  936MOL0     H23490  10.315   0.036   1.453  0.8336  0.0717 -0.4333
  936MOL0     H23491  10.494  -0.135   1.377 -1.3124  3.3775  1.8137
  936MOL0     H23492  10.369  -0.235   1.300  0.2843 -0.6309  1.8292
  936MOL0     H23493  10.399  -0.331   1.513  1.0034 -0.5838 -2.8155
  936MOL0     H23494  10.238  -0.250   1.515 -0.7579 -1.4107  1.7680
  936MOL0     H23495  10.491  -0.149   1.651  0.0384 -1.3488  2.5670
  936MOL0     H23496  10.349  -0.068   1.651  1.8542 -0.0521  3.1434
  936MOL0     H23497  10.406  -0.308   1.794  0.5674 -0.0818 -0.3936
  936MOL0     H23498  10.238  -0.305   1.739 -0.1493 -0.3743  2.2481
  936MOL0     H23499  10.225  -0.069   1.846 -0.2880 -0.9285 -2.8809
  936MOL0     H23500  10.374  -0.122   1.935 -2.9198 -2.0206  4.0927
  936MOL0     H23501  10.253  -0.358   1.955  0.6619  0.6130  3.0612
  936MOL0     H23502  10.235  -0.229   2.064  0.1872 -1.6623  1.2723
  936MOL0     H23503  10.031  -0.339   2.007  1.1549  1.3907  2.0982
  936MOL0     H23504  10.040  -0.307   1.838  1.1612 -2.4674  0.5343
  936MOL0     H23505  10.043  -0.117   2.182 -1.4881 -3.6780 -1.4231
  936MOL0     H23506   9.937   0.191   2.213  0.2704  1.5230 -0.6193
  936MOL0     H23507   9.840   0.043   2.274  2.1886  0.9082  1.0011
  936MOL0     H23508   9.767   0.253   2.069  3.1308 -2.2189 -0.5231
  936MOL0     H23509   9.714   0.256   2.244 -2.3607 -1.1334  1.0366
  936MOL0     H23510   9.613   0.076   2.020 -2.4592 -0.9664  0.8273
  936MOL0     H23511   9.609  -0.001   2.165  0.8673 -0.9679 -1.7211
  936MOL0     H23512   9.400   0.099   2.154  0.3818  0.0326  0.7777
  936MOL0     H23513   9.466   0.235   2.065 -0.8127 -3.6452 -3.1429
  936MOL0     H23514   9.472   0.366   2.499 -2.5783  0.9452  3.7577
  936MOL0     H23515   9.273   0.475   2.593 -1.2756 -0.9142  0.6072
  936MOL0     H23516   9.057   0.833   2.686 -0.9238  1.7547 -1.2698
  936MOL0     H23517   8.879   0.931   2.801 -1.1745 -0.5554  1.0345
  936MOL0     H23518   8.689   1.031   2.859  0.5920  0.0782 -1.0251
  936MOL0     H23519   8.518   0.992   2.864  0.4264 -0.0568  0.3924
  936MOL0     H23520   8.553   0.944   2.611 -0.5651  0.4678  0.0760
  936MOL0     H23521   8.716   1.010   2.628  0.3489  0.4293  0.5850
  936MOL0     H23522   8.626   1.228   2.695 -0.2349 -0.2739  0.0860
  936MOL0     H23523   8.464   1.148   2.721 -0.1680  5.0183  1.8193
  936MOL0     H23524   8.582   1.183   2.439 -1.7907  1.4286 -1.7996
  936MOL0     H23525   8.427   1.120   2.483 -2.0660  0.7907  2.1367
  936MOL0     H23526   8.522   1.410   2.505 -0.3519 -0.5950 -2.2353
  936MOL0     H23527   8.380   1.347   2.585  2.6530 -0.8950  1.8365
  936MOL0     H23528   8.285   1.278   2.381  2.0997 -1.3473 -1.2371
  936MOL0     H23529   8.442   1.302   2.295  1.5912  0.1502  0.9343
  936MOL0     H23530   8.294   1.543   2.396  1.9113 -0.2455  1.7635
  936MOL0     H23531   8.433   1.524   2.294 -1.6401  2.2225 -0.3721
  936MOL0     H23532   8.151   1.398   2.231 -0.5547 -0.7639  2.0570
  936MOL0     H23533   8.286   1.413   2.112 -0.0907 -0.7243  1.2996
  936MOL0     H23534   8.630   0.573   2.729  1.3765 -1.5538  1.1684
  936MOL0     H23535   8.802   0.492   2.596  1.4723  0.0261 -0.5089
  936MOL0     H23536   9.066   0.421   2.217  1.7515  2.2918 -2.0168
  936MOL0     H23537   9.248   0.282   2.144  3.2569 -2.5241  1.4444
  936MOL0     H23538  10.231   0.239   1.356  0.4515  0.2073  1.0899
  936MOL0     H23539  10.286   0.462   1.396 -1.0074  0.6273 -0.6709
  936MOL0     H23540  10.660   0.778   1.373  0.4879 -0.7318 -0.6627
  936MOL0     H23541  10.765   0.982   1.321 -1.2655 -0.2175  0.8864
  936MOL0     H23542  10.601   1.348   1.273  0.5549  1.8884 -1.4999
  936MOL0     H23543  10.487   1.288   1.158 -0.2353 -2.5530 -0.3453
  936MOL0     H23544  10.758   1.419   1.084 -0.0916  1.8046 -4.5597
  936MOL0     H23545  10.649   1.360   0.966  1.9129  0.6867 -0.1515
  936MOL0     H23546  10.583   1.573   1.180 -0.9307 -1.6236  0.2911
  936MOL0     H23547  10.458   1.502   1.069 -0.6715 -2.2282  3.9632
  936MOL0     H23548  10.684   1.696   1.005 -0.6462 -0.9584  2.4767
  936MOL0     H23549  10.619   1.607   0.881  4.3387  0.9184  0.8165
  936MOL0     H23550  10.291   1.850   0.963 -0.4192 -1.8630 -0.8772
  936MOL0     H23551  10.416   1.119   1.109  0.5323  1.2968  1.0941
  936MOL0     H23552  10.302   0.893   1.166 -0.0731 -0.4485  0.4320
  937MOL0     O23553   5.391   2.095   5.587 -0.0540  0.1178  0.5249
  937MOL0     C23554   5.301   2.091   5.673 -0.3290  0.5629  0.5296
  937MOL0     O23555   5.288   1.997   5.771  0.2999  0.2029 -0.0907
  937MOL0     C23556   5.377   1.898   5.801  0.6691 -0.1975 -0.3607
  937MOL0     C23557   5.504   1.923   5.851  1.6840 -0.3502 -0.2519
  937MOL0     C23558   5.590   1.814   5.888  0.9262  0.0570 -0.8803
  937MOL0     C23559   5.547   1.681   5.874  0.3131 -0.0838  0.1403
  937MOL0     O23560   5.616   1.572   5.920 -0.1198  0.3358  0.2523
  937MOL0     C23561   5.761   1.573   5.906  1.1275  1.0704  0.0943
  937MOL0     C23562   5.821   1.463   5.807  0.6472 -0.9105  0.4158
  937MOL0     C23563   5.847   1.330   5.877  1.1156  0.4702  0.3922
  937MOL0     C23564   5.960   1.329   5.982 -0.0631 -0.3726 -0.4625
  937MOL0     C23565   5.942   1.218   6.079 -0.2631  0.0312 -0.3099
  937MOL0     C23566   6.053   1.225   6.186  0.1149 -0.6562 -0.0281
  937MOL0     C23567   5.998   1.260   6.322 -0.4693 -0.4716 -0.6961
  937MOL0     C23568   6.123   1.280   6.410 -0.2953 -0.6428  0.3015
  937MOL0     N23569   6.165   1.419   6.409 -0.4836  0.7627  0.3554
  937MOL0     C23570   6.104   1.520   6.466  0.8562  0.7946  0.1147
  937MOL0     C23571   6.176   1.631   6.450  0.6632 -0.2255  0.7939
  937MOL0     C23572   6.140   1.769   6.516 -0.1661  0.3317 -0.6881
  937MOL0     C23573   6.130   1.741   6.665  0.4464 -0.0187 -0.3703
  937MOL0     C23574   6.255   1.695   6.734  0.9315  0.4741  0.0597
  937MOL0     C23575   6.378   1.773   6.693  0.0309 -0.8965  0.5385
  937MOL0     O23576   6.475   1.751   6.796  0.2372  0.2855 -0.4288
  937MOL0     C23577   6.596   1.779   6.756 -0.4555 -0.8809 -0.0376
  937MOL0     C23578   6.654   1.833   6.641 -0.3524  0.9091  0.9620
  937MOL0     C23579   6.795   1.853   6.632  0.0646 -0.1555 -0.4683
  937MOL0     C23580   6.883   1.838   6.741 -0.0227  0.4928  0.6365
  937MOL0     C23581   7.025   1.869   6.730 -0.4367  0.3379 -0.1077
  937MOL0     O23582   7.074   1.872   6.606 -0.6853  0.3623  0.1264
  937MOL0     C23583   7.198   1.905   6.567 -0.3984 -0.4174 -0.0851
  937MOL0     C23584   7.246   1.865   6.443  0.2011 -0.4185  0.9743
  937MOL0     C23585   7.379   1.872   6.413 -0.4797  1.2637 -0.8056
  937MOL0     C23586   7.470   1.937   6.494  1.0412 -0.1168 -0.0074
  937MOL0     O23587   7.598   1.961   6.468  0.0280 -1.0507 -0.0469
  937MOL0     C23588   7.667   1.910   6.355  0.1313 -0.5738 -0.3022
  937MOL0     C23589   7.619   1.996   6.234 -0.1331  0.6845 -0.6657
  937MOL0     C23590   7.716   1.976   6.111 -0.8429 -0.1388 -0.0766
  937MOL0     C23591   7.850   2.045   6.127  0.0470  0.4034 -0.9580
  937MOL0     C23592   7.945   2.010   6.017  0.3248  0.6187  0.1902
  937MOL0     C23593   8.069   2.103   6.015  0.3979 -0.0693  0.6257
  937MOL0     C23594   8.174   2.065   5.906 -0.2584 -0.8314 -0.4080
  937MOL0     C23595   8.292   2.154   5.892 -1.3329  0.3221 -0.3459
  937MOL0    Cl23596   8.392   2.160   6.037 -0.1362 -0.1023  0.3944
  937MOL0     C23597   7.422   2.002   6.612 -0.1468  0.4834  0.4666
  937MOL0     C23598   7.287   1.984   6.646 -0.4145 -0.8096  0.0086
  937MOL0     O23599   7.086   1.905   6.833  0.6353  0.0847  0.1109
  937MOL0     C23600   6.820   1.802   6.861  0.6036  0.4752  0.3621
  937MOL0     C23601   6.684   1.760   6.864 -0.1435 -0.5359 -0.1239
  937MOL0     N23602   6.282   1.600   6.368  0.2109 -0.0591  0.3435
  937MOL0     N23603   6.270   1.475   6.344 -0.0087  0.8508  0.3636
  937MOL0     C23604   5.427   1.659   5.823  0.8893  0.3306  0.1170
  937MOL0     C23605   5.334   1.765   5.785 -0.0643  0.0587 -0.9305
  937MOL0     C23606   5.190   2.192   5.649 -0.1161 -0.5661 -0.5563
  937MOL0     C23607   5.067   2.173   5.727  0.6000  0.3473  0.4857
  937MOL0     C23608   4.962   2.263   5.717  0.2836  0.7413 -0.2318
  937MOL0     C23609   4.964   2.379   5.651 -0.1246 -0.2705  0.0530
  937MOL0     O23610   4.856   2.465   5.655  0.6346 -0.0413 -0.9284
  937MOL0     C23611   4.874   2.594   5.599  0.3520 -0.5455  0.6557
  937MOL0     C23612   4.823   2.594   5.450  0.2631 -0.8446 -0.5438
  937MOL0     C23613   4.866   2.726   5.375  0.3194  0.6462  0.4422
  937MOL0     C23614   5.026   2.731   5.357  0.5136  0.4566  0.0655
  937MOL0     C23615   5.077   2.834   5.273 -0.5565 -0.3752  0.2480
  937MOL0     C23616   5.099   2.935   5.205  0.7719 -0.2744  0.1483
  937MOL0     C23617   5.078   2.393   5.569  0.1277 -0.7222 -0.0238
  937MOL0     C23618   5.189   2.310   5.567 -0.5093 -0.4905  0.3309
  937MOL0     H23619   5.533   2.027   5.863  2.0709 -0.5057  0.1694
  937MOL0     H23620   5.681   1.833   5.943 -0.7358  2.6058  1.2352
  937MOL0     H23621   5.798   1.552   6.006 -1.7917 -2.6620  0.5767
  937MOL0     H23622   5.803   1.668   5.871  3.5755 -0.1245 -0.4849
  937MOL0     H23623   5.918   1.502   5.776  1.8426 -2.2951  2.2089
  937MOL0     H23624   5.757   1.446   5.720 -0.3866 -0.3061  1.0361
  937MOL0     H23625   5.863   1.249   5.805 -1.4429  0.2497 -0.0036
  937MOL0     H23626   5.758   1.299   5.931  1.9631  1.9458  2.7828
  937MOL0     H23627   6.059   1.328   5.934 -0.2387 -0.1723 -0.8319
  937MOL0     H23628   5.959   1.424   6.037 -1.7584 -1.0033  0.6602
  937MOL0     H23629   5.930   1.120   6.032  0.9391 -1.2203  1.8241
  937MOL0     H23630   5.846   1.227   6.130  0.1449  0.3151  0.4323
  937MOL0     H23631   6.126   1.292   6.140 -0.0363 -2.1497 -2.6251
  937MOL0     H23632   6.098   1.125   6.194  3.6874  0.7574 -0.3593
  937MOL0     H23633   5.949   1.357   6.331 -0.4094 -0.6685  3.3827
  937MOL0     H23634   5.926   1.190   6.366  0.6906 -1.3202 -0.1226
  937MOL0     H23635   6.208   1.217   6.385  0.0990 -0.2814  0.6957
  937MOL0     H23636   6.103   1.256   6.515 -1.0763 -0.1601  0.2756
  937MOL0     H23637   6.015   1.509   6.529  3.0309 -5.4031  2.9261
  937MOL0     H23638   6.046   1.800   6.470 -0.4215  0.4055 -0.1317
  937MOL0     H23639   6.214   1.849   6.508  0.0518  0.6389  2.7649
  937MOL0     H23640   6.063   1.656   6.685  0.2106  0.6169  1.8906
  937MOL0     H23641   6.092   1.829   6.717 -0.3384 -1.3774  1.4935
  937MOL0     H23642   6.253   1.693   6.843  1.2905  0.0841  0.0634
  937MOL0     H23643   6.268   1.593   6.695 -1.1111 -0.3939  1.4919
  937MOL0     H23644   6.355   1.880   6.689 -0.1754 -0.9183  1.0349
  937MOL0     H23645   6.417   1.731   6.600  1.0648  1.8626 -0.3841
  937MOL0     H23646   6.603   1.859   6.549  0.2122 -0.6507  0.1764
  937MOL0     H23647   6.829   1.888   6.535  1.8772 -1.7200 -0.4540
  937MOL0     H23648   7.165   1.826   6.382 -0.3310  1.7603  0.1973
  937MOL0     H23649   7.398   1.812   6.324 -2.6251 -2.0115  0.7530
  937MOL0     H23650   7.630   1.811   6.327 -0.5936 -0.0381 -1.3065
  937MOL0     H23651   7.775   1.910   6.372 -0.0955 -0.6359  1.3076
  937MOL0     H23652   7.609   2.102   6.259 -0.6256  0.8598 -1.5850
  937MOL0     H23653   7.518   1.969   6.204 -1.0374  1.1632  1.7594
  937MOL0     H23654   7.662   2.022   6.029 -3.0513 -2.8168 -0.2621
  937MOL0     H23655   7.716   1.872   6.078 -1.7460  0.7445 -3.1223
  937MOL0     H23656   7.836   2.153   6.130  0.1297  0.4475 -1.8650
  937MOL0     H23657   7.883   2.002   6.222 -3.1068 -0.8149 -0.3049
  937MOL0     H23658   7.903   2.025   5.917  0.4019 -1.0800 -0.1192
  937MOL0     H23659   7.964   1.905   6.042  1.0674  0.9808  1.2024
  937MOL0     H23660   8.113   2.099   6.115  1.0053 -0.7095  0.3420
  937MOL0     H23661   8.032   2.205   5.997  1.5986  0.2493 -0.1515
  937MOL0     H23662   8.220   1.969   5.932  1.8844  0.0335 -0.8166
  937MOL0     H23663   8.115   2.061   5.815  0.2359  4.6972 -1.3092
  937MOL0     H23664   8.261   2.256   5.869 -1.0311  0.8771  1.5218
  937MOL0     H23665   8.355   2.130   5.806 -1.6426  1.1889 -0.8205
  937MOL0     H23666   7.488   2.071   6.663  1.3304 -1.5091  1.3856
  937MOL0     H23667   7.251   2.037   6.733 -1.6960 -2.7262  0.7108
  937MOL0     H23668   6.884   1.767   6.941  0.0116 -2.0105 -0.1765
  937MOL0     H23669   6.643   1.708   6.950 -1.6141  0.2524 -0.3277
  937MOL0     H23670   5.400   1.554   5.810 -2.3599  1.0436  0.1928
  937MOL0     H23671   5.236   1.736   5.750  0.0268  0.9239 -1.9265
  937MOL0     H23672   5.062   2.093   5.799 -0.3323  0.4516  0.5430
  937MOL0     H23673   4.869   2.238   5.768 -0.7291  0.5516 -2.0697
  937MOL0     H23674   4.974   2.634   5.619  0.6366 -0.4648 -0.7913
  937MOL0     H23675   4.811   2.670   5.646 -1.2704 -0.4471 -1.5509
  937MOL0     H23676   4.874   2.520   5.387  1.0975  0.6859 -1.7395
  937MOL0     H23677   4.714   2.591   5.466  0.4233 -0.6557  0.6178
  937MOL0     H23678   4.830   2.817   5.424 -2.2070 -1.5836  3.1264
  937MOL0     H23679   4.820   2.714   5.277  1.3524  0.0990  0.0013
  937MOL0     H23680   5.072   2.756   5.453 -1.7887 -1.1415  1.6973
  937MOL0     H23681   5.070   2.635   5.326  0.8353  0.0400  1.7079
  937MOL0     H23682   5.126   3.025   5.155  0.7641 -0.9159 -1.0373
  937MOL0     H23683   5.081   2.483   5.509  3.3659 -1.7825 -1.7387
  937MOL0     H23684   5.279   2.329   5.509  0.3782  4.4426  2.7828
  938MOL0     O23685   9.079  10.962   9.418  1.0611  0.6973  0.4801
  938MOL0     C23686   9.012  10.863   9.406  0.2979  0.4010  0.4492
  938MOL0     O23687   8.879  10.864   9.373  0.0065 -0.1210  0.9214
  938MOL0     C23688   8.798  10.974   9.341 -0.1926  0.4306  0.5089
  938MOL0     C23689   8.678  10.945   9.277  0.3552 -0.6519  0.7288
  938MOL0     C23690   8.593  11.040   9.231 -0.7630  0.7894  1.1120
  938MOL0     C23691   8.617  11.178   9.261  0.0843  0.0799  0.5134
  938MOL0     O23692   8.533  11.267   9.201  0.0814 -0.2547 -0.6131
  938MOL0     C23693   8.572  11.404   9.188 -0.2754 -0.3945  0.6121
  938MOL0     C23694   8.668  11.443   9.081 -0.1941  0.4062 -0.4616
  938MOL0     C23695   8.592  11.433   8.950  0.8216  0.3704  0.3374
  938MOL0     C23696   8.664  11.501   8.834  0.8412  0.1437  0.0809
  938MOL0     C23697   8.586  11.485   8.706  0.6644  0.7351  0.6076
  938MOL0     C23698   8.433  11.509   8.700  0.3046  0.0915  0.1692
  938MOL0     C23699   8.375  11.465   8.567  0.1476 -0.1257  0.2919
  938MOL0     C23700   8.222  11.446   8.555  0.0420  0.0396  0.6578
  938MOL0     N23701   8.199  11.325   8.468  0.3216 -0.6184  0.4193
  938MOL0     C23702   8.103  11.230   8.492 -0.0872  0.0150  0.8297
  938MOL0     C23703   8.102  11.167   8.369  0.0254  0.4429 -0.9067
  938MOL0     C23704   8.003  11.060   8.347  0.2026  0.0971 -0.8399
  938MOL0     C23705   8.033  10.987   8.217  0.4805 -1.0324 -0.9015
  938MOL0     C23706   7.907  10.920   8.164 -0.4224  0.2134  0.2750
  938MOL0     C23707   7.850  10.804   8.224  0.1521  0.4109 -0.6343
  938MOL0     O23708   7.819  10.816   8.369  0.4379  0.6530 -0.0380
  938MOL0     C23709   7.686  10.841   8.415  0.5108 -0.7005  0.1067
  938MOL0     C23710   7.675  10.885   8.554 -0.0219 -0.4717  0.2306
  938MOL0     C23711   7.550  10.921   8.608  0.3667 -1.0323  0.8001
  938MOL0     C23712   7.435  10.901   8.534  1.5347 -0.4106  1.0862
  938MOL0     C23713   7.308  10.938   8.590  0.2003  0.0967  0.8160
  938MOL0     O23714   7.307  11.015   8.705 -0.1228  0.2697 -0.1441
  938MOL0     C23715   7.196  11.012   8.779 -0.0599  0.5083 -0.4035
  938MOL0     C23716   7.091  11.096   8.753  0.3243  0.9036  0.6710
  938MOL0     C23717   6.983  11.101   8.832 -0.0007  0.8692  0.7254
  938MOL0     C23718   6.991  11.040   8.956  0.5968 -0.1792  0.0553
  938MOL0     O23719   6.888  11.041   9.055 -0.3105 -0.0039 -0.5495
  938MOL0     C23720   6.757  11.090   9.026  0.5974  0.4696 -0.3166
  938MOL0     C23721   6.673  11.083   9.157 -0.1652 -0.2532  0.0114
  938MOL0     C23722   6.525  11.105   9.131 -0.3347  0.1049  0.5379
  938MOL0     C23723   6.501  11.238   9.058  0.5521 -1.0109  1.0109
  938MOL0     C23724   6.355  11.276   9.049  0.2573 -0.9339 -0.5705
  938MOL0     C23725   6.304  11.200   8.926 -0.3710  0.0292 -0.0862
  938MOL0     C23726   6.167  11.250   8.878  0.4323  0.4659  0.1710
  938MOL0     C23727   6.057  11.231   8.975  0.5189  0.3004 -0.3139
  938MOL0    Cl23728   6.045  11.375   9.076 -0.3039  0.3486 -0.0585
  938MOL0     C23729   7.091  10.941   8.978  0.7403 -0.6671 -0.2784
  938MOL0     C23730   7.200  10.929   8.892 -0.5000 -1.0521 -0.0555
  938MOL0     O23731   7.205  10.888   8.542 -0.0832 -1.1738  0.1758
  938MOL0     C23732   7.443  10.858   8.400  0.2064  0.1236  0.1869
  938MOL0     C23733   7.573  10.828   8.343  0.7260  0.2960 -0.1931
  938MOL0     N23734   8.188  11.229   8.279 -0.2369  1.2982 -0.1886
  938MOL0     N23735   8.234  11.335   8.338  0.3767 -0.0320 -0.7107
  938MOL0     C23736   8.729  11.212   9.342  1.5060  0.1364  0.8137
  938MOL0     C23737   8.826  11.110   9.372 -0.0938 -0.0259  0.0893
  938MOL0     C23738   9.075  10.725   9.423  0.8098 -0.7562  0.8877
  938MOL0     C23739   9.024  10.609   9.373 -1.2627  0.2361 -0.3130
  938MOL0     C23740   9.081  10.482   9.395  0.4194  0.5059 -0.6954
  938MOL0     C23741   9.190  10.463   9.478 -0.5663  0.4484 -0.4721
  938MOL0     O23742   9.255  10.349   9.507  0.7853 -0.1766  0.3839
  938MOL0     C23743   9.196  10.224   9.464 -0.2630  0.0808 -0.2136
  938MOL0     C23744   9.294  10.117   9.476 -0.1330  0.1959 -0.3593
  938MOL0     C23745   9.411  10.125   9.371  0.4621  0.4484  0.0885
  938MOL0     C23746   9.514  10.015   9.393 -0.3412 -0.5748 -0.0715
  938MOL0     C23747   9.595  10.038   9.501 -0.2723 -0.3964 -0.3632
  938MOL0     C23748   9.676  10.027   9.591 -0.1808  0.2984  1.3303
  938MOL0     C23749   9.239  10.583   9.537  0.5871  0.1116  0.2300
  938MOL0     C23750   9.186  10.711   9.510  0.3038  0.3496  1.3273
  938MOL0     H23751   8.646  10.849   9.237 -0.5623 -0.3545  0.7239
  938MOL0     H23752   8.503  11.014   9.177 -0.0695 -0.1345  0.3849
  938MOL0     H23753   8.601  11.433   9.289 -0.8692  0.2658  0.5997
  938MOL0     H23754   8.481  11.462   9.172  1.4845  2.4138  0.1876
  938MOL0     H23755   8.759  11.382   9.090 -0.4347 -0.2506 -2.1160
  938MOL0     H23756   8.691  11.547   9.106 -3.3773  1.1612 -0.3521
  938MOL0     H23757   8.497  11.486   8.958 -0.1120 -0.4797 -3.2303
  938MOL0     H23758   8.566  11.330   8.926  0.4600  0.8406 -1.4860
  938MOL0     H23759   8.669  11.608   8.855 -2.3358  0.7863 -1.7270
  938MOL0     H23760   8.765  11.460   8.827 -0.2661 -3.5785  2.5452
  938MOL0     H23761   8.601  11.382   8.671 -2.8239  0.2225  0.3227
  938MOL0     H23762   8.624  11.565   8.642  1.8520 -1.5024 -1.6974
  938MOL0     H23763   8.402  11.613   8.719  0.1218  0.0053  0.3434
  938MOL0     H23764   8.382  11.445   8.772 -0.5428 -0.1455 -0.6311
  938MOL0     H23765   8.410  11.532   8.487  1.1153  2.5042  2.7423
  938MOL0     H23766   8.416  11.367   8.544 -2.7023 -1.3723  0.1087
  938MOL0     H23767   8.167  11.538   8.533 -0.2242 -0.2923 -0.0814
  938MOL0     H23768   8.185  11.416   8.654 -0.0779 -0.9306  0.3338
  938MOL0     H23769   8.030  11.210   8.570 -0.8983 -0.6464 -0.0868
  938MOL0     H23770   7.902  11.100   8.333 -0.4419 -0.5624  1.5678
  938MOL0     H23771   8.013  10.986   8.427  1.5650  1.0660 -0.0773
  938MOL0     H23772   8.102  10.907   8.246  0.6299 -0.7467 -0.4650
  938MOL0     H23773   8.076  11.046   8.135 -0.3707  4.1098  1.9209
  938MOL0     H23774   7.830  10.997   8.154  0.3153  0.8635 -0.5370
  938MOL0     H23775   7.933  10.890   8.062  0.1629  3.5745 -0.6775
  938MOL0     H23776   7.927  10.727   8.217  3.3357  3.3567 -0.5980
  938MOL0     H23777   7.775  10.771   8.152  1.4401 -2.6351 -0.7536
  938MOL0     H23778   7.768  10.911   8.602  0.4302  0.2603 -1.0027
  938MOL0     H23779   7.562  10.976   8.701  1.5651 -0.8947  0.5814
  938MOL0     H23780   7.093  11.140   8.654  2.2114  2.1613  1.2107
  938MOL0     H23781   6.905  11.170   8.801 -0.4245 -0.4749 -1.4305
  938MOL0     H23782   6.712  11.022   8.953 -0.7875 -1.0130  1.8301
  938MOL0     H23783   6.759  11.195   8.995  0.2289  0.8882  1.0298
  938MOL0     H23784   6.719  11.166   9.211  1.7647 -0.4589 -1.2067
  938MOL0     H23785   6.686  10.989   9.210  1.5466 -0.1356 -0.1257
  938MOL0     H23786   6.459  11.104   9.219 -3.6962  0.5108 -1.7793
  938MOL0     H23787   6.491  11.026   9.064  0.3526 -0.6023  1.0111
  938MOL0     H23788   6.551  11.322   9.108  0.0814 -1.2902  1.9658
  938MOL0     H23789   6.543  11.233   8.957 -2.3231 -3.9738 -0.2089
  938MOL0     H23790   6.346  11.384   9.033 -0.7274 -0.8187  0.6473
  938MOL0     H23791   6.305  11.257   9.145  0.3323 -1.0499 -0.5536
  938MOL0     H23792   6.316  11.091   8.931 -1.8824 -0.0971  1.8851
  938MOL0     H23793   6.380  11.236   8.855  2.8110 -2.0578  1.9877
  938MOL0     H23794   6.180  11.350   8.834  4.6092  0.2778  0.5511
  938MOL0     H23795   6.135  11.186   8.796 -1.1760  0.3212  0.8824
  938MOL0     H23796   6.073  11.148   9.045 -1.3089 -0.8075 -1.1235
  938MOL0     H23797   5.962  11.212   8.923 -1.1937 -2.0749  3.2748
  938MOL0     H23798   7.078  10.888   9.071 -1.2611  1.4645  0.7726
  938MOL0     H23799   7.278  10.862   8.927 -1.6882 -1.2482  2.4057
  938MOL0     H23800   7.350  10.843   8.347 -0.7596 -1.4356  2.1972
  938MOL0     H23801   7.565  10.792   8.241  0.5984 -2.6269  0.7665
  938MOL0     H23802   8.743  11.318   9.360  0.0320  0.7132 -1.0623
  938MOL0     H23803   8.916  11.130   9.429  0.4986  2.5914 -1.6059
  938MOL0     H23804   8.943  10.607   9.300 -0.6776 -3.5969 -1.0319
  938MOL0     H23805   9.049  10.394   9.339  2.6469 -0.3274 -0.7885
  938MOL0     H23806   9.151  10.231   9.364 -2.4969  3.5027  0.8422
  938MOL0     H23807   9.113  10.216   9.535  0.0273 -0.6454  0.0544
  938MOL0     H23808   9.342  10.119   9.574 -0.6614 -0.8870 -0.0641
  938MOL0     H23809   9.236  10.026   9.456 -0.1077 -0.4820  2.3561
  938MOL0     H23810   9.467  10.219   9.373 -0.2929  0.9178 -0.3335
  938MOL0     H23811   9.374  10.100   9.271  0.6443  1.7041 -0.3124
  938MOL0     H23812   9.460   9.921   9.402 -2.8299  0.8589  1.1603
  938MOL0     H23813   9.565   9.995   9.299  1.0675 -2.5943  1.0501
  938MOL0     H23814   9.755   9.995   9.656  0.9328 -0.8094 -0.5019
  938MOL0     H23815   9.324  10.586   9.605 -0.7999  0.6748  1.9922
  938MOL0     H23816   9.235  10.795   9.558 -1.3498  0.3013  3.2084
  939MOL0     O23817   6.661   1.736   7.230 -0.5172 -0.6483 -0.1721
  939MOL0     C23818   6.713   1.624   7.216 -1.1136 -0.1946  0.8600
  939MOL0     O23819   6.657   1.501   7.237  0.3056 -0.4411 -0.4066
  939MOL0     C23820   6.520   1.498   7.266 -0.5610  0.2099  1.7462
  939MOL0     C23821   6.420   1.574   7.202 -0.7577  0.7692  0.1863
  939MOL0     C23822   6.288   1.551   7.244 -0.0261 -0.7555  0.7620
  939MOL0     C23823   6.253   1.458   7.344 -0.0593 -0.1091  0.9845
  939MOL0     O23824   6.125   1.431   7.364  0.0207 -0.6011 -0.3941
  939MOL0     C23825   6.095   1.328   7.462  0.8568 -1.2574  0.6293
  939MOL0     C23826   5.946   1.301   7.440  0.6248 -0.8462 -0.3531
  939MOL0     C23827   5.847   1.413   7.475  0.1099 -1.2035  0.5264
  939MOL0     C23828   5.700   1.373   7.432 -0.0512 -0.6608  0.3724
  939MOL0     C23829   5.600   1.481   7.441 -0.0321 -1.0756  0.6170
  939MOL0     C23830   5.564   1.514   7.589  0.7182 -1.1258  1.0241
  939MOL0     C23831   5.492   1.652   7.620  0.7096 -0.3402  0.5888
  939MOL0     C23832   5.383   1.679   7.518  0.0483 -0.2426  0.8628
  939MOL0     N23833   5.252   1.624   7.552 -0.3905  0.1037  0.5385
  939MOL0     C23834   5.133   1.669   7.495 -0.4446  0.6158  0.4880
  939MOL0     C23835   5.040   1.572   7.540 -0.1930 -0.3883 -0.7713
  939MOL0     C23836   4.895   1.563   7.543 -0.1257 -0.1372  0.0890
  939MOL0     C23837   4.846   1.705   7.593  0.4943  0.8074  1.0172
  939MOL0     C23838   4.710   1.701   7.660 -0.5582 -1.0741  0.4280
  939MOL0     C23839   4.584   1.676   7.579  0.8593  0.1516  0.5546
  939MOL0     O23840   4.556   1.791   7.497  0.9579  0.1882 -0.7268
  939MOL0     C23841   4.493   1.777   7.380  0.9995  0.0026  0.4164
  939MOL0     C23842   4.524   1.667   7.291  0.4765 -0.1843 -0.0298
  939MOL0     C23843   4.460   1.673   7.165  0.2073  0.9823  0.7711
  939MOL0     C23844   4.364   1.776   7.132 -0.5685  0.6244  0.2813
  939MOL0     C23845   4.291   1.780   6.997 -0.2512 -0.3354 -0.2601
  939MOL0     O23846   4.174   1.858   6.980 -0.0525  0.0615 -0.1410
  939MOL0     C23847   4.138   1.875   6.849  0.5558 -0.2508  0.4936
  939MOL0     C23848   4.041   1.797   6.785  0.2773  1.0240  0.1909
  939MOL0     C23849   4.030   1.811   6.642 -0.6194  0.1891  0.0791
  939MOL0     C23850   4.099   1.907   6.567  0.1450  0.2738  0.0729
  939MOL0     O23851   4.075   1.908   6.426  0.1460  0.2249 -0.4971
  939MOL0     C23852   3.975   1.994   6.383  0.1726  0.6266 -0.4832
  939MOL0     C23853   3.835   1.918   6.397 -0.5776 -0.6517  0.8559
  939MOL0     C23854   3.728   1.976   6.303  0.1686  0.9795  0.5967
  939MOL0     C23855   3.608   1.889   6.328 -0.7731 -0.5893 -0.1486
  939MOL0     C23856   3.494   1.896   6.217 -0.2614  0.1851 -0.1464
  939MOL0     C23857   3.527   1.836   6.081 -0.2774 -0.2982  0.6061
  939MOL0     C23858   3.521   1.686   6.073 -0.4338 -0.6929  0.0194
  939MOL0     C23859   3.522   1.642   5.929  0.3657  0.5570  0.4253
  939MOL0    Cl23860   3.393   1.721   5.824  0.1437  0.3985 -0.1597
  939MOL0     C23861   4.192   1.979   6.639  1.4602 -0.2589  1.7437
  939MOL0     C23862   4.208   1.970   6.773 -0.2922 -0.1308 -0.4669
  939MOL0     O23863   4.329   1.702   6.912  0.2067  0.0275  0.6936
  939MOL0     C23864   4.337   1.878   7.219  0.6477 -0.4088 -0.4218
  939MOL0     C23865   4.398   1.878   7.339 -0.4020  0.5889 -0.0448
  939MOL0     N23866   5.106   1.465   7.605  0.3927 -0.0357 -0.8277
  939MOL0     N23867   5.230   1.500   7.605  0.9154 -0.2939  0.5716
  939MOL0     C23868   6.356   1.392   7.414  0.1932 -0.8726  1.2339
  939MOL0     C23869   6.482   1.415   7.369  0.2321  0.4673  1.0644
  939MOL0     C23870   6.854   1.627   7.193  0.3932  0.5251 -0.0681
  939MOL0     C23871   6.944   1.509   7.181  0.5705 -0.7692 -0.3133
  939MOL0     C23872   7.075   1.524   7.144  1.3426 -0.1263  0.9758
  939MOL0     C23873   7.134   1.647   7.129 -0.2973 -0.3150 -0.2680
  939MOL0     O23874   7.269   1.673   7.120 -0.1948 -0.8279  0.3104
  939MOL0     C23875   7.359   1.563   7.097  0.2046  0.7498 -0.1466
  939MOL0     C23876   7.478   1.605   7.022 -0.4022 -0.2081  1.0348
  939MOL0     C23877   7.446   1.659   6.880  0.1087  0.6114  0.4318
  939MOL0     C23878   7.548   1.737   6.807 -0.1404 -0.6857  0.4763
  939MOL0     C23879   7.669   1.660   6.780 -1.1730 -0.2242 -0.0499
  939MOL0     C23880   7.773   1.595   6.791 -0.4601  1.3004  0.6813
  939MOL0     C23881   7.055   1.760   7.159  1.2388 -0.1316  0.3530
  939MOL0     C23882   6.923   1.749   7.189  0.1585 -0.3147 -0.6461
  939MOL0     H23883   6.440   1.652   7.129 -2.0733  0.8857 -0.0628
  939MOL0     H23884   6.212   1.618   7.205  0.1317 -0.5202  0.8542
  939MOL0     H23885   6.111   1.354   7.567 -2.4429 -1.3711  1.2675
  939MOL0     H23886   6.146   1.239   7.426 -0.8229 -2.7431  1.7786
  939MOL0     H23887   5.915   1.213   7.495 -1.0169 -2.5429 -3.6807
  939MOL0     H23888   5.941   1.276   7.333  2.0713 -1.1428 -0.3693
  939MOL0     H23889   5.884   1.509   7.439  0.6446 -0.5556  2.6783
  939MOL0     H23890   5.853   1.417   7.584 -0.8092 -2.8482  0.6728
  939MOL0     H23891   5.714   1.340   7.328  0.2883 -0.9378  0.5058
  939MOL0     H23892   5.659   1.290   7.490  2.3162 -1.3582  1.1371
  939MOL0     H23893   5.509   1.461   7.385 -0.1250  0.9330 -0.0190
  939MOL0     H23894   5.641   1.565   7.384  0.0263 -1.8174 -0.4423
  939MOL0     H23895   5.656   1.506   7.648  0.6811  0.2080  1.2907
  939MOL0     H23896   5.500   1.429   7.615 -0.3648 -0.6813 -0.1257
  939MOL0     H23897   5.452   1.643   7.722  1.7686  2.3383  1.3316
  939MOL0     H23898   5.572   1.726   7.611  0.1866  0.0585 -0.9726
  939MOL0     H23899   5.414   1.635   7.423 -2.2293  1.0871 -0.5734
  939MOL0     H23900   5.363   1.786   7.513  0.8000 -0.0653  1.4784
  939MOL0     H23901   5.112   1.765   7.449 -1.3674  1.1037  1.8594
  939MOL0     H23902   4.875   1.483   7.615 -0.4069 -1.1611 -1.1044
  939MOL0     H23903   4.871   1.525   7.443 -2.2685  0.5308  0.2914
  939MOL0     H23904   4.843   1.781   7.514 -1.6980 -0.2733 -0.0444
  939MOL0     H23905   4.917   1.750   7.663  2.8389 -0.6423 -0.3136
  939MOL0     H23906   4.719   1.636   7.748  1.2392  0.2113  1.2446
  939MOL0     H23907   4.696   1.804   7.695 -0.2031 -0.8125 -0.1905
  939MOL0     H23908   4.507   1.653   7.654 -1.0173 -0.0145 -1.3058
  939MOL0     H23909   4.608   1.585   7.522  0.7630  0.0388  0.6931
  939MOL0     H23910   4.601   1.596   7.319 -1.4584 -1.2144  3.1851
  939MOL0     H23911   4.490   1.599   7.091 -0.2891  1.2697  0.2714
  939MOL0     H23912   3.975   1.723   6.826 -1.5970  0.4271 -3.4919
  939MOL0     H23913   3.963   1.748   6.584 -1.1792  0.4309  0.4457
  939MOL0     H23914   3.986   2.011   6.275 -0.5138 -1.3343 -0.9145
  939MOL0     H23915   3.964   2.086   6.442 -3.4243 -0.1209  0.2566
  939MOL0     H23916   3.800   1.935   6.500 -0.6918  1.4597  0.5166
  939MOL0     H23917   3.854   1.812   6.381 -0.8834 -0.3128 -2.5726
  939MOL0     H23918   3.769   1.979   6.201  0.8094 -2.4860  0.6382
  939MOL0     H23919   3.705   2.079   6.332 -3.3482  0.8404 -1.2431
  939MOL0     H23920   3.640   1.786   6.346  0.8110 -0.0406  0.3915
  939MOL0     H23921   3.573   1.932   6.422 -2.0886  1.0096 -1.2925
  939MOL0     H23922   3.465   1.997   6.188 -1.5545 -0.4890 -1.3056
  939MOL0     H23923   3.398   1.857   6.250 -1.1619  0.6202 -2.1384
  939MOL0     H23924   3.625   1.868   6.044 -0.0211 -3.5822 -1.9604
  939MOL0     H23925   3.464   1.883   6.005  2.7518  0.0878 -1.8585
  939MOL0     H23926   3.606   1.641   6.125  2.2736  1.2384 -2.4238
  939MOL0     H23927   3.425   1.657   6.117 -0.3395 -1.1592 -0.0797
  939MOL0     H23928   3.506   1.536   5.949  1.3680  0.4798  0.9016
  939MOL0     H23929   3.617   1.681   5.892  1.1171 -0.0357  1.6781
  939MOL0     H23930   4.250   2.048   6.579 -0.4129  0.1394  0.2681
  939MOL0     H23931   4.280   2.031   6.827  2.6546 -0.5909 -3.5166
  939MOL0     H23932   4.278   1.965   7.191 -1.2934 -0.9248  1.7921
  939MOL0     H23933   4.381   1.974   7.387  1.7528  0.1643  1.7189
  939MOL0     H23934   6.342   1.329   7.501 -2.5283  0.9325  2.2475
  939MOL0     H23935   6.560   1.348   7.403 -0.4682 -0.4761  0.8562
  939MOL0     H23936   6.895   1.413   7.188  0.7367 -0.7143  4.3910
  939MOL0     H23937   7.127   1.430   7.127 -0.6501 -0.9710 -1.0023
  939MOL0     H23938   7.306   1.480   7.050 -2.4340  1.7841  0.8330
  939MOL0     H23939   7.404   1.518   7.185  2.8167  1.8773 -0.8100
  939MOL0     H23940   7.537   1.664   7.093 -1.5567  0.8312  1.1491
  939MOL0     H23941   7.529   1.510   7.003 -1.4064 -0.0936 -3.2578
  939MOL0     H23942   7.356   1.721   6.883  0.0413  1.0752 -4.1811
  939MOL0     H23943   7.415   1.569   6.826 -2.4977  1.2114  0.7975
  939MOL0     H23944   7.507   1.783   6.717  0.1566 -2.5333 -0.6674
  939MOL0     H23945   7.586   1.807   6.882  2.7972  0.5758 -1.9801
  939MOL0     H23946   7.867   1.543   6.787 -1.8491 -1.3605  0.5754
  939MOL0     H23947   7.085   1.863   7.142 -3.1412  1.4094  0.7871
  939MOL0     H23948   6.867   1.842   7.188  1.5257  0.6272  1.6976
  940MOL0     O23949   3.295   0.156   7.518  0.2354 -0.4332  0.5507
  940MOL0     C23950   3.185   0.092   7.536 -0.2398  0.4161 -0.1960
  940MOL0     O23951   3.170  -0.042   7.553  0.5616  0.3118  0.0125
  940MOL0     C23952   3.286  -0.109   7.556 -0.4557 -0.3073 -0.3764
  940MOL0     C23953   3.376  -0.120   7.670 -0.0257 -0.6992 -0.0305
  940MOL0     C23954   3.500  -0.183   7.667 -0.6376  0.1250  0.7263
  940MOL0     C23955   3.539  -0.253   7.544  0.7897 -0.3755 -1.4063
  940MOL0     O23956   3.655  -0.328   7.535 -0.1137 -0.3101 -0.4945
  940MOL0     C23957   3.769  -0.301   7.618  0.2965 -0.1159 -0.0059
  940MOL0     C23958   3.896  -0.382   7.567  1.4605 -0.3475 -0.2378
  940MOL0     C23959   3.923  -0.351   7.419 -0.2072  0.1861 -0.8312
  940MOL0     C23960   4.056  -0.417   7.363 -0.5514  0.0301 -1.1115
  940MOL0     C23961   4.075  -0.417   7.211 -0.1537 -0.6132 -0.8925
  940MOL0     C23962   4.088  -0.277   7.152 -0.8111 -0.3463  0.4031
  940MOL0     C23963   4.215  -0.265   7.069 -0.2845 -0.5674 -0.0309
  940MOL0     C23964   4.211  -0.135   6.995 -0.2831 -0.7302 -0.8039
  940MOL0     N23965   4.338  -0.103   6.934  0.1864 -0.6046  0.4685
  940MOL0     C23966   4.461  -0.050   6.992 -0.1110  0.7345 -0.5860
  940MOL0     C23967   4.537  -0.008   6.886 -0.4978 -0.1469  0.1823
  940MOL0     C23968   4.660   0.077   6.909 -0.4260  0.3343 -0.3180
  940MOL0     C23969   4.795   0.005   6.947  0.2938 -0.4774 -0.2367
  940MOL0     C23970   4.834  -0.072   6.825 -0.4693  0.4884 -0.5693
  940MOL0     C23971   4.987  -0.107   6.820 -0.3511  0.2940  0.2306
  940MOL0     O23972   5.004  -0.204   6.932 -0.0631  0.3395 -0.4858
  940MOL0     C23973   5.092  -0.307   6.921 -0.5915  0.7050  0.7467
  940MOL0     C23974   5.051  -0.439   6.964  0.4800  0.6046 -0.1034
  940MOL0     C23975   5.148  -0.538   6.958  0.9387  1.4798  0.3422
  940MOL0     C23976   5.276  -0.515   6.922 -0.7052  1.0986  0.4314
  940MOL0     C23977   5.369  -0.629   6.918  0.8460  0.0183  1.0172
  940MOL0     O23978   5.482  -0.625   6.843  0.2999 -0.4479  0.0400
  940MOL0     C23979   5.543  -0.747   6.817 -0.0067  0.0373 -0.3637
  940MOL0     C23980   5.548  -0.778   6.687 -0.6303  0.4395 -0.4262
  940MOL0     C23981   5.606  -0.890   6.635 -0.0185 -0.2919  0.4954
  940MOL0     C23982   5.680  -0.973   6.718  0.5622 -0.2536 -0.0906
  940MOL0     O23983   5.737  -1.091   6.687  1.1004  0.1336  0.5543
  940MOL0     C23984   5.683  -1.150   6.561  0.1275  0.1169 -0.2805
  940MOL0     C23985   5.792  -1.243   6.519  0.2779 -0.1080  0.2394
  940MOL0     C23986   5.728  -1.339   6.414 -0.8931 -0.3774  0.9421
  940MOL0     C23987   5.606  -1.424   6.461  0.2963  0.3004  1.1167
  940MOL0     C23988   5.596  -1.556   6.388 -0.5753  0.0736 -0.3667
  940MOL0     C23989   5.489  -1.653   6.428 -0.4631  0.0854 -0.7566
  940MOL0     C23990   5.473  -1.759   6.322  0.2854 -0.5228  0.1870
  940MOL0     C23991   5.379  -1.865   6.367  0.2293 -0.1972 -0.6489
  940MOL0    Cl23992   5.348  -1.970   6.225  0.2723  0.2719  0.5415
  940MOL0     C23993   5.690  -0.945   6.852  0.1678 -0.7472  0.3944
  940MOL0     C23994   5.620  -0.833   6.910  0.7034 -0.5788 -0.1142
  940MOL0     O23995   5.350  -0.725   6.999 -0.2005 -0.6381  0.3034
  940MOL0     C23996   5.313  -0.390   6.867 -0.8852 -0.9737  0.2585
  940MOL0     C23997   5.220  -0.284   6.867  0.1918 -0.3600  0.7533
  940MOL0     N23998   4.473  -0.058   6.770  0.1885  0.2221  0.0567
  940MOL0     N23999   4.354  -0.115   6.803  0.0217  0.3875 -0.8662
  940MOL0     C24000   3.438  -0.245   7.440 -0.0304  0.0631  0.0888
  940MOL0     C24001   3.314  -0.187   7.449 -0.0060 -0.6266  0.1549
  940MOL0     C24002   3.059   0.173   7.547 -0.4729  0.0871 -1.0158
  940MOL0     C24003   3.061   0.315   7.544 -0.8221 -0.4872 -0.4855
  940MOL0     C24004   2.939   0.395   7.549  0.0694 -0.2838 -0.6025
  940MOL0     C24005   2.815   0.328   7.568  0.0765 -0.4160  1.3533
  940MOL0     O24006   2.693   0.390   7.586  0.3538  0.6151 -0.7593
  940MOL0     C24007   2.683   0.519   7.526 -0.1171 -0.2631  0.6914
  940MOL0     C24008   2.628   0.614   7.624 -0.5823 -0.4858  0.9305
  940MOL0     C24009   2.499   0.553   7.674 -0.5735  0.0127  0.3478
  940MOL0     C24010   2.407   0.636   7.766  0.4252 -0.2795  0.4644
  940MOL0     C24011   2.357   0.765   7.701 -0.1369  0.6423  0.0070
  940MOL0     C24012   2.315   0.846   7.624 -0.4274 -0.1662  0.5062
  940MOL0     C24013   2.811   0.186   7.563 -0.1566 -1.3207  0.5610
  940MOL0     C24014   2.932   0.116   7.544  0.3568  0.2906  0.6711
  940MOL0     H24015   3.348  -0.067   7.761  1.0191  0.4744 -0.3801
  940MOL0     H24016   3.557  -0.172   7.758 -1.5766  0.4300  1.2884
  940MOL0     H24017   3.748  -0.321   7.724  1.2818  2.8848  0.8812
  940MOL0     H24018   3.779  -0.192   7.628 -2.8187  0.5863 -2.6799
  940MOL0     H24019   3.877  -0.487   7.589 -1.1491  0.5011  2.1939
  940MOL0     H24020   3.984  -0.335   7.612  2.2763 -0.3263 -1.7858
  940MOL0     H24021   3.928  -0.243   7.411  0.4778  0.2689  0.4172
  940MOL0     H24022   3.847  -0.388   7.349 -0.3701  1.7948 -1.5251
  940MOL0     H24023   4.139  -0.363   7.409 -2.3404  1.1987  0.9686
  940MOL0     H24024   4.073  -0.517   7.404 -0.5645  0.7814  0.8331
  940MOL0     H24025   3.986  -0.463   7.168 -0.0928 -0.1243 -1.5490
  940MOL0     H24026   4.152  -0.487   7.177 -2.2354 -3.3152 -0.4618
  940MOL0     H24027   4.087  -0.200   7.230  1.2167 -0.1977  0.3315
  940MOL0     H24028   4.002  -0.255   7.089 -1.4754  2.9930  2.2223
  940MOL0     H24029   4.309  -0.255   7.125  0.3369  2.0152 -1.3849
  940MOL0     H24030   4.232  -0.351   7.004  1.3931 -0.2773 -0.0145
  940MOL0     H24031   4.202  -0.062   7.075 -3.3756 -0.2194 -1.4872
  940MOL0     H24032   4.128  -0.133   6.923  1.4409  1.8397 -2.8625
  940MOL0     H24033   4.480  -0.043   7.098  1.0802 -0.8998 -0.6545
  940MOL0     H24034   4.630   0.152   6.983  0.9074 -1.5206  2.2769
  940MOL0     H24035   4.681   0.139   6.821  0.7966  2.6819  1.5202
  940MOL0     H24036   4.786  -0.058   7.035 -0.7480 -1.2751 -0.8966
  940MOL0     H24037   4.859   0.092   6.964  0.6074 -0.8864  0.7288
  940MOL0     H24038   4.780  -0.166   6.811 -0.7898  0.3534  1.3312
  940MOL0     H24039   4.814  -0.022   6.730 -1.1597 -1.5185 -1.5164
  940MOL0     H24040   5.049  -0.018   6.836  1.9631 -0.8770 -1.5848
  940MOL0     H24041   5.023  -0.137   6.721  1.2567  1.6249  0.3619
  940MOL0     H24042   4.950  -0.445   7.004  1.2176  2.6621  2.3410
  940MOL0     H24043   5.121  -0.642   6.968 -1.0901  1.5717 -2.6123
  940MOL0     H24044   5.482  -0.717   6.625 -2.2171  1.0877  1.7941
  940MOL0     H24045   5.600  -0.912   6.529  2.1509 -0.4092  0.3537
  940MOL0     H24046   5.668  -1.083   6.476 -1.9122  2.7281  1.9803
  940MOL0     H24047   5.591  -1.196   6.597 -0.8598  2.0627 -0.1919
  940MOL0     H24048   5.815  -1.310   6.601  0.4701  1.2409  1.3271
  940MOL0     H24049   5.882  -1.193   6.480 -1.3961  3.4855  0.5275
  940MOL0     H24050   5.814  -1.405   6.396 -0.0521  1.0378 -0.5435
  940MOL0     H24051   5.707  -1.285   6.322 -0.2707 -0.8724  0.4964
  940MOL0     H24052   5.603  -1.450   6.567  1.1807  0.3241  1.1542
  940MOL0     H24053   5.522  -1.359   6.437  3.0473  4.2837  1.3203
  940MOL0     H24054   5.697  -1.600   6.386 -0.5254  0.1697  0.0543
  940MOL0     H24055   5.582  -1.527   6.283 -1.2805 -2.1428 -0.9372
  940MOL0     H24056   5.391  -1.608   6.449 -0.7641 -2.1304  3.8635
  940MOL0     H24057   5.514  -1.705   6.520  1.3430 -1.5600 -2.0901
  940MOL0     H24058   5.442  -1.715   6.227  0.4906  1.6630  1.0876
  940MOL0     H24059   5.568  -1.812   6.307 -0.2236 -1.5789  0.5514
  940MOL0     H24060   5.296  -1.814   6.418  1.1192 -0.6591  1.3314
  940MOL0     H24061   5.431  -1.920   6.445 -0.1077  0.2240 -0.1172
  940MOL0     H24062   5.745  -1.002   6.926  1.9814  1.5482  0.9613
  940MOL0     H24063   5.601  -0.820   7.016 -1.6123 -2.9843 -0.1289
  940MOL0     H24064   5.412  -0.372   6.826 -1.4023  0.5747 -0.3774
  940MOL0     H24065   5.256  -0.186   6.840 -0.4406  0.2247  1.9548
  940MOL0     H24066   3.469  -0.308   7.357  2.7713  1.7273 -0.2361
  940MOL0     H24067   3.249  -0.198   7.363  5.0024 -5.0886 -3.7017
  940MOL0     H24068   3.159   0.361   7.543  0.4455 -2.9382  1.0460
  940MOL0     H24069   2.939   0.503   7.560 -2.8326 -0.3329  1.1548
  940MOL0     H24070   2.612   0.520   7.442 -0.5902  0.3046  1.0893
  940MOL0     H24071   2.770   0.568   7.480 -1.2194  1.7351  0.6226
  940MOL0     H24072   2.703   0.623   7.703 -0.7138 -2.6475  1.3697
  940MOL0     H24073   2.612   0.716   7.589 -0.3525 -0.7400  0.0570
  940MOL0     H24074   2.523   0.464   7.734 -0.3134 -0.5518 -0.5647
  940MOL0     H24075   2.441   0.506   7.594  0.0902 -1.7208  0.8315
  940MOL0     H24076   2.315   0.582   7.788  0.2152 -1.1377 -2.1329
  940MOL0     H24077   2.464   0.666   7.855  2.1993  1.9585 -1.2785
  940MOL0     H24078   2.259   0.900   7.550  0.3555  2.1910  1.5443
  940MOL0     H24079   2.721   0.126   7.569 -0.7873 -0.7727 -2.2413
  940MOL0     H24080   2.910   0.013   7.518  0.5843  0.1695  0.9606
  941MOL0     O24081   2.661   8.886   5.790  0.3433 -0.1039  0.0758
  941MOL0     C24082   2.710   8.996   5.803  0.0972  0.8918 -0.2319
  941MOL0     O24083   2.842   9.018   5.819 -0.8148 -0.4895  1.0751
  941MOL0     C24084   2.936   8.916   5.821 -0.2646 -0.7208 -0.0826
  941MOL0     C24085   3.049   8.955   5.903  0.4192 -0.1137  0.2953
  941MOL0     C24086   3.165   8.874   5.922 -0.6144  0.4108  0.2440
  941MOL0     C24087   3.164   8.747   5.862  0.1947  0.4754  0.3964
  941MOL0     O24088   3.273   8.658   5.877 -0.9476  0.0617  0.2137
  941MOL0     C24089   3.323   8.648   6.013  0.8970  0.6193 -0.7796
  941MOL0     C24090   3.402   8.524   6.041 -0.5146  0.1805 -0.7039
  941MOL0     C24091   3.324   8.391   6.048 -0.3771  1.3008 -0.4099
  941MOL0     C24092   3.421   8.275   6.066  0.0232  0.6040  0.3837
  941MOL0     C24093   3.359   8.146   6.116  1.0276  1.5013  0.9849
  941MOL0     C24094   3.464   8.031   6.153 -0.5713 -0.4270 -0.7416
  941MOL0     C24095   3.581   8.022   6.055 -0.5082  0.0538  0.4106
  941MOL0     C24096   3.667   7.892   6.086  0.0963 -0.0885  0.0951
  941MOL0     N24097   3.779   7.880   6.002 -0.1308 -0.5600 -0.5155
  941MOL0     C24098   3.889   7.966   5.994 -0.0232  0.5521 -0.3903
  941MOL0     C24099   3.965   7.910   5.898  0.8744  0.5853  0.1477
  941MOL0     C24100   4.085   7.974   5.839 -1.4456 -0.0243 -0.2689
  941MOL0     C24101   4.048   8.109   5.770  0.0021 -0.4669  0.0708
  941MOL0     C24102   3.988   8.095   5.626  0.2198 -0.6037  0.3227
  941MOL0     C24103   3.844   8.088   5.635  0.2403 -0.4360  0.5130
  941MOL0     O24104   3.792   8.221   5.660  0.3417  0.5557 -0.5437
  941MOL0     C24105   3.661   8.250   5.657  1.0760  1.3224 -0.6525
  941MOL0     C24106   3.559   8.152   5.645  0.1801 -0.1023 -0.1691
  941MOL0     C24107   3.418   8.185   5.649  0.1206 -0.5019  0.4781
  941MOL0     C24108   3.380   8.322   5.638  0.8324  0.6143  1.2283
  941MOL0     C24109   3.250   8.373   5.613 -1.0404 -0.6911  0.0154
  941MOL0     O24110   3.145   8.288   5.640  0.1670 -0.5852  1.1272
  941MOL0     C24111   3.016   8.332   5.608  1.1033  0.0114  0.0954
  941MOL0     C24112   2.976   8.335   5.474  0.2627 -0.1175  0.2030
  941MOL0     C24113   2.846   8.371   5.450 -0.2303 -0.4534  0.9867
  941MOL0     C24114   2.750   8.414   5.542 -1.2259  0.1080 -0.8718
  941MOL0     O24115   2.627   8.461   5.497 -0.0567 -0.2939  0.3120
  941MOL0     C24116   2.570   8.570   5.578  0.2236 -0.7936 -0.6101
  941MOL0     C24117   2.489   8.660   5.481  0.3044  0.0419 -0.2069
  941MOL0     C24118   2.397   8.757   5.555 -0.8232 -0.5136 -0.5842
  941MOL0     C24119   2.296   8.816   5.455 -0.6402 -0.1595 -0.1205
  941MOL0     C24120   2.197   8.889   5.531  0.1865  0.6036  0.9469
  941MOL0     C24121   2.088   8.946   5.437  0.4854 -0.3208 -0.0976
  941MOL0     C24122   1.969   9.014   5.516 -0.4094 -0.2161 -0.2499
  941MOL0     C24123   1.918   9.119   5.415 -0.6950 -0.2231  0.0213
  941MOL0    Cl24124   2.015   9.264   5.410 -0.4705  0.1473 -0.0802
  941MOL0     C24125   2.789   8.414   5.679 -0.2430  0.0029 -0.4702
  941MOL0     C24126   2.920   8.370   5.708  0.1686  0.6993 -0.1030
  941MOL0     O24127   3.240   8.483   5.560  0.0318  0.3790 -0.7358
  941MOL0     C24128   3.486   8.416   5.642  0.1102 -0.1598 -0.8576
  941MOL0     C24129   3.622   8.379   5.645  0.3445 -0.2391  0.3445
  941MOL0     N24130   3.900   7.797   5.850  0.4929  0.5520  0.0387
  941MOL0     N24131   3.785   7.780   5.913  1.1908 -0.6113  0.2630
  941MOL0     C24132   3.049   8.705   5.790  0.8405 -0.7086 -0.4180
  941MOL0     C24133   2.938   8.786   5.766  0.8655 -0.7077 -0.3281
  941MOL0     C24134   2.623   9.113   5.818  0.0249 -0.4185  0.2639
  941MOL0     C24135   2.484   9.096   5.807 -0.4260  0.3385  0.4585
  941MOL0     C24136   2.415   9.217   5.775 -0.7629  0.3365 -0.1457
  941MOL0     C24137   2.465   9.346   5.808 -0.3382  0.9286  0.0994
  941MOL0     O24138   2.388   9.456   5.805  0.1868  0.3245 -0.6997
  941MOL0     C24139   2.245   9.459   5.772 -0.2108  0.2679  0.0482
  941MOL0     C24140   2.226   9.465   5.627  0.8676  0.3343  0.0861
  941MOL0     C24141   2.310   9.568   5.551 -0.4455  0.2446 -0.5897
  941MOL0     C24142   2.275   9.569   5.405 -0.3984  0.0258  0.6881
  941MOL0     C24143   2.371   9.626   5.310  0.0683  0.2491 -0.7397
  941MOL0     C24144   2.457   9.661   5.231 -0.4124  1.2069  0.5620
  941MOL0     C24145   2.597   9.350   5.852 -0.1343  0.4014  0.4704
  941MOL0     C24146   2.676   9.233   5.852  0.1866 -1.0639  1.0625
  941MOL0     H24147   3.032   9.053   5.947 -3.1237  0.4442 -1.9311
  941MOL0     H24148   3.252   8.908   5.977 -0.4066  1.1007 -0.4790
  941MOL0     H24149   3.245   8.640   6.089  1.5677  0.0727 -0.1316
  941MOL0     H24150   3.392   8.731   6.027  3.2585 -1.5162  1.3667
  941MOL0     H24151   3.445   8.546   6.140  0.1160  0.8552 -1.1159
  941MOL0     H24152   3.495   8.521   5.983  0.0045  0.3090  0.1084
  941MOL0     H24153   3.266   8.371   5.957  1.3054 -1.4055 -1.0025
  941MOL0     H24154   3.254   8.404   6.131 -0.7790 -0.1813 -0.4984
  941MOL0     H24155   3.469   8.257   5.969 -2.6548 -0.1054 -0.9043
  941MOL0     H24156   3.501   8.304   6.134  1.9537 -1.7256 -0.7540
  941MOL0     H24157   3.289   8.124   6.034  2.6000  0.1949 -0.0678
  941MOL0     H24158   3.294   8.155   6.203 -2.1164 -2.7725 -0.5771
  941MOL0     H24159   3.404   7.939   6.155  0.0694 -0.8351  0.4373
  941MOL0     H24160   3.501   8.043   6.255  0.0856 -0.8261 -0.9332
  941MOL0     H24161   3.545   8.029   5.952 -0.4524  4.2991  0.5125
  941MOL0     H24162   3.639   8.114   6.071  2.4009 -1.3296 -1.4144
  941MOL0     H24163   3.606   7.801   6.078  2.6147 -1.9362  0.6881
  941MOL0     H24164   3.697   7.909   6.190  1.4106 -1.1480 -0.0851
  941MOL0     H24165   3.900   8.063   6.040 -0.5545  0.9948 -1.1652
  941MOL0     H24166   4.126   7.902   5.769 -0.1940  0.7186 -0.3237
  941MOL0     H24167   4.164   7.983   5.914 -1.2547 -1.5977 -0.2402
  941MOL0     H24168   4.142   8.163   5.752  1.0570 -2.5959 -1.1999
  941MOL0     H24169   3.988   8.170   5.838 -0.7415  0.3589 -1.2762
  941MOL0     H24170   4.028   8.178   5.567  2.5128 -0.6369  1.6959
  941MOL0     H24171   4.024   8.000   5.585 -0.5672 -0.2954 -1.1504
  941MOL0     H24172   3.822   8.012   5.711  0.8338 -1.7487 -0.5693
  941MOL0     H24173   3.823   8.060   5.532 -0.7616  0.8391  0.3545
  941MOL0     H24174   3.575   8.046   5.632 -2.7544 -0.5134 -1.2729
  941MOL0     H24175   3.344   8.106   5.637 -2.1464  1.7805 -1.7650
  941MOL0     H24176   3.044   8.324   5.390 -0.6897  5.0514 -1.6394
  941MOL0     H24177   2.816   8.377   5.346 -4.2697 -1.8174  1.8946
  941MOL0     H24178   2.642   8.633   5.632 -2.5553  0.2008  2.3120
  941MOL0     H24179   2.506   8.527   5.656 -1.0504  1.6598 -0.2189
  941MOL0     H24180   2.427   8.586   5.429 -3.1705  0.1444  3.3126
  941MOL0     H24181   2.553   8.713   5.410  0.7241  0.3939  0.4306
  941MOL0     H24182   2.452   8.843   5.593 -2.2199  0.5948 -0.9733
  941MOL0     H24183   2.358   8.699   5.640 -0.1048  0.1442  0.2011
  941MOL0     H24184   2.352   8.884   5.390  1.9230 -2.6351 -0.7017
  941MOL0     H24185   2.243   8.738   5.400 -1.1384  1.7792 -2.5684
  941MOL0     H24186   2.242   8.971   5.587 -2.0241  3.7698 -1.5598
  941MOL0     H24187   2.143   8.825   5.602 -1.6714 -0.8101 -1.5426
  941MOL0     H24188   2.038   8.863   5.387  1.0592 -1.2653  0.8711
  941MOL0     H24189   2.132   9.014   5.362 -0.8061  3.4245  2.2832
  941MOL0     H24190   1.895   8.941   5.548 -0.8104  0.3197  0.0557
  941MOL0     H24191   2.007   9.057   5.610 -3.1069 -2.8193  2.1962
  941MOL0     H24192   1.819   9.158   5.440 -1.6327 -2.1724 -0.4866
  941MOL0     H24193   1.905   9.064   5.321  0.0804 -2.1195  0.9663
  941MOL0     H24194   2.728   8.454   5.759 -1.2335 -0.2337 -1.0895
  941MOL0     H24195   2.960   8.337   5.804  2.8691 -2.3803 -2.1084
  941MOL0     H24196   3.474   8.524   5.640  0.5799  0.0525  2.1727
  941MOL0     H24197   3.692   8.461   5.653 -2.5792  2.2750  2.4788
  941MOL0     H24198   3.037   8.602   5.758 -2.5306  0.0854 -2.1566
  941MOL0     H24199   2.861   8.742   5.703  0.7040  0.7926 -1.2241
  941MOL0     H24200   2.429   9.003   5.799  1.9367 -1.2042  1.0549
  941MOL0     H24201   2.316   9.219   5.730  0.0087  0.7294 -1.9083
  941MOL0     H24202   2.217   9.557   5.812 -0.4536 -0.6269  2.2128
  941MOL0     H24203   2.182   9.390   5.829  0.3693  1.4662  2.2856
  941MOL0     H24204   2.254   9.373   5.575  0.0804  1.3216 -2.1723
  941MOL0     H24205   2.123   9.491   5.605  0.4139  1.8841  3.4646
  941MOL0     H24206   2.417   9.544   5.553  0.7011  4.6269  1.1239
  941MOL0     H24207   2.304   9.663   5.604  0.2209 -0.2330  0.3790
  941MOL0     H24208   2.236   9.475   5.364 -1.9947  0.8834  0.1354
  941MOL0     H24209   2.190   9.638   5.401  1.5620  2.5012 -1.6602
  941MOL0     H24210   2.513   9.682   5.142 -0.1993 -0.6041  0.2428
  941MOL0     H24211   2.659   9.438   5.868 -0.3268  1.0739 -2.0232
  941MOL0     H24212   2.781   9.229   5.877  0.0393 -4.4775  1.5865
  942MOL0     O24213   6.626   4.359   9.871 -0.3910  0.2335 -0.5270
  942MOL0     C24214   6.617   4.426   9.972 -1.2512  0.9216 -0.4805
  942MOL0     O24215   6.498   4.487  10.018 -0.1820 -0.5446 -0.5905
  942MOL0     C24216   6.370   4.443   9.984  0.7138 -0.0444 -0.9324
  942MOL0     C24217   6.270   4.420  10.088  0.6433 -0.3030  0.6932
  942MOL0     C24218   6.135   4.412  10.058  0.0442  0.8106 -0.5326
  942MOL0     C24219   6.094   4.409   9.926  0.0919  0.9432 -0.2507
  942MOL0     O24220   5.962   4.395   9.878  0.1852  0.3687  0.4146
  942MOL0     C24221   5.866   4.495   9.927  0.6307  1.4453  0.8736
  942MOL0     C24222   5.907   4.641   9.921 -0.0486 -0.4123  0.3279
  942MOL0     C24223   5.963   4.692   9.776 -0.2519 -0.2742 -0.0980
  942MOL0     C24224   5.850   4.740   9.693  0.3847  0.0788 -0.7358
  942MOL0     C24225   5.769   4.624   9.627 -0.3743 -0.1412 -0.1235
  942MOL0     C24226   5.687   4.682   9.498 -0.4844 -1.0232 -0.7617
  942MOL0     C24227   5.595   4.576   9.445  1.8708  0.8871  0.6696
  942MOL0     C24228   5.524   4.626   9.310 -0.4409  0.8804 -0.4265
  942MOL0     N24229   5.417   4.531   9.279 -0.1744  0.2883  0.4289
  942MOL0     C24230   5.283   4.532   9.299  0.2328 -0.7487  1.1026
  942MOL0     C24231   5.244   4.406   9.273 -0.0969 -0.4208  0.2724
  942MOL0     C24232   5.103   4.356   9.267 -0.8610  0.2988 -0.6710
  942MOL0     C24233   5.047   4.378   9.128  0.3342 -0.5238 -0.4899
  942MOL0     C24234   4.911   4.313   9.128  0.0779 -0.1694  0.2510
  942MOL0     C24235   4.834   4.330   9.001 -0.4904 -0.5205 -0.6274
  942MOL0     O24236   4.703   4.270   9.016 -0.2761  0.3508 -0.3091
  942MOL0     C24237   4.637   4.225   8.908  0.0889  0.2743  0.0855
  942MOL0     C24238   4.533   4.131   8.926 -0.2816  0.0703 -0.7257
  942MOL0     C24239   4.454   4.095   8.811  0.1074 -0.4485  0.1964
  942MOL0     C24240   4.482   4.161   8.684  0.5321  0.5545 -0.0049
  942MOL0     C24241   4.417   4.116   8.568 -0.4361  0.8705  0.1094
  942MOL0     O24242   4.291   4.082   8.579 -0.0467  0.0595 -0.2975
  942MOL0     C24243   4.229   4.023   8.472  0.4967  0.4904  0.5330
  942MOL0     C24244   4.101   4.066   8.450 -0.4818  0.7379  0.3629
  942MOL0     C24245   4.028   3.989   8.356 -0.1491 -0.3492  0.6503
  942MOL0     C24246   4.079   3.891   8.280  0.2414 -0.6441 -0.9701
  942MOL0     O24247   4.018   3.822   8.182  0.0469 -0.5614  0.5782
  942MOL0     C24248   3.887   3.859   8.141  0.8280 -0.2368 -0.9649
  942MOL0     C24249   3.857   3.756   8.039  0.5807  0.6102  1.0493
  942MOL0     C24250   3.707   3.762   7.988 -0.1455  0.1287 -1.4492
  942MOL0     C24251   3.602   3.727   8.095  0.3904 -0.3326 -0.5205
  942MOL0     C24252   3.464   3.797   8.073  1.2193 -0.0247 -0.3552
  942MOL0     C24253   3.400   3.739   7.955  0.0418 -0.5649  0.4417
  942MOL0     C24254   3.277   3.817   7.904  1.4105 -0.7454  0.8019
  942MOL0     C24255   3.149   3.819   7.991  0.2756  0.1494 -0.3560
  942MOL0    Cl24256   3.168   3.923   8.141  0.1747 -0.2871  0.0490
  942MOL0     C24257   4.212   3.861   8.303  0.2035 -0.1419  0.4310
  942MOL0     C24258   4.283   3.921   8.400 -0.3671  0.1287 -0.2173
  942MOL0     O24259   4.483   4.121   8.467  0.0376 -1.1027  0.0220
  942MOL0     C24260   4.587   4.241   8.669  0.6025  0.5806 -0.1023
  942MOL0     C24261   4.670   4.271   8.784  0.0049 -0.2720 -0.1026
  942MOL0     N24262   5.348   4.339   9.211 -0.5136 -0.1739 -0.0405
  942MOL0     N24263   5.451   4.419   9.216 -0.4880 -1.1003  0.2618
  942MOL0     C24264   6.191   4.410   9.825 -0.1010 -0.4417  0.0254
  942MOL0     C24265   6.330   4.422   9.852 -0.9996  0.3380 -0.3065
  942MOL0     C24266   6.739   4.459  10.052  0.5037  0.1658 -0.0404
  942MOL0     C24267   6.862   4.389  10.031  0.3337 -0.3421  0.0879
  942MOL0     C24268   6.977   4.414  10.101  0.1156  0.7306  0.2174
  942MOL0     C24269   6.982   4.501  10.203  1.0676  0.6845 -0.1338
  942MOL0     O24270   7.099   4.526  10.278 -0.0358  0.4722  0.1240
  942MOL0     C24271   7.094   4.517  10.425 -0.4416  0.1018  0.2236
  942MOL0     C24272   7.193   4.402  10.470 -0.1400  0.0833  1.7009
  942MOL0     C24273   7.346   4.453  10.469  1.1007  0.1340 -0.5387
  942MOL0     C24274   7.445   4.337  10.493 -0.2648  0.3855 -0.4872
  942MOL0     C24275   7.434   4.242  10.382 -0.0438  0.1637  0.1462
  942MOL0     C24276   7.441   4.164  10.288 -0.1405 -0.0316  0.5532
  942MOL0     C24277   6.865   4.568  10.232  0.5293 -1.0892 -0.4498
  942MOL0     C24278   6.744   4.541  10.160  0.1743 -0.1960 -0.5900
  942MOL0     H24279   6.298   4.429  10.192  0.2703  1.3242  0.6882
  942MOL0     H24280   6.066   4.406  10.142 -0.0547  2.4108 -0.4788
  942MOL0     H24281   5.853   4.451  10.027 -2.5254 -3.6071 -1.3726
  942MOL0     H24282   5.767   4.490   9.880  0.4276  0.8677  1.3396
  942MOL0     H24283   5.995   4.662   9.984 -0.5974  2.6789  0.2529
  942MOL0     H24284   5.822   4.700   9.958 -1.5570 -0.7816 -2.3364
  942MOL0     H24285   6.010   4.614   9.715 -1.3709  0.6127 -2.1843
  942MOL0     H24286   6.033   4.773   9.798  0.7140 -0.9196 -0.6919
  942MOL0     H24287   5.783   4.795   9.759  0.4997  1.1922 -1.5148
  942MOL0     H24288   5.883   4.810   9.615 -3.5984 -0.4017 -3.1134
  942MOL0     H24289   5.708   4.582   9.707 -1.3040  4.1641  1.7660
  942MOL0     H24290   5.829   4.541   9.590  2.8608  2.6266 -1.6868
  942MOL0     H24291   5.748   4.715   9.413 -2.4568 -1.7639 -2.5818
  942MOL0     H24292   5.635   4.774   9.526 -0.2249 -0.7819 -1.0690
  942MOL0     H24293   5.663   4.492   9.425  1.0234  0.5249 -0.8389
  942MOL0     H24294   5.514   4.543   9.511  0.6431  1.4969 -0.4874
  942MOL0     H24295   5.590   4.634   9.223 -1.0911 -1.5450 -1.2254
  942MOL0     H24296   5.485   4.727   9.325  0.0529  1.6231 -3.5325
  942MOL0     H24297   5.212   4.604   9.339 -1.9365 -1.5361 -1.0459
  942MOL0     H24298   5.042   4.408   9.342 -2.0836 -1.0756 -0.6585
  942MOL0     H24299   5.107   4.251   9.299 -3.0446  0.2920 -0.2227
  942MOL0     H24300   5.107   4.343   9.043 -0.5281 -2.5737 -0.3354
  942MOL0     H24301   5.035   4.486   9.123 -0.1373 -0.6227 -2.3821
  942MOL0     H24302   4.928   4.205   9.124 -1.4332 -0.4077 -2.1113
  942MOL0     H24303   4.854   4.342   9.217  2.0634 -2.2575  2.3269
  942MOL0     H24304   4.887   4.274   8.923 -2.5243 -1.4667 -1.4008
  942MOL0     H24305   4.828   4.439   8.991  4.4017  0.4019  2.8609
  942MOL0     H24306   4.507   4.088   9.022  2.2337  3.6983  1.8702
  942MOL0     H24307   4.373   4.024   8.816  0.4088 -0.9335 -1.3394
  942MOL0     H24308   4.052   4.152   8.495  2.5351  2.7519  0.1024
  942MOL0     H24309   3.928   4.028   8.338  0.5359  1.9737  1.5763
  942MOL0     H24310   3.878   3.963   8.107  3.5475  0.8958  1.4303
  942MOL0     H24311   3.819   3.842   8.224  0.0635  0.4397 -1.4347
  942MOL0     H24312   3.873   3.655   8.078 -0.2985 -0.8613 -2.0890
  942MOL0     H24313   3.922   3.781   7.955  0.0126 -6.2892 -2.0809
  942MOL0     H24314   3.692   3.696   7.903 -2.2336  1.9346 -2.6000
  942MOL0     H24315   3.684   3.861   7.947 -4.2770 -0.9407 -2.1659
  942MOL0     H24316   3.591   3.618   8.092 -3.7139 -0.0824  0.2825
  942MOL0     H24317   3.628   3.762   8.195  1.5256 -2.4262 -0.0170
  942MOL0     H24318   3.481   3.904   8.058 -1.9437  0.4495 -1.2173
  942MOL0     H24319   3.401   3.782   8.162  0.2787  2.5873 -0.4993
  942MOL0     H24320   3.367   3.638   7.980  0.6407 -1.0681 -0.7321
  942MOL0     H24321   3.466   3.750   7.869 -1.5755  2.3498 -0.5845
  942MOL0     H24322   3.313   3.918   7.881 -2.0537  0.4449 -0.0078
  942MOL0     H24323   3.250   3.767   7.811  1.4182 -1.1343  1.0058
  942MOL0     H24324   3.127   3.716   8.021  0.0485  0.2231 -0.2681
  942MOL0     H24325   3.061   3.854   7.936 -2.0622 -4.7119 -0.2044
  942MOL0     H24326   4.240   3.768   8.253 -1.0398 -0.1560 -0.2655
  942MOL0     H24327   4.378   3.870   8.417  0.3537  1.4240 -0.2461
  942MOL0     H24328   4.605   4.293   8.576  1.6044 -0.2315 -0.3923
  942MOL0     H24329   4.759   4.330   8.766  0.5982 -1.4980 -1.4399
  942MOL0     H24330   6.154   4.398   9.724 -1.5317 -2.0331  0.7030
  942MOL0     H24331   6.394   4.441   9.767 -0.6878 -1.4052 -0.5052
  942MOL0     H24332   6.866   4.319   9.948  0.5106 -0.6487  0.3590
  942MOL0     H24333   7.065   4.360  10.067 -0.3802  0.7409 -1.1444
  942MOL0     H24334   6.987   4.505  10.447  0.2024 -2.0426  2.6645
  942MOL0     H24335   7.117   4.605  10.487 -0.1371  0.0531  0.1796
  942MOL0     H24336   7.169   4.359  10.567 -1.0399  1.5819  2.1856
  942MOL0     H24337   7.192   4.325  10.392 -0.1629  1.1877  0.5714
  942MOL0     H24338   7.358   4.522  10.552  1.9152 -1.2450  0.5459
  942MOL0     H24339   7.374   4.494  10.372 -0.9439  0.7166 -0.9164
  942MOL0     H24340   7.547   4.377  10.496  0.3895 -1.1197 -1.4106
  942MOL0     H24341   7.427   4.294  10.592  1.6984 -0.4825 -0.4673
  942MOL0     H24342   7.448   4.119  10.192 -1.2668  3.1169 -1.1393
  942MOL0     H24343   6.859   4.638  10.315  1.3298 -0.2327 -1.0860
  942MOL0     H24344   6.660   4.592  10.205  1.5080  2.9428 -1.3388
  943MOL0     O24345   9.245   1.622   5.302  0.7303 -0.6169  0.8096
  943MOL0     C24346   9.272   1.714   5.223  1.3882  0.8050  0.2503
  943MOL0     O24347   9.228   1.724   5.090  1.2487  0.5186 -0.3827
  943MOL0     C24348   9.151   1.623   5.031 -0.5903 -0.1431 -0.0620
  943MOL0     C24349   9.067   1.531   5.090  0.3703  0.0592 -0.4390
  943MOL0     C24350   8.987   1.446   5.006 -0.7209 -0.1414 -0.8348
  943MOL0     C24351   9.006   1.439   4.864  0.5007  0.1375 -0.7096
  943MOL0     O24352   8.949   1.355   4.774  0.8488  0.0860 -0.0090
  943MOL0     C24353   8.838   1.277   4.814 -0.0023 -0.4272 -0.7681
  943MOL0     C24354   8.818   1.177   4.712  0.6745  0.2513  1.0964
  943MOL0     C24355   8.702   1.095   4.743 -0.6793 -0.2960 -0.2626
  943MOL0     C24356   8.699   0.976   4.649 -0.2547  0.5896  1.3636
  943MOL0     C24357   8.556   0.907   4.665 -0.1788  0.7406 -0.4353
  943MOL0     C24358   8.521   0.801   4.564  0.0097  0.6695 -0.5947
  943MOL0     C24359   8.601   0.671   4.572  0.2243  0.8423  0.2776
  943MOL0     C24360   8.518   0.567   4.489  0.2171 -0.3578  0.2430
  943MOL0     N24361   8.500   0.619   4.351  0.7425  0.8976 -0.8018
  943MOL0     C24362   8.384   0.634   4.285  0.5718  0.4709 -0.1155
  943MOL0     C24363   8.418   0.651   4.156 -0.5551 -0.3388  0.7294
  943MOL0     C24364   8.323   0.659   4.041 -0.3199  0.0263 -0.1743
  943MOL0     C24365   8.229   0.529   4.025  0.9039  0.8505  0.1936
  943MOL0     C24366   8.295   0.399   3.988  0.3714 -0.1494  0.2771
  943MOL0     C24367   8.349   0.318   4.100 -0.0881 -0.0040 -0.9128
  943MOL0     O24368   8.254   0.291   4.202 -0.4352  0.5683 -0.6432
  943MOL0     C24369   8.303   0.234   4.321 -0.1889 -0.5215  0.5388
  943MOL0     C24370   8.207   0.232   4.434  0.0929  0.1795  0.9811
  943MOL0     C24371   8.248   0.165   4.550  1.3812  0.8223 -0.4905
  943MOL0     C24372   8.369   0.107   4.561 -0.0793  0.8982 -0.7280
  943MOL0     C24373   8.415   0.052   4.685  0.2221 -0.4733 -0.0021
  943MOL0     O24374   8.533  -0.004   4.681  0.1210  0.0415 -0.4956
  943MOL0     C24375   8.593  -0.035   4.803  0.3935 -0.1810  0.2970
  943MOL0     C24376   8.592  -0.160   4.850  0.1549  0.3041  0.3507
  943MOL0     C24377   8.629  -0.191   4.982  0.2401 -0.0479  0.5815
  943MOL0     C24378   8.694  -0.085   5.048  0.0510 -1.0140 -0.6683
  943MOL0     O24379   8.747  -0.104   5.180 -0.1667  0.0461  0.0549
  943MOL0     C24380   8.733  -0.234   5.252  0.5121 -0.1732  0.0445
  943MOL0     C24381   8.784  -0.210   5.394 -0.1149  0.6034 -1.1855
  943MOL0     C24382   8.754  -0.318   5.499 -1.2233 -0.0363  0.1862
  943MOL0     C24383   8.827  -0.284   5.633 -0.7297  0.2107  0.0977
  943MOL0     C24384   8.740  -0.319   5.754  0.0765  0.0498 -0.4638
  943MOL0     C24385   8.801  -0.244   5.877 -0.6331  0.1459  1.0564
  943MOL0     C24386   8.743  -0.097   5.896 -0.3237 -0.5771 -0.4590
  943MOL0     C24387   8.602  -0.101   5.965 -0.5569  0.6641  0.5347
  943MOL0    Cl24388   8.657  -0.105   6.139 -0.4220  0.3204  0.1884
  943MOL0     C24389   8.710   0.044   4.998 -0.3032  0.0778  0.0060
  943MOL0     C24390   8.655   0.065   4.879  0.7459 -0.0806  0.3094
  943MOL0     O24391   8.344   0.065   4.785 -0.2504 -0.9933  1.2164
  943MOL0     C24392   8.460   0.115   4.454  0.8532  0.0158  0.4959
  943MOL0     C24393   8.429   0.185   4.338  0.2367  0.3145 -1.2949
  943MOL0     N24394   8.557   0.668   4.144  0.0491 -0.1935 -0.7621
  943MOL0     N24395   8.598   0.649   4.271 -0.2334  0.1187  1.1607
  943MOL0     C24396   9.094   1.536   4.807 -2.0447  0.0348  0.1263
  943MOL0     C24397   9.167   1.626   4.892 -0.6664  0.1685  0.2770
  943MOL0     C24398   9.358   1.820   5.266 -0.5716  1.1488 -0.6779
  943MOL0     C24399   9.345   1.946   5.210  0.4093  0.4346 -1.3469
  943MOL0     C24400   9.420   2.052   5.255 -0.4019  0.1206  0.5538
  943MOL0     C24401   9.522   2.044   5.347 -0.4017 -0.1180  0.3859
  943MOL0     O24402   9.607   2.153   5.375  0.6132  0.2188  0.0151
  943MOL0     C24403   9.693   2.144   5.485 -0.7735  0.2380  0.3924
  943MOL0     C24404   9.614   2.158   5.611 -0.0591 -0.0093  0.5819
  943MOL0     C24405   9.524   2.283   5.598  0.6666  0.0365 -0.0579
  943MOL0     C24406   9.479   2.345   5.729 -0.3868 -0.0791 -0.2123
  943MOL0     C24407   9.357   2.420   5.719  0.3504  0.0332 -0.0429
  943MOL0     C24408   9.284   2.508   5.694 -0.5414 -1.1737 -0.0252
  943MOL0     C24409   9.548   1.916   5.396 -0.1077 -0.0302  0.3911
  943MOL0     C24410   9.461   1.801   5.364 -0.1781 -1.1940 -0.0909
  943MOL0     H24411   9.057   1.525   5.198  0.0439 -1.1054 -0.5214
  943MOL0     H24412   8.922   1.369   5.047 -2.5788  1.4301 -0.6819
  943MOL0     H24413   8.754   1.342   4.837 -0.2055 -0.2065 -2.0620
  943MOL0     H24414   8.867   1.230   4.908 -0.6302 -2.6313 -1.6123
  943MOL0     H24415   8.908   1.119   4.693  1.9632  2.0565  1.3682
  943MOL0     H24416   8.793   1.235   4.623 -1.2200  0.6253  1.8133
  943MOL0     H24417   8.619   1.161   4.715  1.4050  2.1266 -1.0827
  943MOL0     H24418   8.697   1.068   4.849 -0.8469  0.0578 -0.1809
  943MOL0     H24419   8.713   1.005   4.544  2.1484  0.2139  1.5273
  943MOL0     H24420   8.781   0.906   4.668  0.9896  2.1459  1.8941
  943MOL0     H24421   8.476   0.981   4.657 -0.2736  0.7063  0.1953
  943MOL0     H24422   8.551   0.871   4.768  3.0333  4.2995  1.1994
  943MOL0     H24423   8.550   0.857   4.474 -2.2959 -1.5623 -2.9016
  943MOL0     H24424   8.413   0.789   4.557  0.0817  0.6049 -1.9197
  943MOL0     H24425   8.697   0.700   4.528 -0.5245  1.4405 -1.0417
  943MOL0     H24426   8.625   0.646   4.676  0.2736  0.2559  0.1321
  943MOL0     H24427   8.420   0.553   4.534 -0.2563 -2.8431 -1.3701
  943MOL0     H24428   8.575   0.474   4.477  0.3983 -0.0734 -1.3766
  943MOL0     H24429   8.283   0.618   4.323  1.4300  0.3779  2.2870
  943MOL0     H24430   8.374   0.671   3.945 -0.8578  1.5223 -0.2927
  943MOL0     H24431   8.262   0.749   4.049  1.3674  1.5023 -2.6520
  943MOL0     H24432   8.153   0.547   3.949  1.6344  1.7323 -0.3447
  943MOL0     H24433   8.169   0.507   4.114 -3.0545  1.5651 -2.0753
  943MOL0     H24434   8.226   0.333   3.936  1.0219  0.4980 -1.5105
  943MOL0     H24435   8.382   0.411   3.922 -0.6855  0.8268 -0.9841
  943MOL0     H24436   8.427   0.381   4.144 -2.0395  0.7680  1.6616
  943MOL0     H24437   8.393   0.223   4.069  3.2338  0.8964  0.5851
  943MOL0     H24438   8.105   0.256   4.405 -0.5585 -2.5918  0.7459
  943MOL0     H24439   8.163   0.152   4.616  2.0969 -1.1343  0.1064
  943MOL0     H24440   8.576  -0.251   4.793 -0.5860  0.5073  0.2284
  943MOL0     H24441   8.620  -0.294   5.016 -1.9782  0.1733  0.8148
  943MOL0     H24442   8.784  -0.315   5.197 -1.7193 -3.4308  2.3773
  943MOL0     H24443   8.631  -0.267   5.270  0.9512 -0.8448  1.4466
  943MOL0     H24444   8.759  -0.109   5.426  0.3810 -0.1884  2.0776
  943MOL0     H24445   8.889  -0.221   5.365 -0.3426 -5.0933 -1.0908
  943MOL0     H24446   8.789  -0.410   5.450  0.8402  1.1513 -0.6680
  943MOL0     H24447   8.649  -0.330   5.525 -1.4100  0.0820 -0.5077
  943MOL0     H24448   8.930  -0.320   5.633  0.1124  2.1661  3.5194
  943MOL0     H24449   8.841  -0.175   5.636 -2.8787  0.5090  0.4071
  943MOL0     H24450   8.724  -0.426   5.765 -1.2828  0.2873  0.0516
  943MOL0     H24451   8.638  -0.280   5.749  0.9275  2.3559 -3.4990
  943MOL0     H24452   8.909  -0.254   5.884 -0.8032 -2.1112  1.2805
  943MOL0     H24453   8.773  -0.303   5.966  2.8090 -0.5730  1.7874
  943MOL0     H24454   8.810  -0.030   5.952 -1.0400  2.0370 -2.5054
  943MOL0     H24455   8.723  -0.062   5.794 -1.9038 -0.4449 -0.1315
  943MOL0     H24456   8.542  -0.188   5.940  2.2934 -1.3017  0.0312
  943MOL0     H24457   8.534  -0.018   5.944 -4.2373 -2.2786 -0.0674
  943MOL0     H24458   8.760   0.125   5.050  1.2050 -0.9065  0.1360
  943MOL0     H24459   8.680   0.155   4.823  0.2752  1.2712  2.1824
  943MOL0     H24460   8.557   0.067   4.462 -0.5533 -3.4303 -1.3525
  943MOL0     H24461   8.504   0.181   4.259  1.6066 -1.9379  0.0056
  943MOL0     H24462   9.109   1.548   4.700  1.2309 -2.5202  0.1365
  943MOL0     H24463   9.235   1.696   4.845 -1.4252 -0.6027 -2.1188
  943MOL0     H24464   9.272   1.958   5.131 -0.1765 -0.5781 -0.9776
  943MOL0     H24465   9.401   2.147   5.205 -3.5570 -0.7636 -0.1738
  943MOL0     H24466   9.758   2.232   5.482 -0.2294 -0.1819 -0.3477
  943MOL0     H24467   9.760   2.058   5.479 -0.2795  0.6597 -0.1548
  943MOL0     H24468   9.557   2.067   5.630  0.8861 -0.7668 -0.1028
  943MOL0     H24469   9.672   2.170   5.703 -0.6272  1.3096  0.7971
  943MOL0     H24470   9.436   2.260   5.536  1.4509  2.0638 -2.0628
  943MOL0     H24471   9.585   2.353   5.541 -0.0521  0.1254 -0.7392
  943MOL0     H24472   9.468   2.265   5.803  2.2637  0.7969  1.2664
  943MOL0     H24473   9.548   2.420   5.768 -0.4735 -0.0585 -0.0984
  943MOL0     H24474   9.225   2.595   5.674 -1.7957 -1.9342  0.2091
  943MOL0     H24475   9.638   1.905   5.456 -0.4783  1.0079  1.1740
  943MOL0     H24476   9.483   1.704   5.409 -0.3154 -0.8882  0.6444
  944MOL0     O24477  10.728   4.154   6.610 -0.6437 -0.3178  0.2659
  944MOL0     C24478  10.795   4.167   6.711 -0.2872 -0.0557  0.1457
  944MOL0     O24479  10.777   4.270   6.808 -0.1583 -0.1604 -0.5559
  944MOL0     C24480  10.673   4.362   6.799  0.4751 -0.2266 -0.4300
  944MOL0     C24481  10.546   4.343   6.753 -0.7361 -0.2826 -0.2725
  944MOL0     C24482  10.443   4.433   6.774  0.5812 -0.5184  0.2162
  944MOL0     C24483  10.462   4.549   6.839 -0.1690 -0.9318 -0.4448
  944MOL0     O24484  10.360   4.638   6.837 -0.7153  0.3427 -0.1887
  944MOL0     C24485  10.246   4.604   6.914  0.0649  0.0652  0.5031
  944MOL0     C24486  10.247   4.620   7.060  0.1533 -0.3506  0.3774
  944MOL0     C24487  10.116   4.555   7.117  0.9248 -0.1661 -0.1750
  944MOL0     C24488  10.126   4.407   7.130  0.0365 -0.0949 -0.6567
  944MOL0     C24489  10.029   4.371   7.242  0.4908 -0.2853  0.2892
  944MOL0     C24490  10.042   4.232   7.304  0.1782  0.8957 -0.3030
  944MOL0     C24491  10.016   4.104   7.218 -0.2844  0.2378 -0.1503
  944MOL0     C24492   9.869   4.090   7.174 -0.0443 -0.6982 -0.0032
  944MOL0     N24493   9.767   4.072   7.279 -0.4269  1.0328 -0.4546
  944MOL0     C24494   9.794   4.034   7.411 -0.7077 -0.4132  0.2897
  944MOL0     C24495   9.678   4.030   7.474  0.0874  0.4555  1.0537
  944MOL0     C24496   9.655   3.998   7.616  0.2429  0.3514  0.4306
  944MOL0     C24497   9.683   4.113   7.714 -0.7315  0.8286 -0.3268
  944MOL0     C24498   9.836   4.110   7.749  0.0931 -0.0009  0.5936
  944MOL0     C24499   9.882   4.223   7.852  0.4983  0.0262 -0.2069
  944MOL0     O24500   9.841   4.351   7.790  0.7391  0.3849 -0.5347
  944MOL0     C24501   9.920   4.463   7.825  0.2475 -0.6237  0.0161
  944MOL0     C24502   9.899   4.585   7.759 -0.3494 -0.2509 -0.3357
  944MOL0     C24503   9.968   4.704   7.788 -0.8182  0.5850 -0.1980
  944MOL0     C24504  10.053   4.706   7.893  0.4681  0.9688 -0.2104
  944MOL0     C24505  10.120   4.833   7.938 -0.1717  0.4287 -0.9356
  944MOL0     O24506  10.094   4.949   7.876  1.0178  0.0342  0.0146
  944MOL0     C24507  10.118   5.077   7.915 -0.0100 -0.2924  0.0928
  944MOL0     C24508  10.075   5.136   8.033 -0.2802  0.4306 -0.2129
  944MOL0     C24509  10.109   5.266   8.080 -0.1053 -0.1966 -0.1102
  944MOL0     C24510  10.185   5.339   7.985 -0.3666  0.9848  0.0891
  944MOL0     O24511  10.230   5.461   8.018 -0.3335 -0.3740 -1.0093
  944MOL0     C24512  10.127   5.549   8.051 -0.1501  0.1764  0.3716
  944MOL0     C24513  10.178   5.690   8.075 -0.6708  0.1405  0.3138
  944MOL0     C24514  10.285   5.718   7.965  0.2187  0.6120  0.3941
  944MOL0     C24515  10.331   5.863   7.965  0.0256  0.3236  0.3184
  944MOL0     C24516  10.446   5.875   7.865  0.3542 -0.6697 -0.5845
  944MOL0     C24517  10.414   5.831   7.726  0.7561 -0.3649  0.0759
  944MOL0     C24518  10.508   5.888   7.615 -0.2524  0.2636  0.2136
  944MOL0     C24519  10.429   5.923   7.486  0.0588  0.8746  0.1655
  944MOL0    Cl24520  10.355   5.777   7.418 -0.4567 -0.6072 -0.0957
  944MOL0     C24521  10.229   5.282   7.863  0.5181  0.5238 -0.4429
  944MOL0     C24522  10.188   5.159   7.828  0.7544  0.0583 -0.7308
  944MOL0     O24523  10.192   4.827   8.039  0.3391  0.8183 -0.3180
  944MOL0     C24524  10.074   4.579   7.954 -0.4140 -0.2317  0.9635
  944MOL0     C24525  10.015   4.459   7.925 -0.1012 -0.2142 -0.2967
  944MOL0     N24526   9.582   4.044   7.380  0.3725 -0.1102  0.4925
  944MOL0     N24527   9.637   4.074   7.263  0.1831 -0.5275 -0.2846
  944MOL0     C24528  10.578   4.569   6.904 -0.6070 -0.8363 -0.0280
  944MOL0     C24529  10.682   4.475   6.885 -0.6080  1.0895  1.1184
  944MOL0     C24530  10.882   4.055   6.741 -0.8147  0.3857 -0.6877
  944MOL0     C24531  10.880   3.938   6.658 -0.6378  0.0700  0.3581
  944MOL0     C24532  10.949   3.823   6.698  0.9922 -0.3718 -0.3445
  944MOL0     C24533  11.027   3.816   6.811 -0.0127  0.9301  0.5000
  944MOL0     O24534  11.098   3.700   6.823 -0.9424 -0.4529 -0.2541
  944MOL0     C24535  11.099   3.645   6.955 -0.3514 -0.6712 -0.6361
  944MOL0     C24536  11.163   3.509   6.947  0.7787 -0.1709 -0.1022
  944MOL0     C24537  11.192   3.458   7.084  0.2065 -0.1074  0.4334
  944MOL0     C24538  11.294   3.335   7.095  0.5699 -0.2453 -0.0386
  944MOL0     C24539  11.303   3.288   7.235  0.7874  0.6747 -0.6246
  944MOL0     C24540  11.298   3.241   7.351 -0.9198  0.1011  0.4172
  944MOL0     C24541  11.043   3.938   6.891 -0.7236  0.2252  0.4888
  944MOL0     C24542  10.963   4.051   6.857 -0.7895  0.1121  0.0253
  944MOL0     H24543  10.520   4.244   6.715  0.5640 -1.2820  1.3135
  944MOL0     H24544  10.353   4.435   6.713  1.6461  1.9541 -1.4289
  944MOL0     H24545  10.218   4.501   6.892 -2.6300  1.0016 -0.9884
  944MOL0     H24546  10.162   4.669   6.886  0.2958  0.3071  0.3604
  944MOL0     H24547  10.256   4.728   7.077 -4.9761  0.7662 -2.0034
  944MOL0     H24548  10.346   4.589   7.095  1.3947  2.5631 -0.2834
  944MOL0     H24549  10.023   4.584   7.066 -0.0740  1.7437  2.5185
  944MOL0     H24550  10.123   4.596   7.218  0.6008 -0.1013 -0.1774
  944MOL0     H24551  10.096   4.366   7.034 -2.3689  4.4346 -2.1504
  944MOL0     H24552  10.225   4.371   7.159 -1.2115 -1.8594  1.7679
  944MOL0     H24553   9.930   4.386   7.199  0.9831 -0.1604 -0.8484
  944MOL0     H24554  10.039   4.441   7.326  0.4804 -0.2053  0.2234
  944MOL0     H24555   9.972   4.219   7.387 -0.1392 -1.0602 -0.8050
  944MOL0     H24556  10.146   4.219   7.336  0.1680  2.3402  0.3638
  944MOL0     H24557  10.081   4.096   7.130 -3.1911 -1.4973 -2.3091
  944MOL0     H24558  10.036   4.018   7.281 -3.0356 -0.9845 -0.8075
  944MOL0     H24559   9.866   4.014   7.096 -1.7071  0.0743 -0.7273
  944MOL0     H24560   9.848   4.184   7.123 -0.1145 -0.9317 -0.4093
  944MOL0     H24561   9.887   4.030   7.466 -1.0452 -2.2535  0.7775
  944MOL0     H24562   9.719   3.913   7.639  0.0801 -0.4149 -1.6723
  944MOL0     H24563   9.553   3.961   7.629  0.3704 -0.4102 -0.6481
  944MOL0     H24564   9.637   4.083   7.810  1.3996 -1.5056  0.0750
  944MOL0     H24565   9.646   4.213   7.690  0.5826  0.9434 -1.9842
  944MOL0     H24566   9.869   4.015   7.790  1.5129  0.4672  0.6215
  944MOL0     H24567   9.889   4.131   7.655 -1.9852  4.0543  0.0767
  944MOL0     H24568   9.988   4.202   7.866 -0.0705 -1.8555  1.8829
  944MOL0     H24569   9.837   4.221   7.952  0.7446  3.3006  0.0688
  944MOL0     H24570   9.815   4.604   7.693 -0.6490  0.0858  0.1420
  944MOL0     H24571   9.946   4.788   7.723 -2.3315 -0.4263 -1.0474
  944MOL0     H24572  10.017   5.068   8.095  1.5989  0.7554  2.0293
  944MOL0     H24573  10.058   5.305   8.168 -2.5925 -1.0317 -1.0731
  944MOL0     H24574  10.072   5.512   8.138  0.6388 -3.2412 -0.4327
  944MOL0     H24575  10.046   5.544   7.978 -1.7953  2.8591  1.8437
  944MOL0     H24576  10.221   5.707   8.174  1.3075  0.2369 -0.5106
  944MOL0     H24577  10.089   5.754   8.066  0.0575  1.2990  1.1408
  944MOL0     H24578  10.229   5.698   7.873  0.6354 -0.6884  0.4074
  944MOL0     H24579  10.370   5.650   7.959 -0.7551 -0.8867  2.3306
  944MOL0     H24580  10.248   5.933   7.952 -0.1252  0.9351  3.7802
  944MOL0     H24581  10.371   5.884   8.064  3.0384 -0.2714 -0.6505
  944MOL0     H24582  10.525   5.807   7.897 -0.7251 -2.2109 -1.0838
  944MOL0     H24583  10.483   5.978   7.862  2.1723 -1.2736  0.1598
  944MOL0     H24584  10.310   5.851   7.700  1.7928  2.4985 -2.5069
  944MOL0     H24585  10.410   5.722   7.729  2.4322 -0.4402  1.1602
  944MOL0     H24586  10.546   5.981   7.660 -5.1298  1.0250  3.5311
  944MOL0     H24587  10.587   5.815   7.597 -1.7350 -1.4504  0.4314
  944MOL0     H24588  10.505   5.963   7.417  0.2426  1.8167  0.8875
  944MOL0     H24589  10.349   5.998   7.490  0.1754  0.9387  2.7369
  944MOL0     H24590  10.264   5.361   7.798 -5.8027  3.2205 -1.2903
  944MOL0     H24591  10.199   5.116   7.729  0.5605  2.2695 -1.7659
  944MOL0     H24592  10.152   4.572   8.029  0.9559 -0.3157 -0.4326
  944MOL0     H24593  10.038   4.375   7.989  0.5937  2.0819  2.7353
  944MOL0     H24594  10.594   4.662   6.956  0.3251  0.4130 -2.3859
  944MOL0     H24595  10.778   4.488   6.934 -0.7746 -0.5459  1.9170
  944MOL0     H24596  10.818   3.937   6.570 -1.9076 -3.4479  1.1275
  944MOL0     H24597  10.943   3.738   6.631  1.0545 -1.6908  1.2513
  944MOL0     H24598  10.999   3.634   6.997 -0.0280  0.2659  0.4358
  944MOL0     H24599  11.154   3.714   7.020 -2.2360 -0.3363  0.6742
  944MOL0     H24600  11.086   3.447   6.901 -0.4505 -1.5091  3.4160
  944MOL0     H24601  11.252   3.520   6.885  1.2342  2.7217  0.9255
  944MOL0     H24602  11.097   3.422   7.126 -0.0472  0.9987  0.8476
  944MOL0     H24603  11.231   3.538   7.148  0.6547  2.3745 -2.6936
  944MOL0     H24604  11.278   3.246   7.033  2.6994 -3.0724  3.0901
  944MOL0     H24605  11.391   3.382   7.077  1.8423 -1.2724  3.2354
  944MOL0     H24606  11.327   3.217   7.451  3.0498 -0.2121 -0.5993
  944MOL0     H24607  11.116   3.952   6.971 -0.6261  0.1929  0.4057
  944MOL0     H24608  10.973   4.148   6.905  1.3567 -0.4538  0.7927
  945MOL0     O24609  10.847   7.983   7.214  0.4117 -0.1344 -0.1424
  945MOL0     C24610  10.774   7.997   7.309 -0.3141  0.1122 -0.9423
  945MOL0     O24611  10.642   7.964   7.316  0.2108  0.5225  0.0338
  945MOL0     C24612  10.572   7.913   7.209  0.5897 -0.2273 -0.6410
  945MOL0     C24613  10.575   7.958   7.075 -0.6743  0.2567 -0.8091
  945MOL0     C24614  10.498   7.906   6.967 -0.4687  0.3325 -0.8619
  945MOL0     C24615  10.409   7.796   6.996  0.2006 -0.8617 -0.0779
  945MOL0     O24616  10.317   7.759   6.899  0.2325  0.5081  0.0138
  945MOL0     C24617  10.196   7.677   6.940  0.9254  0.2134 -0.5247
  945MOL0     C24618  10.130   7.616   6.817 -0.3063 -0.3685  0.9279
  945MOL0     C24619  10.077   7.723   6.725 -0.3326  0.4324  0.3646
  945MOL0     C24620   9.965   7.670   6.617  0.4759  0.3689 -0.0165
  945MOL0     C24621   9.874   7.778   6.551  0.0530  0.5173  0.1636
  945MOL0     C24622   9.802   7.724   6.425 -1.0033  0.5250  0.0053
  945MOL0     C24623   9.678   7.801   6.384 -0.8768  0.5824  0.3772
  945MOL0     C24624   9.634   7.757   6.247  0.8624 -0.1288 -0.2178
  945MOL0     N24625   9.512   7.834   6.217 -0.3797  0.5560  0.1795
  945MOL0     C24626   9.379   7.793   6.231 -1.1822 -0.5363 -0.1875
  945MOL0     C24627   9.308   7.887   6.177  0.5386 -0.2223  0.3391
  945MOL0     C24628   9.162   7.892   6.151 -0.4631  0.1995 -0.1168
  945MOL0     C24629   9.116   7.809   6.035  0.0265 -0.7208 -0.3762
  945MOL0     C24630   8.969   7.784   6.024  0.6871 -0.2238  0.3562
  945MOL0     C24631   8.918   7.711   5.899 -0.4204  0.2742  0.0767
  945MOL0     O24632   8.851   7.582   5.928 -1.1880 -0.6803  0.2323
  945MOL0     C24633   8.718   7.588   5.963 -0.7562  0.5346 -0.2092
  945MOL0     C24634   8.641   7.467   5.967  0.4550 -0.0747 -0.7485
  945MOL0     C24635   8.503   7.465   5.982  0.8099 -0.8031  0.1318
  945MOL0     C24636   8.429   7.585   5.994 -0.1514  0.4675  0.2447
  945MOL0     C24637   8.283   7.575   6.028  0.4754  0.7541  0.2969
  945MOL0     O24638   8.218   7.696   6.050 -0.1663 -0.0327 -0.1738
  945MOL0     C24639   8.098   7.710   5.999  0.6807 -0.9909  0.6763
  945MOL0     C24640   7.997   7.758   6.073 -0.0196 -0.7017 -0.7430
  945MOL0     C24641   7.861   7.758   6.039  0.4664  0.3554  1.0398
  945MOL0     C24642   7.822   7.705   5.911  0.1750  0.2547 -0.2085
  945MOL0     O24643   7.690   7.686   5.873 -0.3316  0.1328  0.4030
  945MOL0     C24644   7.581   7.753   5.938  0.2532 -0.1260  0.6683
  945MOL0     C24645   7.464   7.733   5.848  0.0899  0.5799  0.3076
  945MOL0     C24646   7.366   7.850   5.850 -0.2509  0.6375  0.7934
  945MOL0     C24647   7.241   7.815   5.758 -0.1797 -0.7279  0.3477
  945MOL0     C24648   7.260   7.872   5.622 -0.2252  0.7831  0.1370
  945MOL0     C24649   7.127   7.859   5.539 -1.2951  0.4753 -0.7792
  945MOL0     C24650   7.018   7.932   5.610  0.0325 -0.2274 -0.1645
  945MOL0     C24651   6.908   7.962   5.502  0.8766 -0.1217 -0.9001
  945MOL0    Cl24652   6.844   7.805   5.442  0.4128 -0.9289 -0.8583
  945MOL0     C24653   7.926   7.651   5.837  0.2610 -0.6941  0.0375
  945MOL0     C24654   8.061   7.655   5.872  0.0804 -0.0925 -0.0951
  945MOL0     O24655   8.222   7.471   6.022 -0.5700  0.2230  0.2270
  945MOL0     C24656   8.500   7.699   5.983 -0.0287 -0.5227  0.0609
  945MOL0     C24657   8.639   7.708   5.975 -0.2717 -0.0521  0.0262
  945MOL0     N24658   9.392   7.982   6.122 -0.8192 -0.0828 -0.2403
  945MOL0     N24659   9.512   7.955   6.148 -0.3239  0.7171 -0.1678
  945MOL0     C24660  10.415   7.739   7.121  0.6584  0.6351 -0.3848
  945MOL0     C24661  10.489   7.801   7.231  1.4480  0.1388 -0.1201
  945MOL0     C24662  10.836   8.053   7.429 -0.5309  0.7504 -0.1102
  945MOL0     C24663  10.762   8.073   7.550  0.0755  0.0218  0.1411
  945MOL0     C24664  10.817   8.132   7.657  1.1896 -0.8691  0.2107
  945MOL0     C24665  10.954   8.158   7.666  0.3583 -0.4798 -0.5109
  945MOL0     O24666  11.010   8.204   7.788  0.5866  0.5990  0.1051
  945MOL0     C24667  11.148   8.171   7.803 -0.1362 -0.7815 -0.1455
  945MOL0     C24668  11.194   8.178   7.951 -0.2832  0.3348  0.9313
  945MOL0     C24669  11.346   8.145   7.960  0.9539  0.1822 -0.9123
  945MOL0     C24670  11.446   8.259   7.954  0.3488  0.3164 -0.6902
  945MOL0     C24671  11.488   8.273   7.811  0.0841  0.9777  0.2939
  945MOL0     C24672  11.517   8.270   7.695  0.1055  0.1324  0.2938
  945MOL0     C24673  11.023   8.156   7.546  0.4844  0.6849 -0.4889
  945MOL0     C24674  10.962   8.096   7.429 -0.8899 -0.6442 -0.2986
  945MOL0     H24675  10.643   8.040   7.052 -1.8664  1.0477 -1.6488
  945MOL0     H24676  10.529   7.954   6.875 -0.7698  2.9341  0.2802
  945MOL0     H24677  10.128   7.747   6.989  1.7142  0.0944  0.7972
  945MOL0     H24678  10.229   7.592   7.000  0.4415  0.8467  0.6549
  945MOL0     H24679  10.048   7.556   6.856  1.2324 -0.6402  4.0577
  945MOL0     H24680  10.196   7.548   6.761  0.0426 -0.0932  0.9992
  945MOL0     H24681  10.163   7.767   6.674  1.5463 -2.2849  0.9765
  945MOL0     H24682  10.024   7.797   6.786  2.2075  4.0197 -1.4129
  945MOL0     H24683  10.031   7.633   6.538  2.1944 -0.0491  1.5333
  945MOL0     H24684   9.909   7.592   6.670  2.0449 -1.7334 -1.2713
  945MOL0     H24685   9.945   7.859   6.534  1.0236 -0.3743 -0.1107
  945MOL0     H24686   9.794   7.817   6.615 -0.2811  0.0028  0.0611
  945MOL0     H24687   9.791   7.615   6.427  1.9688  0.1298  2.2726
  945MOL0     H24688   9.880   7.748   6.352  1.2180  2.8310  2.8426
  945MOL0     H24689   9.596   7.788   6.456 -0.4680 -0.8029  0.6160
  945MOL0     H24690   9.690   7.909   6.374 -1.9552  0.7144  0.3678
  945MOL0     H24691   9.605   7.652   6.241  1.2496 -0.6109  3.6438
  945MOL0     H24692   9.715   7.785   6.179  1.2826 -0.0247  0.3169
  945MOL0     H24693   9.348   7.698   6.272 -0.3345 -0.1472  1.4628
  945MOL0     H24694   9.132   7.994   6.129 -0.2371 -0.0517 -1.7051
  945MOL0     H24695   9.108   7.872   6.244  1.9779  0.0273  1.3749
  945MOL0     H24696   9.161   7.711   6.053  3.1674  0.8131  1.0000
  945MOL0     H24697   9.155   7.847   5.941 -1.7626  1.7743 -0.2073
  945MOL0     H24698   8.932   7.727   6.109 -4.9728  0.7058 -1.0787
  945MOL0     H24699   8.923   7.884   6.026  1.2718  0.0399  1.6264
  945MOL0     H24700   9.010   7.678   5.852  0.0609  0.7315  0.6697
  945MOL0     H24701   8.868   7.781   5.831 -1.5595  1.1952  1.7623
  945MOL0     H24702   8.684   7.370   5.942  1.7782  0.8076 -2.0546
  945MOL0     H24703   8.462   7.365   5.981  2.7939 -1.6658  0.8143
  945MOL0     H24704   8.035   7.787   6.171  1.1071  0.8071 -1.5934
  945MOL0     H24705   7.781   7.785   6.107  0.8750 -1.6849  2.4513
  945MOL0     H24706   7.615   7.857   5.935 -0.4606  0.1978 -3.9880
  945MOL0     H24707   7.568   7.723   6.042 -1.1360  0.1918  0.6001
  945MOL0     H24708   7.419   7.637   5.875  2.7462 -1.4350 -1.9005
  945MOL0     H24709   7.491   7.709   5.745  3.7754  1.3297  0.9427
  945MOL0     H24710   7.408   7.944   5.814 -0.5193  0.3847 -0.1860
  945MOL0     H24711   7.329   7.869   5.951 -0.5632  3.9438  0.1681
  945MOL0     H24712   7.226   7.707   5.742  1.0166 -0.9112  0.3783
  945MOL0     H24713   7.146   7.840   5.806  0.5661  0.1476  1.3852
  945MOL0     H24714   7.344   7.823   5.570 -2.5592  0.6559 -3.8817
  945MOL0     H24715   7.289   7.977   5.622 -3.2207  1.7020  0.8222
  945MOL0     H24716   7.104   7.754   5.520 -2.8248 -0.1949  3.4860
  945MOL0     H24717   7.145   7.906   5.442  1.8219 -1.3822 -1.1927
  945MOL0     H24718   6.972   7.884   5.696  0.0778 -2.0236 -1.1063
  945MOL0     H24719   7.054   8.029   5.646 -1.0574 -0.8672  2.8800
  945MOL0     H24720   6.936   8.019   5.413 -0.4910  2.0058 -0.0621
  945MOL0     H24721   6.830   8.017   5.556 -1.6221 -3.2915 -1.0064
  945MOL0     H24722   7.901   7.593   5.749  1.6249 -0.9367 -0.2140
  945MOL0     H24723   8.122   7.595   5.804 -1.1956 -0.4362 -0.9600
  945MOL0     H24724   8.439   7.787   6.004  0.7112 -0.2598  1.1661
  945MOL0     H24725   8.687   7.805   5.985 -2.8111  1.1147  2.1854
  945MOL0     H24726  10.362   7.647   7.143 -0.2666  0.7228 -2.1060
  945MOL0     H24727  10.491   7.751   7.327 -0.3618 -1.7713 -1.0096
  945MOL0     H24728  10.655   8.056   7.557  0.2176 -0.7786  0.5199
  945MOL0     H24729  10.758   8.133   7.748 -0.5879 -2.6937 -0.8650
  945MOL0     H24730  11.196   8.249   7.742 -0.8425 -2.2661 -2.7587
  945MOL0     H24731  11.175   8.074   7.761  0.3962  0.3982 -2.7014
  945MOL0     H24732  11.169   8.274   7.998 -2.6373  1.0759 -1.5928
  945MOL0     H24733  11.135   8.100   8.001 -2.9932  0.7044 -1.4279
  945MOL0     H24734  11.373   8.055   7.905 -0.3102 -0.8653  0.1266
  945MOL0     H24735  11.355   8.112   8.064  0.9074 -0.4429 -1.1035
  945MOL0     H24736  11.409   8.358   7.984  1.1615  1.0686 -2.0825
  945MOL0     H24737  11.535   8.236   8.013 -0.1930  1.4822  0.6545
  945MOL0     H24738  11.550   8.248   7.595 -1.1573 -1.3151  0.1545
  945MOL0     H24739  11.127   8.184   7.534  1.3520 -1.2055  1.6961
  945MOL0     H24740  11.034   8.060   7.355 -1.7592  1.8283 -2.5140
  946MOL0     O24741   6.971   7.076   7.241 -0.5629 -0.5510 -0.1279
  946MOL0     C24742   6.990   7.055   7.122 -0.4654  0.6574  0.6929
  946MOL0     O24743   7.100   7.078   7.048  0.9469 -0.1506 -0.3517
  946MOL0     C24744   7.212   7.129   7.106 -0.1960  0.0497 -0.2877
  946MOL0     C24745   7.205   7.239   7.192  0.0133  1.1087 -0.9453
  946MOL0     C24746   7.315   7.294   7.256 -0.2697 -0.5160 -0.2502
  946MOL0     C24747   7.433   7.222   7.252 -0.0567 -0.0993 -0.8288
  946MOL0     O24748   7.551   7.274   7.304  0.6880 -0.1916 -0.1620
  946MOL0     C24749   7.585   7.238   7.443 -0.0929 -0.4231  1.2016
  946MOL0     C24750   7.723   7.170   7.449  0.6840 -0.8249  0.4730
  946MOL0     C24751   7.718   7.053   7.553 -0.7094 -0.0800  1.4666
  946MOL0     C24752   7.856   6.992   7.570  0.5954 -1.2680  0.4552
  946MOL0     C24753   7.869   6.933   7.707  0.4798  0.3322  0.6992
  946MOL0     C24754   7.906   7.020   7.823 -0.4587 -0.4290 -0.5235
  946MOL0     C24755   7.941   6.953   7.954 -0.7953  0.7482  0.3788
  946MOL0     C24756   8.002   7.045   8.061  0.4045  0.2719  0.9492
  946MOL0     N24757   7.898   7.107   8.144 -0.5954  0.3812 -0.2063
  946MOL0     C24758   7.840   7.225   8.107  0.6740 -0.1626  0.3735
  946MOL0     C24759   7.768   7.257   8.214  0.1120  0.2705 -0.2251
  946MOL0     C24760   7.693   7.376   8.232  1.1383 -0.7608 -0.2912
  946MOL0     C24761   7.544   7.366   8.186  0.2607  0.4397 -0.1864
  946MOL0     C24762   7.524   7.360   8.043 -0.0006 -0.2442  0.4930
  946MOL0     C24763   7.377   7.333   8.002 -0.4579 -0.4961  0.2185
  946MOL0     O24764   7.351   7.369   7.868  0.5541 -0.1144  0.5291
  946MOL0     C24765   7.227   7.339   7.811 -0.1736  0.0377  0.7653
  946MOL0     C24766   7.119   7.389   7.876 -0.6411 -0.7594 -0.2905
  946MOL0     C24767   6.990   7.388   7.821 -0.0865 -0.4534  0.4950
  946MOL0     C24768   6.966   7.336   7.692 -1.0907  0.5706 -0.0159
  946MOL0     C24769   6.825   7.334   7.648 -0.0765 -0.1127 -0.0759
  946MOL0     O24770   6.806   7.278   7.524  0.0351  0.2423 -0.4432
  946MOL0     C24771   6.677   7.232   7.496 -0.7475 -1.0839 -0.2310
  946MOL0     C24772   6.585   7.176   7.588  1.0083  0.4660 -0.5420
  946MOL0     C24773   6.460   7.155   7.539  0.2200 -0.2842  0.1757
  946MOL0     C24774   6.411   7.178   7.412  0.0158  0.5746  0.1900
  946MOL0     O24775   6.284   7.162   7.377 -0.9415  0.2346  0.0949
  946MOL0     C24776   6.229   7.270   7.292  0.3239 -0.0505  0.7656
  946MOL0     C24777   6.222   7.401   7.359  0.0927 -1.6376 -0.7266
  946MOL0     C24778   6.098   7.480   7.310  0.4853  0.2559 -0.0233
  946MOL0     C24779   6.086   7.489   7.162  0.6197  0.0009  0.1371
  946MOL0     C24780   5.966   7.565   7.109 -0.1186  0.5396  0.2675
  946MOL0     C24781   5.826   7.515   7.155 -0.0252 -1.0310  1.1331
  946MOL0     C24782   5.725   7.589   7.063  0.3937  0.0063  0.7132
  946MOL0     C24783   5.586   7.596   7.134 -0.0413 -0.2442  0.3614
  946MOL0    Cl24784   5.542   7.425   7.182 -0.2950 -0.7924 -0.2554
  946MOL0     C24785   6.506   7.217   7.323  0.2276  0.4031 -0.7792
  946MOL0     C24786   6.638   7.254   7.368 -0.4065 -0.4197 -0.3185
  946MOL0     O24787   6.735   7.394   7.714 -0.2182  0.8762 -0.1129
  946MOL0     C24788   7.077   7.282   7.621  1.0738 -0.4161 -0.6613
  946MOL0     C24789   7.203   7.277   7.687 -0.4078  0.1117  0.8615
  946MOL0     N24790   7.785   7.158   8.309 -0.2969  0.2773 -0.7410
  946MOL0     N24791   7.869   7.072   8.276 -0.4230 -0.9689  0.0015
  946MOL0     C24792   7.436   7.109   7.172  0.3732 -0.5789  0.3424
  946MOL0     C24793   7.328   7.055   7.098 -0.3758  0.2296 -0.1890
  946MOL0     C24794   6.874   6.999   7.055  0.5401  0.0130  0.2157
  946MOL0     C24795   6.755   6.967   7.124 -0.0906  0.8517 -1.0137
  946MOL0     C24796   6.643   6.919   7.060  0.5013  0.8601 -0.0948
  946MOL0     C24797   6.632   6.913   6.921 -0.2437  0.6284  0.1857
  946MOL0     O24798   6.512   6.884   6.850  0.3828  0.0388 -0.2174
  946MOL0     C24799   6.383   6.896   6.912  0.1506  0.2669  0.9618
  946MOL0     C24800   6.264   6.882   6.816  0.3944 -0.3188  0.1513
  946MOL0     C24801   6.144   6.909   6.909 -0.0205  0.7792  0.9543
  946MOL0     C24802   6.139   7.051   6.958 -0.3284  0.7213 -1.0677
  946MOL0     C24803   6.002   7.092   6.984 -0.2083 -0.8756 -1.1503
  946MOL0     C24804   5.894   7.128   7.022  0.4367 -0.5138 -0.4236
  946MOL0     C24805   6.749   6.937   6.850  0.3359 -0.3632  0.0479
  946MOL0     C24806   6.865   6.987   6.918  0.2947  0.0055  1.2083
  946MOL0     H24807   7.101   7.271   7.200  0.2970  1.8217 -0.1213
  946MOL0     H24808   7.307   7.380   7.321 -2.0176  0.1696 -1.2727
  946MOL0     H24809   7.520   7.155   7.472 -1.4278 -1.2455 -3.3186
  946MOL0     H24810   7.590   7.326   7.508 -0.9284  1.6113 -1.3173
  946MOL0     H24811   7.800   7.245   7.467 -0.6346  0.8236 -0.4320
  946MOL0     H24812   7.743   7.123   7.352  2.6714  1.0930 -0.1297
  946MOL0     H24813   7.659   6.970   7.513  3.4524 -2.4948 -0.3797
  946MOL0     H24814   7.687   7.101   7.646 -1.8932  0.8556  0.6083
  946MOL0     H24815   7.884   6.913   7.500 -0.9443 -1.2357 -0.2273
  946MOL0     H24816   7.938   7.065   7.566  1.1401 -1.6451  2.8614
  946MOL0     H24817   7.944   6.855   7.696 -1.5053 -1.6691  0.6267
  946MOL0     H24818   7.774   6.885   7.734  0.4608 -0.2052 -0.2924
  946MOL0     H24819   7.815   7.079   7.837 -0.4775 -0.2484 -1.3492
  946MOL0     H24820   7.980   7.095   7.794  1.7117 -1.7219  1.3130
  946MOL0     H24821   7.851   6.901   7.988 -0.2592 -0.7313 -0.3398
  946MOL0     H24822   8.013   6.872   7.934 -0.0036  1.4143  0.4693
  946MOL0     H24823   8.053   7.126   8.007 -1.9364  0.9263 -0.4219
  946MOL0     H24824   8.072   6.984   8.118  1.5658 -2.0665 -2.6643
  946MOL0     H24825   7.864   7.265   8.009  2.1150 -3.3006 -0.7029
  946MOL0     H24826   7.731   7.467   8.184 -0.7318  0.3679  0.2943
  946MOL0     H24827   7.692   7.405   8.338  3.0300 -2.1591  0.1741
  946MOL0     H24828   7.483   7.446   8.228  0.1411 -1.0618  2.7792
  946MOL0     H24829   7.496   7.278   8.231 -1.0279  0.9123 -0.6128
  946MOL0     H24830   7.562   7.448   7.990  0.1118 -0.4765  0.1770
  946MOL0     H24831   7.574   7.274   7.997  0.5522  1.2964 -1.9868
  946MOL0     H24832   7.315   7.385   8.075  2.5218 -1.5486  3.8389
  946MOL0     H24833   7.353   7.226   8.003 -2.1592 -0.1339  0.4761
  946MOL0     H24834   7.139   7.432   7.974 -2.9959 -2.2826  0.9513
  946MOL0     H24835   6.906   7.419   7.882 -1.1092 -3.3169  0.6801
  946MOL0     H24836   6.619   7.160   7.690 -1.9127  0.0627  0.4632
  946MOL0     H24837   6.381   7.145   7.613 -2.0511  1.7267 -1.8032
  946MOL0     H24838   6.124   7.243   7.279  0.6242 -0.2061 -1.8203
  946MOL0     H24839   6.281   7.282   7.197  2.0356 -2.2156  1.3611
  946MOL0     H24840   6.305   7.466   7.332 -1.9829  1.2266 -0.6231
  946MOL0     H24841   6.223   7.379   7.466 -0.7054 -2.3099 -0.8419
  946MOL0     H24842   6.083   7.578   7.356 -0.4002 -0.0023  0.2569
  946MOL0     H24843   6.012   7.425   7.349  0.6414  0.6982  0.9852
  946MOL0     H24844   6.170   7.542   7.114 -0.3711  0.8360 -0.7326
  946MOL0     H24845   6.083   7.389   7.119  0.1357  0.6833 -1.4945
  946MOL0     H24846   5.967   7.549   7.001  1.5459 -2.6891  0.6253
  946MOL0     H24847   5.985   7.668   7.142  3.4146 -0.4295  1.7556
  946MOL0     H24848   5.815   7.555   7.257  1.7721  0.1928  0.8897
  946MOL0     H24849   5.816   7.406   7.152  0.6861 -1.0765 -1.1275
  946MOL0     H24850   5.764   7.686   7.030  2.3592 -1.1671 -0.5733
  946MOL0     H24851   5.718   7.528   6.973  4.0983  1.3551 -0.6714
  946MOL0     H24852   5.512   7.642   7.068  0.3351  0.2495  0.2808
  946MOL0     H24853   5.592   7.641   7.234  0.4342 -2.3045  1.3221
  946MOL0     H24854   6.483   7.237   7.218  0.8310 -1.5880 -1.3308
  946MOL0     H24855   6.700   7.313   7.302 -2.1794 -0.1878 -1.8772
  946MOL0     H24856   7.044   7.243   7.525 -2.2637  0.0698  0.1564
  946MOL0     H24857   7.288   7.236   7.634  0.6158  2.0891  0.8954
  946MOL0     H24858   7.533   7.062   7.167 -0.5445 -2.4833 -0.7815
  946MOL0     H24859   7.313   6.956   7.056 -0.0075  0.7003 -1.4718
  946MOL0     H24860   6.745   6.979   7.231  0.8697  1.6269 -1.0013
  946MOL0     H24861   6.553   6.905   7.120  0.8703 -2.4316 -0.1513
  946MOL0     H24862   6.394   6.991   6.966  1.3075  1.6430 -1.5208
  946MOL0     H24863   6.389   6.811   6.980  1.4271 -0.5130 -0.0776
  946MOL0     H24864   6.278   6.960   6.741 -2.5833  1.4719  1.2689
  946MOL0     H24865   6.261   6.789   6.760 -1.3511 -0.7102  0.8212
  946MOL0     H24866   6.142   6.849   7.000  1.1624 -0.1516  0.3845
  946MOL0     H24867   6.053   6.902   6.847  0.9723  1.2156 -0.6171
  946MOL0     H24868   6.193   7.065   7.052 -2.8126 -0.8648  0.7399
  946MOL0     H24869   6.177   7.124   6.887 -1.2692  4.3733  1.8233
  946MOL0     H24870   5.808   7.169   7.070 -0.3702 -0.2618 -2.0180
  946MOL0     H24871   6.737   6.943   6.742  0.4056  2.7059  0.1475
  946MOL0     H24872   6.943   7.035   6.860  0.2138 -0.2693  0.8653
  947MOL0     O24873  11.084   5.377   9.363  0.1296 -0.9575 -0.3363
  947MOL0     C24874  11.198   5.372   9.407  0.1156  0.2762 -0.4993
  947MOL0     O24875  11.241   5.431   9.529  0.4356 -0.0886 -0.0134
  947MOL0     C24876  11.153   5.516   9.591  0.4021  0.9785  0.6208
  947MOL0     C24877  11.210   5.630   9.650 -0.1606  0.5005  0.2469
  947MOL0     C24878  11.140   5.724   9.721 -0.5428 -0.2267  0.2874
  947MOL0     C24879  11.009   5.696   9.760 -0.2476  0.0196  0.4607
  947MOL0     O24880  10.922   5.785   9.817  0.5584 -0.6983  0.3391
  947MOL0     C24881  10.972   5.915   9.844 -0.2704  0.0730  0.3949
  947MOL0     C24882  10.863   6.004   9.900 -0.4144 -0.4128  0.3279
  947MOL0     C24883  10.737   6.014   9.811 -0.2434 -0.3319  0.1640
  947MOL0     C24884  10.641   6.112   9.879  0.7823 -0.4171 -1.0519
  947MOL0     C24885  10.527   6.166   9.785  0.0477  0.0439  0.4797
  947MOL0     C24886  10.404   6.079   9.823 -0.2441 -0.6043 -0.8902
  947MOL0     C24887  10.282   6.126   9.742  0.3595 -1.5473  0.1345
  947MOL0     C24888  10.171   6.182   9.833 -1.8929 -0.0729 -0.0492
  947MOL0     N24889  10.212   6.315   9.890  0.2044  0.7808  0.0942
  947MOL0     C24890  10.255   6.425   9.822 -0.4332  0.7738  0.7156
  947MOL0     C24891  10.284   6.518   9.916  0.3200 -1.1783 -0.6649
  947MOL0     C24892  10.332   6.666   9.909  0.4144  0.1894  0.4743
  947MOL0     C24893  10.474   6.671   9.845 -0.4158 -0.7419 -0.2344
  947MOL0     C24894  10.597   6.615   9.904  0.3987  0.4135 -0.4826
  947MOL0     C24895  10.697   6.604   9.793 -0.7970  1.0068  0.2016
  947MOL0     O24896  10.802   6.510   9.813  1.1612 -0.4176  0.0956
  947MOL0     C24897  10.869   6.430   9.723  1.4075  0.4243  0.9400
  947MOL0     C24898  10.947   6.330   9.776 -0.5401  0.0034 -0.2028
  947MOL0     C24899  11.037   6.252   9.691  0.8576 -0.8366 -0.3362
  947MOL0     C24900  11.015   6.260   9.555  1.2706  0.3384  0.4691
  947MOL0     C24901  11.066   6.164   9.457  0.3514 -0.8007 -0.7258
  947MOL0     O24902  11.090   6.036   9.509 -0.5477 -0.5729  0.5596
  947MOL0     C24903  11.170   5.960   9.424  0.6494 -0.2506 -0.6916
  947MOL0     C24904  11.116   5.867   9.343 -0.8162 -0.1369 -0.1549
  947MOL0     C24905  11.195   5.779   9.258 -0.5825 -1.0709  0.1550
  947MOL0     C24906  11.333   5.814   9.240  0.6113  0.9181  0.5649
  947MOL0     O24907  11.422   5.749   9.156 -0.1459  0.1496 -0.0633
  947MOL0     C24908  11.393   5.612   9.134 -0.1002  0.0896 -0.2485
  947MOL0     C24909  11.504   5.569   9.038 -0.1090  0.4655 -0.1592
  947MOL0     C24910  11.457   5.438   8.979 -0.7715  1.0648  0.5516
  947MOL0     C24911  11.570   5.364   8.890 -1.3767  0.1204 -0.0308
  947MOL0     C24912  11.530   5.221   8.844  1.0354 -0.0187 -0.2324
  947MOL0     C24913  11.413   5.231   8.740  0.1457  0.2278  0.0208
  947MOL0     C24914  11.361   5.088   8.727  0.7417 -0.2753  0.5130
  947MOL0     C24915  11.248   5.086   8.628  0.6654  0.7800 -0.3907
  947MOL0    Cl24916  11.182   4.914   8.632 -0.2613  0.1484 -0.4741
  947MOL0     C24917  11.383   5.913   9.322  0.0411  1.0500  0.1899
  947MOL0     C24918  11.302   5.981   9.419 -0.6683 -0.4608 -0.2848
  947MOL0     O24919  11.095   6.208   9.341  0.0086 -0.9340 -0.0947
  947MOL0     C24920  10.935   6.364   9.508 -0.0902 -0.7151 -0.9158
  947MOL0     C24921  10.865   6.453   9.589  0.2215 -0.0853 -0.2954
  947MOL0     N24922  10.256   6.462  10.045 -0.1712 -0.4203 -0.8348
  947MOL0     N24923  10.229   6.338  10.027  0.1624  0.5874 -0.1898
  947MOL0     C24924  10.952   5.572   9.722  0.2338  0.4113  0.8494
  947MOL0     C24925  11.026   5.488   9.633  0.2165  0.3541 -0.3051
  947MOL0     C24926  11.309   5.276   9.364  0.5498  0.1783 -0.1878
  947MOL0     C24927  11.284   5.182   9.265  0.1533 -0.5751  0.0827
  947MOL0     C24928  11.387   5.096   9.225  0.3118  0.3767  0.0366
  947MOL0     C24929  11.516   5.107   9.279 -0.9840 -0.2818 -0.5647
  947MOL0     O24930  11.629   5.033   9.258  0.3080  0.9544  0.2839
  947MOL0     C24931  11.604   4.900   9.206  0.1351  0.7975 -0.3482
  947MOL0     C24932  11.731   4.818   9.240  0.6139  0.7489  0.0928
  947MOL0     C24933  11.740   4.784   9.394 -0.1499 -0.7912 -0.3017
  947MOL0     C24934  11.666   4.653   9.426  0.7173 -0.3633  0.5576
  947MOL0     C24935  11.700   4.592   9.557 -0.2718  0.0973  1.0047
  947MOL0     C24936  11.726   4.538   9.668  0.3128 -0.8156 -0.3967
  947MOL0     C24937  11.536   5.213   9.376 -0.0857 -0.5671  0.0585
  947MOL0     C24938  11.434   5.294   9.418  0.4112 -0.1674  1.2215
  947MOL0     H24939  11.316   5.637   9.629 -0.6519  1.4241 -2.4300
  947MOL0     H24940  11.190   5.815   9.751  2.9326 -0.6243 -3.3970
  947MOL0     H24941  11.007   5.961   9.751 -1.1027  2.2809  1.0974
  947MOL0     H24942  11.053   5.903   9.916  2.9047  1.3776 -2.6485
  947MOL0     H24943  10.904   6.105   9.913  0.6932 -0.4412 -2.1581
  947MOL0     H24944  10.843   5.978  10.004  0.8611  1.9369  1.2531
  947MOL0     H24945  10.692   5.916   9.796  0.7280 -0.6600 -0.6875
  947MOL0     H24946  10.755   6.053   9.710  2.4597 -0.6006  0.4675
  947MOL0     H24947  10.593   6.068   9.967 -1.3335 -0.6205 -2.2295
  947MOL0     H24948  10.693   6.204   9.907 -0.1911  0.0680 -0.8000
  947MOL0     H24949  10.549   6.152   9.679  0.3818 -2.0375  0.7782
  947MOL0     H24950  10.493   6.270   9.791 -1.4888 -0.2385 -1.9764
  947MOL0     H24951  10.377   6.081   9.929 -1.8059 -1.6630 -1.2347
  947MOL0     H24952  10.415   5.972   9.803  0.0058 -0.8742  0.5710
  947MOL0     H24953  10.306   6.212   9.679  0.6489 -1.8418 -0.1604
  947MOL0     H24954  10.235   6.038   9.697 -0.1349 -1.1360 -0.1663
  947MOL0     H24955  10.161   6.107   9.911 -1.4147 -0.9682 -0.8351
  947MOL0     H24956  10.075   6.199   9.783 -2.8804  1.3079  2.1731
  947MOL0     H24957  10.268   6.433   9.714 -0.6891 -2.6960  0.3189
  947MOL0     H24958  10.341   6.713  10.007 -1.7894  2.4710 -0.3231
  947MOL0     H24959  10.261   6.711   9.839  2.0980 -2.5575 -3.3436
  947MOL0     H24960  10.496   6.778   9.841  1.8802 -0.9354  3.1515
  947MOL0     H24961  10.456   6.642   9.741  1.4885 -2.5695 -0.1155
  947MOL0     H24962  10.628   6.678   9.987 -0.6912 -1.1821  1.2122
  947MOL0     H24963  10.588   6.516   9.950 -1.0448  0.8937  0.3248
  947MOL0     H24964  10.741   6.703   9.781 -0.2588  0.8378  0.7695
  947MOL0     H24965  10.651   6.588   9.695 -0.8383  1.0263  0.2170
  947MOL0     H24966  10.934   6.324   9.883  0.4166  0.9059 -0.0173
  947MOL0     H24967  11.103   6.181   9.738 -0.8800 -0.5804  2.7593
  947MOL0     H24968  11.008   5.859   9.343 -0.7440 -2.9684  2.1520
  947MOL0     H24969  11.155   5.701   9.194 -0.5604  0.7343 -2.2054
  947MOL0     H24970  11.290   5.585   9.107  0.1004 -1.9090  0.7320
  947MOL0     H24971  11.409   5.567   9.233 -2.6072 -0.3356  0.0218
  947MOL0     H24972  11.597   5.550   9.092 -0.2020 -0.2548 -0.2458
  947MOL0     H24973  11.531   5.643   8.962 -0.1803 -0.3889 -1.0366
  947MOL0     H24974  11.363   5.457   8.927  1.5016  3.3807 -3.1251
  947MOL0     H24975  11.419   5.363   9.049 -2.5025  0.1687 -1.2442
  947MOL0     H24976  11.589   5.427   8.803  2.9127 -2.1105 -0.9708
  947MOL0     H24977  11.669   5.366   8.935 -0.8050  0.2095 -1.2637
  947MOL0     H24978  11.505   5.157   8.929 -0.1123  0.1005 -0.4651
  947MOL0     H24979  11.615   5.178   8.790 -2.1151 -2.3361 -3.8996
  947MOL0     H24980  11.462   5.268   8.650  2.2976 -2.7886 -0.1906
  947MOL0     H24981  11.339   5.306   8.770 -0.4050 -0.1799 -0.2986
  947MOL0     H24982  11.440   5.024   8.685  1.3742 -1.5933  3.4360
  947MOL0     H24983  11.325   5.055   8.825 -0.5767  2.6031  1.0854
  947MOL0     H24984  11.279   5.107   8.525 -1.2001 -0.5942 -1.2809
  947MOL0     H24985  11.169   5.156   8.659  0.2903 -0.2261  1.0253
  947MOL0     H24986  11.491   5.919   9.333  0.7404 -2.8113 -2.6133
  947MOL0     H24987  11.345   6.059   9.482 -1.1272 -3.0848  3.5822
  947MOL0     H24988  10.922   6.375   9.401 -1.4984 -1.0851 -0.7912
  947MOL0     H24989  10.811   6.538   9.547  1.2824  0.3373 -0.8481
  947MOL0     H24990  10.847   5.561   9.749 -1.0499  1.7925 -2.9429
  947MOL0     H24991  10.977   5.402   9.587 -1.1328  1.9813 -2.0712
  947MOL0     H24992  11.186   5.164   9.223  0.0173 -1.0364  0.5934
  947MOL0     H24993  11.376   5.022   9.147  1.4033  0.5141 -0.2706
  947MOL0     H24994  11.587   4.891   9.098  3.2919  1.1085 -0.9683
  947MOL0     H24995  11.523   4.855   9.263  1.0441  0.5601  0.7942
  947MOL0     H24996  11.731   4.729   9.177  3.7744  1.5400 -1.2027
  947MOL0     H24997  11.811   4.888   9.216  0.7969  0.0847 -1.2702
  947MOL0     H24998  11.677   4.858   9.443 -0.4940  0.4882 -2.5522
  947MOL0     H24999  11.841   4.786   9.435 -0.1106 -0.2109 -0.4247
  947MOL0     H25000  11.560   4.675   9.407  1.7103  1.3578 -4.3540
  947MOL0     H25001  11.706   4.583   9.352 -1.2696  0.9079 -1.8802
  947MOL0     H25002  11.751   4.490   9.760  0.1988  4.2177  2.6255
  947MOL0     H25003  11.633   5.224   9.422 -0.0165  1.3429 -0.4364
  947MOL0     H25004  11.459   5.364   9.497 -0.1314  0.2740  1.0065
  948MOL0     O25005   2.718  11.238   7.749 -0.2464  0.4756  0.2011
  948MOL0     C25006   2.765  11.124   7.742  0.2319 -0.1542  0.7962
  948MOL0     O25007   2.697  11.008   7.721 -0.4836  0.7558  0.0252
  948MOL0     C25008   2.569  10.995   7.673 -0.1047  0.8771 -0.3245
  948MOL0     C25009   2.454  11.067   7.712  0.6111  0.4459 -0.4574
  948MOL0     C25010   2.330  11.045   7.657 -0.3087 -0.1678  0.2205
  948MOL0     C25011   2.307  10.933   7.562 -1.3621 -1.2258 -0.8783
  948MOL0     O25012   2.185  10.913   7.504 -0.5432  0.3076 -0.1941
  948MOL0     C25013   2.192  10.888   7.359 -0.0707  0.5716 -0.6451
  948MOL0     C25014   2.049  10.909   7.307  0.5448  0.4208 -0.2742
  948MOL0     C25015   1.947  10.798   7.345 -0.4474  0.4532 -0.1233
  948MOL0     C25016   1.913  10.795   7.503 -0.0443  0.4013  0.2058
  948MOL0     C25017   1.789  10.699   7.539  0.3561 -0.2627  0.4926
  948MOL0     C25018   1.790  10.659   7.684  0.6770 -0.0484  0.3917
  948MOL0     C25019   1.647  10.644   7.747 -0.2282  0.3646 -0.0689
  948MOL0     C25020   1.648  10.593   7.892  0.6082 -0.2178 -0.2976
  948MOL0     N25021   1.508  10.568   7.927  0.7976 -0.4474  0.2335
  948MOL0     C25022   1.417  10.486   7.859  0.1073  0.0594 -0.1053
  948MOL0     C25023   1.298  10.492   7.932 -0.4022  0.6337 -0.1205
  948MOL0     C25024   1.177  10.415   7.904 -0.9406 -0.3978 -0.4187
  948MOL0     C25025   1.084  10.418   8.027  0.0479 -0.1832  0.1755
  948MOL0     C25026   0.992  10.308   8.034  0.1277 -0.3937  0.7076
  948MOL0     C25027   0.870  10.338   7.949  0.0362  0.2942  0.5150
  948MOL0     O25028   0.779  10.226   7.974 -0.2645 -0.2560 -0.6550
  948MOL0     C25029   0.660  10.225   7.913 -0.5581 -0.1606  0.2804
  948MOL0     C25030   0.609  10.314   7.817  0.9462 -0.3851  1.1082
  948MOL0     C25031   0.485  10.304   7.761  0.4585  0.6265  0.5962
  948MOL0     C25032   0.395  10.217   7.814  0.5312  1.3758  0.1930
  948MOL0     C25033   0.258  10.200   7.764 -0.4221  0.4711  0.5361
  948MOL0     O25034   0.199  10.297   7.690 -1.0904 -0.7108  0.1630
  948MOL0     C25035   0.064  10.291   7.681 -0.8187  0.3935 -0.6000
  948MOL0     C25036  -0.027  10.349   7.777  0.3669 -0.1044 -0.0115
  948MOL0     C25037  -0.171  10.346   7.753  0.3955 -0.4047 -0.1400
  948MOL0     C25038  -0.219  10.277   7.639  0.1123  0.5775  0.1926
  948MOL0     O25039  -0.355  10.266   7.608 -0.1085 -0.6494 -0.0178
  948MOL0     C25040  -0.454  10.291   7.716  0.2600  0.0449 -0.0822
  948MOL0     C25041  -0.586  10.268   7.648  0.3352 -0.5008 -1.0153
  948MOL0     C25042  -0.715  10.317   7.707 -0.7449 -1.2471  0.4332
  948MOL0     C25043  -0.749  10.464   7.666 -0.3739 -0.0792 -0.5930
  948MOL0     C25044  -0.894  10.494   7.674  0.4789 -0.1915  0.0233
  948MOL0     C25045  -0.933  10.620   7.609  0.4604 -0.2323  0.3979
  948MOL0     C25046  -0.866  10.744   7.667 -0.1917  0.1374  0.2254
  948MOL0     C25047  -0.921  10.869   7.610 -0.1106 -0.1469 -0.4179
  948MOL0    Cl25048  -0.866  10.884   7.432 -0.0321 -0.0214 -0.1547
  948MOL0     C25049  -0.131  10.216   7.556  0.9606 -0.2889 -0.2654
  948MOL0     C25050   0.006  10.228   7.568  0.2650  1.1139  0.8835
  948MOL0     O25051   0.203  10.100   7.804  0.1002  0.1905 -0.1277
  948MOL0     C25052   0.442  10.128   7.916  0.1592 -0.1737  0.0743
  948MOL0     C25053   0.573  10.130   7.959  0.3937  0.1955 -0.3258
  948MOL0     N25054   1.324  10.584   8.037 -0.7787  0.1347 -0.0483
  948MOL0     N25055   1.447  10.623   8.035  0.3414 -0.6381  0.5095
  948MOL0     C25056   2.418  10.857   7.530 -0.7369 -0.6442 -1.0219
  948MOL0     C25057   2.543  10.889   7.581 -0.3527 -0.2840  0.2030
  948MOL0     C25058   2.907  11.101   7.776 -0.1672  1.2389  0.0138
  948MOL0     C25059   2.967  10.977   7.784  0.4127 -0.2029  0.0933
  948MOL0     C25060   3.097  10.959   7.827 -0.2693 -0.1355 -0.4393
  948MOL0     C25061   3.178  11.069   7.875 -0.3874  0.2993 -0.5854
  948MOL0     O25062   3.303  11.066   7.936 -0.1588  0.0640  0.2442
  948MOL0     C25063   3.359  10.943   7.971 -1.4030 -0.0532 -0.5366
  948MOL0     C25064   3.469  10.922   7.865  0.5718  0.2679 -0.5306
  948MOL0     C25065   3.534  10.787   7.889 -0.4265  0.4716 -0.4492
  948MOL0     C25066   3.690  10.795   7.859 -0.1610  1.1586  0.3421
  948MOL0     C25067   3.764  10.866   7.966  0.2043  0.0877  0.0379
  948MOL0     C25068   3.826  10.914   8.057  0.4609 -0.0970 -0.3694
  948MOL0     C25069   3.122  11.199   7.859 -0.6804 -0.2239 -0.7726
  948MOL0     C25070   2.988  11.216   7.808  0.3046  0.0643  0.1762
  948MOL0     H25071   2.482  11.150   7.776  3.4319  1.9030 -3.2883
  948MOL0     H25072   2.263  11.129   7.670 -0.9561 -0.5789 -0.4323
  948MOL0     H25073   2.218  10.783   7.343 -1.5107 -0.1424  1.2935
  948MOL0     H25074   2.265  10.955   7.313  1.0867 -0.1504  0.0807
  948MOL0     H25075   2.053  10.906   7.197  1.8100 -0.9342 -0.2164
  948MOL0     H25076   2.019  11.008   7.342 -0.5090  0.2747 -0.7138
  948MOL0     H25077   1.986  10.699   7.319 -3.3589 -0.5899 -0.8688
  948MOL0     H25078   1.856  10.818   7.289 -0.8594  2.4640  1.1467
  948MOL0     H25079   1.998  10.752   7.558 -0.8424 -4.1580 -1.6486
  948MOL0     H25080   1.907  10.901   7.526 -0.1109  0.4441 -0.0121
  948MOL0     H25081   1.780  10.608   7.478 -1.0925 -0.6102  1.1776
  948MOL0     H25082   1.707  10.769   7.520 -0.2742 -1.3131 -0.7803
  948MOL0     H25083   1.847  10.729   7.745 -0.1410 -0.4415  1.6672
  948MOL0     H25084   1.853  10.570   7.692  0.0354 -0.5050  0.4498
  948MOL0     H25085   1.601  10.742   7.760 -2.0820 -0.7576  2.8579
  948MOL0     H25086   1.583  10.580   7.686 -3.2594  1.0459  2.1766
  948MOL0     H25087   1.688  10.668   7.961 -0.8321  1.7724 -1.5138
  948MOL0     H25088   1.700  10.497   7.887  2.8079  0.9189 -0.6835
  948MOL0     H25089   1.435  10.425   7.771 -2.9286  0.7507 -1.3255
  948MOL0     H25090   1.209  10.317   7.868 -1.0490 -1.3777  1.9144
  948MOL0     H25091   1.128  10.455   7.815 -1.1768  0.9952  0.2993
  948MOL0     H25092   1.030  10.512   8.042  1.5169  0.8390 -0.6232
  948MOL0     H25093   1.147  10.418   8.117 -0.2670 -0.3439  0.3952
  948MOL0     H25094   1.037  10.214   8.001 -0.1439 -0.4906  0.6024
  948MOL0     H25095   0.959  10.302   8.138 -0.6601  2.2405  0.6851
  948MOL0     H25096   0.892  10.344   7.842  0.2332  3.6549  0.6368
  948MOL0     H25097   0.818  10.429   7.978 -1.5360 -0.4619  0.1540
  948MOL0     H25098   0.667  10.394   7.770 -0.3236 -1.4049 -2.5820
  948MOL0     H25099   0.451  10.368   7.680 -1.5448  0.3911  1.1895
  948MOL0     H25100   0.007  10.390   7.872  1.2979 -3.1012  1.0937
  948MOL0     H25101  -0.242  10.397   7.817 -0.7938 -2.2816  0.1325
  948MOL0     H25102  -0.452  10.399   7.735 -1.5256  0.9535 -4.0960
  948MOL0     H25103  -0.450  10.225   7.803  0.7076  1.7028  1.2087
  948MOL0     H25104  -0.595  10.161   7.629 -0.0767 -0.4316 -1.2240
  948MOL0     H25105  -0.588  10.300   7.543 -1.4516  0.9369 -0.5984
  948MOL0     H25106  -0.715  10.318   7.816  0.0881  1.1513  0.4678
  948MOL0     H25107  -0.786  10.243   7.669 -0.9942 -0.4593 -0.6843
  948MOL0     H25108  -0.689  10.521   7.739  0.7987 -0.7292 -1.0159
  948MOL0     H25109  -0.708  10.499   7.571  0.1670  1.0926  0.0352
  948MOL0     H25110  -0.934  10.487   7.776 -3.1028  1.1286 -1.1526
  948MOL0     H25111  -0.954  10.418   7.624  1.7799 -0.1246 -1.7471
  948MOL0     H25112  -1.041  10.630   7.627  0.1004  1.4429 -2.2448
  948MOL0     H25113  -0.915  10.612   7.502 -1.7209 -1.7480  0.0560
  948MOL0     H25114  -0.890  10.730   7.773  0.6226 -0.8484  0.3026
  948MOL0     H25115  -0.757  10.738   7.661 -0.1863 -0.3642  0.6725
  948MOL0     H25116  -0.873  10.954   7.659  2.6944 -1.1387 -1.2485
  948MOL0     H25117  -1.029  10.880   7.615  0.0642  1.9881 -0.3787
  948MOL0     H25118  -0.170  10.164   7.469  2.5066  0.4508 -1.4476
  948MOL0     H25119   0.066  10.174   7.496 -1.0486  0.9932 -0.1717
  948MOL0     H25120   0.370  10.066   7.968  0.8627 -3.5825 -2.6303
  948MOL0     H25121   0.605  10.059   8.034 -2.4858  1.3680  2.2318
  948MOL0     H25122   2.407  10.787   7.448 -3.5954  1.1433 -2.3233
  948MOL0     H25123   2.620  10.817   7.554  1.2066  2.1079 -2.3877
  948MOL0     H25124   2.910  10.889   7.756  0.8682  0.0525 -1.8162
  948MOL0     H25125   3.142  10.860   7.827  1.2241  0.4992 -1.1676
  948MOL0     H25126   3.295  10.854   7.965 -2.2070  0.4595  0.1820
  948MOL0     H25127   3.399  10.963   8.071  0.8215 -0.6178 -1.2513
  948MOL0     H25128   3.427  10.926   7.764  2.7910 -1.1652 -1.5803
  948MOL0     H25129   3.541  11.005   7.871 -1.8643  2.5099 -0.5385
  948MOL0     H25130   3.492  10.718   7.816 -0.5116 -3.0838  2.6320
  948MOL0     H25131   3.507  10.755   7.990  0.2697  2.4958  0.4302
  948MOL0     H25132   3.728  10.695   7.837  0.1553  0.7707  2.4384
  948MOL0     H25133   3.693  10.860   7.771 -3.1291  1.3416  0.2872
  948MOL0     H25134   3.883  10.964   8.132 -1.0227  0.1476  0.6191
  948MOL0     H25135   3.178  11.284   7.897 -1.0346 -0.4401  0.2692
  948MOL0     H25136   2.951  11.318   7.802  3.4053  1.6192  3.4791
  949MOL0     O25137  10.858   3.974   3.903  0.7989  0.6576 -0.6616
  949MOL0     C25138  10.798   3.893   3.836  0.0859  1.3375 -0.3896
  949MOL0     O25139  10.849   3.837   3.718  0.1458  0.7231 -0.0001
  949MOL0     C25140  10.979   3.878   3.700 -0.7654  0.0937  0.5221
  949MOL0     C25141  11.026   3.994   3.618  0.2813  1.0555 -0.7935
  949MOL0     C25142  11.167   4.012   3.597 -0.3786  0.8644  0.3413
  949MOL0     C25143  11.260   3.921   3.643 -0.0310  0.5995 -0.2510
  949MOL0     O25144  11.398   3.932   3.627  0.5546 -0.4200  0.5824
  949MOL0     C25145  11.434   4.018   3.517 -0.6914  0.0246 -0.6719
  949MOL0     C25146  11.585   4.045   3.532  0.0043  0.2538  0.8509
  949MOL0     C25147  11.621   4.164   3.613 -0.3122  0.4204 -0.5571
  949MOL0     C25148  11.771   4.173   3.648  0.0871 -0.1401  0.1132
  949MOL0     C25149  11.796   4.268   3.768  0.5902 -0.3994 -0.2174
  949MOL0     C25150  11.923   4.220   3.843 -0.5200  0.2573 -0.3941
  949MOL0     C25151  11.961   4.302   3.968 -0.7344  0.9794 -0.0267
  949MOL0     C25152  12.049   4.432   3.932 -0.9069 -1.0722  0.4668
  949MOL0     N25153  12.110   4.483   4.055  0.3450 -0.5504  0.3559
  949MOL0     C25154  12.060   4.576   4.137  0.0613 -0.3087 -0.4027
  949MOL0     C25155  12.154   4.584   4.238  0.6628 -0.1447  0.1616
  949MOL0     C25156  12.153   4.694   4.337  0.8280  1.0151 -0.2773
  949MOL0     C25157  12.279   4.768   4.304  1.3184 -0.4865  0.2202
  949MOL0     C25158  12.303   4.876   4.420  0.4784  0.5198  0.1796
  949MOL0     C25159  12.194   4.989   4.434 -0.6472  0.6473 -0.1575
  949MOL0     O25160  12.236   5.106   4.503 -0.4544  0.3071 -0.5068
  949MOL0     C25161  12.311   5.201   4.443 -0.4301 -0.2499 -0.0332
  949MOL0     C25162  12.289   5.263   4.324 -0.0933  0.0904 -0.1756
  949MOL0     C25163  12.387   5.345   4.264  0.5285 -0.5620  0.6166
  949MOL0     C25164  12.508   5.371   4.325  0.9115 -1.1771  0.1426
  949MOL0     C25165  12.602   5.476   4.273 -0.2548  0.4340  0.7300
  949MOL0     O25166  12.687   5.522   4.370 -1.6571 -0.2715 -0.2437
  949MOL0     C25167  12.753   5.641   4.344  0.6045  0.6629 -0.4408
  949MOL0     C25168  12.698   5.749   4.427  0.7227  0.6279  0.0664
  949MOL0     C25169  12.763   5.869   4.410  0.3094  0.0393 -0.2760
  949MOL0     C25170  12.869   5.889   4.323 -0.7591 -0.2110  0.1067
  949MOL0     O25171  12.929   6.004   4.292  0.7953 -0.3433  0.0228
  949MOL0     C25172  12.931   6.098   4.399 -0.2155  0.2948 -1.0109
  949MOL0     C25173  13.042   6.194   4.351 -0.3548 -0.5497 -0.0226
  949MOL0     C25174  13.066   6.312   4.445 -0.3066  0.5778 -0.1702
  949MOL0     C25175  13.170   6.410   4.394 -0.2438  0.3099  0.5681
  949MOL0     C25176  13.277   6.346   4.306 -0.2844 -0.3362  0.4437
  949MOL0     C25177  13.395   6.438   4.267 -0.4488  0.1834 -0.2760
  949MOL0     C25178  13.492   6.365   4.171 -1.4800 -0.2929  0.1047
  949MOL0     C25179  13.558   6.241   4.220  0.4610 -0.0294  0.3077
  949MOL0    Cl25180  13.648   6.291   4.366 -0.0757 -0.0654 -0.0673
  949MOL0     C25181  12.923   5.781   4.257  1.8387  0.9417 -0.2436
  949MOL0     C25182  12.857   5.659   4.262 -0.2614 -0.1380  0.0150
  949MOL0     O25183  12.611   5.507   4.158  0.5944  0.3164  0.0200
  949MOL0     C25184  12.533   5.304   4.446 -0.2089  0.2138 -0.1179
  949MOL0     C25185  12.442   5.219   4.502 -0.3011 -0.2944 -0.0622
  949MOL0     N25186  12.240   4.477   4.212 -0.6914 -0.6929 -0.0590
  949MOL0     N25187  12.217   4.415   4.109  0.2108  0.5706  0.4627
  949MOL0     C25188  11.223   3.831   3.737 -0.5402  0.3643  0.0346
  949MOL0     C25189  11.086   3.806   3.758  0.7506  0.5916  0.1763
  949MOL0     C25190  10.667   3.847   3.889  0.1968 -0.2587  0.0294
  949MOL0     C25191  10.639   3.872   4.026 -0.9586  0.4030  0.1985
  949MOL0     C25192  10.515   3.823   4.079  0.0443 -0.7675 -1.0447
  949MOL0     C25193  10.417   3.764   3.993 -0.4475  0.1378  0.1646
  949MOL0     O25194  10.294   3.732   4.028 -0.2050 -0.4425 -0.0799
  949MOL0     C25195  10.246   3.789   4.149  0.3589  1.0540  0.2966
  949MOL0     C25196  10.096   3.769   4.144  0.6051 -0.5458 -0.1245
  949MOL0     C25197  10.027   3.808   4.280  0.9052 -0.5621  0.1272
  949MOL0     C25198   9.884   3.847   4.262 -0.5767 -0.5232  0.1724
  949MOL0     C25199   9.816   3.884   4.384  0.7519  0.4749 -0.9213
  949MOL0     C25200   9.760   3.934   4.482 -1.0227 -0.2152  1.0388
  949MOL0     C25201  10.444   3.742   3.854 -0.5572 -0.5427 -0.4319
  949MOL0     C25202  10.567   3.784   3.811 -0.3418  0.3344  0.2912
  949MOL0     H25203  10.955   4.053   3.561  0.3492 -0.5954 -2.6980
  949MOL0     H25204  11.196   4.090   3.528  0.7845 -0.5569 -0.8272
  949MOL0     H25205  11.392   4.118   3.532  0.4397  0.3098  0.8024
  949MOL0     H25206  11.401   3.976   3.422  1.4820  0.3321 -1.6211
  949MOL0     H25207  11.633   4.052   3.434  1.4523  1.8206  1.6331
  949MOL0     H25208  11.648   3.961   3.566  0.5320 -0.2151 -1.1820
  949MOL0     H25209  11.559   4.175   3.703 -0.3164  0.8891 -0.6148
  949MOL0     H25210  11.597   4.253   3.554 -0.7276 -0.4845 -1.8188
  949MOL0     H25211  11.805   4.071   3.669 -0.8783 -0.5739 -0.3772
  949MOL0     H25212  11.824   4.207   3.558  0.2069  0.5114  0.4244
  949MOL0     H25213  11.715   4.249   3.838  0.4772 -4.4234 -1.1849
  949MOL0     H25214  11.813   4.375   3.753  0.9513 -0.0432  2.2509
  949MOL0     H25215  12.005   4.220   3.771  0.6691 -2.2502  0.8266
  949MOL0     H25216  11.897   4.116   3.867 -2.7876  0.6701 -0.7833
  949MOL0     H25217  11.867   4.345   4.003 -0.3848  1.8521 -0.1549
  949MOL0     H25218  12.003   4.230   4.040 -1.7058 -1.4377 -1.7432
  949MOL0     H25219  11.982   4.506   3.888 -2.9374 -2.8357  0.4105
  949MOL0     H25220  12.124   4.416   3.854 -0.4231  2.4071  0.0719
  949MOL0     H25221  11.968   4.631   4.123  1.2773  1.1099 -3.5427
  949MOL0     H25222  12.161   4.647   4.436  1.7791  0.4112 -0.6302
  949MOL0     H25223  12.065   4.757   4.327 -0.0405 -0.5941 -5.1125
  949MOL0     H25224  12.272   4.826   4.211  1.8198 -2.3179 -1.0119
  949MOL0     H25225  12.371   4.709   4.303  2.1752  0.8039 -0.3187
  949MOL0     H25226  12.311   4.823   4.515 -1.9962  0.0820  0.2283
  949MOL0     H25227  12.398   4.928   4.404  1.4158 -1.3708 -0.6642
  949MOL0     H25228  12.117   4.947   4.499 -2.1338  1.4036 -1.3589
  949MOL0     H25229  12.144   5.014   4.339  1.6359  0.0583 -1.5936
  949MOL0     H25230  12.195   5.247   4.272 -1.7060 -0.5944  2.7374
  949MOL0     H25231  12.359   5.398   4.174  1.9939 -0.4270  0.2214
  949MOL0     H25232  12.621   5.736   4.502  1.8054  1.1970  1.3152
  949MOL0     H25233  12.728   5.945   4.480 -0.8314 -2.4100  1.9890
  949MOL0     H25234  12.956   6.054   4.496  0.5393  3.0152  0.1232
  949MOL0     H25235  12.838   6.154   4.405 -1.4570 -1.7945  1.0389
  949MOL0     H25236  13.022   6.241   4.254 -1.9439  0.0218  0.5483
  949MOL0     H25237  13.128   6.129   4.330 -0.4233 -0.7145  0.2133
  949MOL0     H25238  13.108   6.283   4.542 -2.1774 -0.5163  0.3866
  949MOL0     H25239  12.972   6.356   4.481 -0.4766 -1.2609  1.8547
  949MOL0     H25240  13.113   6.496   4.358 -0.5715  0.2428  0.9161
  949MOL0     H25241  13.229   6.452   4.476  0.8761  0.8610 -0.5023
  949MOL0     H25242  13.234   6.319   4.209  5.4000 -0.6772 -2.4068
  949MOL0     H25243  13.326   6.256   4.344 -1.3462 -0.6964  0.9962
  949MOL0     H25244  13.446   6.446   4.364 -1.1850 -0.7320  0.2000
  949MOL0     H25245  13.363   6.536   4.230 -1.4947 -0.0425  0.0176
  949MOL0     H25246  13.436   6.358   4.077  2.9583 -1.6533 -2.7315
  949MOL0     H25247  13.570   6.438   4.149 -1.5579 -0.4897 -0.8472
  949MOL0     H25248  13.627   6.212   4.141  0.5988 -0.0329  0.4301
  949MOL0     H25249  13.484   6.162   4.236  1.9014 -1.9134 -1.8022
  949MOL0     H25250  13.024   5.777   4.218  1.7056 -0.2013 -0.5437
  949MOL0     H25251  12.907   5.572   4.220 -0.7129 -0.8294  0.8915
  949MOL0     H25252  12.623   5.306   4.506 -0.1067  1.2470 -0.2823
  949MOL0     H25253  12.467   5.158   4.588 -0.0087  1.7263  1.3551
  949MOL0     H25254  11.306   3.780   3.784  1.1125  1.0336 -2.0190
  949MOL0     H25255  11.071   3.726   3.830  1.6531  0.2757  0.0329
  949MOL0     H25256  10.703   3.921   4.099  1.5265 -2.0585 -0.1730
  949MOL0     H25257  10.507   3.857   4.182  1.2773  2.8313 -1.9853
  949MOL0     H25258  10.273   3.893   4.170 -2.4827  1.9744 -0.1500
  949MOL0     H25259  10.284   3.728   4.231  0.6191  0.8852  0.0526
  949MOL0     H25260  10.061   3.838   4.067  0.7123  0.3856  0.6339
  949MOL0     H25261  10.075   3.668   4.107 -1.0116 -0.4297  0.3649
  949MOL0     H25262  10.073   3.904   4.305  0.1937 -0.3239  0.5733
  949MOL0     H25263  10.037   3.738   4.363  0.0733 -0.8533 -0.0090
  949MOL0     H25264   9.872   3.926   4.187 -2.0287  0.5035  1.4305
  949MOL0     H25265   9.829   3.765   4.216  1.0532  0.1776 -3.3469
  949MOL0     H25266   9.712   3.971   4.571  0.9898  1.6446  1.4396
  949MOL0     H25267  10.364   3.706   3.791 -2.0711 -1.1651  1.7382
  949MOL0     H25268  10.596   3.778   3.707 -3.2753  3.1049 -0.8602
  950MOL0     O25269   5.907   6.152   3.207 -0.9763  0.3705  0.3572
  950MOL0     C25270   5.943   6.255   3.266 -0.3716  0.2211 -0.2541
  950MOL0     O25271   5.997   6.270   3.386 -0.7606  0.8789 -0.3131
  950MOL0     C25272   6.054   6.163   3.449 -0.2965  0.6389 -0.4124
  950MOL0     C25273   6.162   6.093   3.394  0.2766 -0.1653  0.9582
  950MOL0     C25274   6.208   5.974   3.455  0.9731 -0.2736 -0.4684
  950MOL0     C25275   6.147   5.924   3.581 -0.0214 -0.5630 -0.0865
  950MOL0     O25276   6.197   5.814   3.642 -0.7076  0.2953  0.6803
  950MOL0     C25277   6.237   5.833   3.776  0.0868 -0.0591 -0.0447
  950MOL0     C25278   6.382   5.819   3.799  0.1183  0.4464 -0.0460
  950MOL0     C25279   6.437   5.686   3.768 -0.1258 -0.1236  0.1838
  950MOL0     C25280   6.580   5.668   3.795 -0.0654  0.9482 -0.2051
  950MOL0     C25281   6.665   5.759   3.711 -0.6250 -0.3062 -1.0171
  950MOL0     C25282   6.811   5.723   3.726 -0.5411 -0.0419 -0.3694
  950MOL0     C25283   6.913   5.819   3.679  0.3663 -0.2358 -0.3848
  950MOL0     C25284   6.990   5.752   3.557  1.0406  0.8538  0.2582
  950MOL0     N25285   7.107   5.837   3.525  0.2332 -0.6932 -0.4315
  950MOL0     C25286   7.208   5.873   3.614 -0.3575 -0.3590  0.6863
  950MOL0     C25287   7.281   5.961   3.537 -0.4989  0.3949  0.7570
  950MOL0     C25288   7.408   6.039   3.568 -0.4919 -0.8328 -0.0639
  950MOL0     C25289   7.436   6.074   3.716 -0.0859  0.7622 -0.1966
  950MOL0     C25290   7.553   6.164   3.753 -1.0552  0.5116 -0.3481
  950MOL0     C25291   7.693   6.122   3.704  0.0565  0.1308 -0.5138
  950MOL0     O25292   7.800   6.210   3.762  0.4039 -0.2216  0.3548
  950MOL0     C25293   7.916   6.149   3.795  0.6830 -0.3534  0.1797
  950MOL0     C25294   8.017   6.240   3.815 -0.2070  0.0143  0.0362
  950MOL0     C25295   8.146   6.190   3.834 -0.8777 -0.3651 -0.7227
  950MOL0     C25296   8.173   6.050   3.843  0.4581 -0.0299 -0.9355
  950MOL0     C25297   8.314   6.003   3.858 -0.4942  0.4667 -0.4205
  950MOL0     O25298   8.331   5.867   3.865 -0.3499 -0.6129 -0.7704
  950MOL0     C25299   8.455   5.813   3.865 -0.0094 -0.4263  0.3525
  950MOL0     C25300   8.523   5.807   3.745 -1.0075 -0.3339  0.2006
  950MOL0     C25301   8.659   5.751   3.738 -0.0949 -0.1957  0.6349
  950MOL0     C25302   8.737   5.719   3.854 -0.5074  0.8936  0.1328
  950MOL0     O25303   8.868   5.666   3.878 -0.1925 -0.3037 -0.1700
  950MOL0     C25304   8.963   5.682   3.768 -0.5880  0.2635  0.1666
  950MOL0     C25305   9.110   5.646   3.798 -0.3512 -0.6378 -0.4157
  950MOL0     C25306   9.165   5.498   3.791  0.4062  0.4680 -0.2131
  950MOL0     C25307   9.097   5.402   3.891  0.3539  0.4891  0.9245
  950MOL0     C25308   9.106   5.248   3.870 -0.0389 -0.5859  0.6763
  950MOL0     C25309   9.041   5.168   3.987  0.8778  0.7402  0.1138
  950MOL0     C25310   9.085   5.014   3.982  0.3439 -0.4568 -0.7358
  950MOL0     C25311   9.003   4.947   3.879  0.9086  0.3081  0.7135
  950MOL0    Cl25312   8.826   4.947   3.908 -0.3172 -0.3460 -0.3948
  950MOL0     C25313   8.677   5.737   3.976  0.5459 -0.3990 -0.5565
  950MOL0     C25314   8.533   5.779   3.983  0.0300  0.5905  0.7784
  950MOL0     O25315   8.398   6.097   3.875 -0.4736 -0.4809 -0.3576
  950MOL0     C25316   8.070   5.959   3.840 -0.0055  0.0050  0.2422
  950MOL0     C25317   7.942   6.007   3.799  0.0206 -0.0303 -0.6437
  950MOL0     N25318   7.220   5.955   3.405 -0.5095  0.1316 -0.1367
  950MOL0     N25319   7.111   5.894   3.404 -0.6112  0.0109  0.1963
  950MOL0     C25320   6.031   5.999   3.624 -0.7861  0.3659  0.0054
  950MOL0     C25321   5.995   6.122   3.568  0.3377  1.0814 -0.1013
  950MOL0     C25322   5.912   6.381   3.196 -0.9792  1.2657 -1.3654
  950MOL0     C25323   5.969   6.504   3.233 -0.8474 -0.1522  0.3527
  950MOL0     C25324   5.956   6.617   3.161 -0.1925  1.0179 -0.1786
  950MOL0     C25325   5.880   6.613   3.045 -0.2523 -0.0524 -0.3399
  950MOL0     O25326   5.893   6.720   2.955 -0.1844  0.0675  0.1201
  950MOL0     C25327   5.788   6.813   2.971  0.0402 -0.2722  0.2655
  950MOL0     C25328   5.793   6.918   3.089 -0.2740  0.5166  0.3774
  950MOL0     C25329   5.728   7.051   3.051 -0.3947 -0.0363  0.1049
  950MOL0     C25330   5.583   7.047   3.107  0.8543  0.6178  0.9395
  950MOL0     C25331   5.502   6.981   3.004 -0.3144  0.7216 -0.0729
  950MOL0     C25332   5.442   6.927   2.911 -0.1843  0.2309  0.0934
  950MOL0     C25333   5.830   6.497   3.002  0.0347  0.1091  0.2801
  950MOL0     C25334   5.836   6.378   3.082 -0.0161 -0.4567  0.5951
  950MOL0     H25335   6.206   6.113   3.296  2.5015  0.1845  1.9670
  950MOL0     H25336   6.297   5.922   3.422 -0.1933 -1.2361 -2.2198
  950MOL0     H25337   6.184   5.750   3.824 -0.3645  1.3663  1.9980
  950MOL0     H25338   6.209   5.928   3.822  0.2923  0.5173 -1.0677
  950MOL0     H25339   6.409   5.845   3.902  0.0423  1.1578 -0.2013
  950MOL0     H25340   6.416   5.904   3.739 -1.3194  0.4972 -0.8289
  950MOL0     H25341   6.422   5.666   3.661  1.4002  0.4980 -0.1741
  950MOL0     H25342   6.388   5.609   3.827  2.1982  0.7765  3.5801
  950MOL0     H25343   6.608   5.686   3.899  0.8316  1.7059 -0.5534
  950MOL0     H25344   6.598   5.565   3.764 -0.6988 -0.4142  3.5173
  950MOL0     H25345   6.660   5.860   3.752 -0.1437  0.1732 -2.0940
  950MOL0     H25346   6.626   5.764   3.609 -5.1837 -0.3708  0.4897
  950MOL0     H25347   6.828   5.622   3.686  2.6002  0.1649  0.1587
  950MOL0     H25348   6.834   5.712   3.832  0.8452  0.2092 -0.6176
  950MOL0     H25349   6.866   5.914   3.654  2.5670  0.4221 -2.4592
  950MOL0     H25350   6.992   5.828   3.754  0.1070  2.5821 -0.3659
  950MOL0     H25351   6.921   5.745   3.472 -1.3320 -1.1056  2.1998
  950MOL0     H25352   7.036   5.655   3.579  1.2618  1.1555  1.1396
  950MOL0     H25353   7.227   5.851   3.719 -1.8639  1.6238  1.4329
  950MOL0     H25354   7.411   6.127   3.503 -0.4932 -2.5824 -2.5495
  950MOL0     H25355   7.494   5.974   3.550 -0.1826 -0.5167  0.2558
  950MOL0     H25356   7.449   5.978   3.767  1.1086 -0.3206 -2.4177
  950MOL0     H25357   7.351   6.131   3.756  0.3885 -0.8380  3.5274
  950MOL0     H25358   7.529   6.269   3.736 -1.5513  0.0287 -2.9512
  950MOL0     H25359   7.564   6.142   3.860  0.8342 -2.2900 -0.9792
  950MOL0     H25360   7.674   6.133   3.597 -0.4507 -2.4857 -0.7548
  950MOL0     H25361   7.706   6.014   3.720  1.4640  0.3975  0.3264
  950MOL0     H25362   8.009   6.348   3.827  1.1278 -0.0683  2.3197
  950MOL0     H25363   8.229   6.255   3.858  0.9668 -2.7651 -0.1711
  950MOL0     H25364   8.470   5.847   3.659  0.0937  0.9023  0.0746
  950MOL0     H25365   8.715   5.770   3.647 -0.9170  1.8618  0.5105
  950MOL0     H25366   8.958   5.784   3.731  0.1042 -0.8747 -3.4970
  950MOL0     H25367   8.931   5.627   3.678 -3.8438 -0.5220  1.6583
  950MOL0     H25368   9.123   5.696   3.895 -0.4471  0.2200 -0.8424
  950MOL0     H25369   9.167   5.702   3.724 -3.6016  2.9595 -0.5116
  950MOL0     H25370   9.267   5.504   3.830  0.6402  1.0858 -0.9171
  950MOL0     H25371   9.156   5.456   3.691 -0.8356  1.1332 -0.3911
  950MOL0     H25372   9.131   5.434   3.990 -0.6065  1.6341  0.9165
  950MOL0     H25373   8.990   5.428   3.889  0.2643  0.1779  1.4076
  950MOL0     H25374   9.210   5.216   3.862  0.4202  1.1586 -0.9872
  950MOL0     H25375   9.049   5.218   3.781  1.7235 -2.0523 -0.0382
  950MOL0     H25376   8.932   5.179   3.983  0.6211 -1.5278 -0.4208
  950MOL0     H25377   9.080   5.211   4.080 -3.2772  1.9224  1.5236
  950MOL0     H25378   9.190   5.010   3.950  0.4129  0.2397 -0.6153
  950MOL0     H25379   9.057   4.965   4.076 -2.0640 -1.9667 -2.1422
  950MOL0     H25380   9.043   4.845   3.886  3.8033  1.1114 -1.8172
  950MOL0     H25381   9.028   4.986   3.780 -0.6466  0.8762  0.5264
  950MOL0     H25382   8.745   5.734   4.061 -1.5323 -1.9586  1.1860
  950MOL0     H25383   8.482   5.791   4.078 -1.6850  2.3858 -0.2989
  950MOL0     H25384   8.082   5.851   3.841 -0.2658 -0.0607 -1.3242
  950MOL0     H25385   7.871   5.926   3.792  0.9994 -0.8910 -0.7389
  950MOL0     H25386   5.974   5.949   3.702  0.1578 -1.1893 -0.2562
  950MOL0     H25387   5.911   6.181   3.604 -0.2590 -0.0169  0.3780
  950MOL0     H25388   6.039   6.498   3.316  1.1956  1.4690 -1.1271
  950MOL0     H25389   6.005   6.708   3.196 -2.2369  1.6488  1.2445
  950MOL0     H25390   5.697   6.753   2.960  0.7788 -1.1340 -1.7850
  950MOL0     H25391   5.801   6.867   2.877  2.5879  1.0556  1.2847
  950MOL0     H25392   5.764   6.879   3.188  3.0010 -1.4087  0.7332
  950MOL0     H25393   5.898   6.945   3.102  0.4208 -0.0157 -3.1277
  950MOL0     H25394   5.725   7.068   2.943 -2.1835 -2.2719 -0.2720
  950MOL0     H25395   5.784   7.133   3.097 -1.0293  0.8708 -0.7066
  950MOL0     H25396   5.583   6.983   3.196  1.7202 -3.2931 -1.5726
  950MOL0     H25397   5.524   7.138   3.118 -1.6002 -0.3713 -2.2663
  950MOL0     H25398   5.417   6.867   2.826  0.6936 -0.4379  0.2946
  950MOL0     H25399   5.782   6.493   2.904  2.3294  1.8859 -1.0253
  950MOL0     H25400   5.786   6.285   3.055  1.1910 -0.8356 -0.4932
  951MOL0     O25401   9.074   3.929   6.931  0.3204  1.0884  0.4035
  951MOL0     C25402   9.157   4.024   6.936  0.6443  0.4479  0.0974
  951MOL0     O25403   9.119   4.156   6.941 -0.2745  0.2363  0.1910
  951MOL0     C25404   8.989   4.179   6.917 -0.1321 -0.5331  0.6436
  951MOL0     C25405   8.902   4.165   7.027  0.6424  0.4433  0.1794
  951MOL0     C25406   8.756   4.180   7.013 -1.0882  0.1995 -0.7791
  951MOL0     C25407   8.706   4.203   6.874 -0.5848  0.3394 -0.1424
  951MOL0     O25408   8.573   4.228   6.841  0.1950 -0.0716 -0.3089
  951MOL0     C25409   8.481   4.237   6.951  0.0465 -0.4436  0.2439
  951MOL0     C25410   8.337   4.227   6.899 -1.3971  0.3907  0.8097
  951MOL0     C25411   8.236   4.232   7.004 -0.9796 -0.7535 -1.4664
  951MOL0     C25412   8.091   4.172   6.983 -0.2450 -0.4863 -0.7776
  951MOL0     C25413   8.030   4.255   6.874 -0.0408 -0.0446 -0.4018
  951MOL0     C25414   7.873   4.248   6.877  0.8176 -0.0081  0.3198
  951MOL0     C25415   7.792   4.353   6.797  0.1588 -0.3110  0.2226
  951MOL0     C25416   7.648   4.313   6.797 -0.2400 -0.4281  0.0033
  951MOL0     N25417   7.557   4.410   6.732 -0.1885  0.8355 -0.7054
  951MOL0     C25418   7.477   4.495   6.810 -0.4593 -0.1694  0.5592
  951MOL0     C25419   7.367   4.512   6.741  0.5265  0.2976  1.1919
  951MOL0     C25420   7.236   4.572   6.777 -0.1880 -0.6077  0.9265
  951MOL0     C25421   7.247   4.719   6.815 -1.0767 -0.4225  0.1293
  951MOL0     C25422   7.280   4.804   6.688  0.0065  0.7581 -0.5127
  951MOL0     C25423   7.298   4.952   6.691  0.5593 -1.0704 -0.2390
  951MOL0     O25424   7.207   5.015   6.780  0.3982  0.8852  0.0293
  951MOL0     C25425   7.072   5.025   6.755 -0.2443  0.0774 -0.0110
  951MOL0     C25426   6.994   5.083   6.850  0.3736  0.2143 -0.2106
  951MOL0     C25427   6.858   5.120   6.827  0.2421  0.3459  0.2030
  951MOL0     C25428   6.801   5.085   6.695  0.8703  0.8435  0.0780
  951MOL0     C25429   6.665   5.120   6.653  0.3972  0.5811 -0.6726
  951MOL0     O25430   6.597   5.187   6.754  0.2679 -0.6088  0.5091
  951MOL0     C25431   6.479   5.248   6.749  0.4009  0.9812 -0.0306
  951MOL0     C25432   6.422   5.288   6.870 -0.0333  0.4650  0.5422
  951MOL0     C25433   6.296   5.355   6.877  0.2126 -0.2295 -0.2454
  951MOL0     C25434   6.239   5.399   6.763  0.2112 -0.0161  0.6257
  951MOL0     O25435   6.120   5.463   6.771 -0.1044 -1.6478 -0.6338
  951MOL0     C25436   6.034   5.491   6.659 -0.4244 -0.4634  0.7497
  951MOL0     C25437   5.887   5.520   6.686  1.4199  0.1380 -0.3894
  951MOL0     C25438   5.822   5.602   6.568 -0.8184 -0.2322  0.2886
  951MOL0     C25439   5.675   5.648   6.582 -0.1713 -0.5358 -0.1360
  951MOL0     C25440   5.649   5.774   6.491 -0.4174  0.7521 -0.8792
  951MOL0     C25441   5.508   5.807   6.519 -0.5197  0.7068 -0.0733
  951MOL0     C25442   5.488   5.933   6.435  0.9012  0.4001 -0.1343
  951MOL0     C25443   5.356   5.992   6.440 -0.1560  0.0551 -0.4671
  951MOL0    Cl25444   5.342   6.130   6.331 -0.2957  0.4828 -0.0113
  951MOL0     C25445   6.292   5.363   6.636  0.6006  0.5969 -0.2639
  951MOL0     C25446   6.405   5.286   6.635 -0.3382  0.5755  0.0281
  951MOL0     O25447   6.611   5.066   6.560 -0.3959 -0.5136 -0.7070
  951MOL0     C25448   6.891   5.028   6.595  0.8647  0.3115 -0.3537
  951MOL0     C25449   7.027   4.995   6.633  0.1607  0.4417  0.1333
  951MOL0     N25450   7.380   4.435   6.613  0.3704 -0.4948  0.3171
  951MOL0     N25451   7.494   4.381   6.620  0.0921 -0.0280  0.2774
  951MOL0     C25452   8.797   4.203   6.765  0.4725 -0.3152 -0.1727
  951MOL0     C25453   8.934   4.195   6.791  0.1837 -0.0673  0.0351
  951MOL0     C25454   9.301   4.004   6.931 -1.3048 -0.1568  0.5476
  951MOL0     C25455   9.389   4.105   6.993  0.9760  0.3419 -0.2559
  951MOL0     C25456   9.524   4.100   6.969  0.5848  0.4602  0.2348
  951MOL0     C25457   9.574   4.003   6.878 -0.4528  0.6755 -0.2903
  951MOL0     O25458   9.704   4.023   6.837  0.1722  0.3945 -0.2806
  951MOL0     C25459   9.741   3.930   6.732  0.6220  1.2311 -0.0846
  951MOL0     C25460   9.879   3.971   6.682 -0.0088  0.1524 -0.3441
  951MOL0     C25461   9.975   4.000   6.803 -0.1224 -0.8838 -0.4071
  951MOL0     C25462  10.096   4.059   6.745 -0.3306  0.3086  0.2322
  951MOL0     C25463  10.193   4.112   6.851  0.1624  0.0077  0.5968
  951MOL0     C25464  10.283   4.157   6.928  0.4311  0.6101  0.4867
  951MOL0     C25465   9.495   3.907   6.818  0.4499  0.3244  0.0925
  951MOL0     C25466   9.357   3.903   6.852 -0.2141  0.4065  0.9141
  951MOL0     H25467   8.946   4.150   7.125 -2.3985  1.1759  1.7722
  951MOL0     H25468   8.698   4.190   7.103  2.3581  1.2982  1.5447
  951MOL0     H25469   8.489   4.337   6.996 -0.9192 -0.7003  1.0260
  951MOL0     H25470   8.499   4.162   7.028  0.8095  0.7455  1.2669
  951MOL0     H25471   8.326   4.135   6.841  2.8227  1.6970 -2.5664
  951MOL0     H25472   8.325   4.308   6.826 -1.9317  0.1717  0.6475
  951MOL0     H25473   8.223   4.334   7.039 -0.5731 -1.2080  0.0866
  951MOL0     H25474   8.262   4.168   7.089  0.7735 -0.7588 -1.9733
  951MOL0     H25475   8.100   4.069   6.948  2.6284 -0.2882 -0.9003
  951MOL0     H25476   8.043   4.186   7.081  1.1183  0.5215 -0.2117
  951MOL0     H25477   8.068   4.224   6.777 -0.7595 -1.3755 -0.2844
  951MOL0     H25478   8.072   4.355   6.886  0.9214 -0.6649  2.1922
  951MOL0     H25479   7.835   4.244   6.980  2.8206 -1.8239  1.0622
  951MOL0     H25480   7.858   4.153   6.826 -0.0323 -1.2734  2.7706
  951MOL0     H25481   7.805   4.451   6.843  0.0801  1.1034 -2.5449
  951MOL0     H25482   7.826   4.368   6.694 -0.9792  1.3133  0.0327
  951MOL0     H25483   7.627   4.291   6.902 -0.5921  1.1202  0.2696
  951MOL0     H25484   7.628   4.212   6.760  0.1726 -0.6411  0.3406
  951MOL0     H25485   7.499   4.538   6.907 -0.5069 -3.6634  2.2818
  951MOL0     H25486   7.181   4.518   6.854 -0.3666 -1.4849  0.2018
  951MOL0     H25487   7.154   4.580   6.704 -2.9253  0.5947  3.8977
  951MOL0     H25488   7.329   4.735   6.886  0.0511 -2.3547 -0.6691
  951MOL0     H25489   7.152   4.741   6.864 -0.8277  0.8999  0.0537
  951MOL0     H25490   7.378   4.768   6.658 -0.3077  1.5729 -2.6833
  951MOL0     H25491   7.199   4.791   6.616 -0.7679 -0.7311  0.5825
  951MOL0     H25492   7.287   4.997   6.592  0.6166  0.0006  0.2268
  951MOL0     H25493   7.398   4.969   6.732  0.8918 -1.2814 -0.9423
  951MOL0     H25494   7.027   5.098   6.952  1.4311 -1.8809 -0.1924
  951MOL0     H25495   6.798   5.168   6.903  2.7330 -1.2933  3.5033
  951MOL0     H25496   6.455   5.258   6.969 -0.0813 -1.9870 -0.1059
  951MOL0     H25497   6.257   5.374   6.977  0.2465  1.3603 -0.5098
  951MOL0     H25498   6.038   5.411   6.583  1.5871 -0.4122  0.7615
  951MOL0     H25499   6.069   5.576   6.600 -2.9540  0.1271 -0.0360
  951MOL0     H25500   5.873   5.576   6.779 -1.0927 -1.0498 -0.0000
  951MOL0     H25501   5.835   5.424   6.690 -1.1277  1.4323 -0.2312
  951MOL0     H25502   5.827   5.534   6.483 -1.2978  0.1411 -0.0446
  951MOL0     H25503   5.883   5.692   6.551  1.0832 -1.4969  0.1227
  951MOL0     H25504   5.606   5.569   6.552 -1.9007  0.3763  1.2368
  951MOL0     H25505   5.657   5.683   6.684  0.0901 -1.1365  0.1204
  951MOL0     H25506   5.671   5.755   6.385  0.6073  5.0501 -1.6136
  951MOL0     H25507   5.714   5.854   6.527  1.6091 -1.5559  0.8962
  951MOL0     H25508   5.486   5.840   6.621 -2.9416  0.2532 -0.3980
  951MOL0     H25509   5.428   5.738   6.492  0.4649 -1.5761  2.3669
  951MOL0     H25510   5.549   6.013   6.480  0.4356 -0.5007  2.2550
  951MOL0     H25511   5.516   5.918   6.330  1.4856 -1.0333  0.2111
  951MOL0     H25512   5.323   6.013   6.542  0.7826  1.6025 -0.4517
  951MOL0     H25513   5.287   5.914   6.406 -4.2097  2.9800  0.2563
  951MOL0     H25514   6.235   5.377   6.545 -2.2538 -0.8164  1.1426
  951MOL0     H25515   6.422   5.237   6.540 -4.1081 -0.3918 -0.3184
  951MOL0     H25516   6.856   5.008   6.495 -1.1206  0.9123  0.1658
  951MOL0     H25517   7.078   4.932   6.560 -1.1588  0.1044 -0.5260
  951MOL0     H25518   8.761   4.241   6.669 -3.2974 -2.4642  0.1723
  951MOL0     H25519   9.006   4.192   6.710 -0.9421  0.5549 -1.0166
  951MOL0     H25520   9.339   4.179   7.055 -0.9341 -1.1666  0.1092
  951MOL0     H25521   9.591   4.175   7.010 -1.2549  2.7272 -0.6873
  951MOL0     H25522   9.677   3.948   6.645  1.3115  4.3026 -0.0753
  951MOL0     H25523   9.737   3.831   6.777 -0.5429  1.6982  0.9005
  951MOL0     H25524   9.926   3.890   6.626 -0.5507  0.2770 -0.9871
  951MOL0     H25525   9.878   4.064   6.626  0.6105 -0.0838 -0.7609
  951MOL0     H25526  10.003   3.912   6.862  3.0926  0.9772  1.0927
  951MOL0     H25527   9.938   4.076   6.873  1.7980 -1.7619  1.6693
  951MOL0     H25528  10.141   3.983   6.681 -1.8656  0.6182 -1.2751
  951MOL0     H25529  10.068   4.147   6.686  1.9701 -0.9324 -2.9983
  951MOL0     H25530  10.366   4.194   6.984  1.3467 -2.2455  1.1740
  951MOL0     H25531   9.517   3.818   6.758 -0.0952  2.3311 -3.3886
  951MOL0     H25532   9.286   3.836   6.804 -0.8992  1.3574  0.5622
  952MOL0     O25533   8.276   4.910   3.922  0.6463 -0.0589  0.5325
  952MOL0     C25534   8.267   4.906   3.805 -0.8814  0.6685  0.5481
  952MOL0     O25535   8.179   4.953   3.726  0.0581 -0.1908  1.1552
  952MOL0     C25536   8.065   5.020   3.757 -0.1792 -1.1036  0.1881
  952MOL0     C25537   7.949   4.989   3.681 -0.2394 -0.7359 -0.6865
  952MOL0     C25538   7.831   5.047   3.712  0.2157  0.1352 -0.2296
  952MOL0     C25539   7.812   5.138   3.822 -0.3106  0.4425  0.1778
  952MOL0     O25540   7.682   5.184   3.848  0.3967 -0.5977 -0.0526
  952MOL0     C25541   7.600   5.095   3.926 -0.2215 -0.7737 -0.3917
  952MOL0     C25542   7.552   5.185   4.036 -0.9255 -0.9996 -1.0186
  952MOL0     C25543   7.476   5.103   4.138  1.3613  0.1633  0.9096
  952MOL0     C25544   7.395   5.199   4.223 -0.5754  0.2387  0.3195
  952MOL0     C25545   7.298   5.116   4.320  0.0127  0.1043 -0.5911
  952MOL0     C25546   7.201   5.199   4.410 -0.6671 -0.7039  0.6848
  952MOL0     C25547   7.256   5.324   4.481  0.0376  0.0264  0.3257
  952MOL0     C25548   7.207   5.348   4.623 -0.3903 -0.1699  0.9016
  952MOL0     N25549   7.062   5.363   4.636  0.6956  0.9329  0.1478
  952MOL0     C25550   7.010   5.462   4.708  0.1816 -0.7896  0.4848
  952MOL0     C25551   6.876   5.439   4.702 -0.2466 -0.4577 -0.5201
  952MOL0     C25552   6.779   5.517   4.793  0.1812 -0.3520 -0.4030
  952MOL0     C25553   6.639   5.469   4.761  0.2203  0.1564 -0.0167
  952MOL0     C25554   6.581   5.524   4.626  0.3495  0.3982 -0.0754
  952MOL0     C25555   6.472   5.436   4.571 -0.7993 -0.3092  0.4020
  952MOL0     O25556   6.358   5.444   4.648 -1.2446 -1.2002  0.9312
  952MOL0     C25557   6.246   5.399   4.591  0.6019  0.5445 -0.9281
  952MOL0     C25558   6.186   5.460   4.482 -0.1390  0.6455  0.4156
  952MOL0     C25559   6.073   5.402   4.423 -0.4343 -0.1676 -0.2551
  952MOL0     C25560   6.020   5.285   4.463  0.9957  0.2092  0.7346
  952MOL0     C25561   5.923   5.221   4.382  0.4157  0.2412 -0.1190
  952MOL0     O25562   5.830   5.301   4.311  0.3148  0.2317 -0.9058
  952MOL0     C25563   5.740   5.253   4.223  0.3177  0.1230 -1.0859
  952MOL0     C25564   5.770   5.148   4.125 -0.5026 -0.0757 -0.4627
  952MOL0     C25565   5.668   5.115   4.034 -0.0227 -0.4028 -1.0882
  952MOL0     C25566   5.545   5.170   4.053  0.2932  0.1156  0.0406
  952MOL0     O25567   5.429   5.141   3.985 -0.2358 -0.1320  0.9668
  952MOL0     C25568   5.441   5.107   3.847  0.2412  0.6780  0.7686
  952MOL0     C25569   5.365   4.973   3.842  0.9780 -0.3712 -0.6863
  952MOL0     C25570   5.412   4.875   3.731 -0.0517 -0.7872 -0.7370
  952MOL0     C25571   5.321   4.750   3.723  0.8147  0.1546  0.6371
  952MOL0     C25572   5.321   4.691   3.574  1.2309  0.7798 -0.7824
  952MOL0     C25573   5.239   4.771   3.473  1.1447 -0.5178  0.7628
  952MOL0     C25574   5.222   4.698   3.345  1.0816  0.3201 -0.7022
  952MOL0     C25575   5.100   4.758   3.268 -0.8812 -0.0719  0.5449
  952MOL0    Cl25576   5.125   4.732   3.098 -0.4623 -0.1444  0.0765
  952MOL0     C25577   5.522   5.273   4.139  0.2463 -0.0774  0.2424
  952MOL0     C25578   5.620   5.317   4.222  0.1110 -0.1671  0.7746
  952MOL0     O25579   5.921   5.098   4.384  0.4348  0.4092  0.8715
  952MOL0     C25580   6.087   5.224   4.570 -0.0058  0.2170 -0.3425
  952MOL0     C25581   6.202   5.275   4.633  0.1234 -0.2371 -0.1112
  952MOL0     N25582   6.851   5.342   4.608  0.0368 -0.3001 -0.5737
  952MOL0     N25583   6.965   5.292   4.569 -0.6307  0.2727 -0.2819
  952MOL0     C25584   7.923   5.171   3.894 -0.2745  0.9489  0.3054
  952MOL0     C25585   8.049   5.110   3.860  0.2735 -0.9834  0.4542
  952MOL0     C25586   8.364   4.803   3.744  0.3676  0.4653  1.1296
  952MOL0     C25587   8.325   4.721   3.632  0.7771 -0.2180  0.5251
  952MOL0     C25588   8.432   4.656   3.561 -0.1701 -0.1486  0.9894
  952MOL0     C25589   8.566   4.644   3.617 -0.2102  0.0679  0.0774
  952MOL0     O25590   8.656   4.576   3.536  1.0828 -0.9703 -0.3748
  952MOL0     C25591   8.788   4.554   3.577  0.8852  0.7047  0.2338
  952MOL0     C25592   8.881   4.663   3.520 -0.0683 -0.1994 -1.2091
  952MOL0     C25593   9.027   4.612   3.513 -0.2037  0.7051  0.5309
  952MOL0     C25594   9.146   4.701   3.502 -0.4683 -0.8847 -0.1058
  952MOL0     C25595   9.274   4.635   3.466  0.1480  0.1576 -0.3583
  952MOL0     C25596   9.382   4.587   3.440  0.3076 -0.1494 -0.9263
  952MOL0     C25597   8.593   4.720   3.728 -0.0765  0.2279 -0.5876
  952MOL0     C25598   8.496   4.797   3.791 -0.0685  0.4945  0.0842
  952MOL0     H25599   7.944   4.921   3.597 -0.1083 -1.2516 -0.2809
  952MOL0     H25600   7.748   5.030   3.644  1.5093 -0.1526 -1.7925
  952MOL0     H25601   7.651   5.010   3.972 -1.5847 -1.0248  0.7337
  952MOL0     H25602   7.514   5.062   3.867  0.1287 -1.1653 -0.6885
  952MOL0     H25603   7.496   5.262   3.982 -2.0294 -2.1616 -1.5677
  952MOL0     H25604   7.641   5.233   4.077 -2.3235 -0.5798  1.7157
  952MOL0     H25605   7.545   5.046   4.201 -0.7473  0.2440  3.4718
  952MOL0     H25606   7.417   5.023   4.091  1.4042  0.4869  0.2908
  952MOL0     H25607   7.449   5.266   4.290 -1.4532  0.3448  0.9341
  952MOL0     H25608   7.331   5.259   4.158 -0.0073 -0.2662 -0.7279
  952MOL0     H25609   7.361   5.063   4.392 -3.1857  1.7116  3.8538
  952MOL0     H25610   7.233   5.045   4.268  0.2467  0.5283 -1.4710
  952MOL0     H25611   7.162   5.131   4.487 -2.1296 -0.6690  0.0111
  952MOL0     H25612   7.126   5.224   4.334  0.6716  0.4109 -0.3227
  952MOL0     H25613   7.362   5.303   4.500 -0.5127 -3.5855  0.0270
  952MOL0     H25614   7.243   5.410   4.414 -3.2512 -1.3896 -1.0611
  952MOL0     H25615   7.244   5.446   4.656  0.5906  0.8533 -2.7694
  952MOL0     H25616   7.242   5.269   4.690 -2.9742 -2.4514 -0.2340
  952MOL0     H25617   7.054   5.533   4.776  0.6348 -1.8903  1.3725
  952MOL0     H25618   6.794   5.623   4.771 -3.2173 -0.0604 -1.9563
  952MOL0     H25619   6.797   5.495   4.899 -1.2066 -0.8286 -0.2498
  952MOL0     H25620   6.578   5.512   4.841  1.4187  0.0774  0.9622
  952MOL0     H25621   6.645   5.360   4.763 -0.9696  0.0896  0.7077
  952MOL0     H25622   6.541   5.625   4.640  1.6920  0.9406 -0.0264
  952MOL0     H25623   6.667   5.527   4.560  0.4345  0.3489  0.0318
  952MOL0     H25624   6.513   5.338   4.546 -0.6488  0.6342 -3.6316
  952MOL0     H25625   6.443   5.473   4.473 -0.7522  3.1170  1.5382
  952MOL0     H25626   6.238   5.545   4.440 -0.7768  1.4969  1.2967
  952MOL0     H25627   6.036   5.473   4.350 -1.8020  1.4649  1.8777
  952MOL0     H25628   5.864   5.100   4.103 -2.3208 -3.2624 -2.0553
  952MOL0     H25629   5.693   5.032   3.969  1.4068 -1.4693  0.7268
  952MOL0     H25630   5.545   5.127   3.820 -0.0690  2.2191  0.6499
  952MOL0     H25631   5.397   5.169   3.769 -0.4846 -2.8457 -1.9131
  952MOL0     H25632   5.264   5.008   3.819  1.2870  1.0462  0.0115
  952MOL0     H25633   5.373   4.920   3.937 -1.7122 -0.1369 -0.2669
  952MOL0     H25634   5.506   4.830   3.763 -0.5379 -3.0086 -2.2537
  952MOL0     H25635   5.419   4.928   3.635 -0.5685  0.3066 -0.1941
  952MOL0     H25636   5.362   4.664   3.777  4.6852  0.5378 -1.3475
  952MOL0     H25637   5.216   4.774   3.746  0.5669  1.9605 -1.9476
  952MOL0     H25638   5.283   4.589   3.580  0.4147  1.0456 -1.2837
  952MOL0     H25639   5.419   4.682   3.527  0.4034 -2.7177 -2.0948
  952MOL0     H25640   5.278   4.871   3.450 -1.3811  0.4300  0.2334
  952MOL0     H25641   5.138   4.771   3.513  0.1000 -2.8063 -1.5625
  952MOL0     H25642   5.305   4.705   3.275  1.2225 -0.0029 -0.5678
  952MOL0     H25643   5.203   4.593   3.365  0.1210  0.8914  1.8825
  952MOL0     H25644   5.102   4.868   3.270  2.6206 -0.0464  2.3408
  952MOL0     H25645   5.002   4.724   3.302 -0.9902 -2.1496 -1.6283
  952MOL0     H25646   5.430   5.330   4.128  1.3520  1.5643 -0.9678
  952MOL0     H25647   5.601   5.405   4.282  1.3726  0.4249  0.3172
  952MOL0     H25648   6.039   5.134   4.607 -0.5199  0.7749  0.3779
  952MOL0     H25649   6.243   5.214   4.713  0.1471 -1.6196 -1.1334
  952MOL0     H25650   7.926   5.229   3.986 -1.2975 -0.0420  0.9935
  952MOL0     H25651   8.127   5.138   3.931  1.7033  0.8479 -1.6941
  952MOL0     H25652   8.226   4.717   3.588  0.6376  2.2956  0.5022
  952MOL0     H25653   8.422   4.613   3.462  0.0878 -1.2136  1.4154
  952MOL0     H25654   8.807   4.459   3.527 -1.2208 -0.9939  2.4044
  952MOL0     H25655   8.802   4.542   3.685 -1.1785  0.0231  0.4619
  952MOL0     H25656   8.843   4.701   3.425  0.0750  0.1215 -1.1388
  952MOL0     H25657   8.887   4.751   3.584 -0.0103  0.4243 -2.0550
  952MOL0     H25658   9.041   4.538   3.434 -0.1970  0.9136  0.3370
  952MOL0     H25659   9.039   4.562   3.609  1.9233  2.1608  1.0880
  952MOL0     H25660   9.130   4.769   3.418  2.8794 -1.1061 -1.0429
  952MOL0     H25661   9.159   4.762   3.592 -1.1564 -1.4153  0.3668
  952MOL0     H25662   9.479   4.547   3.418  1.4726  1.8923  0.1654
  952MOL0     H25663   8.687   4.718   3.781  0.8690  1.3166 -2.1599
  952MOL0     H25664   8.516   4.836   3.890  0.0602  0.6882 -0.0201
  953MOL0     O25665   2.399   5.284   8.579 -0.1006  0.0132  0.6965
  953MOL0     C25666   2.343   5.338   8.673  1.2364  0.3588 -0.0873
  953MOL0     O25667   2.199   5.358   8.687  0.1422 -0.2900  0.2708
  953MOL0     C25668   2.121   5.250   8.643 -0.2308 -0.7004 -0.3974
  953MOL0     C25669   1.990   5.290   8.630 -0.1970 -0.0115 -0.6262
  953MOL0     C25670   1.889   5.207   8.582 -1.1173 -0.2862 -0.4486
  953MOL0     C25671   1.915   5.065   8.557 -0.8781  0.7876 -0.3093
  953MOL0     O25672   1.804   4.991   8.513 -0.5673 -1.0139  0.4356
  953MOL0     C25673   1.843   4.881   8.427  0.2519  0.4609 -0.5939
  953MOL0     C25674   1.722   4.822   8.346  0.6204  0.1752 -0.1185
  953MOL0     C25675   1.608   4.791   8.443 -0.3858 -0.0076 -0.5261
  953MOL0     C25676   1.493   4.704   8.395 -0.8472  0.2505  0.0325
  953MOL0     C25677   1.408   4.763   8.287  0.0233 -0.1874 -0.0232
  953MOL0     C25678   1.448   4.724   8.148 -0.6018 -0.5986 -0.4414
  953MOL0     C25679   1.454   4.575   8.119  0.5325  0.1892  1.0907
  953MOL0     C25680   1.461   4.539   7.968  0.1111  0.0426 -0.2386
  953MOL0     N25681   1.605   4.552   7.935 -0.1180  0.3528  0.3218
  953MOL0     C25682   1.690   4.660   7.912  0.2078 -0.5880 -0.5115
  953MOL0     C25683   1.819   4.609   7.904  1.0407 -0.3130  0.7182
  953MOL0     C25684   1.942   4.687   7.887 -0.6854  0.1712  0.6677
  953MOL0     C25685   1.987   4.728   8.019 -0.1104 -0.4427 -0.9761
  953MOL0     C25686   2.119   4.800   8.013 -0.3193 -0.0473 -0.5266
  953MOL0     C25687   2.229   4.731   8.088  0.4465 -0.3133  0.2259
  953MOL0     O25688   2.205   4.733   8.232  0.0532  0.2858 -0.6155
  953MOL0     C25689   2.293   4.805   8.315 -0.2623  0.3100  0.1629
  953MOL0     C25690   2.387   4.906   8.277 -0.3318 -0.0606 -0.1317
  953MOL0     C25691   2.469   4.977   8.365 -0.6693  0.9815  0.7537
  953MOL0     C25692   2.471   4.943   8.500 -0.0673 -0.0076 -0.0057
  953MOL0     C25693   2.554   5.024   8.595 -0.2174  0.2371  0.3623
  953MOL0     O25694   2.671   5.079   8.539  0.7223 -0.7926  0.0896
  953MOL0     C25695   2.777   5.105   8.627 -0.1469 -0.0794  0.2329
  953MOL0     C25696   2.804   5.033   8.750  0.1760  0.8372 -0.6024
  953MOL0     C25697   2.905   5.068   8.844 -0.8509 -0.7090  0.7748
  953MOL0     C25698   2.995   5.169   8.810  1.0294 -0.2946  0.0367
  953MOL0     O25699   3.093   5.195   8.903 -0.1238  0.4384  0.4625
  953MOL0     C25700   3.206   5.277   8.869 -0.5440  0.1447 -0.0135
  953MOL0     C25701   3.309   5.195   8.793  0.3950  1.6562 -0.6409
  953MOL0     C25702   3.423   5.279   8.748 -0.2147 -0.4703  0.9262
  953MOL0     C25703   3.389   5.363   8.624  1.4594 -0.0441 -0.4966
  953MOL0     C25704   3.412   5.287   8.496  0.1721  0.3512  0.9314
  953MOL0     C25705   3.555   5.242   8.475  0.1857 -0.5799 -0.6286
  953MOL0     C25706   3.571   5.211   8.330 -0.0858 -0.4517  0.2365
  953MOL0     C25707   3.710   5.187   8.267  0.6898  0.5169 -0.1276
  953MOL0    Cl25708   3.777   5.023   8.319 -0.1088 -0.1996  0.9625
  953MOL0     C25709   2.985   5.224   8.682  0.3549 -0.5525  0.6999
  953MOL0     C25710   2.879   5.198   8.594  0.1189 -0.3048  0.1004
  953MOL0     O25711   2.524   5.028   8.710  0.7258  0.2411  0.0725
  953MOL0     C25712   2.376   4.844   8.539 -0.0507 -0.0440 -0.8364
  953MOL0     C25713   2.293   4.777   8.451  0.4472  0.3181 -0.1890
  953MOL0     N25714   1.819   4.474   7.929  1.3051 -0.7219  0.0276
  953MOL0     N25715   1.689   4.441   7.941  0.3125 -0.3777  0.2886
  953MOL0     C25716   2.051   5.026   8.581  0.6555  0.3121  0.5532
  953MOL0     C25717   2.147   5.113   8.628  0.0170 -0.7936  0.6578
  953MOL0     C25718   2.426   5.383   8.785 -0.0177  0.5154 -0.4315
  953MOL0     C25719   2.365   5.468   8.871  0.7321 -0.2717  0.6506
  953MOL0     C25720   2.441   5.516   8.987 -0.6562 -1.3549  0.1198
  953MOL0     C25721   2.580   5.486   8.995 -0.2650 -0.3314 -0.1766
  953MOL0     O25722   2.658   5.536   9.095 -0.7282 -0.1997 -0.7229
  953MOL0     C25723   2.612   5.645   9.175  0.0249 -0.3253  0.1095
  953MOL0     C25724   2.727   5.713   9.250 -0.5514  0.1363 -1.1181
  953MOL0     C25725   2.820   5.798   9.175 -0.5791 -1.4820  0.6786
  953MOL0     C25726   2.935   5.840   9.261  0.3161  0.2025  0.2175
  953MOL0     C25727   3.020   5.934   9.189 -0.3945 -0.1603  1.0745
  953MOL0     C25728   3.095   6.006   9.124  0.4813 -0.5236  0.1240
  953MOL0     C25729   2.640   5.416   8.894 -0.3961  0.4708 -0.0296
  953MOL0     C25730   2.570   5.364   8.792 -0.3321 -0.0335 -0.0929
  953MOL0     H25731   1.949   5.384   8.665 -0.5768  0.1581 -1.4930
  953MOL0     H25732   1.788   5.242   8.566 -0.9415  0.8575  0.8609
  953MOL0     H25733   1.880   4.802   8.494 -0.0169  0.4516 -0.4560
  953MOL0     H25734   1.929   4.901   8.361  0.4360 -0.4601 -0.6475
  953MOL0     H25735   1.753   4.731   8.294 -0.4558 -0.0332 -0.4101
  953MOL0     H25736   1.693   4.899   8.274 -1.0354  1.6741  1.9980
  953MOL0     H25737   1.556   4.884   8.469 -0.0071  0.6323 -1.9819
  953MOL0     H25738   1.649   4.761   8.540 -1.3084 -0.6051 -0.3121
  953MOL0     H25739   1.535   4.604   8.374 -0.7309  0.7705 -2.5739
  953MOL0     H25740   1.424   4.701   8.479 -0.3284 -5.5365  0.6715
  953MOL0     H25741   1.434   4.869   8.282  2.4763 -0.7890 -1.5791
  953MOL0     H25742   1.300   4.750   8.303 -0.8970  3.3281 -2.3876
  953MOL0     H25743   1.553   4.754   8.142  0.5042 -4.2216 -1.6924
  953MOL0     H25744   1.395   4.777   8.069  0.3155  0.5332 -0.3324
  953MOL0     H25745   1.544   4.541   8.172 -0.1208 -0.4822  1.7916
  953MOL0     H25746   1.367   4.520   8.156  0.4151 -1.4425 -1.4091
  953MOL0     H25747   1.397   4.604   7.907  0.5200  0.6196 -0.0653
  953MOL0     H25748   1.430   4.435   7.957  1.8037 -1.0675  3.8370
  953MOL0     H25749   1.672   4.767   7.908  4.8178  0.4687  0.8196
  953MOL0     H25750   1.922   4.772   7.820 -1.8319 -0.1019  0.6350
  953MOL0     H25751   2.022   4.636   7.833 -0.0530  3.1926 -1.5315
  953MOL0     H25752   2.000   4.643   8.086 -0.5485  0.6106  0.5235
  953MOL0     H25753   1.910   4.793   8.062  1.6527  3.2453 -2.9332
  953MOL0     H25754   2.155   4.826   7.913  1.1088  0.0241 -0.0102
  953MOL0     H25755   2.110   4.895   8.066  4.6485  0.1136  0.4642
  953MOL0     H25756   2.329   4.766   8.064  0.8963  0.0300  2.4173
  953MOL0     H25757   2.235   4.626   8.056 -0.8695 -0.1952 -0.4646
  953MOL0     H25758   2.388   4.940   8.174 -1.5753  1.3690  0.2997
  953MOL0     H25759   2.533   5.048   8.314  0.5028 -1.3156 -1.2163
  953MOL0     H25760   2.737   4.951   8.771  0.9026 -0.0462 -1.6096
  953MOL0     H25761   2.927   5.010   8.933 -1.6823 -0.6345  1.0356
  953MOL0     H25762   3.233   5.325   8.964  3.3694  2.5009 -2.0535
  953MOL0     H25763   3.187   5.368   8.811 -1.6954  1.4954  2.3349
  953MOL0     H25764   3.272   5.140   8.706 -0.9087 -0.7563  1.3009
  953MOL0     H25765   3.341   5.119   8.865 -2.4660  1.7486  0.8966
  953MOL0     H25766   3.515   5.222   8.734 -0.8457 -1.2423 -0.1992
  953MOL0     H25767   3.451   5.352   8.826  3.8395  4.3449 -4.1937
  953MOL0     H25768   3.287   5.400   8.618  0.8172 -1.3248  1.3394
  953MOL0     H25769   3.438   5.461   8.628 -1.6250  1.6231 -0.5611
  953MOL0     H25770   3.390   5.352   8.411  3.1022 -0.2250 -0.3873
  953MOL0     H25771   3.354   5.194   8.492  1.4692 -0.6514  3.5010
  953MOL0     H25772   3.566   5.150   8.533  2.3345  1.2861  2.1805
  953MOL0     H25773   3.631   5.307   8.519 -0.2038 -0.6592  0.1843
  953MOL0     H25774   3.505   5.130   8.298  0.1322 -0.0142 -1.3822
  953MOL0     H25775   3.540   5.298   8.272  0.6847 -1.2454 -1.4480
  953MOL0     H25776   3.781   5.261   8.304 -0.4331  1.7461 -0.3579
  953MOL0     H25777   3.704   5.186   8.158  0.7621  2.6077 -0.1856
  953MOL0     H25778   3.059   5.299   8.656  0.7586 -1.7035 -1.7369
  953MOL0     H25779   2.876   5.241   8.494  1.8603 -3.7525 -1.6403
  953MOL0     H25780   2.379   4.820   8.645  0.8851 -2.3656 -1.3411
  953MOL0     H25781   2.215   4.706   8.476 -0.1403  2.0442  3.5301
  953MOL0     H25782   2.079   4.921   8.582 -0.4915 -0.0183  2.0116
  953MOL0     H25783   2.252   5.090   8.646  0.8170  0.9566 -1.2914
  953MOL0     H25784   2.258   5.480   8.880  0.5175 -3.0585  3.4738
  953MOL0     H25785   2.390   5.586   9.053  1.5124  0.8831 -0.4038
  953MOL0     H25786   2.550   5.607   9.257  1.0154 -1.6611  0.2669
  953MOL0     H25787   2.566   5.714   9.104  4.3891  2.9156  0.0142
  953MOL0     H25788   2.677   5.780   9.320 -1.1149 -1.6177  0.2309
  953MOL0     H25789   2.796   5.639   9.293  0.3781  0.7092 -1.5774
  953MOL0     H25790   2.769   5.887   9.137 -1.1401 -2.0428  0.0932
  953MOL0     H25791   2.858   5.747   9.086 -2.3732  0.6899 -1.5228
  953MOL0     H25792   2.911   5.861   9.366 -0.6058 -3.1475  0.7891
  953MOL0     H25793   2.996   5.750   9.269  1.1316  0.7115 -0.1765
  953MOL0     H25794   3.144   6.068   9.052  3.0827  1.2380  3.1377
  953MOL0     H25795   2.747   5.396   8.890 -0.7617 -1.5571 -2.4514
  953MOL0     H25796   2.618   5.312   8.710  0.3595 -2.1744  1.5626
  954MOL0     O25797   7.928   1.717  10.926  0.5264  0.5371  0.6098
  954MOL0     C25798   7.916   1.834  10.906 -0.0110 -0.3356  0.1951
  954MOL0     O25799   8.007   1.935  10.916  0.4725 -0.4423 -0.7553
  954MOL0     C25800   8.120   1.932  10.997  0.1561  0.0828  0.2605
  954MOL0     C25801   8.215   2.029  10.977  0.5719 -0.7753  0.5711
  954MOL0     C25802   8.310   2.065  11.072  0.1696 -0.1089  0.4507
  954MOL0     C25803   8.331   1.992  11.193 -0.4592  0.3476 -0.5694
  954MOL0     O25804   8.423   2.010  11.293 -0.8771 -0.6189  0.8555
  954MOL0     C25805   8.563   2.043  11.246  0.4301 -0.4669 -0.6023
  954MOL0     C25806   8.652   1.920  11.248 -0.5214 -0.7514 -0.5156
  954MOL0     C25807   8.702   1.873  11.388  0.4669 -0.1777 -0.0718
  954MOL0     C25808   8.596   1.823  11.488  0.6411 -0.3137  0.1903
  954MOL0     C25809   8.677   1.738  11.587 -0.3594 -1.3067 -0.2338
  954MOL0     C25810   8.701   1.599  11.535  0.1805  0.0640  0.0362
  954MOL0     C25811   8.598   1.498  11.607 -0.1703  0.1481  0.3218
  954MOL0     C25812   8.573   1.367  11.524 -1.2025  0.2125  0.0501
  954MOL0     N25813   8.506   1.399  11.392  0.7070  0.8906 -0.3272
  954MOL0     C25814   8.373   1.418  11.379  0.1309 -0.3888 -0.0762
  954MOL0     C25815   8.363   1.450  11.250  0.7107 -1.1633  0.0553
  954MOL0     C25816   8.235   1.474  11.186  0.2498  0.2440 -0.9629
  954MOL0     C25817   8.206   1.353  11.095 -0.5089 -0.7678  0.2148
  954MOL0     C25818   8.111   1.391  10.976  1.1889 -0.3642  1.2938
  954MOL0     C25819   7.974   1.440  11.024 -0.3420  0.0383 -0.4610
  954MOL0     O25820   7.881   1.342  11.065 -0.6481  0.6686  0.4897
  954MOL0     C25821   7.755   1.346  10.999  0.1385  0.2663  0.2107
  954MOL0     C25822   7.740   1.261  10.888  0.5508  0.5070  0.0677
  954MOL0     C25823   7.610   1.240  10.838  1.4354 -0.2461  0.2265
  954MOL0     C25824   7.501   1.328  10.879  0.6990  0.1354  0.3441
  954MOL0     C25825   7.370   1.315  10.812 -0.0018  0.1905 -0.9068
  954MOL0     O25826   7.362   1.274  10.684 -0.5110  0.1932 -0.0343
  954MOL0     C25827   7.242   1.258  10.604  0.0616 -0.5401  0.2171
  954MOL0     C25828   7.109   1.263  10.646  0.5906  1.2100  0.4496
  954MOL0     C25829   7.005   1.245  10.556  0.2358  0.7322 -0.3731
  954MOL0     C25830   7.027   1.221  10.419  0.5009 -0.3968  0.4441
  954MOL0     O25831   6.935   1.169  10.327  0.6105 -0.2204 -0.7741
  954MOL0     C25832   6.908   1.262  10.225  0.6458  1.1222  0.1100
  954MOL0     C25833   6.783   1.216  10.136 -0.1208 -0.0465 -0.3749
  954MOL0     C25834   6.654   1.227  10.219 -0.7252  0.5372  0.2927
  954MOL0     C25835   6.530   1.181  10.139 -1.2772  1.0812 -0.3981
  954MOL0     C25836   6.402   1.157  10.228  0.3296 -0.5784  0.2040
  954MOL0     C25837   6.410   1.031  10.315 -0.0837 -0.3112  0.1988
  954MOL0     C25838   6.286   1.002  10.402  0.1497  0.2302 -0.6460
  954MOL0     C25839   6.184   0.893  10.350  0.1841 -0.6176  0.1344
  954MOL0    Cl25840   6.080   0.970  10.229  0.4344 -0.3052  0.6291
  954MOL0     C25841   7.159   1.223  10.378  0.2729  0.4345  0.8650
  954MOL0     C25842   7.267   1.245  10.465 -0.0766  0.3592  0.2293
  954MOL0     O25843   7.277   1.350  10.878  0.7298 -0.1089  0.1919
  954MOL0     C25844   7.531   1.430  10.968  0.7055  0.2360  0.5610
  954MOL0     C25845   7.661   1.445  11.028  0.2133 -0.1253  0.4464
  954MOL0     N25846   8.486   1.445  11.186  0.2192 -0.5881 -0.9091
  954MOL0     N25847   8.574   1.414  11.269  0.3334 -0.2929  0.3629
  954MOL0     C25848   8.260   1.866  11.203  0.1472  0.1473 -0.4077
  954MOL0     C25849   8.153   1.846  11.110 -0.5607 -1.2712 -0.0209
  954MOL0     C25850   7.788   1.861  10.840 -0.3013  0.5202 -0.0400
  954MOL0     C25851   7.755   1.989  10.787  0.7062  0.0423 -0.3376
  954MOL0     C25852   7.631   2.009  10.721 -0.3171 -0.4928 -0.3983
  954MOL0     C25853   7.530   1.909  10.703  0.7464  0.1056 -0.2966
  954MOL0     O25854   7.402   1.932  10.664  0.1738  0.8654  0.4403
  954MOL0     C25855   7.384   1.896  10.526  0.0083  0.7701 -0.6793
  954MOL0     C25856   7.231   1.881  10.503 -0.2166 -0.3209  0.5959
  954MOL0     C25857   7.154   2.009  10.499 -0.0466  0.3113  1.0524
  954MOL0     C25858   7.006   2.001  10.449  0.0266 -0.3258 -0.0509
  954MOL0     C25859   6.985   2.095  10.342  0.1701  0.1715 -0.5839
  954MOL0     C25860   6.970   2.173  10.251 -0.4280  0.3005  0.6159
  954MOL0     C25861   7.554   1.792  10.771  0.3554  0.1586 -0.0499
  954MOL0     C25862   7.678   1.763  10.823 -0.9491  0.3498  0.8023
  954MOL0     H25863   8.204   2.096  10.892 -3.9082  1.0201  2.2860
  954MOL0     H25864   8.367   2.158  11.066 -1.5310  1.1388  2.2387
  954MOL0     H25865   8.603   2.117  11.315 -1.0222 -0.3541  0.1720
  954MOL0     H25866   8.561   2.085  11.145 -0.5599  1.0178  0.0056
  954MOL0     H25867   8.742   1.939  11.189 -1.1943  3.9907 -0.3767
  954MOL0     H25868   8.597   1.836  11.204 -1.2664  0.3564 -1.7485
  954MOL0     H25869   8.771   1.939  11.441 -0.3337 -1.0013  2.1000
  954MOL0     H25870   8.761   1.785  11.358  0.9403  0.5060 -1.2320
  954MOL0     H25871   8.559   1.911  11.542  2.2815  0.6794 -0.1972
  954MOL0     H25872   8.513   1.768  11.444  0.5672  1.6801 -2.4122
  954MOL0     H25873   8.621   1.732  11.681  2.7606 -1.3984  1.7412
  954MOL0     H25874   8.771   1.787  11.614 -0.7217 -1.8682  2.2185
  954MOL0     H25875   8.806   1.569  11.540  1.0034  2.2431 -1.9888
  954MOL0     H25876   8.679   1.592  11.428  2.1025  1.5991 -0.5037
  954MOL0     H25877   8.621   1.467  11.710  0.4655 -0.4994 -0.0008
  954MOL0     H25878   8.500   1.543  11.621 -0.4373 -0.8327  1.9837
  954MOL0     H25879   8.504   1.308  11.585 -0.0541 -3.1881 -1.7161
  954MOL0     H25880   8.666   1.313  11.503  0.4903  1.1342  4.1795
  954MOL0     H25881   8.291   1.414  11.450 -1.7920 -2.7891 -2.2275
  954MOL0     H25882   8.259   1.562  11.127 -1.7334  1.6739  0.2302
  954MOL0     H25883   8.156   1.511  11.252  0.8895  1.6840 -0.9744
  954MOL0     H25884   8.153   1.277  11.154 -0.8450 -0.4685  0.3043
  954MOL0     H25885   8.303   1.319  11.059  0.4822  1.8171  0.2555
  954MOL0     H25886   8.165   1.473  10.930 -1.6039  0.6729 -0.3911
  954MOL0     H25887   8.084   1.306  10.912  0.2516  2.3149 -2.1931
  954MOL0     H25888   7.925   1.478  10.934 -2.8917 -1.2844  0.2728
  954MOL0     H25889   7.985   1.515  11.103  1.0272 -2.3384  1.8177
  954MOL0     H25890   7.823   1.195  10.863  0.3849  0.9247 -1.7809
  954MOL0     H25891   7.597   1.154  10.773 -1.4456 -0.0385  0.3841
  954MOL0     H25892   7.082   1.267  10.751  0.0667 -1.5116  0.4830
  954MOL0     H25893   6.906   1.250  10.599  0.2297  2.7371 -0.5029
  954MOL0     H25894   6.990   1.264  10.153 -0.1219  4.5182 -0.8210
  954MOL0     H25895   6.900   1.361  10.270  0.6224  0.6900  1.1024
  954MOL0     H25896   6.797   1.110  10.110  1.6423  0.0874 -0.1227
  954MOL0     H25897   6.788   1.277  10.045  1.9320  2.8665  1.5469
  954MOL0     H25898   6.639   1.324  10.267  1.1859  1.5547 -1.0528
  954MOL0     H25899   6.671   1.154  10.299 -0.5304 -0.4098 -0.5897
  954MOL0     H25900   6.514   1.247  10.054  0.6165  1.2293 -0.6781
  954MOL0     H25901   6.544   1.080  10.101 -2.0512  0.8220 -0.0260
  954MOL0     H25902   6.309   1.140  10.173 -0.7389  1.3004  1.3350
  954MOL0     H25903   6.386   1.246  10.289  1.1554 -0.8019  0.7614
  954MOL0     H25904   6.493   1.056  10.382 -0.5412  0.5506  0.4520
  954MOL0     H25905   6.442   0.936  10.270  2.4501  0.9646 -0.8866
  954MOL0     H25906   6.320   0.970  10.501 -2.9039 -2.0130 -0.1723
  954MOL0     H25907   6.237   1.097  10.422 -1.4882 -0.8339  0.6654
  954MOL0     H25908   6.125   0.854  10.434 -2.8175  3.7955  0.4043
  954MOL0     H25909   6.249   0.815  10.309  2.0941  1.9339 -2.0503
  954MOL0     H25910   7.186   1.216  10.273 -1.0320 -2.1871  0.6240
  954MOL0     H25911   7.368   1.251  10.425 -0.3927  2.7390 -0.3851
  954MOL0     H25912   7.447   1.496  10.986  0.2755 -0.8612  3.1443
  954MOL0     H25913   7.691   1.525  11.095  0.9777 -0.3640  0.3904
  954MOL0     H25914   8.260   1.797  11.287 -1.2872 -0.3726 -0.8005
  954MOL0     H25915   8.084   1.766  11.134  1.3605 -2.6755  1.1162
  954MOL0     H25916   7.828   2.069  10.778 -0.3038  0.9652 -0.5503
  954MOL0     H25917   7.614   2.113  10.694  1.5766 -0.0018  0.1966
  954MOL0     H25918   7.425   1.794  10.517 -1.9515 -0.4336  2.2569
  954MOL0     H25919   7.430   1.967  10.458  0.8780 -0.7893 -1.8018
  954MOL0     H25920   7.223   1.835  10.404 -0.5245  1.2789 -0.1446
  954MOL0     H25921   7.197   1.824  10.590  0.6406 -1.5562  0.1534
  954MOL0     H25922   7.206   2.088  10.444  0.3109  0.6339  1.8427
  954MOL0     H25923   7.139   2.029  10.605 -2.3119 -0.3175  0.8965
  954MOL0     H25924   6.985   1.896  10.425 -1.3500  0.0116 -0.4331
  954MOL0     H25925   6.925   2.029  10.517 -1.4010 -2.6424 -0.6948
  954MOL0     H25926   6.921   2.242  10.186 -2.2537  1.0023  2.5882
  954MOL0     H25927   7.486   1.709  10.754  2.4742 -1.4165 -1.3311
  954MOL0     H25928   7.680   1.663  10.864 -2.1724  0.2063  0.5610
  955MOL0     O25929   5.662   1.785   4.162 -0.1453 -0.1008  0.9947
  955MOL0     C25930   5.575   1.721   4.215  1.0545  1.2633  0.2084
  955MOL0     O25931   5.438   1.733   4.202  0.1303 -0.3388  0.2532
  955MOL0     C25932   5.379   1.851   4.180 -0.6397  0.0700 -0.2238
  955MOL0     C25933   5.436   1.968   4.223  0.4428 -0.1349  0.2602
  955MOL0     C25934   5.354   2.081   4.232  0.4922  0.4038  0.3450
  955MOL0     C25935   5.218   2.080   4.177 -0.3060 -0.3137 -0.1934
  955MOL0     O25936   5.132   2.194   4.180 -0.1205 -0.2342 -0.2915
  955MOL0     C25937   5.152   2.281   4.297  0.1955  0.5503 -0.2590
  955MOL0     C25938   5.030   2.360   4.318 -0.2631 -0.1004  0.1992
  955MOL0     C25939   5.032   2.412   4.465  0.0947  0.9441 -0.2817
  955MOL0     C25940   5.109   2.527   4.511 -0.2306  0.8279  0.0942
  955MOL0     C25941   5.042   2.561   4.642  1.1059 -0.0658  0.2416
  955MOL0     C25942   4.910   2.638   4.640  0.3366 -0.4985 -1.7697
  955MOL0     C25943   4.916   2.754   4.544  0.3304 -0.0518 -0.1319
  955MOL0     C25944   5.023   2.860   4.579  0.2368  0.1933  0.1164
  955MOL0     N25945   4.997   2.982   4.495  0.4263 -0.0727  0.0904
  955MOL0     C25946   5.060   3.020   4.378  0.7932  0.1947 -0.4246
  955MOL0     C25947   5.010   3.147   4.347 -0.2870  1.1010  0.0450
  955MOL0     C25948   5.059   3.229   4.231  0.5539  0.0888  0.5225
  955MOL0     C25949   5.008   3.183   4.085 -0.8298 -1.2789 -0.5143
  955MOL0     C25950   4.875   3.237   4.049  0.2644  0.6351 -0.5668
  955MOL0     C25951   4.878   3.392   4.043  0.0033  0.4836  0.5523
  955MOL0     O25952   4.762   3.443   3.968 -0.3542  0.3095  0.1434
  955MOL0     C25953   4.776   3.578   3.963 -0.3061 -0.0304  0.1387
  955MOL0     C25954   4.784   3.637   3.838  0.5482  0.4215  0.0081
  955MOL0     C25955   4.788   3.778   3.825 -0.7481 -0.0124 -0.5866
  955MOL0     C25956   4.780   3.860   3.933 -0.8915  0.0938  0.3610
  955MOL0     C25957   4.791   4.009   3.926  0.0232 -0.2519  0.9797
  955MOL0     O25958   4.749   4.091   4.026 -0.1495 -0.3825 -0.6036
  955MOL0     C25959   4.805   4.223   4.031  0.2625  0.9740  0.3219
  955MOL0     C25960   4.717   4.336   4.048  0.6883  0.1137 -0.0186
  955MOL0     C25961   4.769   4.463   4.066 -0.7274 -1.1948 -0.0572
  955MOL0     C25962   4.897   4.500   4.059 -0.1349  0.0467  1.7692
  955MOL0     O25963   4.932   4.636   4.066  0.4593  0.1575 -0.0823
  955MOL0     C25964   5.072   4.675   4.037 -0.1135 -0.4503 -0.0678
  955MOL0     C25965   5.146   4.723   4.168 -0.4475  0.1283  0.3330
  955MOL0     C25966   5.167   4.628   4.286  0.6953 -0.0013 -0.7074
  955MOL0     C25967   5.056   4.630   4.382  0.0325 -0.4418 -0.0715
  955MOL0     C25968   5.088   4.550   4.504 -0.5406 -0.4753 -0.7217
  955MOL0     C25969   5.204   4.622   4.580  0.1760 -0.1477 -0.7735
  955MOL0     C25970   5.209   4.556   4.726 -0.8610 -0.0427 -0.2817
  955MOL0     C25971   5.101   4.613   4.815 -0.1634 -0.3419 -0.2640
  955MOL0    Cl25972   5.157   4.779   4.840  0.3114  0.0016 -0.2326
  955MOL0     C25973   4.985   4.396   4.035 -0.5992  0.4752  0.1586
  955MOL0     C25974   4.943   4.258   4.028 -0.3285 -0.1143 -0.3837
  955MOL0     O25975   4.868   4.040   3.835  0.7105 -1.0483  0.5142
  955MOL0     C25976   4.768   3.802   4.059  0.3713 -0.0205  0.1800
  955MOL0     C25977   4.776   3.665   4.068  0.0941  0.3386 -0.3619
  955MOL0     N25978   4.914   3.178   4.447 -0.0575  0.1876 -0.4301
  955MOL0     N25979   4.906   3.077   4.531 -0.4185 -0.3342  1.0294
  955MOL0     C25980   5.163   1.960   4.121 -0.0468 -0.2984  0.4407
  955MOL0     C25981   5.253   1.846   4.115  0.8500 -0.4777 -0.9056
  955MOL0     C25982   5.622   1.581   4.258  0.2776  0.0907 -0.6262
  955MOL0     C25983   5.758   1.566   4.294 -0.2740  0.2916  1.5701
  955MOL0     C25984   5.799   1.440   4.323 -0.5735  0.0190 -1.3984
  955MOL0     C25985   5.726   1.316   4.311  0.2713  0.5702  1.3686
  955MOL0     O25986   5.776   1.205   4.373  1.0332  0.8129 -0.0504
  955MOL0     C25987   5.706   1.069   4.382 -0.7051 -0.5709 -0.5468
  955MOL0     C25988   5.623   1.089   4.517  0.1237 -0.3208  0.6189
  955MOL0     C25989   5.697   1.069   4.641  0.7460 -0.3819  0.3064
  955MOL0     C25990   5.781   1.190   4.678  0.0823 -0.4101  0.5517
  955MOL0     C25991   5.842   1.168   4.807 -0.3344  1.0376  0.9314
  955MOL0     C25992   5.894   1.171   4.917  0.7216 -0.5472 -0.3372
  955MOL0     C25993   5.592   1.338   4.271 -0.0860  0.1171 -0.5151
  955MOL0     C25994   5.538   1.471   4.245 -0.1717 -0.4552 -0.0616
  955MOL0     H25995   5.540   1.964   4.254  0.8802 -1.6284 -1.2618
  955MOL0     H25996   5.378   2.170   4.287 -0.8130  0.2042  1.2906
  955MOL0     H25997   5.238   2.343   4.271  1.7825 -1.6995 -0.7042
  955MOL0     H25998   5.175   2.226   4.389  1.6922  0.2158 -0.8131
  955MOL0     H25999   4.940   2.301   4.299 -0.0055 -0.3629 -0.2185
  955MOL0     H26000   5.027   2.445   4.248  1.3654  0.8650  1.2650
  955MOL0     H26001   5.056   2.327   4.530  1.5010  1.8282  0.4099
  955MOL0     H26002   4.927   2.433   4.484 -0.2545 -2.3471  2.5444
  955MOL0     H26003   5.214   2.503   4.528 -0.8056 -2.3001 -0.0040
  955MOL0     H26004   5.102   2.595   4.426  1.2091 -2.0263 -2.5259
  955MOL0     H26005   5.114   2.623   4.696  2.1242 -0.6567 -0.4026
  955MOL0     H26006   5.025   2.466   4.694 -3.9733 -0.9373 -2.3916
  955MOL0     H26007   4.902   2.681   4.741  0.5884 -0.8404 -1.6035
  955MOL0     H26008   4.826   2.570   4.626 -0.9727 -0.0443  2.4361
  955MOL0     H26009   4.926   2.722   4.439 -0.1995 -0.2543 -0.1214
  955MOL0     H26010   4.827   2.817   4.545  0.7060  0.4775  0.3772
  955MOL0     H26011   5.121   2.818   4.554 -1.1026 -1.2383 -3.3750
  955MOL0     H26012   5.020   2.900   4.681  0.0167  2.4065 -0.6950
  955MOL0     H26013   5.128   2.952   4.326  0.5010 -0.3509 -0.1042
  955MOL0     H26014   5.169   3.227   4.228  0.6996  2.8480 -2.5715
  955MOL0     H26015   5.046   3.337   4.245  2.7826  0.4344  0.2844
  955MOL0     H26016   5.012   3.075   4.071  0.2623 -0.9926 -2.9239
  955MOL0     H26017   5.077   3.221   4.009  1.4230 -2.9417  0.6029
  955MOL0     H26018   4.856   3.195   3.950 -3.4080  2.6287 -0.9201
  955MOL0     H26019   4.791   3.201   4.110  0.1977  0.8217 -0.5462
  955MOL0     H26020   4.969   3.438   4.004  0.4372 -0.1915  0.7506
  955MOL0     H26021   4.865   3.420   4.148 -0.6718  4.0239 -0.3738
  955MOL0     H26022   4.794   3.559   3.763 -0.1090  0.5554 -0.2245
  955MOL0     H26023   4.794   3.822   3.726  0.1193  2.3905  0.4425
  955MOL0     H26024   4.609   4.329   4.036  0.5267  1.2310  0.6088
  955MOL0     H26025   4.704   4.548   4.088  0.0787 -0.6947  0.4495
  955MOL0     H26026   5.058   4.765   3.977 -1.5105  1.3809  2.7739
  955MOL0     H26027   5.131   4.604   3.978  0.5934 -0.3834  0.5424
  955MOL0     H26028   5.101   4.810   4.216 -1.3624 -0.9463  1.5193
  955MOL0     H26029   5.242   4.754   4.127 -0.5980 -0.5527 -0.5634
  955MOL0     H26030   5.257   4.669   4.332 -0.4664  1.7040  0.1549
  955MOL0     H26031   5.188   4.527   4.248  0.3717 -0.6517  0.7755
  955MOL0     H26032   5.025   4.730   4.413 -0.2665 -0.8907  1.1655
  955MOL0     H26033   4.969   4.583   4.335 -2.0553 -0.4641  3.4160
  955MOL0     H26034   5.123   4.450   4.477 -0.5537 -0.7418  0.2129
  955MOL0     H26035   4.997   4.552   4.565  1.6995 -0.4711  2.9451
  955MOL0     H26036   5.190   4.730   4.590 -0.4737 -0.3826  1.2263
  955MOL0     H26037   5.300   4.599   4.533 -1.0741 -1.5714 -2.7670
  955MOL0     H26038   5.181   4.453   4.706 -2.2786  0.4793 -1.1483
  955MOL0     H26039   5.309   4.568   4.770 -1.2680  0.4156  0.5352
  955MOL0     H26040   5.106   4.561   4.911 -0.0420 -1.6554 -0.9561
  955MOL0     H26041   4.998   4.609   4.779  0.0501  1.4231 -1.1827
  955MOL0     H26042   5.089   4.424   4.034 -0.4569  0.1401  2.1137
  955MOL0     H26043   5.022   4.184   4.021 -0.4421 -0.4358  1.3365
  955MOL0     H26044   4.762   3.859   4.151 -1.5233 -2.1707  1.4891
  955MOL0     H26045   4.781   3.613   4.163  4.4294  0.6024 -0.2641
  955MOL0     H26046   5.072   1.959   4.062 -0.0293  0.5208  0.3936
  955MOL0     H26047   5.223   1.753   4.068  3.0917 -0.2295 -3.0440
  955MOL0     H26048   5.832   1.644   4.285  1.2359 -1.3148 -3.5514
  955MOL0     H26049   5.900   1.438   4.364 -1.8215 -0.6670  2.0073
  955MOL0     H26050   5.783   0.991   4.387  1.5053  1.3617 -2.1643
  955MOL0     H26051   5.629   1.053   4.306 -1.8493  2.6230 -0.1841
  955MOL0     H26052   5.574   1.187   4.519 -0.5718 -0.5844 -1.2144
  955MOL0     H26053   5.537   1.021   4.511 -0.6465  0.7430 -1.7404
  955MOL0     H26054   5.738   0.967   4.648 -2.2570 -1.6291  1.6017
  955MOL0     H26055   5.625   1.057   4.723 -0.2570  0.3439 -0.4574
  955MOL0     H26056   5.857   1.218   4.605  0.9269  1.5874  2.0919
  955MOL0     H26057   5.708   1.271   4.680 -0.5956 -0.7685 -3.2429
  955MOL0     H26058   5.935   1.186   5.015  1.2187 -2.4339 -0.2067
  955MOL0     H26059   5.534   1.249   4.293 -1.6277  0.8870 -1.3777
  955MOL0     H26060   5.436   1.476   4.209 -0.6323  1.8945  1.3550
  956MOL0     O26061   2.707   5.589   5.711 -0.4702  0.1139  0.8809
  956MOL0     C26062   2.693   5.606   5.831  1.1108 -0.4370 -0.7002
  956MOL0     O26063   2.786   5.644   5.911 -0.1358  0.1822 -0.2933
  956MOL0     C26064   2.910   5.677   5.862 -0.1999  0.2754  0.6709
  956MOL0     C26065   3.035   5.606   5.882  0.5493  0.0328 -0.3038
  956MOL0     C26066   3.160   5.656   5.856  0.4636  0.2555  0.2868
  956MOL0     C26067   3.159   5.776   5.781  0.5561 -0.1643 -0.3156
  956MOL0     O26068   3.270   5.817   5.708  0.4824 -0.8173 -0.6449
  956MOL0     C26069   3.313   5.715   5.622  0.4341  0.0121 -0.5555
  956MOL0     C26070   3.400   5.781   5.519 -0.5922 -0.2787 -0.7371
  956MOL0     C26071   3.534   5.814   5.577 -0.2203 -0.3086  0.0052
  956MOL0     C26072   3.534   5.934   5.669  0.3634  0.3651 -0.3772
  956MOL0     C26073   3.672   6.001   5.691 -0.3457 -0.1535  0.0792
  956MOL0     C26074   3.755   5.912   5.777 -0.1826  0.9103  0.4030
  956MOL0     C26075   3.896   5.967   5.778  0.2821 -0.6290 -1.1231
  956MOL0     C26076   3.985   5.871   5.696  0.5248 -0.4766  0.0850
  956MOL0     N26077   3.943   5.843   5.559 -0.8979 -0.4718 -0.1354
  956MOL0     C26078   3.938   5.948   5.463 -0.0736 -0.9544 -0.3670
  956MOL0     C26079   3.878   5.889   5.356 -0.2431  1.0072 -0.3811
  956MOL0     C26080   3.864   5.944   5.213 -0.4919 -0.5484 -0.6452
  956MOL0     C26081   3.722   5.980   5.176  0.9480  0.2601  0.7433
  956MOL0     C26082   3.665   6.095   5.259  0.4493  0.5759  0.5956
  956MOL0     C26083   3.531   6.157   5.214 -0.0351  0.8236 -0.5019
  956MOL0     O26084   3.558   6.251   5.106  0.2277  0.0930  0.0663
  956MOL0     C26085   3.443   6.286   5.034  0.8513  0.2751 -0.9913
  956MOL0     C26086   3.444   6.266   4.887 -0.1032 -0.4637  0.4634
  956MOL0     C26087   3.333   6.290   4.808  0.6616 -0.5715 -0.2499
  956MOL0     C26088   3.215   6.349   4.863  0.9026  0.4907  0.2658
  956MOL0     C26089   3.090   6.370   4.780  0.3331  0.4125 -0.2718
  956MOL0     O26090   2.993   6.446   4.835 -0.4662 -0.2013  0.2425
  956MOL0     C26091   2.857   6.459   4.794 -0.9845  0.2540  0.7634
  956MOL0     C26092   2.795   6.375   4.707  0.5741 -0.6417  0.2116
  956MOL0     C26093   2.654   6.375   4.684  0.4978  0.5318  0.2394
  956MOL0     C26094   2.584   6.467   4.760  0.5302 -0.1623 -0.6628
  956MOL0     O26095   2.450   6.488   4.745  0.5647  0.0604 -0.3733
  956MOL0     C26096   2.364   6.370   4.758  1.0135  0.5058 -0.2800
  956MOL0     C26097   2.223   6.422   4.783  0.0376 -0.1833  0.5783
  956MOL0     C26098   2.124   6.297   4.794  0.7853  0.6682 -0.1898
  956MOL0     C26099   1.975   6.343   4.784 -0.2577 -0.0646  0.2683
  956MOL0     C26100   1.871   6.244   4.823 -0.5321  0.3470 -0.1406
  956MOL0     C26101   1.874   6.129   4.724 -0.0936 -0.9519  0.8697
  956MOL0     C26102   1.751   6.048   4.746 -0.0168  0.4432  0.0523
  956MOL0     C26103   1.772   5.917   4.665  0.4288 -0.6102 -0.5902
  956MOL0    Cl26104   1.780   5.948   4.493 -0.0585  0.3658  0.0260
  956MOL0     C26105   2.651   6.549   4.855 -0.3533 -0.8286 -0.6661
  956MOL0     C26106   2.793   6.543   4.873  0.3591  0.1673  1.0111
  956MOL0     O26107   3.086   6.325   4.669  0.0210  0.1274 -0.1572
  956MOL0     C26108   3.216   6.371   4.994 -0.1512 -0.1460 -0.4791
  956MOL0     C26109   3.320   6.329   5.085  0.1343 -0.5605  0.0458
  956MOL0     N26110   3.845   5.760   5.392  0.1030  0.0263 -0.3815
  956MOL0     N26111   3.880   5.735   5.508  0.2305 -0.3535  0.3523
  956MOL0     C26112   3.044   5.856   5.768 -0.6789  0.1810 -0.4070
  956MOL0     C26113   2.913   5.815   5.820 -0.0819  0.8861  0.5476
  956MOL0     C26114   2.558   5.596   5.887  0.8437  0.4521  0.5887
  956MOL0     C26115   2.458   5.518   5.832 -0.3445 -0.6516  0.1674
  956MOL0     C26116   2.330   5.494   5.888 -0.5813 -0.4141  0.1881
  956MOL0     C26117   2.300   5.562   6.006 -0.3219 -0.8564 -0.2994
  956MOL0     O26118   2.185   5.553   6.092  0.0826  0.3171  0.0830
  956MOL0     C26119   2.072   5.502   6.028  0.4908  0.0082  1.3302
  956MOL0     C26120   1.962   5.482   6.130  0.1823  0.1215  0.3151
  956MOL0     C26121   1.829   5.465   6.047  0.8037  0.6740 -0.9445
  956MOL0     C26122   1.712   5.500   6.146 -0.4662 -0.3041 -0.3664
  956MOL0     C26123   1.707   5.397   6.248 -0.1842 -0.8201 -0.0537
  956MOL0     C26124   1.678   5.318   6.337 -0.2243  0.0843 -0.6524
  956MOL0     C26125   2.393   5.640   6.063 -1.2631 -0.6941  0.8447
  956MOL0     C26126   2.528   5.659   6.010  0.7455  0.1473 -0.6753
  956MOL0     H26127   3.015   5.513   5.935  0.2069  0.7383  0.8154
  956MOL0     H26128   3.254   5.602   5.870  0.6050  0.3399 -0.3265
  956MOL0     H26129   3.222   5.676   5.575 -0.4862 -3.5415  3.4936
  956MOL0     H26130   3.355   5.627   5.671 -1.2442 -0.0117  0.9396
  956MOL0     H26131   3.342   5.863   5.475  1.3166  0.6264 -1.7086
  956MOL0     H26132   3.424   5.714   5.435  1.5964  0.7589 -1.0043
  956MOL0     H26133   3.600   5.827   5.490  1.1912  0.1738  1.1120
  956MOL0     H26134   3.577   5.723   5.620  0.7836 -0.3709 -1.0687
  956MOL0     H26135   3.455   6.006   5.645 -1.6669 -0.5571  2.8809
  956MOL0     H26136   3.501   5.895   5.765 -0.1578 -1.5918 -1.2901
  956MOL0     H26137   3.645   6.097   5.738 -1.3411  0.3693 -1.4761
  956MOL0     H26138   3.711   6.018   5.590 -0.9252  1.6386  0.1078
  956MOL0     H26139   3.754   5.811   5.736  1.5955  0.7732  0.6221
  956MOL0     H26140   3.717   5.891   5.877  4.2910  1.4336  2.4573
  956MOL0     H26141   3.915   6.072   5.751  0.0649 -0.8176 -2.0294
  956MOL0     H26142   3.939   5.959   5.878  2.6363  0.1829 -2.0166
  956MOL0     H26143   3.982   5.777   5.753  0.4838 -0.8828 -0.5848
  956MOL0     H26144   4.089   5.904   5.698  1.0594 -2.0466  0.1499
  956MOL0     H26145   3.960   6.054   5.475  2.6773 -1.5713  0.9439
  956MOL0     H26146   3.909   5.880   5.136  0.1056 -1.8267  0.7048
  956MOL0     H26147   3.920   6.038   5.212 -2.9732  1.1224  2.4546
  956MOL0     H26148   3.653   5.896   5.163  0.3274  0.2870  3.2332
  956MOL0     H26149   3.724   6.021   5.075  0.5899  2.3629  1.5451
  956MOL0     H26150   3.649   6.056   5.360 -0.0373  1.3268  0.8155
  956MOL0     H26151   3.741   6.173   5.257  0.7806  0.3087 -2.5109
  956MOL0     H26152   3.497   6.205   5.306  1.8480 -2.1343  1.9078
  956MOL0     H26153   3.457   6.086   5.177 -1.6913  1.3689  1.5643
  956MOL0     H26154   3.534   6.239   4.834  0.3584 -1.2975  1.6399
  956MOL0     H26155   3.323   6.263   4.703  1.3497 -0.3335 -0.3837
  956MOL0     H26156   2.859   6.306   4.652  2.0161  1.3016 -0.6499
  956MOL0     H26157   2.603   6.323   4.603  0.7908  0.8432 -0.1527
  956MOL0     H26158   2.394   6.307   4.842 -0.5025  0.4363  0.2321
  956MOL0     H26159   2.372   6.301   4.673  2.0758 -0.5340  0.6146
  956MOL0     H26160   2.212   6.485   4.694  4.4117  2.9900  1.9150
  956MOL0     H26161   2.227   6.490   4.869  2.9964 -2.1073  2.1611
  956MOL0     H26162   2.152   6.237   4.881  0.6133  0.2137 -0.4427
  956MOL0     H26163   2.150   6.240   4.704  4.1003 -2.5972  2.5298
  956MOL0     H26164   1.966   6.416   4.865  0.1393 -1.1885  1.3623
  956MOL0     H26165   1.967   6.407   4.695  1.3647  1.3675  1.0780
  956MOL0     H26166   1.775   6.297   4.817 -0.1204  0.9973 -1.2140
  956MOL0     H26167   1.884   6.213   4.927 -1.2683  1.5786  0.3434
  956MOL0     H26168   1.965   6.069   4.729  0.2414 -0.9176 -2.3547
  956MOL0     H26169   1.887   6.156   4.619  0.1418 -2.1862  0.5614
  956MOL0     H26170   1.728   6.016   4.847  1.4031  1.0919  0.6088
  956MOL0     H26171   1.661   6.098   4.709  0.4153  0.1487 -1.4703
  956MOL0     H26172   1.695   5.845   4.695  0.6796 -0.7819 -0.3615
  956MOL0     H26173   1.871   5.883   4.697  1.3213 -0.3584 -2.8874
  956MOL0     H26174   2.594   6.616   4.918 -0.2749 -1.1876 -0.2112
  956MOL0     H26175   2.847   6.609   4.940  1.4600  1.0754 -0.7014
  956MOL0     H26176   3.125   6.414   5.034 -1.3375 -2.9550  0.0335
  956MOL0     H26177   3.311   6.335   5.193  0.0875 -2.4070  0.1845
  956MOL0     H26178   3.042   5.952   5.717 -2.2854 -0.5229 -1.7903
  956MOL0     H26179   2.819   5.867   5.805 -0.6304  0.2330  1.6241
  956MOL0     H26180   2.482   5.471   5.737 -1.2706 -1.6861  0.4242
  956MOL0     H26181   2.265   5.419   5.844 -0.2184  0.8250 -2.7397
  956MOL0     H26182   2.095   5.406   5.981  0.5027 -0.8176  2.9727
  956MOL0     H26183   2.039   5.573   5.952  1.7724  0.1207  0.8545
  956MOL0     H26184   2.002   5.397   6.187 -0.5866  0.5405  1.5089
  956MOL0     H26185   1.968   5.575   6.186  0.9518  0.7635 -0.8081
  956MOL0     H26186   1.824   5.357   6.025 -2.8846  0.6611 -0.7761
  956MOL0     H26187   1.819   5.519   5.953 -0.7153  0.0865 -1.1503
  956MOL0     H26188   1.732   5.600   6.185  3.4294 -0.8022 -0.6417
  956MOL0     H26189   1.624   5.494   6.081  0.0604  0.8929 -1.2207
  956MOL0     H26190   1.654   5.234   6.398 -3.6316  1.9156  0.8225
  956MOL0     H26191   2.375   5.677   6.163  3.3092 -1.0662  2.0161
  956MOL0     H26192   2.595   5.717   6.071  0.2498 -0.5808  0.5897
  957MOL0     O26193   1.973  10.597   5.163 -0.9578 -0.4433 -0.7827
  957MOL0     C26194   1.934  10.515   5.080 -0.4669 -0.2080 -0.5765
  957MOL0     O26195   1.987  10.498   4.959 -0.4640  0.3978 -0.3895
  957MOL0     C26196   2.099  10.580   4.926  1.2425 -0.5476 -0.2640
  957MOL0     C26197   2.209  10.566   4.992  0.4495 -0.6601 -0.4740
  957MOL0     C26198   2.324  10.644   4.962  0.5365 -0.9324  0.3158
  957MOL0     C26199   2.316  10.734   4.861  0.4912  0.5520  0.1384
  957MOL0     O26200   2.431  10.798   4.834 -0.3948 -0.4444 -0.4447
  957MOL0     C26201   2.457  10.827   4.703  0.8339 -0.4986  0.1479
  957MOL0     C26202   2.580  10.919   4.690 -1.4429  0.3527 -0.5768
  957MOL0     C26203   2.720  10.847   4.710 -0.5929  0.0469  0.2650
  957MOL0     C26204   2.799  10.820   4.577  0.1386  0.3069 -0.4756
  957MOL0     C26205   2.942  10.791   4.596 -0.1244  0.8014  0.9256
  957MOL0     C26206   2.970  10.663   4.670 -0.1360  0.3344  0.3058
  957MOL0     C26207   3.117  10.628   4.655 -0.8228  0.2074  0.0131
  957MOL0     C26208   3.209  10.726   4.712  0.4505  0.8329  0.3446
  957MOL0     N26209   3.194  10.750   4.860 -0.5374  0.2938  0.6165
  957MOL0     C26210   3.132  10.679   4.954  0.5715  1.1297  0.2500
  957MOL0     C26211   3.162  10.738   5.070  0.6845 -0.9410 -0.4952
  957MOL0     C26212   3.125  10.694   5.204 -0.3546 -0.2301  0.2706
  957MOL0     C26213   3.030  10.795   5.279  0.4220  0.3745 -0.2452
  957MOL0     C26214   3.090  10.934   5.317  0.3991  1.1269  0.4407
  957MOL0     C26215   3.003  10.992   5.429  0.2934  0.1379 -0.1361
  957MOL0     O26216   2.878  11.042   5.385 -0.6879  0.8292 -0.0748
  957MOL0     C26217   2.880  11.178   5.346 -0.1758  0.8092 -0.9126
  957MOL0     C26218   2.903  11.217   5.217 -0.3920 -0.0043 -0.0205
  957MOL0     C26219   2.903  11.352   5.188 -0.4459  1.0143  0.3782
  957MOL0     C26220   2.872  11.448   5.287 -0.2585 -0.3165 -1.0990
  957MOL0     C26221   2.881  11.585   5.248  0.0547  0.9126  0.2517
  957MOL0     O26222   2.904  11.616   5.120 -0.7575  0.4614  0.0094
  957MOL0     C26223   2.952  11.747   5.096  0.3920 -0.4582  0.4732
  957MOL0     C26224   2.885  11.845   5.028  0.5207 -0.4520 -1.4129
  957MOL0     C26225   2.929  11.980   5.016  0.9573 -0.6212  0.8556
  957MOL0     C26226   3.060  12.009   5.065 -0.8609  1.7291  0.4730
  957MOL0     O26227   3.125  12.130   5.073  0.1210 -0.4408 -0.0824
  957MOL0     C26228   3.039  12.238   5.053 -0.2525 -0.2993 -1.4067
  957MOL0     C26229   3.118  12.371   5.073 -0.0184 -0.0637  1.0116
  957MOL0     C26230   3.166  12.401   5.214 -0.0540  0.5387  0.0325
  957MOL0     C26231   3.228  12.540   5.207 -0.1379 -0.1180  0.0993
  957MOL0     C26232   3.297  12.571   5.340  0.4801 -0.6928 -0.2825
  957MOL0     C26233   3.315  12.715   5.364 -0.3452 -0.5056 -0.9696
  957MOL0     C26234   3.421  12.753   5.474 -0.0986 -1.3551 -0.6566
  957MOL0     C26235   3.402  12.665   5.609 -0.0673 -0.1833  0.4726
  957MOL0    Cl26236   3.511  12.713   5.741 -0.1200 -0.7477 -0.1047
  957MOL0     C26237   3.147  11.905   5.111  0.9750  0.7599 -0.0988
  957MOL0     C26238   3.082  11.784   5.134  0.7797  0.0455  0.8717
  957MOL0     O26239   2.861  11.659   5.336 -0.7794 -0.5705 -0.1666
  957MOL0     C26240   2.857  11.406   5.416  0.2714  0.3493 -0.6762
  957MOL0     C26241   2.861  11.271   5.446  0.8055  0.4121  0.3108
  957MOL0     N26242   3.248  10.844   5.043 -0.6909  0.8304 -0.5170
  957MOL0     N26243   3.267  10.845   4.926  0.8319 -0.7344  0.1868
  957MOL0     C26244   2.196  10.751   4.791 -0.8193 -0.0950  0.7311
  957MOL0     C26245   2.093  10.666   4.826 -0.2819  0.1323 -0.0311
  957MOL0     C26246   1.819  10.432   5.129  0.2743  0.5342  0.2774
  957MOL0     C26247   1.804  10.303   5.069 -0.1564  0.2455  0.2765
  957MOL0     C26248   1.691  10.223   5.090  0.3616  0.3554  0.0872
  957MOL0     C26249   1.598  10.267   5.183  0.0599 -0.0807  0.1812
  957MOL0     O26250   1.484  10.198   5.202  0.1328 -0.3800 -0.0252
  957MOL0     C26251   1.364  10.268   5.192  0.2222 -0.2363 -0.6254
  957MOL0     C26252   1.263  10.204   5.097 -0.3326  0.9800 -0.5088
  957MOL0     C26253   1.213  10.065   5.121 -0.1818 -0.7997 -0.3075
  957MOL0     C26254   1.154  10.039   5.263  0.3038 -0.1168 -0.7449
  957MOL0     C26255   1.079   9.915   5.274  0.8391  0.7116  0.4708
  957MOL0     C26256   1.018   9.815   5.306 -0.0859  0.0082 -0.4130
  957MOL0     C26257   1.609  10.389   5.253  0.0338  0.4747  0.7268
  957MOL0     C26258   1.728  10.463   5.236 -0.0359  0.0314 -0.2743
  957MOL0     H26259   2.202  10.490   5.069 -1.1614 -0.3629 -0.2924
  957MOL0     H26260   2.415  10.612   5.012  0.6495 -1.2646 -0.0917
  957MOL0     H26261   2.375  10.874   4.649 -0.3923 -1.3743  1.1748
  957MOL0     H26262   2.472  10.732   4.651  1.2814  0.1626 -0.9685
  957MOL0     H26263   2.578  10.996   4.768 -2.0791 -0.1714 -0.0710
  957MOL0     H26264   2.567  10.967   4.593 -2.8662 -0.5764 -0.8670
  957MOL0     H26265   2.691  10.754   4.759  0.9602 -0.4573  0.2675
  957MOL0     H26266   2.790  10.895   4.778 -0.7112 -1.7385  1.7049
  957MOL0     H26267   2.741  10.735   4.540  1.8323 -1.1832  0.1961
  957MOL0     H26268   2.796  10.903   4.505  3.5861 -1.1528 -2.5094
  957MOL0     H26269   2.976  10.874   4.658  0.3218 -0.4911  2.4602
  957MOL0     H26270   2.985  10.783   4.495 -0.5986 -1.4798  0.8348
  957MOL0     H26271   2.915  10.574   4.637 -1.6683  1.0373  0.8684
  957MOL0     H26272   2.940  10.672   4.775  1.7490 -0.0354  0.9213
  957MOL0     H26273   3.146  10.529   4.692  0.6698 -0.3673 -2.4476
  957MOL0     H26274   3.143  10.609   4.551 -0.1842 -4.8914  0.8565
  957MOL0     H26275   3.212  10.823   4.660 -1.7407  2.1562  2.4802
  957MOL0     H26276   3.311  10.689   4.699  1.2914  1.5307  3.8740
  957MOL0     H26277   3.074  10.588   4.943 -1.6068  2.6543 -1.6534
  957MOL0     H26278   3.219  10.680   5.258  0.4521  1.0547 -0.7299
  957MOL0     H26279   3.068  10.601   5.210 -1.3695  0.4409  1.4369
  957MOL0     H26280   2.996  10.755   5.375 -0.0798 -0.5127 -0.7805
  957MOL0     H26281   2.935  10.811   5.227 -0.4435  2.3117  1.7727
  957MOL0     H26282   3.197  10.935   5.342  0.6723  2.5138 -0.6538
  957MOL0     H26283   3.100  10.991   5.224  1.6821  0.9454  0.4367
  957MOL0     H26284   3.052  11.080   5.471  2.2955 -1.1172  0.2903
  957MOL0     H26285   3.002  10.921   5.512  3.3281 -1.0025 -0.9457
  957MOL0     H26286   2.914  11.153   5.131  1.7158  1.4250 -0.8950
  957MOL0     H26287   2.916  11.374   5.082 -0.7619 -0.9171 -0.0853
  957MOL0     H26288   2.786  11.821   4.992 -1.6265  4.0677  0.6491
  957MOL0     H26289   2.852  12.041   4.971  0.1109 -3.4361 -1.8687
  957MOL0     H26290   2.968  12.232   5.135  2.7553 -1.2963  1.3107
  957MOL0     H26291   2.993  12.228   4.953 -0.0429  1.5666 -1.7280
  957MOL0     H26292   3.053  12.450   5.035  0.2000 -1.0829 -1.7298
  957MOL0     H26293   3.201  12.345   5.007 -0.5017 -1.8733  1.0686
  957MOL0     H26294   3.241  12.323   5.232  0.0638  0.9323  1.3085
  957MOL0     H26295   3.085  12.395   5.287 -0.2518  2.9385  0.0740
  957MOL0     H26296   3.288  12.542   5.116  0.0038 -0.3007  0.1854
  957MOL0     H26297   3.148  12.614   5.194 -1.8532 -2.0657 -0.9943
  957MOL0     H26298   3.401  12.537   5.341  1.5474  2.2595  0.9139
  957MOL0     H26299   3.252  12.532   5.432  2.1390  0.8285  1.2727
  957MOL0     H26300   3.214  12.744   5.395 -0.0915 -1.0827  0.4738
  957MOL0     H26301   3.333  12.763   5.268  1.7362 -0.9563 -0.8449
  957MOL0     H26302   3.518  12.724   5.433 -0.4629  0.4697 -3.0392
  957MOL0     H26303   3.420  12.862   5.484  0.2037 -1.2864 -1.3470
  957MOL0     H26304   3.409  12.559   5.581 -0.3146  0.0456 -0.4958
  957MOL0     H26305   3.298  12.680   5.639  0.4930  0.9615  1.9853
  957MOL0     H26306   3.244  11.920   5.157 -0.2233  2.6837  1.9955
  957MOL0     H26307   3.147  11.710   5.179  2.4829 -0.2280 -1.8345
  957MOL0     H26308   2.847  11.478   5.496  1.4986  1.2716 -1.3276
  957MOL0     H26309   2.836  11.247   5.549 -2.8195  1.3749 -0.2239
  957MOL0     H26310   2.181  10.827   4.715 -0.2797 -1.0681 -0.3658
  957MOL0     H26311   2.003  10.670   4.764  0.8314  0.4020 -1.6832
  957MOL0     H26312   1.875  10.272   4.993 -1.3289 -1.1031 -0.2975
  957MOL0     H26313   1.677  10.127   5.040  4.3940 -0.3916  0.0340
  957MOL0     H26314   1.379  10.371   5.157 -0.2702  0.6290  1.5494
  957MOL0     H26315   1.317  10.294   5.287  0.4160  0.6079 -0.7557
  957MOL0     H26316   1.177  10.271   5.108 -0.4846  1.0111 -1.7962
  957MOL0     H26317   1.288  10.220   4.992  3.2917  1.0134  0.2074
  957MOL0     H26318   1.300  10.000   5.112 -0.3501 -1.1711  0.5820
  957MOL0     H26319   1.134  10.044   5.049  1.3072 -0.5756 -2.0591
  957MOL0     H26320   1.239  10.035   5.333  0.2808 -2.6207 -0.7680
  957MOL0     H26321   1.083  10.116   5.292  0.4151  0.2565 -1.4526
  957MOL0     H26322   0.971   9.722   5.332  0.0312  0.2851  0.8577
  957MOL0     H26323   1.532  10.413   5.326 -0.5132 -1.1073  0.6990
  957MOL0     H26324   1.728  10.562   5.279 -3.1497 -0.0901  0.2095
  958MOL0     O26325   7.827   4.151   5.061 -0.4033 -0.1572  0.6602
  958MOL0     C26326   7.811   4.244   4.984 -0.5152 -0.6749 -0.5457
  958MOL0     O26327   7.691   4.293   4.938  0.0560 -0.2458 -0.6137
  958MOL0     C26328   7.587   4.285   5.041 -0.5828  0.3711 -0.2591
  958MOL0     C26329   7.564   4.392   5.124 -0.4250  0.5126  0.0029
  958MOL0     C26330   7.458   4.380   5.221  0.3869 -0.1313 -0.3467
  958MOL0     C26331   7.387   4.261   5.248 -0.2014 -0.2196  0.2631
  958MOL0     O26332   7.302   4.260   5.351  0.9413 -0.8000 -0.5179
  958MOL0     C26333   7.251   4.132   5.380  0.1725  0.3830  0.3734
  958MOL0     C26334   7.140   4.138   5.482 -0.9033  1.1078  0.1003
  958MOL0     C26335   7.007   4.176   5.419  0.3043 -0.2573 -0.0643
  958MOL0     C26336   6.895   4.206   5.525 -1.1619 -0.2725  0.2882
  958MOL0     C26337   6.914   4.330   5.606  0.8850  0.4852 -0.6833
  958MOL0     C26338   6.828   4.321   5.736 -0.3100 -0.3103 -0.0451
  958MOL0     C26339   6.815   4.453   5.807  0.0715 -0.1349  0.3845
  958MOL0     C26340   6.938   4.523   5.859  0.5874  0.5192 -0.9199
  958MOL0     N26341   6.917   4.640   5.941  0.1692 -0.4944  0.0816
  958MOL0     C26342   6.837   4.642   6.058 -0.0619  0.5366  0.1964
  958MOL0     C26343   6.789   4.765   6.072 -0.4295 -0.2122  1.1060
  958MOL0     C26344   6.701   4.806   6.179  0.7456 -0.1814 -0.1764
  958MOL0     C26345   6.550   4.828   6.152 -0.7587  0.1112 -0.0874
  958MOL0     C26346   6.472   4.708   6.106  0.0997  1.1838 -1.2709
  958MOL0     C26347   6.318   4.725   6.101  0.5856 -0.3205 -0.3621
  958MOL0     O26348   6.260   4.765   6.229 -0.5250  0.8263  0.1475
  958MOL0     C26349   6.171   4.873   6.210 -0.7316 -0.2192  0.1210
  958MOL0     C26350   6.183   4.971   6.306 -0.3674 -0.1069  0.8501
  958MOL0     C26351   6.099   5.071   6.313 -0.5234 -0.2789  0.8826
  958MOL0     C26352   6.000   5.090   6.223 -0.0769 -1.3540  0.4307
  958MOL0     C26353   5.910   5.212   6.221 -0.5488  0.4369 -0.5074
  958MOL0     O26354   5.813   5.212   6.126  0.3440 -0.0230 -0.5658
  958MOL0     C26355   5.719   5.307   6.135 -0.0036 -0.7668 -0.8773
  958MOL0     C26356   5.687   5.390   6.027  0.4094  0.4500 -0.4369
  958MOL0     C26357   5.582   5.481   6.042  0.2122 -0.1282 -0.0757
  958MOL0     C26358   5.507   5.495   6.166  0.2903 -0.0551  0.4623
  958MOL0     O26359   5.407   5.587   6.182 -0.0309  0.3688  0.5024
  958MOL0     C26360   5.341   5.658   6.073  0.0120  0.4491  0.7030
  958MOL0     C26361   5.218   5.730   6.134  0.4899  0.1132  0.3035
  958MOL0     C26362   5.179   5.846   6.049  0.3055 -0.2061 -0.6664
  958MOL0     C26363   5.085   5.942   6.120 -0.0010  0.0217  0.1210
  958MOL0     C26364   5.055   6.067   6.040  0.2498 -0.1871 -0.1622
  958MOL0     C26365   4.964   6.150   6.128  0.3339 -0.1404  0.0116
  958MOL0     C26366   4.886   6.269   6.052  0.2641  1.0493 -0.5661
  958MOL0     C26367   4.970   6.345   5.947  0.3742 -0.5151  0.0087
  958MOL0    Cl26368   5.116   6.432   6.011 -0.3300 -0.3452 -0.1451
  958MOL0     C26369   5.539   5.405   6.263 -0.0225 -0.1235  0.0327
  958MOL0     C26370   5.637   5.308   6.254  0.1766 -1.0040  0.5732
  958MOL0     O26371   5.939   5.310   6.296 -0.0249  1.3425  0.6735
  958MOL0     C26372   5.983   4.989   6.127 -1.1281 -0.5700  0.9638
  958MOL0     C26373   6.068   4.881   6.120 -1.0199 -0.2575 -0.1977
  958MOL0     N26374   6.832   4.837   5.955 -0.0327 -0.2717  0.7909
  958MOL0     N26375   6.898   4.760   5.883  0.1328  0.0526 -0.3309
  958MOL0     C26376   7.415   4.158   5.160 -0.2625 -0.3881 -0.1648
  958MOL0     C26377   7.519   4.167   5.065  0.8631 -0.4843  0.9210
  958MOL0     C26378   7.936   4.327   4.962 -0.1616  0.1476 -0.8693
  958MOL0     C26379   7.925   4.449   4.892 -0.3565 -0.8712 -0.1675
  958MOL0     C26380   8.031   4.540   4.881 -0.2730  0.2621  0.5571
  958MOL0     C26381   8.145   4.513   4.947 -0.2462  0.3577 -0.0681
  958MOL0     O26382   8.243   4.609   4.939  0.5416  0.2079  1.4060
  958MOL0     C26383   8.349   4.623   5.039  0.0339  1.5077 -0.4478
  958MOL0     C26384   8.375   4.762   5.086  0.4270  0.3202 -0.2537
  958MOL0     C26385   8.281   4.831   5.184 -0.0148 -0.1344  0.1317
  958MOL0     C26386   8.129   4.815   5.163 -0.8710 -0.6556 -0.5145
  958MOL0     C26387   8.061   4.901   5.056 -0.4134 -0.4515  0.0421
  958MOL0     C26388   8.002   4.967   4.976 -0.5040  0.2956  0.2826
  958MOL0     C26389   8.158   4.390   5.009  0.1672  0.9198 -0.4288
  958MOL0     C26390   8.061   4.284   5.011 -0.4020 -1.0964  0.0056
  958MOL0     H26391   7.625   4.480   5.112  1.7716 -0.8365  0.7385
  958MOL0     H26392   7.430   4.468   5.278  1.2404  0.0079 -0.1316
  958MOL0     H26393   7.331   4.067   5.417  0.1111 -0.1034 -0.3188
  958MOL0     H26394   7.200   4.096   5.290  0.8488 -0.3215  0.2625
  958MOL0     H26395   7.183   4.193   5.566  2.8339 -0.9273 -0.2898
  958MOL0     H26396   7.104   4.040   5.515  0.8523  0.9521  1.6892
  958MOL0     H26397   6.972   4.093   5.357 -3.0692  1.3316 -0.5186
  958MOL0     H26398   7.017   4.269   5.361 -2.8686 -0.9066 -1.8510
  958MOL0     H26399   6.802   4.213   5.467  0.5281 -0.8124 -2.7339
  958MOL0     H26400   6.898   4.119   5.591 -1.6378 -0.8262 -0.4063
  958MOL0     H26401   6.878   4.412   5.544 -1.6267 -1.2290 -1.6291
  958MOL0     H26402   7.019   4.358   5.618  0.2891  3.7272 -2.1492
  958MOL0     H26403   6.879   4.248   5.799 -0.4658 -0.7897 -0.4672
  958MOL0     H26404   6.726   4.286   5.714 -0.1465 -1.6732  1.1976
  958MOL0     H26405   6.761   4.522   5.741 -2.0929 -1.6491  0.4614
  958MOL0     H26406   6.743   4.430   5.886 -0.4832  1.1083  0.2776
  958MOL0     H26407   6.989   4.551   5.767  0.0464  0.2959 -1.2962
  958MOL0     H26408   7.004   4.453   5.912  1.0334 -0.4887 -2.7197
  958MOL0     H26409   6.824   4.550   6.115 -3.4802  2.0619  2.1805
  958MOL0     H26410   6.726   4.907   6.212 -1.2590  0.5844 -0.8721
  958MOL0     H26411   6.720   4.741   6.265  0.2289 -0.4396 -0.2504
  958MOL0     H26412   6.565   4.905   6.076  1.1474  0.3647  0.4908
  958MOL0     H26413   6.499   4.869   6.240 -1.3962  1.0784 -0.8854
  958MOL0     H26414   6.509   4.672   6.010  0.7540 -0.1730 -0.5326
  958MOL0     H26415   6.496   4.624   6.172  0.2632 -0.8554 -3.7760
  958MOL0     H26416   6.265   4.643   6.052  1.8808 -0.5863 -1.3682
  958MOL0     H26417   6.304   4.808   6.031 -0.8753 -0.4749 -0.2854
  958MOL0     H26418   6.256   4.970   6.386  0.3138  3.0507  0.4018
  958MOL0     H26419   6.108   5.131   6.404  0.0886  0.2268  0.4983
  958MOL0     H26420   5.739   5.383   5.932 -0.2412 -0.5213 -0.7354
  958MOL0     H26421   5.547   5.550   5.966 -1.3440 -1.6177 -0.7810
  958MOL0     H26422   5.313   5.587   5.995  1.9444 -3.6735  3.3945
  958MOL0     H26423   5.403   5.738   6.032 -1.5323  1.1518 -0.3407
  958MOL0     H26424   5.246   5.769   6.232 -3.9533  2.8083  0.7627
  958MOL0     H26425   5.136   5.659   6.150  1.9622 -1.1067  3.3550
  958MOL0     H26426   5.143   5.820   5.949 -0.5867  2.0559 -1.0090
  958MOL0     H26427   5.270   5.899   6.019 -0.4230  0.0812 -2.4830
  958MOL0     H26428   4.994   5.886   6.141 -1.6228  1.5896 -2.2051
  958MOL0     H26429   5.136   5.970   6.212  0.2827  0.9960 -0.3182
  958MOL0     H26430   4.992   6.039   5.955  0.2983 -0.7631 -0.0091
  958MOL0     H26431   5.146   6.118   6.007  2.2465 -3.1653  0.4332
  958MOL0     H26432   5.024   6.177   6.215  0.6907 -0.2861 -0.1867
  958MOL0     H26433   4.890   6.089   6.181 -0.1326  2.3874  2.4465
  958MOL0     H26434   4.800   6.223   6.003 -0.5125  2.6039 -0.7323
  958MOL0     H26435   4.847   6.343   6.122 -0.2252  3.0411 -2.8304
  958MOL0     H26436   4.909   6.424   5.903 -0.9217 -1.8858 -0.7418
  958MOL0     H26437   5.001   6.282   5.863  0.2807  0.4613 -0.7782
  958MOL0     H26438   5.464   5.411   6.342  0.1189 -0.0467  0.1605
  958MOL0     H26439   5.647   5.239   6.337 -1.2070  1.9135  3.3801
  958MOL0     H26440   5.912   4.990   6.044  1.1044 -1.0650 -1.0563
  958MOL0     H26441   6.056   4.805   6.044  0.2999  0.2308 -0.9402
  958MOL0     H26442   7.357   4.067   5.156 -0.5878 -0.1612 -0.6958
  958MOL0     H26443   7.536   4.084   4.998 -0.8459  0.9813 -1.5012
  958MOL0     H26444   7.831   4.483   4.848 -0.0256  0.9191  0.4288
  958MOL0     H26445   8.033   4.634   4.826 -2.6816  1.5755  2.5503
  958MOL0     H26446   8.436   4.578   4.989 -0.2959  1.1583 -0.7082
  958MOL0     H26447   8.330   4.561   5.127  0.0139 -1.5287 -2.4655
  958MOL0     H26448   8.475   4.757   5.131  0.8747 -1.5267 -1.3371
  958MOL0     H26449   8.376   4.817   4.991 -0.3028  0.1515 -0.3638
  958MOL0     H26450   8.297   4.938   5.199  1.4298 -0.0374 -1.7828
  958MOL0     H26451   8.307   4.779   5.277  5.0578  2.0627  0.2848
  958MOL0     H26452   8.104   4.711   5.143  1.3618 -1.7378  1.8018
  958MOL0     H26453   8.088   4.840   5.261  0.2789  4.3984 -1.0233
  958MOL0     H26454   7.946   5.018   4.900  0.3329  0.6140 -0.1459
  958MOL0     H26455   8.251   4.364   5.060 -0.5586 -0.5812  0.2099
  958MOL0     H26456   8.082   4.186   5.054 -2.7520 -1.1877  1.1059
  959MOL0     O26457   0.925   1.820   4.245 -0.5843  0.1809  0.2515
  959MOL0     C26458   0.974   1.858   4.134  0.1968  0.8301  0.4325
  959MOL0     O26459   0.911   1.952   4.050 -0.5998  0.9225  0.0708
  959MOL0     C26460   0.784   1.993   4.088 -0.7081  0.5905  0.5580
  959MOL0     C26461   0.674   1.976   4.010 -0.8686 -0.5045 -0.2900
  959MOL0     C26462   0.553   2.022   4.050 -0.2529  0.6404 -1.6330
  959MOL0     C26463   0.536   2.110   4.164 -0.0621  0.3450  0.1727
  959MOL0     O26464   0.418   2.182   4.191  0.0863  0.4151  0.3815
  959MOL0     C26465   0.356   2.171   4.317  0.8934  0.1023 -0.3126
  959MOL0     C26466   0.234   2.263   4.315 -0.1020 -0.4196 -0.2606
  959MOL0     C26467   0.159   2.244   4.450  0.5502 -0.0993 -1.0463
  959MOL0     C26468   0.050   2.350   4.455  0.2277 -0.0928  0.2118
  959MOL0     C26469  -0.021   2.339   4.590  0.2083 -0.3786  0.0117
  959MOL0     C26470  -0.122   2.454   4.631  0.2667 -1.0040  0.5953
  959MOL0     C26471  -0.183   2.429   4.758  0.9365  0.2055 -1.8346
  959MOL0     C26472  -0.285   2.545   4.807 -0.0553 -0.2460  0.4907
  959MOL0     N26473  -0.393   2.487   4.879  0.1110 -0.0134 -0.2296
  959MOL0     C26474  -0.492   2.411   4.827  0.1643 -0.0138 -0.1185
  959MOL0     C26475  -0.585   2.403   4.921  0.3756  0.1466  0.7312
  959MOL0     C26476  -0.720   2.342   4.918 -0.0002  0.5846 -0.0945
  959MOL0     C26477  -0.708   2.198   4.948 -0.0134  1.3527  0.6730
  959MOL0     C26478  -0.846   2.130   4.979  0.4500  0.9381  0.2391
  959MOL0     C26479  -0.929   2.101   4.860  0.4195 -0.3928 -0.0789
  959MOL0     O26480  -1.035   2.014   4.905  0.2355  0.1163 -0.0904
  959MOL0     C26481  -1.150   2.013   4.836  0.4840 -0.1725 -0.6049
  959MOL0     C26482  -1.257   1.964   4.907 -0.7589 -0.2302  0.7416
  959MOL0     C26483  -1.378   1.956   4.841  0.5114  0.7549  0.9350
  959MOL0     C26484  -1.411   2.018   4.715 -0.4170  0.7644 -0.3080
  959MOL0     C26485  -1.545   2.053   4.665 -0.9634 -0.3686  1.3104
  959MOL0     O26486  -1.547   2.120   4.540 -0.3811  0.4108  0.4386
  959MOL0     C26487  -1.673   2.158   4.495 -0.4118 -0.4372 -0.0539
  959MOL0     C26488  -1.751   2.240   4.568  0.1755 -0.3680 -0.4108
  959MOL0     C26489  -1.872   2.291   4.513  0.5030  1.4186 -0.6879
  959MOL0     C26490  -1.920   2.255   4.387 -0.4949 -0.4532  0.1759
  959MOL0     O26491  -2.038   2.316   4.345  0.0087 -0.2372  0.1371
  959MOL0     C26492  -2.084   2.257   4.216 -0.7475 -0.0376 -0.3604
  959MOL0     C26493  -2.223   2.294   4.179 -0.4030 -0.3571 -0.2986
  959MOL0     C26494  -2.270   2.213   4.058 -0.2079 -0.0243 -0.1560
  959MOL0     C26495  -2.193   2.238   3.928 -0.2639 -0.6852  0.2092
  959MOL0     C26496  -2.196   2.388   3.875 -0.3674 -0.3245 -0.0153
  959MOL0     C26497  -2.339   2.435   3.841  0.6694 -0.9879  1.0184
  959MOL0     C26498  -2.337   2.561   3.754  0.0243  0.1796  0.4247
  959MOL0     C26499  -2.456   2.653   3.782 -1.2456  0.3223  0.2430
  959MOL0    Cl26500  -2.480   2.684   3.962  0.3201 -0.4470 -0.1144
  959MOL0     C26501  -1.835   2.166   4.321  0.4215 -0.2350  0.0063
  959MOL0     C26502  -1.719   2.115   4.372 -0.2425 -0.6731 -0.0853
  959MOL0     O26503  -1.631   2.030   4.739 -0.2898 -0.2262 -0.1176
  959MOL0     C26504  -1.304   2.061   4.646 -0.9279  0.1224 -0.2667
  959MOL0     C26505  -1.179   2.061   4.706 -0.5056  0.2306  0.1508
  959MOL0     N26506  -0.549   2.481   5.025 -0.3549 -0.0505  0.0393
  959MOL0     N26507  -0.432   2.530   5.005 -0.0138  0.0452 -0.6474
  959MOL0     C26508   0.652   2.130   4.242  0.7916 -0.0986  1.3935
  959MOL0     C26509   0.772   2.079   4.197 -0.1164 -0.3414 -0.3913
  959MOL0     C26510   1.098   1.789   4.095 -0.0502  0.0643 -1.2071
  959MOL0     C26511   1.168   1.704   4.191  0.4995 -0.8647 -0.7946
  959MOL0     C26512   1.298   1.655   4.166  0.2736 -0.2226 -0.1588
  959MOL0     C26513   1.360   1.684   4.045  0.0740  0.3849 -0.2105
  959MOL0     O26514   1.485   1.640   4.037  0.2162  0.1700 -0.6597
  959MOL0     C26515   1.534   1.562   3.924 -0.7346 -0.1395  0.4587
  959MOL0     C26516   1.678   1.605   3.872 -0.6795 -1.3259  0.2115
  959MOL0     C26517   1.790   1.570   3.966 -0.2877 -0.8569  0.4553
  959MOL0     C26518   1.920   1.600   3.908  0.8999  0.2677  0.2497
  959MOL0     C26519   2.027   1.594   4.009 -0.2630  0.5283  1.3068
  959MOL0     C26520   2.116   1.552   4.083 -0.4312  0.1896 -0.1713
  959MOL0     C26521   1.288   1.764   3.949 -0.1651 -0.5881  0.4834
  959MOL0     C26522   1.167   1.827   3.980 -0.4831  0.4839 -0.5531
  959MOL0     H26523   0.679   1.922   3.916 -2.0825 -0.4970 -0.3721
  959MOL0     H26524   0.465   1.995   3.992  1.2093 -1.5852 -2.9612
  959MOL0     H26525   0.426   2.205   4.395 -1.1031  1.4795  0.9622
  959MOL0     H26526   0.324   2.075   4.359 -1.4100  1.4035  1.1246
  959MOL0     H26527   0.157   2.262   4.237 -0.8700  2.5248  0.3228
  959MOL0     H26528   0.281   2.362   4.311 -1.0324  0.0678  0.4991
  959MOL0     H26529   0.230   2.255   4.533 -1.3523  0.3505  0.5928
  959MOL0     H26530   0.109   2.148   4.468  3.2650 -1.2070  1.4520
  959MOL0     H26531   0.085   2.453   4.462 -1.0164  0.3492  0.0268
  959MOL0     H26532  -0.013   2.356   4.367 -1.1560  1.6365  1.2595
  959MOL0     H26533   0.048   2.337   4.675  1.0507 -2.3993 -0.6532
  959MOL0     H26534  -0.068   2.241   4.576  0.5786 -0.4085 -1.0861
  959MOL0     H26535  -0.202   2.471   4.558  2.8268  1.1594 -1.9678
  959MOL0     H26536  -0.062   2.546   4.632 -3.5255  1.8031 -1.3345
  959MOL0     H26537  -0.231   2.330   4.752 -0.4809  0.8697 -1.9679
  959MOL0     H26538  -0.099   2.426   4.827 -0.0267 -0.0208 -0.6219
  959MOL0     H26539  -0.330   2.584   4.715 -1.4818 -0.9314  0.8728
  959MOL0     H26540  -0.244   2.616   4.879 -0.6282  0.5622  0.0330
  959MOL0     H26541  -0.490   2.375   4.725 -0.2918 -1.6529  0.4178
  959MOL0     H26542  -0.771   2.345   4.821 -2.0636  2.9606  0.9145
  959MOL0     H26543  -0.787   2.387   4.993 -0.6246 -1.1431  0.4338
  959MOL0     H26544  -0.645   2.186   5.036  0.5175  4.3643  0.8047
  959MOL0     H26545  -0.664   2.143   4.864 -0.0020  2.4237 -0.0305
  959MOL0     H26546  -0.825   2.031   5.020  3.2786  1.4163  0.1088
  959MOL0     H26547  -0.907   2.195   5.043  0.5485  1.3424 -0.0704
  959MOL0     H26548  -0.869   2.049   4.785 -0.2267 -2.2606  0.6340
  959MOL0     H26549  -0.973   2.194   4.823  0.7686 -0.3733 -0.4519
  959MOL0     H26550  -1.242   1.917   5.004 -0.3168  0.5136  1.0439
  959MOL0     H26551  -1.464   1.920   4.895  0.1162 -0.7836 -0.6426
  959MOL0     H26552  -1.722   2.277   4.666  0.6105  1.0400 -1.0487
  959MOL0     H26553  -1.942   2.346   4.575  1.9663  2.2853  0.2663
  959MOL0     H26554  -2.079   2.149   4.230 -1.1303  0.1187  1.2468
  959MOL0     H26555  -2.026   2.285   4.128 -2.7731  0.3057 -1.6438
  959MOL0     H26556  -2.233   2.399   4.148  0.1075 -0.0040  0.6816
  959MOL0     H26557  -2.286   2.282   4.268  1.8799  3.4109  2.0890
  959MOL0     H26558  -2.377   2.218   4.035  0.0249 -0.8592 -1.4753
  959MOL0     H26559  -2.258   2.106   4.077 -1.4098 -0.1001  0.2818
  959MOL0     H26560  -2.089   2.208   3.936  0.3413 -0.4175 -4.1141
  959MOL0     H26561  -2.238   2.170   3.855  0.7297 -1.9316  0.7225
  959MOL0     H26562  -2.135   2.381   3.784 -0.0946 -0.8938  0.2064
  959MOL0     H26563  -2.151   2.456   3.948 -0.1767  0.6815 -1.0529
  959MOL0     H26564  -2.402   2.447   3.930 -0.5628  1.8626 -0.1407
  959MOL0     H26565  -2.388   2.361   3.777 -1.4152  0.4753  0.8193
  959MOL0     H26566  -2.245   2.615   3.778 -0.4921  0.3023  2.3052
  959MOL0     H26567  -2.320   2.533   3.649  0.9950 -0.0652  0.6432
  959MOL0     H26568  -2.538   2.592   3.742 -1.4132 -0.4269  1.6798
  959MOL0     H26569  -2.451   2.748   3.729 -2.6170 -0.8792 -2.2322
  959MOL0     H26570  -1.860   2.124   4.224 -1.7348  1.5236 -0.2888
  959MOL0     H26571  -1.659   2.040   4.321  2.0113 -1.1494  2.9886
  959MOL0     H26572  -1.309   2.104   4.547 -1.5740  1.7016  0.4111
  959MOL0     H26573  -1.091   2.107   4.663  1.8408  0.4028  4.5865
  959MOL0     H26574   0.647   2.187   4.334 -1.2071 -0.9946  1.8911
  959MOL0     H26575   0.858   2.107   4.256  0.8265 -1.4805 -1.1743
  959MOL0     H26576   1.141   1.704   4.296  1.7301  0.9266 -0.4188
  959MOL0     H26577   1.353   1.597   4.240 -0.3928  0.0195  0.5340
  959MOL0     H26578   1.456   1.551   3.849  0.3892 -1.9034 -0.5231
  959MOL0     H26579   1.535   1.454   3.944 -2.0050 -0.3957 -0.6868
  959MOL0     H26580   1.695   1.553   3.777  2.3856  0.8895 -0.5949
  959MOL0     H26581   1.679   1.710   3.842 -1.5285 -1.1307  0.8269
  959MOL0     H26582   1.792   1.465   3.997 -2.3417 -0.4719  2.2273
  959MOL0     H26583   1.789   1.638   4.052  0.7115  1.7134 -1.4366
  959MOL0     H26584   1.936   1.529   3.826  1.7317  0.8413 -0.0979
  959MOL0     H26585   1.921   1.701   3.867 -4.3456  0.2001 -0.6857
  959MOL0     H26586   2.193   1.506   4.142 -2.3224  0.2812  2.5679
  959MOL0     H26587   1.336   1.789   3.855 -1.2202  2.5061  0.6519
  959MOL0     H26588   1.126   1.892   3.903 -0.6703  0.0243 -0.8544
  960MOL0     O26589   3.210   8.185   0.760  0.7485 -0.1002  0.6355
  960MOL0     C26590   3.205   8.062   0.771 -0.2472 -0.4786  1.5715
  960MOL0     O26591   3.258   7.995   0.871 -0.0826  0.1899 -0.0502
  960MOL0     C26592   3.339   8.056   0.974 -0.5801  0.4814  0.0163
  960MOL0     C26593   3.354   8.192   1.016  0.7178 -0.2476 -0.8742
  960MOL0     C26594   3.411   8.232   1.140 -0.5324  0.7354  0.2257
  960MOL0     C26595   3.455   8.141   1.239  0.0107  0.5889 -0.1965
  960MOL0     O26596   3.512   8.188   1.352 -0.1450 -0.1383 -0.5451
  960MOL0     C26597   3.523   8.100   1.462 -0.0898 -0.8286  0.3721
  960MOL0     C26598   3.499   8.176   1.590  0.3075 -0.1267  0.1865
  960MOL0     C26599   3.574   8.303   1.607 -0.8462  0.6698  0.1597
  960MOL0     C26600   3.561   8.359   1.750 -0.8046  0.1775 -0.4393
  960MOL0     C26601   3.625   8.501   1.757 -0.0135  0.0482 -0.6499
  960MOL0     C26602   3.773   8.498   1.801  0.4849 -0.0929 -0.7709
  960MOL0     C26603   3.812   8.638   1.800  0.4411 -0.0819  0.1945
  960MOL0     C26604   3.956   8.661   1.856 -0.3904  0.2082 -0.1910
  960MOL0     N26605   4.029   8.786   1.816  0.1780  0.2377 -0.5831
  960MOL0     C26606   4.071   8.812   1.691 -0.2265 -0.2462  0.3327
  960MOL0     C26607   4.128   8.933   1.696  0.1513  0.2740 -0.0282
  960MOL0     C26608   4.169   9.028   1.596  0.8450 -0.4397  1.0027
  960MOL0     C26609   4.060   9.129   1.546  0.6023 -0.6180 -0.1952
  960MOL0     C26610   3.953   9.063   1.462  0.1598  0.5814  0.0047
  960MOL0     C26611   3.846   9.176   1.436  0.5204  0.0375 -0.0762
  960MOL0     O26612   3.781   9.243   1.548 -0.1453 -0.3383 -0.4814
  960MOL0     C26613   3.696   9.159   1.610  0.3622  0.5576 -0.9916
  960MOL0     C26614   3.567   9.159   1.567  0.6032  0.6959  0.4086
  960MOL0     C26615   3.470   9.073   1.630 -0.1321 -0.3622 -0.4550
  960MOL0     C26616   3.514   9.005   1.753  1.3795  0.8475 -0.7425
  960MOL0     C26617   3.399   8.945   1.835 -0.2868  0.8829  0.1847
  960MOL0     O26618   3.276   8.930   1.775  0.3078  0.2859 -1.0830
  960MOL0     C26619   3.176   8.872   1.855  0.0064  0.3521  0.1281
  960MOL0     C26620   3.174   8.733   1.894 -0.8193 -1.4714 -0.1201
  960MOL0     C26621   3.096   8.695   2.001  0.5602  0.3462  0.6302
  960MOL0     C26622   3.001   8.779   2.061 -0.1725 -0.6726 -0.5891
  960MOL0     O26623   2.927   8.723   2.165  0.2456 -0.4809  0.7019
  960MOL0     C26624   2.837   8.819   2.228 -0.0430  0.0233  0.1079
  960MOL0     C26625   2.791   8.756   2.351  0.0891  1.6235  0.0321
  960MOL0     C26626   2.700   8.855   2.423 -0.2807  0.5799  0.0535
  960MOL0     C26627   2.634   8.776   2.544  0.4287 -0.5117  1.0077
  960MOL0     C26628   2.513   8.855   2.579  0.9654  0.4147 -0.3527
  960MOL0     C26629   2.463   8.811   2.716  0.2305  0.7364  0.3054
  960MOL0     C26630   2.338   8.903   2.746 -0.1400 -0.2096 -0.3411
  960MOL0     C26631   2.207   8.847   2.685 -0.2006  0.1388  0.3315
  960MOL0    Cl26632   2.067   8.961   2.678 -0.1777  0.0700  0.3622
  960MOL0     C26633   2.990   8.914   2.005 -0.2026 -0.0259  0.2790
  960MOL0     C26634   3.080   8.958   1.911 -0.1194  0.4465  0.1816
  960MOL0     O26635   3.440   8.908   1.944  0.3724 -0.7143  0.3993
  960MOL0     C26636   3.643   9.023   1.798 -0.5089  0.3676 -0.2639
  960MOL0     C26637   3.743   9.084   1.718 -0.0063 -0.0935 -0.4203
  960MOL0     N26638   4.132   8.976   1.828 -0.3233 -0.8505  0.2270
  960MOL0     N26639   4.077   8.892   1.894 -0.5625  0.4270  0.2952
  960MOL0     C26640   3.456   8.008   1.186  0.3163 -0.3716 -0.0508
  960MOL0     C26641   3.395   7.968   1.068  0.7014 -0.1429  0.0423
  960MOL0     C26642   3.148   7.995   0.651 -0.7425 -0.0811 -0.7792
  960MOL0     C26643   3.120   8.059   0.527  0.5827 -0.3286 -0.3598
  960MOL0     C26644   3.077   7.976   0.419  0.2607 -0.0262 -0.4462
  960MOL0     C26645   3.038   7.837   0.440  0.7637 -0.2533  0.4363
  960MOL0     O26646   2.985   7.757   0.337  0.2501 -0.5554  0.8833
  960MOL0     C26647   2.892   7.814   0.241 -0.4453  0.7462  0.1655
  960MOL0     C26648   2.922   7.769   0.095  0.6484 -0.0998 -0.4140
  960MOL0     C26649   3.064   7.766   0.058  0.3886 -1.1008  0.0032
  960MOL0     C26650   3.131   7.912   0.065  0.4370 -0.8920  0.5103
  960MOL0     C26651   3.270   7.899   0.006  0.1240 -0.0691  0.1070
  960MOL0     C26652   3.372   7.865  -0.057  0.0596  0.5087  0.1613
  960MOL0     C26653   3.065   7.786   0.563 -0.1793  0.3715 -0.7366
  960MOL0     C26654   3.116   7.861   0.670 -0.5455  0.2978 -0.2932
  960MOL0     H26655   3.313   8.273   0.956  0.7307  0.4954  0.0874
  960MOL0     H26656   3.429   8.338   1.153  3.4997  0.1735  0.6072
  960MOL0     H26657   3.611   8.037   1.454 -0.0590 -0.4764 -3.5077
  960MOL0     H26658   3.436   8.033   1.460 -1.6679  1.1338 -1.3099
  960MOL0     H26659   3.536   8.108   1.667  2.4734  0.6271 -0.1220
  960MOL0     H26660   3.390   8.188   1.588  0.5204  2.1176 -0.0306
  960MOL0     H26661   3.532   8.381   1.542 -4.7343  1.2783  3.0369
  960MOL0     H26662   3.680   8.278   1.598 -1.7297 -3.0077 -1.6420
  960MOL0     H26663   3.458   8.353   1.786 -0.3205 -3.3215  0.7428
  960MOL0     H26664   3.623   8.293   1.811  0.7732  1.8675 -0.0934
  960MOL0     H26665   3.561   8.557   1.826 -1.6673 -0.4044 -1.7393
  960MOL0     H26666   3.616   8.548   1.658 -1.8978 -1.1985 -1.1217
  960MOL0     H26667   3.830   8.429   1.738 -0.0360 -0.7695 -0.5136
  960MOL0     H26668   3.776   8.458   1.903  0.7487  0.9968 -0.3406
  960MOL0     H26669   3.806   8.681   1.700  3.5253 -3.0523 -1.4751
  960MOL0     H26670   3.747   8.688   1.873  1.7707 -0.9707  2.0980
  960MOL0     H26671   4.017   8.575   1.826 -1.0716 -0.2255 -0.3601
  960MOL0     H26672   3.958   8.671   1.965  0.1422 -1.6858 -0.0007
  960MOL0     H26673   4.027   8.766   1.604  0.2179  1.5061 -0.8786
  960MOL0     H26674   4.219   8.972   1.516 -0.5793  1.9178 -1.7377
  960MOL0     H26675   4.249   9.089   1.640  2.1286  0.0598 -1.7642
  960MOL0     H26676   4.107   9.210   1.489  0.6849 -0.3480  0.2540
  960MOL0     H26677   4.014   9.176   1.633  2.4268  1.7680 -0.4204
  960MOL0     H26678   3.995   9.011   1.375 -0.1589 -0.7550  0.6212
  960MOL0     H26679   3.892   8.988   1.513 -1.5102  0.9681 -1.3567
  960MOL0     H26680   3.773   9.136   1.365  2.5508 -2.7179 -0.7742
  960MOL0     H26681   3.896   9.255   1.380  1.5738 -0.0404  0.7263
  960MOL0     H26682   3.554   9.205   1.469  2.5659 -1.8900 -1.1855
  960MOL0     H26683   3.367   9.068   1.596 -0.4835  1.0197  0.3731
  960MOL0     H26684   3.247   8.666   1.851 -0.2002 -1.1532  0.4255
  960MOL0     H26685   3.096   8.590   2.027 -0.4879 -0.4886 -2.2308
  960MOL0     H26686   2.759   8.847   2.157 -0.9546  0.3205  1.1968
  960MOL0     H26687   2.895   8.909   2.249 -1.9713  1.9807 -2.2856
  960MOL0     H26688   2.879   8.738   2.414 -0.3558  0.9113  0.4689
  960MOL0     H26689   2.739   8.664   2.323 -1.8877  3.0070 -1.0941
  960MOL0     H26690   2.628   8.896   2.351  0.9757  1.0595 -0.9749
  960MOL0     H26691   2.758   8.933   2.472 -0.4330  0.8032 -0.1193
  960MOL0     H26692   2.613   8.670   2.528  0.6938 -0.2027 -1.9753
  960MOL0     H26693   2.704   8.772   2.628 -0.1004 -4.1727  1.4493
  960MOL0     H26694   2.436   8.829   2.506 -0.6055 -1.9209  1.9594
  960MOL0     H26695   2.539   8.961   2.574 -2.9142  1.6185  1.0675
  960MOL0     H26696   2.538   8.822   2.795 -0.2482 -2.2849  1.3137
  960MOL0     H26697   2.418   8.712   2.723  0.0032  0.7284 -1.0663
  960MOL0     H26698   2.342   8.917   2.854 -0.1301  0.0176 -0.3715
  960MOL0     H26699   2.342   8.999   2.694  1.0451  0.4111  0.8438
  960MOL0     H26700   2.177   8.756   2.739  1.6046 -0.6371  0.1009
  960MOL0     H26701   2.223   8.813   2.582  0.1196  1.5891 -0.1100
  960MOL0     H26702   2.917   8.980   2.050  0.6284  0.4247  0.9850
  960MOL0     H26703   3.076   9.062   1.879 -1.1702  0.2009 -0.5578
  960MOL0     H26704   3.672   8.967   1.887 -4.2625  0.6264  1.3223
  960MOL0     H26705   3.845   9.106   1.748 -0.3727  0.2242  0.6387
  960MOL0     H26706   3.494   7.924   1.243 -2.0665  0.3317  2.8382
  960MOL0     H26707   3.381   7.862   1.045  0.4765 -0.0795 -0.1143
  960MOL0     H26708   3.141   8.164   0.509 -1.9822  0.6065  1.4615
  960MOL0     H26709   3.049   8.034   0.331 -0.8905  3.3655  1.9056
  960MOL0     H26710   2.890   7.923   0.239 -2.2500  0.7760 -2.2679
  960MOL0     H26711   2.790   7.787   0.270  0.1606 -2.0393  0.0031
  960MOL0     H26712   2.888   7.668   0.074 -0.9307  0.3764 -0.2535
  960MOL0     H26713   2.866   7.832   0.025 -1.8449 -0.1482  1.3955
  960MOL0     H26714   3.077   7.724  -0.042  1.8480  1.1297 -0.8206
  960MOL0     H26715   3.112   7.691   0.122 -2.3003 -2.8981  0.0894
  960MOL0     H26716   3.070   7.988   0.014  0.8873  0.8048  2.3748
  960MOL0     H26717   3.139   7.961   0.162 -0.5081 -2.3558  1.3533
  960MOL0     H26718   3.469   7.859  -0.103  0.2160  1.9406  0.2601
  960MOL0     H26719   3.038   7.682   0.574 -1.9192  0.8894  0.4036
  960MOL0     H26720   3.154   7.815   0.761  1.5472  1.2191 -0.6596
  961MOL0     O26721   1.305   2.230   1.173 -0.1287  0.5625  0.2929
  961MOL0     C26722   1.229   2.268   1.261  0.3904  0.5540 -0.1273
  961MOL0     O26723   1.147   2.187   1.336  0.5660 -0.7458 -0.2582
  961MOL0     C26724   1.160   2.054   1.342  0.2262  0.2120 -0.3965
  961MOL0     C26725   1.283   1.978   1.352 -0.1785  0.7051 -0.2993
  961MOL0     C26726   1.273   1.838   1.368  0.6985 -0.2514  0.2870
  961MOL0     C26727   1.158   1.771   1.381  0.2626  0.4972 -0.1665
  961MOL0     O26728   1.172   1.634   1.398 -0.3535  0.3432 -0.2681
  961MOL0     C26729   1.116   1.576   1.510 -0.0938  0.7172  0.4368
  961MOL0     C26730   1.035   1.441   1.477  0.6113  0.4448 -0.1698
  961MOL0     C26731   0.954   1.392   1.601  0.0141 -0.0365  0.4359
  961MOL0     C26732   0.870   1.272   1.575 -0.2383  0.3065  0.1798
  961MOL0     C26733   0.790   1.222   1.701 -0.3349  0.5976 -0.7190
  961MOL0     C26734   0.729   1.083   1.674 -0.5041 -0.7315  0.2143
  961MOL0     C26735   0.642   1.031   1.793  0.6537  0.3616  0.1593
  961MOL0     C26736   0.488   1.050   1.761  0.3319  0.2365  0.0006
  961MOL0     N26737   0.449   1.193   1.764  0.3959  0.5033  0.4062
  961MOL0     C26738   0.488   1.281   1.858 -0.2752  0.8399 -0.3462
  961MOL0     C26739   0.469   1.402   1.811  1.4306 -1.2714 -0.2062
  961MOL0     C26740   0.492   1.521   1.897  0.5415  0.0171 -0.4035
  961MOL0     C26741   0.628   1.594   1.907  0.3681  0.6317  0.4501
  961MOL0     C26742   0.683   1.630   1.765  0.4103  0.2431  0.5379
  961MOL0     C26743   0.815   1.693   1.769 -0.1775 -0.0505 -0.7919
  961MOL0     O26744   0.921   1.618   1.837 -0.8428  0.3711  0.7039
  961MOL0     C26745   1.047   1.672   1.843 -0.1559 -0.1122 -0.2452
  961MOL0     C26746   1.150   1.586   1.872 -0.4684  0.9292  0.2414
  961MOL0     C26747   1.283   1.630   1.873 -0.2366 -0.5129  0.2813
  961MOL0     C26748   1.309   1.771   1.847  0.4432 -0.1406 -0.2095
  961MOL0     C26749   1.446   1.825   1.836  0.4028 -0.4626 -0.1495
  961MOL0     O26750   1.468   1.957   1.806  0.2442  0.1749  0.0966
  961MOL0     C26751   1.588   2.003   1.753  0.4356 -0.0131  0.8129
  961MOL0     C26752   1.644   2.118   1.803  0.1030 -0.6850 -0.1376
  961MOL0     C26753   1.761   2.174   1.758 -0.6088 -0.2173 -0.0170
  961MOL0     C26754   1.827   2.108   1.647 -0.2570 -0.7766  0.2767
  961MOL0     O26755   1.950   2.161   1.611  0.2411 -0.0808 -0.0702
  961MOL0     C26756   2.001   2.149   1.471  0.8082 -0.0984 -0.2786
  961MOL0     C26757   1.958   2.253   1.371  0.0872 -0.6324  0.1976
  961MOL0     C26758   2.008   2.390   1.390  0.0390 -0.0874  1.0359
  961MOL0     C26759   2.160   2.401   1.434  0.1831  1.2305  0.0846
  961MOL0     C26760   2.268   2.351   1.335  0.9862  0.4478 -0.1368
  961MOL0     C26761   2.394   2.436   1.356  0.4744  0.3715  0.3657
  961MOL0     C26762   2.503   2.356   1.284 -0.1580 -0.4464  0.0146
  961MOL0     C26763   2.644   2.421   1.288 -0.5793 -0.6153 -0.2941
  961MOL0    Cl26764   2.765   2.313   1.212  0.2070  0.6644  0.2128
  961MOL0     C26765   1.780   1.982   1.606  0.9785 -0.3967 -0.0454
  961MOL0     C26766   1.662   1.929   1.656  0.3919  0.0532  0.4646
  961MOL0     O26767   1.541   1.752   1.862 -0.0537  0.0479  0.3025
  961MOL0     C26768   1.202   1.857   1.828 -0.9523 -0.0367  0.1130
  961MOL0     C26769   1.071   1.807   1.825  0.0691 -0.8397 -0.3617
  961MOL0     N26770   0.424   1.395   1.680  0.0891 -0.0286  0.1193
  961MOL0     N26771   0.418   1.266   1.656  1.0643  0.9808  0.6809
  961MOL0     C26772   1.044   1.839   1.379  1.6177 -0.4380 -0.7078
  961MOL0     C26773   1.041   1.977   1.356  0.0432  0.2387  0.7061
  961MOL0     C26774   1.213   2.417   1.297  0.1559 -0.3361  0.5928
  961MOL0     C26775   1.281   2.506   1.228 -0.5536 -0.2939  0.0498
  961MOL0     C26776   1.285   2.637   1.269  0.5589 -0.1689 -0.1862
  961MOL0     C26777   1.219   2.677   1.386 -0.4585 -0.2088 -0.5434
  961MOL0     O26778   1.265   2.800   1.428 -0.2719  0.0149  0.4027
  961MOL0     C26779   1.204   2.859   1.536 -0.2275 -0.1373  0.8813
  961MOL0     C26780   1.287   2.960   1.608 -0.1211  0.1669  0.4283
  961MOL0     C26781   1.333   3.076   1.519  0.3196  0.1741 -0.8518
  961MOL0     C26782   1.219   3.161   1.458  0.9220 -0.6694 -0.7494
  961MOL0     C26783   1.121   3.202   1.564  0.3145 -0.1192  0.2691
  961MOL0     C26784   1.053   3.227   1.662  0.1356  0.6350  0.0539
  961MOL0     C26785   1.127   2.589   1.453  0.1163  0.1529 -1.4374
  961MOL0     C26786   1.136   2.458   1.407  0.1221  0.6004  0.6174
  961MOL0     H26787   1.385   2.016   1.357  0.0853 -0.0910  0.5763
  961MOL0     H26788   1.368   1.790   1.392  1.0965  0.6116  0.4766
  961MOL0     H26789   1.057   1.655   1.557  1.0175  1.8439  0.0052
  961MOL0     H26790   1.198   1.530   1.567  2.1647  0.2382 -2.9029
  961MOL0     H26791   1.103   1.354   1.476  0.7679  0.5609 -1.1354
  961MOL0     H26792   0.976   1.435   1.385  1.6404 -2.0597 -0.7755
  961MOL0     H26793   0.882   1.474   1.618  1.1816  1.0917  0.0924
  961MOL0     H26794   1.025   1.370   1.681  2.4725 -0.2427 -1.7171
  961MOL0     H26795   0.805   1.292   1.490 -0.9092 -0.5832  0.4730
  961MOL0     H26796   0.938   1.192   1.543 -1.5158 -1.2326  1.1519
  961MOL0     H26797   0.713   1.292   1.734 -1.7323 -1.8230  1.5432
  961MOL0     H26798   0.858   1.211   1.786  0.3564 -1.1424 -1.4528
  961MOL0     H26799   0.813   1.018   1.648  2.7012  3.4045 -0.9070
  961MOL0     H26800   0.673   1.095   1.581 -0.6777 -0.2793  0.3754
  961MOL0     H26801   0.673   0.926   1.796  1.3708  0.4005 -2.9450
  961MOL0     H26802   0.669   1.070   1.891 -1.7148 -2.3963  2.1175
  961MOL0     H26803   0.417   1.000   1.827  1.0898 -0.0058  0.6544
  961MOL0     H26804   0.489   1.014   1.658  1.4776 -1.1094  0.4418
  961MOL0     H26805   0.511   1.252   1.960 -1.3674  2.1057  0.2726
  961MOL0     H26806   0.478   1.493   2.002  1.2545  3.7427  0.8457
  961MOL0     H26807   0.411   1.593   1.880  1.3544  1.0306 -0.1118
  961MOL0     H26808   0.702   1.527   1.952  4.6456  3.8712 -1.1849
  961MOL0     H26809   0.624   1.687   1.963  2.9234  0.7386  0.5525
  961MOL0     H26810   0.689   1.539   1.704 -0.5502 -0.2416  1.1242
  961MOL0     H26811   0.603   1.692   1.724  0.8389  1.2504  1.2007
  961MOL0     H26812   0.808   1.789   1.820  1.3357 -0.1710 -0.3204
  961MOL0     H26813   0.842   1.715   1.666  0.1955  2.4591 -0.2128
  961MOL0     H26814   1.143   1.481   1.899  1.5187  0.6479 -0.1818
  961MOL0     H26815   1.364   1.560   1.887  0.3810 -0.4433 -2.4049
  961MOL0     H26816   1.602   2.177   1.884 -1.4038 -0.0732 -1.3112
  961MOL0     H26817   1.813   2.263   1.793  0.8483 -1.0586  0.0787
  961MOL0     H26818   1.958   2.055   1.435 -0.0991  0.0078  0.5088
  961MOL0     H26819   2.110   2.147   1.484  0.7537  1.6921  0.7458
  961MOL0     H26820   1.850   2.262   1.388 -0.0699 -0.5944 -0.7633
  961MOL0     H26821   1.996   2.223   1.273 -1.8800 -2.1957 -0.1481
  961MOL0     H26822   1.950   2.440   1.469 -0.9617 -0.7742  0.7584
  961MOL0     H26823   1.979   2.452   1.304 -1.7509 -3.1510 -0.7379
  961MOL0     H26824   2.170   2.509   1.445 -0.4389  1.2672  0.3684
  961MOL0     H26825   2.186   2.341   1.522  1.3596 -2.1866 -2.3945
  961MOL0     H26826   2.230   2.365   1.234  1.5072  0.3083 -0.3566
  961MOL0     H26827   2.288   2.250   1.373  2.7011  0.2255 -1.5420
  961MOL0     H26828   2.419   2.461   1.459  1.6671  0.5344  0.0537
  961MOL0     H26829   2.374   2.525   1.296 -0.3849 -2.7388 -4.5416
  961MOL0     H26830   2.512   2.250   1.310  2.7956 -0.0905  0.8243
  961MOL0     H26831   2.464   2.369   1.182  2.0886 -1.1839 -1.0062
  961MOL0     H26832   2.670   2.426   1.394 -0.0604 -3.0747 -0.2496
  961MOL0     H26833   2.630   2.524   1.253 -1.8376  0.6485  3.4717
  961MOL0     H26834   1.830   1.933   1.523  1.0802  1.5481 -1.2093
  961MOL0     H26835   1.615   1.840   1.616 -1.4927  1.7232 -1.1907
  961MOL0     H26836   1.218   1.964   1.832  1.7605 -0.4079  0.5940
  961MOL0     H26837   0.999   1.887   1.811 -0.8947 -1.2706  1.7126
  961MOL0     H26838   0.960   1.771   1.391  1.2076  0.1384 -0.2379
  961MOL0     H26839   0.947   2.032   1.355 -0.8591 -0.9689  4.4200
  961MOL0     H26840   1.338   2.477   1.141 -0.2682 -0.6040  0.3379
  961MOL0     H26841   1.351   2.705   1.216  0.9293 -0.2535  0.1651
  961MOL0     H26842   1.175   2.779   1.605  3.4080 -1.3816  1.2034
  961MOL0     H26843   1.122   2.915   1.491 -0.8328 -2.8011 -1.6804
  961MOL0     H26844   1.234   3.001   1.695 -2.4791  0.9620 -1.2675
  961MOL0     H26845   1.373   2.909   1.652 -1.7172 -0.2645  3.2482
  961MOL0     H26846   1.399   3.026   1.447 -0.1220 -1.7735  0.0166
  961MOL0     H26847   1.388   3.144   1.585 -1.2303  1.9385 -1.2743
  961MOL0     H26848   1.274   3.242   1.409  0.5681 -1.7355 -3.0080
  961MOL0     H26849   1.161   3.102   1.386 -3.6925 -1.4531  3.0245
  961MOL0     H26850   1.002   3.246   1.754  0.4404 -0.2278  0.4077
  961MOL0     H26851   1.088   2.620   1.550  1.5435  3.2042 -1.7292
  961MOL0     H26852   1.070   2.390   1.460  2.2371 -0.8056  1.5515
  962MOL0     O26853   4.483   1.644  10.676  0.6266  0.2375  0.1912
  962MOL0     C26854   4.591   1.648  10.611 -1.0716  0.0500 -1.1116
  962MOL0     O26855   4.710   1.596  10.661  0.1940  0.1861 -0.2792
  962MOL0     C26856   4.713   1.536  10.786  0.3035 -0.8289 -0.0375
  962MOL0     C26857   4.803   1.591  10.882 -0.5229 -0.2787 -0.6385
  962MOL0     C26858   4.795   1.549  11.013 -0.2553  0.7929 -0.1521
  962MOL0     C26859   4.699   1.458  11.058  0.7545 -0.1345 -0.0062
  962MOL0     O26860   4.700   1.433  11.198  0.0362 -0.6193 -0.6208
  962MOL0     C26861   4.642   1.307  11.244  0.2068  0.0883  0.1205
  962MOL0     C26862   4.642   1.294  11.393 -0.4504  0.0827 -1.1092
  962MOL0     C26863   4.543   1.182  11.434 -0.5127 -0.2623 -0.0401
  962MOL0     C26864   4.569   1.044  11.374 -1.1431  0.3971  0.2900
  962MOL0     C26865   4.696   0.987  11.427  0.2684 -0.1423 -0.1366
  962MOL0     C26866   4.726   0.849  11.374 -0.1999  0.1444 -0.6247
  962MOL0     C26867   4.854   0.789  11.442 -0.3188  0.3616 -0.1311
  962MOL0     C26868   4.980   0.807  11.360  0.3167  0.4591 -0.8307
  962MOL0     N26869   5.101   0.785  11.440 -0.0500  0.3624  0.0119
  962MOL0     C26870   5.144   0.888  11.509 -0.0958 -0.2692 -0.7799
  962MOL0     C26871   5.253   0.834  11.571  0.1960 -0.1068  0.0837
  962MOL0     C26872   5.342   0.913  11.663  0.2788  0.4888 -0.7899
  962MOL0     C26873   5.494   0.892  11.646 -0.2293 -0.7812  0.1131
  962MOL0     C26874   5.575   0.968  11.759  0.5177  0.4010  0.5050
  962MOL0     C26875   5.526   1.119  11.775  0.9251 -1.2484  0.3333
  962MOL0     O26876   5.617   1.194  11.867  0.6514  0.5253  0.3574
  962MOL0     C26877   5.583   1.325  11.887  0.8811  0.0171  0.1343
  962MOL0     C26878   5.548   1.372  12.019 -0.1127  0.3053 -0.2647
  962MOL0     C26879   5.513   1.508  12.037  1.2313 -0.4092 -0.6916
  962MOL0     C26880   5.511   1.603  11.940 -0.2116 -0.4043 -0.0998
  962MOL0     C26881   5.475   1.749  11.971 -0.3947  0.3471  0.7967
  962MOL0     O26882   5.474   1.836  11.866 -0.2133 -0.0197 -0.0105
  962MOL0     C26883   5.438   1.968  11.902 -0.6260 -0.6973 -0.4957
  962MOL0     C26884   5.312   2.025  11.865 -0.5183 -0.3192  0.1072
  962MOL0     C26885   5.278   2.160  11.887 -0.5749 -0.2976  0.7369
  962MOL0     C26886   5.368   2.247  11.940 -0.9233 -0.0939 -1.0247
  962MOL0     O26887   5.333   2.383  11.962  0.1140 -0.5486 -0.4108
  962MOL0     C26888   5.434   2.485  12.003 -0.1557  0.8836  1.2117
  962MOL0     C26889   5.523   2.518  11.878  0.8112 -0.2365  0.6932
  962MOL0     C26890   5.573   2.669  11.891  0.1917 -0.3103  0.3675
  962MOL0     C26891   5.658   2.714  11.773  0.6524 -0.0841  0.2116
  962MOL0     C26892   5.726   2.854  11.791 -0.1536  0.0261 -0.0953
  962MOL0     C26893   5.774   2.885  11.933 -0.5841  0.7484 -0.4784
  962MOL0     C26894   5.878   2.793  11.999 -1.0416  0.4630  0.7114
  962MOL0     C26895   5.894   2.804  12.144 -0.9372 -0.3938  0.2399
  962MOL0    Cl26896   5.753   2.739  12.221  0.3188  0.0815  0.5191
  962MOL0     C26897   5.496   2.192  11.983 -0.4456  0.9767  1.1630
  962MOL0     C26898   5.536   2.053  11.964  0.2034 -1.0636 -0.1300
  962MOL0     O26899   5.450   1.768  12.089 -0.1675  0.0816 -0.7086
  962MOL0     C26900   5.542   1.553  11.813  0.4776 -0.4420  0.3424
  962MOL0     C26901   5.569   1.420  11.781 -0.9836 -0.1177  0.1413
  962MOL0     N26902   5.272   0.702  11.524 -0.4774 -0.2073 -0.7009
  962MOL0     N26903   5.167   0.667  11.455  0.1359 -0.7023 -0.6560
  962MOL0     C26904   4.615   1.395  10.960  0.6298 -0.4169 -0.0862
  962MOL0     C26905   4.623   1.431  10.825 -0.1213  0.2138  0.5843
  962MOL0     C26906   4.587   1.721  10.488  0.4155  0.6820 -0.4660
  962MOL0     C26907   4.679   1.709  10.383 -0.1056 -0.5822 -0.4657
  962MOL0     C26908   4.670   1.788  10.265  0.0591  0.3849  0.4251
  962MOL0     C26909   4.563   1.872  10.251 -0.8192  0.3370 -0.0032
  962MOL0     O26910   4.536   1.952  10.140  0.4283 -0.5847 -0.0396
  962MOL0     C26911   4.624   1.943  10.021 -0.4294 -0.5501 -0.6496
  962MOL0     C26912   4.545   2.009   9.902 -0.4063  0.4886 -0.4260
  962MOL0     C26913   4.615   2.002   9.767  0.1021  1.1520  0.5001
  962MOL0     C26914   4.642   1.868   9.701  0.6629 -0.3818  0.6952
  962MOL0     C26915   4.690   1.861   9.564  0.3663  0.0053  1.1393
  962MOL0     C26916   4.725   1.856   9.449  0.9636  0.0243 -0.5249
  962MOL0     C26917   4.467   1.873  10.345  0.5074  0.0787  0.3673
  962MOL0     C26918   4.473   1.795  10.456 -0.5836 -0.1120 -0.1678
  962MOL0     H26919   4.870   1.676  10.869 -1.7776  0.7078 -0.8490
  962MOL0     H26920   4.859   1.596  11.087 -0.0687 -0.1842  0.3158
  962MOL0     H26921   4.705   1.228  11.202  0.8497  1.5861 -1.8394
  962MOL0     H26922   4.537   1.303  11.214 -0.6003  0.6731  2.5934
  962MOL0     H26923   4.603   1.383  11.442  3.6148  2.4819 -1.7855
  962MOL0     H26924   4.747   1.282  11.422 -0.0423  2.6037 -1.3158
  962MOL0     H26925   4.438   1.204  11.413 -0.5188  0.2050  0.4602
  962MOL0     H26926   4.557   1.171  11.542 -1.6816  0.4523  0.1977
  962MOL0     H26927   4.484   0.976  11.376 -1.3286  0.3682 -2.8230
  962MOL0     H26928   4.587   1.055  11.266  1.4327 -0.9102  0.5239
  962MOL0     H26929   4.686   0.989  11.536  0.3021  2.0712 -0.1254
  962MOL0     H26930   4.781   1.047  11.394 -0.8976  1.5165 -0.2480
  962MOL0     H26931   4.739   0.852  11.266 -0.7522  1.8151 -0.6793
  962MOL0     H26932   4.636   0.792  11.400  1.4415 -1.6790  1.4679
  962MOL0     H26933   4.865   0.849  11.533 -1.5688  0.6598 -0.1599
  962MOL0     H26934   4.846   0.688  11.482 -1.7491  1.0385  1.4357
  962MOL0     H26935   4.976   0.905  11.310  0.6065  0.3851 -1.0047
  962MOL0     H26936   4.988   0.736  11.277 -0.4736 -1.3896  0.6148
  962MOL0     H26937   5.091   0.982  11.522  0.7098 -0.0995  2.0688
  962MOL0     H26938   5.329   0.876  11.765 -0.1876 -1.2892 -1.4471
  962MOL0     H26939   5.317   1.019  11.650 -2.4843  0.0174 -0.0981
  962MOL0     H26940   5.520   0.933  11.548 -0.1789 -1.1380 -0.0259
  962MOL0     H26941   5.531   0.789  11.645  3.5163  0.4425 -0.5435
  962MOL0     H26942   5.563   0.907  11.848  1.8200 -3.2464 -1.6133
  962MOL0     H26943   5.680   0.971  11.730 -0.2418  2.5513 -2.5383
  962MOL0     H26944   5.422   1.125  11.808 -0.1664 -1.9681 -2.6003
  962MOL0     H26945   5.525   1.165  11.676  2.1088 -1.6631  0.1084
  962MOL0     H26946   5.544   1.309  12.107 -1.4875 -1.0213 -1.2231
  962MOL0     H26947   5.500   1.542  12.140  2.3033  1.2689 -1.0673
  962MOL0     H26948   5.231   1.963  11.828 -0.7553  1.6220 -2.9601
  962MOL0     H26949   5.180   2.191  11.853  0.0490  0.5714 -0.3336
  962MOL0     H26950   5.497   2.445  12.082  0.2020 -3.3275 -0.8980
  962MOL0     H26951   5.395   2.580  12.040  0.7226  0.9952  1.8793
  962MOL0     H26952   5.459   2.502  11.791 -0.8155  1.9721  1.4063
  962MOL0     H26953   5.610   2.451  11.882  1.2026  0.3127  2.1267
  962MOL0     H26954   5.627   2.677  11.986  1.5731 -2.9567 -0.0849
  962MOL0     H26955   5.498   2.748  11.897  1.6759  1.2821 -0.9584
  962MOL0     H26956   5.731   2.640  11.738  0.4044  0.5940 -1.8492
  962MOL0     H26957   5.596   2.716  11.683  1.4697  2.4112 -0.3571
  962MOL0     H26958   5.653   2.927  11.756  1.0924 -0.0375 -3.0981
  962MOL0     H26959   5.813   2.864  11.725  0.8044 -2.0158  0.7823
  962MOL0     H26960   5.680   2.891  11.990 -0.7096  2.2955 -0.7973
  962MOL0     H26961   5.817   2.985  11.926 -2.4545  1.4756 -2.8920
  962MOL0     H26962   5.856   2.687  11.984 -2.7250  1.0011 -1.0735
  962MOL0     H26963   5.971   2.823  11.949 -0.7379  0.2328  1.1338
  962MOL0     H26964   5.926   2.903  12.176  0.4797 -1.3025  1.8831
  962MOL0     H26965   5.983   2.743  12.165  0.1564  1.1792  0.3648
  962MOL0     H26966   5.571   2.256  12.027  0.7301  2.9205 -3.0706
  962MOL0     H26967   5.629   2.007  11.994 -0.4355 -0.9302  2.2981
  962MOL0     H26968   5.539   1.623  11.730  0.8408  0.9876  1.4789
  962MOL0     H26969   5.592   1.386  11.681 -1.8831 -2.0708  0.5702
  962MOL0     H26970   4.548   1.313  10.984 -0.9246  0.6256 -0.7619
  962MOL0     H26971   4.553   1.387  10.754 -0.8982  0.5633  1.1172
  962MOL0     H26972   4.767   1.645  10.387  1.8830  2.0152  0.6769
  962MOL0     H26973   4.743   1.783  10.186  0.0266  1.0423  0.3454
  962MOL0     H26974   4.643   1.839   9.994  4.0222 -0.0248 -0.2320
  962MOL0     H26975   4.720   1.994  10.035 -0.1368 -0.7546 -1.8658
  962MOL0     H26976   4.450   1.959   9.881  0.1963  0.3537 -3.3330
  962MOL0     H26977   4.526   2.115   9.921  1.1384  0.5086  1.1855
  962MOL0     H26978   4.708   2.058   9.767  1.2154 -0.6075 -0.9604
  962MOL0     H26979   4.552   2.071   9.709 -0.8391  2.5001  2.9399
  962MOL0     H26980   4.719   1.822   9.763 -0.9258 -1.0016  2.3101
  962MOL0     H26981   4.557   1.799   9.706  2.1540 -2.5827 -1.7768
  962MOL0     H26982   4.759   1.836   9.349 -2.0157  0.4258 -1.7158
  962MOL0     H26983   4.384   1.937  10.318  1.8199  0.6059 -2.8701
  962MOL0     H26984   4.395   1.810  10.531  0.1419  1.8184  0.2667
  963MOL0     O26985   5.697   2.088  11.173 -0.0101 -0.8181  0.0052
  963MOL0     C26986   5.611   2.177  11.191 -0.0077  0.2090  0.6734
  963MOL0     O26987   5.592   2.255  11.297 -0.3611 -0.9554  0.3746
  963MOL0     C26988   5.659   2.247  11.413  0.5685 -0.2872  0.0569
  963MOL0     C26989   5.795   2.233  11.435  0.2778  0.2884  0.0018
  963MOL0     C26990   5.842   2.234  11.564  0.1113  0.2517 -0.4644
  963MOL0     C26991   5.760   2.247  11.676  0.4419 -0.3485 -0.7628
  963MOL0     O26992   5.803   2.252  11.800 -0.0251  0.4024  0.1683
  963MOL0     C26993   5.940   2.289  11.822  0.9425 -0.0266 -0.1659
  963MOL0     C26994   5.971   2.279  11.974 -0.6237  0.2343  0.4390
  963MOL0     C26995   5.871   2.349  12.064  0.2950  0.2912  0.3760
  963MOL0     C26996   5.912   2.322  12.214 -0.6871 -0.6067  0.6589
  963MOL0     C26997   6.004   2.439  12.254 -1.0838 -0.2090  0.1742
  963MOL0     C26998   6.008   2.455  12.404  0.6509  0.3514  0.1692
  963MOL0     C26999   6.130   2.537  12.450  0.3383 -0.4859  0.3623
  963MOL0     C27000   6.256   2.444  12.457 -0.4631  0.0302  0.3197
  963MOL0     N27001   6.349   2.515  12.543  0.8164  0.3041  0.8105
  963MOL0     C27002   6.470   2.579  12.519  0.7265  0.5158 -0.1982
  963MOL0     C27003   6.505   2.609  12.644 -0.2071  0.7827 -0.6977
  963MOL0     C27004   6.638   2.670  12.695  0.1824  0.0715 -0.9425
  963MOL0     C27005   6.761   2.607  12.623 -0.6800  0.5899  0.2246
  963MOL0     C27006   6.799   2.716  12.512  0.6244  0.6438 -0.0220
  963MOL0     C27007   6.904   2.660  12.419  0.3494 -0.4879 -0.2426
  963MOL0     O27008   6.861   2.540  12.356  0.2810  0.1966 -0.1308
  963MOL0     C27009   6.756   2.534  12.274 -0.1747  0.1658 -0.3505
  963MOL0     C27010   6.704   2.411  12.256  0.3287 -1.1745 -1.0175
  963MOL0     C27011   6.598   2.385  12.183  0.5087 -0.7080 -0.8948
  963MOL0     C27012   6.534   2.496  12.115 -0.2624 -0.0862  0.0263
  963MOL0     C27013   6.413   2.476  12.033  0.4939  0.0470  0.1012
  963MOL0     O27014   6.381   2.567  11.934 -0.5453 -0.3797 -1.0185
  963MOL0     C27015   6.287   2.562  11.832  0.0175 -0.2352  0.7116
  963MOL0     C27016   6.227   2.674  11.790  1.2356 -0.1517 -0.7382
  963MOL0     C27017   6.138   2.676  11.685 -0.3879  0.0005  0.2475
  963MOL0     C27018   6.130   2.561  11.609 -0.2110 -0.0257  0.1200
  963MOL0     O27019   6.042   2.539  11.506 -0.1309 -0.3831  0.2087
  963MOL0     C27020   5.954   2.647  11.465  0.5272  0.0204 -1.5494
  963MOL0     C27021   5.855   2.605  11.346  0.1885  0.8829 -1.0205
  963MOL0     C27022   5.946   2.531  11.252  0.0278 -0.5573  0.4016
  963MOL0     C27023   5.884   2.528  11.115 -0.0630 -0.7236  0.0676
  963MOL0     C27024   5.973   2.475  10.999  0.3030 -0.0476 -0.3403
  963MOL0     C27025   5.980   2.328  11.004  1.2037 -1.2796 -0.2890
  963MOL0     C27026   6.084   2.274  10.919 -0.3862  0.7071 -0.0371
  963MOL0     C27027   6.092   2.115  10.945 -0.0323  0.3913  1.4112
  963MOL0    Cl27028   6.246   2.051  10.889 -0.0181  0.1268 -0.7638
  963MOL0     C27029   6.198   2.443  11.644  0.1989  0.8385  0.5475
  963MOL0     C27030   6.286   2.448  11.755  0.7793  0.1365  0.5888
  963MOL0     O27031   6.344   2.377  12.059 -0.8914  0.5969 -0.7842
  963MOL0     C27032   6.584   2.627  12.133 -0.0584 -0.5124 -0.2626
  963MOL0     C27033   6.697   2.649  12.216 -0.0583  0.0406  0.3328
  963MOL0     N27034   6.409   2.570  12.738 -0.0558  0.1270  0.0444
  963MOL0     N27035   6.328   2.503  12.674 -0.0303  0.3157 -0.5493
  963MOL0     C27036   5.630   2.254  11.658  0.8354 -0.3069  0.0488
  963MOL0     C27037   5.583   2.266  11.529  0.3523 -0.7139 -0.3399
  963MOL0     C27038   5.530   2.204  11.071  0.2164  0.7548 -1.1175
  963MOL0     C27039   5.420   2.289  11.083  1.0689  1.8490  0.6118
  963MOL0     C27040   5.337   2.308  10.976  0.2118 -0.3809 -0.5188
  963MOL0     C27041   5.355   2.246  10.852 -1.5863  0.1833 -0.0266
  963MOL0     O27042   5.286   2.288  10.745  0.9392  0.1471  0.3731
  963MOL0     C27043   5.357   2.281  10.626 -0.3463  0.2570  0.1558
  963MOL0     C27044   5.268   2.303  10.498  0.0261 -0.5673  0.1285
  963MOL0     C27045   5.197   2.436  10.469  0.2707  0.9195  0.6741
  963MOL0     C27046   5.075   2.475  10.557 -0.3613  0.0475 -0.6935
  963MOL0     C27047   5.021   2.610  10.522 -0.0669 -0.1202  0.2642
  963MOL0     C27048   4.997   2.725  10.500  0.4190 -0.2505  0.1835
  963MOL0     C27049   5.466   2.153  10.848 -0.6248  0.1690 -0.9528
  963MOL0     C27050   5.553   2.130  10.955  0.0213  0.3221  0.4202
  963MOL0     H27051   5.851   2.222  11.343 -1.6317 -0.2729 -1.1593
  963MOL0     H27052   5.950   2.228  11.567  0.0812 -0.9565 -0.9702
  963MOL0     H27053   5.951   2.393  11.792  2.7945 -0.4613 -1.1578
  963MOL0     H27054   6.003   2.234  11.751  1.7075  4.1360 -3.0730
  963MOL0     H27055   6.075   2.310  11.984 -1.0778  1.7192  0.8310
  963MOL0     H27056   5.977   2.172  11.995 -0.5720 -0.4905 -2.6832
  963MOL0     H27057   5.771   2.310  12.044 -0.0978  0.4103  1.9393
  963MOL0     H27058   5.879   2.455  12.040 -0.3297  0.2652  0.0377
  963MOL0     H27059   5.822   2.306  12.275 -0.8672 -2.6085 -0.0840
  963MOL0     H27060   5.961   2.225  12.206 -2.1203 -1.1846 -2.6055
  963MOL0     H27061   5.976   2.538  12.216  0.3151  0.0380 -0.2907
  963MOL0     H27062   6.104   2.422  12.213 -0.9234  1.7704 -0.4014
  963MOL0     H27063   6.005   2.358  12.455  3.4780 -0.5812 -1.2259
  963MOL0     H27064   5.924   2.516  12.439 -1.1880 -2.5686  1.2056
  963MOL0     H27065   6.153   2.618  12.380  0.4599  1.1190  2.1607
  963MOL0     H27066   6.113   2.586  12.547 -2.9286 -1.5468  0.4219
  963MOL0     H27067   6.288   2.422  12.354  2.2346 -0.5433  1.1918
  963MOL0     H27068   6.249   2.345  12.504  0.0374  0.7781  2.0274
  963MOL0     H27069   6.514   2.603  12.423  0.3728  0.7740 -0.2993
  963MOL0     H27070   6.655   2.657  12.803  0.7876  0.5489 -0.9760
  963MOL0     H27071   6.624   2.779  12.696 -0.8051 -0.0103  1.2602
  963MOL0     H27072   6.741   2.507  12.584 -0.0134  0.3247  0.5638
  963MOL0     H27073   6.833   2.585  12.702 -0.9044 -0.5747  0.1112
  963MOL0     H27074   6.711   2.745  12.453  0.0682  3.4465  1.9900
  963MOL0     H27075   6.836   2.814  12.544 -0.6008  1.3651 -0.7238
  963MOL0     H27076   6.989   2.648  12.487 -0.9581 -1.4180  1.3004
  963MOL0     H27077   6.933   2.740  12.351 -2.0587  0.7919  0.1255
  963MOL0     H27078   6.749   2.326  12.307  0.5089 -0.5451 -0.0938
  963MOL0     H27079   6.566   2.281  12.181 -2.8508  0.1344  1.0063
  963MOL0     H27080   6.260   2.764  11.842  0.2624  0.7063 -1.5651
  963MOL0     H27081   6.093   2.774  11.681 -1.3655 -0.3032  2.3009
  963MOL0     H27082   6.002   2.740  11.434 -2.5761  1.7974 -1.5132
  963MOL0     H27083   5.889   2.673  11.549  0.2467 -1.0999 -1.4097
  963MOL0     H27084   5.809   2.692  11.299 -2.2841 -0.3489 -1.0437
  963MOL0     H27085   5.774   2.535  11.368  0.5403  0.9563  0.7007
  963MOL0     H27086   5.965   2.424  11.262 -1.2647 -1.1779 -2.6266
  963MOL0     H27087   6.032   2.597  11.235  0.2412 -0.7792  0.6302
  963MOL0     H27088   5.782   2.490  11.110 -0.4362  0.3619 -0.9789
  963MOL0     H27089   5.877   2.634  11.090 -0.9445  0.5204  4.6349
  963MOL0     H27090   6.077   2.510  11.008  0.5715 -1.1280  0.9662
  963MOL0     H27091   5.926   2.507  10.905 -1.5448  1.3361  1.0000
  963MOL0     H27092   5.882   2.288  10.978 -0.1399  0.7995  1.3637
  963MOL0     H27093   5.989   2.295  11.108 -1.6144  1.1318  0.8433
  963MOL0     H27094   6.074   2.301  10.813  1.8496  2.6116  0.1442
  963MOL0     H27095   6.178   2.319  10.955 -0.6375  0.8827  0.4018
  963MOL0     H27096   6.002   2.068  10.905 -1.5443  2.5420  2.0886
  963MOL0     H27097   6.087   2.082  11.049  1.9393 -4.1512  0.3069
  963MOL0     H27098   6.174   2.358  11.582 -1.9805  1.3771  0.5708
  963MOL0     H27099   6.350   2.363  11.775  3.8065  1.7711 -1.4200
  963MOL0     H27100   6.550   2.720  12.089  0.6677 -0.8025 -1.4961
  963MOL0     H27101   6.732   2.752  12.222 -0.0010  0.1330 -1.0745
  963MOL0     H27102   5.558   2.266  11.738 -0.5406 -2.0112 -0.8690
  963MOL0     H27103   5.475   2.271  11.530  0.4011  2.2910 -1.3887
  963MOL0     H27104   5.399   2.334  11.180  0.0797  0.2381  1.1813
  963MOL0     H27105   5.268   2.391  10.983 -0.9311 -1.2537 -0.9328
  963MOL0     H27106   5.416   2.190  10.609 -0.0968  0.3838  0.3294
  963MOL0     H27107   5.443   2.349  10.625  0.2569 -0.4364  1.5324
  963MOL0     H27108   5.342   2.280  10.421  1.3970 -0.9841  1.5160
  963MOL0     H27109   5.197   2.220  10.493  0.5587 -0.9815 -1.1468
  963MOL0     H27110   5.167   2.434  10.364 -2.6034 -1.4815  1.3872
  963MOL0     H27111   5.263   2.521  10.484  0.7448  0.6478  0.1343
  963MOL0     H27112   5.003   2.395  10.542  1.9388 -2.0027 -1.3919
  963MOL0     H27113   5.103   2.475  10.662  2.1354 -1.0428 -1.2763
  963MOL0     H27114   4.971   2.828  10.482  0.5017 -0.4773 -1.3542
  963MOL0     H27115   5.472   2.081  10.767 -0.8744  1.7677 -2.4394
  963MOL0     H27116   5.627   2.052  10.942 -3.1100 -2.4368 -3.1402
  964MOL0     O27117  10.107  10.737   7.868  0.1177  0.1920 -0.3923
  964MOL0     C27118  10.153  10.635   7.918 -1.1686  0.4360 -0.9496
  964MOL0     O27119  10.103  10.506   7.900 -0.5978  0.0414  0.0159
  964MOL0     C27120   9.985  10.473   7.828 -0.6100 -0.8237  0.8339
  964MOL0     C27121   9.923  10.358   7.861 -0.0933 -0.0179  0.2078
  964MOL0     C27122   9.813  10.316   7.789  0.0899 -0.5381  0.1738
  964MOL0     C27123   9.765  10.379   7.677  0.0657 -0.8962 -0.9218
  964MOL0     O27124   9.654  10.363   7.605 -0.1318  1.2470  0.4898
  964MOL0     C27125   9.542  10.290   7.669  0.0032  0.8744 -0.5579
  964MOL0     C27126   9.446  10.255   7.548 -0.9462  0.2758 -0.1875
  964MOL0     C27127   9.495  10.157   7.438  0.3556 -0.2725  0.1815
  964MOL0     C27128   9.494  10.007   7.476  0.0958 -0.7331  0.6216
  964MOL0     C27129   9.508   9.906   7.348  0.6528  0.2564 -0.5572
  964MOL0     C27130   9.378   9.910   7.267 -0.3605  0.2113  0.5754
  964MOL0     C27131   9.395   9.780   7.181 -0.8447  0.1857 -0.2468
  964MOL0     C27132   9.270   9.787   7.084 -0.7052 -0.5257  0.3870
  964MOL0     N27133   9.189   9.671   7.111  0.1936  0.3363  0.7966
  964MOL0     C27134   9.104   9.631   7.207  0.9742  0.5251  0.4128
  964MOL0     C27135   9.024   9.537   7.150 -0.0925  0.3628 -0.0893
  964MOL0     C27136   8.889   9.482   7.202  0.2449 -0.3411  0.4221
  964MOL0     C27137   8.769   9.541   7.133 -0.2283  0.6182 -0.0809
  964MOL0     C27138   8.669   9.424   7.154  0.2489 -0.3987 -0.2568
  964MOL0     C27139   8.527   9.482   7.124 -0.6726  0.7961  0.5193
  964MOL0     O27140   8.451   9.383   7.061  0.0089 -0.4441 -0.9176
  964MOL0     C27141   8.364   9.324   7.155  0.0386 -1.2659  0.0279
  964MOL0     C27142   8.394   9.291   7.291 -0.1527 -0.0579 -0.0287
  964MOL0     C27143   8.292   9.243   7.376 -0.3712 -0.3655 -0.5112
  964MOL0     C27144   8.162   9.229   7.321 -0.8212  0.1415  0.7730
  964MOL0     C27145   8.053   9.200   7.412  0.0016  0.3163  0.3440
  964MOL0     O27146   7.927   9.243   7.372  0.1957 -0.1775  0.2082
  964MOL0     C27147   7.841   9.294   7.470  0.0892 -0.3466  0.0779
  964MOL0     C27148   7.709   9.298   7.431 -0.0305  0.4353  1.0178
  964MOL0     C27149   7.616   9.363   7.514 -1.3961  0.2626 -0.1782
  964MOL0     C27150   7.658   9.417   7.639 -0.5611 -0.2811 -0.0308
  964MOL0     O27151   7.567   9.466   7.736  0.1695  0.5267 -0.8156
  964MOL0     C27152   7.436   9.505   7.682 -0.0513  0.6421 -0.9330
  964MOL0     C27153   7.440   9.632   7.596 -0.3523 -0.0918 -0.5150
  964MOL0     C27154   7.341   9.608   7.489 -0.4931 -0.6610  0.4929
  964MOL0     C27155   7.328   9.740   7.411  0.2283 -0.8097  0.3409
  964MOL0     C27156   7.229   9.724   7.292  1.0047 -1.9291 -0.6451
  964MOL0     C27157   7.095   9.656   7.336 -0.6886  0.8711 -0.0051
  964MOL0     C27158   6.985   9.667   7.221 -0.0004 -0.6948 -0.7420
  964MOL0     C27159   6.931   9.530   7.167  0.4178 -0.6814 -0.0985
  964MOL0    Cl27160   7.060   9.418   7.134 -0.7391  0.0948 -0.3135
  964MOL0     C27161   7.793   9.403   7.684 -0.3534  0.3429  0.1002
  964MOL0     C27162   7.881   9.341   7.592 -1.0676 -0.6084 -0.3450
  964MOL0     O27163   8.077   9.132   7.514 -0.1045  0.3277  0.0112
  964MOL0     C27164   8.129   9.259   7.190  0.6275 -0.1073 -0.6639
  964MOL0     C27165   8.231   9.301   7.107  0.2614 -0.2652  0.2840
  964MOL0     N27166   9.078   9.497   7.034 -0.2886  0.2842  0.6326
  964MOL0     N27167   9.176   9.576   7.011 -0.0976  0.2645  0.2216
  964MOL0     C27168   9.836  10.498   7.644 -0.2971  1.4091  0.6197
  964MOL0     C27169   9.945  10.542   7.709 -0.3642 -0.7694 -0.3395
  964MOL0     C27170  10.278  10.646   7.992 -0.0934  0.6318 -0.5836
  964MOL0     C27171  10.364  10.763   8.000  0.4236 -0.1572  1.2528
  964MOL0     C27172  10.491  10.763   8.046 -0.3598 -0.2743  0.4487
  964MOL0     C27173  10.539  10.648   8.104  0.0167  0.4898 -0.9282
  964MOL0     O27174  10.663  10.626   8.159 -0.1962 -0.2466 -0.8908
  964MOL0     C27175  10.764  10.735   8.160  1.4827  0.6292  0.6305
  964MOL0     C27176  10.822  10.739   8.022  0.4171 -0.3696  0.1883
  964MOL0     C27177  10.965  10.706   8.007  0.7675  0.4841 -0.0284
  964MOL0     C27178  11.021  10.735   7.861  0.6354  0.8664  0.9549
  964MOL0     C27179  11.163  10.744   7.872 -0.2681 -0.0514 -1.0673
  964MOL0     C27180  11.285  10.741   7.903  0.0084 -0.1262 -0.2151
  964MOL0     C27181  10.456  10.533   8.110 -0.5248  0.6524  0.0631
  964MOL0     C27182  10.332  10.535   8.053  0.2819  0.1317 -0.1237
  964MOL0     H27183   9.985  10.309   7.936  0.2458 -0.9934 -0.6868
  964MOL0     H27184   9.776  10.215   7.805 -0.4674 -0.7760 -2.3375
  964MOL0     H27185   9.489  10.353   7.741 -5.2864 -1.7669 -1.6105
  964MOL0     H27186   9.564  10.199   7.727 -0.6212  2.4784  2.4129
  964MOL0     H27187   9.426  10.349   7.496 -2.7969 -0.3280 -0.6354
  964MOL0     H27188   9.353  10.217   7.591 -0.9982  1.5056  0.8810
  964MOL0     H27189   9.591  10.204   7.412 -1.3716  3.2742 -0.3565
  964MOL0     H27190   9.433  10.172   7.350 -1.3702  0.6206  1.4717
  964MOL0     H27191   9.577  10.000   7.546  2.0569  0.9918 -1.3988
  964MOL0     H27192   9.398   9.997   7.528 -1.1533 -0.1974 -1.4154
  964MOL0     H27193   9.528   9.814   7.403  1.9147  0.4177 -0.7206
  964MOL0     H27194   9.596   9.918   7.284 -0.5201  0.6101 -2.1581
  964MOL0     H27195   9.371  10.006   7.215 -0.7193  0.6875  1.4945
  964MOL0     H27196   9.293   9.903   7.334 -0.2269  2.0065  0.9793
  964MOL0     H27197   9.484   9.782   7.118  0.0834 -1.1361  0.9700
  964MOL0     H27198   9.401   9.693   7.247 -0.2368 -1.3942 -2.2682
  964MOL0     H27199   9.311   9.798   6.983  2.3290  0.9364  1.6622
  964MOL0     H27200   9.206   9.874   7.101  0.6115  0.4454  0.5501
  964MOL0     H27201   9.093   9.676   7.305  3.8428 -0.9374  1.5218
  964MOL0     H27202   8.868   9.502   7.307 -3.2291  0.0143 -0.2080
  964MOL0     H27203   8.899   9.374   7.192 -0.2422 -0.2421 -1.8631
  964MOL0     H27204   8.792   9.565   7.029  0.2878 -2.4074 -0.7613
  964MOL0     H27205   8.738   9.634   7.182 -0.0063 -0.4828  2.3014
  964MOL0     H27206   8.689   9.353   7.073  0.0384  0.8212 -1.4044
  964MOL0     H27207   8.677   9.374   7.251 -3.5861  0.6010  0.7304
  964MOL0     H27208   8.536   9.567   7.057  0.7896 -1.9723 -3.1469
  964MOL0     H27209   8.493   9.522   7.220 -0.0539  1.6863  0.3807
  964MOL0     H27210   8.485   9.310   7.347 -2.2487 -0.5789  3.9057
  964MOL0     H27211   8.293   9.241   7.484 -0.6123  1.2607 -0.4506
  964MOL0     H27212   7.697   9.242   7.339  1.2253  0.4232  0.8529
  964MOL0     H27213   7.511   9.346   7.494 -2.1959  0.3689  3.2501
  964MOL0     H27214   7.369   9.511   7.769 -2.3058 -1.0759 -2.4354
  964MOL0     H27215   7.384   9.429   7.623  1.5320 -0.5816 -0.8040
  964MOL0     H27216   7.544   9.656   7.569  0.8296 -0.8891  2.8822
  964MOL0     H27217   7.395   9.714   7.652  0.0881  1.0127 -1.7077
  964MOL0     H27218   7.245   9.582   7.535 -0.4202  0.6650  1.4574
  964MOL0     H27219   7.364   9.524   7.424 -2.2334  0.2482 -1.4215
  964MOL0     H27220   7.290   9.816   7.481 -0.1924 -1.1557  0.4979
  964MOL0     H27221   7.419   9.775   7.364 -1.3126  1.5495 -1.0801
  964MOL0     H27222   7.290   9.671   7.218  3.2808  1.0772 -1.1400
  964MOL0     H27223   7.201   9.823   7.254  1.8025 -1.0664  0.9120
  964MOL0     H27224   7.049   9.697   7.426  1.1028  1.9227  0.4741
  964MOL0     H27225   7.110   9.549   7.354  1.8742  1.0088 -0.8446
  964MOL0     H27226   6.900   9.725   7.258  0.9097  0.2567 -0.0750
  964MOL0     H27227   7.025   9.716   7.131 -0.6154  0.4863 -0.3795
  964MOL0     H27228   6.874   9.555   7.077  2.6821 -0.1056 -1.4436
  964MOL0     H27229   6.870   9.480   7.243  0.0852  0.2541  0.2639
  964MOL0     H27230   7.812   9.439   7.784  0.9304  0.0070 -0.0059
  964MOL0     H27231   7.987   9.354   7.610 -1.1450 -1.6394  1.0251
  964MOL0     H27232   8.032   9.261   7.141  1.0449 -2.0223 -1.6477
  964MOL0     H27233   8.210   9.340   7.008  2.0057  1.3387  0.4896
  964MOL0     H27234   9.792  10.544   7.556  0.7231 -2.4062 -2.1452
  964MOL0     H27235   9.997  10.629   7.672 -1.4023  0.7178  1.4876
  964MOL0     H27236  10.325  10.856   7.960  1.3638 -0.2669  0.0091
  964MOL0     H27237  10.552  10.852   8.050  0.3007 -0.7332  0.8970
  964MOL0     H27238  10.834  10.692   8.232 -0.6859 -2.4486  1.1343
  964MOL0     H27239  10.725  10.831   8.194  2.4274  1.4450 -0.5092
  964MOL0     H27240  10.766  10.677   7.951 -1.0192  0.2332  0.7596
  964MOL0     H27241  10.810  10.836   7.974  3.5813 -1.8915 -4.2829
  964MOL0     H27242  10.968  10.597   8.013  1.4664  0.3127 -2.5866
  964MOL0     H27243  11.018  10.752   8.091  1.5266 -1.9349  0.8998
  964MOL0     H27244  11.006  10.657   7.785  4.2162 -0.4354  1.4099
  964MOL0     H27245  10.977  10.829   7.826 -1.3860  0.1486  1.4035
  964MOL0     H27246  11.386  10.742   7.940  0.3817  3.3476 -0.9926
  964MOL0     H27247  10.486  10.435   8.146 -3.4703  0.5029  2.4592
  964MOL0     H27248  10.288  10.437   8.063 -1.6642  0.9106 -0.5455
  965MOL0     O27249   2.770   3.871   9.276 -0.0757  0.4527  1.1389
  965MOL0     C27250   2.864   3.790   9.261 -0.1726 -1.1116 -1.2669
  965MOL0     O27251   2.879   3.699   9.156 -0.4304 -0.7237  0.5983
  965MOL0     C27252   2.774   3.665   9.071  0.5465 -0.1251  0.7267
  965MOL0     C27253   2.775   3.539   9.003  0.3338 -0.8716  0.3467
  965MOL0     C27254   2.669   3.512   8.911  0.6667  1.6097  0.4204
  965MOL0     C27255   2.563   3.606   8.883 -0.2342  0.6468 -0.2019
  965MOL0     O27256   2.454   3.593   8.801  0.4427 -0.1858 -0.7499
  965MOL0     C27257   2.491   3.539   8.674 -0.2660  0.7662 -0.1508
  965MOL0     C27258   2.398   3.592   8.559  0.0293 -0.8206 -0.2642
  965MOL0     C27259   2.399   3.748   8.554 -0.2319 -0.2911 -1.0951
  965MOL0     C27260   2.323   3.792   8.438  0.3828 -0.3062 -0.2080
  965MOL0     C27261   2.169   3.795   8.462  0.0644 -0.1179  0.0109
  965MOL0     C27262   2.106   3.824   8.320  0.3762  0.3965 -0.0776
  965MOL0     C27263   2.104   3.715   8.213  1.2358  0.0616 -0.0581
  965MOL0     C27264   2.044   3.579   8.270 -0.2660 -0.9410  0.2683
  965MOL0     N27265   1.900   3.592   8.300 -0.2772  0.2891 -0.0672
  965MOL0     C27266   1.843   3.657   8.410 -0.9626 -0.0662 -1.0101
  965MOL0     C27267   1.709   3.618   8.414 -1.0482 -0.0420 -0.2602
  965MOL0     C27268   1.625   3.636   8.544  0.0814 -0.3586  1.5810
  965MOL0     C27269   1.609   3.510   8.631 -0.8365 -0.5035  0.0527
  965MOL0     C27270   1.533   3.554   8.764  0.3107  0.2480  0.2986
  965MOL0     C27271   1.501   3.435   8.860  0.4131  0.4550 -0.4367
  965MOL0     O27272   1.602   3.341   8.874  0.2541  0.0818  0.7523
  965MOL0     C27273   1.709   3.365   8.966  0.6824 -0.2161 -0.6883
  965MOL0     C27274   1.823   3.284   8.942  0.2264  0.1507 -1.1300
  965MOL0     C27275   1.942   3.296   9.018  0.5010  0.1578  0.8104
  965MOL0     C27276   1.936   3.385   9.129 -0.8076  0.5812  0.2853
  965MOL0     C27277   2.050   3.399   9.228  0.9500 -0.5298 -0.9421
  965MOL0     O27278   2.167   3.349   9.191  0.5206  0.4061  0.3037
  965MOL0     C27279   2.272   3.382   9.270 -0.8995 -0.5399 -0.1182
  965MOL0     C27280   2.285   3.307   9.390 -1.0415  0.1616 -0.0365
  965MOL0     C27281   2.396   3.323   9.473 -0.3181 -0.2194  0.4108
  965MOL0     C27282   2.503   3.409   9.438  0.2233 -0.1062 -0.0077
  965MOL0     O27283   2.611   3.404   9.524  0.2483  0.5266 -0.6129
  965MOL0     C27284   2.724   3.484   9.512  0.5698 -0.3939  0.0222
  965MOL0     C27285   2.826   3.424   9.612  0.5098 -0.4927 -1.2260
  965MOL0     C27286   2.955   3.511   9.625 -0.0392 -0.4987  0.2088
  965MOL0     C27287   3.056   3.442   9.713 -0.2690 -0.6962 -0.2276
  965MOL0     C27288   3.181   3.541   9.705 -0.1969  0.3375  0.1386
  965MOL0     C27289   3.300   3.501   9.804  0.3206 -0.6680  0.1289
  965MOL0     C27290   3.372   3.378   9.758  0.1823  1.1077  0.8567
  965MOL0     C27291   3.505   3.365   9.824  0.2477  0.1779 -0.0405
  965MOL0    Cl27292   3.494   3.371  10.001  0.2566  0.2596 -0.1585
  965MOL0     C27293   2.492   3.486   9.318 -0.4859  0.5786 -0.0607
  965MOL0     C27294   2.382   3.473   9.237  0.9293  0.8282  0.2104
  965MOL0     O27295   2.037   3.479   9.318 -0.2485 -0.0358  0.4040
  965MOL0     C27296   1.828   3.470   9.136 -0.2864  0.4522 -0.1797
  965MOL0     C27297   1.709   3.455   9.069 -0.7047 -0.1302 -0.4117
  965MOL0     N27298   1.689   3.533   8.307  0.0041 -0.5386  0.0715
  965MOL0     N27299   1.803   3.513   8.247  0.4712 -0.8303  0.4655
  965MOL0     C27300   2.574   3.724   8.948 -0.3696  0.0091 -0.3614
  965MOL0     C27301   2.674   3.751   9.039 -0.2781  0.1544 -0.8274
  965MOL0     C27302   2.969   3.814   9.361 -0.1485 -0.4784  0.4014
  965MOL0     C27303   2.939   3.866   9.482 -0.7844  0.7100  0.1573
  965MOL0     C27304   3.047   3.894   9.572 -0.6723 -0.0596  0.0933
  965MOL0     C27305   3.186   3.855   9.542  0.0647  0.1373 -0.5378
  965MOL0     O27306   3.298   3.892   9.604 -0.3204  0.0776 -0.0118
  965MOL0     C27307   3.286   3.952   9.733 -0.5922 -1.4623  0.3029
  965MOL0     C27308   3.402   4.031   9.778 -0.9892  0.3037  0.0475
  965MOL0     C27309   3.537   3.962   9.734 -0.0040  0.4059 -0.2846
  965MOL0     C27310   3.646   4.005   9.830 -0.4274  0.0314  1.6151
  965MOL0     C27311   3.760   3.923   9.804 -0.2744 -0.0861 -0.2448
  965MOL0     C27312   3.873   3.881   9.761  1.3722  0.5152  1.3071
  965MOL0     C27313   3.205   3.796   9.419  0.9040 -0.1669  0.4083
  965MOL0     C27314   3.098   3.758   9.344 -0.0355 -0.9528  0.0431
  965MOL0     H27315   2.847   3.459   9.011  1.5216 -0.0620 -1.5310
  965MOL0     H27316   2.674   3.421   8.852  5.4406 -0.1348  2.9889
  965MOL0     H27317   2.482   3.430   8.684  3.0562  0.2379 -1.5951
  965MOL0     H27318   2.598   3.539   8.653  0.2096 -2.6961  1.4070
  965MOL0     H27319   2.299   3.548   8.575  0.2053 -1.1321 -0.0239
  965MOL0     H27320   2.440   3.554   8.465  0.3441  0.0850 -0.4969
  965MOL0     H27321   2.505   3.775   8.549  0.3318 -0.5743  4.0140
  965MOL0     H27322   2.366   3.792   8.649  2.9534 -1.5799  0.7548
  965MOL0     H27323   2.364   3.890   8.412  2.3623 -0.1590  2.9495
  965MOL0     H27324   2.341   3.724   8.354 -0.6657 -0.6162 -0.2002
  965MOL0     H27325   2.146   3.882   8.525  0.2429  1.2610 -1.7367
  965MOL0     H27326   2.124   3.705   8.504 -2.8774  1.1689 -0.0854
  965MOL0     H27327   2.147   3.919   8.285 -0.4237  0.5979 -0.4895
  965MOL0     H27328   2.010   3.868   8.347  0.1744 -1.3932  2.4662
  965MOL0     H27329   2.036   3.751   8.135 -0.9464 -0.9432  1.2600
  965MOL0     H27330   2.201   3.705   8.163  2.2791  2.4804  1.3396
  965MOL0     H27331   2.110   3.557   8.355 -1.0088  0.5850  1.2693
  965MOL0     H27332   2.060   3.498   8.198  1.7768  2.1158 -3.0247
  965MOL0     H27333   1.891   3.707   8.494  0.1797 -0.0919 -1.6170
  965MOL0     H27334   1.530   3.680   8.512  0.3719 -0.5811  0.3430
  965MOL0     H27335   1.691   3.706   8.596  0.9586  2.0565 -2.3428
  965MOL0     H27336   1.705   3.469   8.662 -0.3903  2.0063  2.3867
  965MOL0     H27337   1.539   3.440   8.585 -1.2516 -0.1828  0.1871
  965MOL0     H27338   1.604   3.615   8.821 -2.9323  2.3170  2.4453
  965MOL0     H27339   1.441   3.608   8.743 -0.2165 -0.4879  0.6956
  965MOL0     H27340   1.404   3.396   8.826  0.6077  0.7699 -1.3898
  965MOL0     H27341   1.481   3.471   8.961  1.5688 -0.1311  0.0185
  965MOL0     H27342   1.815   3.210   8.862  2.1023 -1.6563  0.2367
  965MOL0     H27343   2.027   3.233   8.994 -0.0662 -0.1830 -0.3145
  965MOL0     H27344   2.210   3.234   9.419  1.0205 -1.0558  2.7887
  965MOL0     H27345   2.393   3.267   9.566  1.6007  0.2258  0.7786
  965MOL0     H27346   2.685   3.584   9.532 -2.4161 -1.4190 -0.2174
  965MOL0     H27347   2.765   3.487   9.410 -3.0839 -1.7836 -1.6558
  965MOL0     H27348   2.853   3.321   9.586 -1.8971 -1.4490 -0.2367
  965MOL0     H27349   2.774   3.408   9.707  0.3307 -0.0416 -1.2473
  965MOL0     H27350   2.919   3.606   9.666 -0.3448  0.3777 -1.9918
  965MOL0     H27351   2.992   3.527   9.523  1.9489  2.4549  1.2708
  965MOL0     H27352   3.017   3.441   9.816  2.0046  1.5483  0.7696
  965MOL0     H27353   3.064   3.342   9.669 -1.3243  0.0668 -2.2817
  965MOL0     H27354   3.147   3.643   9.723  1.5328  1.3536 -1.8943
  965MOL0     H27355   3.231   3.548   9.608  2.9465  2.1151  1.7401
  965MOL0     H27356   3.256   3.499   9.904 -2.7218  5.7342 -0.5284
  965MOL0     H27357   3.373   3.582   9.804  0.8268 -1.0443 -2.1662
  965MOL0     H27358   3.324   3.282   9.781  3.1626 -0.9932 -1.0183
  965MOL0     H27359   3.385   3.388   9.650 -3.0532 -1.8681 -0.0036
  965MOL0     H27360   3.578   3.430   9.775  1.1622 -1.4257 -0.9062
  965MOL0     H27361   3.561   3.273   9.801  4.3444  3.0423 -3.1013
  965MOL0     H27362   2.577   3.549   9.294  0.5912 -0.9762 -0.5184
  965MOL0     H27363   2.379   3.520   9.139 -0.0943  2.8391  1.1511
  965MOL0     H27364   1.846   3.556   9.201  1.5210  3.2246 -3.9727
  965MOL0     H27365   1.625   3.516   9.101 -0.9418 -1.5089  1.8562
  965MOL0     H27366   2.503   3.799   8.916 -1.4513 -0.5377  0.6897
  965MOL0     H27367   2.678   3.851   9.081 -0.8866 -0.2836  0.2860
  965MOL0     H27368   2.842   3.902   9.513 -0.7911 -1.1505  2.6103
  965MOL0     H27369   3.027   3.950   9.662  1.0656  2.2916 -0.8725
  965MOL0     H27370   3.300   3.862   9.792 -1.5743 -2.0113 -0.2776
  965MOL0     H27371   3.192   4.007   9.743 -0.1782 -0.7599  0.4311
  965MOL0     H27372   3.400   4.135   9.742 -3.0495  0.0981 -0.6277
  965MOL0     H27373   3.391   4.037   9.886  0.4563  0.2861  0.2123
  965MOL0     H27374   3.565   4.002   9.636  2.6332 -0.9038 -0.1561
  965MOL0     H27375   3.527   3.853   9.734  2.9131 -0.1183  3.6412
  965MOL0     H27376   3.679   4.108   9.808 -2.3775  0.3463 -0.2309
  965MOL0     H27377   3.617   3.986   9.933  0.1643  0.4173  1.8563
  965MOL0     H27378   3.964   3.833   9.730  0.4054 -0.2049 -0.5709
  965MOL0     H27379   3.300   3.791   9.368  1.7702  0.0178  1.9563
  965MOL0     H27380   3.126   3.724   9.245 -1.1720  3.1475 -1.9178
  966MOL0     O27381   3.316   9.961   3.961  0.5000  0.1397 -0.1008
  966MOL0     C27382   3.256  10.059   3.996  0.6824 -0.8115 -0.6624
  966MOL0     O27383   3.113  10.073   4.018  0.0727  0.8535  0.2817
  966MOL0     C27384   3.035   9.965   4.007  0.9710 -0.3048 -0.1511
  966MOL0     C27385   3.055   9.841   3.942 -0.2963  0.0723 -0.2597
  966MOL0     C27386   2.951   9.752   3.938 -0.3805  0.4958 -0.4039
  966MOL0     C27387   2.822   9.782   3.993  0.5400  0.2974  1.1005
  966MOL0     O27388   2.724   9.686   4.005  0.5640  0.0597 -0.5321
  966MOL0     C27389   2.708   9.582   3.905 -0.0323  0.0176 -0.0768
  966MOL0     C27390   2.568   9.592   3.830 -0.1284  0.5959 -0.4222
  966MOL0     C27391   2.502   9.452   3.819 -0.5522  1.1367  0.3881
  966MOL0     C27392   2.354   9.440   3.767 -1.7248 -0.2906  0.0556
  966MOL0     C27393   2.250   9.413   3.876  0.1733  0.4807  0.5194
  966MOL0     C27394   2.224   9.514   3.980  0.0386  0.2854  0.0397
  966MOL0     C27395   2.110   9.463   4.077  0.7298  0.8051 -0.3007
  966MOL0     C27396   2.155   9.356   4.176 -0.9882 -0.1792 -0.5219
  966MOL0     N27397   2.047   9.296   4.261 -0.4220 -0.1813 -0.9955
  966MOL0     C27398   1.922   9.257   4.211 -0.1293  0.3558  0.2667
  966MOL0     C27399   1.850   9.217   4.320  0.0265 -0.3682 -0.2300
  966MOL0     C27400   1.716   9.151   4.327 -0.4217 -0.1895  0.2398
  966MOL0     C27401   1.626   9.216   4.423 -0.0212 -0.3572  0.0475
  966MOL0     C27402   1.502   9.135   4.457 -0.2006 -0.0820 -0.3777
  966MOL0     C27403   1.423   9.217   4.561 -0.1215 -0.1046  0.4926
  966MOL0     O27404   1.301   9.158   4.603  1.0435  0.3890 -0.1077
  966MOL0     C27405   1.184   9.176   4.531 -0.0559 -0.8366  1.0451
  966MOL0     C27406   1.070   9.135   4.594 -0.8640  0.6359  1.2047
  966MOL0     C27407   0.944   9.143   4.519  0.2564 -0.5944 -0.4373
  966MOL0     C27408   0.934   9.189   4.392 -0.6467 -0.1128  0.0383
  966MOL0     C27409   0.807   9.205   4.318  0.2773 -0.1798 -0.1969
  966MOL0     O27410   0.694   9.163   4.384 -0.4814 -0.2288 -0.4825
  966MOL0     C27411   0.562   9.193   4.350 -0.9577  0.4924  1.0991
  966MOL0     C27412   0.454   9.116   4.405  0.3445 -0.0579 -0.6728
  966MOL0     C27413   0.328   9.152   4.388  0.4357  0.4292  0.0155
  966MOL0     C27414   0.291   9.240   4.288  0.1570 -0.3832 -0.0450
  966MOL0     O27415   0.167   9.283   4.261  0.0150  0.1935  0.3181
  966MOL0     C27416   0.072   9.253   4.358 -0.2314 -0.2611  0.0609
  966MOL0     C27417  -0.060   9.308   4.285 -0.0675 -0.1319 -0.0976
  966MOL0     C27418  -0.137   9.193   4.216 -0.4093  0.3521 -0.2087
  966MOL0     C27419  -0.078   9.164   4.069 -0.0559 -0.1712 -0.3725
  966MOL0     C27420  -0.144   9.067   3.980 -0.4349  0.3089 -0.6740
  966MOL0     C27421  -0.067   9.037   3.858  0.4737 -0.0588  0.5862
  966MOL0     C27422  -0.069   9.137   3.740  0.1436 -0.8738  0.6036
  966MOL0     C27423   0.020   9.096   3.626  0.7326 -0.1788 -0.5606
  966MOL0    Cl27424  -0.041   8.958   3.527  0.0130  0.4209 -0.6508
  966MOL0     C27425   0.389   9.310   4.222 -0.6477  0.2328  0.0048
  966MOL0     C27426   0.523   9.290   4.253 -0.8072 -0.0597 -0.1072
  966MOL0     O27427   0.808   9.239   4.199  0.8123 -0.3435  0.1396
  966MOL0     C27428   1.055   9.219   4.330  0.8777 -0.1450  0.6407
  966MOL0     C27429   1.172   9.224   4.403 -0.1271 -0.0256  0.0718
  966MOL0     N27430   1.933   9.244   4.431  0.1444 -0.1719 -0.4424
  966MOL0     N27431   2.045   9.294   4.396 -0.2772  0.7449 -0.1536
  966MOL0     C27432   2.810   9.897   4.073 -0.2236  0.4933  0.8476
  966MOL0     C27433   2.908   9.989   4.061  0.5635 -0.7520 -0.4994
  966MOL0     C27434   3.324  10.189   4.009 -0.0872 -1.3055 -0.1678
  966MOL0     C27435   3.461  10.207   3.987 -0.5565  0.8174  0.1542
  966MOL0     C27436   3.533  10.324   3.997  0.9353  0.3186  0.5322
  966MOL0     C27437   3.466  10.439   4.019 -0.0947 -0.1967 -0.2076
  966MOL0     O27438   3.525  10.566   4.030  0.3026 -0.0888  0.2728
  966MOL0     C27439   3.665  10.574   4.069  0.7904 -0.5041  0.5008
  966MOL0     C27440   3.731  10.652   3.960  0.1550 -0.0826  0.3550
  966MOL0     C27441   3.685  10.792   3.927  0.6987  0.1777 -0.1941
  966MOL0     C27442   3.738  10.838   3.798  0.4889  0.7222 -0.3768
  966MOL0     C27443   3.683  10.965   3.741  0.3556 -1.3963 -0.3362
  966MOL0     C27444   3.645  11.068   3.680  0.0940 -0.0245 -0.3986
  966MOL0     C27445   3.323  10.431   4.031 -0.2977 -0.7712 -0.1796
  966MOL0     C27446   3.255  10.311   4.026 -0.0212 -0.6679  0.4089
  966MOL0     H27447   3.145   9.818   3.885 -0.3016  0.6901 -0.5283
  966MOL0     H27448   2.969   9.653   3.896  0.3630  0.6915 -0.5538
  966MOL0     H27449   2.704   9.487   3.959 -0.1012 -1.7452 -2.9652
  966MOL0     H27450   2.790   9.572   3.833 -0.0819 -0.3292 -0.0910
  966MOL0     H27451   2.584   9.643   3.735  0.1706  1.3716  0.0327
  966MOL0     H27452   2.497   9.653   3.886  1.7953  0.8311  1.9105
  966MOL0     H27453   2.504   9.390   3.909  0.1968 -2.8343 -2.0808
  966MOL0     H27454   2.562   9.398   3.745 -0.6844  3.2170 -1.3487
  966MOL0     H27455   2.326   9.536   3.723  0.0078 -0.4320 -1.4209
  966MOL0     H27456   2.345   9.358   3.696  0.1290 -2.9915  2.7198
  966MOL0     H27457   2.290   9.324   3.925 -3.0286 -1.9285 -0.8553
  966MOL0     H27458   2.157   9.381   3.829  0.8224 -2.1392  0.8453
  966MOL0     H27459   2.191   9.610   3.941 -2.3314 -0.0441  1.0304
  966MOL0     H27460   2.319   9.526   4.033 -0.8403 -1.3679  2.1706
  966MOL0     H27461   2.057   9.545   4.127 -1.3783  0.0426 -1.1801
  966MOL0     H27462   2.035   9.413   4.016 -1.8003  2.0610  1.6229
  966MOL0     H27463   2.232   9.405   4.236 -1.1454 -1.2784  0.6033
  966MOL0     H27464   2.210   9.278   4.122  2.1081  0.9027  0.8491
  966MOL0     H27465   1.885   9.255   4.109  0.7060  1.0152 -0.0648
  966MOL0     H27466   1.733   9.050   4.365  1.2581 -1.1756 -2.7939
  966MOL0     H27467   1.668   9.142   4.229 -1.8225 -2.3342  1.0506
  966MOL0     H27468   1.578   9.303   4.379  0.2123  0.6766  1.7350
  966MOL0     H27469   1.677   9.258   4.511 -1.1227  1.6320 -0.2054
  966MOL0     H27470   1.436   9.129   4.370 -0.1276  2.8828 -0.7565
  966MOL0     H27471   1.525   9.040   4.506 -1.9580 -0.1137  0.4550
  966MOL0     H27472   1.404   9.313   4.512  4.0924 -0.7556 -3.0914
  966MOL0     H27473   1.478   9.234   4.654  0.3017  1.4800 -0.0108
  966MOL0     H27474   1.076   9.077   4.685  0.5216 -0.2039  0.6189
  966MOL0     H27475   0.859   9.090   4.561 -0.0618 -1.5905 -2.2419
  966MOL0     H27476   0.465   9.042   4.483 -0.8800  2.8041  2.4956
  966MOL0     H27477   0.248   9.096   4.435 -0.2071 -1.9647 -3.4988
  966MOL0     H27478   0.093   9.304   4.452  2.7261 -0.7256 -0.2534
  966MOL0     H27479   0.049   9.147   4.373 -0.5900 -0.1866  0.0500
  966MOL0     H27480  -0.036   9.379   4.207 -0.3378 -3.1373 -3.1621
  966MOL0     H27481  -0.128   9.353   4.359 -0.7129 -1.2062 -0.0010
  966MOL0     H27482  -0.241   9.222   4.196 -1.2201 -2.4234 -0.4120
  966MOL0     H27483  -0.131   9.102   4.276 -0.3067  0.5207  0.0351
  966MOL0     H27484  -0.080   9.257   4.011  3.4906  0.0622 -0.3257
  966MOL0     H27485   0.024   9.124   4.075 -0.5839 -1.5279 -0.1465
  966MOL0     H27486  -0.241   9.110   3.954 -0.7197  0.2837  0.2979
  966MOL0     H27487  -0.146   8.976   4.041  2.2799  2.9390  3.9416
  966MOL0     H27488  -0.111   8.947   3.814  1.7839  0.2881 -1.5994
  966MOL0     H27489   0.036   9.008   3.883  1.0942 -0.3512 -1.9725
  966MOL0     H27490  -0.173   9.156   3.714 -0.4140 -1.3662  2.3247
  966MOL0     H27491  -0.040   9.236   3.775 -0.3424 -0.0888 -1.0907
  966MOL0     H27492   0.120   9.079   3.667 -1.1751 -2.7433  3.8015
  966MOL0     H27493   0.028   9.182   3.560 -0.3576  1.1454  0.9561
  966MOL0     H27494   0.367   9.396   4.159  3.8648  0.0283 -2.3165
  966MOL0     H27495   0.584   9.363   4.201 -1.0104 -0.0725 -0.3638
  966MOL0     H27496   1.056   9.260   4.230  4.1942 -1.6228 -0.0667
  966MOL0     H27497   1.254   9.259   4.341 -0.9211  0.2584 -0.8355
  966MOL0     H27498   2.709   9.906   4.113 -1.2624 -1.6933 -0.9952
  966MOL0     H27499   2.878  10.087   4.097  2.3648  0.5451 -2.2736
  966MOL0     H27500   3.533  10.131   3.958  0.9106  2.1703  0.1162
  966MOL0     H27501   3.641  10.318   3.987  1.1405 -1.3641  2.9724
  966MOL0     H27502   3.725  10.484   4.088  1.6064 -0.6216 -2.1627
  966MOL0     H27503   3.671  10.634   4.160  4.2774 -0.3024  0.3049
  966MOL0     H27504   3.836  10.668   3.988 -0.4482  3.2859  1.1719
  966MOL0     H27505   3.722  10.587   3.873  0.7188 -0.0821  0.2939
  966MOL0     H27506   3.725  10.861   4.002 -0.0995 -0.0138  0.4196
  966MOL0     H27507   3.576  10.797   3.921  0.5672 -0.3601  1.3807
  966MOL0     H27508   3.846  10.839   3.808  0.5727 -0.6671 -0.8663
  966MOL0     H27509   3.699  10.767   3.724 -0.0039 -1.6176  1.9875
  966MOL0     H27510   3.612  11.150   3.619 -1.9717  0.3793  1.1607
  966MOL0     H27511   3.260  10.516   4.053 -3.3718 -3.3917  2.2311
  966MOL0     H27512   3.149  10.309   4.052  0.0250 -1.3450  0.5489
  967MOL0     O27513   5.611   5.802   8.187 -0.5421  0.0294 -0.5978
  967MOL0     C27514   5.705   5.732   8.226 -0.4343  0.3624  1.1976
  967MOL0     O27515   5.725   5.599   8.191 -0.0143 -0.5982  0.2693
  967MOL0     C27516   5.621   5.544   8.120  0.7167  0.2864 -0.2793
  967MOL0     C27517   5.563   5.428   8.170 -0.6838  0.2676 -0.4571
  967MOL0     C27518   5.469   5.358   8.102 -1.2165  0.0262 -0.1203
  967MOL0     C27519   5.434   5.399   7.971  0.2709  0.5980 -0.7052
  967MOL0     O27520   5.334   5.326   7.914 -0.3878  0.5268  0.5144
  967MOL0     C27521   5.229   5.278   7.988 -0.3913  0.1652  0.2850
  967MOL0     C27522   5.106   5.248   7.900  1.3180  1.0831 -0.6198
  967MOL0     C27523   5.133   5.109   7.834  0.3606  0.3143  0.9736
  967MOL0     C27524   5.009   5.061   7.760  0.1559  0.3984 -0.5156
  967MOL0     C27525   5.020   4.928   7.686  0.1993 -0.4755  0.5991
  967MOL0     C27526   5.121   4.933   7.565 -0.6880 -0.0729  0.2277
  967MOL0     C27527   5.096   4.809   7.480 -1.1446  0.0365  0.0501
  967MOL0     C27528   5.107   4.672   7.570 -0.7900 -0.1477  0.1770
  967MOL0     N27529   5.090   4.562   7.484 -1.0861 -0.3883 -0.2337
  967MOL0     C27530   5.153   4.441   7.511  0.1658  0.6724  0.8333
  967MOL0     C27531   5.081   4.356   7.432  0.6240  0.4880 -0.0652
  967MOL0     C27532   5.100   4.207   7.418 -0.4336 -0.1720 -0.0548
  967MOL0     C27533   5.171   4.172   7.285 -0.0403 -1.3830 -0.6964
  967MOL0     C27534   5.173   4.019   7.264  0.1791  1.0629  0.4037
  967MOL0     C27535   5.220   3.986   7.127  0.7081 -0.0069  0.5156
  967MOL0     O27536   5.356   4.019   7.124 -0.2159 -0.0158  0.1025
  967MOL0     C27537   5.421   4.004   7.002  0.9123 -0.4403 -0.2901
  967MOL0     C27538   5.553   4.040   6.993  0.8878 -0.5490  0.1374
  967MOL0     C27539   5.624   4.028   6.877 -0.0916  0.0184  0.3637
  967MOL0     C27540   5.573   3.973   6.764  0.0066  0.1032  0.0203
  967MOL0     C27541   5.632   3.975   6.635  0.1888 -0.2189 -0.1191
  967MOL0     O27542   5.587   3.890   6.546  0.0631  0.0616 -0.1719
  967MOL0     C27543   5.654   3.871   6.429  1.3756  0.1749 -0.2505
  967MOL0     C27544   5.797   3.854   6.417  0.4162  0.7043  0.0242
  967MOL0     C27545   5.860   3.828   6.296  0.3887 -0.3688  0.3543
  967MOL0     C27546   5.777   3.814   6.180  0.2631  0.0867  0.9205
  967MOL0     O27547   5.818   3.806   6.057 -0.2224  0.3029  0.3620
  967MOL0     C27548   5.759   3.892   5.952  0.2477  0.4873  0.6343
  967MOL0     C27549   5.878   3.957   5.882 -0.2242  0.1892  0.6015
  967MOL0     C27550   5.830   4.055   5.768 -0.0490 -0.6450  0.5441
  967MOL0     C27551   5.945   4.119   5.695 -0.1494  0.0845 -0.4324
  967MOL0     C27552   6.003   4.034   5.573  0.4852 -0.3619  0.6430
  967MOL0     C27553   6.103   4.107   5.487  0.3854 -1.1474 -0.4126
  967MOL0     C27554   6.161   4.021   5.380 -0.2490 -0.1189 -0.2458
  967MOL0     C27555   6.265   4.088   5.288 -0.9726  1.1749 -0.8849
  967MOL0    Cl27556   6.399   4.157   5.387  0.3405 -0.1389  0.2695
  967MOL0     C27557   5.639   3.820   6.194  0.7231 -0.5729  0.4188
  967MOL0     C27558   5.578   3.848   6.317  0.7248 -0.4754  0.5483
  967MOL0     O27559   5.729   4.041   6.624 -0.2184  0.3367 -0.3892
  967MOL0     C27560   5.436   3.938   6.769 -0.5632  0.3620  0.3796
  967MOL0     C27561   5.362   3.949   6.888  0.0454  0.1761 -1.1709
  967MOL0     N27562   4.994   4.432   7.356 -0.3072  0.1794  0.8587
  967MOL0     N27563   4.990   4.555   7.390 -0.3689  0.7273  0.0554
  967MOL0     C27564   5.495   5.514   7.913 -1.0616 -0.5045  0.1620
  967MOL0     C27565   5.585   5.596   7.996  1.4008  0.2627 -0.0454
  967MOL0     C27566   5.820   5.794   8.306 -0.2811  1.5201  0.1672
  967MOL0     C27567   5.818   5.930   8.333 -0.2643 -0.8786 -0.3890
  967MOL0     C27568   5.938   5.989   8.396 -0.0541  0.1497  1.0386
  967MOL0     C27569   6.043   5.911   8.436 -0.1666  0.1196  0.8591
  967MOL0     O27570   6.144   5.951   8.518  0.6554  0.2558 -0.5361
  967MOL0     C27571   6.177   6.092   8.553  0.5862  0.3128  0.8178
  967MOL0     C27572   6.286   6.159   8.471  0.4017 -0.1862  0.1553
  967MOL0     C27573   6.247   6.209   8.330 -0.3455  0.5217 -0.5198
  967MOL0     C27574   6.369   6.255   8.247  0.5186 -0.1780  0.0671
  967MOL0     C27575   6.322   6.270   8.111 -0.5196 -1.1140 -0.0761
  967MOL0     C27576   6.279   6.283   8.000  0.4189 -0.5047 -0.3518
  967MOL0     C27577   6.040   5.776   8.409 -0.2517  0.0448 -0.2977
  967MOL0     C27578   5.927   5.718   8.344 -0.0834  0.2888  0.0266
  967MOL0     H27579   5.601   5.410   8.271  0.2656  1.1951 -0.6258
  967MOL0     H27580   5.426   5.274   8.155 -0.5926 -0.8656 -1.0078
  967MOL0     H27581   5.202   5.362   8.053 -0.1215  1.3747 -1.1024
  967MOL0     H27582   5.266   5.203   8.058  0.8664 -1.1754 -1.7118
  967MOL0     H27583   5.073   5.328   7.834 -3.9540  2.0455  2.5903
  967MOL0     H27584   5.011   5.249   7.955 -0.6494  0.9213 -3.8021
  967MOL0     H27585   5.155   5.036   7.912 -1.2201  0.1816  1.3204
  967MOL0     H27586   5.209   5.122   7.756  0.4234  1.5583  1.2175
  967MOL0     H27587   4.920   5.057   7.823  0.3986  1.4230 -0.0827
  967MOL0     H27588   4.981   5.135   7.684 -1.5980  1.7541  1.3247
  967MOL0     H27589   4.917   4.911   7.650  0.0605 -0.2639  0.8972
  967MOL0     H27590   5.054   4.861   7.765 -2.4269 -1.9441  0.6153
  967MOL0     H27591   5.225   4.939   7.597 -0.2822  2.0356 -1.2979
  967MOL0     H27592   5.103   5.017   7.498  3.4953 -0.0335 -1.1199
  967MOL0     H27593   4.995   4.809   7.438 -1.7571 -2.5229  1.2653
  967MOL0     H27594   5.165   4.810   7.395 -1.2740  1.5699 -0.0595
  967MOL0     H27595   5.037   4.664   7.654 -1.8159  0.6221 -0.5838
  967MOL0     H27596   5.210   4.657   7.605  0.4723  0.8009 -2.8595
  967MOL0     H27597   5.222   4.413   7.590 -1.1142  0.2439  1.8454
  967MOL0     H27598   5.005   4.153   7.429  0.2183 -0.8246  4.1574
  967MOL0     H27599   5.169   4.170   7.495  1.1809  1.5896 -0.5866
  967MOL0     H27600   5.273   4.210   7.278 -0.3883 -0.3584 -0.3348
  967MOL0     H27601   5.103   4.212   7.209  0.7773 -1.9397 -1.7480
  967MOL0     H27602   5.246   3.973   7.331  2.4735  0.9584 -2.0253
  967MOL0     H27603   5.072   3.981   7.280  0.8655 -0.6261  1.0385
  967MOL0     H27604   5.160   4.044   7.056  1.2648 -0.3760 -0.2693
  967MOL0     H27605   5.210   3.884   7.088  1.3590  0.9558 -2.4325
  967MOL0     H27606   5.595   4.066   7.090 -0.2725 -2.9058  1.3781
  967MOL0     H27607   5.727   4.061   6.878  0.8279 -2.6174  0.6690
  967MOL0     H27608   5.858   3.849   6.506  0.9947  1.4368 -0.3138
  967MOL0     H27609   5.967   3.809   6.296  0.6462  0.9646  0.3093
  967MOL0     H27610   5.686   3.969   5.979  0.2473  1.2711 -1.4171
  967MOL0     H27611   5.711   3.820   5.886 -0.1746 -1.1661  2.6194
  967MOL0     H27612   5.939   3.879   5.837 -1.2632 -0.3163  0.0524
  967MOL0     H27613   5.928   4.023   5.955 -0.8620  1.7716 -0.3440
  967MOL0     H27614   5.766   4.136   5.806 -1.1265 -2.0124  1.7588
  967MOL0     H27615   5.773   3.992   5.700  0.2395  2.9127 -3.3510
  967MOL0     H27616   5.912   4.217   5.660  2.5447  1.5433  0.7564
  967MOL0     H27617   6.028   4.135   5.766  0.3710 -1.6819 -0.6040
  967MOL0     H27618   5.919   3.988   5.520 -2.4062  2.5085  2.3519
  967MOL0     H27619   6.058   3.947   5.612  0.2993 -0.1467  1.4058
  967MOL0     H27620   6.188   4.134   5.551 -1.2231  1.9727  0.6243
  967MOL0     H27621   6.059   4.197   5.442  0.4662 -1.8021 -1.8676
  967MOL0     H27622   6.209   3.938   5.433 -2.4222 -0.5275  1.1929
  967MOL0     H27623   6.075   3.978   5.327 -0.2622 -2.4749  1.5344
  967MOL0     H27624   6.222   4.177   5.242 -0.6474  1.8492  0.0957
  967MOL0     H27625   6.302   4.025   5.206 -2.5965 -2.3993  0.9155
  967MOL0     H27626   5.577   3.808   6.106  2.7210 -0.5366 -1.0920
  967MOL0     H27627   5.471   3.864   6.317  0.8181  0.4039  2.4522
  967MOL0     H27628   5.386   3.905   6.679 -2.1478 -0.4928  1.5329
  967MOL0     H27629   5.260   3.916   6.906 -0.8078  2.8081 -0.7659
  967MOL0     H27630   5.471   5.538   7.810  0.0708 -1.9947 -0.4930
  967MOL0     H27631   5.627   5.687   7.955  1.3370  0.0168 -0.6574
  967MOL0     H27632   5.727   5.983   8.305 -1.3801 -3.2928 -1.6770
  967MOL0     H27633   5.937   6.097   8.408  3.5971  0.3262  1.0490
  967MOL0     H27634   6.211   6.101   8.656 -1.9911  2.1943  1.5833
  967MOL0     H27635   6.093   6.161   8.556  0.5436  0.3748  6.0147
  967MOL0     H27636   6.295   6.248   8.534 -2.1712 -1.7163  2.9519
  967MOL0     H27637   6.382   6.107   8.462  1.9224  2.2937  0.9395
  967MOL0     H27638   6.156   6.269   8.336 -1.5966 -1.3884  3.5104
  967MOL0     H27639   6.203   6.120   8.285  1.0584 -1.3575  1.5556
  967MOL0     H27640   6.414   6.342   8.295 -2.3881  1.3667  0.2315
  967MOL0     H27641   6.441   6.174   8.235  0.5140  0.1826 -3.1454
  967MOL0     H27642   6.219   6.314   7.917 -2.0195  2.3400  2.2207
  967MOL0     H27643   6.120   5.714   8.449 -2.5490 -0.4597  4.2773
  967MOL0     H27644   5.938   5.616   8.308  1.0132  0.5345 -0.3740
  968MOL0     O27645   2.679   9.835   7.338  0.4629 -0.1019 -0.6217
  968MOL0     C27646   2.673   9.961   7.366 -0.2971  0.3601  0.9583
  968MOL0     O27647   2.575  10.049   7.341 -0.0127  0.6198 -0.5149
  968MOL0     C27648   2.487  10.025   7.238  0.2416 -1.2393  0.1649
  968MOL0     C27649   2.499  10.055   7.102 -0.1397 -0.9081 -0.2360
  968MOL0     C27650   2.399  10.030   7.006  0.6195 -0.1195  0.3924
  968MOL0     C27651   2.275   9.975   7.041  0.0269  0.4553  0.1209
  968MOL0     O27652   2.155   9.959   6.971  0.1339  0.4400 -0.4100
  968MOL0     C27653   2.143  10.013   6.839 -1.3715  0.3082  0.7342
  968MOL0     C27654   1.995  10.067   6.805 -0.4498  0.4393  0.0042
  968MOL0     C27655   1.921   9.942   6.754 -0.7876  0.0748 -0.3612
  968MOL0     C27656   1.772   9.969   6.746  0.0608 -0.8870  0.9426
  968MOL0     C27657   1.698   9.866   6.657 -0.1854 -0.0513 -0.6258
  968MOL0     C27658   1.550   9.908   6.623  0.8474  1.6566 -0.3900
  968MOL0     C27659   1.483   9.829   6.515  0.6364  0.3731  0.1721
  968MOL0     C27660   1.466   9.681   6.552 -0.1325 -0.3239  0.2268
  968MOL0     N27661   1.390   9.626   6.433  0.1978 -0.3793 -0.1633
  968MOL0     C27662   1.446   9.512   6.383 -0.5952 -0.3314  0.1650
  968MOL0     C27663   1.385   9.493   6.264  0.7569  0.7181 -0.0413
  968MOL0     C27664   1.435   9.395   6.161 -0.2559  0.4050 -0.1185
  968MOL0     C27665   1.479   9.255   6.222  0.9596 -0.3123 -0.4895
  968MOL0     C27666   1.363   9.185   6.299  1.2094  0.1494  0.1262
  968MOL0     C27667   1.251   9.159   6.199 -0.1904  0.1885  1.3792
  968MOL0     O27668   1.148   9.072   6.246 -0.9263 -0.2241  0.3764
  968MOL0     C27669   1.043   9.126   6.309 -0.4743  0.4693 -1.2527
  968MOL0     C27670   0.962   9.221   6.252 -0.9576 -0.0277  0.2947
  968MOL0     C27671   0.847   9.265   6.321  0.2171  0.1544  1.0725
  968MOL0     C27672   0.808   9.216   6.451 -0.1992  0.1312  0.6436
  968MOL0     C27673   0.688   9.263   6.518  0.0519  1.1544 -0.0969
  968MOL0     O27674   0.665   9.400   6.502 -0.0176  0.6201 -0.3527
  968MOL0     C27675   0.617   9.485   6.597  0.3725 -1.1841  0.3892
  968MOL0     C27676   0.596   9.618   6.547 -0.5297  0.1674 -0.2918
  968MOL0     C27677   0.562   9.733   6.628 -0.6441 -0.9873 -0.7246
  968MOL0     C27678   0.533   9.713   6.763  1.1955  0.9155 -0.4635
  968MOL0     O27679   0.491   9.822   6.834  0.2639  0.0408 -0.5076
  968MOL0     C27680   0.420   9.798   6.957  0.0157 -0.6893  0.3993
  968MOL0     C27681   0.514   9.789   7.075  0.3807  0.0261 -0.2383
  968MOL0     C27682   0.422   9.794   7.200  0.1960  0.4914 -0.2882
  968MOL0     C27683   0.386   9.944   7.237 -0.4879 -0.5984 -0.6527
  968MOL0     C27684   0.313   9.978   7.366 -0.6438  0.4253 -0.3978
  968MOL0     C27685   0.209   9.873   7.416  0.0038 -0.6407 -0.3390
  968MOL0     C27686   0.097   9.851   7.324  1.6076  0.9840 -0.3191
  968MOL0     C27687  -0.023   9.785   7.395  0.6265 -0.1191  0.3457
  968MOL0    Cl27688   0.014   9.611   7.440 -0.3608  0.3530  0.3476
  968MOL0     C27689   0.540   9.574   6.817  0.6411  0.1752  0.0608
  968MOL0     C27690   0.593   9.468   6.730  1.1235 -0.8956 -0.7283
  968MOL0     O27691   0.628   9.185   6.598  0.1023  0.4005  0.6751
  968MOL0     C27692   0.898   9.127   6.504  0.6505  0.1826  0.8065
  968MOL0     C27693   1.010   9.084   6.440 -0.5526 -0.4028 -0.2258
  968MOL0     N27694   1.287   9.583   6.244  0.2255  0.1148 -0.3563
  968MOL0     N27695   1.298   9.667   6.346  0.7846 -0.1390 -0.4827
  968MOL0     C27696   2.255   9.937   7.181 -0.0807  0.3246  0.8526
  968MOL0     C27697   2.365   9.962   7.274  1.7091 -0.3830  0.1630
  968MOL0     C27698   2.780  10.016   7.447  0.1501  0.5260 -0.4673
  968MOL0     C27699   2.873   9.937   7.523  0.8960  0.4979  0.1657
  968MOL0     C27700   2.992   9.995   7.587  0.9634  0.8260 -0.0073
  968MOL0     C27701   3.010  10.132   7.576 -0.9160  0.1808 -0.7170
  968MOL0     O27702   3.117  10.209   7.623  0.8512 -0.2167  0.2812
  968MOL0     C27703   3.237  10.140   7.668  0.6181 -0.2949 -0.5703
  968MOL0     C27704   3.214  10.113   7.815 -0.3536 -0.2581  0.0994
  968MOL0     C27705   3.322  10.015   7.888  0.0664  0.9152  0.0200
  968MOL0     C27706   3.469  10.066   7.877  0.4477 -0.0274 -0.4196
  968MOL0     C27707   3.553  10.006   7.981  0.0732 -0.9673  0.3755
  968MOL0     C27708   3.625   9.970   8.069  0.0184  0.3271  0.1636
  968MOL0     C27709   2.907  10.210   7.524  0.5051  0.2077  0.1884
  968MOL0     C27710   2.798  10.153   7.457 -0.8896 -0.9606  0.1704
  968MOL0     H27711   2.586  10.111   7.067 -1.3957  2.0039  0.9368
  968MOL0     H27712   2.416  10.055   6.902  0.4897  0.8562  0.6017
  968MOL0     H27713   2.176   9.935   6.769 -2.0628  1.3874 -0.8780
  968MOL0     H27714   2.209  10.099   6.827 -1.6973  0.4625 -0.0374
  968MOL0     H27715   2.006  10.134   6.719 -0.3285  1.0970  0.5226
  968MOL0     H27716   1.934  10.115   6.883  1.9268 -0.4879  2.5657
  968MOL0     H27717   1.935   9.855   6.819 -0.4168  1.5137  1.5383
  968MOL0     H27718   1.962   9.924   6.653  0.3896  0.7865 -0.0340
  968MOL0     H27719   1.735   9.971   6.849  1.1834  1.1698  1.3590
  968MOL0     H27720   1.757  10.067   6.701  3.0110 -0.4875  0.6514
  968MOL0     H27721   1.694   9.778   6.721  3.1797  0.8491  1.0435
  968MOL0     H27722   1.759   9.856   6.567  1.8984 -2.6800  0.9443
  968MOL0     H27723   1.557  10.009   6.583 -1.1720  2.4508  1.0956
  968MOL0     H27724   1.494   9.908   6.717  0.2131 -2.0039 -0.6111
  968MOL0     H27725   1.384   9.865   6.487  0.5749 -0.7829 -1.2409
  968MOL0     H27726   1.549   9.822   6.428 -0.7803 -0.9287 -0.8575
  968MOL0     H27727   1.397   9.684   6.638  0.7856  1.3673  0.9532
  968MOL0     H27728   1.554   9.620   6.571 -0.5904 -0.9052  0.5268
  968MOL0     H27729   1.538   9.462   6.414 -1.0412 -0.5593  1.1468
  968MOL0     H27730   1.521   9.444   6.116 -0.0684  1.4300  1.3074
  968MOL0     H27731   1.368   9.381   6.075  0.7934  0.0457 -0.8985
  968MOL0     H27732   1.565   9.264   6.290 -0.2591 -0.1848  1.0760
  968MOL0     H27733   1.511   9.199   6.134  0.0689 -0.1422 -0.9325
  968MOL0     H27734   1.396   9.089   6.341  0.2769 -0.2653 -0.0399
  968MOL0     H27735   1.332   9.245   6.384  2.6151  0.3074  0.5420
  968MOL0     H27736   1.301   9.112   6.114 -3.0197 -1.2045  0.3818
  968MOL0     H27737   1.203   9.252   6.170 -0.5669 -0.4892 -0.2704
  968MOL0     H27738   0.973   9.242   6.146 -1.6087  4.4811  0.9054
  968MOL0     H27739   0.777   9.340   6.287  1.1766  1.0684  1.0825
  968MOL0     H27740   0.617   9.625   6.441  0.1454 -2.6861 -0.4279
  968MOL0     H27741   0.553   9.835   6.594  0.7560  0.4846  2.8889
  968MOL0     H27742   0.363   9.705   6.943  0.9366 -1.0722 -1.1193
  968MOL0     H27743   0.354   9.883   6.977  0.3301 -0.4814  0.5463
  968MOL0     H27744   0.573   9.881   7.074  1.9524 -0.8838 -3.3415
  968MOL0     H27745   0.567   9.695   7.089  0.0037  0.2925  5.3521
  968MOL0     H27746   0.470   9.765   7.294  0.3345  1.0819 -0.1707
  968MOL0     H27747   0.336   9.727   7.194 -0.5041  1.3860 -0.5614
  968MOL0     H27748   0.474  10.008   7.250 -0.6023  0.0806 -2.7810
  968MOL0     H27749   0.333   9.988   7.152  1.8314  1.1739 -1.3008
  968MOL0     H27750   0.275  10.081   7.368  1.2920  1.2024 -0.9010
  968MOL0     H27751   0.386   9.989   7.446 -2.6807  0.7834  1.5128
  968MOL0     H27752   0.176   9.906   7.515  1.6563  1.7918 -0.5212
  968MOL0     H27753   0.258   9.776   7.426 -0.7664 -0.9444  0.6123
  968MOL0     H27754   0.069   9.946   7.276  1.3877  0.5035 -1.1503
  968MOL0     H27755   0.133   9.780   7.250 -0.9858  0.4881 -1.2252
  968MOL0     H27756  -0.106   9.764   7.327  1.3362 -7.5982  1.0117
  968MOL0     H27757  -0.054   9.846   7.480 -3.6909 -2.4265  0.7041
  968MOL0     H27758   0.502   9.528   6.907 -0.6447  0.2861 -0.4107
  968MOL0     H27759   0.594   9.369   6.775  3.0211  0.0427  1.4728
  968MOL0     H27760   0.895   9.085   6.604 -1.5448 -1.0623  0.2780
  968MOL0     H27761   1.082   9.016   6.484  1.7314  1.1477 -1.4107
  968MOL0     H27762   2.163   9.887   7.210  1.5305 -3.5565 -0.1098
  968MOL0     H27763   2.358   9.938   7.379 -0.0851  1.1131  0.4520
  968MOL0     H27764   2.849   9.831   7.520 -0.6485  0.8047 -4.1510
  968MOL0     H27765   3.063   9.925   7.631  1.1055  1.8479  1.4351
  968MOL0     H27766   3.315  10.217   7.672 -1.4660  1.9076  2.1823
  968MOL0     H27767   3.263  10.052   7.610 -2.8266 -0.4755 -2.0984
  968MOL0     H27768   3.224  10.215   7.855 -1.4060  0.6123 -1.7176
  968MOL0     H27769   3.116  10.074   7.845 -0.5355 -1.1002 -1.4972
  968MOL0     H27770   3.327   9.915   7.844  0.1707  0.0697  1.8567
  968MOL0     H27771   3.289  10.002   7.992  0.0390 -1.4064 -0.2349
  968MOL0     H27772   3.511  10.031   7.781 -1.0524  0.3113 -1.2277
  968MOL0     H27773   3.477  10.175   7.878  2.5888 -0.1361  1.1120
  968MOL0     H27774   3.684   9.955   8.157 -1.9719 -1.2017  1.3444
  968MOL0     H27775   2.930  10.314   7.504  0.2254  0.4623  1.1496
  968MOL0     H27776   2.729  10.226   7.416  1.0935  0.4983 -0.7790
  969MOL0     O27777   0.903   0.691   9.500 -0.2403  0.3467  0.4191
  969MOL0     C27778   0.835   0.622   9.586  0.0900  0.3279  0.1823
  969MOL0     O27779   0.806   0.490   9.578 -0.6871 -0.5590  0.0152
  969MOL0     C27780   0.872   0.403   9.496  0.8175  0.6597 -0.1984
  969MOL0     C27781   0.804   0.300   9.436  0.8255 -0.2774  1.2665
  969MOL0     C27782   0.868   0.207   9.357  0.4206  0.3187  0.6981
  969MOL0     C27783   1.005   0.214   9.343  0.1775 -0.4035 -0.5159
  969MOL0     O27784   1.053   0.103   9.278  0.4536 -0.8068  0.4443
  969MOL0     C27785   1.199   0.074   9.303  0.5879 -0.0867 -0.1881
  969MOL0     C27786   1.250  -0.059   9.242  0.4366 -0.1961  0.6048
  969MOL0     C27787   1.140  -0.169   9.222  0.6889 -0.2407 -0.7100
  969MOL0     C27788   1.216  -0.311   9.216  0.8568  0.0861 -0.2835
  969MOL0     C27789   1.127  -0.438   9.223  1.0683  0.1845 -0.5522
  969MOL0     C27790   1.199  -0.571   9.202  0.8477 -0.2837 -0.4262
  969MOL0     C27791   1.106  -0.694   9.178  0.0551 -0.5769  0.3304
  969MOL0     C27792   1.007  -0.701   9.287 -0.5038  0.3594 -0.1272
  969MOL0     N27793   0.942  -0.828   9.285  1.4420 -0.4277 -0.2561
  969MOL0     C27794   0.958  -0.920   9.384 -1.0644 -0.8003 -0.2804
  969MOL0     C27795   0.890  -1.022   9.338  0.3036  0.2231 -0.0181
  969MOL0     C27796   0.877  -1.161   9.401  0.0063  0.1448  0.4040
  969MOL0     C27797   0.999  -1.202   9.485 -0.5484 -0.4482  0.6879
  969MOL0     C27798   0.973  -1.326   9.579 -0.4298  0.4514  0.6792
  969MOL0     C27799   1.044  -1.346   9.719 -0.3162  0.1726  0.2358
  969MOL0     O27800   1.102  -1.216   9.759 -0.2844  0.2213  0.3482
  969MOL0     C27801   1.148  -1.197   9.888 -0.5553  0.0489  1.0124
  969MOL0     C27802   1.178  -1.070   9.931  0.3982 -0.2872  0.7127
  969MOL0     C27803   1.241  -1.039  10.047  0.1633 -0.1555 -0.4186
  969MOL0     C27804   1.274  -1.150  10.135 -0.2211 -0.2754 -1.4079
  969MOL0     C27805   1.350  -1.136  10.264 -0.0239 -0.0852 -0.0990
  969MOL0     O27806   1.313  -1.217  10.356  0.8234  0.0503  0.3486
  969MOL0     C27807   1.317  -1.176  10.488  0.3637  0.9147 -0.0504
  969MOL0     C27808   1.344  -1.265  10.590  0.1090  0.0963 -0.2617
  969MOL0     C27809   1.323  -1.229  10.722 -0.2406  0.3474 -0.2162
  969MOL0     C27810   1.280  -1.098  10.767  0.1709  0.0741  0.7080
  969MOL0     O27811   1.273  -1.074  10.898  0.2937  0.6098  0.2194
  969MOL0     C27812   1.388  -1.007  10.939 -0.6901  0.5446 -0.4635
  969MOL0     C27813   1.370  -0.967  11.091  0.0552  0.8325 -0.0480
  969MOL0     C27814   1.237  -0.900  11.128 -0.6649  0.6082  0.2342
  969MOL0     C27815   1.225  -0.884  11.280 -0.3225 -0.9136 -0.7090
  969MOL0     C27816   1.079  -0.844  11.299 -0.3149 -0.3288  0.2457
  969MOL0     C27817   0.964  -0.946  11.294 -0.0400  0.9662  0.2479
  969MOL0     C27818   0.865  -0.931  11.406 -0.0243 -0.6882 -0.9766
  969MOL0     C27819   0.756  -1.036  11.403 -0.9005 -0.3084  0.1071
  969MOL0    Cl27820   0.658  -1.023  11.551  0.1204 -0.3832 -0.3489
  969MOL0     C27821   1.267  -1.002  10.669 -1.3874  0.3325 -0.0396
  969MOL0     C27822   1.287  -1.043  10.533  0.5700 -0.3041  0.4225
  969MOL0     O27823   1.421  -1.044  10.282 -0.0786  0.2787  0.0026
  969MOL0     C27824   1.236  -1.284  10.106 -0.6050 -0.0086 -0.5112
  969MOL0     C27825   1.185  -1.303   9.974 -0.0181 -0.2585  0.1553
  969MOL0     N27826   0.824  -0.991   9.223 -0.0115 -0.1130 -0.6247
  969MOL0     N27827   0.852  -0.869   9.191  0.5904 -0.2632  0.4229
  969MOL0     C27828   1.071   0.320   9.412 -0.9835  0.5781  0.3072
  969MOL0     C27829   1.005   0.413   9.483 -0.4102 -0.2577  0.3521
  969MOL0     C27830   0.775   0.694   9.699 -1.0007  0.2859  0.2531
  969MOL0     C27831   0.693   0.635   9.792 -0.2944 -0.3807 -0.1247
  969MOL0     C27832   0.659   0.693   9.907 -0.0032 -0.4171 -0.6447
  969MOL0     C27833   0.700   0.821   9.953 -0.4597  1.2913 -0.3094
  969MOL0     O27834   0.654   0.868  10.069 -1.0038 -0.5324  0.7997
  969MOL0     C27835   0.748   0.946  10.153 -0.1326  0.3935  0.8925
  969MOL0     C27836   0.854   0.862  10.231  0.2135  0.6772 -0.4693
  969MOL0     C27837   0.784   0.742  10.301 -0.0383 -0.2393 -1.0798
  969MOL0     C27838   0.813   0.598  10.248 -0.4540  0.3017  0.4672
  969MOL0     C27839   0.960   0.558  10.247 -0.8301 -0.9799 -0.9591
  969MOL0     C27840   1.080   0.530  10.251 -0.3523  0.2325 -0.0708
  969MOL0     C27841   0.768   0.889   9.853 -1.2390  0.3143  0.2468
  969MOL0     C27842   0.797   0.833   9.725  1.0717  0.3035 -0.3137
  969MOL0     H27843   0.696   0.303   9.446  0.9211  1.6323  2.0185
  969MOL0     H27844   0.820   0.114   9.332  3.7013 -0.1736 -5.7645
  969MOL0     H27845   1.213   0.069   9.411 -0.5777 -1.5291 -0.0821
  969MOL0     H27846   1.267   0.146   9.257  2.0957 -0.3666  1.4960
  969MOL0     H27847   1.327  -0.097   9.309 -0.2724 -0.1805  1.4559
  969MOL0     H27848   1.291  -0.022   9.148  0.3439  5.1737  2.3244
  969MOL0     H27849   1.078  -0.152   9.134  0.8013  0.7378 -0.6046
  969MOL0     H27850   1.076  -0.187   9.309 -2.0624 -3.6592 -3.1512
  969MOL0     H27851   1.269  -0.321   9.121 -2.7999 -2.3853 -2.3237
  969MOL0     H27852   1.289  -0.311   9.298  0.0149 -1.1777  0.5099
  969MOL0     H27853   1.044  -0.433   9.152  1.7062 -0.5917 -1.3805
  969MOL0     H27854   1.083  -0.432   9.323  3.1083 -0.4892  0.4550
  969MOL0     H27855   1.258  -0.605   9.288 -0.6466 -0.6412  0.4830
  969MOL0     H27856   1.259  -0.572   9.110 -0.0256  1.8998 -1.0814
  969MOL0     H27857   1.056  -0.669   9.084  1.4668  2.1784  0.1917
  969MOL0     H27858   1.155  -0.792   9.171  1.4599  0.1037  0.1751
  969MOL0     H27859   0.937  -0.619   9.304 -1.4301 -0.9829  3.3568
  969MOL0     H27860   1.069  -0.703   9.377 -1.3462 -0.1565  0.4587
  969MOL0     H27861   1.022  -0.912   9.471 -1.5750  1.3277 -0.0554
  969MOL0     H27862   0.858  -1.240   9.327 -2.7209 -0.5999  1.7850
  969MOL0     H27863   0.791  -1.147   9.467 -1.1988  0.6667 -1.2075
  969MOL0     H27864   1.018  -1.120   9.555 -0.2654 -1.9767  2.4910
  969MOL0     H27865   1.084  -1.220   9.418 -1.7984 -2.4134 -0.4692
  969MOL0     H27866   0.867  -1.319   9.604 -0.5688 -2.0298  1.0105
  969MOL0     H27867   0.976  -1.422   9.528  2.8207  0.8518 -0.0862
  969MOL0     H27868   1.121  -1.418   9.692 -1.1718  0.2047 -2.6466
  969MOL0     H27869   0.980  -1.390   9.796  2.9752 -0.5335  2.7705
  969MOL0     H27870   1.152  -0.989   9.863 -0.6260  1.4626  3.0484
  969MOL0     H27871   1.274  -0.941  10.081  1.7739 -1.3833  1.8041
  969MOL0     H27872   1.370  -1.364  10.553 -0.6206  0.0813 -0.7529
  969MOL0     H27873   1.362  -1.298  10.795  0.6435 -1.6672 -2.4700
  969MOL0     H27874   1.397  -0.910  10.891  3.0033  1.2128  1.2258
  969MOL0     H27875   1.473  -1.073  10.921  0.1605  0.7859  2.2269
  969MOL0     H27876   1.445  -0.888  11.098  0.5042  0.7031 -2.4750
  969MOL0     H27877   1.391  -1.058  11.148 -0.9388  0.6724  0.0764
  969MOL0     H27878   1.151  -0.953  11.086  0.8952 -0.2839 -2.0369
  969MOL0     H27879   1.232  -0.800  11.085  0.7588  1.0127  0.9305
  969MOL0     H27880   1.271  -0.968  11.334  4.2407  1.2113 -0.7667
  969MOL0     H27881   1.294  -0.805  11.311  0.3544 -0.7711 -2.4683
  969MOL0     H27882   1.057  -0.754  11.240 -0.4303  0.2431  1.1477
  969MOL0     H27883   1.092  -0.798  11.397  2.9804  1.2433 -0.7963
  969MOL0     H27884   1.007  -1.047  11.289  0.8327  1.1921  2.3404
  969MOL0     H27885   0.905  -0.919  11.206 -1.4887  2.0335  1.4817
  969MOL0     H27886   0.922  -0.938  11.499  1.9352 -1.3029 -2.1715
  969MOL0     H27887   0.827  -0.829  11.399  0.8123  0.1872  3.6109
  969MOL0     H27888   0.803  -1.134  11.388  0.5203  0.6038 -1.7627
  969MOL0     H27889   0.691  -1.024  11.316  1.1672  2.9588 -1.1460
  969MOL0     H27890   1.236  -0.904  10.706 -3.3195 -1.4275  3.5638
  969MOL0     H27891   1.264  -0.967  10.458  0.3703  0.9397  1.7080
  969MOL0     H27892   1.263  -1.369  10.168  3.1587  1.5427  0.2744
  969MOL0     H27893   1.183  -1.408   9.947  1.0840 -0.4167  0.5936
  969MOL0     H27894   1.180   0.314   9.415 -0.8834  0.3518 -2.1701
  969MOL0     H27895   1.053   0.500   9.527  4.1320 -2.3501  0.0894
  969MOL0     H27896   0.651   0.538   9.766  0.5191 -0.5872 -0.7297
  969MOL0     H27897   0.607   0.628   9.977 -1.5598  1.1160 -0.2820
  969MOL0     H27898   0.695   1.004  10.229 -2.6945 -1.8908  1.0089
  969MOL0     H27899   0.802   1.016  10.088  3.3233 -1.8652  1.0316
  969MOL0     H27900   0.923   0.825  10.155 -0.6613  2.4773 -2.2386
  969MOL0     H27901   0.915   0.927  10.294  0.1746  3.5621 -3.1453
  969MOL0     H27902   0.675   0.749  10.295  0.0876  1.3533 -2.0011
  969MOL0     H27903   0.815   0.759  10.404 -1.7146  2.4953 -0.9403
  969MOL0     H27904   0.754   0.529  10.310  0.5120  0.2142  1.3196
  969MOL0     H27905   0.772   0.581  10.148  1.6069 -0.2607 -0.3264
  969MOL0     H27906   1.185   0.515  10.261 -0.0894  1.5750 -0.5533
  969MOL0     H27907   0.804   0.990   9.869 -1.4519  0.5218 -0.5440
  969MOL0     H27908   0.849   0.894   9.653 -3.0806  1.8769 -2.3274
  970MOL0     O27909   7.122  10.778   6.342  0.2757 -0.1472 -0.2643
  970MOL0     C27910   7.206  10.850   6.288  0.2736 -0.9876  0.0415
  970MOL0     O27911   7.326  10.879   6.350  0.3628  0.2936  0.0707
  970MOL0     C27912   7.352  10.822   6.473 -0.2135 -0.0881  0.5129
  970MOL0     C27913   7.422  10.699   6.481  0.4370  1.0221  0.1242
  970MOL0     C27914   7.422  10.631   6.607 -0.2411 -0.1785  1.3923
  970MOL0     C27915   7.383  10.699   6.728 -0.3575 -0.9336 -0.1754
  970MOL0     O27916   7.414  10.635   6.845  0.4132  0.4739  0.3552
  970MOL0     C27917   7.427  10.712   6.971 -0.4500 -0.0050 -0.8337
  970MOL0     C27918   7.333  10.644   7.070 -0.1618 -0.4747 -0.7542
  970MOL0     C27919   7.357  10.654   7.223  0.3139  0.4844 -0.5257
  970MOL0     C27920   7.358  10.803   7.264 -0.5510  0.7748 -0.8561
  970MOL0     C27921   7.419  10.808   7.416  0.1891 -0.3602  0.8383
  970MOL0     C27922   7.327  10.752   7.528  1.0616 -0.0225  0.9530
  970MOL0     C27923   7.404  10.718   7.656  0.6840 -0.1998 -0.9190
  970MOL0     C27924   7.432  10.841   7.739  0.4396 -0.1074 -0.2231
  970MOL0     N27925   7.336  10.837   7.850  0.8688  0.0964  0.6733
  970MOL0     C27926   7.206  10.872   7.840  0.3186 -0.3054 -2.2909
  970MOL0     C27927   7.175  10.882   7.971  0.4123  0.0128  0.0041
  970MOL0     C27928   7.045  10.900   8.029  0.0985  0.3294 -0.7823
  970MOL0     C27929   6.971  10.764   8.049 -0.5866  0.4469 -0.6535
  970MOL0     C27930   7.019  10.692   8.179 -0.4404  0.3905 -0.1605
  970MOL0     C27931   6.988  10.754   8.319 -0.1900 -0.1032 -0.2961
  970MOL0     O27932   6.843  10.772   8.326  0.0463 -0.0419  0.7492
  970MOL0     C27933   6.773  10.766   8.446 -0.1762 -0.0658  0.8682
  970MOL0     C27934   6.638  10.742   8.445 -0.3227 -1.1627 -0.0220
  970MOL0     C27935   6.563  10.718   8.553 -0.2510  0.6921 -1.2656
  970MOL0     C27936   6.627  10.726   8.679 -0.4497  0.8245 -0.9394
  970MOL0     C27937   6.538  10.711   8.801 -1.2215 -0.1445 -0.3335
  970MOL0     O27938   6.457  10.600   8.807 -0.5601  0.9087 -0.2823
  970MOL0     C27939   6.371  10.570   8.915 -0.5157 -0.5164  0.0356
  970MOL0     C27940   6.351  10.643   9.034  0.3528 -0.3084  1.0888
  970MOL0     C27941   6.261  10.598   9.131  0.7712  0.8352  0.7777
  970MOL0     C27942   6.177  10.494   9.095  0.3453  0.9109 -0.3161
  970MOL0     O27943   6.090  10.446   9.190 -0.6611  0.0004 -0.3445
  970MOL0     C27944   5.969  10.373   9.151  1.1518 -0.1797 -0.6905
  970MOL0     C27945   5.892  10.322   9.272  0.0830 -0.6930  0.5785
  970MOL0     C27946   5.978  10.220   9.339  0.2403 -0.0736  0.0493
  970MOL0     C27947   5.887  10.155   9.444 -0.2327 -0.0216 -0.0283
  970MOL0     C27948   5.962  10.033   9.498 -0.7183 -0.7031  0.5002
  970MOL0     C27949   5.891   9.949   9.607  0.8640  0.2190 -0.4948
  970MOL0     C27950   5.746   9.892   9.568  0.0170 -1.3974 -0.3079
  970MOL0     C27951   5.714   9.774   9.655  0.6202 -0.8101  0.3754
  970MOL0    Cl27952   5.796   9.622   9.598 -0.1061 -0.2452 -0.1311
  970MOL0     C27953   6.195  10.428   8.979 -0.0569  0.8267  0.1972
  970MOL0     C27954   6.301  10.466   8.891 -0.2745 -0.1857 -0.6271
  970MOL0     O27955   6.573  10.790   8.892  0.7413  1.3376  1.0214
  970MOL0     C27956   6.763  10.760   8.685 -0.5522  0.9332 -0.1842
  970MOL0     C27957   6.839  10.779   8.567  0.4327  0.0653 -0.6194
  970MOL0     N27958   7.288  10.874   8.055 -0.6006 -1.8666  0.0488
  970MOL0     N27959   7.383  10.839   7.981  0.1275 -0.0772 -0.3394
  970MOL0     C27960   7.309  10.820   6.718 -0.0148 -0.2346  0.4719
  970MOL0     C27961   7.298  10.880   6.593 -0.2442  0.7991  1.0976
  970MOL0     C27962   7.166  10.926   6.174 -0.3869  0.3697 -0.8039
  970MOL0     C27963   7.037  10.963   6.140  0.4513  0.5873 -0.4560
  970MOL0     C27964   6.994  11.036   6.024  0.5389  0.4584 -0.4157
  970MOL0     C27965   7.103  11.075   5.936  0.0322  0.0066 -0.7048
  970MOL0     O27966   7.083  11.151   5.823 -0.0259  0.8874  0.5566
  970MOL0     C27967   6.955  11.173   5.754  0.5170 -0.6264  0.5688
  970MOL0     C27968   6.872  11.263   5.839 -1.1283  0.2502 -0.3399
  970MOL0     C27969   6.858  11.400   5.777 -0.1941 -0.2913  0.4766
  970MOL0     C27970   6.808  11.506   5.875 -0.5345 -0.3189 -0.2274
  970MOL0     C27971   6.785  11.634   5.800 -0.5633 -0.3932  0.6775
  970MOL0     C27972   6.763  11.736   5.740 -0.9653  0.4951 -0.0472
  970MOL0     C27973   7.237  11.052   5.972 -1.0401 -0.3758  0.1542
  970MOL0     C27974   7.267  10.976   6.093  1.2158 -0.5040  0.5030
  970MOL0     H27975   7.448  10.660   6.383 -0.9278  0.4702 -0.0422
  970MOL0     H27976   7.466  10.532   6.616 -1.7787 -0.9400  0.8678
  970MOL0     H27977   7.418  10.821   6.970  1.0552  0.1461 -1.0373
  970MOL0     H27978   7.527  10.701   7.016 -0.3357 -0.2209 -1.1323
  970MOL0     H27979   7.320  10.538   7.047 -1.2999 -0.3887 -0.5398
  970MOL0     H27980   7.232  10.684   7.057 -0.6296 -0.5189  1.9693
  970MOL0     H27981   7.456  10.617   7.249  0.3337  3.2946  4.6837
  970MOL0     H27982   7.285  10.592   7.279  2.2233 -1.4673 -0.0857
  970MOL0     H27983   7.423  10.856   7.194  1.2329  2.9898  2.2013
  970MOL0     H27984   7.260  10.851   7.269 -1.4047 -0.7230 -2.3769
  970MOL0     H27985   7.442  10.915   7.427  0.7775 -0.0915 -2.0145
  970MOL0     H27986   7.523  10.775   7.422  0.8512  0.7849 -2.1332
  970MOL0     H27987   7.269  10.664   7.500  1.8076 -0.4126  0.6077
  970MOL0     H27988   7.251  10.830   7.538  0.0257 -0.4365 -2.2582
  970MOL0     H27989   7.350  10.646   7.718  0.8659 -0.0038 -0.5317
  970MOL0     H27990   7.496  10.666   7.630 -1.0752 -2.4890 -3.1091
  970MOL0     H27991   7.418  10.932   7.680 -0.7829  1.8591  2.9076
  970MOL0     H27992   7.534  10.853   7.777  0.8361 -1.8459 -0.6347
  970MOL0     H27993   7.147  10.861   7.750 -1.3552 -1.7715 -1.0736
  970MOL0     H27994   6.979  10.954   7.962 -2.7880  0.7801  2.1889
  970MOL0     H27995   7.045  10.952   8.125 -3.1647  0.3398 -0.6806
  970MOL0     H27996   6.977  10.699   7.962 -3.0915  0.6069 -1.0139
  970MOL0     H27997   6.867  10.797   8.063 -1.3449 -1.8701 -0.3567
  970MOL0     H27998   6.978  10.591   8.184 -1.4600  0.6446 -2.2643
  970MOL0     H27999   7.125  10.667   8.174 -0.7075 -1.2104  1.3302
  970MOL0     H28000   7.049  10.844   8.332  0.8742 -0.8256 -0.1745
  970MOL0     H28001   7.017  10.695   8.405  1.1509 -0.9532 -1.3018
  970MOL0     H28002   6.594  10.746   8.345  0.0030  2.5582 -0.1516
  970MOL0     H28003   6.458  10.695   8.540 -0.9443  1.6672  1.8184
  970MOL0     H28004   6.395  10.742   9.043  0.3418 -0.0641 -1.0713
  970MOL0     H28005   6.248  10.656   9.222  0.5872  3.3020 -0.7247
  970MOL0     H28006   5.990  10.293   9.080 -1.4489 -0.3151 -1.3909
  970MOL0     H28007   5.903  10.436   9.091 -0.9168 -1.3055  0.2741
  970MOL0     H28008   5.793  10.284   9.246  1.4181 -4.0736 -0.0242
  970MOL0     H28009   5.874  10.413   9.331  0.5099 -0.7925  0.8693
  970MOL0     H28010   6.064  10.264   9.391  0.8977  0.7588 -1.6700
  970MOL0     H28011   6.007  10.148   9.262 -3.1926 -1.9335  0.3050
  970MOL0     H28012   5.870  10.232   9.518  0.8235  0.8403 -0.6545
  970MOL0     H28013   5.792  10.116   9.406 -0.7869 -1.1725  2.3639
  970MOL0     H28014   6.061  10.062   9.533  0.5359 -1.3712 -2.2448
  970MOL0     H28015   5.978   9.968   9.411 -0.5468 -1.0919  0.8217
  970MOL0     H28016   5.881  10.005   9.700  0.8025 -0.7759  0.1041
  970MOL0     H28017   5.963   9.868   9.622  1.6232  1.3430  2.7122
  970MOL0     H28018   5.673   9.973   9.580  0.0028 -1.6568  1.7252
  970MOL0     H28019   5.743   9.851   9.466 -0.7691 -4.0218  0.6848
  970MOL0     H28020   5.605   9.764   9.654  0.0920  3.2756 -0.9426
  970MOL0     H28021   5.749   9.811   9.752 -0.4483  1.0708  0.0982
  970MOL0     H28022   6.138  10.343   8.944 -0.4979  2.1383 -2.5800
  970MOL0     H28023   6.307  10.400   8.806  1.9789  0.0517 -0.7068
  970MOL0     H28024   6.814  10.768   8.780  1.7003 -1.4372 -1.0721
  970MOL0     H28025   6.945  10.800   8.579  0.5210 -1.4154  2.2354
  970MOL0     H28026   7.262  10.864   6.805 -0.5100  1.3961 -0.5868
  970MOL0     H28027   7.255  10.978   6.579  1.4552  1.5226  0.7007
  970MOL0     H28028   6.954  10.930   6.202 -0.3637  4.5787  0.8600
  970MOL0     H28029   6.886  11.047   6.021  0.2844 -0.9343  1.6891
  970MOL0     H28030   6.897  11.084   5.733 -0.9961  0.4148  0.1848
  970MOL0     H28031   6.991  11.222   5.663  2.6463  0.6064  1.9934
  970MOL0     H28032   6.775  11.227   5.874 -1.2384  0.2981 -0.5995
  970MOL0     H28033   6.941  11.271   5.924 -2.9186 -1.5284  1.3874
  970MOL0     H28034   6.775  11.406   5.705 -0.2234 -0.6426  0.4833
  970MOL0     H28035   6.947  11.434   5.723 -0.9630 -2.0986 -2.1177
  970MOL0     H28036   6.713  11.481   5.923 -0.5468  0.9690  0.4648
  970MOL0     H28037   6.888  11.521   5.948 -0.8120  2.8819 -0.4305
  970MOL0     H28038   6.760  11.831   5.692  0.1271  0.8305  0.5125
  970MOL0     H28039   7.314  11.094   5.909 -1.2602  1.2130  0.9003
  970MOL0     H28040   7.370  10.943   6.105  1.5269 -1.5639 -3.5997
  971MOL0     O28041   9.066   3.537  10.588  0.4289  0.3252 -0.0134
  971MOL0     C28042   9.155   3.494  10.655 -0.6270 -0.2338 -0.7626
  971MOL0     O28043   9.272   3.563  10.678 -0.3733 -0.3104 -0.2980
  971MOL0     C28044   9.294   3.691  10.630  0.4463  0.2604 -0.2999
  971MOL0     C28045   9.238   3.808  10.680 -0.0232  0.2277 -0.6766
  971MOL0     C28046   9.285   3.928  10.630 -0.6512  0.7237 -1.3526
  971MOL0     C28047   9.373   3.946  10.529 -0.4403 -0.0107  0.4458
  971MOL0     O28048   9.409   4.071  10.501  0.3797 -0.1735 -0.0348
  971MOL0     C28049   9.540   4.094  10.439 -0.2041 -0.7815  0.5530
  971MOL0     C28050   9.530   4.248  10.407 -0.1150 -0.0839  0.3027
  971MOL0     C28051   9.642   4.299  10.317  0.0986 -0.8504 -0.6446
  971MOL0     C28052   9.622   4.450  10.273  0.4947  0.0099  0.3048
  971MOL0     C28053   9.669   4.465  10.131  0.4971  0.2178 -0.0227
  971MOL0     C28054   9.815   4.512  10.138 -0.1056 -0.3358 -0.3075
  971MOL0     C28055   9.810   4.670  10.148 -0.2784  0.8955 -0.4831
  971MOL0     C28056   9.815   4.758  10.030  0.3276  0.6647 -0.3406
  971MOL0     N28057   9.927   4.738   9.936 -0.8233  0.9498 -0.3171
  971MOL0     C28058   9.928   4.634   9.838 -0.1515 -0.5296  0.7875
  971MOL0     C28059  10.041   4.663   9.758  0.4639 -0.4543  0.0285
  971MOL0     C28060  10.084   4.595   9.634  0.1585  0.3082  0.6078
  971MOL0     C28061  10.202   4.495   9.661 -0.6467 -0.1211 -0.0243
  971MOL0     C28062  10.148   4.368   9.730 -0.5715  0.5070 -0.6096
  971MOL0     C28063  10.040   4.297   9.656  1.6020 -0.0367  0.7256
  971MOL0     O28064  10.008   4.168   9.721  0.3508 -1.3478  0.1379
  971MOL0     C28065   9.872   4.131   9.727 -1.0015 -0.0877 -0.3876
  971MOL0     C28066   9.825   4.057   9.621  0.2824 -0.3127  0.9009
  971MOL0     C28067   9.694   4.002   9.633  0.0187  0.7849 -0.0959
  971MOL0     C28068   9.625   4.013   9.760  1.1555 -1.1181 -0.0270
  971MOL0     C28069   9.489   3.943   9.772  0.9017  0.0143 -1.0079
  971MOL0     O28070   9.454   3.904   9.900  0.2689  0.6320  0.1035
  971MOL0     C28071   9.356   3.804   9.902 -1.2020  0.4113 -0.0580
  971MOL0     C28072   9.393   3.676   9.856 -0.3870 -0.0432 -0.0485
  971MOL0     C28073   9.298   3.572   9.862  0.3235 -0.1203 -0.2315
  971MOL0     C28074   9.156   3.608   9.892 -0.1850 -0.6925  0.1257
  971MOL0     O28075   9.058   3.511   9.910  0.7748 -0.0812  0.0287
  971MOL0     C28076   9.053   3.419   9.802  0.2102 -0.4628  0.6267
  971MOL0     C28077   8.913   3.426   9.727  0.3040  0.0395  0.8309
  971MOL0     C28078   8.842   3.295   9.725 -0.2086 -0.0163  0.4402
  971MOL0     C28079   8.709   3.294   9.639  0.8067  0.2888 -0.5387
  971MOL0     C28080   8.612   3.178   9.674  0.1853  0.5674  0.2060
  971MOL0     C28081   8.684   3.049   9.654  0.4837 -0.0075 -0.9256
  971MOL0     C28082   8.583   2.939   9.690 -0.7987  0.0140  0.1865
  971MOL0     C28083   8.662   2.807   9.642 -0.7052 -0.6574  0.0344
  971MOL0    Cl28084   8.557   2.669   9.648 -0.4881 -0.0071  0.2248
  971MOL0     C28085   9.128   3.734   9.932  0.3560  0.7143 -0.6380
  971MOL0     C28086   9.221   3.831   9.941 -0.7858  1.2649 -0.0101
  971MOL0     O28087   9.432   3.902   9.672  0.2999  0.5310  0.0507
  971MOL0     C28088   9.682   4.098   9.865  0.3237 -0.3366 -0.1010
  971MOL0     C28089   9.810   4.147   9.847 -0.1207  0.5726  0.7204
  971MOL0     N28090  10.110   4.769   9.818 -0.3606 -0.1759 -0.5782
  971MOL0     N28091  10.036   4.817   9.915  0.0182 -0.9035 -0.2646
  971MOL0     C28092   9.430   3.828  10.473 -0.2207  0.4938  0.5229
  971MOL0     C28093   9.393   3.700  10.527  0.1408  0.5096 -0.4447
  971MOL0     C28094   9.157   3.358  10.713  0.2047  0.1008 -0.2910
  971MOL0     C28095   9.039   3.297  10.749 -0.1580 -1.2156  0.4379
  971MOL0     C28096   9.036   3.161  10.787 -0.1870 -0.8088 -0.3547
  971MOL0     C28097   9.155   3.077  10.777  0.0025  0.1956 -0.7760
  971MOL0     O28098   9.161   2.934  10.794 -0.1209 -0.6375  0.8292
  971MOL0     C28099   9.041   2.865  10.836 -0.6760 -0.7815 -0.2111
  971MOL0     C28100   9.059   2.718  10.828 -0.0751 -0.7126 -0.3100
  971MOL0     C28101   9.075   2.678  10.690  0.0971  0.6369  1.1366
  971MOL0     C28102   9.111   2.536  10.671 -0.3655  0.1519 -0.0628
  971MOL0     C28103   9.218   2.482  10.767 -0.6308  0.9725  0.4971
  971MOL0     C28104   9.304   2.463  10.844 -0.3996 -0.7931  0.0293
  971MOL0     C28105   9.272   3.146  10.735 -0.9750  0.3808  0.0600
  971MOL0     C28106   9.276   3.279  10.704  0.2533  0.0519  0.6068
  971MOL0     H28107   9.172   3.796  10.764 -2.0638 -0.4720 -2.2931
  971MOL0     H28108   9.259   4.023  10.676 -1.5964  0.4503 -1.3067
  971MOL0     H28109   9.550   4.052  10.338  2.1569 -0.5597  0.6305
  971MOL0     H28110   9.627   4.054  10.492  3.8512  0.6941 -4.1970
  971MOL0     H28111   9.538   4.302  10.502  1.5010  1.5106 -0.6621
  971MOL0     H28112   9.434   4.265  10.357  0.7339 -3.9648 -3.2426
  971MOL0     H28113   9.653   4.236  10.228 -2.1996  1.5720 -2.8446
  971MOL0     H28114   9.740   4.296  10.365  1.7863 -1.3805 -3.8417
  971MOL0     H28115   9.518   4.482  10.284  0.2950 -1.0960  2.2020
  971MOL0     H28116   9.670   4.521  10.341 -1.0615  1.3103  0.1133
  971MOL0     H28117   9.622   4.543  10.070  0.8149 -0.6459 -1.4058
  971MOL0     H28118   9.660   4.376  10.067  0.9785 -0.8226  1.3091
  971MOL0     H28119   9.870   4.493  10.045  2.3344  1.5308  0.6413
  971MOL0     H28120   9.868   4.461  10.218 -0.5103 -2.4545 -1.3143
  971MOL0     H28121   9.725   4.694  10.212 -0.9393 -1.3203 -0.4187
  971MOL0     H28122   9.901   4.690  10.205  1.1561 -4.4791 -0.3284
  971MOL0     H28123   9.795   4.862  10.057 -0.8400  1.0001 -2.3368
  971MOL0     H28124   9.723   4.749   9.971 -0.1809 -1.2884  0.6216
  971MOL0     H28125   9.860   4.552   9.820 -1.4931  1.1924 -3.2425
  971MOL0     H28126  10.125   4.677   9.574  0.6932 -0.0099  0.5279
  971MOL0     H28127  10.008   4.542   9.576  2.1528 -1.2933 -0.6976
  971MOL0     H28128  10.276   4.540   9.727 -1.0972 -1.4656  1.4489
  971MOL0     H28129  10.250   4.467   9.567 -3.7332  0.6095 -1.9868
  971MOL0     H28130  10.240   4.311   9.742 -1.7366 -1.2276  0.5266
  971MOL0     H28131  10.109   4.398   9.828  0.9137 -0.8353  0.4422
  971MOL0     H28132  10.069   4.277   9.552  1.2189  0.7109  0.4672
  971MOL0     H28133   9.949   4.357   9.669  1.4835  0.8223 -2.9661
  971MOL0     H28134   9.885   4.027   9.535  1.5353  0.2911  1.5308
  971MOL0     H28135   9.665   3.925   9.563  1.3811  1.4155 -1.4162
  971MOL0     H28136   9.499   3.658   9.846  0.4513  0.9873  4.5562
  971MOL0     H28137   9.331   3.471   9.839  1.7752  0.0236  1.0333
  971MOL0     H28138   9.062   3.329   9.865 -1.2631  0.0489  1.6258
  971MOL0     H28139   9.125   3.443   9.723 -1.0496  1.7395  0.0742
  971MOL0     H28140   8.922   3.456   9.622 -3.4633 -0.7283  0.1396
  971MOL0     H28141   8.857   3.512   9.765  3.9693  2.1760  1.8838
  971MOL0     H28142   8.816   3.257   9.824 -0.3869 -2.7062 -0.5572
  971MOL0     H28143   8.904   3.229   9.663 -0.6645 -0.6413  0.6475
  971MOL0     H28144   8.656   3.387   9.662 -0.4900 -0.1780 -1.4697
  971MOL0     H28145   8.737   3.295   9.533 -0.6435 -1.9540 -1.0268
  971MOL0     H28146   8.520   3.170   9.616 -1.0724  0.6738  2.0725
  971MOL0     H28147   8.587   3.190   9.780  0.1806 -1.2884  0.4474
  971MOL0     H28148   8.771   3.048   9.720 -0.7305  0.9404  0.7888
  971MOL0     H28149   8.711   3.047   9.548  2.2002  0.4670 -0.5284
  971MOL0     H28150   8.562   2.935   9.798  2.6042  0.1008  0.9745
  971MOL0     H28151   8.493   2.951   9.629  0.5917 -1.5048 -2.3001
  971MOL0     H28152   8.745   2.770   9.703 -0.0484 -0.1718 -0.5489
  971MOL0     H28153   8.711   2.819   9.545 -2.1848  0.5093 -0.6065
  971MOL0     H28154   9.029   3.768   9.961  0.6843  1.6167 -0.5577
  971MOL0     H28155   9.192   3.927   9.983 -1.8808  0.7592  0.4456
  971MOL0     H28156   9.629   4.107   9.959 -0.7314 -4.0416 -0.1550
  971MOL0     H28157   9.869   4.208   9.914 -0.1222  2.6270 -1.0353
  971MOL0     H28158   9.511   3.824  10.401 -1.3286 -4.6863 -0.8245
  971MOL0     H28159   9.450   3.619  10.482 -0.7214  0.5318 -1.6125
  971MOL0     H28160   8.943   3.347  10.750 -0.8613 -2.4808  2.7962
  971MOL0     H28161   8.937   3.125  10.810  0.7133 -4.4276 -1.4731
  971MOL0     H28162   8.957   2.904  10.779 -0.5827 -0.6773 -0.2778
  971MOL0     H28163   9.036   2.895  10.941 -2.7569  2.2467 -1.0417
  971MOL0     H28164   9.142   2.686  10.892 -0.0266  1.1545  0.6206
  971MOL0     H28165   8.969   2.676  10.873  0.1194  2.0997  3.0826
  971MOL0     H28166   9.163   2.733  10.653  0.1652 -0.6143 -0.7081
  971MOL0     H28167   8.992   2.713  10.629  1.4087  1.4320 -0.2762
  971MOL0     H28168   9.018   2.480  10.688 -0.0812  0.0106  1.1381
  971MOL0     H28169   9.138   2.516  10.567 -0.4682  3.9248 -0.9270
  971MOL0     H28170   9.381   2.447  10.917 -2.3914 -1.2278  2.1623
  971MOL0     H28171   9.358   3.083  10.715 -2.2250 -0.7554 -2.2404
  971MOL0     H28172   9.370   3.328  10.682  0.8462 -0.1417  2.4734
  972MOL0     O28173   6.585  10.932  10.031 -0.4077  0.1899 -0.7544
  972MOL0     C28174   6.628  10.979  10.136  0.1336  0.3258  1.1425
  972MOL0     O28175   6.747  10.936  10.203 -0.1617  0.4052  0.0475
  972MOL0     C28176   6.797  10.827  10.124 -0.0637 -0.7689 -0.1100
  972MOL0     C28177   6.872  10.843  10.008  0.0836  0.1219 -0.6967
  972MOL0     C28178   6.934  10.735   9.948  0.8391 -0.1117  0.3601
  972MOL0     C28179   6.921  10.605  10.002  0.2357  1.1934  0.0529
  972MOL0     O28180   6.993  10.498   9.941 -0.2926 -0.7299  0.0420
  972MOL0     C28181   6.983  10.369   9.991  0.9495 -0.3480  0.1073
  972MOL0     C28182   7.050  10.341  10.125 -0.1895  0.5211 -0.1607
  972MOL0     C28183   7.003  10.209  10.206 -0.3311 -0.0757 -0.5855
  972MOL0     C28184   6.850  10.223  10.238  0.1135 -0.2566 -0.0621
  972MOL0     C28185   6.801  10.098  10.321 -0.0633 -0.6581 -0.2463
  972MOL0     C28186   6.867  10.078  10.461 -0.3850  0.2015  0.1010
  972MOL0     C28187   6.801  10.184  10.557  0.8108  0.1444 -0.0145
  972MOL0     C28188   6.883  10.160  10.689  0.4761  0.1942 -0.4286
  972MOL0     N28189   6.813  10.220  10.804 -0.0279  0.5045 -0.3230
  972MOL0     C28190   6.783  10.359  10.815 -0.1601  0.0982 -0.5347
  972MOL0     C28191   6.730  10.371  10.943  0.5081  0.5550 -0.0125
  972MOL0     C28192   6.684  10.485  11.029  0.1558  0.0349 -1.0434
  972MOL0     C28193   6.548  10.468  11.071  0.0295  0.4966 -0.0731
  972MOL0     C28194   6.438  10.477  10.976 -0.0497 -0.1620  0.2210
  972MOL0     C28195   6.387  10.348  10.903 -0.2279  1.2375 -0.4747
  972MOL0     O28196   6.244  10.348  10.900 -0.1644 -0.0540 -0.6217
  972MOL0     C28197   6.189  10.437  10.816 -0.1499  0.0629 -0.6687
  972MOL0     C28198   6.253  10.510  10.711  0.4110  0.0762 -0.2300
  972MOL0     C28199   6.165  10.593  10.636 -0.1005  0.0658 -0.0421
  972MOL0     C28200   6.028  10.598  10.660  0.5235  0.0071  0.5015
  972MOL0     C28201   5.938  10.682  10.585  0.3324 -0.7969 -0.1402
  972MOL0     O28202   6.001  10.750  10.486  0.3899  0.0800 -0.6368
  972MOL0     C28203   5.924  10.839  10.403 -0.0136  1.1582  0.5468
  972MOL0     C28204   5.787  10.828  10.366 -0.3733 -0.9053 -0.2487
  972MOL0     C28205   5.726  10.940  10.297  0.6896 -0.0935  0.6962
  972MOL0     C28206   5.791  11.051  10.260  0.0883 -0.3066  0.8601
  972MOL0     O28207   5.729  11.145  10.185 -0.0243  0.1503  0.8458
  972MOL0     C28208   5.782  11.272  10.159 -0.5318  0.2132  0.8675
  972MOL0     C28209   5.709  11.335  10.042 -0.5423 -0.1740 -0.0200
  972MOL0     C28210   5.583  11.413  10.096  0.2504  1.0721 -0.3288
  972MOL0     C28211   5.500  11.453   9.977  0.2535 -0.2680 -0.6902
  972MOL0     C28212   5.405  11.559  10.006  0.7791  0.8145 -0.2767
  972MOL0     C28213   5.307  11.516  10.123 -0.3680 -0.6332 -0.6944
  972MOL0     C28214   5.206  11.625  10.156  0.1890  0.0591  0.4818
  972MOL0     C28215   5.273  11.745  10.218  0.2768  0.0309 -0.6579
  972MOL0    Cl28216   5.328  11.705  10.382 -0.4283 -0.0253 -0.4687
  972MOL0     C28217   5.917  11.068  10.312 -0.6145 -0.1988  0.6189
  972MOL0     C28218   5.979  10.966  10.388  0.0627  0.0334  0.3702
  972MOL0     O28219   5.821  10.705  10.620 -1.0560 -0.0719  0.6340
  972MOL0     C28220   5.973  10.513  10.751  0.4745  0.3585 -0.8288
  972MOL0     C28221   6.054  10.430  10.829  0.7464  0.5229  0.6336
  972MOL0     N28222   6.744  10.246  11.007 -0.4050  0.1160  0.0494
  972MOL0     N28223   6.796  10.155  10.930  0.2678 -0.1644  0.5745
  972MOL0     C28224   6.849  10.593  10.121  0.0973  0.0162 -0.8224
  972MOL0     C28225   6.775  10.699  10.180 -1.5260 -0.4371  0.0779
  972MOL0     C28226   6.537  11.078  10.205  0.3242 -0.2273 -0.2895
  972MOL0     C28227   6.426  11.125  10.132 -0.2299 -0.1355 -0.0817
  972MOL0     C28228   6.344  11.232  10.184 -0.8822  0.4957  0.1426
  972MOL0     C28229   6.372  11.274  10.309  0.7449 -0.0446  0.4584
  972MOL0     O28230   6.284  11.362  10.358  0.0949  0.0516 -0.3648
  972MOL0     C28231   6.287  11.397  10.497  0.1974  0.4384  0.6005
  972MOL0     C28232   6.149  11.480  10.508  0.6921 -0.1969  0.0462
  972MOL0     C28233   6.016  11.402  10.495 -0.0767  0.2640  0.5256
  972MOL0     C28234   5.907  11.460  10.590 -0.2205 -0.4399  1.6554
  972MOL0     C28235   5.881  11.593  10.546  0.0024 -0.1159  0.1919
  972MOL0     C28236   5.867  11.713  10.523  0.0357  0.1644  0.1010
  972MOL0     C28237   6.484  11.229  10.379  0.8702 -0.0091  0.3722
  972MOL0     C28238   6.570  11.129  10.328 -0.8884 -0.3973  0.0960
  972MOL0     H28239   6.888  10.940   9.961 -4.3431  1.4385  0.0619
  972MOL0     H28240   7.002  10.760   9.868  3.3072 -1.9360  1.7567
  972MOL0     H28241   7.029  10.314   9.909  0.1833  2.9587 -2.7550
  972MOL0     H28242   6.875  10.351   9.991  0.7337  0.8141  1.4439
  972MOL0     H28243   7.025  10.421  10.196 -2.7593 -1.0657  0.8782
  972MOL0     H28244   7.155  10.334  10.095 -0.6706  0.2961 -1.8548
  972MOL0     H28245   7.055  10.215  10.302 -2.2003  0.5433  0.4462
  972MOL0     H28246   7.032  10.117  10.155  0.4327 -0.9223  1.2779
  972MOL0     H28247   6.824  10.318  10.287  0.2173  1.8775 -3.7337
  972MOL0     H28248   6.800  10.218  10.141 -1.8825  0.9469  0.8310
  972MOL0     H28249   6.804  10.009  10.257 -1.4715  0.3269 -1.7473
  972MOL0     H28250   6.692  10.109  10.330 -0.2645 -2.1823 -0.4639
  972MOL0     H28251   6.975  10.084  10.445 -0.4230 -2.0049 -1.2952
  972MOL0     H28252   6.821   9.986  10.496  1.3788 -0.0845  1.9014
  972MOL0     H28253   6.820  10.285  10.519  0.7970 -0.2819 -1.2029
  972MOL0     H28254   6.693  10.170  10.567  0.5544  0.5166 -1.8601
  972MOL0     H28255   6.985  10.199  10.688  0.6399 -0.1285  0.8702
  972MOL0     H28256   6.909  10.054  10.701 -0.9055 -0.3856 -2.1655
  972MOL0     H28257   6.791  10.428  10.732  0.3211 -1.2106 -1.6066
  972MOL0     H28258   6.684  10.584  10.982  0.1339  1.7299  2.2225
  972MOL0     H28259   6.740  10.484  11.123  0.1428 -0.4714 -1.0385
  972MOL0     H28260   6.536  10.553  11.139  1.8215 -0.4657  1.5763
  972MOL0     H28261   6.543  10.378  11.133  1.7775  0.5247  0.1547
  972MOL0     H28262   6.360  10.520  11.039  0.4122  0.2175  0.5320
  972MOL0     H28263   6.465  10.542  10.893  0.7493 -0.6290  0.1078
  972MOL0     H28264   6.429  10.259  10.952  0.4218  1.5588 -0.4267
  972MOL0     H28265   6.433  10.344  10.803  2.4990 -1.1879  0.7165
  972MOL0     H28266   6.358  10.522  10.688  0.9270  0.5838  2.1129
  972MOL0     H28267   6.212  10.657  10.562 -0.6045 -1.4067 -1.7195
  972MOL0     H28268   5.724  10.749  10.406 -1.5916  0.5092  0.7351
  972MOL0     H28269   5.626  10.939  10.256  1.0958  0.1071 -0.3347
  972MOL0     H28270   5.888  11.271  10.129 -0.5641  2.2241  0.5864
  972MOL0     H28271   5.790  11.339  10.245  5.4535  1.9790 -0.5287
  972MOL0     H28272   5.689  11.254   9.972  1.1952  0.5444 -1.4341
  972MOL0     H28273   5.787  11.385   9.984 -0.9181 -1.3952 -1.6456
  972MOL0     H28274   5.607  11.501  10.157 -2.0539  0.8453  1.0229
  972MOL0     H28275   5.535  11.331  10.150  2.4069 -1.2091 -1.6311
  972MOL0     H28276   5.574  11.484   9.902  1.8929 -1.3818  0.3812
  972MOL0     H28277   5.450  11.364   9.939  0.0375 -0.9152  1.0006
  972MOL0     H28278   5.350  11.587   9.916  1.4885  0.3180 -0.8813
  972MOL0     H28279   5.469  11.643  10.035  0.0143  2.1193 -2.1927
  972MOL0     H28280   5.366  11.478  10.207  1.4434 -1.1074 -2.1188
  972MOL0     H28281   5.249  11.430  10.090 -3.5641  1.1420 -0.1486
  972MOL0     H28282   5.159  11.656  10.062  0.8430  1.2957  0.5334
  972MOL0     H28283   5.125  11.577  10.210  0.7628 -1.1898  0.2565
  972MOL0     H28284   5.213  11.837  10.224 -0.3192 -0.4353  1.0382
  972MOL0     H28285   5.364  11.766  10.161  0.4238 -2.5837 -1.4980
  972MOL0     H28286   5.974  11.157  10.289  2.9279 -1.6374  2.9541
  972MOL0     H28287   6.080  10.986  10.423  0.5542  1.8135 -1.8104
  972MOL0     H28288   5.868  10.511  10.777  0.5313 -0.7098 -0.6030
  972MOL0     H28289   6.005  10.366  10.902  2.2491 -1.6392 -0.1679
  972MOL0     H28290   6.841  10.491  10.156 -1.1437  0.0892 -0.8594
  972MOL0     H28291   6.730  10.679  10.277 -2.5961 -1.9118 -0.6796
  972MOL0     H28292   6.411  11.079  10.035  3.0411  1.4093 -1.4772
  972MOL0     H28293   6.257  11.262  10.125 -2.4267 -2.5498  0.6468
  972MOL0     H28294   6.381  11.441  10.531  0.8455 -1.1775  0.9903
  972MOL0     H28295   6.270  11.306  10.555  0.5207 -0.1908 -0.2670
  972MOL0     H28296   6.157  11.529  10.606  5.6280  1.2726 -0.8047
  972MOL0     H28297   6.145  11.558  10.431 -2.7425  0.7890  1.0573
  972MOL0     H28298   6.031  11.296  10.518 -4.3759 -0.5942  0.1700
  972MOL0     H28299   6.000  11.406  10.387 -0.3536 -2.0801  0.4341
  972MOL0     H28300   5.818  11.397  10.592 -0.8417  0.3368  0.1511
  972MOL0     H28301   5.955  11.462  10.688 -0.0280 -2.9075  1.6817
  972MOL0     H28302   5.849  11.808  10.478  0.4290  0.3927  0.4189
  972MOL0     H28303   6.509  11.286  10.468  1.5360  0.0695  0.1435
  972MOL0     H28304   6.664  11.112  10.380  0.6168  2.0294 -1.5834
  973MOL0     O28305   5.862  10.943   0.561  0.0376  0.5891 -0.2022
  973MOL0     C28306   5.883  10.916   0.687  0.0975 -0.7191  0.0480
  973MOL0     O28307   5.790  10.904   0.789 -0.2216  0.0683 -0.0556
  973MOL0     C28308   5.668  10.966   0.783  0.0008  0.0455 -0.5238
  973MOL0     C28309   5.556  10.910   0.846  0.3931 -0.0922  0.4235
  973MOL0     C28310   5.430  10.972   0.853 -0.0200  0.0277  0.4707
  973MOL0     C28311   5.410  11.098   0.792  0.4219  0.0994  0.5532
  973MOL0     O28312   5.288  11.156   0.809  0.4259  0.0329 -0.6369
  973MOL0     C28313   5.298  11.272   0.898  0.4252  0.0492 -0.0450
  973MOL0     C28314   5.166  11.343   0.926  0.3163 -0.6414 -0.0832
  973MOL0     C28315   5.070  11.366   0.804  0.3943  0.0118  0.9072
  973MOL0     C28316   4.941  11.443   0.840  0.0424  1.2019  0.5992
  973MOL0     C28317   4.955  11.594   0.847 -0.2273 -0.1711 -0.3307
  973MOL0     C28318   4.825  11.675   0.848  0.4483  0.2846  0.7700
  973MOL0     C28319   4.756  11.679   0.703  0.6258  0.1118  1.2387
  973MOL0     C28320   4.838  11.779   0.623 -0.4042 -0.9850  0.0447
  973MOL0     N28321   4.774  11.913   0.611 -0.0132  0.1775  0.2963
  973MOL0     C28322   4.725  11.977   0.498  0.5718 -0.2347  1.1470
  973MOL0     C28323   4.670  12.092   0.529 -0.0497 -0.2779 -0.9409
  973MOL0     C28324   4.595  12.173   0.423  0.0808 -0.3987  0.7806
  973MOL0     C28325   4.530  12.297   0.484 -0.4308  0.0544  0.5573
  973MOL0     C28326   4.462  12.402   0.385  0.6842 -0.1947  0.1802
  973MOL0     C28327   4.366  12.334   0.290 -0.6692  0.3277  0.5629
  973MOL0     O28328   4.341  12.428   0.187  1.0668  0.8282  0.6538
  973MOL0     C28329   4.205  12.447   0.156  0.3873  0.3327 -1.2101
  973MOL0     C28330   4.119  12.336   0.130  0.0145 -0.3688 -0.8757
  973MOL0     C28331   3.988  12.371   0.088 -0.8132  0.3470 -0.3704
  973MOL0     C28332   3.945  12.506   0.093  0.8170  0.3410  0.5447
  973MOL0     C28333   3.807  12.538   0.049  0.5173  1.3936 -0.2940
  973MOL0     O28334   3.747  12.666   0.072 -0.4233  0.3786 -0.5789
  973MOL0     C28335   3.631  12.715   0.022  0.3412  0.5395 -0.3378
  973MOL0     C28336   3.523  12.626   0.002  0.6339  0.7476  0.4427
  973MOL0     C28337   3.404  12.667  -0.053 -0.8517  0.7459  0.6434
  973MOL0     C28338   3.392  12.802  -0.100  0.5600 -0.0758 -0.9514
  973MOL0     O28339   3.281  12.854  -0.167  0.2329  0.3575  0.4809
  973MOL0     C28340   3.163  12.829  -0.094 -0.4722 -0.3612  0.6190
  973MOL0     C28341   3.059  12.915  -0.150  0.6772  0.3393  0.6039
  973MOL0     C28342   2.940  12.916  -0.065  0.2671  0.4065 -1.0749
  973MOL0     C28343   2.813  12.957  -0.130 -0.3150 -0.5048 -0.5260
  973MOL0     C28344   2.771  12.871  -0.252 -0.7051 -0.0926 -0.4495
  973MOL0     C28345   2.795  12.720  -0.244 -0.4169 -0.5183  0.1910
  973MOL0     C28346   2.703  12.659  -0.340  0.5326  1.0961  0.0498
  973MOL0     C28347   2.719  12.515  -0.342  0.4749 -0.2640 -0.3697
  973MOL0    Cl28348   2.601  12.447  -0.465  0.3950 -0.5610  0.1980
  973MOL0     C28349   3.496  12.886  -0.079  0.3574  0.1617  0.0578
  973MOL0     C28350   3.613  12.846  -0.016 -0.1179 -0.1230 -0.0143
  973MOL0     O28351   3.759  12.447  -0.017 -0.5158  0.5655 -0.1628
  973MOL0     C28352   4.026  12.609   0.125 -0.5063 -0.3821 -0.3840
  973MOL0     C28353   4.161  12.578   0.151 -0.9515  0.0295  0.5139
  973MOL0     N28354   4.684  12.108   0.665 -1.1647 -0.7235 -0.2987
  973MOL0     N28355   4.751  12.010   0.711  0.0210 -0.0442 -0.0331
  973MOL0     C28356   5.519  11.146   0.727 -0.3956  1.0922  0.0466
  973MOL0     C28357   5.645  11.088   0.724  0.5963  1.1426  0.7204
  973MOL0     C28358   6.019  10.902   0.737 -0.2050 -0.9194 -0.0330
  973MOL0     C28359   6.046  10.885   0.873 -1.4520  0.1012  0.4114
  973MOL0     C28360   6.185  10.893   0.922 -0.3212 -0.2577 -0.1965
  973MOL0     C28361   6.287  10.922   0.834  0.5244 -0.3043  0.1835
  973MOL0     O28362   6.417  10.934   0.886  0.0933 -0.0342  0.0880
  973MOL0     C28363   6.527  10.959   0.793 -0.2864 -0.5250 -1.1882
  973MOL0     C28364   6.654  10.976   0.876 -0.6574 -0.2440 -0.8116
  973MOL0     C28365   6.777  10.988   0.777  0.2981 -0.7177  0.6849
  973MOL0     C28366   6.905  10.950   0.838 -1.0294 -0.0884  0.4697
  973MOL0     C28367   6.916  10.807   0.872  0.2904 -0.5490 -0.8757
  973MOL0     C28368   6.905  10.689   0.906  0.0362 -0.0408  0.1136
  973MOL0     C28369   6.249  10.935   0.696 -0.7343 -0.8924 -1.2501
  973MOL0     C28370   6.124  10.917   0.648  0.1897  0.7863 -0.2380
  973MOL0     H28371   5.565  10.807   0.879 -0.5772 -1.3514 -2.8469
  973MOL0     H28372   5.339  10.920   0.880 -0.1673 -1.6942 -2.8466
  973MOL0     H28373   5.377  11.340   0.864  0.7715 -0.1354  0.3817
  973MOL0     H28374   5.332  11.236   0.996 -0.8303  0.7311  0.6727
  973MOL0     H28375   5.191  11.443   0.963  0.9590 -0.0693 -1.9306
  973MOL0     H28376   5.114  11.284   1.002 -3.3892  1.5672 -0.6518
  973MOL0     H28377   5.042  11.265   0.774 -0.9173  0.5639  0.2154
  973MOL0     H28378   5.104  11.428   0.721  0.5864  1.8654  2.3051
  973MOL0     H28379   4.872  11.419   0.759  2.4693 -2.9430 -0.5984
  973MOL0     H28380   4.884  11.404   0.925  0.6193 -1.2818 -0.0628
  973MOL0     H28381   5.014  11.625   0.760 -1.9477 -0.7350 -1.7710
  973MOL0     H28382   5.014  11.617   0.936  0.0146  2.2289 -1.0325
  973MOL0     H28383   4.849  11.776   0.884  3.1831 -0.1386  0.3595
  973MOL0     H28384   4.751  11.634   0.917  0.1123  2.7664  1.9947
  973MOL0     H28385   4.756  11.576   0.664 -1.1241  0.4467  0.2803
  973MOL0     H28386   4.654  11.716   0.716  0.1041 -0.8581  0.1365
  973MOL0     H28387   4.875  11.751   0.524 -0.3400  1.8057 -0.8125
  973MOL0     H28388   4.930  11.806   0.675  0.5821  0.0556 -2.1239
  973MOL0     H28389   4.712  11.940   0.397 -0.8863  0.4887  1.0546
  973MOL0     H28390   4.528  12.099   0.378  1.4901  0.2648 -2.6672
  973MOL0     H28391   4.661  12.206   0.343 -0.6987  0.2585  0.3986
  973MOL0     H28392   4.615  12.343   0.536  0.8015 -0.4813 -0.8971
  973MOL0     H28393   4.459  12.269   0.563  0.0330  0.1596  1.0213
  973MOL0     H28394   4.407  12.480   0.438  5.1630  4.7873 -1.6431
  973MOL0     H28395   4.543  12.452   0.332  1.2313 -0.0485  1.1379
  973MOL0     H28396   4.274  12.300   0.339 -1.5864 -0.4354 -1.5919
  973MOL0     H28397   4.404  12.248   0.234  2.0044  1.8371 -0.1004
  973MOL0     H28398   4.157  12.236   0.151  0.9310  0.7336  3.6482
  973MOL0     H28399   3.924  12.290   0.054  1.2720 -1.1558 -0.9392
  973MOL0     H28400   3.528  12.519   0.021 -1.1520  0.8543  1.7445
  973MOL0     H28401   3.326  12.592  -0.063  0.8440 -1.0423  0.2679
  973MOL0     H28402   3.181  12.864   0.009 -2.9613 -4.2291  2.6204
  973MOL0     H28403   3.147  12.722  -0.106 -1.9713 -0.0065 -0.7520
  973MOL0     H28404   3.040  12.877  -0.251  1.9916  1.6307 -0.1651
  973MOL0     H28405   3.082  13.018  -0.180  1.0477 -0.4489 -2.0682
  973MOL0     H28406   2.950  12.988   0.017  0.4350  2.1720 -2.5840
  973MOL0     H28407   2.926  12.820  -0.013 -2.1706  1.2979  0.0550
  973MOL0     H28408   2.740  12.973  -0.051  0.8255 -0.3470  0.5322
  973MOL0     H28409   2.830  13.056  -0.172  0.9606 -0.2112  0.6147
  973MOL0     H28410   2.818  12.918  -0.339 -1.4186 -2.6732 -2.3304
  973MOL0     H28411   2.665  12.883  -0.275 -1.0370  1.1159  1.5202
  973MOL0     H28412   2.770  12.695  -0.140  3.3257  2.3404  2.0092
  973MOL0     H28413   2.896  12.689  -0.270  1.0383  2.1075  2.2321
  973MOL0     H28414   2.597  12.679  -0.318  0.2597  0.2182 -0.4108
  973MOL0     H28415   2.739  12.694  -0.437  1.2537 -0.0963 -0.1309
  973MOL0     H28416   2.685  12.473  -0.247  0.2796  1.9975  0.6190
  973MOL0     H28417   2.823  12.486  -0.360  1.4908  1.9510  1.3764
  973MOL0     H28418   3.482  12.982  -0.127 -0.7191 -1.8313 -4.0830
  973MOL0     H28419   3.686  12.922   0.009  1.0026 -0.9927 -0.5794
  973MOL0     H28420   3.997  12.712   0.107 -1.2079 -0.0885  2.0809
  973MOL0     H28421   4.233  12.659   0.164 -1.1331  0.2661  0.0586
  973MOL0     H28422   5.531  11.242   0.677  1.5897  0.8530  0.0090
  973MOL0     H28423   5.731  11.133   0.676  0.9808 -0.2311  0.0778
  973MOL0     H28424   5.965  10.877   0.944 -2.6152  0.9374 -0.7680
  973MOL0     H28425   6.210  10.867   1.024 -0.8073  1.3153  0.3421
  973MOL0     H28426   6.514  11.040   0.721 -1.4000  1.5965  1.2552
  973MOL0     H28427   6.537  10.862   0.742  1.4536 -1.0773  0.0876
  973MOL0     H28428   6.656  11.064   0.941 -1.1144 -0.1336 -0.9417
  973MOL0     H28429   6.661  10.885   0.935  0.0601 -0.0399 -0.5635
  973MOL0     H28430   6.778  11.088   0.733  0.1378  0.0292  2.3464
  973MOL0     H28431   6.774  10.922   0.689 -1.7674 -0.7946  0.7746
  973MOL0     H28432   6.982  10.974   0.763 -0.0594  0.9016  1.7370
  973MOL0     H28433   6.925  11.024   0.916 -0.9854  2.6526 -1.9676
  973MOL0     H28434   6.894  10.590   0.946 -1.0949  0.3835  0.9240
  973MOL0     H28435   6.335  10.956   0.634 -0.0208  0.8496  0.2501
  973MOL0     H28436   6.089  10.934   0.547 -0.2160  2.7678  0.1937
  974MOL0     O28437   9.434   2.516   4.919 -0.6201  0.1035  0.4391
  974MOL0     C28438   9.540   2.527   4.976 -0.2537 -0.2241 -0.2142
  974MOL0     O28439   9.558   2.565   5.107  0.8281  0.0849 -0.3430
  974MOL0     C28440   9.447   2.587   5.183  0.2683  0.0732  0.2954
  974MOL0     C28441   9.398   2.713   5.201 -0.4195 -0.1405  0.1351
  974MOL0     C28442   9.271   2.736   5.254 -0.1763  0.5580 -0.1625
  974MOL0     C28443   9.193   2.628   5.288  0.0735  0.5913  0.0886
  974MOL0     O28444   9.055   2.637   5.310  0.6248  0.2963  0.8108
  974MOL0     C28445   8.995   2.767   5.315  0.3637  0.2787 -0.2473
  974MOL0     C28446   8.849   2.726   5.277  0.0222 -0.1736 -1.5754
  974MOL0     C28447   8.742   2.837   5.294 -0.2879  0.2671 -0.1524
  974MOL0     C28448   8.602   2.774   5.249 -0.4657 -0.1409  0.3686
  974MOL0     C28449   8.488   2.877   5.256  0.2051  0.5316  0.4728
  974MOL0     C28450   8.346   2.808   5.274 -0.1984 -0.0989  0.0060
  974MOL0     C28451   8.245   2.917   5.280 -0.0572  0.6411  0.7595
  974MOL0     C28452   8.156   2.923   5.152  0.5522 -0.3600  0.1738
  974MOL0     N28453   8.044   3.020   5.190 -0.1938  0.0469  1.7694
  974MOL0     C28454   7.905   2.992   5.221  0.1775 -0.6097  0.2908
  974MOL0     C28455   7.871   3.106   5.294  0.1020  0.4641 -0.2094
  974MOL0     C28456   7.747   3.123   5.373 -0.0706  0.3336 -0.1400
  974MOL0     C28457   7.734   3.060   5.506 -1.2650 -0.5884  0.1219
  974MOL0     C28458   7.821   3.118   5.615 -0.0176  0.0288 -0.2925
  974MOL0     C28459   7.770   3.246   5.668 -0.5838  0.9612 -0.7637
  974MOL0     O28460   7.646   3.223   5.739  0.2616  0.2516  0.1418
  974MOL0     C28461   7.577   3.312   5.819  0.7800  1.1165  0.1624
  974MOL0     C28462   7.471   3.264   5.904  0.1468 -0.4809  0.1233
  974MOL0     C28463   7.402   3.357   5.984  0.1713 -0.5011  0.5095
  974MOL0     C28464   7.429   3.489   5.980 -0.3130 -0.2308 -0.7244
  974MOL0     C28465   7.359   3.588   6.078  0.0511  0.0726 -0.6224
  974MOL0     O28466   7.286   3.539   6.188 -0.9517 -1.6535 -0.0403
  974MOL0     C28467   7.191   3.620   6.262 -0.0314  0.3535 -0.1734
  974MOL0     C28468   7.121   3.558   6.360  0.0167 -0.0558  0.2395
  974MOL0     C28469   7.034   3.624   6.447 -0.8464  0.4599  0.1395
  974MOL0     C28470   7.003   3.760   6.421  1.1212  0.0384 -0.7710
  974MOL0     O28471   6.906   3.825   6.497 -0.1290  0.6904 -0.6091
  974MOL0     C28472   6.826   3.750   6.601 -1.5997 -0.6759 -0.2414
  974MOL0     C28473   6.742   3.863   6.659  0.3273 -0.1142  0.7542
  974MOL0     C28474   6.790   3.902   6.797 -0.0075  1.1054  0.2015
  974MOL0     C28475   6.715   4.024   6.867  0.0745 -0.4623  0.3187
  974MOL0     C28476   6.552   4.011   6.841 -0.2167 -0.2119  0.4166
  974MOL0     C28477   6.491   4.150   6.852  0.1100  1.0456 -0.4467
  974MOL0     C28478   6.341   4.142   6.895  0.8177 -0.0110 -0.5595
  974MOL0     C28479   6.278   4.279   6.918 -0.5231  0.6106  0.0634
  974MOL0    Cl28480   6.365   4.368   7.051  0.2276 -0.2463 -0.0636
  974MOL0     C28481   7.062   3.824   6.309  0.1713  0.2401 -0.0229
  974MOL0     C28482   7.163   3.752   6.240  0.4664 -0.6067  0.2336
  974MOL0     O28483   7.381   3.708   6.052 -0.1570  0.1431 -0.4024
  974MOL0     C28484   7.534   3.540   5.899 -0.5166  0.5254  0.5718
  974MOL0     C28485   7.615   3.451   5.818  0.5202  0.1062  1.0681
  974MOL0     N28486   7.973   3.193   5.291 -0.1385 -0.2943 -0.5565
  974MOL0     N28487   8.080   3.144   5.238 -0.0982  0.4656  0.4159
  974MOL0     C28488   9.246   2.499   5.277  0.3562  0.3845  0.3192
  974MOL0     C28489   9.369   2.478   5.226 -0.2467 -0.2838  0.0650
  974MOL0     C28490   9.666   2.506   4.903 -0.0002  0.3837 -0.4866
  974MOL0     C28491   9.666   2.556   4.768  0.5406 -0.2729 -0.3833
  974MOL0     C28492   9.777   2.538   4.692 -0.3268  0.6154 -0.8094
  974MOL0     C28493   9.888   2.461   4.728  0.4560  0.0394 -0.1353
  974MOL0     O28494   9.996   2.432   4.652  0.6601 -0.2358 -1.0003
  974MOL0     C28495  10.004   2.468   4.518  1.5239  0.5198  0.0509
  974MOL0     C28496  10.077   2.592   4.482 -0.2259  0.3396  0.0129
  974MOL0     C28497  10.024   2.728   4.547 -0.3751 -0.5455  0.4427
  974MOL0     C28498  10.138   2.830   4.562 -1.9592  0.2659  0.6618
  974MOL0     C28499  10.180   2.869   4.428  0.9157  0.0793 -0.0916
  974MOL0     C28500  10.224   2.895   4.317 -0.0800 -0.1389 -0.9951
  974MOL0     C28501   9.882   2.401   4.854 -0.5111  0.6123 -1.0926
  974MOL0     C28502   9.775   2.429   4.941 -0.1553 -0.0105 -0.3540
  974MOL0     H28503   9.455   2.802   5.180 -0.9520  0.7832  2.3961
  974MOL0     H28504   9.236   2.838   5.261 -2.2680 -0.0531 -1.0076
  974MOL0     H28505   9.032   2.843   5.246 -0.1525 -0.6340 -1.5676
  974MOL0     H28506   9.011   2.795   5.420  0.9340 -0.6863 -0.0619
  974MOL0     H28507   8.829   2.634   5.332 -3.9125  0.4846 -1.5921
  974MOL0     H28508   8.850   2.686   5.175 -1.2672 -1.8484 -0.9849
  974MOL0     H28509   8.781   2.915   5.228 -1.8001 -0.8604 -2.4785
  974MOL0     H28510   8.739   2.861   5.401  0.1174 -1.4657  0.2773
  974MOL0     H28511   8.622   2.748   5.144  0.5325  0.5090  0.3834
  974MOL0     H28512   8.585   2.689   5.316  0.1902  1.0721  2.1441
  974MOL0     H28513   8.493   2.930   5.160  0.7282 -1.6294 -0.7388
  974MOL0     H28514   8.501   2.944   5.342  1.8074 -1.3278  1.7516
  974MOL0     H28515   8.334   2.763   5.373 -1.9116 -2.5014 -1.1771
  974MOL0     H28516   8.326   2.733   5.197  0.6014  0.4598 -0.7630
  974MOL0     H28517   8.192   2.902   5.374  0.1251 -0.8294  0.6485
  974MOL0     H28518   8.299   3.011   5.296  0.8898  0.2194  0.1592
  974MOL0     H28519   8.106   2.828   5.129 -1.3919 -0.1376  2.9081
  974MOL0     H28520   8.217   2.950   5.065  1.7128 -1.2159  0.6916
  974MOL0     H28521   7.850   2.900   5.204 -0.5472 -0.6496  2.4543
  974MOL0     H28522   7.664   3.084   5.313 -0.7673  4.0319 -1.8132
  974MOL0     H28523   7.729   3.230   5.384  0.4497  0.4182 -0.1227
  974MOL0     H28524   7.754   2.954   5.490  1.5136 -0.2457  0.8154
  974MOL0     H28525   7.629   3.076   5.531 -0.4139  2.2531  2.6650
  974MOL0     H28526   7.823   3.050   5.701 -0.2536  1.6333  1.0133
  974MOL0     H28527   7.926   3.126   5.583 -0.3729  0.3228 -1.4207
  974MOL0     H28528   7.754   3.322   5.591 -2.6289  0.1187 -1.2371
  974MOL0     H28529   7.851   3.289   5.729  0.7232 -1.6967 -0.4359
  974MOL0     H28530   7.468   3.156   5.905 -0.5644 -0.4687 -0.0864
  974MOL0     H28531   7.328   3.320   6.055  1.2484  1.5490  2.8393
  974MOL0     H28532   7.140   3.453   6.379 -0.3043 -0.1408  0.0968
  974MOL0     H28533   6.983   3.575   6.530 -0.9296 -1.5117 -1.0069
  974MOL0     H28534   6.891   3.703   6.675 -0.6531  1.2474  0.2025
  974MOL0     H28535   6.774   3.666   6.555  1.3912 -2.6573 -0.2910
  974MOL0     H28536   6.645   3.813   6.665  2.0154 -3.5714  1.9068
  974MOL0     H28537   6.744   3.944   6.585  3.0906 -1.4317 -0.8083
  974MOL0     H28538   6.898   3.919   6.785  0.5640 -0.1250  2.8637
  974MOL0     H28539   6.769   3.812   6.856 -3.0526 -0.1200 -2.4595
  974MOL0     H28540   6.741   4.030   6.973 -1.8599 -1.9437  0.9523
  974MOL0     H28541   6.742   4.118   6.820  0.4570  1.2630  3.6878
  974MOL0     H28542   6.509   3.939   6.911 -3.6121 -0.9379 -2.1542
  974MOL0     H28543   6.527   3.974   6.741 -0.0951 -1.4023  0.8164
  974MOL0     H28544   6.500   4.194   6.753 -2.4509 -1.1009 -1.7458
  974MOL0     H28545   6.544   4.219   6.920  0.4397  0.8320 -0.4826
  974MOL0     H28546   6.286   4.089   6.817 -0.9624  0.9643 -0.0446
  974MOL0     H28547   6.344   4.099   6.995  0.5875  1.3620  0.0626
  974MOL0     H28548   6.172   4.277   6.946 -0.5015  3.0061  0.5474
  974MOL0     H28549   6.291   4.343   6.830 -1.5725  2.1824  0.9949
  974MOL0     H28550   7.049   3.927   6.275 -0.0468 -0.2090 -1.3439
  974MOL0     H28551   7.211   3.810   6.162  0.9212 -0.4598  0.6191
  974MOL0     H28552   7.565   3.644   5.892  0.4811  0.1735 -0.6665
  974MOL0     H28553   7.697   3.497   5.763 -1.4278  0.1285 -2.0191
  974MOL0     H28554   9.170   2.426   5.301 -1.3782  2.5097  1.6308
  974MOL0     H28555   9.406   2.381   5.192 -1.9943 -0.6876 -0.7460
  974MOL0     H28556   9.600   2.630   4.724  4.1920  2.4818 -1.7581
  974MOL0     H28557   9.776   2.587   4.595  0.3173 -0.9865 -1.6599
  974MOL0     H28558   9.905   2.472   4.474  2.2507  0.3004 -1.6611
  974MOL0     H28559  10.041   2.387   4.455 -4.3321 -2.9409  0.3568
  974MOL0     H28560  10.181   2.565   4.506 -0.3031 -1.3769 -1.3247
  974MOL0     H28561  10.067   2.606   4.374  1.3289 -0.0748 -0.2124
  974MOL0     H28562   9.994   2.698   4.647  0.6424 -3.9587 -0.1598
  974MOL0     H28563   9.941   2.758   4.482  1.0838 -1.7155 -2.1059
  974MOL0     H28564  10.118   2.924   4.615  0.6535  2.5195 -2.0143
  974MOL0     H28565  10.218   2.796   4.628 -0.6428  1.3895 -0.3049
  974MOL0     H28566  10.247   2.893   4.212  0.0290 -3.0175 -0.9790
  974MOL0     H28567   9.955   2.331   4.894 -1.8641 -1.2230 -1.6376
  974MOL0     H28568   9.770   2.381   5.038  1.6663  1.5836  0.6192
  975MOL0     O28569   0.125   7.454   8.996  0.7390  0.3220 -0.2617
  975MOL0     C28570   0.180   7.350   8.980  0.4219 -0.4984 -0.2356
  975MOL0     O28571   0.166   7.262   8.870  0.0951 -0.2788 -0.6914
  975MOL0     C28572   0.081   7.300   8.761 -1.1980  0.0220  0.4870
  975MOL0     C28573  -0.038   7.367   8.767 -0.6869  0.1895  0.2859
  975MOL0     C28574  -0.109   7.412   8.646 -0.4109  0.1074 -0.1429
  975MOL0     C28575  -0.071   7.353   8.522 -0.4287 -0.7385 -0.8416
  975MOL0     O28576  -0.151   7.382   8.408  0.0060  0.0747 -0.3358
  975MOL0     C28577  -0.127   7.318   8.281  0.0383 -0.4219 -0.0768
  975MOL0     C28578  -0.242   7.327   8.193  0.4919  0.7254  0.0182
  975MOL0     C28579  -0.237   7.231   8.065  0.4167 -0.0222 -0.7408
  975MOL0     C28580  -0.110   7.239   7.982  0.3432  0.3200  0.2716
  975MOL0     C28581  -0.094   7.137   7.867 -0.5521 -0.3373 -0.4157
  975MOL0     C28582  -0.126   6.992   7.907 -0.4245  0.0112  0.8531
  975MOL0     C28583  -0.151   6.909   7.783  0.7152 -0.0177 -0.4151
  975MOL0     C28584  -0.021   6.884   7.697 -0.0962  0.6529 -0.7554
  975MOL0     N28585  -0.059   6.828   7.567  0.4277 -0.3613 -0.4804
  975MOL0     C28586  -0.096   6.705   7.535 -0.4580 -0.2602  0.8228
  975MOL0     C28587  -0.141   6.699   7.403 -0.0852  0.3445 -0.5321
  975MOL0     C28588  -0.207   6.599   7.317  0.8502  0.0615 -0.1999
  975MOL0     C28589  -0.341   6.553   7.352  0.7166 -0.0893  0.1379
  975MOL0     C28590  -0.357   6.434   7.255 -0.0359 -0.0430  1.2941
  975MOL0     C28591  -0.504   6.380   7.251  0.0196 -0.1713  0.1119
  975MOL0     O28592  -0.506   6.240   7.275  0.3856  0.6255  0.3282
  975MOL0     C28593  -0.493   6.155   7.169 -0.2205 -0.5883  0.0478
  975MOL0     C28594  -0.527   6.024   7.191  0.2682 -0.5068  0.0698
  975MOL0     C28595  -0.498   5.927   7.092  0.5877 -0.3073 -0.2300
  975MOL0     C28596  -0.467   5.966   6.960 -0.1603  0.0576 -0.4574
  975MOL0     C28597  -0.480   5.870   6.852 -0.6535 -0.2088  0.1038
  975MOL0     O28598  -0.480   5.922   6.724 -0.6927  0.9086 -0.2003
  975MOL0     C28599  -0.475   5.832   6.621  0.4476  0.3899  0.2241
  975MOL0     C28600  -0.585   5.744   6.593 -0.4127 -0.7379  0.1436
  975MOL0     C28601  -0.588   5.659   6.482  0.4305  0.3939  0.1365
  975MOL0     C28602  -0.478   5.655   6.400 -0.0714 -0.1928  0.4843
  975MOL0     O28603  -0.491   5.578   6.287 -0.6399  0.3612  0.7135
  975MOL0     C28604  -0.366   5.526   6.232  0.7369 -0.5909 -0.1748
  975MOL0     C28605  -0.387   5.432   6.118 -0.8805  0.6031  0.8297
  975MOL0     C28606  -0.415   5.295   6.171  0.8357 -0.2481  0.0874
  975MOL0     C28607  -0.289   5.206   6.202  0.9168 -0.1474 -0.9087
  975MOL0     C28608  -0.314   5.056   6.248  0.6784  0.1209  0.3435
  975MOL0     C28609  -0.180   4.987   6.253 -0.3635  0.2543 -0.7316
  975MOL0     C28610  -0.190   4.843   6.294 -0.0773  0.1397  0.5737
  975MOL0     C28611  -0.064   4.760   6.267 -0.3969  0.6189  0.4407
  975MOL0    Cl28612  -0.113   4.588   6.211 -0.3280  0.1418 -0.0669
  975MOL0     C28613  -0.360   5.723   6.439  0.2429 -0.4359 -0.7842
  975MOL0     C28614  -0.366   5.814   6.540 -0.7940  0.0282  0.8405
  975MOL0     O28615  -0.498   5.749   6.885  0.0265 -0.0315 -0.3988
  975MOL0     C28616  -0.448   6.102   6.935 -0.6172 -1.1132 -0.4269
  975MOL0     C28617  -0.451   6.201   7.039 -1.0218  0.0387  0.0832
  975MOL0     N28618  -0.139   6.829   7.364  0.9405  0.2325  0.7601
  975MOL0     N28619  -0.100   6.905   7.464  0.6326 -0.5700 -0.3391
  975MOL0     C28620   0.044   7.274   8.524 -0.2824 -0.0283  0.3529
  975MOL0     C28621   0.126   7.252   8.639 -0.4559  0.4699  0.3105
  975MOL0     C28622   0.285   7.320   9.087  0.0496  1.1436 -0.5810
  975MOL0     C28623   0.379   7.208   9.064  0.2635  0.0674  0.4645
  975MOL0     C28624   0.483   7.180   9.153  0.0114  0.5077 -0.3311
  975MOL0     C28625   0.474   7.249   9.277 -0.4870  0.0748  0.5437
  975MOL0     O28626   0.579   7.227   9.367 -0.2235  0.6949  0.1058
  975MOL0     C28627   0.700   7.146   9.334 -0.5846 -0.5043 -0.0094
  975MOL0     C28628   0.814   7.240   9.278  1.2141  1.0674  0.0218
  975MOL0     C28629   0.877   7.330   9.387  1.4232 -1.1106 -0.2236
  975MOL0     C28630   0.985   7.428   9.315  0.8418  0.2310  0.6739
  975MOL0     C28631   0.921   7.531   9.233  0.5682 -0.5765  1.6188
  975MOL0     C28632   0.855   7.619   9.164  0.5685  0.0769 -0.1196
  975MOL0     C28633   0.373   7.343   9.307  0.6546 -0.4485  0.4853
  975MOL0     C28634   0.281   7.384   9.215 -0.3690 -0.6071  0.1410
  975MOL0     H28635  -0.075   7.391   8.867 -2.6465  1.9255 -0.7715
  975MOL0     H28636  -0.195   7.478   8.647  0.8113  1.7625 -0.3444
  975MOL0     H28637  -0.118   7.212   8.304  2.4516 -0.3878 -0.6695
  975MOL0     H28638  -0.040   7.364   8.235 -1.2854 -1.6355 -4.2235
  975MOL0     H28639  -0.256   7.428   8.153 -0.2702  0.9591  0.8465
  975MOL0     H28640  -0.331   7.302   8.252 -0.1208  0.8776 -0.8278
  975MOL0     H28641  -0.315   7.241   7.989  1.4112  1.0373 -1.6518
  975MOL0     H28642  -0.237   7.132   8.112 -0.8184  1.3374  2.3735
  975MOL0     H28643  -0.088   7.339   7.946  3.0315  0.8759  3.0449
  975MOL0     H28644  -0.030   7.228   8.055 -0.5576  1.7020  1.5267
  975MOL0     H28645   0.008   7.143   7.830  0.5875 -4.4683  1.4560
  975MOL0     H28646  -0.161   7.164   7.785  0.3343 -0.9362 -1.3472
  975MOL0     H28647  -0.221   6.987   7.961 -1.6018  1.6525 -0.9348
  975MOL0     H28648  -0.043   6.936   7.951 -1.3684 -2.9145 -0.8260
  975MOL0     H28649  -0.186   6.815   7.826 -0.7782  1.3565  1.5623
  975MOL0     H28650  -0.236   6.956   7.732  0.3032 -0.7211 -0.3916
  975MOL0     H28651   0.051   6.823   7.753  1.0192 -0.0546 -2.8420
  975MOL0     H28652   0.034   6.977   7.681  1.5996  0.6081  3.5280
  975MOL0     H28653  -0.104   6.623   7.606 -0.8477 -0.5760  0.4151
  975MOL0     H28654  -0.134   6.524   7.283  0.1922 -0.2988 -0.8408
  975MOL0     H28655  -0.235   6.655   7.228 -0.1275 -1.5101 -0.9260
  975MOL0     H28656  -0.416   6.632   7.337  2.5046  1.5326 -0.5871
  975MOL0     H28657  -0.345   6.526   7.458  0.2228  4.3172  1.4069
  975MOL0     H28658  -0.330   6.467   7.154  0.1702  0.7270  1.6028
  975MOL0     H28659  -0.290   6.349   7.275  1.9319  0.4486 -2.2672
  975MOL0     H28660  -0.545   6.404   7.153  0.9246  1.5097  0.0868
  975MOL0     H28661  -0.563   6.427   7.330 -0.7213  0.3013 -0.7026
  975MOL0     H28662  -0.569   5.989   7.285  0.7274  1.3245  1.0039
  975MOL0     H28663  -0.504   5.821   7.114 -0.5063 -0.5552 -1.5396
  975MOL0     H28664  -0.671   5.754   6.658 -0.3554  2.7568 -0.1182
  975MOL0     H28665  -0.682   5.609   6.463 -2.0165  3.7586  2.1822
  975MOL0     H28666  -0.302   5.480   6.307  1.7577  1.4011  0.2302
  975MOL0     H28667  -0.311   5.613   6.195 -1.8645  1.3940  0.2955
  975MOL0     H28668  -0.293   5.438   6.063 -0.0974  1.3882  2.2165
  975MOL0     H28669  -0.467   5.462   6.049  1.0554  0.7571 -1.4694
  975MOL0     H28670  -0.465   5.234   6.095  3.9839 -1.5987 -1.0809
  975MOL0     H28671  -0.470   5.296   6.266 -2.9982 -3.5043 -1.7816
  975MOL0     H28672  -0.215   5.215   6.122  0.5012 -0.3849 -1.3282
  975MOL0     H28673  -0.235   5.255   6.283  2.7598 -3.3834  0.0190
  975MOL0     H28674  -0.379   5.018   6.168  0.1212  2.5370 -0.4315
  975MOL0     H28675  -0.370   5.043   6.342 -0.5937 -4.0669 -0.7661
  975MOL0     H28676  -0.120   5.031   6.334 -0.4341  0.9332 -1.0457
  975MOL0     H28677  -0.128   4.987   6.157  0.8363 -3.9477 -0.2964
  975MOL0     H28678  -0.233   4.838   6.395  0.3208  1.2260  0.8029
  975MOL0     H28679  -0.271   4.810   6.228 -3.8956  1.3395  4.1740
  975MOL0     H28680   0.005   4.756   6.351 -1.6783 -1.9945  1.4496
  975MOL0     H28681  -0.015   4.803   6.179  0.7131  0.8367  1.1503
  975MOL0     H28682  -0.268   5.727   6.382  2.8022  1.1023  3.0524
  975MOL0     H28683  -0.282   5.882   6.542  0.2233 -0.8540 -3.0177
  975MOL0     H28684  -0.416   6.139   6.838  1.8515  1.3538  1.1670
  975MOL0     H28685  -0.430   6.300   6.999 -2.0918  0.1271 -0.2948
  975MOL0     H28686   0.080   7.218   8.438  4.2944  0.2357  1.8225
  975MOL0     H28687   0.216   7.193   8.653  0.3731  0.6378 -3.2839
  975MOL0     H28688   0.374   7.140   8.979  0.4906 -1.4599  1.6154
  975MOL0     H28689   0.556   7.107   9.119  0.7309 -0.1264  2.3152
  975MOL0     H28690   0.680   7.062   9.267  2.8600  0.1723 -2.1606
  975MOL0     H28691   0.737   7.102   9.427  2.4560 -0.7316 -1.1858
  975MOL0     H28692   0.885   7.187   9.214 -0.2548 -0.2853 -0.5648
  975MOL0     H28693   0.752   7.301   9.211  0.1150  0.1994  0.2170
  975MOL0     H28694   0.923   7.264   9.461 -0.4865  0.6900  2.7821
  975MOL0     H28695   0.805   7.374   9.457  0.0605 -3.5429  0.0242
  975MOL0     H28696   1.054   7.475   9.385  0.4934  2.2738 -0.2665
  975MOL0     H28697   1.045   7.363   9.250 -0.1158 -0.6779  0.6816
  975MOL0     H28698   0.830   7.695   9.094 -1.4645 -1.3341 -1.0550
  975MOL0     H28699   0.366   7.395   9.402 -0.5490  2.2690 -0.9934
  975MOL0     H28700   0.208   7.462   9.234  2.1613  1.8149  0.4539
  976MOL0     O28701   9.624  11.197   5.396 -0.4038 -0.4899 -0.2730
  976MOL0     C28702   9.551  11.149   5.309  0.0955  0.4063 -0.2294
  976MOL0     O28703   9.459  11.046   5.327 -0.2587 -0.2725 -0.2198
  976MOL0     C28704   9.436  11.010   5.456  0.6688 -0.8014 -0.5505
  976MOL0     C28705   9.347  11.073   5.538 -0.1982  0.0080 -0.2005
  976MOL0     C28706   9.339  11.029   5.674 -0.9340 -0.1060  0.8310
  976MOL0     C28707   9.432  10.930   5.725  0.9493 -0.1177  0.1635
  976MOL0     O28708   9.436  10.918   5.858 -0.1811  0.2186 -0.2085
  976MOL0     C28709   9.513  11.032   5.914  0.2154  0.6508  0.0918
  976MOL0     C28710   9.503  11.026   6.076 -0.1825  0.6446 -0.4921
  976MOL0     C28711   9.543  11.162   6.132 -0.3789 -0.2910  1.1064
  976MOL0     C28712   9.555  11.177   6.284 -0.0637  0.4479  0.0364
  976MOL0     C28713   9.660  11.285   6.331 -0.0139  1.8094 -0.0257
  976MOL0     C28714   9.652  11.287   6.486  0.3884 -0.3534  0.2414
  976MOL0     C28715   9.758  11.373   6.552 -0.0606  0.0528 -0.5607
  976MOL0     C28716   9.760  11.510   6.502 -0.6535 -0.4626 -0.1965
  976MOL0     N28717   9.647  11.586   6.551  0.0878 -0.0963 -0.9652
  976MOL0     C28718   9.579  11.581   6.668 -0.0572 -0.8137 -0.4631
  976MOL0     C28719   9.473  11.654   6.649  0.2683  0.0803 -0.4022
  976MOL0     C28720   9.359  11.678   6.751  0.3231 -0.3484  1.2804
  976MOL0     C28721   9.256  11.565   6.736 -0.6304 -0.0434 -0.7128
  976MOL0     C28722   9.156  11.598   6.625  0.0566 -0.2071  0.5387
  976MOL0     C28723   9.003  11.585   6.667 -0.8814 -0.3355 -0.8868
  976MOL0     O28724   8.954  11.658   6.780 -0.1907 -0.6262  0.6404
  976MOL0     C28725   8.988  11.797   6.796  0.4784  0.1049  0.6853
  976MOL0     C28726   8.984  11.896   6.693  0.4897 -0.0425  0.0106
  976MOL0     C28727   9.013  12.033   6.711  0.3907  1.1707  0.0003
  976MOL0     C28728   9.045  12.081   6.838 -0.9535  0.1076 -0.2784
  976MOL0     C28729   9.094  12.219   6.855  0.3359  1.4038  1.6174
  976MOL0     O28730   9.051  12.314   6.773  0.0278  0.0618  0.3904
  976MOL0     C28731   9.035  12.441   6.817 -0.9115  0.9576 -0.6171
  976MOL0     C28732   8.911  12.502   6.810  0.8513  1.9529  0.1389
  976MOL0     C28733   8.888  12.635   6.846  0.3665  0.6057  0.3931
  976MOL0     C28734   8.995  12.711   6.903 -0.5674  0.1346 -0.8573
  976MOL0     O28735   8.984  12.844   6.940  0.4026 -0.3804 -0.0663
  976MOL0     C28736   8.857  12.919   6.922 -0.0171  0.4063  0.2759
  976MOL0     C28737   8.885  13.073   6.921 -0.4220 -0.5750 -0.6113
  976MOL0     C28738   8.773  13.141   6.837  0.4151  0.6786 -0.0741
  976MOL0     C28739   8.812  13.283   6.814 -0.5501  0.0813 -0.1572
  976MOL0     C28740   8.701  13.356   6.735  0.0548  0.1550  0.8640
  976MOL0     C28741   8.676  13.298   6.594 -0.3334  0.3202  0.7349
  976MOL0     C28742   8.561  13.387   6.525  0.3399  0.8571  0.0819
  976MOL0     C28743   8.471  13.301   6.423 -0.4155 -0.0628 -0.2200
  976MOL0    Cl28744   8.495  13.348   6.252  0.2498  0.2661 -0.2957
  976MOL0     C28745   9.124  12.654   6.907  0.1057 -0.6188 -0.2955
  976MOL0     C28746   9.137  12.519   6.864 -1.0773 -0.5062 -0.7009
  976MOL0     O28747   9.164  12.236   6.952  0.2427 -0.7962  0.1593
  976MOL0     C28748   9.044  11.982   6.946  0.1483 -0.5628  0.2702
  976MOL0     C28749   9.013  11.845   6.921  0.1868  0.3602 -0.5555
  976MOL0     N28750   9.479  11.712   6.524 -0.0079  0.0271  1.1039
  976MOL0     N28751   9.591  11.681   6.477 -0.8063 -0.0796  0.4758
  976MOL0     C28752   9.501  10.855   5.635  0.6625  0.0571  0.1847
  976MOL0     C28753   9.512  10.908   5.509  0.1948 -0.4727 -0.6921
  976MOL0     C28754   9.574  11.177   5.171 -0.3910 -0.5966  0.5155
  976MOL0     C28755   9.697  11.230   5.126  0.4225 -0.1069 -0.1889
  976MOL0     C28756   9.726  11.247   4.985 -0.4265 -0.5843 -0.7436
  976MOL0     C28757   9.623  11.219   4.899 -0.1901 -0.0954  0.2267
  976MOL0     O28758   9.659  11.248   4.770  0.5823 -0.5516 -0.2599
  976MOL0     C28759   9.552  11.272   4.676 -0.1265 -0.0469  0.0953
  976MOL0     C28760   9.618  11.301   4.534  0.7545  0.1049 -0.3608
  976MOL0     C28761   9.524  11.387   4.443  0.1798 -0.7934  0.3319
  976MOL0     C28762   9.583  11.405   4.308  0.1539 -0.2086  0.3361
  976MOL0     C28763   9.485  11.474   4.222  0.5368 -0.2420 -0.7828
  976MOL0     C28764   9.413  11.538   4.143  0.0674  0.3792 -0.4356
  976MOL0     C28765   9.503  11.164   4.940  0.9333  0.8005  0.2712
  976MOL0     C28766   9.479  11.144   5.078  0.6788 -0.3479 -0.2241
  976MOL0     H28767   9.283  11.147   5.490 -1.0949  0.2187  1.2299
  976MOL0     H28768   9.266  11.081   5.734 -0.9792  0.4788  0.2736
  976MOL0     H28769   9.472  11.126   5.876  1.5164  0.8570 -0.8642
  976MOL0     H28770   9.616  11.021   5.878  0.2832 -1.9786  0.8679
  976MOL0     H28771   9.570  10.952   6.121  0.1738  1.2574 -0.0075
  976MOL0     H28772   9.400  11.002   6.104  0.4870 -2.9499 -0.6693
  976MOL0     H28773   9.461  11.222   6.093  1.2811  0.7106 -0.9826
  976MOL0     H28774   9.635  11.187   6.078 -1.4458 -1.6260 -1.5001
  976MOL0     H28775   9.460  11.215   6.325  0.2889  1.6052 -0.1869
  976MOL0     H28776   9.563  11.079   6.332 -0.6459  2.6953  5.4223
  976MOL0     H28777   9.628  11.384   6.297  2.0776  2.1065 -1.3684
  976MOL0     H28778   9.759  11.255   6.295 -1.9631 -3.5835 -1.8189
  976MOL0     H28779   9.672  11.185   6.521 -4.8560 -2.3486 -1.5884
  976MOL0     H28780   9.553  11.308   6.526  0.3860 -1.4169  0.8447
  976MOL0     H28781   9.738  11.364   6.659 -0.7308  0.0561 -0.6827
  976MOL0     H28782   9.859  11.332   6.539 -0.8210 -1.6098 -1.5613
  976MOL0     H28783   9.756  11.514   6.393 -1.8400 -2.4948 -0.2881
  976MOL0     H28784   9.857  11.547   6.535 -1.0234 -0.9343  1.5048
  976MOL0     H28785   9.599  11.519   6.755  2.7411 -1.7779 -1.6777
  976MOL0     H28786   9.311  11.776   6.743 -4.2137 -2.3396  0.9334
  976MOL0     H28787   9.415  11.668   6.844  1.4904  0.5336  0.6967
  976MOL0     H28788   9.194  11.561   6.826  1.2288 -2.4867  0.5817
  976MOL0     H28789   9.299  11.464   6.737 -1.8447 -0.5713  0.6392
  976MOL0     H28790   9.178  11.703   6.605 -1.2627 -0.3387 -1.9673
  976MOL0     H28791   9.184  11.544   6.534 -1.0216 -1.0059  0.6537
  976MOL0     H28792   8.975  11.483   6.693 -0.8539  0.4278  2.5857
  976MOL0     H28793   8.952  11.632   6.582 -0.5240  0.2918 -0.7557
  976MOL0     H28794   8.965  11.871   6.589  0.2806  0.3208 -0.0430
  976MOL0     H28795   9.025  12.091   6.620  3.0665  2.7128  1.2004
  976MOL0     H28796   8.829  12.447   6.765 -0.3955  2.5464  1.5929
  976MOL0     H28797   8.789  12.678   6.831 -0.2039 -0.9966 -0.6443
  976MOL0     H28798   8.788  12.899   7.004  0.8259  1.2237  1.2208
  976MOL0     H28799   8.829  12.886   6.822  2.0678 -5.2989  1.1917
  976MOL0     H28800   8.982  13.113   6.890 -1.1577  2.3949  0.5455
  976MOL0     H28801   8.889  13.099   7.027  0.5474 -4.5590  0.4950
  976MOL0     H28802   8.669  13.139   6.872 -0.7222 -0.4196 -3.1383
  976MOL0     H28803   8.767  13.090   6.740  0.1143  1.3846 -0.4370
  976MOL0     H28804   8.832  13.327   6.913  1.2203 -1.8628  0.4057
  976MOL0     H28805   8.905  13.271   6.758 -0.4865 -0.2686  0.0238
  976MOL0     H28806   8.743  13.453   6.706 -3.6673  1.8308  0.6124
  976MOL0     H28807   8.613  13.376   6.796 -1.0694  0.0051 -0.6389
  976MOL0     H28808   8.644  13.194   6.601 -0.2295  0.1976 -0.5416
  976MOL0     H28809   8.768  13.300   6.535 -1.5198  2.4589 -1.1824
  976MOL0     H28810   8.499  13.427   6.606  1.5620 -0.1468  1.5714
  976MOL0     H28811   8.616  13.464   6.471  0.1450  1.0364  0.1363
  976MOL0     H28812   8.366  13.311   6.453  0.2670 -1.3443  2.9953
  976MOL0     H28813   8.515  13.204   6.445  2.6637  0.7631 -2.1786
  976MOL0     H28814   9.209  12.716   6.933  0.3071 -1.2851  0.6811
  976MOL0     H28815   9.237  12.478   6.854 -1.1644 -2.0911  3.2349
  976MOL0     H28816   9.071  12.008   7.048 -1.5095  3.9833 -0.2363
  976MOL0     H28817   9.014  11.770   7.000  2.8673 -0.4183 -1.1986
  976MOL0     H28818   9.551  10.766   5.673 -0.2216 -1.3478 -1.7876
  976MOL0     H28819   9.589  10.865   5.445 -1.3323 -0.7889 -2.4029
  976MOL0     H28820   9.764  11.260   5.206  0.2069 -1.2564  0.4467
  976MOL0     H28821   9.832  11.257   4.964 -0.7623  0.6226 -2.0184
  976MOL0     H28822   9.479  11.348   4.706 -1.3977 -0.7190 -1.1348
  976MOL0     H28823   9.492  11.183   4.654  0.7898  0.0053 -3.0605
  976MOL0     H28824   9.711  11.356   4.553  0.5616  0.1368  0.5546
  976MOL0     H28825   9.634  11.207   4.481 -2.2718  0.6411 -2.4472
  976MOL0     H28826   9.517  11.482   4.497  0.1362  0.2208 -1.3882
  976MOL0     H28827   9.423  11.346   4.442 -0.6395  1.0973 -1.7165
  976MOL0     H28828   9.669  11.472   4.312  0.1514  0.4001 -4.1754
  976MOL0     H28829   9.606  11.305   4.268 -0.1212 -0.5242  0.9581
  976MOL0     H28830   9.336  11.577   4.080 -0.6602 -3.7715 -2.4945
  976MOL0     H28831   9.429  11.138   4.865  1.2207  1.0267 -0.0900
  976MOL0     H28832   9.383  11.100   5.103 -0.3331  0.5253 -2.4114
  977MOL0     O28833   6.616   7.239   4.993  0.1468  0.3092 -0.4977
  977MOL0     C28834   6.730   7.271   5.035  1.2603 -0.0237 -0.6437
  977MOL0     O28835   6.788   7.393   5.030  0.0810  0.0765 -0.1262
  977MOL0     C28836   6.721   7.513   5.021  0.2763  1.0897  0.6057
  977MOL0     C28837   6.798   7.621   5.057  0.4087  0.4188  0.7337
  977MOL0     C28838   6.748   7.752   5.053 -0.1541  0.3574  0.4383
  977MOL0     C28839   6.614   7.784   5.005 -0.2566  0.3041 -0.1827
  977MOL0     O28840   6.577   7.916   5.021 -0.4587  0.2216 -0.5158
  977MOL0     C28841   6.452   7.967   4.988  0.2194 -0.1468 -0.4116
  977MOL0     C28842   6.461   8.117   4.963 -0.5766  0.1454  0.3406
  977MOL0     C28843   6.328   8.185   4.953  0.6333  0.1309  0.2572
  977MOL0     C28844   6.346   8.325   4.910  0.5761 -0.1631 -0.2292
  977MOL0     C28845   6.200   8.381   4.901 -0.5376  0.3898  0.6012
  977MOL0     C28846   6.197   8.526   4.845  0.1074 -0.2207  0.3997
  977MOL0     C28847   6.063   8.582   4.817  0.1810 -0.1385 -0.4992
  977MOL0     C28848   6.075   8.715   4.739  0.2015 -0.4545  0.6864
  977MOL0     N28849   6.105   8.827   4.828 -0.4306 -0.1683 -1.0367
  977MOL0     C28850   6.028   8.868   4.934  0.5430 -0.6990  0.7992
  977MOL0     C28851   6.093   8.977   4.980  0.0063 -0.6117 -0.3929
  977MOL0     C28852   6.033   9.079   5.074  0.3184 -0.2644 -0.6998
  977MOL0     C28853   5.956   9.209   5.025 -0.8085  0.1588 -0.2088
  977MOL0     C28854   6.037   9.300   4.919  0.4139  0.4017  1.2874
  977MOL0     C28855   5.979   9.440   4.875  0.3010 -0.7459 -0.2373
  977MOL0     O28856   6.089   9.532   4.850 -0.3690  0.6604 -0.3233
  977MOL0     C28857   6.069   9.663   4.815 -0.0571  0.0116 -0.4220
  977MOL0     C28858   5.945   9.722   4.782 -0.2816  0.5385 -0.4840
  977MOL0     C28859   5.942   9.857   4.739  0.4162  0.0162  0.5654
  977MOL0     C28860   6.060   9.933   4.732 -0.0579  0.5011 -0.3031
  977MOL0     C28861   6.052  10.074   4.697  0.0253 -0.6578  0.2248
  977MOL0     O28862   6.157  10.155   4.733 -0.8192 -0.7672 -0.3438
  977MOL0     C28863   6.171  10.278   4.679  0.0859 -0.1445 -0.1559
  977MOL0     C28864   6.123  10.321   4.554  0.2011  0.0045 -0.5631
  977MOL0     C28865   6.124  10.458   4.516 -0.2472 -0.1159  0.2491
  977MOL0     C28866   6.194  10.545   4.604 -0.2412 -0.4902 -0.0302
  977MOL0     O28867   6.200  10.681   4.587 -0.3387  0.8199 -0.2724
  977MOL0     C28868   6.169  10.741   4.451 -0.1475  0.5803  0.3473
  977MOL0     C28869   6.211  10.887   4.444  0.3488 -0.0374 -0.1268
  977MOL0     C28870   6.209  10.925   4.298  0.0864  0.2670 -0.0076
  977MOL0     C28871   6.068  10.912   4.223  0.3136  0.1191  0.2849
  977MOL0     C28872   6.065  10.956   4.081 -0.4152  0.4185  0.3368
  977MOL0     C28873   6.075  11.104   4.070 -0.1423 -0.1144  0.5948
  977MOL0     C28874   6.067  11.151   3.919 -1.1446  0.0792 -0.3064
  977MOL0     C28875   6.074  11.313   3.907 -0.8353  1.2342  0.3686
  977MOL0    Cl28876   6.137  11.347   3.739  0.3403 -0.3144  0.2625
  977MOL0     C28877   6.242  10.497   4.734 -0.3549  0.9214  0.3284
  977MOL0     C28878   6.235  10.367   4.766 -0.5322 -0.8642  1.1179
  977MOL0     O28879   5.948  10.120   4.650  0.1004 -1.0418  0.1068
  977MOL0     C28880   6.179   9.879   4.777  0.5685 -0.6428  0.8880
  977MOL0     C28881   6.183   9.756   4.820  1.5482  0.5185  0.4913
  977MOL0     N28882   6.208   8.996   4.906  0.0296 -0.8418  0.6662
  977MOL0     N28883   6.211   8.909   4.816 -0.1828 -0.5476  0.3051
  977MOL0     C28884   6.534   7.676   4.963  0.4388 -0.0683 -0.3681
  977MOL0     C28885   6.585   7.545   4.981  0.1579 -0.0996  0.3746
  977MOL0     C28886   6.809   7.170   5.115  0.2654 -0.2040  0.4361
  977MOL0     C28887   6.736   7.057   5.165  0.3931  0.8296  1.0100
  977MOL0     C28888   6.804   6.965   5.246 -0.0200 -0.1356 -0.5426
  977MOL0     C28889   6.940   6.973   5.278 -0.0878 -0.6103  1.2143
  977MOL0     O28890   7.004   6.894   5.362  0.0952 -0.2145 -0.7167
  977MOL0     C28891   6.974   6.911   5.499 -0.5344 -0.3621 -0.0674
  977MOL0     C28892   7.094   6.982   5.555  0.0658  0.3815 -0.2375
  977MOL0     C28893   7.201   6.883   5.596  0.2173  0.6102 -0.0450
  977MOL0     C28894   7.328   6.960   5.658 -0.9178  0.1494  0.0496
  977MOL0     C28895   7.419   7.013   5.553  1.1482  0.5612  0.0747
  977MOL0     C28896   7.489   7.058   5.471 -0.0146  0.3696  0.5208
  977MOL0     C28897   7.004   7.092   5.232 -1.2597  0.0491  0.5778
  977MOL0     C28898   6.941   7.186   5.142 -0.2790  0.7569 -0.8869
  977MOL0     H28899   6.896   7.592   5.094 -0.4165 -2.3858  0.9511
  977MOL0     H28900   6.812   7.825   5.101  1.4965 -0.1928 -0.8209
  977MOL0     H28901   6.373   7.948   5.061 -2.3486  0.6956 -2.8068
  977MOL0     H28902   6.429   7.911   4.897 -1.7623  0.7114 -0.4871
  977MOL0     H28903   6.513   8.133   4.867 -0.1740 -5.2051 -0.6168
  977MOL0     H28904   6.510   8.167   5.047 -1.1831  2.6226 -0.6762
  977MOL0     H28905   6.278   8.180   5.050  1.2380 -0.5323  0.5398
  977MOL0     H28906   6.273   8.134   4.873 -0.7012  1.4190  0.2983
  977MOL0     H28907   6.415   8.381   4.973  2.1529  1.4662 -3.1809
  977MOL0     H28908   6.395   8.325   4.812 -0.2917  0.4592 -0.6693
  977MOL0     H28909   6.155   8.377   5.001  0.7235  0.4550  1.1845
  977MOL0     H28910   6.142   8.325   4.827 -1.5644  2.4041 -0.2053
  977MOL0     H28911   6.251   8.530   4.750  3.4921 -0.3928  2.1475
  977MOL0     H28912   6.253   8.602   4.902  3.3001  0.7072 -3.4986
  977MOL0     H28913   6.008   8.509   4.757  1.3367  1.3492 -3.5820
  977MOL0     H28914   5.998   8.605   4.902 -0.8763  0.8790 -1.5415
  977MOL0     H28915   5.978   8.726   4.689  1.3540 -1.0467 -1.8366
  977MOL0     H28916   6.152   8.709   4.661 -1.3107 -0.3332 -0.8914
  977MOL0     H28917   5.928   8.828   4.945  0.2470 -1.6124 -3.6337
  977MOL0     H28918   6.125   9.118   5.119 -0.6342  0.5493  0.6011
  977MOL0     H28919   5.985   9.026   5.157  3.8175  1.7082  2.9216
  977MOL0     H28920   5.938   9.277   5.109 -1.3737  0.5216 -0.6157
  977MOL0     H28921   5.868   9.162   4.980  1.2334 -4.7128  0.2646
  977MOL0     H28922   6.140   9.319   4.952  0.1511  2.9122  0.8960
  977MOL0     H28923   6.041   9.247   4.823  3.0361  0.2749  1.3887
  977MOL0     H28924   5.923   9.479   4.961 -0.6612  0.8387 -1.5242
  977MOL0     H28925   5.902   9.436   4.797 -0.1705  1.0625  0.0876
  977MOL0     H28926   5.857   9.661   4.794 -0.5192  0.1794 -3.3059
  977MOL0     H28927   5.844   9.895   4.713  1.2471  1.9441  0.0230
  977MOL0     H28928   6.064  10.254   4.492  0.5271 -0.6715 -0.1512
  977MOL0     H28929   6.089  10.493   4.420  0.6023 -1.1441 -0.4659
  977MOL0     H28930   6.061  10.741   4.433  0.1721 -2.3245 -2.4401
  977MOL0     H28931   6.218  10.685   4.371 -2.2053 -1.8849  0.6926
  977MOL0     H28932   6.315  10.904   4.474 -0.2260  0.9421  1.4397
  977MOL0     H28933   6.150  10.940   4.518  0.1317  0.1196 -0.4213
  977MOL0     H28934   6.291  10.870   4.251  1.3554  2.1094 -0.0320
  977MOL0     H28935   6.232  11.028   4.272 -1.6402  0.5417 -0.6020
  977MOL0     H28936   6.026  10.811   4.222 -3.4416  1.5193 -1.2787
  977MOL0     H28937   6.001  10.970   4.288  0.8705 -0.0101  0.9920
  977MOL0     H28938   5.975  10.925   4.027  0.4699  1.3411 -1.7802
  977MOL0     H28939   6.143  10.902   4.028 -3.7407 -1.5538 -3.0484
  977MOL0     H28940   6.172  11.144   4.101  0.0142  0.6928 -0.8761
  977MOL0     H28941   5.992  11.150   4.123 -0.4789  0.4281 -0.3748
  977MOL0     H28942   6.160  11.110   3.878 -1.4661 -0.6719 -0.2873
  977MOL0     H28943   5.977  11.113   3.871 -0.7691 -1.5344  0.2327
  977MOL0     H28944   6.148  11.358   3.974 -0.0608  0.6594 -0.0725
  977MOL0     H28945   5.972  11.347   3.927 -0.6462  1.5112  0.8759
  977MOL0     H28946   6.291  10.566   4.802  0.5128  0.1988  0.4529
  977MOL0     H28947   6.282  10.340   4.860  1.8676  0.6982  0.4699
  977MOL0     H28948   6.269   9.941   4.778 -0.0935  0.3855 -0.3049
  977MOL0     H28949   6.273   9.701   4.844  1.8401  0.8673  0.2131
  977MOL0     H28950   6.435   7.692   4.921  0.2358 -1.5482 -0.5193
  977MOL0     H28951   6.514   7.465   4.962 -0.0154  0.3580 -1.0066
  977MOL0     H28952   6.631   7.042   5.142  0.4819  0.9399  0.5182
  977MOL0     H28953   6.737   6.890   5.286 -0.4512 -0.1493 -1.2648
  977MOL0     H28954   6.956   6.810   5.539 -2.2390  0.0465  0.2931
  977MOL0     H28955   6.883   6.968   5.519  0.9809  1.8695  0.9462
  977MOL0     H28956   7.143   7.044   5.479  3.2183 -0.6880  0.7409
  977MOL0     H28957   7.062   7.038   5.643 -1.9032 -1.9847  0.6628
  977MOL0     H28958   7.241   6.827   5.510 -1.7209 -0.3372 -0.3738
  977MOL0     H28959   7.171   6.816   5.676  0.6439  3.5670  2.7910
  977MOL0     H28960   7.303   7.043   5.724 -1.7157  0.3476 -0.4840
  977MOL0     H28961   7.374   6.874   5.709  1.5977  0.7738 -0.9730
  977MOL0     H28962   7.536   7.105   5.386  0.4906 -0.5162  0.3052
  977MOL0     H28963   7.101   7.110   5.278 -0.8842  0.5590 -0.3651
  977MOL0     H28964   6.993   7.279   5.118 -0.0292  0.3943 -1.7773
  978MOL0     O28965   7.653  10.406  10.494 -0.3937  0.6912 -0.0202
  978MOL0     C28966   7.756  10.337  10.517 -0.3206  0.0068 -0.6926
  978MOL0     O28967   7.806  10.316  10.641  0.1524 -0.1438 -0.3242
  978MOL0     C28968   7.729  10.330  10.752 -1.2658 -0.1164 -0.0473
  978MOL0     C28969   7.799  10.354  10.866 -0.3472  0.2908 -0.5592
  978MOL0     C28970   7.743  10.393  10.981 -0.0205 -0.7691  0.2039
  978MOL0     C28971   7.606  10.403  10.990  0.2679 -0.9676 -0.5744
  978MOL0     O28972   7.554  10.421  11.116  0.3753 -0.7054  0.0840
  978MOL0     C28973   7.568  10.557  11.160  0.2883 -0.0631  0.7467
  978MOL0     C28974   7.504  10.591  11.296 -0.7070  0.0406 -0.2869
  978MOL0     C28975   7.364  10.647  11.294  0.4452 -0.6543  0.3084
  978MOL0     C28976   7.325  10.718  11.427  0.4286  0.1651 -0.2674
  978MOL0     C28977   7.187  10.788  11.422 -0.5784  0.4450 -0.2082
  978MOL0     C28978   7.062  10.705  11.404  0.8593  0.5532  0.0894
  978MOL0     C28979   6.946  10.802  11.371  0.1709 -0.2247 -0.9154
  978MOL0     C28980   6.822  10.728  11.344  0.6631 -0.6213 -0.0380
  978MOL0     N28981   6.702  10.823  11.316  1.1538 -0.0829 -1.0444
  978MOL0     C28982   6.621  10.875  11.407  0.1327 -0.5730 -0.7670
  978MOL0     C28983   6.511  10.908  11.346 -0.9853 -0.1340  0.3911
  978MOL0     C28984   6.395  10.987  11.398 -0.9679  0.6059 -1.2890
  978MOL0     C28985   6.312  11.057  11.282  0.8113 -0.3435  0.2086
  978MOL0     C28986   6.220  11.160  11.345 -0.5547 -0.0406  0.0565
  978MOL0     C28987   6.127  11.204  11.243  1.0555 -0.3229  0.0836
  978MOL0     O28988   6.012  11.254  11.308 -0.4313 -0.1034  0.6775
  978MOL0     C28989   5.896  11.270  11.232 -0.2005 -0.6570  0.3982
  978MOL0     C28990   5.782  11.235  11.299 -0.4768  0.6209 -0.1230
  978MOL0     C28991   5.655  11.232  11.241  0.7126 -0.0620  0.8680
  978MOL0     C28992   5.638  11.282  11.111  0.0857 -0.0601  0.3756
  978MOL0     C28993   5.507  11.313  11.047 -0.5550  0.9869  0.0107
  978MOL0     O28994   5.504  11.317  10.911  0.7070 -0.0372 -0.1179
  978MOL0     C28995   5.394  11.327  10.833 -0.4818 -0.4040  1.0678
  978MOL0     C28996   5.256  11.336  10.858 -0.2063 -0.5140 -0.5233
  978MOL0     C28997   5.154  11.338  10.761 -0.3477 -0.3385  0.0207
  978MOL0     C28998   5.197  11.337  10.636  0.1823 -0.4392  1.2027
  978MOL0     O28999   5.114  11.356  10.522 -0.5379 -0.1258 -0.2732
  978MOL0     C29000   4.980  11.320  10.534  0.1476 -0.4016 -1.1923
  978MOL0     C29001   4.917  11.289  10.403  0.2993  0.3527 -0.6715
  978MOL0     C29002   4.888  11.416  10.326 -0.4790  0.7115 -1.1163
  978MOL0     C29003   4.864  11.399  10.173 -1.4755  0.5315  0.2322
  978MOL0     C29004   4.756  11.302  10.119 -0.1135 -0.0251 -0.0901
  978MOL0     C29005   4.668  11.367  10.007 -0.5672 -0.6105  0.1812
  978MOL0     C29006   4.573  11.259   9.943  0.2612  0.2990 -0.2951
  978MOL0     C29007   4.480  11.333   9.840  0.3072 -0.1964 -0.5082
  978MOL0    Cl29008   4.575  11.377   9.703 -0.1348  0.2474 -0.1173
  978MOL0     C29009   5.327  11.311  10.601  0.6396 -1.0009 -0.5035
  978MOL0     C29010   5.430  11.313  10.697 -0.0320  0.2122 -0.0118
  978MOL0     O29011   5.413  11.304  11.124  0.3145  0.4625  0.3102
  978MOL0     C29012   5.758  11.315  11.043 -0.2240  0.0845  0.2005
  978MOL0     C29013   5.887  11.310  11.105  0.4237  0.1649  0.0410
  978MOL0     N29014   6.513  10.885  11.214  0.3418  0.1633 -0.6059
  978MOL0     N29015   6.621  10.826  11.203  0.5409  1.1444 -0.1042
  978MOL0     C29016   7.532  10.363  10.886  0.4038  0.1398 -0.7071
  978MOL0     C29017   7.588  10.332  10.763  0.1268 -0.2353 -0.0798
  978MOL0     C29018   7.836  10.289  10.408 -1.1208  0.3808 -0.4122
  978MOL0     C29019   7.791  10.289  10.277  0.6604  0.2959 -0.4407
  978MOL0     C29020   7.879  10.241  10.181 -0.1745 -0.5672  0.4334
  978MOL0     C29021   8.000  10.180  10.202  0.6155  0.4221 -0.5001
  978MOL0     O29022   8.087  10.131  10.105  0.2426 -0.2647 -0.0592
  978MOL0     C29023   8.032  10.100   9.977 -0.5611 -0.0603  1.1088
  978MOL0     C29024   8.059  10.218   9.874 -0.3830 -1.2406 -0.4707
  978MOL0     C29025   8.209  10.258   9.859  0.1699  0.3654  0.3687
  978MOL0     C29026   8.222  10.401   9.800 -0.4192  0.1333 -0.0051
  978MOL0     C29027   8.197  10.398   9.657 -0.7341 -0.3263  0.0048
  978MOL0     C29028   8.178  10.413   9.538  0.1587 -0.0759 -0.1729
  978MOL0     C29029   8.045  10.184  10.337 -0.1372  0.4313  0.5300
  978MOL0     C29030   7.974  10.242  10.437  0.6215  0.6866 -0.0970
  978MOL0     H29031   7.906  10.369  10.855 -0.4144 -0.3119 -2.5213
  978MOL0     H29032   7.816  10.433  11.050 -0.1585 -0.2178  0.0403
  978MOL0     H29033   7.522  10.623  11.086  2.2495  1.5570  0.9240
  978MOL0     H29034   7.675  10.561  11.181  0.7951 -2.6796 -0.7677
  978MOL0     H29035   7.577  10.661  11.337 -0.3819  0.9284 -2.2351
  978MOL0     H29036   7.508  10.498  11.354  2.3330 -0.0435 -0.5143
  978MOL0     H29037   7.290  10.568  11.279  1.8534 -2.0362  0.2890
  978MOL0     H29038   7.355  10.724  11.217 -1.7156  1.7022  2.7392
  978MOL0     H29039   7.333  10.655  11.516  1.3631  2.6749  1.5238
  978MOL0     H29040   7.401  10.792  11.453  1.3532 -0.4288 -1.1848
  978MOL0     H29041   7.185  10.859  11.339 -0.3018 -0.3913 -0.9512
  978MOL0     H29042   7.190  10.832  11.523 -1.8037  0.1320 -0.0171
  978MOL0     H29043   7.042  10.656  11.499 -1.0828  0.5511 -0.2933
  978MOL0     H29044   7.076  10.625  11.329 -1.3497  0.3947 -0.2058
  978MOL0     H29045   6.918  10.878  11.445 -0.2446 -1.3167  0.0833
  978MOL0     H29046   6.972  10.847  11.275  1.5504 -0.2095 -0.5544
  978MOL0     H29047   6.798  10.671  11.435  0.5059  2.2929  1.9014
  978MOL0     H29048   6.821  10.658  11.261 -0.5758 -0.1384 -0.4522
  978MOL0     H29049   6.643  10.901  11.510  0.7761  4.3231 -1.8873
  978MOL0     H29050   6.439  11.073  11.450  0.7676 -0.0782 -1.5423
  978MOL0     H29051   6.335  10.929  11.468 -1.1036  1.0571 -1.0309
  978MOL0     H29052   6.248  10.978  11.240 -1.8685  1.3830  0.8358
  978MOL0     H29053   6.378  11.089  11.200  0.3006 -0.5849 -0.3011
  978MOL0     H29054   6.170  11.103  11.423 -0.4204  0.2139  0.3323
  978MOL0     H29055   6.283  11.240  11.385  0.6432 -0.3563 -1.0868
  978MOL0     H29056   6.087  11.125  11.180 -0.9462  0.1892  0.6351
  978MOL0     H29057   6.182  11.279  11.185  2.6159 -0.5525  1.2158
  978MOL0     H29058   5.795  11.191  11.398 -1.8518 -1.2231 -0.7193
  978MOL0     H29059   5.561  11.205  11.290 -0.7104  3.2620  0.2249
  978MOL0     H29060   5.240  11.339  10.965  1.1857 -1.8032 -0.2428
  978MOL0     H29061   5.052  11.360  10.791 -0.7422 -1.1182 -0.6826
  978MOL0     H29062   4.922  11.381  10.603 -1.9048 -0.4918 -2.7409
  978MOL0     H29063   4.981  11.224  10.587 -2.1872  0.8098  1.3266
  978MOL0     H29064   4.821  11.235  10.408  1.7938 -2.5325 -0.6947
  978MOL0     H29065   4.982  11.222  10.346  0.4902  2.1631 -2.6979
  978MOL0     H29066   4.976  11.478  10.347 -0.7704  1.5286 -2.2338
  978MOL0     H29067   4.792  11.447  10.370  0.5190  2.2284  0.0931
  978MOL0     H29068   4.829  11.486  10.116  2.9194  1.0126 -2.1930
  978MOL0     H29069   4.961  11.371  10.132 -0.6940  1.0443  1.6700
  978MOL0     H29070   4.689  11.257  10.192 -3.7069 -2.7419 -4.5488
  978MOL0     H29071   4.799  11.215  10.069 -1.0816  0.0775 -1.1351
  978MOL0     H29072   4.733  11.410   9.930  0.5591  0.1393  1.4945
  978MOL0     H29073   4.622  11.455  10.052  1.5869  0.7577 -0.1070
  978MOL0     H29074   4.630  11.190   9.879 -1.7710  0.0815 -1.9441
  978MOL0     H29075   4.514  11.202  10.016 -0.2475  0.9445 -0.2017
  978MOL0     H29076   4.440  11.422   9.891 -0.0670 -2.7859  4.2909
  978MOL0     H29077   4.401  11.267   9.802  1.2170 -1.3059 -0.5192
  978MOL0     H29078   5.351  11.307  10.495 -3.1445 -1.1800 -1.4741
  978MOL0     H29079   5.530  11.321  10.657 -1.4591  4.1683 -3.4949
  978MOL0     H29080   5.766  11.355  10.942  2.8508  0.5111  0.5062
  978MOL0     H29081   5.974  11.353  11.058  0.7294  0.4546  0.8637
  978MOL0     H29082   7.425  10.380  10.886  0.5258  1.0191 -1.5840
  978MOL0     H29083   7.527  10.312  10.676  0.4558  1.5940 -0.7603
  978MOL0     H29084   7.690  10.318  10.253  0.3157 -0.2462  0.3252
  978MOL0     H29085   7.855  10.252  10.076  1.5440 -3.3793 -0.3722
  978MOL0     H29086   7.925  10.079   9.985 -0.3463 -1.0031  1.6525
  978MOL0     H29087   8.071  10.001   9.952 -1.5264 -0.4752  1.2002
  978MOL0     H29088   8.034  10.178   9.775  2.8836 -2.4566 -0.9289
  978MOL0     H29089   7.999  10.305   9.902  0.0174  0.1528 -3.5045
  978MOL0     H29090   8.266  10.180   9.807 -1.2645  0.5833 -1.6643
  978MOL0     H29091   8.258  10.261   9.957 -0.0930  1.7354  0.4701
  978MOL0     H29092   8.151  10.471   9.844  1.6067  0.3907  3.2009
  978MOL0     H29093   8.326  10.436   9.807  0.2112 -1.8473  1.8939
  978MOL0     H29094   8.150  10.408   9.434 -1.1784 -0.1130  0.1686
  978MOL0     H29095   8.143  10.148  10.367  0.0844  1.3159  0.9175
  978MOL0     H29096   8.016  10.237  10.537 -0.3901 -0.6367  0.2942
  979MOL0     O29097   7.066   9.758   4.845 -0.7165 -0.4489 -0.3858
  979MOL0     C29098   7.107   9.719   4.733 -0.1101 -0.8000 -0.7099
  979MOL0     O29099   7.179   9.607   4.711 -0.1095  1.1770 -0.2286
  979MOL0     C29100   7.145   9.492   4.785 -0.5017 -0.2656 -0.0028
  979MOL0     C29101   7.236   9.382   4.783 -0.3196 -0.4391 -0.7586
  979MOL0     C29102   7.207   9.271   4.859 -1.0370  0.0400  0.2764
  979MOL0     C29103   7.093   9.257   4.935 -0.1227  0.9314  0.2925
  979MOL0     O29104   7.066   9.142   5.013  0.3737 -0.5088  0.7642
  979MOL0     C29105   7.106   9.011   4.984  0.1760  0.5317  0.6542
  979MOL0     C29106   7.041   8.938   4.867  0.2445  0.3190  0.1638
  979MOL0     C29107   6.897   8.871   4.895 -0.3316  0.0017  0.6305
  979MOL0     C29108   6.790   8.981   4.908  0.0988 -0.6248  1.2041
  979MOL0     C29109   6.646   8.933   4.874 -1.3734 -0.8024 -0.3132
  979MOL0     C29110   6.555   9.005   4.977 -0.9289  0.5183 -0.2850
  979MOL0     C29111   6.549   9.155   4.975  0.4442  0.0381  0.0239
  979MOL0     C29112   6.476   9.231   4.865  0.7632  0.5416 -0.2428
  979MOL0     N29113   6.546   9.357   4.852 -0.3392  0.0033  0.3302
  979MOL0     C29114   6.526   9.477   4.917  0.0782 -0.2628 -0.1799
  979MOL0     C29115   6.623   9.560   4.872  0.0228  0.7012  0.2289
  979MOL0     C29116   6.620   9.711   4.907  0.3546  0.1381  0.7471
  979MOL0     C29117   6.665   9.737   5.046 -0.7564 -0.0137 -0.0409
  979MOL0     C29118   6.811   9.684   5.078 -0.9272 -0.0806 -1.2817
  979MOL0     C29119   6.808   9.683   5.235  0.8361 -0.1400 -0.4617
  979MOL0     O29120   6.721   9.568   5.275 -0.0621  0.3177 -0.1463
  979MOL0     C29121   6.716   9.522   5.406  0.0430  0.1316 -0.2666
  979MOL0     C29122   6.763   9.602   5.516  0.2425 -0.1076 -0.4383
  979MOL0     C29123   6.754   9.550   5.645 -0.6354 -0.4079 -0.9560
  979MOL0     C29124   6.681   9.440   5.679  0.5507  0.0870  0.0433
  979MOL0     C29125   6.662   9.383   5.822 -0.0056  0.5115  0.1183
  979MOL0     O29126   6.599   9.250   5.835  0.4437 -0.3553 -0.2449
  979MOL0     C29127   6.537   9.221   5.953  0.7325 -0.0613 -0.4881
  979MOL0     C29128   6.542   9.092   6.000  0.0936 -0.5754  1.2401
  979MOL0     C29129   6.451   9.047   6.099 -0.0892 -0.2793  0.2151
  979MOL0     C29130   6.386   9.136   6.183 -0.3641  0.2776  0.0033
  979MOL0     O29131   6.326   9.102   6.298  0.5936 -0.1119  0.5495
  979MOL0     C29132   6.253   9.200   6.373  0.3663  0.7351  0.4065
  979MOL0     C29133   6.169   9.135   6.483 -0.5304 -0.3363  0.0224
  979MOL0     C29134   6.262   9.072   6.588 -0.0135  0.7589 -0.2532
  979MOL0     C29135   6.172   8.981   6.681  0.9791  0.5169  0.2153
  979MOL0     C29136   6.242   8.918   6.798 -0.4585  1.1928 -0.0584
  979MOL0     C29137   6.166   8.908   6.928 -0.2862  0.0452  0.0784
  979MOL0     C29138   6.251   8.837   7.036  0.5862  0.2566  0.1118
  979MOL0     C29139   6.177   8.837   7.173  0.1739 -0.6874 -0.5517
  979MOL0    Cl29140   6.260   8.740   7.293 -0.1475  0.2835 -0.0019
  979MOL0     C29141   6.402   9.272   6.156  0.2939  0.0685  0.6065
  979MOL0     C29142   6.475   9.317   6.035  0.7605  0.2605  0.2790
  979MOL0     O29143   6.689   9.458   5.910 -0.5647 -0.4228 -0.4182
  979MOL0     C29144   6.628   9.373   5.571  0.0385 -0.0486 -0.0517
  979MOL0     C29145   6.653   9.406   5.441 -0.3086 -0.0459  0.4268
  979MOL0     N29146   6.691   9.503   4.775 -0.0152  0.3498  0.8466
  979MOL0     N29147   6.648   9.377   4.764 -0.1855 -0.3473 -0.5305
  979MOL0     C29148   7.001   9.359   4.940  0.2426 -0.3945 -0.0161
  979MOL0     C29149   7.030   9.474   4.865 -0.1419 -0.1697 -0.6333
  979MOL0     C29150   7.049   9.787   4.614 -0.9468  0.1900 -1.0420
  979MOL0     C29151   7.071   9.728   4.493  0.2923  0.0500 -0.1913
  979MOL0     C29152   7.007   9.761   4.381  0.2866  0.3570  0.4800
  979MOL0     C29153   6.924   9.874   4.388 -0.2797  0.0562 -0.2291
  979MOL0     O29154   6.870   9.923   4.261 -1.8041  0.9468 -0.8918
  979MOL0     C29155   6.733   9.943   4.264  0.4018  0.2249  0.2420
  979MOL0     C29156   6.700  10.094   4.292 -0.3412  0.1232 -0.0581
  979MOL0     C29157   6.751  10.188   4.187 -0.5160 -0.6903 -0.1690
  979MOL0     C29158   6.734  10.339   4.224 -0.5427 -0.9151  0.4453
  979MOL0     C29159   6.749  10.429   4.105 -0.9175  0.5008 -0.2879
  979MOL0     C29160   6.762  10.496   4.002 -0.9758 -0.3305 -0.0957
  979MOL0     C29161   6.894   9.940   4.511  0.2135  0.4930  0.9885
  979MOL0     C29162   6.955   9.892   4.623  0.8676  0.1599  0.1579
  979MOL0     H29163   7.328   9.387   4.725 -0.4155  4.0275 -0.8444
  979MOL0     H29164   7.286   9.197   4.873  1.0006  1.7736 -1.3537
  979MOL0     H29165   7.099   8.949   5.074 -2.7770  1.6106  1.2982
  979MOL0     H29166   7.213   9.013   4.962  0.3401  0.3191  1.4144
  979MOL0     H29167   7.099   8.849   4.842 -1.5171 -0.8450  0.0493
  979MOL0     H29168   7.030   8.998   4.776 -0.5902 -2.5679 -1.7668
  979MOL0     H29169   6.912   8.812   4.986  1.2763  0.5626  0.7533
  979MOL0     H29170   6.880   8.809   4.807 -0.2496  4.1478 -2.6350
  979MOL0     H29171   6.794   9.027   5.007  1.8008 -1.2048  1.4267
  979MOL0     H29172   6.801   9.056   4.829 -1.6954 -1.1022  0.4421
  979MOL0     H29173   6.631   8.829   4.902 -1.7014 -0.8298 -0.5929
  979MOL0     H29174   6.621   8.948   4.769 -0.6527  0.2743 -0.3508
  979MOL0     H29175   6.585   8.969   5.076  1.5847  4.4684  0.6601
  979MOL0     H29176   6.451   8.980   4.955 -0.2635 -1.2697 -1.6497
  979MOL0     H29177   6.486   9.173   5.062 -0.5800 -1.7898 -0.2875
  979MOL0     H29178   6.647   9.203   4.987  0.8569 -0.5201 -0.9387
  979MOL0     H29179   6.370   9.236   4.891  0.8525 -0.1935  0.2870
  979MOL0     H29180   6.476   9.165   4.778 -0.8747 -1.6152  1.2932
  979MOL0     H29181   6.446   9.502   4.986  0.4802  1.8131 -0.3963
  979MOL0     H29182   6.524   9.759   4.884 -0.4043 -1.6416  0.0158
  979MOL0     H29183   6.689   9.752   4.833 -2.7438 -1.0691 -3.1684
  979MOL0     H29184   6.600   9.679   5.112  2.9368 -0.2953  3.7630
  979MOL0     H29185   6.663   9.845   5.066 -2.4979 -0.1408  0.6566
  979MOL0     H29186   6.836   9.585   5.039  1.3679  0.6733 -1.8914
  979MOL0     H29187   6.889   9.753   5.044 -0.4551 -0.9337 -1.9592
  979MOL0     H29188   6.761   9.775   5.271 -0.2883 -0.9120  0.0958
  979MOL0     H29189   6.908   9.685   5.278 -0.1976 -0.5985  2.2052
  979MOL0     H29190   6.800   9.701   5.493  3.1456 -0.5466  1.7312
  979MOL0     H29191   6.799   9.609   5.725 -2.1211 -0.5012 -0.0106
  979MOL0     H29192   6.587   9.004   5.955 -0.0513 -0.3819  0.7134
  979MOL0     H29193   6.449   8.940   6.114 -2.0145 -0.0086  2.4504
  979MOL0     H29194   6.191   9.261   6.307  1.2573  0.9682 -0.2397
  979MOL0     H29195   6.339   9.251   6.418  2.4497 -1.3778 -0.9295
  979MOL0     H29196   6.117   9.051   6.437 -1.2142  0.0647  0.0387
  979MOL0     H29197   6.093   9.205   6.520  1.0822  1.2995  0.4234
  979MOL0     H29198   6.320   9.140   6.651 -2.5810 -0.3282  3.6543
  979MOL0     H29199   6.333   9.017   6.524  0.2669 -3.6617  3.3395
  979MOL0     H29200   6.105   9.061   6.714  0.5667  2.1776 -3.9126
  979MOL0     H29201   6.107   8.914   6.623  0.3726  2.6089 -1.6742
  979MOL0     H29202   6.335   8.971   6.820  0.0108  0.5976 -0.5634
  979MOL0     H29203   6.261   8.815   6.766 -0.7213  0.4125  2.0959
  979MOL0     H29204   6.072   8.854   6.909 -2.1510  2.7329  1.0070
  979MOL0     H29205   6.138   9.008   6.962  2.0961  0.0253  2.3862
  979MOL0     H29206   6.273   8.734   7.005  3.6063  0.7551  0.2978
  979MOL0     H29207   6.353   8.877   7.040  0.7740 -0.3288  2.3460
  979MOL0     H29208   6.077   8.800   7.148  0.0171 -1.4825  1.1418
  979MOL0     H29209   6.163   8.939   7.211 -1.3124 -1.1216  0.1382
  979MOL0     H29210   6.347   9.341   6.218 -1.4435 -0.2034 -0.5730
  979MOL0     H29211   6.464   9.420   6.002 -0.2206 -0.7166 -2.9044
  979MOL0     H29212   6.554   9.297   5.594 -1.3103  2.0131  3.1710
  979MOL0     H29213   6.619   9.366   5.345  0.4680  2.2077 -0.8602
  979MOL0     H29214   6.921   9.346   5.012 -2.5283  0.6695 -2.7149
  979MOL0     H29215   6.946   9.543   4.866 -0.6276 -0.7299 -1.5773
  979MOL0     H29216   7.139   9.644   4.491 -1.8152 -1.7495 -0.8673
  979MOL0     H29217   7.039   9.726   4.283 -1.1495  2.4161 -0.8097
  979MOL0     H29218   6.674   9.878   4.330  1.9600 -1.6730 -0.1582
  979MOL0     H29219   6.698   9.909   4.167  2.7003 -1.0778 -0.1960
  979MOL0     H29220   6.591  10.084   4.289 -0.1464 -2.6488 -0.4786
  979MOL0     H29221   6.736  10.139   4.385  0.1965 -0.8078  0.2038
  979MOL0     H29222   6.699  10.176   4.092 -2.8625  3.2154  0.3947
  979MOL0     H29223   6.857  10.164   4.173 -0.0521  0.0564  1.7225
  979MOL0     H29224   6.637  10.354   4.274  0.4714  0.6841  2.0791
  979MOL0     H29225   6.806  10.372   4.300  0.0372  1.0188 -0.8729
  979MOL0     H29226   6.786  10.560   3.919  0.6291 -1.5738 -0.6486
  979MOL0     H29227   6.822  10.018   4.527 -2.4855 -0.0840 -5.2327
  979MOL0     H29228   6.926   9.929   4.720  2.1447 -1.2595  1.1415
  980MOL0     O29229  11.341   7.884   7.430 -0.2025  0.4752 -0.4194
  980MOL0     C29230  11.430   7.953   7.459 -0.1205  1.1761  0.2561
  980MOL0     O29231  11.448   8.080   7.408 -0.3009  0.8848 -0.7120
  980MOL0     C29232  11.379   8.118   7.292 -0.8150  0.2183  0.3740
  980MOL0     C29233  11.357   8.251   7.282  0.4969 -0.3117 -0.2018
  980MOL0     C29234  11.293   8.307   7.167 -0.1342  0.8148 -0.2249
  980MOL0     C29235  11.244   8.223   7.066 -0.3709  0.2219  0.2063
  980MOL0     O29236  11.170   8.280   6.968 -0.0758  0.6187 -0.2402
  980MOL0     C29237  11.032   8.266   6.995  0.8335 -0.7438  0.4760
  980MOL0     C29238  10.961   8.377   6.914  0.5720  0.3666 -1.0800
  980MOL0     C29239  11.022   8.516   6.943 -0.7235  0.1011  0.6638
  980MOL0     C29240  10.944   8.590   7.051 -0.8206 -1.2233 -0.7107
  980MOL0     C29241  10.969   8.743   7.066  0.3144  0.4933 -0.7769
  980MOL0     C29242  11.126   8.771   7.069 -0.2122  0.4947 -0.1497
  980MOL0     C29243  11.158   8.910   7.131  0.3762  0.2366 -0.6053
  980MOL0     C29244  11.304   8.929   7.162  0.1716  0.0873 -0.0745
  980MOL0     N29245  11.358   8.825   7.247  0.2567 -0.1514 -0.8866
  980MOL0     C29246  11.338   8.833   7.382 -0.8089 -0.2883 -0.0494
  980MOL0     C29247  11.367   8.709   7.430 -0.2188  0.3677 -0.5371
  980MOL0     C29248  11.358   8.663   7.572 -0.8068  0.5544 -0.0614
  980MOL0     C29249  11.224   8.691   7.639  0.0506  0.3696  0.1816
  980MOL0     C29250  11.210   8.599   7.760 -0.2141  0.6048 -0.8989
  980MOL0     C29251  11.076   8.610   7.827  0.4407 -0.3972  0.0972
  980MOL0     O29252  11.090   8.600   7.964  0.1380  0.4733 -0.4801
  980MOL0     C29253  11.100   8.713   8.053  0.3287 -0.0856  0.7319
  980MOL0     C29254  11.178   8.832   8.039 -1.2094 -0.1665 -0.3700
  980MOL0     C29255  11.198   8.924   8.147 -0.3209 -0.1970  0.0727
  980MOL0     C29256  11.131   8.914   8.266 -0.3978 -0.1256  0.0981
  980MOL0     C29257  11.151   9.013   8.375 -0.4281  0.0979  0.3434
  980MOL0     O29258  11.051   9.015   8.462  0.3448 -1.0244  0.0675
  980MOL0     C29259  11.064   9.096   8.572 -0.2584 -0.6879  0.3634
  980MOL0     C29260  11.036   9.236   8.561  0.2321  0.5979 -0.5320
  980MOL0     C29261  11.046   9.318   8.668 -0.4155  0.2575  0.0835
  980MOL0     C29262  11.077   9.270   8.797 -0.9063  0.9058  0.8432
  980MOL0     O29263  11.067   9.352   8.910 -0.2532  0.3150 -0.3415
  980MOL0     C29264  11.107   9.491   8.891 -0.4019 -0.0907 -0.5953
  980MOL0     C29265  11.247   9.536   8.945  0.5844  0.4952  0.5380
  980MOL0     C29266  11.361   9.464   8.859  0.0818 -1.0755 -0.8854
  980MOL0     C29267  11.377   9.500   8.713 -0.5919  0.2664  0.7073
  980MOL0     C29268  11.520   9.485   8.659 -0.4883 -0.0840 -0.1580
  980MOL0     C29269  11.519   9.513   8.507 -0.2977  0.5342 -0.4808
  980MOL0     C29270  11.433   9.427   8.410  0.0590  0.2487  0.7124
  980MOL0     C29271  11.484   9.461   8.265 -0.5236 -0.3417  0.7343
  980MOL0    Cl29272  11.580   9.347   8.191 -0.3059  0.2501  0.4649
  980MOL0     C29273  11.096   9.132   8.806  0.0756  0.6532  0.4714
  980MOL0     C29274  11.100   9.049   8.691 -0.7460  0.0097  0.4510
  980MOL0     O29275  11.240   9.089   8.365 -0.5152 -0.6445 -0.0694
  980MOL0     C29276  11.036   8.807   8.271  0.4882  1.0625 -0.1185
  980MOL0     C29277  11.026   8.702   8.178 -0.1739  0.0636  0.9081
  980MOL0     N29278  11.406   8.633   7.324 -0.0612 -0.0617  0.2245
  980MOL0     N29279  11.414   8.701   7.216 -0.0014 -0.4555 -0.0843
  980MOL0     C29280  11.268   8.085   7.073 -0.5667  0.6291  0.0149
  980MOL0     C29281  11.327   8.029   7.188 -0.3121  0.6889 -0.4768
  980MOL0     C29282  11.530   7.903   7.562 -0.4313 -0.0182 -0.1825
  980MOL0     C29283  11.665   7.956   7.572  0.1957  0.2277  0.1982
  980MOL0     C29284  11.748   7.909   7.674  1.0288  0.0188  0.0272
  980MOL0     C29285  11.698   7.833   7.780  0.2518  0.4278 -0.1325
  980MOL0     O29286  11.781   7.805   7.891 -0.0781 -0.9435  0.7868
  980MOL0     C29287  11.722   7.769   8.019 -0.3152  0.4022 -1.0711
  980MOL0     C29288  11.681   7.901   8.092  0.4484  0.3875 -0.0812
  980MOL0     C29289  11.801   7.947   8.174  0.1553  0.3507 -0.1154
  980MOL0     C29290  11.914   8.008   8.096  0.0578 -0.2617  0.7429
  980MOL0     C29291  11.879   8.145   8.054  0.2509 -0.2304 -0.6274
  980MOL0     C29292  11.832   8.249   8.009 -1.0489  1.0819 -0.1966
  980MOL0     C29293  11.563   7.793   7.775 -0.2196 -0.2326 -0.2697
  980MOL0     C29294  11.488   7.816   7.663  0.3142  0.6523 -0.7827
  980MOL0     H29295  11.384   8.314   7.366  2.2080 -1.1145 -0.1077
  980MOL0     H29296  11.278   8.414   7.162 -1.9435  0.5543 -1.3974
  980MOL0     H29297  11.003   8.271   7.101 -1.9909  2.1583 -0.2607
  980MOL0     H29298  10.989   8.177   6.950 -0.1354 -0.2902  0.4709
  980MOL0     H29299  10.853   8.389   6.929  0.8332  0.1162  1.4487
  980MOL0     H29300  10.988   8.360   6.810  0.4310  1.7067 -1.3615
  980MOL0     H29301  11.004   8.577   6.854  0.8904 -1.7997 -1.0511
  980MOL0     H29302  11.130   8.522   6.954 -0.9863  2.5256  2.9667
  980MOL0     H29303  10.838   8.593   7.026 -0.3988 -3.0094 -3.0070
  980MOL0     H29304  10.952   8.542   7.149  0.3095 -2.3124 -1.3164
  980MOL0     H29305  10.928   8.776   7.162 -0.0862  0.0421 -0.7876
  980MOL0     H29306  10.922   8.807   6.991 -2.4053  0.0379  0.4167
  980MOL0     H29307  11.164   8.783   6.967 -2.1815 -3.6586 -1.6048
  980MOL0     H29308  11.170   8.686   7.121  1.9243  2.9436  2.3796
  980MOL0     H29309  11.129   8.997   7.071  0.2670  1.4802  1.1919
  980MOL0     H29310  11.109   8.914   7.228  2.0532  2.7040  0.2544
  980MOL0     H29311  11.321   9.028   7.205  3.2634 -0.0215 -0.7906
  980MOL0     H29312  11.350   8.918   7.063  1.0970  1.0482  0.2294
  980MOL0     H29313  11.299   8.922   7.431  2.6383 -0.2396  3.1442
  980MOL0     H29314  11.444   8.695   7.633  1.2348 -1.7714 -1.4919
  980MOL0     H29315  11.372   8.554   7.580  0.2353  0.5680 -1.3287
  980MOL0     H29316  11.147   8.676   7.564 -0.8641  0.0807  1.1497
  980MOL0     H29317  11.222   8.798   7.665  0.6110  1.2218 -2.9226
  980MOL0     H29318  11.232   8.494   7.737 -0.9237 -0.3462  2.2616
  980MOL0     H29319  11.285   8.630   7.833  0.4040 -1.0311 -0.7927
  980MOL0     H29320  11.010   8.530   7.792  0.3982  0.5250 -2.1405
  980MOL0     H29321  11.028   8.707   7.806  2.6283  0.7214  0.0178
  980MOL0     H29322  11.227   8.851   7.945 -1.5446  0.1482 -0.4846
  980MOL0     H29323  11.254   9.014   8.124 -0.0843 -0.2813  0.3198
  980MOL0     H29324  11.002   9.274   8.465 -4.8506  0.4092  0.8864
  980MOL0     H29325  11.045   9.422   8.637 -0.0704 -0.3000 -1.9784
  980MOL0     H29326  11.048   9.562   8.949  1.1035  0.6009  0.1453
  980MOL0     H29327  11.103   9.542   8.794  1.0606  4.7326  1.5844
  980MOL0     H29328  11.259   9.513   9.051  0.8354  6.1525  2.0828
  980MOL0     H29329  11.265   9.644   8.949 -0.6998  0.7675 -0.1630
  980MOL0     H29330  11.342   9.357   8.861 -0.5127 -0.9678  0.3123
  980MOL0     H29331  11.460   9.484   8.902 -0.1906 -2.3273  0.4034
  980MOL0     H29332  11.305   9.441   8.656  0.5536 -0.0154 -0.5009
  980MOL0     H29333  11.351   9.605   8.703  3.0031  1.1144 -2.1739
  980MOL0     H29334  11.567   9.387   8.671 -0.3575 -0.3241 -2.2871
  980MOL0     H29335  11.571   9.567   8.710 -4.6632  2.2945  0.7182
  980MOL0     H29336  11.623   9.493   8.481  0.4258  2.3174  0.9158
  980MOL0     H29337  11.500   9.620   8.497  1.9815  1.2833  2.2291
  980MOL0     H29338  11.434   9.319   8.425 -1.4777 -0.5667 -3.5971
  980MOL0     H29339  11.330   9.461   8.426  0.5939  1.4123  1.7990
  980MOL0     H29340  11.556   9.542   8.272  1.1191 -1.1953 -3.2229
  980MOL0     H29341  11.393   9.489   8.210 -2.2389 -2.4035  2.3214
  980MOL0     H29342  11.104   9.100   8.910 -3.7590 -0.2306  0.6454
  980MOL0     H29343  11.130   8.944   8.688 -0.3537  0.1322  0.1488
  980MOL0     H29344  10.980   8.798   8.363  0.6454 -0.5515 -0.1618
  980MOL0     H29345  10.964   8.620   8.213 -0.3678  0.2216  0.9407
  980MOL0     H29346  11.235   8.026   6.988 -2.7607 -3.9442  3.6271
  980MOL0     H29347  11.333   7.921   7.193  0.3827  0.7753  1.0835
  980MOL0     H29348  11.699   8.035   7.506  0.5553  0.0233  0.1335
  980MOL0     H29349  11.849   7.948   7.680  0.9772  0.5941 -2.0094
  980MOL0     H29350  11.796   7.708   8.071 -3.8830 -5.0354 -1.5520
  980MOL0     H29351  11.644   7.692   8.019  1.9394 -2.1266  1.6858
  980MOL0     H29352  11.625   7.974   8.033 -0.1905 -0.7792 -0.9553
  980MOL0     H29353  11.604   7.860   8.158  2.3538 -3.5883 -0.0359
  980MOL0     H29354  11.852   7.869   8.229  2.2231  0.9778 -1.0381
  980MOL0     H29355  11.766   8.010   8.256  0.7355  2.1126 -1.1529
  980MOL0     H29356  12.003   8.036   8.155  0.0133  0.3951  0.5065
  980MOL0     H29357  11.948   7.947   8.012  1.9002  3.5046 -1.5329
  980MOL0     H29358  11.798   8.339   7.963  1.5138  2.6523  0.7735
  980MOL0     H29359  11.516   7.727   7.848 -1.0758  1.0424  0.3707
  980MOL0     H29360  11.387   7.777   7.658  1.1978 -1.8804 -0.2604
  981MOL0     O29361  11.380   4.615   2.932  0.3206 -1.0213 -0.1773
  981MOL0     C29362  11.388   4.715   3.006  0.8065 -0.2796 -0.3471
  981MOL0     O29363  11.278   4.780   3.064  0.9793  0.6241  0.4119
  981MOL0     C29364  11.149   4.757   3.026  0.0662 -0.0695  1.2302
  981MOL0     C29365  11.077   4.853   2.957  0.0967 -0.0689 -0.0264
  981MOL0     C29366  10.948   4.837   2.924 -0.0343  0.1372  0.3666
  981MOL0     C29367  10.888   4.712   2.947  0.8134  1.1863  0.5725
  981MOL0     O29368  10.753   4.681   2.919 -0.9292 -0.3616 -0.3995
  981MOL0     C29369  10.693   4.747   2.810  0.2853 -0.9216  0.0143
  981MOL0     C29370  10.563   4.821   2.846  1.2060  0.2777  0.9434
  981MOL0     C29371  10.472   4.745   2.935 -0.4184  0.4100  0.1676
  981MOL0     C29372  10.445   4.594   2.910  0.1401 -1.6533  0.2160
  981MOL0     C29373  10.363   4.544   3.029 -0.5054  0.0983  0.9760
  981MOL0     C29374  10.327   4.400   3.024 -0.5252 -0.6241 -0.3123
  981MOL0     C29375  10.254   4.364   3.154 -0.3743  1.0809 -0.5389
  981MOL0     C29376  10.341   4.290   3.260 -0.3319  0.0481  0.5864
  981MOL0     N29377  10.285   4.303   3.395  0.3573 -1.1794  0.1814
  981MOL0     C29378  10.291   4.410   3.477  0.0958  0.0072  0.2409
  981MOL0     C29379  10.218   4.379   3.586  0.6091  0.8065  0.4717
  981MOL0     C29380  10.209   4.464   3.719  0.0351 -0.1548 -1.5541
  981MOL0     C29381  10.344   4.472   3.777 -0.8468 -0.2328 -0.6469
  981MOL0     C29382  10.379   4.607   3.853  0.4286  0.3588 -0.0614
  981MOL0     C29383  10.325   4.611   3.994  0.3032  0.0615  1.0183
  981MOL0     O29384  10.186   4.572   3.997 -0.2705 -0.0003 -0.6253
  981MOL0     C29385  10.112   4.590   4.104  0.1397 -0.4984  0.1273
  981MOL0     C29386  10.159   4.651   4.219  0.0687  0.8291 -0.8844
  981MOL0     C29387  10.076   4.650   4.331  0.1858 -0.1924 -0.0411
  981MOL0     C29388   9.945   4.593   4.327  0.4608  0.6886  0.3720
  981MOL0     C29389   9.849   4.606   4.448  0.2958  0.1400  0.0496
  981MOL0     O29390   9.906   4.656   4.560  0.8061  0.7080 -0.1901
  981MOL0     C29391   9.829   4.664   4.678 -0.7559 -0.3456  0.6151
  981MOL0     C29392   9.761   4.552   4.723  0.7421  0.6294  1.2147
  981MOL0     C29393   9.696   4.545   4.850  0.6612  0.2173  1.1448
  981MOL0     C29394   9.680   4.662   4.918 -0.5589 -0.5965  0.1061
  981MOL0     O29395   9.600   4.649   5.026  0.3284 -0.7950  0.1348
  981MOL0     C29396   9.535   4.772   5.075  0.3909  0.1104 -0.2938
  981MOL0     C29397   9.417   4.785   4.984  0.2671 -0.4625 -0.0273
  981MOL0     C29398   9.319   4.883   5.037  0.0230 -1.0411  0.3668
  981MOL0     C29399   9.379   5.021   5.054 -0.7373  0.4374  0.8624
  981MOL0     C29400   9.287   5.141   5.066  0.1646  0.1964  0.0764
  981MOL0     C29401   9.174   5.122   5.166 -0.1692 -0.1018  0.0238
  981MOL0     C29402   9.219   5.128   5.316  0.4510  0.6815 -1.1888
  981MOL0     C29403   9.243   4.980   5.378 -0.2557 -0.0055 -0.7353
  981MOL0    Cl29404   9.203   4.986   5.551  0.4770 -0.3752 -0.3223
  981MOL0     C29405   9.744   4.786   4.876 -0.8025  0.3813  0.5140
  981MOL0     C29406   9.826   4.776   4.757 -0.5946 -0.5961 -0.9133
  981MOL0     O29407   9.730   4.584   4.433 -0.4702 -0.0388 -0.4922
  981MOL0     C29408   9.889   4.545   4.202  0.4353 -0.9047 -0.6148
  981MOL0     C29409   9.974   4.546   4.093 -0.2413  0.2114  0.1829
  981MOL0     N29410  10.155   4.256   3.551  0.1243  0.2585 -0.3165
  981MOL0     N29411  10.196   4.213   3.434 -0.2564 -0.3355  0.1455
  981MOL0     C29412  10.962   4.602   3.010 -0.1532 -0.6012  0.4927
  981MOL0     C29413  11.100   4.628   3.052  0.3816  0.3062  0.3856
  981MOL0     C29414  11.518   4.738   3.064 -1.4667 -0.4466 -0.1616
  981MOL0     C29415  11.529   4.815   3.178 -0.6709  0.2463 -0.2322
  981MOL0     C29416  11.652   4.839   3.240  0.4035 -0.8264  0.0289
  981MOL0     C29417  11.774   4.779   3.188  0.6963 -0.1912 -0.2879
  981MOL0     O29418  11.897   4.777   3.240  0.3979  0.2707 -0.5105
  981MOL0     C29419  11.914   4.864   3.345 -0.0729 -0.8207 -0.2326
  981MOL0     C29420  12.062   4.866   3.372 -0.9645 -0.4226 -0.1973
  981MOL0     C29421  12.145   4.935   3.259  0.2382 -0.1094  0.3342
  981MOL0     C29422  12.207   4.831   3.165  0.3678 -0.4258  0.5682
  981MOL0     C29423  12.320   4.872   3.093  0.8076  0.0932  0.0369
  981MOL0     C29424  12.412   4.923   3.035 -0.0518  0.2559 -0.3968
  981MOL0     C29425  11.763   4.717   3.060 -0.4462 -0.2407  0.0859
  981MOL0     C29426  11.638   4.696   3.001 -0.8166 -0.2312  0.1581
  981MOL0     H29427  11.122   4.949   2.931 -0.2422  0.5653  1.5930
  981MOL0     H29428  10.889   4.925   2.901 -0.3570  0.5961  2.6824
  981MOL0     H29429  10.685   4.668   2.735 -1.9031 -4.1217  3.2959
  981MOL0     H29430  10.745   4.825   2.753  0.4542 -2.1006 -1.5276
  981MOL0     H29431  10.500   4.831   2.757  1.5935  3.6185  0.9271
  981MOL0     H29432  10.584   4.922   2.881  0.8203  0.1409  1.5885
  981MOL0     H29433  10.378   4.800   2.923 -0.1266  0.3288 -3.9136
  981MOL0     H29434  10.501   4.754   3.040 -0.4656  1.1222  0.1252
  981MOL0     H29435  10.400   4.568   2.814  0.6974 -1.1032 -0.1986
  981MOL0     H29436  10.540   4.539   2.904  0.5304 -0.8459 -2.1597
  981MOL0     H29437  10.269   4.597   3.044 -1.2268 -1.1761  1.0576
  981MOL0     H29438  10.426   4.567   3.115  0.9978  3.8598 -0.8946
  981MOL0     H29439  10.415   4.338   3.006  1.8267  2.3770  0.1018
  981MOL0     H29440  10.259   4.376   2.941  0.3968  3.4103 -2.4537
  981MOL0     H29441  10.216   4.447   3.214 -1.7756 -1.6601  2.6848
  981MOL0     H29442  10.176   4.293   3.129  1.4785 -2.2604  2.2687
  981MOL0     H29443  10.447   4.316   3.263 -0.3850  0.5265 -0.9075
  981MOL0     H29444  10.335   4.188   3.222  0.4615  1.0338 -2.4939
  981MOL0     H29445  10.360   4.493   3.467  1.3892 -1.1966 -1.3323
  981MOL0     H29446  10.132   4.423   3.784 -0.2070  1.2896 -0.8959
  981MOL0     H29447  10.166   4.565   3.712 -0.5232 -0.0026  2.2009
  981MOL0     H29448  10.421   4.475   3.698  1.0118  0.4923  1.1091
  981MOL0     H29449  10.363   4.384   3.839  0.4483  2.4849  3.1778
  981MOL0     H29450  10.488   4.611   3.857  0.3803  1.1717  0.8618
  981MOL0     H29451  10.341   4.702   3.814  0.9537  0.4587 -0.3299
  981MOL0     H29452  10.341   4.710   4.036  0.7706  0.3449  0.2053
  981MOL0     H29453  10.374   4.528   4.046 -0.0940 -3.0932 -3.1003
  981MOL0     H29454  10.261   4.685   4.231  0.0692  0.6303 -0.3227
  981MOL0     H29455  10.123   4.681   4.424  1.0377  2.5907 -1.2930
  981MOL0     H29456   9.767   4.460   4.665 -0.1782  2.6716 -2.3869
  981MOL0     H29457   9.668   4.454   4.904  4.0633  0.4890  3.7177
  981MOL0     H29458   9.589   4.867   5.082  2.0784 -0.9271  2.1102
  981MOL0     H29459   9.513   4.752   5.180 -0.7250 -3.1393 -1.0341
  981MOL0     H29460   9.369   4.687   4.976  1.0044 -1.1057  2.5942
  981MOL0     H29461   9.446   4.808   4.881  0.1252 -2.1370 -0.4743
  981MOL0     H29462   9.265   4.848   5.125 -1.8520  3.1077  1.0822
  981MOL0     H29463   9.253   4.890   4.950 -0.9425  2.6492  1.2240
  981MOL0     H29464   9.445   5.014   5.141 -0.5492 -1.3865  0.6174
  981MOL0     H29465   9.451   5.042   4.974 -0.9589 -0.6684  0.3467
  981MOL0     H29466   9.247   5.162   4.967  3.7806  1.4993 -1.3028
  981MOL0     H29467   9.332   5.238   5.088  2.0557 -0.0833 -2.1599
  981MOL0     H29468   9.116   5.034   5.138 -0.9657  0.1885  0.7203
  981MOL0     H29469   9.105   5.207   5.155  2.2838  2.3750  2.1791
  981MOL0     H29470   9.308   5.190   5.326  0.1134  0.8997  1.0550
  981MOL0     H29471   9.132   5.171   5.365 -0.1619 -0.6670 -1.0336
  981MOL0     H29472   9.345   4.942   5.376  0.7484  2.3133  1.0955
  981MOL0     H29473   9.174   4.910   5.330 -0.8777 -0.4177  0.7075
  981MOL0     H29474   9.751   4.879   4.931  0.9270  1.8632 -2.0030
  981MOL0     H29475   9.861   4.872   4.722 -0.9613 -0.2386 -0.3041
  981MOL0     H29476   9.787   4.510   4.211  0.0002  0.4369 -0.0850
  981MOL0     H29477   9.940   4.488   4.007 -1.0368 -0.4142  0.8993
  981MOL0     H29478  10.912   4.507   3.028  0.3253 -1.8155 -3.5747
  981MOL0     H29479  11.146   4.540   3.095 -2.5630 -1.3959  0.2568
  981MOL0     H29480  11.443   4.853   3.232 -0.1633  0.3159  0.5465
  981MOL0     H29481  11.668   4.888   3.336 -3.9100 -3.5617  2.4579
  981MOL0     H29482  11.860   4.836   3.435 -0.3534  3.4599  1.1531
  981MOL0     H29483  11.888   4.970   3.332 -2.4393 -0.9385  2.5252
  981MOL0     H29484  12.073   4.918   3.468  1.1622  0.9145 -1.1067
  981MOL0     H29485  12.102   4.765   3.376  0.0165 -0.0898 -1.1587
  981MOL0     H29486  12.230   4.984   3.307 -0.1721 -0.1760  1.1424
  981MOL0     H29487  12.092   5.022   3.220  1.8153  0.6585 -0.1555
  981MOL0     H29488  12.251   4.758   3.233 -2.5606 -1.7126  1.2546
  981MOL0     H29489  12.137   4.786   3.094 -0.5309 -0.5011  1.4828
  981MOL0     H29490  12.508   4.963   3.008  0.7529 -0.2891  1.5222
  981MOL0     H29491  11.851   4.667   3.022  0.7968  0.6748  1.6680
  981MOL0     H29492  11.633   4.631   2.914 -1.4522 -0.2665  0.2153
  982MOL0     O29493   7.721   5.663   3.245 -0.3336  0.1772  0.1421
  982MOL0     C29494   7.802   5.590   3.311 -0.6804  0.5611 -0.2373
  982MOL0     O29495   7.774   5.532   3.429  0.3416  0.7898  0.7767
  982MOL0     C29496   7.651   5.540   3.502 -0.9256 -0.6363 -0.3322
  982MOL0     C29497   7.631   5.454   3.607  0.1684 -0.8076  0.3524
  982MOL0     C29498   7.515   5.446   3.679  1.2730  0.6938  0.4222
  982MOL0     C29499   7.410   5.528   3.639 -1.0524 -0.5345 -0.0165
  982MOL0     O29500   7.284   5.531   3.687 -0.2862  0.5814  0.4938
  982MOL0     C29501   7.268   5.433   3.794  0.2073  0.1567  0.2092
  982MOL0     C29502   7.129   5.480   3.850 -0.6293  0.2203 -0.1383
  982MOL0     C29503   7.094   5.439   3.989  0.6984 -0.6771  0.5765
  982MOL0     C29504   7.115   5.274   4.007 -1.1184  0.0839 -0.0224
  982MOL0     C29505   7.005   5.188   3.940 -0.8926 -0.4926  0.3818
  982MOL0     C29506   6.874   5.175   4.020 -0.5864  0.1283 -0.3820
  982MOL0     C29507   6.772   5.080   3.954  0.1116 -1.2432  0.5477
  982MOL0     C29508   6.771   4.925   3.979 -0.6370 -0.0341 -0.8722
  982MOL0     N29509   6.858   4.850   3.889 -0.0962 -0.2255  0.4171
  982MOL0     C29510   6.815   4.809   3.760 -0.1095  0.8312 -0.3667
  982MOL0     C29511   6.926   4.747   3.717 -0.5010  0.6257  0.3292
  982MOL0     C29512   6.927   4.684   3.580  0.2571 -0.0761  0.4638
  982MOL0     C29513   7.053   4.711   3.495  0.0867  0.4944  0.3615
  982MOL0     C29514   7.025   4.658   3.356 -0.7322 -0.8140 -0.0359
  982MOL0     C29515   6.944   4.769   3.275 -1.1225 -0.0367  0.4465
  982MOL0     O29516   6.823   4.820   3.343 -0.0431 -0.4571  0.5154
  982MOL0     C29517   6.744   4.912   3.291 -0.0230  0.0580 -0.0490
  982MOL0     C29518   6.681   4.901   3.169 -0.3536 -0.0369 -0.1188
  982MOL0     C29519   6.601   4.999   3.126  1.1058 -0.4856 -0.3419
  982MOL0     C29520   6.573   5.112   3.196  0.0929 -0.1776 -0.6073
  982MOL0     C29521   6.480   5.220   3.153 -1.3024  0.4748 -0.4899
  982MOL0     O29522   6.493   5.345   3.216 -1.0673  0.0589  0.1250
  982MOL0     C29523   6.413   5.447   3.179 -0.4547 -0.1490 -0.8408
  982MOL0     C29524   6.381   5.489   3.056  0.1437  0.8721  0.1294
  982MOL0     C29525   6.302   5.600   3.030 -0.4237 -0.3969  0.1533
  982MOL0     C29526   6.262   5.690   3.129  0.8436 -0.3260 -0.1013
  982MOL0     O29527   6.172   5.794   3.112  0.1425  0.1795 -0.2577
  982MOL0     C29528   6.136   5.822   2.978  0.2830 -0.1743  0.3606
  982MOL0     C29529   6.057   5.960   2.966  0.1378 -0.1484  0.1944
  982MOL0     C29530   6.042   6.002   2.814  0.7005 -0.4582  0.0345
  982MOL0     C29531   5.942   6.117   2.811 -0.3056  0.8412  0.4399
  982MOL0     C29532   5.898   6.142   2.658 -0.1053  0.2545 -0.6119
  982MOL0     C29533   5.760   6.218   2.651 -0.5040 -0.1629 -1.1395
  982MOL0     C29534   5.755   6.304   2.519 -0.0792  0.7668 -0.7448
  982MOL0     C29535   5.608   6.348   2.495 -0.0888  0.1998 -0.5134
  982MOL0    Cl29536   5.564   6.462   2.630 -0.1104  0.0333 -0.1135
  982MOL0     C29537   6.287   5.643   3.262  0.4818 -0.2556  1.0132
  982MOL0     C29538   6.360   5.523   3.283  0.5400  0.3143 -0.8790
  982MOL0     O29539   6.389   5.188   3.078 -0.7885 -0.3668 -0.3629
  982MOL0     C29540   6.627   5.122   3.327  0.1682  0.8000 -0.6728
  982MOL0     C29541   6.706   5.017   3.374 -0.4859  0.3566  0.3047
  982MOL0     N29542   7.027   4.741   3.810 -0.1637 -0.1215  0.6949
  982MOL0     N29543   6.988   4.800   3.918  0.6726 -0.2816 -0.1018
  982MOL0     C29544   7.423   5.621   3.537 -0.7411 -0.1473  0.3098
  982MOL0     C29545   7.545   5.628   3.470  0.3592  0.1515 -0.0539
  982MOL0     C29546   7.926   5.547   3.246  0.3058 -1.4756 -0.1399
  982MOL0     C29547   7.998   5.435   3.288 -0.4522 -0.7153 -0.6021
  982MOL0     C29548   8.122   5.400   3.230 -0.5949 -0.3127  0.1727
  982MOL0     C29549   8.166   5.469   3.114 -0.0305 -0.2357  0.2767
  982MOL0     O29550   8.284   5.447   3.054  0.5465  0.0116  0.1191
  982MOL0     C29551   8.298   5.308   3.009 -0.2419  0.1673  0.1908
  982MOL0     C29552   8.445   5.276   2.998 -0.2799 -0.0941  0.6347
  982MOL0     C29553   8.462   5.131   2.941 -0.0664 -0.1859  0.3085
  982MOL0     C29554   8.601   5.086   2.889 -0.1515 -0.0864  0.7863
  982MOL0     C29555   8.707   5.074   2.991  0.4409  0.2790 -0.2296
  982MOL0     C29556   8.806   5.063   3.057 -0.7559  0.1489  0.1424
  982MOL0     C29557   8.088   5.578   3.067 -0.6242  1.0298  0.2905
  982MOL0     C29558   7.971   5.615   3.130  0.0068 -0.5177  0.0049
  982MOL0     H29559   7.700   5.372   3.623 -1.5917 -2.6984 -1.1437
  982MOL0     H29560   7.524   5.377   3.762 -0.2293 -2.7243 -2.0469
  982MOL0     H29561   7.337   5.423   3.878 -0.0069  1.9117  0.6259
  982MOL0     H29562   7.267   5.331   3.754  1.6970  0.7998 -1.5809
  982MOL0     H29563   7.044   5.439   3.795  0.4632 -1.8299 -0.3751
  982MOL0     H29564   7.127   5.590   3.845  1.2960  0.2769 -0.5914
  982MOL0     H29565   6.990   5.462   4.011  0.7243  1.2449 -1.0354
  982MOL0     H29566   7.155   5.488   4.065  2.1770 -1.1808 -0.2401
  982MOL0     H29567   7.216   5.248   3.974 -1.1511 -0.2789  0.1539
  982MOL0     H29568   7.104   5.255   4.115  1.0490  0.9221  0.3922
  982MOL0     H29569   7.044   5.086   3.931 -1.3580 -0.7583  1.2857
  982MOL0     H29570   7.012   5.211   3.833  0.8969 -3.7112 -0.3354
  982MOL0     H29571   6.842   5.279   4.024 -1.0242  0.2126 -3.3738
  982MOL0     H29572   6.894   5.134   4.119  0.6093  0.9618 -0.2676
  982MOL0     H29573   6.675   5.128   3.966  0.6207 -0.1574  0.5078
  982MOL0     H29574   6.790   5.093   3.847 -0.2348  1.2724  0.7405
  982MOL0     H29575   6.669   4.892   3.957 -1.9342  2.8716  0.2339
  982MOL0     H29576   6.785   4.909   4.087  0.7689  2.5300 -0.5832
  982MOL0     H29577   6.719   4.830   3.714  0.1289  3.1014  0.0223
  982MOL0     H29578   6.834   4.705   3.528  1.4275  1.8404 -0.9525
  982MOL0     H29579   6.919   4.577   3.603 -3.3413  0.0325  0.2157
  982MOL0     H29580   7.137   4.662   3.546 -0.9350  0.4502  2.0739
  982MOL0     H29581   7.061   4.820   3.488 -0.6784  0.5470  0.1745
  982MOL0     H29582   7.117   4.636   3.300 -1.5743  0.4611 -2.0534
  982MOL0     H29583   6.970   4.564   3.350 -0.3951 -0.9332 -3.0495
  982MOL0     H29584   6.917   4.730   3.177  0.3179  0.2838 -0.0884
  982MOL0     H29585   7.013   4.851   3.256 -1.5504  0.2058 -0.0928
  982MOL0     H29586   6.710   4.828   3.094  1.3575 -0.1899  0.6464
  982MOL0     H29587   6.554   4.987   3.029 -1.7753  1.3328  0.6848
  982MOL0     H29588   6.405   5.436   2.964 -4.8463  0.0791 -1.0331
  982MOL0     H29589   6.262   5.609   2.929  0.5838  0.5061 -0.1829
  982MOL0     H29590   6.082   5.743   2.925 -1.0441  1.3760 -0.6893
  982MOL0     H29591   6.231   5.825   2.924  0.2488  1.0864  0.3266
  982MOL0     H29592   6.122   6.037   3.007 -1.4072  1.7864 -0.8628
  982MOL0     H29593   5.959   5.951   3.012 -0.5954  2.6909 -0.6668
  982MOL0     H29594   6.003   5.922   2.750  0.8934 -0.9851  0.5657
  982MOL0     H29595   6.140   6.033   2.777  0.5637  2.0062  1.5486
  982MOL0     H29596   5.854   6.096   2.872  0.1881 -0.3214  0.7803
  982MOL0     H29597   5.986   6.203   2.863  2.1113 -1.1679  1.9492
  982MOL0     H29598   5.900   6.051   2.596  1.9960  1.4525 -2.4563
  982MOL0     H29599   5.972   6.206   2.609 -0.9196 -0.1359 -2.4538
  982MOL0     H29600   5.755   6.275   2.744  0.9383 -1.5063 -0.1942
  982MOL0     H29601   5.680   6.145   2.663 -0.0921 -0.3797  0.4548
  982MOL0     H29602   5.826   6.388   2.519  0.5679  0.3250  2.2212
  982MOL0     H29603   5.791   6.249   2.431 -0.5087 -0.0424 -0.4252
  982MOL0     H29604   5.524   6.278   2.501 -1.5478  1.7698 -1.4356
  982MOL0     H29605   5.596   6.411   2.406  2.2958  0.4589 -0.7106
  982MOL0     H29606   6.245   5.693   3.349 -1.3985  0.8118 -0.4372
  982MOL0     H29607   6.382   5.497   3.386 -0.6440  0.6101 -0.5325
  982MOL0     H29608   6.593   5.203   3.391 -3.5225 -0.2394 -1.0538
  982MOL0     H29609   6.759   5.033   3.467  0.1971 -1.4068  0.2457
  982MOL0     H29610   7.342   5.680   3.496  0.0039 -1.1396 -2.8705
  982MOL0     H29611   7.542   5.697   3.386  0.5080 -1.3284 -1.3075
  982MOL0     H29612   7.955   5.370   3.364 -2.4176 -0.0121 -1.0546
  982MOL0     H29613   8.190   5.321   3.260 -0.7848 -1.5046 -2.2540
  982MOL0     H29614   8.250   5.283   2.913 -2.8607 -2.1337  1.9554
  982MOL0     H29615   8.248   5.241   3.080 -1.3057  2.4510  1.7213
  982MOL0     H29616   8.494   5.353   2.938  0.2876  0.9771  2.3944
  982MOL0     H29617   8.490   5.269   3.098  0.2222 -4.3972  0.3353
  982MOL0     H29618   8.388   5.117   2.862  1.5315 -1.3857 -1.0366
  982MOL0     H29619   8.436   5.055   3.016 -1.7935  1.2721  1.2698
  982MOL0     H29620   8.605   4.985   2.846  0.3058  0.4434 -0.4799
  982MOL0     H29621   8.638   5.157   2.814 -2.8661  1.5804  0.9124
  982MOL0     H29622   8.899   5.068   3.110 -0.0618  2.2336 -1.1694
  982MOL0     H29623   8.139   5.637   2.991 -0.0468  0.1581 -0.0078
  982MOL0     H29624   7.917   5.698   3.086  0.8872  0.4961  0.7897
  983MOL0     O29625   2.584   7.680   6.693  1.1719  0.2496 -1.0381
  983MOL0     C29626   2.675   7.741   6.749  0.8875 -0.0559 -0.0271
  983MOL0     O29627   2.801   7.685   6.776  0.1799 -0.0567  0.1186
  983MOL0     C29628   2.855   7.594   6.690 -0.1485  0.6572 -0.5875
  983MOL0     C29629   2.812   7.553   6.563 -0.2897 -0.0928 -0.6504
  983MOL0     C29630   2.887   7.447   6.501 -0.9723 -0.9846  0.1197
  983MOL0     C29631   3.006   7.401   6.560  0.1646 -0.7477  0.3812
  983MOL0     O29632   3.096   7.326   6.492  0.2075  0.0047  0.6314
  983MOL0     C29633   3.071   7.182   6.520  0.5802 -0.3181  0.1633
  983MOL0     C29634   3.183   7.115   6.591 -0.7704 -0.1698  0.0319
  983MOL0     C29635   3.306   7.096   6.497  0.6458 -0.5338  0.6498
  983MOL0     C29636   3.412   7.007   6.567 -0.2493  0.4029 -0.9321
  983MOL0     C29637   3.547   6.989   6.498  0.0515 -0.0632 -0.3075
  983MOL0     C29638   3.529   6.912   6.367  1.2302  0.3954  0.4851
  983MOL0     C29639   3.663   6.869   6.313  0.0543  0.4898 -0.8465
  983MOL0     C29640   3.656   6.751   6.210  0.3074 -0.2202 -0.7050
  983MOL0     N29641   3.576   6.789   6.089  0.4318 -1.0975 -0.6294
  983MOL0     C29642   3.437   6.763   6.079 -0.4255 -0.6544  0.4119
  983MOL0     C29643   3.393   6.872   5.996  0.0289  2.4792 -0.2747
  983MOL0     C29644   3.252   6.902   5.963  0.8370 -0.4148  0.0770
  983MOL0     C29645   3.212   7.049   5.924  0.1422  0.1685 -0.1314
  983MOL0     C29646   3.077   7.048   5.852 -0.0305 -0.0409  0.0485
  983MOL0     C29647   3.053   6.951   5.731 -0.1225  0.0466 -1.4059
  983MOL0     O29648   2.997   6.823   5.768 -0.4480  0.2809 -0.2877
  983MOL0     C29649   2.864   6.810   5.749 -0.9677 -0.7962 -1.3655
  983MOL0     C29650   2.816   6.784   5.622  0.7244 -0.5094 -0.3719
  983MOL0     C29651   2.674   6.766   5.604 -0.2306  1.0036 -0.4391
  983MOL0     C29652   2.594   6.754   5.711 -0.0688 -0.1594 -0.9802
  983MOL0     C29653   2.448   6.751   5.692  0.7802  0.1731 -0.1043
  983MOL0     O29654   2.403   6.749   5.563 -0.4599  0.9732  0.2825
  983MOL0     C29655   2.273   6.733   5.532  0.1926 -1.0169 -0.3896
  983MOL0     C29656   2.218   6.617   5.492  0.3687 -0.1392 -0.0225
  983MOL0     C29657   2.082   6.612   5.464  0.3906  0.1576  0.0655
  983MOL0     C29658   1.997   6.724   5.473  0.1814 -0.6373  0.0839
  983MOL0     O29659   1.853   6.723   5.461 -0.5032 -0.1408 -0.3881
  983MOL0     C29660   1.789   6.626   5.385 -0.8408  0.5844 -0.1963
  983MOL0     C29661   1.648   6.664   5.351 -0.5091 -0.9917 -1.0235
  983MOL0     C29662   1.594   6.557   5.240 -0.1567 -0.6356  0.4903
  983MOL0     C29663   1.470   6.601   5.157 -0.7931  0.2889  0.7126
  983MOL0     C29664   1.442   6.490   5.064  0.6598 -1.4509  0.0050
  983MOL0     C29665   1.312   6.544   4.991 -0.9340 -0.0571 -0.0659
  983MOL0     C29666   1.254   6.463   4.877  0.5278 -0.3330  0.4391
  983MOL0     C29667   1.252   6.543   4.736 -0.2179 -0.3446 -0.9123
  983MOL0    Cl29668   1.250   6.406   4.623  0.0473  0.4873 -0.4599
  983MOL0     C29669   2.054   6.846   5.506  1.2026 -0.6110 -0.0957
  983MOL0     C29670   2.191   6.848   5.540 -0.5812 -0.4325 -0.5703
  983MOL0     O29671   2.371   6.745   5.789  0.1833 -0.5370  0.1668
  983MOL0     C29672   2.651   6.768   5.842 -0.1011 -0.4627  0.3377
  983MOL0     C29673   2.785   6.796   5.859  0.7911  0.3518 -0.4071
  983MOL0     N29674   3.500   6.948   5.964 -1.0448 -0.8622  0.1925
  983MOL0     N29675   3.604   6.908   6.019  0.1359  0.1163  0.3698
  983MOL0     C29676   3.045   7.443   6.682 -0.1370  0.5785 -1.0083
  983MOL0     C29677   2.966   7.540   6.748 -0.5454 -0.8803  0.0934
  983MOL0     C29678   2.633   7.861   6.825  0.2603 -0.7228 -0.2315
  983MOL0     C29679   2.519   7.941   6.799  0.3062  0.5652  0.0875
  983MOL0     C29680   2.500   8.073   6.862  0.4667  0.1695 -0.1064
  983MOL0     C29681   2.595   8.116   6.951 -0.1302  0.1535 -0.4428
  983MOL0     O29682   2.584   8.229   7.030 -0.6107  0.4002  0.0255
  983MOL0     C29683   2.467   8.236   7.114 -0.3857 -0.0510 -0.4748
  983MOL0     C29684   2.390   8.375   7.109 -0.1915  0.2967 -0.3062
  983MOL0     C29685   2.485   8.484   7.161 -1.1123 -0.1224  0.7102
  983MOL0     C29686   2.441   8.625   7.177  0.5704 -0.7215 -0.1955
  983MOL0     C29687   2.353   8.668   7.073  0.0644 -0.4179  0.9261
  983MOL0     C29688   2.283   8.706   6.985  0.6820  0.8906  0.5552
  983MOL0     C29689   2.703   8.037   6.983  0.4156  0.6005 -0.0258
  983MOL0     C29690   2.726   7.924   6.917  0.1880 -0.9497  1.1088
  983MOL0     H29691   2.714   7.579   6.525 -2.4569 -1.3621  3.4714
  983MOL0     H29692   2.851   7.406   6.407 -2.9382 -1.0371  0.8454
  983MOL0     H29693   3.042   7.126   6.431 -0.1519  0.1244  0.1102
  983MOL0     H29694   2.983   7.184   6.585  1.5831  1.4923  1.5826
  983MOL0     H29695   3.155   7.013   6.619 -1.3143  0.0658  0.3451
  983MOL0     H29696   3.207   7.165   6.685  1.9752 -1.3825  0.0769
  983MOL0     H29697   3.353   7.194   6.483 -0.4643  0.3498  2.7319
  983MOL0     H29698   3.264   7.048   6.407  3.0249 -0.6482 -0.4994
  983MOL0     H29699   3.433   7.064   6.658 -0.6248  0.3500 -0.8090
  983MOL0     H29700   3.371   6.909   6.592 -4.0512  1.6278 -1.5956
  983MOL0     H29701   3.607   6.926   6.564  1.3978 -0.4430 -1.8189
  983MOL0     H29702   3.595   7.087   6.488  0.1144  0.0482  0.9882
  983MOL0     H29703   3.466   6.982   6.311 -0.5474 -0.6324  1.1275
  983MOL0     H29704   3.466   6.824   6.384 -1.3102  2.0812  0.4165
  983MOL0     H29705   3.711   6.959   6.273  2.0541  0.0040  0.2928
  983MOL0     H29706   3.733   6.848   6.395  1.3348  2.0625 -1.4837
  983MOL0     H29707   3.607   6.665   6.257 -2.6395  2.3368  1.2669
  983MOL0     H29708   3.756   6.718   6.179  0.5319 -0.1532 -0.0673
  983MOL0     H29709   3.365   6.693   6.121 -0.8592 -0.2435  0.3580
  983MOL0     H29710   3.192   6.866   6.047 -1.3399  0.1886 -1.1407
  983MOL0     H29711   3.223   6.830   5.886 -1.0723 -1.8636  2.0094
  983MOL0     H29712   3.279   7.081   5.843  1.3987  0.2707  0.9131
  983MOL0     H29713   3.220   7.111   6.013  0.3900  0.1005 -0.1048
  983MOL0     H29714   2.999   7.028   5.926  2.2391  0.9384  2.8965
  983MOL0     H29715   3.064   7.153   5.824 -1.7210 -0.0817  0.5610
  983MOL0     H29716   3.150   6.930   5.685  0.6738 -3.2084  1.3354
  983MOL0     H29717   2.979   6.993   5.661 -0.1692 -2.5098 -3.0308
  983MOL0     H29718   2.891   6.767   5.545  1.5849 -0.9071  0.5347
  983MOL0     H29719   2.644   6.739   5.503  1.9953  0.3302 -0.9824
  983MOL0     H29720   2.293   6.539   5.503  0.7571  0.5917  3.5348
  983MOL0     H29721   2.046   6.512   5.445  2.5020 -0.4577 -1.0603
  983MOL0     H29722   1.785   6.548   5.462 -1.3507  3.0235  2.4371
  983MOL0     H29723   1.849   6.593   5.300 -0.1515 -2.6203  1.3651
  983MOL0     H29724   1.654   6.760   5.299 -2.4057  0.8571  1.8470
  983MOL0     H29725   1.590   6.668   5.444 -0.6430  1.7244 -1.1541
  983MOL0     H29726   1.563   6.470   5.299  1.8650 -1.9567 -0.2925
  983MOL0     H29727   1.675   6.520   5.177 -0.2132  0.2692 -0.1260
  983MOL0     H29728   1.382   6.624   5.219 -2.1907 -1.5970 -0.4598
  983MOL0     H29729   1.481   6.691   5.096  0.4953  1.2637  2.3022
  983MOL0     H29730   1.411   6.408   5.130 -0.5764 -2.2374 -1.4693
  983MOL0     H29731   1.530   6.470   5.002  2.6051  2.1315  1.3447
  983MOL0     H29732   1.354   6.633   4.944  0.2076  0.9077  2.5713
  983MOL0     H29733   1.235   6.569   5.065  0.3559 -0.7981  1.6035
  983MOL0     H29734   1.318   6.374   4.870 -0.6936 -1.2585  0.7018
  983MOL0     H29735   1.151   6.445   4.906 -0.4351  0.6949 -2.0403
  983MOL0     H29736   1.350   6.591   4.731 -0.0828 -0.2606  1.4776
  983MOL0     H29737   1.163   6.608   4.729 -1.2890 -1.9209 -3.0585
  983MOL0     H29738   2.000   6.940   5.516  2.6431  0.2859 -0.4498
  983MOL0     H29739   2.234   6.941   5.574 -1.2345 -0.4192  0.2448
  983MOL0     H29740   2.591   6.772   5.933  0.7089  1.5632  0.8367
  983MOL0     H29741   2.823   6.790   5.961  0.9717 -0.9596 -0.5312
  983MOL0     H29742   3.130   7.404   6.736 -0.9853  1.0876  0.7675
  983MOL0     H29743   2.999   7.574   6.846 -1.6833  0.0889  0.1650
  983MOL0     H29744   2.439   7.903   6.736  1.0883  1.8868 -1.7946
  983MOL0     H29745   2.409   8.132   6.852 -0.1333 -0.5443  0.9836
  983MOL0     H29746   2.493   8.225   7.220 -2.1949  3.5116  0.5054
  983MOL0     H29747   2.398   8.153   7.097  0.8996 -1.2668 -0.0022
  983MOL0     H29748   2.345   8.406   7.014  0.1099 -1.2467 -0.9652
  983MOL0     H29749   2.310   8.370   7.184 -1.0103 -0.5832 -1.2062
  983MOL0     H29750   2.563   8.483   7.084  0.1749 -1.9726  1.9641
  983MOL0     H29751   2.524   8.434   7.250  1.3545  0.8435  0.2696
  983MOL0     H29752   2.388   8.625   7.273  2.8267  1.3318  1.1658
  983MOL0     H29753   2.517   8.703   7.170 -1.7039  1.6263 -0.1663
  983MOL0     H29754   2.232   8.727   6.894 -0.9462 -1.0834  0.9378
  983MOL0     H29755   2.775   8.063   7.061 -0.4842 -2.5797  2.0316
  983MOL0     H29756   2.821   7.871   6.921 -0.1407 -2.2747 -2.9960
  984MOL0     O29757   9.715   1.873   8.606 -0.6186  0.2835  0.1981
  984MOL0     C29758   9.683   1.893   8.488  0.3726 -0.2838  0.0044
  984MOL0     O29759   9.640   1.797   8.405 -0.8399 -0.0041 -0.3592
  984MOL0     C29760   9.573   1.699   8.456  0.0255  0.2651 -0.3217
  984MOL0     C29761   9.466   1.723   8.545  0.5015  0.0485 -0.6072
  984MOL0     C29762   9.405   1.627   8.622 -0.2392 -0.1478 -1.1419
  984MOL0     C29763   9.448   1.499   8.610 -0.9298 -0.0325  0.4841
  984MOL0     O29764   9.396   1.410   8.698 -0.5234  0.0812 -0.0948
  984MOL0     C29765   9.360   1.282   8.651  0.0128  0.4064 -0.0183
  984MOL0     C29766   9.389   1.185   8.762  0.3553  0.2188 -0.2921
  984MOL0     C29767   9.366   1.038   8.749 -0.3182  1.2176  0.3171
  984MOL0     C29768   9.226   1.012   8.717  0.5529  0.4669  0.2250
  984MOL0     C29769   9.186   0.865   8.708 -0.7019 -0.6563 -0.1129
  984MOL0     C29770   9.202   0.814   8.848  0.3443  0.7686 -0.4279
  984MOL0     C29771   9.150   0.672   8.866  0.0983 -0.7387 -0.2721
  984MOL0     C29772   9.190   0.621   9.005  0.8469 -0.4172  0.2689
  984MOL0     N29773   9.107   0.500   9.017 -0.3422 -0.3504 -0.6554
  984MOL0     C29774   9.133   0.369   9.006  0.7003 -0.1413  0.0345
  984MOL0     C29775   9.034   0.297   9.056  1.2029 -0.4232  0.3418
  984MOL0     C29776   9.015   0.148   9.062  0.2343 -0.4232 -1.0027
  984MOL0     C29777   9.116   0.066   9.142 -0.5896 -0.8611  0.6152
  984MOL0     C29778   9.068  -0.079   9.163  0.1726 -0.4190  1.2791
  984MOL0     C29779   9.158  -0.167   9.254  0.3534 -0.3189 -0.1842
  984MOL0     O29780   9.297  -0.132   9.216 -0.0961  0.2154  0.2763
  984MOL0     C29781   9.405  -0.186   9.288 -0.5459 -0.8348 -0.0785
  984MOL0     C29782   9.411  -0.318   9.330  0.6736  0.1074  0.1297
  984MOL0     C29783   9.513  -0.366   9.410  0.7763  0.3481  0.2704
  984MOL0     C29784   9.614  -0.273   9.445  0.4187 -0.5133  0.2976
  984MOL0     C29785   9.730  -0.313   9.530 -0.9393 -0.4734 -0.5594
  984MOL0     O29786   9.812  -0.213   9.580 -0.2471  0.0950 -0.2424
  984MOL0     C29787   9.877  -0.238   9.697  0.5900 -0.2509 -0.7169
  984MOL0     C29788  10.007  -0.258   9.686 -1.1533  0.5916  0.3300
  984MOL0     C29789  10.087  -0.275   9.802  0.3513 -0.4686 -0.3897
  984MOL0     C29790  10.030  -0.254   9.927 -0.0171  0.6908 -0.0752
  984MOL0     O29791  10.116  -0.268  10.031 -0.1214 -0.6199 -0.1882
  984MOL0     C29792  10.082  -0.345  10.147 -0.0408 -0.1618 -0.4394
  984MOL0     C29793  10.022  -0.263  10.267 -0.6036 -0.1495  0.1692
  984MOL0     C29794  10.028  -0.339  10.392  0.5449 -0.1153 -0.5362
  984MOL0     C29795   9.988  -0.250  10.513  0.1598  0.4362 -0.0566
  984MOL0     C29796   9.944  -0.335  10.634  0.2367 -0.6859 -0.2218
  984MOL0     C29797   9.800  -0.380  10.618  0.0126  0.4028  0.0372
  984MOL0     C29798   9.727  -0.406  10.747  0.1578  0.0094 -0.6633
  984MOL0     C29799   9.795  -0.513  10.828  0.0811 -0.0087  0.6500
  984MOL0    Cl29800   9.716  -0.527  10.989 -0.0129 -0.1161  0.8506
  984MOL0     C29801   9.904  -0.215   9.941  0.3656  0.0210 -0.4170
  984MOL0     C29802   9.824  -0.208   9.829  0.2930  0.8147  0.6621
  984MOL0     O29803   9.742  -0.429   9.564  0.4600 -0.0493 -0.2304
  984MOL0     C29804   9.609  -0.138   9.407  1.2121  0.5624  0.4542
  984MOL0     C29805   9.509  -0.100   9.319 -0.0920  0.3008  0.5237
  984MOL0     N29806   8.937   0.381   9.089  0.6481  0.2678 -0.7966
  984MOL0     N29807   8.995   0.499   9.088 -0.4587  0.0766  0.0125
  984MOL0     C29808   9.553   1.470   8.519 -0.4420  0.5686 -0.5129
  984MOL0     C29809   9.616   1.571   8.450  0.8556 -0.2864  0.1150
  984MOL0     C29810   9.688   2.022   8.422 -0.7381 -0.0296 -0.2330
  984MOL0     C29811   9.653   2.041   8.289  0.2501  0.2050 -0.1055
  984MOL0     C29812   9.668   2.160   8.220 -0.0878 -0.1718 -0.3563
  984MOL0     C29813   9.695   2.273   8.293 -0.1055  0.1788 -0.0281
  984MOL0     O29814   9.713   2.390   8.225 -0.2359 -0.0961  0.6793
  984MOL0     C29815   9.826   2.467   8.252 -0.4996  0.6870  0.1843
  984MOL0     C29816   9.870   2.548   8.125 -0.8010 -0.2726 -0.7237
  984MOL0     C29817   9.991   2.642   8.148  0.0365 -0.1822  0.1292
  984MOL0     C29818   9.979   2.737   8.264 -0.8387 -0.9326  0.0696
  984MOL0     C29819  10.089   2.832   8.277 -0.4529 -0.8593 -1.1541
  984MOL0     C29820  10.172   2.915   8.279 -0.0527  0.8848  0.0007
  984MOL0     C29821   9.724   2.264   8.427  0.1358  1.3144 -0.1349
  984MOL0     C29822   9.721   2.139   8.485 -0.0596 -0.1962 -0.0858
  984MOL0     H29823   9.419   1.820   8.552 -2.1197 -1.2606  1.5085
  984MOL0     H29824   9.321   1.663   8.681  0.5228  0.1635 -0.2100
  984MOL0     H29825   9.416   1.259   8.560  3.7230 -0.9005  2.3576
  984MOL0     H29826   9.252   1.268   8.643 -0.1706  0.9962  1.1872
  984MOL0     H29827   9.322   1.227   8.838  2.3931  2.9337  0.1326
  984MOL0     H29828   9.493   1.201   8.791 -0.4129 -0.9742  3.8436
  984MOL0     H29829   9.410   0.987   8.836  0.0760  1.2775  0.1557
  984MOL0     H29830   9.424   0.995   8.668  0.2405  0.6336  1.0100
  984MOL0     H29831   9.157   1.069   8.781  0.3136  1.3977 -0.8228
  984MOL0     H29832   9.204   1.056   8.620 -2.4025 -1.1034  0.0740
  984MOL0     H29833   9.262   0.809   8.652  2.6213  1.5477  1.7833
  984MOL0     H29834   9.085   0.866   8.666 -1.7059 -1.1153  2.1343
  984MOL0     H29835   9.141   0.880   8.910  0.9694  1.1535 -0.2052
  984MOL0     H29836   9.308   0.822   8.877  0.0046  0.9429  0.8212
  984MOL0     H29837   9.042   0.674   8.846  0.1220 -0.3802 -0.3846
  984MOL0     H29838   9.193   0.610   8.787 -0.3034  2.0943 -2.9344
  984MOL0     H29839   9.159   0.693   9.081  0.9913 -0.9147  0.8093
  984MOL0     H29840   9.298   0.602   9.003  0.6946 -1.3948 -2.3505
  984MOL0     H29841   9.221   0.319   8.966  2.5041  1.3659  1.8508
  984MOL0     H29842   9.005   0.114   8.959  1.7172  0.2273 -1.3738
  984MOL0     H29843   8.914   0.137   9.103 -0.7841  4.8592 -1.3633
  984MOL0     H29844   9.135   0.118   9.237  1.7209  1.3135 -0.9199
  984MOL0     H29845   9.205   0.069   9.080 -0.5568 -1.7514  0.6092
  984MOL0     H29846   8.969  -0.083   9.210  0.8666 -5.7274  3.0301
  984MOL0     H29847   9.053  -0.131   9.068 -0.4538  2.4348 -0.2884
  984MOL0     H29848   9.154  -0.275   9.237  1.5776 -0.3479 -0.4080
  984MOL0     H29849   9.142  -0.152   9.361  3.9106 -0.7448  0.5346
  984MOL0     H29850   9.322  -0.374   9.303  0.5445  1.2517 -2.0655
  984MOL0     H29851   9.530  -0.470   9.434 -1.0375 -1.2045 -4.1695
  984MOL0     H29852  10.054  -0.251   9.589  0.7257 -1.5239  0.9830
  984MOL0     H29853  10.195  -0.284   9.794  0.1606 -2.4259 -1.4685
  984MOL0     H29854  10.171  -0.394  10.189  1.4598  3.9462  1.6769
  984MOL0     H29855  10.024  -0.434  10.121 -0.1281 -0.5869  1.1412
  984MOL0     H29856   9.924  -0.227  10.233  0.7356  1.7774 -1.9035
  984MOL0     H29857  10.070  -0.165  10.276 -0.6807  0.1833 -2.4701
  984MOL0     H29858  10.117  -0.397  10.418  0.4708 -0.7335 -1.5929
  984MOL0     H29859   9.949  -0.414  10.387 -1.3896  1.3731  3.4092
  984MOL0     H29860  10.072  -0.189  10.547 -2.2565  4.1223 -0.1225
  984MOL0     H29861   9.915  -0.170  10.496 -1.0936 -0.8965 -1.1197
  984MOL0     H29862   9.939  -0.271  10.723 -0.8593 -0.6105 -0.3285
  984MOL0     H29863  10.010  -0.417  10.665  1.1025  0.4862  1.1615
  984MOL0     H29864   9.797  -0.475  10.563  0.8296 -0.6187  1.6514
  984MOL0     H29865   9.736  -0.303  10.575 -3.1652 -2.8499 -1.6218
  984MOL0     H29866   9.738  -0.312  10.802 -0.0931  0.8292 -1.9660
  984MOL0     H29867   9.621  -0.428  10.735  0.0802  0.6406 -1.2165
  984MOL0     H29868   9.904  -0.514  10.832  0.1202 -3.0062  1.0286
  984MOL0     H29869   9.787  -0.606  10.771  4.0302  0.7102 -1.4050
  984MOL0     H29870   9.873  -0.188  10.042 -0.7002 -1.3719 -0.3448
  984MOL0     H29871   9.720  -0.176   9.832 -1.1019 -2.9501 -0.9759
  984MOL0     H29872   9.687  -0.068   9.433  0.0346  1.4134  1.8134
  984MOL0     H29873   9.523   0.003   9.286  3.4991 -0.1066  0.3329
  984MOL0     H29874   9.590   1.368   8.512 -0.6795  0.2795  1.6642
  984MOL0     H29875   9.708   1.555   8.393 -1.2371 -0.0832 -3.6829
  984MOL0     H29876   9.613   1.961   8.229  0.2008  0.5803 -0.5830
  984MOL0     H29877   9.654   2.175   8.114  1.2892  0.7156 -0.4367
  984MOL0     H29878   9.914   2.406   8.273 -0.1348  1.4609  0.9503
  984MOL0     H29879   9.795   2.513   8.346  1.1862 -1.6353  1.9892
  984MOL0     H29880   9.910   2.479   8.050  2.3553  0.4092  0.1868
  984MOL0     H29881   9.781   2.597   8.085 -1.0258 -0.2829 -0.2515
  984MOL0     H29882   9.989   2.708   8.061 -2.6086  1.6329  1.4302
  984MOL0     H29883  10.088   2.592   8.134  1.3755  2.1669  0.4826
  984MOL0     H29884   9.890   2.799   8.249 -0.5912 -0.2417  1.2656
  984MOL0     H29885   9.954   2.677   8.353 -2.5219  0.2388  0.4421
  984MOL0     H29886  10.235   3.000   8.262 -0.5509  1.4446  0.8493
  984MOL0     H29887   9.739   2.340   8.503 -0.8623 -1.3416  2.9558
  984MOL0     H29888   9.728   2.127   8.593 -0.8272 -0.5322 -0.0729
  985MOL0     O29889   3.238   2.470   7.445  0.7263 -0.2400 -0.3895
  985MOL0     C29890   3.335   2.525   7.391  0.6151  1.0232  0.5067
  985MOL0     O29891   3.340   2.618   7.293 -0.5408 -0.6399 -0.5237
  985MOL0     C29892   3.222   2.662   7.242 -0.0775 -0.3183 -0.1208
  985MOL0     C29893   3.209   2.802   7.223 -0.8230  0.2915  0.3913
  985MOL0     C29894   3.087   2.849   7.178  0.5395 -0.5492 -0.2987
  985MOL0     C29895   2.965   2.773   7.162 -0.8014 -0.1107 -0.8123
  985MOL0     O29896   2.841   2.821   7.137  0.4712 -0.6266  0.5612
  985MOL0     C29897   2.811   2.946   7.070  0.0176  0.4168 -0.5217
  985MOL0     C29898   2.679   3.013   7.127 -0.6524  0.2453 -0.4147
  985MOL0     C29899   2.640   3.146   7.061 -0.4406 -0.7116  0.3957
  985MOL0     C29900   2.499   3.202   7.102 -0.8024  0.8403  0.3304
  985MOL0     C29901   2.460   3.328   7.023  0.3035 -0.2575  0.9916
  985MOL0     C29902   2.545   3.454   7.065 -0.4612  0.6722 -0.1228
  985MOL0     C29903   2.507   3.508   7.202  0.3919  0.4917 -0.1872
  985MOL0     C29904   2.587   3.633   7.240 -0.4451 -0.6626  0.2455
  985MOL0     N29905   2.558   3.747   7.172 -0.1039 -0.7225  0.0237
  985MOL0     C29906   2.459   3.776   7.084  0.4952 -0.7637  0.7869
  985MOL0     C29907   2.473   3.911   7.057 -0.4252 -0.0984  0.2953
  985MOL0     C29908   2.369   3.998   6.992 -0.7990 -0.8858  0.7800
  985MOL0     C29909   2.431   4.052   6.854  0.5610  0.5919 -0.6340
  985MOL0     C29910   2.348   4.171   6.805  0.1168 -0.5921  0.7909
  985MOL0     C29911   2.336   4.282   6.902 -0.8801  0.0309 -0.3121
  985MOL0     O29912   2.465   4.312   6.953 -0.0410 -0.4977  0.0708
  985MOL0     C29913   2.452   4.383   7.067  0.2788 -0.2379  0.0925
  985MOL0     C29914   2.497   4.319   7.181  0.0224  0.4662 -0.2399
  985MOL0     C29915   2.524   4.378   7.308  0.2592 -0.9218  0.2881
  985MOL0     C29916   2.509   4.522   7.316  0.3280  0.8656  0.0391
  985MOL0     C29917   2.542   4.600   7.440 -0.1213  0.3708 -0.3005
  985MOL0     O29918   2.610   4.537   7.536 -0.5100 -0.3184 -0.0318
  985MOL0     C29919   2.665   4.608   7.641  0.3705  0.4252 -0.6583
  985MOL0     C29920   2.785   4.547   7.678 -0.4445 -0.1489 -0.3073
  985MOL0     C29921   2.855   4.603   7.782  0.2892 -0.5513  0.1789
  985MOL0     C29922   2.799   4.711   7.860  0.7485 -1.1878 -0.1178
  985MOL0     O29923   2.871   4.754   7.969 -0.0822 -0.0088 -0.5789
  985MOL0     C29924   2.992   4.686   8.017  1.1145 -0.2573  0.9073
  985MOL0     C29925   3.039   4.770   8.128 -0.2906  0.0243  0.3483
  985MOL0     C29926   3.168   4.713   8.197 -0.5098  0.1286  0.4190
  985MOL0     C29927   3.245   4.821   8.291 -0.8477  0.5538 -0.0596
  985MOL0     C29928   3.324   4.757   8.403 -0.5225  0.1188 -0.1982
  985MOL0     C29929   3.367   4.866   8.507 -0.7553  0.5886 -0.8906
  985MOL0     C29930   3.428   4.821   8.643 -0.7877 -0.3320 -0.9714
  985MOL0     C29931   3.324   4.766   8.746 -0.6478 -0.7223  0.1976
  985MOL0    Cl29932   3.183   4.871   8.772 -0.0266 -0.3227  0.3163
  985MOL0     C29933   2.673   4.757   7.830 -0.1937  0.6004  0.0901
  985MOL0     C29934   2.603   4.708   7.717 -0.9113  0.2453 -1.4467
  985MOL0     O29935   2.484   4.712   7.448  0.4521 -0.3992  0.3748
  985MOL0     C29936   2.445   4.585   7.208 -0.4818 -0.1195  0.9379
  985MOL0     C29937   2.425   4.523   7.085  0.0363 -0.5339  0.1573
  985MOL0     N29938   2.577   3.954   7.121 -0.1932  0.4570 -0.4769
  985MOL0     N29939   2.621   3.864   7.184 -1.1858  0.0558 -1.2047
  985MOL0     C29940   2.977   2.640   7.188 -0.0010  0.3519 -0.7594
  985MOL0     C29941   3.106   2.581   7.205  0.3388  0.6169 -0.5667
  985MOL0     C29942   3.463   2.459   7.430  0.3541 -0.4612  0.0488
  985MOL0     C29943   3.588   2.465   7.354  0.0913 -1.6828  0.1761
  985MOL0     C29944   3.699   2.386   7.387 -0.2718  0.0466  0.3199
  985MOL0     C29945   3.692   2.303   7.498  0.1190  0.0087  0.1116
  985MOL0     O29946   3.809   2.233   7.536  0.4108  0.6406  0.0373
  985MOL0     C29947   3.851   2.218   7.676 -0.9030  0.2494  0.2258
  985MOL0     C29948   3.873   2.064   7.696  0.2339  1.3581  0.0971
  985MOL0     C29949   3.945   2.040   7.828  0.1912  0.4393 -0.4463
  985MOL0     C29950   4.043   1.917   7.807  0.2591 -0.8606 -1.2041
  985MOL0     C29951   3.972   1.792   7.808 -0.4281 -0.2043  0.0868
  985MOL0     C29952   3.899   1.698   7.816  0.0454  0.2026 -0.9226
  985MOL0     C29953   3.581   2.309   7.579  0.3193  0.2719  0.3296
  985MOL0     C29954   3.467   2.377   7.542  0.3768 -1.1949 -0.4142
  985MOL0     H29955   3.293   2.866   7.247 -0.5895  0.6056 -1.1617
  985MOL0     H29956   3.068   2.953   7.152 -0.8709 -0.8834 -0.7178
  985MOL0     H29957   2.802   2.910   6.967 -0.1793 -1.8598  0.2276
  985MOL0     H29958   2.888   3.023   7.084 -1.5948  1.5937  3.2863
  985MOL0     H29959   2.686   3.027   7.235 -3.8174 -1.7455  0.1853
  985MOL0     H29960   2.590   2.951   7.109 -0.4710  0.2262 -1.2569
  985MOL0     H29961   2.638   3.148   6.951 -1.6516  4.6866  0.2421
  985MOL0     H29962   2.715   3.219   7.094 -0.0196 -0.8777 -0.1608
  985MOL0     H29963   2.425   3.124   7.080 -0.2491  1.1288 -3.0703
  985MOL0     H29964   2.500   3.217   7.210  1.6339  2.6894  0.1269
  985MOL0     H29965   2.355   3.350   7.040 -0.6250 -0.6037 -3.2939
  985MOL0     H29966   2.469   3.301   6.918 -1.0540  1.5236  0.3684
  985MOL0     H29967   2.540   3.530   6.986 -1.5994 -2.0235 -2.8522
  985MOL0     H29968   2.650   3.425   7.060 -1.0974 -1.6561 -1.3031
  985MOL0     H29969   2.402   3.535   7.219  0.5239  0.0665  1.5390
  985MOL0     H29970   2.529   3.427   7.272 -2.3035 -0.5806 -0.4602
  985MOL0     H29971   2.689   3.616   7.204 -0.6295 -0.3472 -0.4352
  985MOL0     H29972   2.586   3.637   7.350 -3.8736  3.8958  0.3366
  985MOL0     H29973   2.371   3.718   7.057  0.0068 -0.2078  1.1565
  985MOL0     H29974   2.352   4.085   7.055 -1.8319  0.2742 -1.0144
  985MOL0     H29975   2.270   3.953   6.979 -1.2521  0.5852 -1.3443
  985MOL0     H29976   2.422   3.969   6.783  0.1954  1.4575 -1.6187
  985MOL0     H29977   2.534   4.077   6.883 -0.1994  0.5491  2.3799
  985MOL0     H29978   2.409   4.211   6.723  2.0141 -0.7204  2.0659
  985MOL0     H29979   2.248   4.138   6.778 -2.0377  4.2397  1.7519
  985MOL0     H29980   2.252   4.257   6.967  0.1665 -1.5767  0.4858
  985MOL0     H29981   2.296   4.371   6.853  0.3807  1.7592  1.6214
  985MOL0     H29982   2.505   4.211   7.181  2.2660  0.5019 -3.4443
  985MOL0     H29983   2.565   4.322   7.392 -1.0843  0.5471  2.0346
  985MOL0     H29984   2.836   4.475   7.615 -0.3361 -0.0153 -0.3715
  985MOL0     H29985   2.952   4.557   7.797 -0.9616 -3.8859 -1.0965
  985MOL0     H29986   3.062   4.679   7.933  1.5441 -2.0677  1.3852
  985MOL0     H29987   2.962   4.589   8.057 -3.4496  0.3395 -0.4596
  985MOL0     H29988   2.961   4.793   8.201 -2.3732 -0.0783 -1.7142
  985MOL0     H29989   3.068   4.867   8.087  0.7022 -0.5305 -0.2693
  985MOL0     H29990   3.235   4.678   8.119 -0.2027  2.3451 -0.3942
  985MOL0     H29991   3.133   4.636   8.266 -3.6359  0.4902 -0.6115
  985MOL0     H29992   3.297   4.893   8.227 -0.7461  1.5953  1.1395
  985MOL0     H29993   3.171   4.889   8.335  1.3320  2.1321  1.4403
  985MOL0     H29994   3.416   4.710   8.366 -0.4763  1.1652 -1.4617
  985MOL0     H29995   3.257   4.684   8.450 -2.0109  1.9791  0.6723
  985MOL0     H29996   3.282   4.934   8.501 -0.2157  1.2606 -0.9618
  985MOL0     H29997   3.450   4.917   8.458  0.4085 -0.4199 -0.0435
  985MOL0     H29998   3.495   4.736   8.627 -2.5503 -1.8060 -0.8306
  985MOL0     H29999   3.486   4.902   8.688 -0.2647 -1.3009  0.1461
  985MOL0     H30000   3.378   4.746   8.839 -1.2148 -2.4710  0.1784
  985MOL0     H30001   3.285   4.667   8.720 -0.9717 -0.0026 -2.2698
  985MOL0     H30002   2.626   4.827   7.898 -0.1968 -1.3830  2.2200
  985MOL0     H30003   2.505   4.750   7.699 -2.8133 -1.5468  3.2924
  985MOL0     H30004   2.411   4.688   7.213 -0.5495 -0.1050  0.2748
  985MOL0     H30005   2.383   4.579   7.002 -0.8115 -0.3787  0.6817
  985MOL0     H30006   2.899   2.565   7.178  1.7144 -1.6895  0.1713
  985MOL0     H30007   3.095   2.475   7.225  0.2222  0.5717 -0.8725
  985MOL0     H30008   3.589   2.539   7.274 -0.4327  0.1408  1.7843
  985MOL0     H30009   3.794   2.391   7.336 -0.9177  4.0166 -0.7767
  985MOL0     H30010   3.778   2.265   7.743 -0.2124  1.8448 -0.0912
  985MOL0     H30011   3.948   2.266   7.692 -1.7169  1.6701  1.1051
  985MOL0     H30012   3.785   2.000   7.692  1.4426 -0.4775  1.0621
  985MOL0     H30013   3.922   2.002   7.621 -1.8761 -2.0615  1.3036
  985MOL0     H30014   3.874   2.027   7.910 -1.2090  1.4305 -1.4709
  985MOL0     H30015   4.009   2.128   7.844 -0.6349  1.4052 -2.1565
  985MOL0     H30016   4.109   1.932   7.721  1.9386 -0.5542  0.0919
  985MOL0     H30017   4.105   1.910   7.897 -2.8097  2.6907  1.4614
  985MOL0     H30018   3.829   1.622   7.844  2.1572 -0.8090  2.1183
  985MOL0     H30019   3.567   2.236   7.658 -0.0507  1.3123  1.2614
  985MOL0     H30020   3.380   2.383   7.606  2.9473  3.5769  3.2632
  986MOL0     O30021   2.140   2.340   2.820  0.1284 -0.8827 -0.4739
  986MOL0     C30022   2.192   2.438   2.879 -0.1778 -0.2945 -0.0364
  986MOL0     O30023   2.317   2.434   2.940  0.5137  0.3553 -0.4514
  986MOL0     C30024   2.378   2.309   2.958  0.6269  0.0441  0.1210
  986MOL0     C30025   2.521   2.306   2.968  0.4529 -0.2456  1.3522
  986MOL0     C30026   2.586   2.191   3.008  0.2005 -0.0200 -0.6422
  986MOL0     C30027   2.511   2.080   3.046 -0.3552  0.0926  0.1480
  986MOL0     O30028   2.589   1.978   3.098 -0.8380 -0.0924  0.1218
  986MOL0     C30029   2.533   1.844   3.122  0.6280 -0.7588  0.1462
  986MOL0     C30030   2.548   1.788   3.266  0.4197 -0.0355 -0.1156
  986MOL0     C30031   2.500   1.637   3.271 -0.3265 -1.0126 -0.1619
  986MOL0     C30032   2.605   1.541   3.208  0.2270  0.0241 -0.2995
  986MOL0     C30033   2.595   1.411   3.274 -0.0187 -0.1418  0.0015
  986MOL0     C30034   2.632   1.297   3.180  0.4220  0.1600  0.9680
  986MOL0     C30035   2.768   1.334   3.099 -0.0256  0.6458 -0.2093
  986MOL0     C30036   2.822   1.225   3.017  0.1576  0.5217  0.4255
  986MOL0     N30037   2.722   1.170   2.931  0.1250  0.2841 -0.8655
  986MOL0     C30038   2.645   1.237   2.846  0.3014  0.2058  0.3236
  986MOL0     C30039   2.550   1.143   2.830 -0.3838  0.5665 -0.0008
  986MOL0     C30040   2.424   1.164   2.744 -0.4208  0.0683  0.4356
  986MOL0     C30041   2.297   1.159   2.824 -0.4896  0.2163 -0.1210
  986MOL0     C30042   2.297   1.250   2.953 -0.6062 -0.1206  0.9405
  986MOL0     C30043   2.167   1.268   3.030 -0.3791 -0.2151  0.2086
  986MOL0     O30044   2.183   1.378   3.125  0.7088  0.5297  0.3809
  986MOL0     C30045   2.150   1.502   3.092 -0.3541  0.4638 -0.0016
  986MOL0     C30046   2.150   1.580   3.200  0.1228 -0.2551 -0.8915
  986MOL0     C30047   2.129   1.721   3.189  0.2569 -0.1697 -0.0484
  986MOL0     C30048   2.083   1.778   3.065  0.4809 -0.6590 -0.2619
  986MOL0     C30049   2.038   1.922   3.062  0.8248  0.5593  1.8922
  986MOL0     O30050   1.998   1.986   3.167  0.5110 -0.7584 -0.8537
  986MOL0     C30051   1.963   2.119   3.156  0.9570 -0.7704 -0.7307
  986MOL0     C30052   1.873   2.169   3.065 -0.2441  0.5163 -0.3023
  986MOL0     C30053   1.829   2.300   3.071 -0.2770  0.2036 -0.5075
  986MOL0     C30054   1.903   2.395   3.151  0.0822  0.4236  1.1256
  986MOL0     O30055   1.870   2.529   3.160 -0.0709 -0.0902  0.3901
  986MOL0     C30056   1.738   2.557   3.207 -0.0302  0.5354 -0.0509
  986MOL0     C30057   1.736   2.705   3.223 -1.1455  0.1339  0.1888
  986MOL0     C30058   1.601   2.764   3.264 -0.4390  0.1010  0.0693
  986MOL0     C30059   1.503   2.672   3.341 -1.1441  0.5474  0.0314
  986MOL0     C30060   1.374   2.726   3.405 -0.1239  0.0991  1.2917
  986MOL0     C30061   1.311   2.622   3.494 -0.1176  0.2070  0.4056
  986MOL0     C30062   1.161   2.626   3.508  0.0985  0.8790  0.6068
  986MOL0     C30063   1.105   2.501   3.586  0.1280 -0.0651  0.1071
  986MOL0    Cl30064   1.180   2.479   3.752  0.4445  0.5364  0.4347
  986MOL0     C30065   2.006   2.343   3.227 -0.3569 -0.4223 -1.0109
  986MOL0     C30066   2.035   2.204   3.234 -0.2028  1.3670 -1.2577
  986MOL0     O30067   2.044   1.971   2.949 -0.1116 -0.4755  0.8054
  986MOL0     C30068   2.068   1.686   2.958 -1.0315  0.2823 -0.1682
  986MOL0     C30069   2.110   1.551   2.961 -0.4270 -1.3202 -0.0880
  986MOL0     N30070   2.571   1.022   2.888 -1.0172 -0.3882 -0.1560
  986MOL0     N30071   2.685   1.038   2.947 -0.2581 -0.2941  0.2498
  986MOL0     C30072   2.368   2.082   3.055  0.3609  0.3007  0.1002
  986MOL0     C30073   2.303   2.198   3.006 -0.1819  0.0901 -0.0149
  986MOL0     C30074   2.126   2.566   2.881 -0.4745 -0.2938  0.5377
  986MOL0     C30075   2.009   2.587   2.809  0.6070  0.0433 -0.2497
  986MOL0     C30076   1.954   2.720   2.818  0.0066 -0.2262 -0.1327
  986MOL0     C30077   2.003   2.819   2.900 -0.1942 -0.1776  0.3338
  986MOL0     O30078   1.970   2.957   2.893  0.0605  0.1502 -0.1132
  986MOL0     C30079   1.886   3.009   2.784 -0.7222  0.3806  0.9017
  986MOL0     C30080   1.899   3.155   2.757 -0.3132 -0.9498  0.1775
  986MOL0     C30081   1.834   3.231   2.879 -0.1169 -0.5673 -0.8218
  986MOL0     C30082   1.682   3.225   2.886  0.6036 -1.0697  0.4940
  986MOL0     C30083   1.623   3.315   2.785 -0.8622 -0.6222 -0.2105
  986MOL0     C30084   1.558   3.377   2.712 -1.1501  0.3523 -0.3788
  986MOL0     C30085   2.129   2.799   2.957 -0.2229  0.3131 -0.0316
  986MOL0     C30086   2.187   2.671   2.952  0.0891 -0.4312 -0.6368
  986MOL0     H30087   2.571   2.398   2.937 -3.0326  0.9649 -1.4486
  986MOL0     H30088   2.694   2.197   3.007  0.1379  1.7785 -1.9069
  986MOL0     H30089   2.589   1.778   3.056 -0.1209 -1.2619  0.0010
  986MOL0     H30090   2.429   1.822   3.094  0.1312  2.1936 -0.6860
  986MOL0     H30091   2.487   1.847   3.335  0.8596  1.8256 -1.2389
  986MOL0     H30092   2.647   1.807   3.307  0.9564 -0.8061 -1.0047
  986MOL0     H30093   2.408   1.622   3.212  0.1092 -1.3065 -0.7839
  986MOL0     H30094   2.471   1.613   3.373 -1.0909  1.4300  0.2585
  986MOL0     H30095   2.586   1.529   3.101  1.2346  0.8745 -0.5830
  986MOL0     H30096   2.701   1.586   3.235  0.5549  0.2732 -1.8290
  986MOL0     H30097   2.490   1.400   3.302 -0.6669 -0.1311 -2.2245
  986MOL0     H30098   2.659   1.388   3.359  1.0517  0.0762 -0.7191
  986MOL0     H30099   2.559   1.282   3.100  2.8901  1.9390 -1.8434
  986MOL0     H30100   2.638   1.203   3.236  1.4871 -0.6797 -0.4861
  986MOL0     H30101   2.759   1.421   3.034  2.3350  1.7218  0.7657
  986MOL0     H30102   2.841   1.348   3.179 -2.3806  1.5112  1.9305
  986MOL0     H30103   2.866   1.147   3.081 -0.8012  0.2309  0.7421
  986MOL0     H30104   2.898   1.278   2.959 -0.1863  0.4043 -0.1402
  986MOL0     H30105   2.654   1.339   2.810  0.8576  0.4504  1.1195
  986MOL0     H30106   2.420   1.083   2.669  0.1878 -0.5136  1.0170
  986MOL0     H30107   2.432   1.256   2.686  0.9236  0.4572  1.1847
  986MOL0     H30108   2.283   1.059   2.864 -1.9383 -0.5297 -2.3378
  986MOL0     H30109   2.223   1.180   2.747 -3.5971  0.4816  2.7003
  986MOL0     H30110   2.380   1.226   3.020  0.9420  0.5351 -0.6324
  986MOL0     H30111   2.332   1.350   2.924 -1.6080  0.8574  2.9025
  986MOL0     H30112   2.163   1.173   3.085 -0.8480 -0.3154  0.0074
  986MOL0     H30113   2.076   1.277   2.970  0.0613 -1.9165 -0.7669
  986MOL0     H30114   2.191   1.543   3.293  1.0704 -1.2928 -1.6993
  986MOL0     H30115   2.123   1.781   3.279 -0.5202 -0.8865  0.3929
  986MOL0     H30116   1.818   2.103   2.999  1.7059  0.6198 -2.1226
  986MOL0     H30117   1.751   2.348   3.013 -0.3000 -0.5469 -1.1166
  986MOL0     H30118   1.720   2.518   3.307 -0.8699  1.3946  0.1417
  986MOL0     H30119   1.661   2.521   3.138 -0.3642 -2.6958  1.8341
  986MOL0     H30120   1.778   2.768   3.144 -0.2447  2.1521  2.1647
  986MOL0     H30121   1.803   2.726   3.307  1.0910 -2.0101 -0.9604
  986MOL0     H30122   1.540   2.792   3.177  1.6894 -1.2468 -1.9857
  986MOL0     H30123   1.605   2.861   3.314 -3.9744  0.7672 -0.6492
  986MOL0     H30124   1.485   2.592   3.268 -0.3695  1.7804 -1.5909
  986MOL0     H30125   1.556   2.628   3.426 -0.0485  0.2562 -0.7681
  986MOL0     H30126   1.318   2.753   3.315  0.5401 -1.6711  0.2815
  986MOL0     H30127   1.401   2.816   3.460  1.7719 -0.3633  1.1946
  986MOL0     H30128   1.363   2.628   3.590  0.9279 -1.2956 -0.0340
  986MOL0     H30129   1.339   2.520   3.468  4.5003  1.0868  1.1712
  986MOL0     H30130   1.132   2.717   3.562  1.7185  1.5771  0.3800
  986MOL0     H30131   1.105   2.632   3.414  1.6345  0.0899 -0.3958
  986MOL0     H30132   1.129   2.417   3.521  1.3557  0.7330 -0.5030
  986MOL0     H30133   0.996   2.495   3.594  0.1438 -2.4847 -0.6454
  986MOL0     H30134   2.061   2.404   3.299  0.1235  1.7210 -3.0583
  986MOL0     H30135   2.110   2.161   3.301 -1.0659 -0.3439 -1.3470
  986MOL0     H30136   2.037   1.717   2.859 -3.4150  2.2939  1.1016
  986MOL0     H30137   2.091   1.482   2.879 -1.2715 -0.6111 -0.5056
  986MOL0     H30138   2.309   1.995   3.080 -0.1881  0.3399 -0.9779
  986MOL0     H30139   2.195   2.205   3.014 -0.1510 -1.3497  2.7800
  986MOL0     H30140   1.962   2.514   2.744  0.9102 -0.2663 -0.1269
  986MOL0     H30141   1.858   2.744   2.774 -0.5116  1.8424  1.9389
  986MOL0     H30142   1.782   2.982   2.804 -0.6115  0.5596  1.7617
  986MOL0     H30143   1.914   2.954   2.694 -1.3268  0.9424  0.3562
  986MOL0     H30144   2.004   3.184   2.761 -0.9700  1.4992  2.1381
  986MOL0     H30145   1.864   3.195   2.661 -2.0398 -1.3568  0.5950
  986MOL0     H30146   1.879   3.330   2.887  2.7894 -1.5294 -3.2996
  986MOL0     H30147   1.873   3.183   2.969  0.0794  0.5314 -0.3151
  986MOL0     H30148   1.640   3.127   2.861 -0.6099  0.1551 -2.6884
  986MOL0     H30149   1.651   3.240   2.990  0.1349 -1.3332  0.3949
  986MOL0     H30150   1.499   3.439   2.648 -2.2289 -0.3630 -0.0964
  986MOL0     H30151   2.191   2.866   3.015  1.7067 -1.9126  0.6454
  986MOL0     H30152   2.286   2.660   2.994  0.1495  0.5975 -0.4902
  987MOL0     O30153  11.231   8.840   9.827 -0.6989  0.3505  0.4845
  987MOL0     C30154  11.250   8.795   9.939 -0.3214 -0.0491 -0.5160
  987MOL0     O30155  11.172   8.714  10.001 -0.4160 -0.3578  0.3131
  987MOL0     C30156  11.058   8.682   9.936 -0.6750 -0.9830 -0.2697
  987MOL0     C30157  11.058   8.571   9.852 -0.5694 -0.0208  0.7078
  987MOL0     C30158  10.934   8.545   9.791 -0.0584  0.7731  0.0237
  987MOL0     C30159  10.810   8.616   9.821 -0.0632  0.3968 -1.7722
  987MOL0     O30160  10.686   8.594   9.772  0.3504 -0.0928  0.2531
  987MOL0     C30161  10.675   8.643   9.635 -0.1329 -0.6056 -0.0898
  987MOL0     C30162  10.549   8.599   9.565 -0.9477 -0.0335  0.0633
  987MOL0     C30163  10.541   8.659   9.422  0.3306 -0.5243 -1.7235
  987MOL0     C30164  10.625   8.606   9.315  0.8372  0.3704  0.2655
  987MOL0     C30165  10.630   8.447   9.314  0.5719 -0.9830  0.3596
  987MOL0     C30166  10.703   8.386   9.193  0.3192  0.8923  0.1302
  987MOL0     C30167  10.668   8.401   9.042  0.6977  0.8342  0.3949
  987MOL0     C30168  10.538   8.317   9.002 -0.4846  0.2456 -0.6038
  987MOL0     N30169  10.456   8.375   8.886 -0.2005 -0.1668 -0.3390
  987MOL0     C30170  10.500   8.402   8.755 -0.9193  0.1441 -0.2998
  987MOL0     C30171  10.386   8.448   8.689 -0.9792 -0.9951 -0.4220
  987MOL0     C30172  10.370   8.512   8.557  0.6337 -0.3066  0.1888
  987MOL0     C30173  10.270   8.447   8.458 -0.8264  0.1078 -0.0253
  987MOL0     C30174  10.228   8.548   8.342  0.9336 -0.3407 -0.1430
  987MOL0     C30175  10.094   8.500   8.283 -0.0741 -1.3885 -0.6837
  987MOL0     O30176  10.045   8.594   8.179 -0.5641 -0.1572 -0.1141
  987MOL0     C30177   9.959   8.548   8.085 -0.0248 -0.0963  0.9064
  987MOL0     C30178   9.966   8.422   8.032 -0.0103  0.0478 -0.0439
  987MOL0     C30179   9.882   8.388   7.923 -0.1533  0.1614  0.4235
  987MOL0     C30180   9.800   8.479   7.859 -0.6151  0.6190  0.3805
  987MOL0     C30181   9.712   8.437   7.752  0.1425 -0.2097 -0.4236
  987MOL0     O30182   9.716   8.304   7.721  0.4247  0.0203  0.4362
  987MOL0     C30183   9.637   8.265   7.616  0.4047  0.5341  0.6648
  987MOL0     C30184   9.530   8.180   7.633  1.2005  0.9249  0.8803
  987MOL0     C30185   9.435   8.151   7.528 -1.0221  0.0539 -0.0181
  987MOL0     C30186   9.451   8.205   7.400  0.6548  0.0439  0.4228
  987MOL0     O30187   9.376   8.172   7.287 -0.1319  0.6313 -0.8183
  987MOL0     C30188   9.289   8.064   7.289 -0.4559  0.4210 -0.1556
  987MOL0     C30189   9.240   8.049   7.143 -0.9575 -0.4003  0.1680
  987MOL0     C30190   9.123   8.144   7.095  0.3512  0.3348  0.5898
  987MOL0     C30191   9.025   8.080   6.999  0.3491  0.4987 -1.0618
  987MOL0     C30192   8.917   8.180   6.958  0.2922  0.3251  1.1739
  987MOL0     C30193   8.799   8.102   6.888 -0.3148 -0.2329  1.0756
  987MOL0     C30194   8.709   8.186   6.796 -1.2324  0.0972  0.2642
  987MOL0     C30195   8.602   8.091   6.728  0.6472 -0.7820  0.6102
  987MOL0    Cl30196   8.698   8.001   6.612 -0.2852  0.8672 -0.0343
  987MOL0     C30197   9.554   8.296   7.380 -0.2267  0.0536  0.5351
  987MOL0     C30198   9.643   8.323   7.484 -0.1196  0.0222  0.0302
  987MOL0     O30199   9.643   8.521   7.696 -0.3039 -0.0863 -0.2475
  987MOL0     C30200   9.789   8.609   7.921 -0.0945  0.8254  0.1119
  987MOL0     C30201   9.876   8.645   8.029  0.3274 -0.7144  0.5203
  987MOL0     N30202  10.278   8.447   8.776 -0.0485  0.4673  1.3433
  987MOL0     N30203  10.321   8.403   8.892 -0.2570  0.0260  0.2174
  987MOL0     C30204  10.822   8.709   9.922 -0.1852  0.5357 -0.4796
  987MOL0     C30205  10.938   8.743   9.981 -0.0353 -1.0459  0.4544
  987MOL0     C30206  11.391   8.821   9.988 -0.1643 -0.4027 -0.1186
  987MOL0     C30207  11.487   8.889   9.913 -0.3904 -0.3633  0.1277
  987MOL0     C30208  11.618   8.901   9.961 -0.4716  0.1922  0.6191
  987MOL0     C30209  11.654   8.871  10.094  1.0573 -1.4336  1.0086
  987MOL0     O30210  11.779   8.907  10.137  0.2923 -0.6068  1.0217
  987MOL0     C30211  11.780   9.038  10.200 -0.1132  0.3221 -0.3916
  987MOL0     C30212  11.924   9.066  10.261 -0.1425 -0.8204 -0.0171
  987MOL0     C30213  11.930   9.177  10.372 -1.0593  0.7440  0.5139
  987MOL0     C30214  12.072   9.193  10.412 -0.7303  0.5576  0.0131
  987MOL0     C30215  12.166   9.257  10.315 -0.3259  0.8908  0.3880
  987MOL0     C30216  12.247   9.278  10.229 -0.1587  0.0885  0.6855
  987MOL0     C30217  11.549   8.824  10.179  0.1691 -0.0633  0.2924
  987MOL0     C30218  11.418   8.803  10.131  0.4092 -0.2021  0.1367
  987MOL0     H30219  11.154   8.533   9.821  1.2435  3.2182  1.8891
  987MOL0     H30220  10.918   8.476   9.709 -2.4814  1.0482  0.1772
  987MOL0     H30221  10.762   8.611   9.576  0.7891 -2.7093  2.2256
  987MOL0     H30222  10.680   8.753   9.638  2.6011 -0.6321  3.6796
  987MOL0     H30223  10.456   8.625   9.618 -1.0659 -0.7117  0.1950
  987MOL0     H30224  10.547   8.490   9.574  0.1360  0.0846  2.9450
  987MOL0     H30225  10.562   8.765   9.434 -1.8160 -0.2354  0.0980
  987MOL0     H30226  10.440   8.641   9.384 -0.5213  1.4931 -0.5829
  987MOL0     H30227  10.601   8.645   9.216  1.0576 -0.3324 -0.0767
  987MOL0     H30228  10.728   8.643   9.313 -0.1355  3.2730 -0.9299
  987MOL0     H30229  10.529   8.406   9.308 -0.5336  1.6763 -0.7386
  987MOL0     H30230  10.675   8.412   9.408  1.4216 -2.5649 -0.6032
  987MOL0     H30231  10.702   8.276   9.199  0.2118  0.8123 -1.0819
  987MOL0     H30232  10.809   8.409   9.207  0.9406  1.1642 -3.7869
  987MOL0     H30233  10.645   8.508   9.037 -1.7286  0.3488  0.0007
  987MOL0     H30234  10.758   8.380   8.983 -1.5830 -3.0217 -2.2060
  987MOL0     H30235  10.473   8.321   9.090  1.4860  0.6661  0.8887
  987MOL0     H30236  10.574   8.217   8.976 -0.2250  1.1097 -4.0583
  987MOL0     H30237  10.602   8.397   8.719 -1.0739 -2.1186 -0.5813
  987MOL0     H30238  10.467   8.524   8.510  0.4258  2.3697  0.3008
  987MOL0     H30239  10.331   8.611   8.583  2.1796  0.9977 -2.1090
  987MOL0     H30240  10.187   8.407   8.517  1.8842 -1.9631  2.7153
  987MOL0     H30241  10.313   8.356   8.417  0.7279 -0.1442  1.9878
  987MOL0     H30242  10.219   8.650   8.379 -0.2493 -0.2975 -0.4989
  987MOL0     H30243  10.302   8.540   8.261 -0.8951  1.2129 -2.0912
  987MOL0     H30244  10.021   8.505   8.364  0.5987  1.3392 -0.1575
  987MOL0     H30245  10.105   8.398   8.244  2.2804 -2.1123  1.6156
  987MOL0     H30246  10.023   8.341   8.077 -0.8892  1.5667  4.3245
  987MOL0     H30247   9.893   8.287   7.887  0.0636  0.4829 -0.4303
  987MOL0     H30248   9.526   8.135   7.732 -1.3689 -2.1658 -0.4576
  987MOL0     H30249   9.365   8.072   7.554 -5.0167  2.7590 -1.5383
  987MOL0     H30250   9.199   8.091   7.345 -1.9488 -1.2417 -1.6504
  987MOL0     H30251   9.337   7.974   7.329 -2.1372 -0.5666 -0.2653
  987MOL0     H30252   9.204   7.945   7.139 -1.2820 -0.2622 -0.8939
  987MOL0     H30253   9.319   8.053   7.067  0.5218 -1.8322  1.5671
  987MOL0     H30254   9.151   8.231   7.036 -2.3635  1.8625  1.3283
  987MOL0     H30255   9.073   8.180   7.186  1.8213  2.2035  0.7333
  987MOL0     H30256   9.083   8.034   6.919  2.5484 -1.6468  1.5771
  987MOL0     H30257   8.978   7.999   7.055  2.2096 -2.4426 -3.4454
  987MOL0     H30258   8.953   8.250   6.882 -2.0439 -1.1910 -1.5122
  987MOL0     H30259   8.886   8.234   7.048 -2.2649 -1.5334  1.5322
  987MOL0     H30260   8.734   8.043   6.954 -1.6283 -1.2213 -1.0173
  987MOL0     H30261   8.845   8.035   6.815 -4.0954 -1.0860 -0.7584
  987MOL0     H30262   8.641   8.254   6.849 -1.8764 -0.2670 -0.0870
  987MOL0     H30263   8.773   8.242   6.728 -0.3050  1.4925  2.1764
  987MOL0     H30264   8.525   8.150   6.677 -1.3034 -3.1173  0.6836
  987MOL0     H30265   8.559   8.021   6.800 -0.0228 -0.5412  0.4499
  987MOL0     H30266   9.576   8.344   7.285  1.1696  0.4093  1.0145
  987MOL0     H30267   9.716   8.397   7.454  0.9099 -1.6556 -1.8792
  987MOL0     H30268   9.720   8.685   7.885  0.2425 -0.0342 -2.6448
  987MOL0     H30269   9.867   8.741   8.078  0.6420 -1.1702  1.5062
  987MOL0     H30270  10.738   8.766   9.961 -2.3169 -1.4476 -1.8887
  987MOL0     H30271  10.939   8.822  10.056 -2.5616  0.5199 -1.0228
  987MOL0     H30272  11.467   8.918   9.810 -0.6442 -0.9564  0.0055
  987MOL0     H30273  11.690   8.944   9.892  0.1417 -0.5645  0.7705
  987MOL0     H30274  11.712   9.034  10.286 -2.5241 -0.6303 -2.2128
  987MOL0     H30275  11.750   9.118  10.133  0.6213  0.3856 -0.6507
  987MOL0     H30276  11.963   8.972  10.302 -0.8539  0.1150  3.0558
  987MOL0     H30277  11.983   9.103  10.177 -3.5830  2.3968 -1.2928
  987MOL0     H30278  11.878   9.156  10.465 -0.0482 -0.7200  0.7747
  987MOL0     H30279  11.900   9.271  10.324  1.7437  0.6310 -1.7870
  987MOL0     H30280  12.065   9.248  10.506 -1.6679  0.5485 -0.0410
  987MOL0     H30281  12.095   9.089  10.435 -2.7497 -0.8563 -3.5557
  987MOL0     H30282  12.318   9.300  10.151 -1.3174  0.8155 -0.2141
  987MOL0     H30283  11.574   8.818  10.284  0.8760  2.4389  0.3383
  987MOL0     H30284  11.347   8.758  10.199  2.3144 -2.8052  0.5873
  988MOL0     O30285  11.183  11.305   5.483  0.1850 -0.1416 -1.3896
  988MOL0     C30286  11.210  11.238   5.586 -0.5890 -0.3968  0.0331
  988MOL0     O30287  11.331  11.242   5.644 -0.5722 -0.1816 -0.0453
  988MOL0     C30288  11.430  11.319   5.586  1.3349 -0.9238  0.6307
  988MOL0     C30289  11.507  11.390   5.682  0.2958  0.0185  0.5855
  988MOL0     C30290  11.598  11.482   5.644  0.5672 -0.3090 -0.4220
  988MOL0     C30291  11.615  11.506   5.508 -0.3210 -0.3464  0.4474
  988MOL0     O30292  11.705  11.608   5.488 -0.6126 -0.5438 -0.7628
  988MOL0     C30293  11.797  11.575   5.380 -0.1957 -0.0743  0.3097
  988MOL0     C30294  11.912  11.671   5.378  0.4952  0.0515 -0.6451
  988MOL0     C30295  11.984  11.641   5.510 -0.3568  0.5132  0.1373
  988MOL0     C30296  12.089  11.732   5.553 -0.4431 -0.4932 -0.0074
  988MOL0     C30297  12.205  11.655   5.629  0.0187 -0.2114  0.1697
  988MOL0     C30298  12.305  11.580   5.539  0.0537 -0.1506  1.0521
  988MOL0     C30299  12.431  11.542   5.619 -0.2966 -0.0585  0.9539
  988MOL0     C30300  12.530  11.650   5.656 -0.1718 -0.0759  0.2228
  988MOL0     N30301  12.670  11.616   5.627  0.4891 -0.4049  0.1966
  988MOL0     C30302  12.762  11.588   5.716 -0.2533 -0.0006 -0.5314
  988MOL0     C30303  12.881  11.594   5.647 -1.0695  0.1321 -0.3254
  988MOL0     C30304  13.018  11.569   5.704 -0.2681  0.1398 -0.0752
  988MOL0     C30305  13.055  11.419   5.696  0.2042  0.5156  0.2536
  988MOL0     C30306  13.044  11.365   5.559  1.4487 -0.2552  0.1783
  988MOL0     C30307  13.079  11.213   5.554  0.8234  0.5231  0.4436
  988MOL0     O30308  13.029  11.151   5.425 -0.7017 -0.6558  0.7818
  988MOL0     C30309  12.899  11.138   5.400 -0.6721  0.4602  0.9268
  988MOL0     C30310  12.829  11.224   5.314  0.7707  0.6769 -0.4619
  988MOL0     C30311  12.683  11.211   5.298 -0.2476 -0.2281  0.6367
  988MOL0     C30312  12.619  11.106   5.371 -0.6735 -1.6174 -0.5239
  988MOL0     C30313  12.472  11.111   5.376 -0.8667  0.2464 -0.6443
  988MOL0     O30314  12.405  11.187   5.287  0.5105  0.2111  0.9585
  988MOL0     C30315  12.269  11.176   5.262  0.5046  0.0810 -0.0708
  988MOL0     C30316  12.187  11.293   5.259 -0.5073 -0.1616  0.0426
  988MOL0     C30317  12.053  11.289   5.248 -0.0067 -0.1519  0.5516
  988MOL0     C30318  11.994  11.167   5.239  0.1142  0.7033  0.0272
  988MOL0     O30319  11.860  11.173   5.224  0.2375  0.2730  1.0033
  988MOL0     C30320  11.799  11.054   5.187  1.0590  0.0453 -1.2545
  988MOL0     C30321  11.664  11.089   5.130 -0.3177  0.1640 -0.2039
  988MOL0     C30322  11.546  10.984   5.151  0.2750  0.2950 -0.2308
  988MOL0     C30323  11.410  11.047   5.135 -0.6263 -0.7511 -1.0186
  988MOL0     C30324  11.298  10.939   5.147  0.3953 -0.7625  0.5968
  988MOL0     C30325  11.165  11.010   5.181  0.1652 -0.2127  0.8802
  988MOL0     C30326  11.061  10.901   5.147  0.8951 -1.1108  0.3164
  988MOL0     C30327  10.917  10.940   5.173  1.0556 -0.1277 -0.5247
  988MOL0    Cl30328  10.872  10.935   5.350 -0.0230 -0.2743 -0.3182
  988MOL0     C30329  12.065  11.052   5.259  0.7292 -0.1693  0.7602
  988MOL0     C30330  12.206  11.054   5.259 -0.3998 -0.0790 -0.2147
  988MOL0     O30331  12.424  11.036   5.453 -0.5152  0.1752 -0.3768
  988MOL0     C30332  12.696  11.019   5.447 -0.2629 -1.4705 -0.3457
  988MOL0     C30333  12.834  11.036   5.466 -0.1761  0.2056  0.2879
  988MOL0     N30334  12.855  11.634   5.518 -0.3250  0.7773 -0.4481
  988MOL0     N30335  12.725  11.668   5.509  0.4349 -0.1794  0.4025
  988MOL0     C30336  11.549  11.430   5.415 -0.5505  0.0832  0.3511
  988MOL0     C30337  11.458  11.339   5.450  0.6503 -1.2795 -0.7257
  988MOL0     C30338  11.105  11.154   5.641  0.6405 -0.1920  0.1601
  988MOL0     C30339  10.968  11.166   5.609 -1.5445 -0.4845 -0.0529
  988MOL0     C30340  10.874  11.075   5.650 -0.5208 -0.4680  0.2077
  988MOL0     C30341  10.909  10.974   5.742  0.3599 -0.1616  0.7956
  988MOL0     O30342  10.807  10.904   5.794 -0.2665 -0.0724  0.4248
  988MOL0     C30343  10.735  10.809   5.712 -0.6200 -0.5360 -0.8156
  988MOL0     C30344  10.623  10.749   5.792  0.5179 -0.3034 -0.6270
  988MOL0     C30345  10.523  10.645   5.728 -0.5598  0.4514  0.5145
  988MOL0     C30346  10.407  10.607   5.825 -0.5203 -0.6523 -0.1872
  988MOL0     C30347  10.288  10.555   5.757 -0.2257 -0.1621  0.6165
  988MOL0     C30348  10.188  10.525   5.694 -0.3456 -0.0629  0.1798
  988MOL0     C30349  11.040  10.966   5.782 -0.5061  1.4003  0.0126
  988MOL0     C30350  11.134  11.053   5.735 -0.0555 -0.0591  1.4323
  988MOL0     H30351  11.499  11.371   5.789 -1.1074  1.3996  0.7603
  988MOL0     H30352  11.655  11.542   5.715  0.4890  2.8130 -2.8086
  988MOL0     H30353  11.746  11.579   5.283  0.4668  0.6438 -0.0187
  988MOL0     H30354  11.826  11.470   5.392  1.2501  0.4617  1.8184
  988MOL0     H30355  11.862  11.767   5.364  1.8072  1.1384  1.5645
  988MOL0     H30356  11.980  11.659   5.294  2.2347 -2.2428  0.9517
  988MOL0     H30357  12.027  11.541   5.495 -1.0915  0.4068 -1.4925
  988MOL0     H30358  11.923  11.625   5.599  0.7560 -0.9968  0.6705
  988MOL0     H30359  12.141  11.774   5.467  1.4942  1.3213  1.9079
  988MOL0     H30360  12.053  11.822   5.605  0.9480  0.6708 -0.9741
  988MOL0     H30361  12.159  11.585   5.699 -0.7648  1.8180  1.7881
  988MOL0     H30362  12.266  11.719   5.694 -0.9131 -0.5160  1.3749
  988MOL0     H30363  12.325  11.652   5.459 -0.9269  1.0714  1.8671
  988MOL0     H30364  12.242  11.498   5.502 -0.7272  1.7697 -2.2664
  988MOL0     H30365  12.405  11.482   5.707  1.6070 -2.1021  0.2362
  988MOL0     H30366  12.469  11.465   5.551 -0.6481  1.7486 -1.4110
  988MOL0     H30367  12.532  11.680   5.761  3.8948  1.6196 -0.1340
  988MOL0     H30368  12.503  11.742   5.603 -0.1221  0.3327  0.8867
  988MOL0     H30369  12.757  11.562   5.821 -2.1836 -0.9494 -0.8206
  988MOL0     H30370  13.007  11.603   5.807  0.1290 -1.8021  0.6431
  988MOL0     H30371  13.088  11.640   5.658 -2.9384  2.7453 -0.4044
  988MOL0     H30372  12.993  11.359   5.764 -1.2188  0.2950 -1.1768
  988MOL0     H30373  13.158  11.412   5.731  0.3663  1.9439  0.1048
  988MOL0     H30374  12.943  11.368   5.515  1.0346 -3.8717  0.5815
  988MOL0     H30375  13.110  11.413   5.486 -2.1438  0.5754 -2.8721
  988MOL0     H30376  13.025  11.163   5.635  0.2980  0.5108  0.0911
  988MOL0     H30377  13.186  11.189   5.561  1.0214  0.9708 -0.8488
  988MOL0     H30378  12.890  11.300   5.265  0.6691  0.4075 -1.0150
  988MOL0     H30379  12.632  11.283   5.235 -2.0074  0.2338  2.4832
  988MOL0     H30380  12.242  11.385   5.280  0.8615 -0.8570 -0.4108
  988MOL0     H30381  11.999  11.382   5.263  1.9113  0.9165  1.2174
  988MOL0     H30382  11.791  10.991   5.276  2.0563 -1.3972 -2.1392
  988MOL0     H30383  11.860  10.990   5.123  1.8559 -1.6750  1.0745
  988MOL0     H30384  11.683  11.113   5.025  1.4901  1.3787  0.3617
  988MOL0     H30385  11.635  11.184   5.176  1.2970  0.2388  0.7412
  988MOL0     H30386  11.554  10.950   5.254 -1.3702  2.6375  0.7386
  988MOL0     H30387  11.560  10.896   5.088 -1.7520  1.0113 -1.7788
  988MOL0     H30388  11.401  11.131   5.204 -2.5813 -1.3444 -0.4945
  988MOL0     H30389  11.397  11.091   5.035 -2.1905 -2.0633 -1.4429
  988MOL0     H30390  11.316  10.869   5.229 -2.3830 -0.8215  1.2444
  988MOL0     H30391  11.301  10.893   5.047  2.2082  2.4579 -1.0185
  988MOL0     H30392  11.161  11.097   5.115  1.9717 -0.6036  0.1935
  988MOL0     H30393  11.165  11.041   5.286  0.4262 -0.4321  0.9470
  988MOL0     H30394  11.067  10.864   5.044  0.7871 -2.1341  0.6641
  988MOL0     H30395  11.082  10.821   5.219 -0.1072  0.7873  2.9021
  988MOL0     H30396  10.850  10.863   5.133 -0.1615  1.0836 -0.9475
  988MOL0     H30397  10.885  11.032   5.122 -2.2388  0.8741  2.8863
  988MOL0     H30398  12.024  10.953   5.273  0.7609  0.1417  3.6679
  988MOL0     H30399  12.262  10.962   5.265  0.4521  0.5083  1.8270
  988MOL0     H30400  12.645  10.935   5.494 -2.4625  0.6900  1.4196
  988MOL0     H30401  12.889  10.968   5.531  2.3996  2.4247  0.5832
  988MOL0     H30402  11.566  11.458   5.312  1.4760  3.4796  1.4501
  988MOL0     H30403  11.396  11.292   5.375  1.1126 -2.4082 -0.4162
  988MOL0     H30404  10.941  11.255   5.551 -4.0068 -0.8943  0.3747
  988MOL0     H30405  10.771  11.080   5.617 -0.5542  0.1235  0.3875
  988MOL0     H30406  10.804  10.730   5.683 -0.7393 -0.4496 -1.3475
  988MOL0     H30407  10.687  10.846   5.621 -3.2057 -0.7595  0.3850
  988MOL0     H30408  10.665  10.705   5.883 -0.4121 -2.1366 -1.0579
  988MOL0     H30409  10.556  10.830   5.825 -1.1970 -0.8474 -2.5720
  988MOL0     H30410  10.576  10.556   5.692  0.2073  2.0495 -2.7552
  988MOL0     H30411  10.479  10.681   5.634 -0.7910 -2.3691 -0.5725
  988MOL0     H30412  10.449  10.529   5.890  0.1883 -0.9711 -1.0005
  988MOL0     H30413  10.366  10.689   5.884 -1.5548 -0.0335 -1.7092
  988MOL0     H30414  10.102  10.504   5.633  1.5895  1.4533 -3.4328
  988MOL0     H30415  11.073  10.891   5.854  0.2281  2.3259  0.6691
  988MOL0     H30416  11.232  11.054   5.783  0.7362  0.6304 -0.1202
  989MOL0     O30417   8.111   8.542   2.960 -0.7485  0.2215 -0.5919
  989MOL0     C30418   8.234   8.537   2.934  0.3565  0.7142  0.0419
  989MOL0     O30419   8.296   8.442   2.857  0.4712 -0.5250  0.6795
  989MOL0     C30420   8.235   8.394   2.750 -1.0436  0.3954  0.9429
  989MOL0     C30421   8.313   8.303   2.671  0.4952  0.1326 -1.0100
  989MOL0     C30422   8.271   8.266   2.549 -0.0235  0.5078  0.0774
  989MOL0     C30423   8.158   8.316   2.482 -0.0931  0.0485 -0.1564
  989MOL0     O30424   8.127   8.281   2.350 -0.3847  0.2930 -0.0048
  989MOL0     C30425   8.005   8.206   2.342  0.4706 -0.6021 -0.3662
  989MOL0     C30426   7.995   8.121   2.212 -0.4699 -0.7857 -0.3154
  989MOL0     C30427   7.867   8.032   2.199 -0.4909 -0.2789  0.7469
  989MOL0     C30428   7.732   8.101   2.229 -1.2845  0.2259  0.7691
  989MOL0     C30429   7.697   8.199   2.109  0.9465 -0.8935 -0.2519
  989MOL0     C30430   7.544   8.235   2.138 -1.2708  0.0815  0.3899
  989MOL0     C30431   7.496   8.346   2.053  0.5517 -0.8669  0.3337
  989MOL0     C30432   7.475   8.302   1.903  0.2413 -0.2615 -0.4793
  989MOL0     N30433   7.369   8.202   1.886 -1.1700  0.1123  0.0907
  989MOL0     C30434   7.237   8.214   1.863  0.1806 -0.0322 -0.3962
  989MOL0     C30435   7.194   8.092   1.830 -0.3599 -1.3660  0.3188
  989MOL0     C30436   7.055   8.063   1.784 -0.5290 -0.6628 -0.5162
  989MOL0     C30437   7.014   8.156   1.669  0.5112  0.3896  0.5097
  989MOL0     C30438   6.880   8.093   1.621 -0.5324 -0.1415 -0.3624
  989MOL0     C30439   6.754   8.125   1.703 -0.7712 -0.0372 -0.3051
  989MOL0     O30440   6.653   8.037   1.676  0.3506  0.7995 -0.4460
  989MOL0     C30441   6.523   8.079   1.707  1.2718  0.1066 -0.1958
  989MOL0     C30442   6.416   7.985   1.711  0.0068  0.2894 -0.0844
  989MOL0     C30443   6.289   8.026   1.727 -0.1687 -0.2851  0.2962
  989MOL0     C30444   6.256   8.158   1.750 -0.3141 -0.3025 -0.2470
  989MOL0     C30445   6.115   8.191   1.786  0.1468 -0.7970  0.0637
  989MOL0     O30446   6.100   8.302   1.858 -0.0138  0.5652  0.2661
  989MOL0     C30447   5.976   8.338   1.893  0.6948 -0.6218  0.5341
  989MOL0     C30448   5.882   8.391   1.809  0.6715  0.0615  0.0183
  989MOL0     C30449   5.752   8.423   1.850 -0.6934 -0.6209 -0.7457
  989MOL0     C30450   5.729   8.421   1.990  1.1055 -0.7987  0.8805
  989MOL0     O30451   5.616   8.474   2.048  0.4773  0.5701 -0.2903
  989MOL0     C30452   5.537   8.575   1.982 -0.0602  0.2850  0.8664
  989MOL0     C30453   5.397   8.584   2.031  0.3788  0.1741  0.3276
  989MOL0     C30454   5.385   8.710   2.107 -0.4601 -0.2555  0.6010
  989MOL0     C30455   5.243   8.740   2.155 -0.2221  0.0154  0.1587
  989MOL0     C30456   5.240   8.883   2.217 -0.5175 -0.0452  0.5790
  989MOL0     C30457   5.092   8.903   2.277 -0.0060  0.9674 -0.5541
  989MOL0     C30458   5.086   9.045   2.332  0.4557  1.2448 -0.8920
  989MOL0     C30459   4.942   9.071   2.392 -0.6052 -0.4661 -0.4727
  989MOL0    Cl30460   4.926   8.973   2.543 -0.1557  0.1011 -0.5147
  989MOL0     C30461   5.821   8.363   2.080 -0.3777 -0.3388 -0.3395
  989MOL0     C30462   5.942   8.326   2.032 -0.3510 -0.2501  0.0130
  989MOL0     O30463   6.028   8.111   1.756  0.1685 -0.8456  0.1638
  989MOL0     C30464   6.356   8.251   1.756 -1.1679 -0.5268 -0.9820
  989MOL0     C30465   6.484   8.213   1.718  0.4774 -0.6522 -0.5173
  989MOL0     N30466   7.302   8.007   1.816 -0.0995  1.1776  0.2469
  989MOL0     N30467   7.406   8.077   1.848 -0.1570  0.4079  0.2350
  989MOL0     C30468   8.076   8.392   2.569  0.0533 -0.1331  0.1655
  989MOL0     C30469   8.115   8.437   2.698 -1.3740  0.4329 -1.3459
  989MOL0     C30470   8.319   8.639   2.993 -0.1941 -0.3435  0.0153
  989MOL0     C30471   8.456   8.612   3.023  0.1712  0.2339 -0.6192
  989MOL0     C30472   8.548   8.715   3.060  0.8931 -0.1210 -0.0606
  989MOL0     C30473   8.503   8.847   3.074  1.2472  0.3923 -0.2950
  989MOL0     O30474   8.601   8.954   3.086 -0.1687 -0.6179 -0.8598
  989MOL0     C30475   8.555   9.090   3.109  0.0816  0.1267  0.1620
  989MOL0     C30476   8.490   9.113   3.248 -0.6945 -0.1512 -0.6140
  989MOL0     C30477   8.492   9.272   3.270  0.1865  0.7426  0.5003
  989MOL0     C30478   8.418   9.314   3.397  0.1080  0.4313  0.5465
  989MOL0     C30479   8.272   9.311   3.375 -0.7762 -0.0812 -0.2400
  989MOL0     C30480   8.151   9.313   3.372 -0.2160 -0.4631 -0.7664
  989MOL0     C30481   8.369   8.875   3.041  0.2064  0.1101  0.1734
  989MOL0     C30482   8.281   8.773   3.006 -0.6783  0.0923 -0.1823
  989MOL0     H30483   8.404   8.261   2.714  1.3525  1.4451 -1.4635
  989MOL0     H30484   8.335   8.195   2.498 -1.3557 -0.9021  0.3016
  989MOL0     H30485   7.917   8.271   2.345  0.3612 -0.7190 -0.9609
  989MOL0     H30486   8.018   8.133   2.422  2.2456 -2.8521 -2.5726
  989MOL0     H30487   8.095   8.081   2.195  1.0782  0.8039  3.7178
  989MOL0     H30488   7.982   8.200   2.138 -2.2181  2.4966  3.1224
  989MOL0     H30489   7.893   7.952   2.269 -0.0937  0.5599  1.5841
  989MOL0     H30490   7.861   7.994   2.097 -2.2791 -2.4814  1.5663
  989MOL0     H30491   7.666   8.013   2.232 -0.0088 -0.7838  0.4030
  989MOL0     H30492   7.721   8.146   2.328  0.3119 -0.0459  1.0954
  989MOL0     H30493   7.718   8.162   2.009  0.8604 -1.7038  0.0213
  989MOL0     H30494   7.753   8.288   2.138 -0.0546 -0.9728  2.2195
  989MOL0     H30495   7.526   8.266   2.242 -1.0313  0.7164  0.2517
  989MOL0     H30496   7.483   8.147   2.116  1.0044 -1.3296 -0.6756
  989MOL0     H30497   7.402   8.389   2.090  1.4447 -2.4248  5.0794
  989MOL0     H30498   7.562   8.433   2.045 -1.5925  0.6719 -2.3055
  989MOL0     H30499   7.568   8.263   1.862 -0.6231 -0.9141 -1.8708
  989MOL0     H30500   7.440   8.391   1.849 -1.2580 -0.2461  0.4349
  989MOL0     H30501   7.177   8.304   1.872  1.8497  1.1670 -0.8313
  989MOL0     H30502   6.998   8.091   1.873  0.5556 -2.8414  0.9614
  989MOL0     H30503   7.049   7.954   1.771 -0.6178 -0.5480 -1.5074
  989MOL0     H30504   7.091   8.144   1.592  1.4342 -0.3830  1.5193
  989MOL0     H30505   6.994   8.262   1.685  3.7254  1.2824 -0.4807
  989MOL0     H30506   6.855   8.138   1.525 -2.5686 -0.6680 -0.1253
  989MOL0     H30507   6.890   7.984   1.615 -0.2734 -0.5265  3.7871
  989MOL0     H30508   6.729   8.227   1.671 -0.8271 -0.1439 -0.6101
  989MOL0     H30509   6.775   8.125   1.810 -0.2169 -0.6725 -0.4093
  989MOL0     H30510   6.438   7.879   1.699  2.2785  0.7472 -0.5445
  989MOL0     H30511   6.213   7.949   1.726 -0.1907 -0.2636  0.3489
  989MOL0     H30512   5.902   8.407   1.704 -0.5087 -3.4709 -0.8864
  989MOL0     H30513   5.674   8.454   1.781 -2.5243  2.4589  2.3591
  989MOL0     H30514   5.532   8.547   1.877 -0.6826  0.0165  0.9604
  989MOL0     H30515   5.589   8.670   1.981 -2.1020  1.5000 -1.9568
  989MOL0     H30516   5.370   8.497   2.092 -0.4249 -1.4641 -2.1961
  989MOL0     H30517   5.335   8.592   1.941  1.5731  2.5188 -0.3477
  989MOL0     H30518   5.420   8.795   2.047  1.6302 -0.7848  0.9814
  989MOL0     H30519   5.456   8.707   2.190  0.8322 -1.9717 -0.4878
  989MOL0     H30520   5.178   8.749   2.068  1.6505 -0.4511 -1.3566
  989MOL0     H30521   5.209   8.666   2.228 -0.2504  1.1786  1.3727
  989MOL0     H30522   5.248   8.949   2.131 -2.2618 -2.7648 -1.8908
  989MOL0     H30523   5.311   8.898   2.299 -0.5900  0.6061  0.5215
  989MOL0     H30524   5.074   8.825   2.351  0.5728 -0.3517 -1.7419
  989MOL0     H30525   5.025   8.878   2.193  0.7815 -2.4945 -0.3015
  989MOL0     H30526   5.163   9.054   2.409  3.1406 -2.2610 -2.8264
  989MOL0     H30527   5.105   9.106   2.242  3.4789 -2.4811 -3.1347
  989MOL0     H30528   4.851   9.045   2.338 -1.1141 -3.1553  1.4971
  989MOL0     H30529   4.937   9.179   2.410 -0.6030 -0.9308  3.0864
  989MOL0     H30530   5.794   8.366   2.185  0.1879 -0.0584 -0.2018
  989MOL0     H30531   6.012   8.280   2.100 -0.6119  0.0973  0.5246
  989MOL0     H30532   6.338   8.354   1.784 -2.6146 -0.0405 -3.3709
  989MOL0     H30533   6.561   8.289   1.711  1.5181 -1.5409  0.7675
  989MOL0     H30534   7.979   8.426   2.533  0.2439  1.0023  0.6545
  989MOL0     H30535   8.048   8.507   2.747 -0.9734 -1.0026  1.5020
  989MOL0     H30536   8.504   8.515   3.035  0.3458  0.2351 -1.2700
  989MOL0     H30537   8.651   8.680   3.057  0.8954 -0.1488  0.3401
  989MOL0     H30538   8.489   9.127   3.030 -0.8152  3.7429  2.3196
  989MOL0     H30539   8.637   9.162   3.104 -1.4311  2.1600  2.1231
  989MOL0     H30540   8.391   9.068   3.254 -0.7284 -0.0136 -0.1382
  989MOL0     H30541   8.554   9.072   3.326  0.5944  0.8998 -1.0719
  989MOL0     H30542   8.447   9.322   3.183  1.7784  0.7261 -0.3528
  989MOL0     H30543   8.591   9.317   3.283 -0.3707  1.6220  2.0094
  989MOL0     H30544   8.443   9.256   3.487  1.6877  0.0310 -0.1169
  989MOL0     H30545   8.443   9.415   3.430 -2.6139  0.0671  4.4679
  989MOL0     H30546   8.045   9.327   3.378 -0.1725 -0.8012  1.7660
  989MOL0     H30547   8.330   8.976   3.035 -0.1682 -0.1083 -1.6935
  989MOL0     H30548   8.187   8.813   2.971  1.1870  2.0322 -3.4643
  990MOL0     O30549   3.546   0.849   5.631 -0.3634  0.0768  0.7392
  990MOL0     C30550   3.610   0.747   5.671  0.3632 -0.1328 -0.1877
  990MOL0     O30551   3.705   0.749   5.777  0.0529  0.2937  0.5891
  990MOL0     C30552   3.734   0.859   5.850  0.5939  0.5212  0.0785
  990MOL0     C30553   3.862   0.877   5.883 -0.1722  0.4199  0.1068
  990MOL0     C30554   3.912   0.983   5.949  0.0665 -1.0158 -0.9032
  990MOL0     C30555   3.814   1.079   5.995  0.7110 -0.3096  0.0471
  990MOL0     O30556   3.859   1.191   6.060 -0.2380 -0.7796  0.1867
  990MOL0     C30557   3.788   1.317   6.032  0.2871  0.8373 -0.3041
  990MOL0     C30558   3.875   1.438   6.040 -0.4736  0.8571  1.0617
  990MOL0     C30559   3.940   1.449   6.179  0.4562 -0.1839 -0.5608
  990MOL0     C30560   4.037   1.563   6.198 -0.6917  0.6283  0.1320
  990MOL0     C30561   4.166   1.541   6.115  0.3438  0.7193  0.1762
  990MOL0     C30562   4.277   1.638   6.135 -0.3621 -0.1948  0.5323
  990MOL0     C30563   4.273   1.755   6.036  0.0462  0.9263  0.0515
  990MOL0     C30564   4.351   1.872   6.092  0.2211  0.4675 -0.2881
  990MOL0     N30565   4.364   1.983   6.000  0.3270  0.2296 -0.3201
  990MOL0     C30566   4.473   1.991   5.912  0.2402  0.6073 -1.0972
  990MOL0     C30567   4.439   2.099   5.839 -0.0215 -1.0598 -0.5851
  990MOL0     C30568   4.516   2.170   5.728  0.5526 -0.2560  0.3663
  990MOL0     C30569   4.429   2.157   5.597  0.8841 -0.6881 -1.0634
  990MOL0     C30570   4.473   2.247   5.488 -0.4396 -0.3745 -0.5606
  990MOL0     C30571   4.631   2.253   5.486 -0.4389 -0.5424 -0.3546
  990MOL0     O30572   4.678   2.321   5.377 -0.2159  0.6964  0.9886
  990MOL0     C30573   4.795   2.296   5.321 -1.0133  0.6061 -0.1396
  990MOL0     C30574   4.817   2.375   5.201 -0.1685 -0.0797 -0.4868
  990MOL0     C30575   4.936   2.367   5.128 -0.3388  0.7693  0.0734
  990MOL0     C30576   5.032   2.264   5.159  0.0041 -0.3108 -0.4680
  990MOL0     C30577   5.156   2.249   5.084 -0.0368 -0.4905  1.0115
  990MOL0     O30578   5.252   2.176   5.143 -0.5781  0.0136  0.5419
  990MOL0     C30579   5.371   2.142   5.084 -0.1330  0.0258  0.0141
  990MOL0     C30580   5.408   2.152   4.951 -0.5302 -0.0888  0.6401
  990MOL0     C30581   5.534   2.101   4.910 -1.0700  0.3020  0.2017
  990MOL0     C30582   5.621   2.035   5.001 -0.0435  0.6373  0.1743
  990MOL0     O30583   5.739   1.990   4.958 -0.3474  0.3461 -0.1776
  990MOL0     C30584   5.803   1.874   5.015  0.8864  0.9820  0.1359
  990MOL0     C30585   5.719   1.743   4.977  0.1008  0.7947 -0.1676
  990MOL0     C30586   5.748   1.625   5.066  0.4786  1.0232 -0.4681
  990MOL0     C30587   5.897   1.566   5.063 -0.4760  0.8389 -0.3437
  990MOL0     C30588   5.981   1.565   5.193  0.7864 -0.3765  0.1616
  990MOL0     C30589   5.911   1.477   5.297 -0.1402  0.2390 -0.4051
  990MOL0     C30590   6.018   1.423   5.380  0.7061  1.0894 -0.9637
  990MOL0     C30591   5.983   1.388   5.523 -0.2144 -0.2453 -0.2894
  990MOL0    Cl30592   6.126   1.312   5.608 -0.0258  0.1374 -0.2428
  990MOL0     C30593   5.592   2.033   5.136 -0.4567 -0.7867  0.3778
  990MOL0     C30594   5.471   2.089   5.175 -0.1259 -0.9253 -0.1489
  990MOL0     O30595   5.169   2.299   4.968  0.6410  0.2872  0.4568
  990MOL0     C30596   5.002   2.183   5.276  0.1193 -0.4110  0.5942
  990MOL0     C30597   4.891   2.196   5.354  0.2422  0.7632  0.1084
  990MOL0     N30598   4.315   2.141   5.875 -0.2533  0.3622 -0.4796
  990MOL0     N30599   4.273   2.082   5.973 -0.4609 -0.3900  0.1638
  990MOL0     C30600   3.676   1.057   5.971 -0.3251  1.0712 -0.1099
  990MOL0     C30601   3.635   0.941   5.908 -0.4650 -0.7031  0.1871
  990MOL0     C30602   3.583   0.620   5.606 -0.4858 -0.0658 -0.6994
  990MOL0     C30603   3.475   0.594   5.528  0.4400 -0.4035 -0.4830
  990MOL0     C30604   3.424   0.464   5.495 -0.1932 -0.7192 -0.8073
  990MOL0     C30605   3.498   0.352   5.544  0.2489  1.1018 -0.7146
  990MOL0     O30606   3.450   0.224   5.532  0.2648 -0.2246  0.2968
  990MOL0     C30607   3.533   0.109   5.542 -0.1328  0.2971 -0.6563
  990MOL0     C30608   3.442  -0.018   5.512  0.5605  0.2550  0.1998
  990MOL0     C30609   3.525  -0.150   5.517 -0.0813 -0.2846  0.1265
  990MOL0     C30610   3.432  -0.254   5.464 -0.1480  0.0927  0.0212
  990MOL0     C30611   3.515  -0.376   5.456  1.3640 -0.5728 -0.1994
  990MOL0     C30612   3.573  -0.476   5.434 -0.2178 -0.0515 -0.2348
  990MOL0     C30613   3.630   0.380   5.600  0.7969 -0.1749 -0.3896
  990MOL0     C30614   3.656   0.511   5.637  0.1709  0.2654  0.3094
  990MOL0     H30615   3.932   0.799   5.857  1.9532  1.3448  2.5857
  990MOL0     H30616   4.018   0.997   5.966  0.2715 -3.2057 -0.0969
  990MOL0     H30617   3.698   1.318   6.094 -2.3311 -0.6077 -3.7208
  990MOL0     H30618   3.765   1.297   5.926  1.2373 -0.9581 -0.2231
  990MOL0     H30619   3.814   1.525   6.016 -1.6061  0.3990  2.1611
  990MOL0     H30620   3.943   1.423   5.956 -1.8556  0.4682 -0.0361
  990MOL0     H30621   3.985   1.351   6.199  1.1281  0.5475  1.8452
  990MOL0     H30622   3.856   1.455   6.249  0.4692  0.3917 -0.5911
  990MOL0     H30623   3.986   1.657   6.176 -0.2741  0.3246 -2.5335
  990MOL0     H30624   4.052   1.563   6.306 -3.4353 -0.1558  0.5900
  990MOL0     H30625   4.153   1.532   6.007  1.9332 -0.4718  0.0448
  990MOL0     H30626   4.190   1.437   6.142 -1.3695  0.5616  1.2742
  990MOL0     H30627   4.373   1.594   6.107  1.0301  1.8714  1.7652
  990MOL0     H30628   4.296   1.670   6.238 -2.2160 -0.2709  0.9314
  990MOL0     H30629   4.300   1.730   5.933  2.4517  4.3724 -0.3230
  990MOL0     H30630   4.166   1.778   6.030 -0.1825  0.3507  1.5381
  990MOL0     H30631   4.453   1.835   6.110  0.7358  0.9710 -1.9669
  990MOL0     H30632   4.303   1.898   6.186 -7.0740  0.6590 -3.4395
  990MOL0     H30633   4.556   1.922   5.922 -1.5271 -1.2765  2.0746
  990MOL0     H30634   4.603   2.102   5.727 -0.9689 -2.4842  3.4372
  990MOL0     H30635   4.530   2.271   5.767  2.1226 -0.3903  0.2440
  990MOL0     H30636   4.324   2.177   5.619  1.9502  1.6399  2.9980
  990MOL0     H30637   4.447   2.056   5.561  2.3801 -0.2260 -1.7089
  990MOL0     H30638   4.440   2.193   5.399 -0.0099 -1.9718  0.2229
  990MOL0     H30639   4.446   2.351   5.510 -0.9563 -0.7051  0.4151
  990MOL0     H30640   4.667   2.150   5.495 -0.1586 -0.2756  2.2475
  990MOL0     H30641   4.665   2.306   5.576  3.5211 -1.2455 -1.2764
  990MOL0     H30642   4.731   2.437   5.177  0.0975  1.4529  2.1465
  990MOL0     H30643   4.971   2.434   5.050  3.4954 -1.2085 -0.1519
  990MOL0     H30644   5.338   2.185   4.874 -0.2967 -0.0762  0.4314
  990MOL0     H30645   5.572   2.104   4.808 -2.2169  2.0141 -0.2167
  990MOL0     H30646   5.807   1.889   5.123 -2.7143  3.0247  0.1378
  990MOL0     H30647   5.904   1.867   4.974  0.2268 -0.7153 -1.3374
  990MOL0     H30648   5.742   1.711   4.875 -2.8406 -1.3076 -0.3055
  990MOL0     H30649   5.612   1.768   4.970 -0.7421 -2.5071 -0.6007
  990MOL0     H30650   5.693   1.540   5.024  1.9013  1.6291 -3.9633
  990MOL0     H30651   5.702   1.636   5.164 -3.8639  2.6444 -2.4298
  990MOL0     H30652   5.893   1.460   5.035  1.7218 -0.3613  3.2067
  990MOL0     H30653   5.960   1.620   4.992  1.0899 -0.5092 -0.0491
  990MOL0     H30654   5.985   1.664   5.238 -0.7455  0.0193 -0.5037
  990MOL0     H30655   6.082   1.536   5.164  0.9132  0.1841  0.0364
  990MOL0     H30656   5.856   1.395   5.251 -0.5377  0.4163 -0.2473
  990MOL0     H30657   5.833   1.527   5.355 -0.0777 -0.4383  0.2894
  990MOL0     H30658   6.056   1.325   5.348  1.3637  0.6599  0.9671
  990MOL0     H30659   6.105   1.490   5.378  0.9871  0.9139  1.6816
  990MOL0     H30660   5.886   1.337   5.519 -1.3156  1.5113  1.5282
  990MOL0     H30661   5.958   1.482   5.574  3.0912  0.3622  0.3983
  990MOL0     H30662   5.660   2.014   5.219 -4.4185 -0.2226  4.0871
  990MOL0     H30663   5.443   2.098   5.280  0.2434  4.9253 -0.2696
  990MOL0     H30664   5.076   2.112   5.312  3.1405  0.2763 -3.5959
  990MOL0     H30665   4.888   2.135   5.443  4.1366 -0.5040 -0.4660
  990MOL0     H30666   3.595   1.117   6.011  1.7396  2.3619  2.4216
  990MOL0     H30667   3.532   0.909   5.897 -0.5863  0.2894 -2.2092
  990MOL0     H30668   3.408   0.675   5.500 -4.0142 -2.5136  2.8328
  990MOL0     H30669   3.334   0.451   5.436 -0.7801 -1.8217  0.2923
  990MOL0     H30670   3.561   0.106   5.648  0.8854  0.7229 -0.9061
  990MOL0     H30671   3.616   0.093   5.473 -0.6542  3.0171 -2.0364
  990MOL0     H30672   3.358  -0.019   5.581  1.1009 -0.0884  0.8663
  990MOL0     H30673   3.425   0.007   5.407  2.6971 -0.2690 -0.3419
  990MOL0     H30674   3.544  -0.179   5.621 -0.1150 -0.7427  0.0062
  990MOL0     H30675   3.617  -0.145   5.457  2.0293 -0.7502  3.1013
  990MOL0     H30676   3.357  -0.284   5.537 -1.6202  1.1210 -1.0166
  990MOL0     H30677   3.379  -0.223   5.373 -4.6158  1.8669  2.8862
  990MOL0     H30678   3.636  -0.562   5.420  0.1084  0.2073 -0.3786
  990MOL0     H30679   3.709   0.311   5.630  0.9575  1.0682  2.3301
  990MOL0     H30680   3.754   0.522   5.682 -0.0600 -2.2886  1.5814
  991MOL0     O30681   3.379   0.609   0.648  0.3929  0.0507 -0.6707
  991MOL0     C30682   3.466   0.553   0.582 -0.4672  0.5366  0.0041
  991MOL0     O30683   3.449   0.528   0.450  0.6922 -0.1296 -0.3549
  991MOL0     C30684   3.328   0.528   0.388 -0.7454  0.6035  1.0315
  991MOL0     C30685   3.213   0.611   0.410 -0.1268 -0.0640  0.5805
  991MOL0     C30686   3.103   0.613   0.323  0.5096 -0.1067 -0.8674
  991MOL0     C30687   3.088   0.515   0.225 -0.1469 -0.1026 -0.0995
  991MOL0     O30688   2.964   0.481   0.164  1.4973  0.3236  0.5550
  991MOL0     C30689   2.948   0.481   0.024 -0.6299  0.9927  0.1655
  991MOL0     C30690   2.856   0.603   0.009  0.1199 -0.8318  0.5210
  991MOL0     C30691   2.781   0.584  -0.124  0.8491 -0.5892 -0.5393
  991MOL0     C30692   2.689   0.704  -0.164 -0.3529 -0.2665  0.3008
  991MOL0     C30693   2.566   0.704  -0.074  0.2509 -0.3903 -0.5087
  991MOL0     C30694   2.481   0.834  -0.060  0.0082 -0.0355  0.1104
  991MOL0     C30695   2.378   0.814   0.050 -0.1895 -0.0717  0.4531
  991MOL0     C30696   2.268   0.706   0.016  0.7079 -0.7120 -0.1756
  991MOL0     N30697   2.133   0.740   0.067 -0.7307 -0.5065  0.0175
  991MOL0     C30698   2.062   0.843   0.022  0.2908 -0.3786 -0.9227
  991MOL0     C30699   1.955   0.853   0.105 -1.2318  0.1298  0.1405
  991MOL0     C30700   1.851   0.964   0.099 -0.0030 -0.4406 -1.1532
  991MOL0     C30701   1.710   0.919   0.062 -0.9667 -0.5911 -0.1145
  991MOL0     C30702   1.721   0.845  -0.075  0.1663 -0.2983  0.3257
  991MOL0     C30703   1.587   0.797  -0.129 -0.8065  0.3429  0.2679
  991MOL0     O30704   1.515   0.719  -0.039  0.0547 -0.5518 -0.6782
  991MOL0     C30705   1.561   0.594  -0.008 -0.5063 -0.6642 -0.0340
  991MOL0     C30706   1.590   0.556   0.128 -0.9275 -1.8039 -0.5351
  991MOL0     C30707   1.638   0.432   0.164 -1.0282  0.3151  0.2516
  991MOL0     C30708   1.669   0.340   0.063 -0.5553  0.6524 -0.9546
  991MOL0     C30709   1.743   0.215   0.089  0.2225  0.6947 -0.2055
  991MOL0     O30710   1.799   0.158  -0.024  0.5841 -0.3460  0.3176
  991MOL0     C30711   1.848   0.033   0.001 -0.1532 -0.3904  0.2828
  991MOL0     C30712   1.772  -0.073  -0.045 -0.0077 -0.5904  0.4635
  991MOL0     C30713   1.817  -0.203  -0.040  0.4336 -0.5032 -0.4237
  991MOL0     C30714   1.936  -0.233   0.036  0.5842  0.5536 -0.3523
  991MOL0     O30715   1.988  -0.358   0.048  0.9582 -0.8968  0.8499
  991MOL0     C30716   1.885  -0.462   0.059  0.4966  0.7564 -0.4947
  991MOL0     C30717   1.937  -0.603   0.117  0.5078 -0.9332  0.3543
  991MOL0     C30718   1.963  -0.579   0.279 -0.5631  0.4265  0.4750
  991MOL0     C30719   2.045  -0.678   0.363 -0.0767  0.3620  0.2522
  991MOL0     C30720   2.091  -0.608   0.491 -0.5532  0.2361 -0.2651
  991MOL0     C30721   1.985  -0.567   0.590 -0.4498 -0.1290 -0.5307
  991MOL0     C30722   2.058  -0.507   0.723  0.8546  0.4382 -0.7239
  991MOL0     C30723   1.964  -0.511   0.842 -0.4267  0.0471  1.4435
  991MOL0    Cl30724   1.892  -0.676   0.873  0.1120  0.0360 -0.4087
  991MOL0     C30725   2.014  -0.121   0.080  0.7285 -0.6155 -0.2128
  991MOL0     C30726   1.973   0.011   0.067  0.0089  0.5188 -0.3359
  991MOL0     O30727   1.738   0.162   0.199 -0.0927 -0.2859  0.0023
  991MOL0     C30728   1.628   0.375  -0.069 -0.8889  0.6089 -0.4675
  991MOL0     C30729   1.575   0.497  -0.103  0.0362 -0.1938  0.0598
  991MOL0     N30730   1.971   0.754   0.198 -0.0577  1.1164 -0.1786
  991MOL0     N30731   2.071   0.678   0.173  0.2355  0.2614 -0.2057
  991MOL0     C30732   3.195   0.420   0.210 -1.1609  0.3561 -0.2969
  991MOL0     C30733   3.315   0.435   0.285  0.1749  0.0155  0.2296
  991MOL0     C30734   3.583   0.505   0.658  0.8125  1.0586  0.1289
  991MOL0     C30735   3.696   0.447   0.589  0.3534 -0.1911 -0.4704
  991MOL0     C30736   3.812   0.404   0.660 -0.3653 -0.5229 -0.1521
  991MOL0     C30737   3.806   0.432   0.793  1.0410  0.5150  0.1329
  991MOL0     O30738   3.937   0.407   0.842  0.0510 -0.0856 -0.2736
  991MOL0     C30739   3.957   0.420   0.980 -0.7890  0.4752 -0.6538
  991MOL0     C30740   4.106   0.396   1.005 -0.2985  0.3116  0.1004
  991MOL0     C30741   4.140   0.449   1.151 -0.4903 -1.3424  0.0217
  991MOL0     C30742   4.270   0.398   1.196 -0.3094 -0.1426  0.4249
  991MOL0     C30743   4.379   0.416   1.099 -0.1453 -0.2116 -0.6505
  991MOL0     C30744   4.467   0.431   1.021  0.3267  0.7152  0.1800
  991MOL0     C30745   3.697   0.479   0.862  0.7279  1.0011 -0.6100
  991MOL0     C30746   3.579   0.511   0.801 -0.5148  0.2216 -0.4296
  991MOL0     H30747   3.216   0.694   0.480  0.0812  0.5807 -0.1869
  991MOL0     H30748   3.023   0.680   0.353  0.8807 -0.5052  1.2077
  991MOL0     H30749   2.908   0.382  -0.000  1.8334  0.0335 -0.3295
  991MOL0     H30750   3.043   0.495  -0.030  0.6491  1.9382  2.5061
  991MOL0     H30751   2.911   0.698   0.012  2.4186 -2.0503 -0.5696
  991MOL0     H30752   2.792   0.604   0.098  2.1644 -1.5107  2.0772
  991MOL0     H30753   2.713   0.499  -0.115  0.2339  0.0304  0.9925
  991MOL0     H30754   2.855   0.579  -0.205  1.2115  1.9832 -0.4750
  991MOL0     H30755   2.756   0.788  -0.145  0.6548 -1.1880  0.9709
  991MOL0     H30756   2.658   0.709  -0.269  0.3824  2.2655  0.1395
  991MOL0     H30757   2.599   0.677   0.027 -2.0413 -0.1354  0.3876
  991MOL0     H30758   2.494   0.626  -0.101  0.7713 -0.5781 -1.3864
  991MOL0     H30759   2.429   0.866  -0.151 -3.1668  0.2542  1.8685
  991MOL0     H30760   2.541   0.919  -0.028  0.2717  0.9578 -2.7842
  991MOL0     H30761   2.434   0.778   0.137  0.5610 -1.1839 -0.4484
  991MOL0     H30762   2.335   0.911   0.074 -1.4728 -0.6928  0.7289
  991MOL0     H30763   2.300   0.618   0.072 -1.6119  0.9094  4.2265
  991MOL0     H30764   2.269   0.694  -0.092 -2.4358  1.4685 -0.5910
  991MOL0     H30765   2.089   0.906  -0.062 -1.1221 -0.7211 -1.6778
  991MOL0     H30766   1.888   1.050   0.042  2.0007  2.1308  3.4972
  991MOL0     H30767   1.856   1.023   0.191 -1.0226  0.4992 -1.6635
  991MOL0     H30768   1.646   1.007   0.070 -0.9780 -0.5883 -0.2329
  991MOL0     H30769   1.670   0.841   0.127 -3.5528 -0.0559 -0.9689
  991MOL0     H30770   1.767   0.907  -0.151  0.0161  1.0604  1.3095
  991MOL0     H30771   1.790   0.760  -0.068  0.3716 -0.0316  1.9787
  991MOL0     H30772   1.620   0.728  -0.208  0.8063 -0.2562  1.4072
  991MOL0     H30773   1.531   0.883  -0.166  2.7882  1.7787 -2.4660
  991MOL0     H30774   1.566   0.627   0.207  2.8694  0.0501 -0.8182
  991MOL0     H30775   1.657   0.399   0.266 -2.7681 -1.4480  0.0805
  991MOL0     H30776   1.673  -0.061  -0.088  0.1350  0.3695  0.3690
  991MOL0     H30777   1.755  -0.277  -0.090 -0.2832  0.9398 -1.7779
  991MOL0     H30778   1.842  -0.494  -0.036 -0.2818 -1.6633  0.5915
  991MOL0     H30779   1.799  -0.435   0.121  1.0459 -3.0479  2.2781
  991MOL0     H30780   2.032  -0.629   0.069  0.0825 -0.3729 -0.8083
  991MOL0     H30781   1.854  -0.671   0.094  2.8191 -3.7194 -0.3984
  991MOL0     H30782   1.865  -0.571   0.326 -1.5196 -2.2473 -0.8270
  991MOL0     H30783   2.013  -0.482   0.286 -0.2450  0.2081  1.3350
  991MOL0     H30784   1.992  -0.772   0.384  0.3296 -0.1894 -1.1211
  991MOL0     H30785   2.127  -0.715   0.301 -0.1183  1.6671 -0.6160
  991MOL0     H30786   2.133  -0.510   0.464 -0.6818  1.3787  3.2182
  991MOL0     H30787   2.162  -0.676   0.539 -2.0631 -0.2271  1.4076
  991MOL0     H30788   1.916  -0.645   0.623 -0.0442  0.4065  1.8185
  991MOL0     H30789   1.931  -0.483   0.545 -0.9254  0.8910  1.7952
  991MOL0     H30790   2.139  -0.580   0.738  1.7776  1.6277  0.2841
  991MOL0     H30791   2.099  -0.407   0.711  2.1906 -0.2749 -2.6164
  991MOL0     H30792   1.878  -0.448   0.817 -0.4178 -0.8134 -1.0544
  991MOL0     H30793   2.018  -0.477   0.931  2.3777 -0.5459  0.0787
  991MOL0     H30794   2.109  -0.147   0.124  1.2487  1.7091  0.1821
  991MOL0     H30795   2.035   0.087   0.113 -0.0468 -0.5243  1.5367
  991MOL0     H30796   1.634   0.294  -0.142 -1.7265 -0.9143  1.0647
  991MOL0     H30797   1.531   0.524  -0.198  0.5482  0.2635 -0.0516
  991MOL0     H30798   3.170   0.341   0.140  1.0468 -1.5386  0.9277
  991MOL0     H30799   3.400   0.374   0.255  0.3740  1.0552 -1.4773
  991MOL0     H30800   3.713   0.432   0.483 -1.8136 -0.3678 -0.8430
  991MOL0     H30801   3.903   0.365   0.614 -1.7337 -0.6623 -3.0077
  991MOL0     H30802   3.899   0.342   1.030  1.7078 -0.2539  1.3346
  991MOL0     H30803   3.933   0.517   1.024  1.5405  3.4221 -5.1118
  991MOL0     H30804   4.120   0.288   1.011 -2.0337  0.0731  0.3412
  991MOL0     H30805   4.168   0.450   0.932 -2.3766  0.1659 -1.8624
  991MOL0     H30806   4.076   0.414   1.232 -0.0616 -1.3900  0.3453
  991MOL0     H30807   4.132   0.558   1.152  1.4883 -1.1575  0.4661
  991MOL0     H30808   4.291   0.462   1.283  1.1209  1.8561 -1.2952
  991MOL0     H30809   4.271   0.295   1.232  0.2704  0.1855  1.3980
  991MOL0     H30810   4.556   0.418   0.962  0.1848  3.3797 -0.7281
  991MOL0     H30811   3.700   0.488   0.971  0.3938  1.0123 -0.6033
  991MOL0     H30812   3.491   0.545   0.856  0.3320 -3.0360  3.3995
  992MOL0     O30813  10.268  10.185   7.297  0.9685 -0.3687 -0.1331
  992MOL0     C30814  10.266  10.070   7.252 -0.3236  0.8945 -0.3924
  992MOL0     O30815  10.372  10.007   7.199 -0.1587 -0.4689 -0.1773
  992MOL0     C30816  10.508  10.050   7.184 -1.5087 -0.2506  0.6513
  992MOL0     C30817  10.571  10.140   7.272 -0.0740 -0.2348 -0.3790
  992MOL0     C30818  10.707  10.167   7.258  0.4490 -0.6575 -1.0467
  992MOL0     C30819  10.788  10.101   7.169 -0.9194  0.1166 -0.0962
  992MOL0     O30820  10.931  10.103   7.174  0.0277 -0.3356  0.9702
  992MOL0     C30821  10.994  10.089   7.301  0.1626 -0.3632 -0.4189
  992MOL0     C30822  10.984   9.943   7.357 -0.0274  0.1217  0.8367
  992MOL0     C30823  11.041   9.937   7.498  0.1087  0.1981  0.6007
  992MOL0     C30824  11.017   9.795   7.564 -1.2272  0.2302  0.3177
  992MOL0     C30825  11.093   9.778   7.694  0.1197  0.3320  0.7442
  992MOL0     C30826  11.083   9.903   7.784  0.0082  0.9836 -0.2726
  992MOL0     C30827  11.181   9.919   7.905 -0.0709 -0.8499 -0.4372
  992MOL0     C30828  11.323   9.924   7.853  0.5574 -0.2300 -0.4489
  992MOL0     N30829  11.388   9.791   7.847 -0.5624  0.2515 -0.0253
  992MOL0     C30830  11.523   9.768   7.820  0.5600 -0.6167  1.3018
  992MOL0     C30831  11.540   9.633   7.824 -0.1953  0.0090 -0.2753
  992MOL0     C30832  11.675   9.558   7.810 -0.1348 -0.0458 -0.5816
  992MOL0     C30833  11.686   9.461   7.684 -0.1010  0.3176  0.4491
  992MOL0     C30834  11.806   9.499   7.593  0.6468 -0.5674 -0.3071
  992MOL0     C30835  11.826   9.423   7.468 -0.6908  0.0364  0.5900
  992MOL0     O30836  11.943   9.475   7.405 -0.4858 -0.1990 -0.1909
  992MOL0     C30837  12.024   9.400   7.323  0.5418 -0.8816  0.3003
  992MOL0     C30838  12.025   9.269   7.313 -0.2042 -0.2554 -0.9550
  992MOL0     C30839  12.096   9.204   7.209 -0.3225  0.4797 -0.0353
  992MOL0     C30840  12.173   9.274   7.119 -0.1525  0.3687  0.0266
  992MOL0     C30841  12.253   9.190   7.025 -0.3275 -0.7065  0.0573
  992MOL0     O30842  12.249   9.055   7.049  0.2959 -0.8079  0.7224
  992MOL0     C30843  12.302   8.965   6.965 -0.0387 -0.0491  0.4163
  992MOL0     C30844  12.427   8.913   6.979 -0.5627 -0.0330  0.5867
  992MOL0     C30845  12.474   8.825   6.880  0.2156  0.3506  0.5652
  992MOL0     C30846  12.398   8.782   6.771  0.9214  0.0928 -0.3853
  992MOL0     O30847  12.440   8.714   6.659 -0.3323 -0.2067  0.0722
  992MOL0     C30848  12.581   8.716   6.660  0.1262 -0.3797  0.0074
  992MOL0     C30849  12.623   8.654   6.526 -0.3402 -0.6741  0.1284
  992MOL0     C30850  12.772   8.691   6.502 -0.0775 -0.4395 -0.0988
  992MOL0     C30851  12.828   8.661   6.365  0.1584  0.0142  0.6446
  992MOL0     C30852  12.831   8.785   6.269 -0.2207 -1.3925  0.2193
  992MOL0     C30853  12.904   8.754   6.137 -0.2973 -0.0117  0.4451
  992MOL0     C30854  12.912   8.873   6.038  0.9531 -0.9706 -0.4627
  992MOL0     C30855  13.020   8.857   5.936 -0.0533 -0.1807  0.7155
  992MOL0    Cl30856  13.119   9.008   5.924  0.1508  0.3946 -0.2693
  992MOL0     C30857  12.269   8.830   6.769  0.3514  0.5162  0.2520
  992MOL0     C30858  12.220   8.920   6.857  0.0562 -0.1181 -0.2400
  992MOL0     O30859  12.321   9.238   6.935 -0.4177  0.1754 -0.5234
  992MOL0     C30860  12.163   9.407   7.117 -0.0042  0.8068 -0.2499
  992MOL0     C30861  12.095   9.472   7.225 -0.3986 -0.1572 -0.1396
  992MOL0     N30862  11.424   9.574   7.848  0.0301  0.7857  0.0085
  992MOL0     N30863  11.332   9.664   7.851  0.4120 -0.3808  0.6220
  992MOL0     C30864  10.728  10.023   7.075 -0.1231  0.4908  0.2030
  992MOL0     C30865  10.592   9.999   7.077 -0.1233  0.6355 -0.4174
  992MOL0     C30866  10.148   9.986   7.279  0.4596  0.5701 -0.7226
  992MOL0     C30867  10.017  10.040   7.296 -0.9694 -0.1557  0.4028
  992MOL0     C30868   9.910   9.952   7.325 -0.0667 -0.0732  0.1847
  992MOL0     C30869   9.932   9.822   7.348 -1.4237  0.3316  0.4941
  992MOL0     O30870   9.832   9.751   7.408  0.2184  0.4163  0.1484
  992MOL0     C30871   9.809   9.609   7.378 -0.1176  0.4408 -0.3463
  992MOL0     C30872   9.697   9.562   7.480 -0.5158  0.6416  0.1922
  992MOL0     C30873   9.719   9.587   7.630  0.5117 -0.1924 -0.0508
  992MOL0     C30874   9.828   9.501   7.704  0.1440 -0.4256  0.7416
  992MOL0     C30875   9.954   9.579   7.735  0.3569  0.6420  0.2305
  992MOL0     C30876  10.042   9.655   7.762  0.1410 -0.1488 -0.1402
  992MOL0     C30877  10.059   9.764   7.317 -0.4011 -0.6835  0.4556
  992MOL0     C30878  10.163   9.847   7.282  0.3330  1.4338  0.1330
  992MOL0     H30879  10.517  10.196   7.348  1.4662  3.0638 -1.4906
  992MOL0     H30880  10.743  10.240   7.330 -1.3015 -0.6828 -0.0998
  992MOL0     H30881  10.946  10.160   7.369  0.8742  1.8493 -2.0927
  992MOL0     H30882  11.098  10.111   7.274  0.2036  0.2327  0.1766
  992MOL0     H30883  11.041   9.875   7.293  1.5887 -0.1825  2.5352
  992MOL0     H30884  10.879   9.913   7.351  0.2472 -0.6108 -1.3493
  992MOL0     H30885  11.003  10.020   7.558  0.5367  0.9999 -0.2052
  992MOL0     H30886  11.150   9.947   7.490  0.0890 -0.9068 -3.3597
  992MOL0     H30887  10.910   9.779   7.585 -1.3148 -2.3166 -1.6049
  992MOL0     H30888  11.042   9.717   7.493 -1.1861 -0.7005  1.3295
  992MOL0     H30889  11.198   9.771   7.665  0.1330 -2.7614  1.2648
  992MOL0     H30890  11.074   9.681   7.740  2.1134  0.6838  2.4890
  992MOL0     H30891  10.976   9.912   7.805 -0.3194 -2.6879  0.2999
  992MOL0     H30892  11.104   9.996   7.731 -2.4531  1.9201  0.2468
  992MOL0     H30893  11.155  10.015   7.951 -0.6464 -0.8035 -0.8476
  992MOL0     H30894  11.169   9.840   7.980  4.6546 -1.5889 -0.1785
  992MOL0     H30895  11.389   9.992   7.908  0.9057 -0.7541 -0.2088
  992MOL0     H30896  11.328   9.964   7.751 -0.6448  0.1126 -0.3913
  992MOL0     H30897  11.602   9.838   7.796 -0.9596  0.1095 -2.2530
  992MOL0     H30898  11.694   9.507   7.905 -0.7299  1.9287  0.6712
  992MOL0     H30899  11.757   9.630   7.811 -1.5881  1.6878  1.4600
  992MOL0     H30900  11.590   9.472   7.631  1.1127  4.5578 -1.2383
  992MOL0     H30901  11.713   9.359   7.714  0.2734 -0.4512 -2.2260
  992MOL0     H30902  11.789   9.603   7.564 -0.2942 -1.1812 -2.1663
  992MOL0     H30903  11.893   9.490   7.657  0.7982  1.0401 -0.2543
  992MOL0     H30904  11.753   9.429   7.386  2.8094 -0.5255 -2.8609
  992MOL0     H30905  11.828   9.319   7.503 -1.2074  0.5501  2.2268
  992MOL0     H30906  11.978   9.202   7.383  0.1453  2.5664  2.2241
  992MOL0     H30907  12.102   9.095   7.213  1.0091  0.5012 -0.8468
  992MOL0     H30908  12.490   8.933   7.065  0.4045  0.2968 -0.1706
  992MOL0     H30909  12.575   8.789   6.890  0.6283  0.7383 -1.6061
  992MOL0     H30910  12.619   8.645   6.734 -1.6574 -0.5957  0.7857
  992MOL0     H30911  12.630   8.814   6.666 -1.9846  0.8796 -1.8146
  992MOL0     H30912  12.575   8.698   6.438  2.6455  0.6710 -0.9573
  992MOL0     H30913  12.615   8.545   6.520  0.0297 -0.6348 -1.6294
  992MOL0     H30914  12.831   8.642   6.580 -1.3107  1.8054  2.3622
  992MOL0     H30915  12.784   8.797   6.522 -1.6959 -0.5793  1.9868
  992MOL0     H30916  12.928   8.618   6.373  0.2675  0.1198 -0.1441
  992MOL0     H30917  12.772   8.578   6.322  1.2694  0.1766 -1.2287
  992MOL0     H30918  12.875   8.873   6.317 -1.6147  0.6826 -2.0721
  992MOL0     H30919  12.729   8.809   6.238 -0.3879 -2.7836 -0.3692
  992MOL0     H30920  12.866   8.662   6.092  4.5641 -0.3774 -3.8086
  992MOL0     H30921  13.011   8.741   6.158 -0.0910  1.5369  0.4738
  992MOL0     H30922  12.820   8.888   5.980  0.0715 -2.4953  0.4690
  992MOL0     H30923  12.919   8.966   6.095 -2.7690 -1.8996  1.8826
  992MOL0     H30924  12.974   8.830   5.841  1.9829 -0.1394 -0.3296
  992MOL0     H30925  13.077   8.770   5.968  1.3894  0.4308 -0.1035
  992MOL0     H30926  12.207   8.802   6.685  1.0622  0.0119 -0.1145
  992MOL0     H30927  12.121   8.963   6.862 -0.0271 -0.4373  1.6134
  992MOL0     H30928  12.218   9.472   7.050 -1.8498  1.6583 -0.9863
  992MOL0     H30929  12.105   9.580   7.219 -1.6251 -0.0172 -0.0443
  992MOL0     H30930  10.789   9.966   7.006  1.3480  0.4897  1.4364
  992MOL0     H30931  10.536   9.933   7.012  2.4316 -0.0549 -2.0288
  992MOL0     H30932  10.011  10.148   7.290  0.1875 -0.1058 -0.1609
  992MOL0     H30933   9.810   9.992   7.340 -0.6410 -1.8679  1.3661
  992MOL0     H30934   9.895   9.545   7.400 -0.1890  0.2559 -0.6026
  992MOL0     H30935   9.772   9.587   7.278  0.2423 -3.3707  0.1926
  992MOL0     H30936   9.600   9.604   7.453 -0.7181 -0.9308 -1.7581
  992MOL0     H30937   9.683   9.455   7.460  0.9335  0.5942 -0.7053
  992MOL0     H30938   9.634   9.569   7.696  1.3609 -1.6112  0.6851
  992MOL0     H30939   9.754   9.691   7.636  1.2885 -0.3138 -1.7673
  992MOL0     H30940   9.782   9.466   7.796  2.4239 -3.0178  1.0164
  992MOL0     H30941   9.853   9.409   7.649 -0.1798  0.3133 -0.7001
  992MOL0     H30942  10.125   9.723   7.765  1.8233 -2.0686 -0.7478
  992MOL0     H30943  10.062   9.656   7.308 -0.2659 -0.5105 -2.6633
  992MOL0     H30944  10.265   9.810   7.273  0.3203  1.3004  0.5455
  993MOL0     O30945   2.713   2.426   6.434  0.1299  0.1370  0.2999
  993MOL0     C30946   2.763   2.532   6.477  0.4076  1.2815  0.4470
  993MOL0     O30947   2.829   2.554   6.594 -0.3280  0.0343 -0.7432
  993MOL0     C30948   2.839   2.447   6.686  0.5775  0.0089 -0.1351
  993MOL0     C30949   2.906   2.329   6.652  0.7101  0.8928 -0.1030
  993MOL0     C30950   2.918   2.228   6.745  0.4397 -0.1724 -0.8144
  993MOL0     C30951   2.898   2.258   6.881  0.9425  0.1485 -0.5387
  993MOL0     O30952   2.932   2.166   6.980  0.0460 -0.1221 -0.3190
  993MOL0     C30953   2.842   2.051   6.999 -0.2463 -0.3651 -0.0399
  993MOL0     C30954   2.853   2.002   7.143 -0.2647  0.0879  0.0903
  993MOL0     C30955   2.776   2.102   7.234 -0.9558  0.4190  0.1860
  993MOL0     C30956   2.786   2.066   7.382  0.5532  0.2470  0.9889
  993MOL0     C30957   2.796   2.179   7.486  0.7018  0.1159  0.1681
  993MOL0     C30958   2.934   2.250   7.478  0.2741  0.6337 -0.8320
  993MOL0     C30959   3.000   2.234   7.616  0.2972  0.1244 -0.4280
  993MOL0     C30960   2.937   2.327   7.718  0.0151  0.5674 -0.4574
  993MOL0     N30961   3.022   2.325   7.834 -0.1878  0.3589  0.2710
  993MOL0     C30962   3.128   2.401   7.858 -0.2136 -0.0853  0.2282
  993MOL0     C30963   3.179   2.354   7.974 -0.1890  0.2024  0.8532
  993MOL0     C30964   3.292   2.411   8.056 -0.5962  0.4592 -0.4655
  993MOL0     C30965   3.427   2.371   7.996 -0.7852 -0.2475  0.2601
  993MOL0     C30966   3.549   2.454   8.048  0.9101  0.3855 -0.2307
  993MOL0     C30967   3.681   2.417   7.970 -0.4950  0.1062 -0.2640
  993MOL0     O30968   3.723   2.279   7.995 -0.6541  0.2119  1.4300
  993MOL0     C30969   3.830   2.258   8.070 -0.0472  1.0628 -0.1372
  993MOL0     C30970   3.832   2.161   8.172  0.5595  0.0675  0.2267
  993MOL0     C30971   3.935   2.139   8.260 -0.3319 -0.1586 -0.3706
  993MOL0     C30972   4.053   2.210   8.251 -0.0713 -0.9661 -0.1987
  993MOL0     C30973   4.167   2.193   8.347  0.2133  0.0205 -0.3367
  993MOL0     O30974   4.256   2.294   8.358  0.3685 -0.0315 -0.0944
  993MOL0     C30975   4.370   2.294   8.436 -0.0193  1.0408  0.3730
  993MOL0     C30976   4.366   2.275   8.575 -0.5462 -0.2297 -0.5650
  993MOL0     C30977   4.484   2.262   8.650  1.4946 -0.2241  0.7728
  993MOL0     C30978   4.610   2.273   8.584 -0.1721  0.6624  0.6418
  993MOL0     O30979   4.727   2.273   8.657  0.0540  0.3207  0.0528
  993MOL0     C30980   4.847   2.230   8.586  0.1855  0.7765 -0.0924
  993MOL0     C30981   4.966   2.237   8.690  0.4595  0.4454  0.2398
  993MOL0     C30982   4.960   2.122   8.782  0.1422  0.2282 -0.5300
  993MOL0     C30983   4.949   1.973   8.729 -0.5622  0.9469  0.4796
  993MOL0     C30984   5.072   1.936   8.650  0.4738  0.7068 -0.3078
  993MOL0     C30985   5.107   1.787   8.663  0.3758  0.4182 -0.4901
  993MOL0     C30986   5.262   1.763   8.634  0.5069  0.6007  0.3299
  993MOL0     C30987   5.290   1.616   8.650 -0.3449  0.4129 -0.1608
  993MOL0    Cl30988   5.193   1.536   8.517 -0.3633  0.5041  0.0989
  993MOL0     C30989   4.603   2.310   8.440  0.2839 -0.1730  0.4561
  993MOL0     C30990   4.482   2.324   8.374 -0.5801  0.6981  0.4790
  993MOL0     O30991   4.163   2.091   8.412 -0.3232 -0.0466 -0.0835
  993MOL0     C30992   4.058   2.307   8.144  0.2043 -0.8852 -0.6086
  993MOL0     C30993   3.955   2.319   8.049 -0.6316  0.1021  0.0325
  993MOL0     N30994   3.110   2.248   8.008  0.2487  0.4550 -0.1776
  993MOL0     N30995   3.002   2.238   7.940  0.4872  0.1882  0.6688
  993MOL0     C30996   2.830   2.373   6.921 -0.5256 -1.3625 -0.4606
  993MOL0     C30997   2.797   2.461   6.818  0.2202 -0.4531 -0.3793
  993MOL0     C30998   2.722   2.656   6.401 -0.9458  0.4817 -0.2474
  993MOL0     C30999   2.703   2.778   6.478 -0.2602 -1.2903  0.1005
  993MOL0     C31000   2.645   2.892   6.418  0.7031  0.3768 -0.5923
  993MOL0     C31001   2.603   2.879   6.290  0.6315  0.3054  0.8051
  993MOL0     O31002   2.559   2.992   6.220  0.2984 -0.8737 -0.1148
  993MOL0     C31003   2.429   3.038   6.264  0.7695 -0.4056 -0.0308
  993MOL0     C31004   2.377   3.161   6.193 -0.3008 -1.0901 -0.5688
  993MOL0     C31005   2.459   3.283   6.240 -0.1875  0.2722  0.2497
  993MOL0     C31006   2.429   3.404   6.150  0.0891 -0.4587 -0.3691
  993MOL0     C31007   2.514   3.517   6.198  0.8712  0.5154  0.3032
  993MOL0     C31008   2.592   3.605   6.211 -0.2198  0.1663 -0.4467
  993MOL0     C31009   2.623   2.766   6.210 -0.4207 -0.3689  0.0902
  993MOL0     C31010   2.681   2.648   6.269 -1.3335  0.1995 -0.4762
  993MOL0     H31011   2.940   2.303   6.553  2.4724  0.4149  0.5862
  993MOL0     H31012   2.957   2.131   6.718 -2.7318 -1.2398 -1.9629
  993MOL0     H31013   2.894   1.976   6.939  2.3054  3.3970 -3.0302
  993MOL0     H31014   2.740   2.068   6.964 -0.1806  1.3815  0.4941
  993MOL0     H31015   2.961   1.998   7.163 -0.2861 -1.8934  0.0215
  993MOL0     H31016   2.817   1.899   7.144  2.8766 -1.2616 -3.0562
  993MOL0     H31017   2.670   2.111   7.209 -0.9165 -0.2807 -0.2657
  993MOL0     H31018   2.818   2.202   7.225 -0.6502  0.6720  3.3370
  993MOL0     H31019   2.695   2.010   7.406  1.5560 -0.1184  4.3318
  993MOL0     H31020   2.867   1.992   7.387 -0.7360 -1.4982 -1.5766
  993MOL0     H31021   2.789   2.132   7.585 -1.3270 -0.6175 -0.2803
  993MOL0     H31022   2.713   2.250   7.483  0.1421 -0.4459  1.5099
  993MOL0     H31023   2.910   2.352   7.447 -3.5163  0.2653  0.3659
  993MOL0     H31024   3.000   2.199   7.408  0.4917  3.2076 -2.6468
  993MOL0     H31025   2.994   2.129   7.646 -1.2427 -0.0983 -1.4067
  993MOL0     H31026   3.101   2.273   7.604 -0.2063  1.3103 -0.9568
  993MOL0     H31027   2.843   2.275   7.738  1.4811 -2.2005 -0.2089
  993MOL0     H31028   2.930   2.429   7.679  0.4594  0.0734 -1.8538
  993MOL0     H31029   3.164   2.487   7.802 -0.7121  0.8054  1.2627
  993MOL0     H31030   3.291   2.365   8.156  0.0473  2.0877  0.3206
  993MOL0     H31031   3.277   2.519   8.057  0.1100  0.7121 -4.2180
  993MOL0     H31032   3.427   2.394   7.889  1.0514  0.0953  0.2911
  993MOL0     H31033   3.443   2.263   7.987 -0.9225 -0.3282  0.9144
  993MOL0     H31034   3.527   2.561   8.040 -1.3640 -0.0344 -0.4378
  993MOL0     H31035   3.553   2.446   8.157  1.9786  1.1462 -0.2006
  993MOL0     H31036   3.752   2.492   8.006 -1.6199  0.6945  0.8116
  993MOL0     H31037   3.671   2.436   7.863 -1.4153 -1.7781 -0.5478
  993MOL0     H31038   3.735   2.128   8.208 -0.0931  2.5669  0.9369
  993MOL0     H31039   3.912   2.070   8.341  0.9545  2.0391  2.0029
  993MOL0     H31040   4.276   2.272   8.636 -0.0182 -0.2614  0.2385
  993MOL0     H31041   4.484   2.254   8.758  1.2519  3.2401  1.1302
  993MOL0     H31042   4.873   2.305   8.511  1.1368  0.6237  0.0767
  993MOL0     H31043   4.838   2.135   8.533 -3.5837  1.4646 -1.0210
  993MOL0     H31044   4.955   2.330   8.746 -0.8122 -1.3231  3.1081
  993MOL0     H31045   5.063   2.234   8.639  0.8152 -0.1664  0.9350
  993MOL0     H31046   4.878   2.138   8.853 -0.9215  0.5613 -1.7964
  993MOL0     H31047   5.053   2.127   8.839  1.0110  4.6036 -1.9890
  993MOL0     H31048   4.930   1.913   8.818 -1.3510  2.2371  1.2031
  993MOL0     H31049   4.862   1.957   8.664 -0.5649 -0.5445  0.8271
  993MOL0     H31050   5.164   1.991   8.671  1.2179  0.6167 -2.9204
  993MOL0     H31051   5.046   1.973   8.550 -1.1276  1.2951  0.2995
  993MOL0     H31052   5.038   1.722   8.608  0.2022 -3.1516  3.4239
  993MOL0     H31053   5.085   1.764   8.767  0.7948  0.8255 -0.3091
  993MOL0     H31054   5.289   1.797   8.534 -0.8400  0.2308 -0.1848
  993MOL0     H31055   5.319   1.830   8.699 -0.5435 -0.3528  2.3518
  993MOL0     H31056   5.257   1.585   8.749  0.6315 -0.8196 -0.1978
  993MOL0     H31057   5.397   1.595   8.664 -0.3918 -2.0199 -2.7149
  993MOL0     H31058   4.693   2.325   8.382 -0.3881  1.7715 -0.1720
  993MOL0     H31059   4.470   2.343   8.268 -2.3084  0.6406  0.6281
  993MOL0     H31060   4.141   2.376   8.133  0.0814 -0.5745  0.3001
  993MOL0     H31061   3.971   2.388   7.967 -0.1162  3.6391  2.8634
  993MOL0     H31062   2.816   2.404   7.024  0.7151 -0.5911 -0.5074
  993MOL0     H31063   2.766   2.561   6.846  0.3565  0.1227 -2.1428
  993MOL0     H31064   2.737   2.785   6.581  1.4932 -1.1486 -0.4532
  993MOL0     H31065   2.634   2.984   6.475 -0.3536  1.0519 -1.8433
  993MOL0     H31066   2.431   3.064   6.370  0.8335  0.2414 -0.1854
  993MOL0     H31067   2.357   2.958   6.246  2.7611 -1.9205 -1.7462
  993MOL0     H31068   2.380   3.141   6.085  0.7121 -1.6115 -0.4588
  993MOL0     H31069   2.275   3.187   6.223  0.0138 -0.7923  0.2763
  993MOL0     H31070   2.566   3.263   6.229 -0.9064 -3.6330 -1.6602
  993MOL0     H31071   2.435   3.308   6.344  0.9692 -0.3925  0.6917
  993MOL0     H31072   2.459   3.372   6.050  1.7461 -0.4321  0.0819
  993MOL0     H31073   2.326   3.441   6.145  0.0983  1.2099  5.0642
  993MOL0     H31074   2.648   3.696   6.213 -0.3779  0.2578 -0.2457
  993MOL0     H31075   2.589   2.764   6.107 -1.8268 -1.2979  0.5398
  993MOL0     H31076   2.685   2.558   6.208 -2.2520 -1.6556  2.0593
  994MOL0     O31077   9.117  10.624   4.069 -0.3138 -0.2937 -0.1024
  994MOL0     C31078   9.084  10.633   3.951 -0.9398  0.1108  0.5682
  994MOL0     O31079   8.962  10.638   3.896 -0.2345 -0.5387  0.1932
  994MOL0     C31080   8.839  10.641   3.963 -0.8740  0.8174 -0.3627
  994MOL0     C31081   8.722  10.650   3.874  0.7962 -0.4927 -0.6356
  994MOL0     C31082   8.594  10.642   3.937  0.6736  0.3464  0.3574
  994MOL0     C31083   8.573  10.611   4.070 -0.3202  1.1444 -0.8171
  994MOL0     O31084   8.448  10.600   4.119 -0.0475 -0.7952  0.6109
  994MOL0     C31085   8.339  10.524   4.057  0.7114  0.4102 -0.2079
  994MOL0     C31086   8.199  10.585   4.081  0.1873 -0.1473  0.8248
  994MOL0     C31087   8.184  10.602   4.233 -0.0452  0.1846  0.1509
  994MOL0     C31088   8.069  10.692   4.268  0.4397 -0.4060 -0.2648
  994MOL0     C31089   7.964  10.609   4.350  0.3129  0.3289  1.2475
  994MOL0     C31090   7.898  10.502   4.262  0.7120  0.8005  1.0801
  994MOL0     C31091   7.825  10.549   4.126  0.8600  0.7953 -0.7190
  994MOL0     C31092   7.715  10.444   4.081  0.4722  0.6143 -0.7389
  994MOL0     N31093   7.784  10.320   4.064 -0.1311  0.7402  0.1863
  994MOL0     C31094   7.894  10.296   3.991  0.7555 -0.1689 -0.4260
  994MOL0     C31095   7.932  10.170   4.009 -0.5205  0.6916 -0.6151
  994MOL0     C31096   8.047  10.102   3.933  0.4751 -0.5739  0.1435
  994MOL0     C31097   8.173  10.165   3.985  0.2795  0.5527 -0.3882
  994MOL0     C31098   8.294  10.087   3.932  0.2107 -0.4763  0.6134
  994MOL0     C31099   8.420  10.182   3.953  0.3378 -0.0244 -0.1073
  994MOL0     O31100   8.431  10.276   3.847 -0.2265 -0.7514 -0.1361
  994MOL0     C31101   8.549  10.305   3.788 -0.8052  0.5051 -0.4976
  994MOL0     C31102   8.548  10.378   3.665  1.1461 -0.5917  1.0198
  994MOL0     C31103   8.664  10.405   3.595  0.1624  0.6792 -0.3789
  994MOL0     C31104   8.788  10.360   3.652 -0.0287  0.0510  0.3709
  994MOL0     C31105   8.906  10.385   3.572  0.7121  0.3351 -0.9341
  994MOL0     O31106   8.878  10.421   3.436  0.0939  1.0287 -0.1341
  994MOL0     C31107   8.973  10.446   3.336 -0.1265  0.0916  0.2019
  994MOL0     C31108   9.104  10.390   3.344 -0.3830  0.2996  0.1239
  994MOL0     C31109   9.204  10.437   3.264 -0.4728  0.1657  0.3240
  994MOL0     C31110   9.184  10.512   3.150  0.1727 -0.8697 -1.0579
  994MOL0     O31111   9.285  10.550   3.060  0.0271 -0.4319 -1.0191
  994MOL0     C31112   9.413  10.486   3.057 -0.4975 -0.7529 -0.0158
  994MOL0     C31113   9.508  10.557   2.964  0.2900 -0.0677  0.0589
  994MOL0     C31114   9.479  10.526   2.820  1.2707  0.2108 -0.0526
  994MOL0     C31115   9.595  10.579   2.725  0.5583 -0.2520 -1.2370
  994MOL0     C31116   9.542  10.541   2.579 -0.4055 -0.8236 -0.5774
  994MOL0     C31117   9.641  10.589   2.467 -0.4716  0.6426  0.9510
  994MOL0     C31118   9.588  10.566   2.320 -0.4662  0.3181  0.1998
  994MOL0     C31119   9.477  10.656   2.283 -0.6154  0.0162  0.0226
  994MOL0    Cl31120   9.467  10.689   2.099  0.2867  0.3133  0.0970
  994MOL0     C31121   9.052  10.557   3.133 -0.0554 -0.3065  0.2645
  994MOL0     C31122   8.952  10.534   3.227  1.2745  0.1138  0.1892
  994MOL0     O31123   9.016  10.362   3.622 -0.1810  0.4234  0.1526
  994MOL0     C31124   8.786  10.300   3.778  0.2815  0.4327 -0.1772
  994MOL0     C31125   8.676  10.268   3.846  0.0354 -0.3352  0.3099
  994MOL0     N31126   7.839  10.107   4.078 -0.1697  0.2930  0.3628
  994MOL0     N31127   7.762  10.198   4.111 -0.3528  0.3134 -0.6126
  994MOL0     C31128   8.688  10.610   4.153 -0.4276 -0.3676 -0.0799
  994MOL0     C31129   8.816  10.612   4.103  0.5786 -0.1655 -0.7792
  994MOL0     C31130   9.200  10.612   3.860  0.3885  1.1064 -0.1382
  994MOL0     C31131   9.175  10.603   3.721 -0.4326 -0.8750  0.1396
  994MOL0     C31132   9.286  10.574   3.640 -0.4804  1.2596 -0.1410
  994MOL0     C31133   9.415  10.558   3.691 -0.0562 -0.0565 -0.9388
  994MOL0     O31134   9.525  10.531   3.615  0.2214 -0.2602  0.5460
  994MOL0     C31135   9.526  10.537   3.470  0.0105  0.2131 -0.2782
  994MOL0     C31136   9.665  10.545   3.412 -0.1985  0.0635  0.5354
  994MOL0     C31137   9.754  10.632   3.495 -0.1310 -0.2860  0.4155
  994MOL0     C31138   9.891  10.581   3.485  0.2694  0.1159 -0.7323
  994MOL0     C31139   9.966  10.663   3.571  0.6900 -0.7798 -0.2878
  994MOL0     C31140  10.019  10.734   3.662 -0.6579 -0.1819  1.4458
  994MOL0     C31141   9.433  10.564   3.829 -0.5681  0.4154  0.6867
  994MOL0     C31142   9.329  10.577   3.911 -0.1410  0.2498  0.0735
  994MOL0     H31143   8.720  10.677   3.769  2.1986  3.4322  0.1822
  994MOL0     H31144   8.504  10.648   3.876  1.5946  0.2395 -1.0366
  994MOL0     H31145   8.335  10.421   4.094  1.1549 -1.1743 -4.0776
  994MOL0     H31146   8.354  10.522   3.949  0.9085  1.4849 -0.2142
  994MOL0     H31147   8.119  10.522   4.042 -0.1551  0.7134  0.0958
  994MOL0     H31148   8.209  10.683   4.032  0.4002 -0.1430  0.8773
  994MOL0     H31149   8.267  10.659   4.276  0.0821 -2.1013  3.3557
  994MOL0     H31150   8.180  10.507   4.287  2.8053  0.1287  0.4518
  994MOL0     H31151   8.095  10.758   4.351  3.5357 -3.0209  1.0802
  994MOL0     H31152   8.036  10.755   4.185  0.6854  1.3277  0.8984
  994MOL0     H31153   7.889  10.668   4.403  1.1401  2.4477  0.1766
  994MOL0     H31154   8.016  10.550   4.426  2.6695 -2.0390 -1.9146
  994MOL0     H31155   7.823  10.460   4.330 -2.1768 -0.1877 -2.4450
  994MOL0     H31156   7.968  10.421   4.242 -2.6164 -1.7742 -1.2109
  994MOL0     H31157   7.773  10.642   4.151 -2.3224  0.4212 -4.8751
  994MOL0     H31158   7.895  10.572   4.045  0.1772  2.3950 -0.9003
  994MOL0     H31159   7.656  10.474   3.994 -5.0084 -1.0780  1.9044
  994MOL0     H31160   7.646  10.423   4.164  0.2117 -1.3134 -1.4026
  994MOL0     H31161   7.944  10.368   3.927  0.7949 -3.0321 -3.9985
  994MOL0     H31162   8.046  10.121   3.825  0.7280 -2.9629 -0.3400
  994MOL0     H31163   8.059   9.996   3.959 -0.5613 -1.2466 -1.9063
  994MOL0     H31164   8.170  10.162   4.094 -1.4090  0.8697 -0.3842
  994MOL0     H31165   8.178  10.269   3.952  2.7323  1.1681  1.6773
  994MOL0     H31166   8.309   9.998   3.993  0.1343 -1.4116 -0.6899
  994MOL0     H31167   8.282  10.068   3.825 -0.6182  1.6676  0.2709
  994MOL0     H31168   8.505  10.114   3.965 -1.8061 -3.1844 -1.3879
  994MOL0     H31169   8.403  10.227   4.051  0.3913 -0.8413  0.2885
  994MOL0     H31170   8.449  10.406   3.631  0.6674 -1.5798  1.5850
  994MOL0     H31171   8.659  10.451   3.497 -3.8046 -0.1114 -0.7136
  994MOL0     H31172   9.123  10.314   3.418 -0.8670 -0.0349 -0.0904
  994MOL0     H31173   9.299  10.396   3.293  0.3131  1.8470  0.2752
  994MOL0     H31174   9.397  10.384   3.023 -1.1220 -0.4690 -0.5944
  994MOL0     H31175   9.459  10.487   3.157 -0.9768  0.6344  0.2151
  994MOL0     H31176   9.612  10.532   2.983  0.8755  1.4634 -0.8748
  994MOL0     H31177   9.506  10.667   2.972 -0.6324  0.0270 -1.1853
  994MOL0     H31178   9.386  10.574   2.787  0.0963 -1.3651  0.8651
  994MOL0     H31179   9.468  10.420   2.795  0.2233  0.8155 -2.4999
  994MOL0     H31180   9.608  10.688   2.733 -3.0151  0.2295 -0.3319
  994MOL0     H31181   9.692  10.545   2.761  2.2873  1.8074 -3.5497
  994MOL0     H31182   9.437  10.567   2.562 -0.1266 -0.4684 -1.8181
  994MOL0     H31183   9.548  10.432   2.581  3.1053 -0.7973 -2.2562
  994MOL0     H31184   9.737  10.538   2.481 -0.9641 -0.0995  1.7884
  994MOL0     H31185   9.671  10.693   2.479  1.3151  0.2375  0.2447
  994MOL0     H31186   9.663  10.589   2.243 -1.2868 -0.0833 -0.7339
  994MOL0     H31187   9.570  10.459   2.308 -1.0549  0.5757 -1.5617
  994MOL0     H31188   9.487  10.757   2.322 -3.3969 -0.2208  1.6273
  994MOL0     H31189   9.387  10.618   2.332  1.1987 -0.5814  3.1750
  994MOL0     H31190   9.038  10.613   3.041  2.2506 -3.0533 -1.9379
  994MOL0     H31191   8.848  10.566   3.221  1.6088  1.5746  1.5590
  994MOL0     H31192   8.878  10.265   3.823 -0.9780 -1.2191  1.2723
  994MOL0     H31193   8.685  10.215   3.940 -0.2335 -3.8855 -1.4773
  994MOL0     H31194   8.694  10.603   4.261 -2.0303 -0.6590  0.0157
  994MOL0     H31195   8.898  10.600   4.173  0.7693  0.1863 -0.9384
  994MOL0     H31196   9.079  10.603   3.671 -0.5430  0.5919  0.3146
  994MOL0     H31197   9.265  10.580   3.534  4.4354  2.1829 -1.2817
  994MOL0     H31198   9.464  10.619   3.434  1.3841  0.4539 -2.2163
  994MOL0     H31199   9.478  10.446   3.432  0.8076  0.5432 -2.1632
  994MOL0     H31200   9.692  10.439   3.413 -1.7903 -0.4127 -1.4151
  994MOL0     H31201   9.652  10.582   3.310  0.2262 -0.1649  0.3987
  994MOL0     H31202   9.725  10.642   3.600  0.3538  1.2039  0.4188
  994MOL0     H31203   9.751  10.734   3.456  1.5361  0.5862  2.3808
  994MOL0     H31204   9.909  10.477   3.516  1.1082 -1.1102 -4.7405
  994MOL0     H31205   9.918  10.585   3.379 -2.3193  0.7751 -1.4533
  994MOL0     H31206  10.065  10.794   3.738 -3.0877 -0.6678  3.4257
  994MOL0     H31207   9.532  10.527   3.856 -1.5186 -3.0467 -0.0966
  994MOL0     H31208   9.353  10.580   4.017  0.0721 -0.4049  0.0454
  995MOL0     O31209   7.854   3.402   9.709  0.7370  0.4873 -0.1186
  995MOL0     C31210   7.762   3.386   9.641  0.8927  0.9923 -0.7769
  995MOL0     O31211   7.717   3.477   9.553  0.3306 -0.0508  0.2376
  995MOL0     C31212   7.772   3.605   9.544  0.3134 -0.5589 -0.4830
  995MOL0     C31213   7.810   3.686   9.647  0.1747 -0.3447  0.8618
  995MOL0     C31214   7.860   3.816   9.623 -0.1050  0.9532  0.0448
  995MOL0     C31215   7.879   3.861   9.493  0.3404 -0.2951 -0.0629
  995MOL0     O31216   7.944   3.978   9.467  0.9443 -0.7500 -0.4737
  995MOL0     C31217   7.944   4.084   9.558  0.7723 -1.1337 -0.1385
  995MOL0     C31218   8.015   4.202   9.499 -0.1243 -0.2766  0.0152
  995MOL0     C31219   7.996   4.320   9.593  0.8602 -0.3020 -0.5941
  995MOL0     C31220   8.035   4.450   9.517  0.3610  0.0254  0.5912
  995MOL0     C31221   7.934   4.499   9.406  0.8209 -0.2295 -0.2415
  995MOL0     C31222   7.801   4.544   9.465  0.0400 -0.6065 -0.6484
  995MOL0     C31223   7.713   4.606   9.363  0.3766  0.7067 -0.3084
  995MOL0     C31224   7.565   4.621   9.401 -0.4791 -0.7230  0.1869
  995MOL0     N31225   7.483   4.493   9.401  0.0132 -0.4605 -0.5888
  995MOL0     C31226   7.349   4.501   9.385  0.2484  0.9746  0.1621
  995MOL0     C31227   7.318   4.367   9.390  0.0269 -0.0909  1.0001
  995MOL0     C31228   7.186   4.295   9.374  1.2816 -0.2495  0.1424
  995MOL0     C31229   7.071   4.376   9.427  1.2119 -0.5555  0.3643
  995MOL0     C31230   6.947   4.303   9.396  0.6902 -0.7043  0.1073
  995MOL0     C31231   6.900   4.300   9.253  0.3106  0.1454 -0.1243
  995MOL0     O31232   6.804   4.192   9.242 -0.1887  0.1456 -0.3287
  995MOL0     C31233   6.784   4.132   9.124 -0.1471 -0.5468  0.1454
  995MOL0     C31234   6.757   4.203   9.011  0.8588  0.2593 -0.6811
  995MOL0     C31235   6.729   4.140   8.887  0.2968  0.8210 -0.1868
  995MOL0     C31236   6.722   3.997   8.881 -0.0689 -0.0100  0.2820
  995MOL0     C31237   6.696   3.931   8.752  0.5051  0.5790 -0.4870
  995MOL0     O31238   6.636   4.012   8.661 -0.6784 -0.0598  0.7327
  995MOL0     C31239   6.640   3.980   8.526 -0.0122 -0.1604 -0.4627
  995MOL0     C31240   6.523   4.005   8.452  0.0550 -0.1474  1.0610
  995MOL0     C31241   6.522   3.970   8.312 -0.0926 -0.6715 -0.1972
  995MOL0     C31242   6.635   3.915   8.254  0.4407  0.3410  0.7248
  995MOL0     O31243   6.644   3.865   8.121 -0.9009 -0.0813 -0.5196
  995MOL0     C31244   6.640   3.964   8.021  0.3454 -1.0902 -0.3053
  995MOL0     C31245   6.612   3.891   7.894 -0.1719  0.0334 -0.3881
  995MOL0     C31246   6.571   3.985   7.772 -0.0666 -0.1668 -0.1204
  995MOL0     C31247   6.681   4.090   7.738  0.2017 -0.4593 -0.8431
  995MOL0     C31248   6.645   4.170   7.606  0.1535  0.2123 -0.1824
  995MOL0     C31249   6.657   4.075   7.483 -0.0918  0.0356 -0.3951
  995MOL0     C31250   6.643   4.162   7.358  0.2253 -0.1552  0.1593
  995MOL0     C31251   6.626   4.077   7.231 -0.1869  0.2566 -0.9214
  995MOL0    Cl31252   6.461   4.012   7.229 -0.6855 -0.4990  0.0115
  995MOL0     C31253   6.751   3.888   8.331 -0.5353  0.7395 -0.4777
  995MOL0     C31254   6.759   3.930   8.465 -0.7088 -0.8243 -0.2291
  995MOL0     O31255   6.715   3.810   8.739  0.4021 -0.3494 -0.2577
  995MOL0     C31256   6.769   3.929   8.998  0.1882  0.0275  0.3610
  995MOL0     C31257   6.791   3.995   9.121 -1.0256  0.0041 -0.5796
  995MOL0     N31258   7.431   4.285   9.391  0.3764 -0.4229 -0.3781
  995MOL0     N31259   7.533   4.365   9.404 -0.3816 -0.3042 -1.0418
  995MOL0     C31260   7.838   3.780   9.388 -0.3362  0.0132 -0.6008
  995MOL0     C31261   7.794   3.651   9.414 -0.6158  0.0380 -0.7923
  995MOL0     C31262   7.709   3.242   9.633 -0.4304  0.0872  0.1985
  995MOL0     C31263   7.781   3.140   9.694 -0.0454  0.6561 -0.4622
  995MOL0     C31264   7.730   3.001   9.702 -0.9081 -0.8892  0.0677
  995MOL0     C31265   7.604   2.972   9.645 -0.6193 -0.1492  0.3514
  995MOL0     O31266   7.562   2.841   9.641 -0.4379 -0.1991  0.5479
  995MOL0     C31267   7.479   2.795   9.750 -0.3256 -0.7702  0.3616
  995MOL0     C31268   7.332   2.843   9.737 -1.2001  0.3285 -0.4408
  995MOL0     C31269   7.243   2.820   9.617  0.2028 -0.2769  0.6871
  995MOL0     C31270   7.224   2.669   9.598  0.5161 -0.1338 -0.1914
  995MOL0     C31271   7.114   2.636   9.491 -0.2143  0.3880 -0.2070
  995MOL0     C31272   7.008   2.619   9.428  0.3857  0.8214  0.2463
  995MOL0     C31273   7.541   3.081   9.573  0.0736 -0.5392 -0.3029
  995MOL0     C31274   7.591   3.208   9.573  0.4397  0.7849 -0.6959
  995MOL0     H31275   7.794   3.635   9.742  3.0787  0.3366  1.8003
  995MOL0     H31276   7.885   3.872   9.712  1.7345  1.2387 -0.6168
  995MOL0     H31277   7.992   4.069   9.655  2.7202  1.1655 -0.6599
  995MOL0     H31278   7.841   4.113   9.576  2.0143  3.0289  1.3668
  995MOL0     H31279   7.969   4.228   9.404  0.1858  0.8683  0.1570
  995MOL0     H31280   8.124   4.194   9.495  0.3350  3.4237  1.2584
  995MOL0     H31281   8.064   4.310   9.679 -0.9987  0.4097  1.0470
  995MOL0     H31282   7.890   4.324   9.622  0.9832 -0.9257 -0.0357
  995MOL0     H31283   8.032   4.541   9.577 -1.6822 -0.4540  1.2950
  995MOL0     H31284   8.136   4.436   9.476  0.1414 -1.2033  0.4197
  995MOL0     H31285   7.922   4.421   9.330 -2.7485  0.1309 -0.1845
  995MOL0     H31286   7.972   4.584   9.349  1.1685 -1.2304 -1.5627
  995MOL0     H31287   7.817   4.609   9.551 -3.9083  0.8561 -0.8101
  995MOL0     H31288   7.759   4.452   9.507  1.4869 -2.0659 -2.2151
  995MOL0     H31289   7.746   4.709   9.355  1.5552  0.4872  1.2973
  995MOL0     H31290   7.727   4.560   9.265  0.2713  2.4092 -1.1537
  995MOL0     H31291   7.519   4.686   9.325 -0.9318  4.2920  4.1908
  995MOL0     H31292   7.548   4.680   9.491 -3.3819 -0.4934 -0.4067
  995MOL0     H31293   7.284   4.588   9.377 -1.5728 -0.2562  0.8792
  995MOL0     H31294   7.186   4.200   9.429 -0.7585 -1.0649 -1.1401
  995MOL0     H31295   7.171   4.269   9.269 -3.4496  2.7867 -0.2399
  995MOL0     H31296   7.075   4.473   9.377 -2.7579 -0.6263 -0.3730
  995MOL0     H31297   7.084   4.391   9.534  0.0944  0.0456  0.4316
  995MOL0     H31298   6.958   4.199   9.429 -3.8886 -1.3319  0.3874
  995MOL0     H31299   6.861   4.336   9.456  1.5333 -2.2012  2.3058
  995MOL0     H31300   6.986   4.276   9.191 -0.7481 -0.9507 -1.2024
  995MOL0     H31301   6.854   4.393   9.217  3.4192  1.2891 -1.5483
  995MOL0     H31302   6.778   4.309   8.998  1.1642  0.4189  0.9007
  995MOL0     H31303   6.699   4.195   8.798  1.3821 -2.9552 -3.1351
  995MOL0     H31304   6.440   4.064   8.489  0.4772  1.4199 -0.3373
  995MOL0     H31305   6.439   3.983   8.243 -1.3705 -1.2217  1.1791
  995MOL0     H31306   6.740   4.008   8.011  0.3619 -0.9017  0.6747
  995MOL0     H31307   6.560   4.035   8.042  2.8427  2.2073 -1.1076
  995MOL0     H31308   6.524   3.828   7.910  0.4598 -0.3647  1.9457
  995MOL0     H31309   6.692   3.821   7.867  1.5114  2.2459 -1.4705
  995MOL0     H31310   6.480   4.043   7.787 -0.5372 -0.6048 -1.1634
  995MOL0     H31311   6.561   3.914   7.689  0.8806 -0.7367  0.2371
  995MOL0     H31312   6.690   4.162   7.819 -1.9806  1.6568 -2.3090
  995MOL0     H31313   6.782   4.050   7.743  0.6800  0.8451  2.6352
  995MOL0     H31314   6.724   4.244   7.592 -1.3548  1.4046 -3.2687
  995MOL0     H31315   6.548   4.221   7.611  0.8701  1.9079 -2.3069
  995MOL0     H31316   6.576   4.001   7.488  1.1701 -1.3110  1.9432
  995MOL0     H31317   6.759   4.038   7.497  1.4069  3.7903 -0.2475
  995MOL0     H31318   6.550   4.219   7.356  2.4537  3.8380 -0.5546
  995MOL0     H31319   6.729   4.229   7.354  1.1758 -1.2105  1.7096
  995MOL0     H31320   6.705   4.001   7.228  1.9806  2.3474 -0.0506
  995MOL0     H31321   6.642   4.133   7.138 -1.1567  0.7887 -0.7868
  995MOL0     H31322   6.838   3.848   8.281 -0.8089  2.1688 -2.2104
  995MOL0     H31323   6.851   3.921   8.522 -0.7289 -4.0467 -0.5344
  995MOL0     H31324   6.771   3.821   8.992 -3.3544 -0.0747 -3.2737
  995MOL0     H31325   6.831   3.945   9.209  0.0732 -0.6113 -1.4023
  995MOL0     H31326   7.862   3.827   9.293  3.1726  0.0959  0.1865
  995MOL0     H31327   7.762   3.581   9.338  2.0359 -0.8854 -1.1557
  995MOL0     H31328   7.865   3.163   9.759 -3.4543  1.1752  4.2652
  995MOL0     H31329   7.782   2.929   9.765  1.0869 -1.5539 -2.1834
  995MOL0     H31330   7.526   2.847   9.833 -0.6774  2.5724 -1.3779
  995MOL0     H31331   7.486   2.686   9.763  0.9707 -1.0869 -2.2167
  995MOL0     H31332   7.288   2.799   9.827 -0.6682  1.7712  0.5566
  995MOL0     H31333   7.320   2.949   9.758 -3.5071  0.4034 -1.8194
  995MOL0     H31334   7.275   2.865   9.523  1.8283  0.4325  1.5522
  995MOL0     H31335   7.144   2.859   9.644 -1.7826 -1.9336 -3.3485
  995MOL0     H31336   7.313   2.617   9.563 -0.0767 -0.6891 -0.8926
  995MOL0     H31337   7.196   2.637   9.699  0.9634  1.4070  0.4555
  995MOL0     H31338   6.916   2.589   9.382  3.6390 -2.0411 -5.5383
  995MOL0     H31339   7.443   3.068   9.527  0.3886 -1.7783 -0.6504
  995MOL0     H31340   7.523   3.285   9.538 -1.0279 -0.5723 -0.9148
  996MOL0     O31341   4.774   2.811   8.819 -0.0256 -0.3862 -0.2444
  996MOL0     C31342   4.734   2.719   8.748  0.4281 -0.3639  0.0250
  996MOL0     O31343   4.797   2.605   8.743 -0.3180  0.1147  0.3091
  996MOL0     C31344   4.883   2.560   8.844 -0.1046  0.0086 -0.0748
  996MOL0     C31345   4.999   2.632   8.876  0.4691 -0.3466  0.3982
  996MOL0     C31346   5.092   2.580   8.976 -0.1693 -0.1061 -0.1998
  996MOL0     C31347   5.057   2.472   9.049 -0.7131  0.4636  0.2052
  996MOL0     O31348   5.129   2.442   9.162  0.5053 -0.3663  0.2149
  996MOL0     C31349   5.163   2.310   9.182 -0.3606  1.0291  0.7465
  996MOL0     C31350   5.223   2.295   9.327  0.1168 -0.0565 -0.2852
  996MOL0     C31351   5.277   2.157   9.363 -0.5421 -0.0089  0.8155
  996MOL0     C31352   5.329   2.145   9.503  0.4992 -0.8482  0.7509
  996MOL0     C31353   5.387   2.003   9.518  0.6763  0.6936  0.1693
  996MOL0     C31354   5.446   1.991   9.667  0.1037 -1.2334  0.2897
  996MOL0     C31355   5.414   1.867   9.743 -0.1256  0.1980  0.4826
  996MOL0     C31356   5.503   1.753   9.693 -0.7156 -0.0372  0.4383
  996MOL0     N31357   5.493   1.623   9.760 -0.1033  0.5388  0.0126
  996MOL0     C31358   5.473   1.506   9.699  0.5682  0.9353 -0.6985
  996MOL0     C31359   5.463   1.420   9.806  0.0803  0.2492  0.3249
  996MOL0     C31360   5.442   1.274   9.795 -0.1376 -1.2305  1.3424
  996MOL0     C31361   5.512   1.201   9.669  0.3445 -0.0130 -1.4197
  996MOL0     C31362   5.406   1.156   9.564  0.8764  0.4939 -0.4505
  996MOL0     C31363   5.330   1.035   9.611 -0.0808  0.5416  0.3153
  996MOL0     O31364   5.214   1.023   9.538 -0.3276 -0.1674 -0.2007
  996MOL0     C31365   5.110   0.994   9.624  1.0602 -0.1599  0.0734
  996MOL0     C31366   5.069   0.862   9.644  0.0379 -0.6993 -0.0505
  996MOL0     C31367   4.956   0.836   9.724 -0.1885  0.4202  0.0336
  996MOL0     C31368   4.890   0.932   9.801  0.3949 -0.0208 -0.0908
  996MOL0     C31369   4.777   0.904   9.896 -0.3203  0.1560  0.6537
  996MOL0     O31370   4.677   0.992   9.900  0.1934 -0.6421  0.1034
  996MOL0     C31371   4.571   0.958   9.984  0.9904 -0.7463  1.0865
  996MOL0     C31372   4.547   1.039  10.099  0.5269 -0.7935  0.2196
  996MOL0     C31373   4.435   1.017  10.177 -0.4623 -0.0947  0.7137
  996MOL0     C31374   4.341   0.924  10.141 -0.2779  1.1389 -0.0939
  996MOL0     O31375   4.240   0.902  10.218  0.3489 -0.5117 -0.8857
  996MOL0     C31376   4.110   0.930  10.162  0.1899  0.0417  0.1004
  996MOL0     C31377   4.095   1.072  10.102 -0.3499  0.7866 -0.0785
  996MOL0     C31378   3.941   1.117  10.097  0.1417  0.1310 -1.1439
  996MOL0     C31379   3.849   1.022  10.017  0.8450  0.4797 -0.6344
  996MOL0     C31380   3.718   1.100   9.971  0.2699 -0.3325  0.1697
  996MOL0     C31381   3.702   1.106   9.828  0.0005  0.1492  1.0393
  996MOL0     C31382   3.597   1.207   9.766 -0.2293  0.7602 -0.4996
  996MOL0     C31383   3.516   1.294   9.855  0.2221 -0.2713 -0.1650
  996MOL0    Cl31384   3.373   1.355   9.786 -0.2666 -0.2982  0.6370
  996MOL0     C31385   4.365   0.840  10.032 -0.2458 -0.2730  0.7595
  996MOL0     C31386   4.487   0.856   9.958 -0.4049  0.8342  0.1956
  996MOL0     O31387   4.773   0.791   9.952 -0.5305 -0.8557 -0.0940
  996MOL0     C31388   4.937   1.064   9.777  0.8380 -0.2206 -0.3823
  996MOL0     C31389   5.036   1.092   9.691  0.1569 -0.1492 -0.1004
  996MOL0     N31390   5.482   1.489   9.923  1.5159 -0.8960 -0.1080
  996MOL0     N31391   5.502   1.617   9.889  0.9297 -0.1936 -0.4978
  996MOL0     C31392   4.934   2.400   9.024  0.6689 -0.6311  0.5719
  996MOL0     C31393   4.851   2.447   8.924 -0.3833 -0.3236  0.3881
  996MOL0     C31394   4.598   2.723   8.698 -0.0082  0.7221  0.5597
  996MOL0     C31395   4.520   2.601   8.675 -0.1544  0.2119  0.2702
  996MOL0     C31396   4.398   2.600   8.617  1.0369  0.0601 -0.0138
  996MOL0     C31397   4.339   2.714   8.570 -0.4931 -0.8324 -0.2076
  996MOL0     O31398   4.216   2.717   8.505  0.5971 -0.6374 -0.1604
  996MOL0     C31399   4.160   2.591   8.458 -0.4042 -0.4445  0.3930
  996MOL0     C31400   4.032   2.595   8.378 -0.3120 -0.9876 -0.4693
  996MOL0     C31401   4.017   2.710   8.263 -0.4836 -0.4489 -0.1995
  996MOL0     C31402   3.872   2.706   8.212 -0.5334 -0.0714  0.0688
  996MOL0     C31403   3.792   2.822   8.254 -1.1939 -0.1556 -0.1967
  996MOL0     C31404   3.725   2.920   8.271  1.0761  0.5340 -0.4742
  996MOL0     C31405   4.409   2.837   8.598  0.6042 -0.0352 -0.4788
  996MOL0     C31406   4.534   2.842   8.656 -0.5642  0.2382 -0.2586
  996MOL0     H31407   5.029   2.720   8.820 -1.3546 -0.6943 -1.2213
  996MOL0     H31408   5.183   2.639   8.981 -2.0187  2.8887  2.2368
  996MOL0     H31409   5.235   2.262   9.115 -2.4383  2.5799 -2.8735
  996MOL0     H31410   5.070   2.251   9.181 -2.8686  4.6595  0.2986
  996MOL0     H31411   5.153   2.315   9.408  1.1272  2.8620 -0.0334
  996MOL0     H31412   5.306   2.367   9.330  0.5925 -0.5990 -0.2018
  996MOL0     H31413   5.359   2.135   9.295 -1.7791  1.1236 -1.1282
  996MOL0     H31414   5.204   2.078   9.342  1.4642 -1.4701 -1.0290
  996MOL0     H31415   5.407   2.221   9.512 -0.3608 -0.0509  1.7002
  996MOL0     H31416   5.247   2.166   9.573  2.0597  0.9039  2.1540
  996MOL0     H31417   5.470   1.990   9.448  1.4373 -1.2020  1.3382
  996MOL0     H31418   5.313   1.930   9.486  0.0109  1.4888 -0.1310
  996MOL0     H31419   5.403   2.078   9.718 -0.6129  0.0925 -2.3814
  996MOL0     H31420   5.554   2.004   9.656 -0.1887  2.2560  0.2159
  996MOL0     H31421   5.424   1.890   9.849 -0.6080  2.1743  0.1376
  996MOL0     H31422   5.308   1.847   9.728 -0.5216  3.1301 -1.5497
  996MOL0     H31423   5.604   1.794   9.701  0.3760 -2.1486 -1.2899
  996MOL0     H31424   5.489   1.747   9.584  1.4612 -5.2176  0.1603
  996MOL0     H31425   5.443   1.482   9.598  2.2984 -1.6261 -0.6971
  996MOL0     H31426   5.333   1.262   9.785 -0.7145  2.9437  0.4867
  996MOL0     H31427   5.482   1.236   9.889  0.7859 -1.1725  0.9836
  996MOL0     H31428   5.554   1.111   9.716 -1.7594 -0.0621  0.5325
  996MOL0     H31429   5.593   1.258   9.623  0.6764  1.0945  0.4450
  996MOL0     H31430   5.332   1.235   9.552  0.7323  0.4860  0.3733
  996MOL0     H31431   5.454   1.130   9.469  4.3855 -1.1168  1.5467
  996MOL0     H31432   5.314   1.040   9.719  1.2541 -0.3198  0.5850
  996MOL0     H31433   5.388   0.942   9.603  2.1741  2.0550 -3.2010
  996MOL0     H31434   5.111   0.776   9.592  3.5203 -0.8803  2.6872
  996MOL0     H31435   4.927   0.735   9.753  0.4949  0.7804  2.1421
  996MOL0     H31436   4.608   1.125  10.121  0.6185  0.1597 -3.2229
  996MOL0     H31437   4.412   1.072  10.268  0.0164 -2.0364  2.0701
  996MOL0     H31438   4.046   0.925  10.251 -0.3112 -2.4714 -0.3246
  996MOL0     H31439   4.088   0.853  10.088  2.7938  0.0547 -0.7891
  996MOL0     H31440   4.135   1.078  10.000  0.9471 -0.9113  0.2902
  996MOL0     H31441   4.145   1.144  10.167  0.0478 -2.4695  3.5225
  996MOL0     H31442   3.931   1.220  10.063  0.2133 -0.8108 -4.4594
  996MOL0     H31443   3.912   1.109  10.202  3.1451  0.7527 -0.1858
  996MOL0     H31444   3.900   0.990   9.925 -1.4280  0.7475 -2.0510
  996MOL0     H31445   3.826   0.937  10.082 -0.4553 -0.2439 -1.9584
  996MOL0     H31446   3.716   1.203  10.008  0.8008 -0.6698  1.1760
  996MOL0     H31447   3.623   1.058  10.007 -0.7891  1.6853 -0.1059
  996MOL0     H31448   3.704   1.008   9.780  0.0236  1.1106 -1.0231
  996MOL0     H31449   3.794   1.150   9.789 -1.8629  2.0760 -1.5626
  996MOL0     H31450   3.643   1.281   9.700  1.0802 -0.1102 -0.6108
  996MOL0     H31451   3.516   1.148   9.722 -0.3007  2.0818 -2.2705
  996MOL0     H31452   3.571   1.382   9.888  0.8119 -0.1230 -1.4967
  996MOL0     H31453   3.481   1.236   9.941  1.8420 -0.1247  0.6249
  996MOL0     H31454   4.300   0.755  10.015 -1.4446  1.3774 -4.8269
  996MOL0     H31455   4.505   0.791   9.873  0.5461 -2.2485  2.5597
  996MOL0     H31456   4.888   1.149   9.824  1.9992  0.5188 -0.4514
  996MOL0     H31457   5.052   1.200   9.692 -4.4752  0.7233  0.7973
  996MOL0     H31458   4.902   2.314   9.081  0.0406 -0.2773  0.7518
  996MOL0     H31459   4.764   2.389   8.894 -0.4670  1.7609 -4.2835
  996MOL0     H31460   4.572   2.511   8.708  0.3557 -0.1300 -1.3712
  996MOL0     H31461   4.346   2.507   8.600  1.0382  0.4256 -2.3324
  996MOL0     H31462   4.137   2.515   8.534 -1.2430  0.7043  1.3135
  996MOL0     H31463   4.235   2.539   8.397 -0.2222 -0.4405  0.6101
  996MOL0     H31464   4.017   2.504   8.320  0.2410  0.1851 -2.5405
  996MOL0     H31465   3.963   2.627   8.457  1.7005 -0.4926  1.1806
  996MOL0     H31466   4.084   2.684   8.180  1.7248  3.2188  0.1963
  996MOL0     H31467   4.053   2.808   8.295 -0.0436  0.3701 -2.9480
  996MOL0     H31468   3.878   2.693   8.103 -1.3018  0.4428 -0.0444
  996MOL0     H31469   3.815   2.615   8.232 -0.2980 -0.2830 -0.2028
  996MOL0     H31470   3.656   3.000   8.290 -0.0446 -0.6773  0.7902
  996MOL0     H31471   4.375   2.930   8.555  4.6870 -0.2838 -5.1481
  996MOL0     H31472   4.573   2.940   8.679  2.1928 -0.0828 -2.8986
  997MOL0     O31473  11.277   1.330   2.413 -0.2382 -0.0578  0.3807
  997MOL0     C31474  11.386   1.280   2.449  0.8839 -0.1107  0.0968
  997MOL0     O31475  11.401   1.150   2.497 -0.1165 -0.4379  0.3509
  997MOL0     C31476  11.297   1.078   2.539 -0.3503 -0.1728 -0.1973
  997MOL0     C31477  11.296   1.052   2.673  0.5104  0.4914 -0.2987
  997MOL0     C31478  11.202   0.965   2.715 -0.0894  0.0222 -0.3179
  997MOL0     C31479  11.099   0.923   2.637 -0.6955  0.8866 -0.6777
  997MOL0     O31480  11.008   0.833   2.696 -0.1662 -0.2456 -0.2227
  997MOL0     C31481  10.878   0.844   2.648 -0.1491 -0.1086  0.1250
  997MOL0     C31482  10.788   0.796   2.756  0.2911  0.5759  0.0175
  997MOL0     C31483  10.636   0.804   2.721 -0.1871  0.0433  0.3413
  997MOL0     C31484  10.570   0.932   2.662  0.0757 -0.1736 -1.4625
  997MOL0     C31485  10.412   0.940   2.680  0.0300  0.7294 -0.3418
  997MOL0     C31486  10.367   1.082   2.630  0.8919 -0.1118  0.1889
  997MOL0     C31487  10.211   1.089   2.628  0.1821 -0.1040 -0.4208
  997MOL0     C31488  10.152   1.230   2.641 -0.1688  0.0931  0.2228
  997MOL0     N31489  10.007   1.245   2.606 -0.3493 -1.0639 -0.2710
  997MOL0     C31490   9.900   1.274   2.687  0.2272 -0.3052 -0.4191
  997MOL0     C31491   9.803   1.308   2.602  0.5955 -0.0457  0.3596
  997MOL0     C31492   9.663   1.322   2.639 -0.8135  0.1000  0.3469
  997MOL0     C31493   9.619   1.476   2.630 -0.7227  0.1779 -0.9512
  997MOL0     C31494   9.481   1.491   2.696  1.3491  0.8271 -0.0889
  997MOL0     C31495   9.406   1.614   2.645 -0.6470 -0.1518 -0.3026
  997MOL0     O31496   9.372   1.596   2.513  0.0572  0.2800 -0.2403
  997MOL0     C31497   9.256   1.653   2.453 -0.6368 -0.2307 -0.6607
  997MOL0     C31498   9.179   1.756   2.516 -0.5949 -0.1405 -0.6184
  997MOL0     C31499   9.063   1.809   2.460 -0.5577 -0.4307 -0.7350
  997MOL0     C31500   9.028   1.751   2.335  1.1446  0.1187  0.2536
  997MOL0     C31501   8.893   1.802   2.275  0.5670  0.0334 -0.8562
  997MOL0     O31502   8.870   1.765   2.145  0.5636  0.3580 -0.7846
  997MOL0     C31503   8.755   1.806   2.089  0.0727 -0.6173 -1.2628
  997MOL0     C31504   8.759   1.891   1.980  0.1571  1.1745  0.0544
  997MOL0     C31505   8.642   1.906   1.899 -0.1110 -0.3751 -0.0610
  997MOL0     C31506   8.520   1.859   1.950  0.0532  0.0870  0.1840
  997MOL0     O31507   8.401   1.881   1.887 -0.0005  0.2160 -0.4510
  997MOL0     C31508   8.298   1.965   1.946 -0.2194  0.4444  0.6128
  997MOL0     C31509   8.229   2.040   1.830 -0.1452 -0.1841 -0.3462
  997MOL0     C31510   8.134   1.946   1.767 -0.5196 -0.0175 -0.2933
  997MOL0     C31511   8.022   2.034   1.695 -0.1380 -0.1324  0.1878
  997MOL0     C31512   7.917   1.944   1.622 -0.0321 -0.3737  0.1036
  997MOL0     C31513   7.780   2.017   1.607  0.1214 -0.2706  0.2159
  997MOL0     C31514   7.678   1.916   1.543 -0.0232 -0.8645  1.2641
  997MOL0     C31515   7.528   1.957   1.542  0.1644  0.2497  0.2027
  997MOL0    Cl31516   7.464   1.936   1.708 -0.2405 -0.1999 -0.0639
  997MOL0     C31517   8.520   1.782   2.070  0.4377  0.2955 -0.2244
  997MOL0     C31518   8.639   1.758   2.132  0.0036  0.2227  0.6593
  997MOL0     O31519   8.815   1.861   2.350  0.2468  1.3894  0.3484
  997MOL0     C31520   9.117   1.667   2.264  0.1294  0.4290  0.5949
  997MOL0     C31521   9.229   1.618   2.323  0.1497  0.0773  0.2111
  997MOL0     N31522   9.847   1.292   2.468  0.1779 -0.3629 -0.8274
  997MOL0     N31523   9.974   1.268   2.477  0.1206  1.0451  0.4116
  997MOL0     C31524  11.101   0.942   2.501  0.0205 -1.1559 -0.6849
  997MOL0     C31525  11.205   1.020   2.451 -0.0674 -0.1681  1.0296
  997MOL0     C31526  11.510   1.362   2.446  1.1382  0.0445  0.4866
  997MOL0     C31527  11.638   1.299   2.455  0.4485 -0.1449  0.6980
  997MOL0     C31528  11.752   1.388   2.463 -0.6292 -0.2651 -0.4994
  997MOL0     C31529  11.743   1.526   2.459  0.3494  0.6288  0.0472
  997MOL0     O31530  11.851   1.604   2.470  0.6975 -0.4681 -0.0538
  997MOL0     C31531  11.886   1.711   2.379 -0.3147 -0.0020 -0.0313
  997MOL0     C31532  12.012   1.794   2.397 -0.3368 -0.9219 -0.3820
  997MOL0     C31533  12.029   1.902   2.290  0.9593  0.7084 -0.2726
  997MOL0     C31534  12.177   1.939   2.298  0.1729  0.0427  0.2816
  997MOL0     C31535  12.267   1.828   2.255 -0.0151 -0.6442  0.0442
  997MOL0     C31536  12.332   1.726   2.261 -0.0121 -0.8660 -0.7779
  997MOL0     C31537  11.619   1.581   2.432  2.0090 -0.6713  0.2723
  997MOL0     C31538  11.505   1.503   2.425 -0.8912  0.0294  0.1327
  997MOL0     H31539  11.363   1.099   2.744 -1.2935  2.8911 -0.0215
  997MOL0     H31540  11.201   0.942   2.821  3.5836 -1.7743 -0.4892
  997MOL0     H31541  10.866   0.804   2.547  3.5100  5.0757 -2.8407
  997MOL0     H31542  10.866   0.953   2.642 -2.0065 -0.3766 -3.3363
  997MOL0     H31543  10.800   0.868   2.837 -1.5990  2.3852 -1.2149
  997MOL0     H31544  10.808   0.692   2.785  0.4775  0.0393 -1.9486
  997MOL0     H31545  10.572   0.779   2.807 -0.4993  5.5931  2.1407
  997MOL0     H31546  10.636   0.728   2.643  2.3904  1.0995 -0.8049
  997MOL0     H31547  10.617   1.017   2.712 -0.4556 -2.5177  3.6841
  997MOL0     H31548  10.600   0.939   2.557  0.0284 -2.3420 -1.6649
  997MOL0     H31549  10.378   0.916   2.781 -1.3008 -1.3933 -1.2170
  997MOL0     H31550  10.370   0.866   2.611 -1.6797 -0.9194  2.2962
  997MOL0     H31551  10.412   1.102   2.533 -2.8433 -0.9460 -1.9052
  997MOL0     H31552  10.414   1.151   2.701  0.5107 -0.7542  1.0796
  997MOL0     H31553  10.167   1.043   2.539  0.0405 -0.5315 -0.1310
  997MOL0     H31554  10.169   1.046   2.719 -0.3769  2.7763  0.7941
  997MOL0     H31555  10.197   1.288   2.560 -1.7581 -0.6227 -1.2448
  997MOL0     H31556  10.173   1.271   2.740 -3.0023  1.5707  0.3152
  997MOL0     H31557   9.890   1.257   2.794  0.4188  4.3009  0.5449
  997MOL0     H31558   9.655   1.282   2.740 -0.2395  0.1956  0.4360
  997MOL0     H31559   9.615   1.272   2.555  3.0724  0.9537 -2.6737
  997MOL0     H31560   9.624   1.495   2.522 -0.8717 -4.2164 -1.9429
  997MOL0     H31561   9.694   1.532   2.686 -0.9431 -1.0130  0.6080
  997MOL0     H31562   9.415   1.406   2.677 -1.2457  2.2542  1.8693
  997MOL0     H31563   9.498   1.503   2.803 -1.0784  0.7913  0.3577
  997MOL0     H31564   9.468   1.705   2.651 -0.6282  0.0209 -2.3109
  997MOL0     H31565   9.317   1.631   2.705 -3.4296  1.1536 -4.3612
  997MOL0     H31566   9.202   1.772   2.621 -0.2517 -0.5105 -0.6331
  997MOL0     H31567   9.005   1.876   2.522 -2.4122 -1.1341 -1.6229
  997MOL0     H31568   8.851   1.928   1.937  0.6701  0.8039  0.8143
  997MOL0     H31569   8.649   1.964   1.807  2.5756 -4.3714 -2.6906
  997MOL0     H31570   8.345   2.039   2.011 -3.2305  2.1019  1.0502
  997MOL0     H31571   8.233   1.901   2.006  1.5131 -2.0562 -0.0151
  997MOL0     H31572   8.297   2.091   1.762  2.7117 -3.0238  0.1157
  997MOL0     H31573   8.177   2.117   1.887  1.2684 -1.6479  3.2656
  997MOL0     H31574   8.090   1.876   1.838  1.6611 -0.2183  0.9364
  997MOL0     H31575   8.192   1.882   1.700 -1.7519 -1.6714  0.1765
  997MOL0     H31576   7.970   2.103   1.762 -1.8392 -1.4664  0.3269
  997MOL0     H31577   8.070   2.090   1.615 -1.1470  0.4554 -0.0263
  997MOL0     H31578   7.903   1.847   1.670 -0.9276 -0.9042 -1.1899
  997MOL0     H31579   7.959   1.913   1.526 -0.0624  1.9555 -0.7406
  997MOL0     H31580   7.789   2.106   1.544  3.5180  0.9297  2.1547
  997MOL0     H31581   7.758   2.054   1.708  2.7496 -2.6834  1.8240
  997MOL0     H31582   7.704   1.910   1.437 -1.7506 -3.9257  0.8797
  997MOL0     H31583   7.690   1.813   1.580  3.7526 -0.0703  2.6832
  997MOL0     H31584   7.476   1.884   1.479  3.9843 -2.7092  0.0679
  997MOL0     H31585   7.514   2.060   1.510  2.2705  1.0165  1.5041
  997MOL0     H31586   8.429   1.731   2.100 -0.8091  0.2912 -3.5947
  997MOL0     H31587   8.636   1.682   2.209 -1.3748  0.2118  0.6203
  997MOL0     H31588   9.102   1.644   2.159  0.6268 -1.5892  0.9303
  997MOL0     H31589   9.288   1.545   2.268 -0.0196 -1.2706  1.7235
  997MOL0     H31590  11.036   0.905   2.422  1.6812 -0.9470 -2.2292
  997MOL0     H31591  11.217   1.044   2.346  1.7272  0.2944  1.3111
  997MOL0     H31592  11.641   1.190   2.462 -0.4476 -0.1689  0.8619
  997MOL0     H31593  11.852   1.346   2.466 -1.0256 -1.3611 -1.6184
  997MOL0     H31594  11.803   1.780   2.361 -0.8832 -0.7596 -0.3813
  997MOL0     H31595  11.903   1.665   2.281 -2.5514 -1.4199  0.1709
  997MOL0     H31596  12.016   1.834   2.498 -0.7925 -2.6643  0.3572
  997MOL0     H31597  12.084   1.712   2.392  1.6349  0.7209 -0.4247
  997MOL0     H31598  11.980   1.998   2.307 -1.4184 -0.6942  1.2379
  997MOL0     H31599  11.996   1.865   2.192 -1.9867  0.6881  0.6357
  997MOL0     H31600  12.190   2.018   2.223  2.6191 -1.7676 -1.3835
  997MOL0     H31601  12.208   1.971   2.398  2.3421  0.1527 -0.3724
  997MOL0     H31602  12.383   1.636   2.289  1.4932  1.0501  3.3163
  997MOL0     H31603  11.619   1.689   2.423 -0.2054 -0.4619  1.9960
  997MOL0     H31604  11.413   1.553   2.396 -1.4063 -1.7937 -1.6066
  998MOL0     O31605   4.301   2.942   4.093 -0.3249  0.3313  0.0776
  998MOL0     C31606   4.398   2.983   4.158  0.5809 -1.0264 -0.1432
  998MOL0     O31607   4.495   3.067   4.115 -0.9928 -0.9322  1.0743
  998MOL0     C31608   4.519   3.089   3.981  0.6617  0.0452 -1.4353
  998MOL0     C31609   4.533   2.991   3.886  0.2423  0.1086  0.8879
  998MOL0     C31610   4.538   3.028   3.749 -0.3011 -0.7531  0.0304
  998MOL0     C31611   4.552   3.165   3.722  0.4759  0.7260 -1.1759
  998MOL0     O31612   4.561   3.195   3.587 -1.0624  0.2602 -0.2752
  998MOL0     C31613   4.667   3.290   3.560  0.6585 -0.3494 -0.2328
  998MOL0     C31614   4.635   3.389   3.435  0.1480  0.4955 -1.5883
  998MOL0     C31615   4.501   3.462   3.444  0.2526  0.3359  1.2068
  998MOL0     C31616   4.476   3.555   3.317  0.1673  0.2899  0.8797
  998MOL0     C31617   4.329   3.533   3.272 -0.7895  0.1544 -0.1659
  998MOL0     C31618   4.288   3.626   3.162  0.0138 -0.4714  0.3158
  998MOL0     C31619   4.137   3.598   3.139 -0.1062 -0.5114 -0.3401
  998MOL0     C31620   4.090   3.689   3.036 -0.2259 -0.5264 -0.4626
  998MOL0     N31621   3.942   3.692   3.020  0.6975 -0.0986 -0.7515
  998MOL0     C31622   3.874   3.601   2.926 -0.3062 -0.7306 -0.8153
  998MOL0     C31623   3.749   3.658   2.930 -0.8240  0.4816 -0.9153
  998MOL0     C31624   3.642   3.619   2.837 -0.0857 -0.3807  0.2887
  998MOL0     C31625   3.559   3.507   2.876 -0.7056 -0.4844  0.4087
  998MOL0     C31626   3.473   3.544   3.002  0.6237 -0.0726 -0.2959
  998MOL0     C31627   3.349   3.460   3.013  0.5641  0.8718 -0.8040
  998MOL0     O31628   3.347   3.383   3.133 -0.4477  0.3052 -0.2617
  998MOL0     C31629   3.223   3.333   3.172 -0.6487 -0.2580  0.7575
  998MOL0     C31630   3.209   3.282   3.296  0.0907 -0.6717 -0.2287
  998MOL0     C31631   3.086   3.241   3.352  0.0182  0.1440 -0.2140
  998MOL0     C31632   2.970   3.235   3.266 -1.1823  0.3109  0.1725
  998MOL0     C31633   2.838   3.190   3.311 -0.9296 -0.6988 -0.3165
  998MOL0     O31634   2.831   3.163   3.441 -0.4514 -0.7430  0.3729
  998MOL0     C31635   2.708   3.153   3.494  0.1617  1.7777  0.2906
  998MOL0     C31636   2.600   3.247   3.487 -0.7728  0.3122  0.5376
  998MOL0     C31637   2.478   3.236   3.542  0.2518  1.2087  0.1237
  998MOL0     C31638   2.455   3.111   3.614  0.0091 -0.3353  0.6436
  998MOL0     O31639   2.330   3.076   3.666  0.0391 -0.8884 -0.9925
  998MOL0     C31640   2.223   3.157   3.615  0.2607  0.2961  0.8915
  998MOL0     C31641   2.099   3.099   3.690  0.3264 -0.0195  0.6600
  998MOL0     C31642   1.971   3.157   3.642 -0.2811  0.0257 -0.4308
  998MOL0     C31643   1.852   3.069   3.667 -0.6533  0.4842 -0.6951
  998MOL0     C31644   1.715   3.139   3.631 -0.0128  0.6690 -0.5912
  998MOL0     C31645   1.598   3.046   3.654 -0.0378 -0.0694 -0.5196
  998MOL0     C31646   1.470   3.133   3.698  1.0840  0.3942  0.2913
  998MOL0     C31647   1.337   3.070   3.648 -0.8567 -0.0007  0.8197
  998MOL0    Cl31648   1.323   2.909   3.717  0.7147  0.1153  0.2193
  998MOL0     C31649   2.558   3.016   3.629 -0.6644 -0.0127 -0.4986
  998MOL0     C31650   2.687   3.040   3.575 -1.1696  0.7439 -0.5669
  998MOL0     O31651   2.745   3.184   3.231 -0.0754  0.0947  0.2440
  998MOL0     C31652   2.986   3.287   3.136 -0.3052  1.0768 -0.1613
  998MOL0     C31653   3.111   3.324   3.083 -0.5816 -0.7055  0.3499
  998MOL0     N31654   3.741   3.746   3.037  0.5352  0.3381 -0.6493
  998MOL0     N31655   3.853   3.768   3.091  0.1872 -0.4246 -0.0102
  998MOL0     C31656   4.546   3.264   3.825  0.0718  0.5449  1.8473
  998MOL0     C31657   4.524   3.223   3.952  0.3089  0.0556  0.1348
  998MOL0     C31658   4.407   2.935   4.300 -0.1261 -0.5749  0.8494
  998MOL0     C31659   4.484   3.009   4.392 -0.0572 -0.2673 -0.4406
  998MOL0     C31660   4.491   2.960   4.526  1.5691 -0.0187 -0.7352
  998MOL0     C31661   4.437   2.834   4.563 -1.1366 -0.3875  0.3078
  998MOL0     O31662   4.443   2.793   4.696  0.5993 -0.0912 -0.1525
  998MOL0     C31663   4.564   2.723   4.716 -1.0229 -0.3216 -0.6333
  998MOL0     C31664   4.519   2.605   4.811  0.3666 -0.4578  0.4258
  998MOL0     C31665   4.622   2.517   4.866 -0.1802  0.3250 -0.9122
  998MOL0     C31666   4.562   2.395   4.928  0.2426  0.8209  1.0681
  998MOL0     C31667   4.482   2.429   5.039  0.5374 -0.6488  0.2364
  998MOL0     C31668   4.409   2.455   5.135  1.0846 -0.5624  0.6790
  998MOL0     C31669   4.372   2.755   4.463  0.3204  0.5879 -0.2143
  998MOL0     C31670   4.356   2.806   4.332  0.1086  0.0626 -0.9838
  998MOL0     H31671   4.509   2.887   3.906 -1.6688  0.7693  2.3722
  998MOL0     H31672   4.545   2.960   3.665 -0.6280  2.2712 -2.6203
  998MOL0     H31673   4.767   3.244   3.556  1.0611 -0.0305  3.1072
  998MOL0     H31674   4.684   3.360   3.642  0.6211 -0.6401  0.0261
  998MOL0     H31675   4.641   3.315   3.355 -0.4977 -1.3465 -0.0146
  998MOL0     H31676   4.722   3.456   3.432  2.7499 -2.4634  0.7171
  998MOL0     H31677   4.496   3.520   3.536  2.2305  2.0327  0.3269
  998MOL0     H31678   4.420   3.389   3.452  1.3018 -0.7534  2.4179
  998MOL0     H31679   4.493   3.659   3.347 -2.3986  0.7909  0.7850
  998MOL0     H31680   4.540   3.528   3.232 -0.8882  5.0504 -1.7927
  998MOL0     H31681   4.270   3.539   3.364  2.5076 -0.0117  2.1276
  998MOL0     H31682   4.338   3.429   3.239 -2.0978 -0.9437  2.6188
  998MOL0     H31683   4.358   3.619   3.078  0.7975  2.7608  0.5514
  998MOL0     H31684   4.291   3.729   3.197  1.4477 -0.7258  1.0245
  998MOL0     H31685   4.113   3.496   3.109  1.2985 -0.9086 -0.1807
  998MOL0     H31686   4.080   3.603   3.233  1.1462 -1.7001  0.5261
  998MOL0     H31687   4.136   3.674   2.938 -0.1261  0.2385 -0.5410
  998MOL0     H31688   4.116   3.787   3.077  2.1553 -1.4891  0.5179
  998MOL0     H31689   3.919   3.527   2.860 -0.4950  1.3719 -3.4457
  998MOL0     H31690   3.676   3.589   2.737 -0.9853 -1.5651  0.3134
  998MOL0     H31691   3.581   3.708   2.817 -0.4264 -0.7506 -0.3636
  998MOL0     H31692   3.619   3.418   2.900  0.7599 -0.2226 -1.9357
  998MOL0     H31693   3.491   3.486   2.793  1.1956  0.1413 -1.3997
  998MOL0     H31694   3.530   3.533   3.095  1.0483  1.0826 -0.4061
  998MOL0     H31695   3.427   3.643   2.997  0.2272 -0.1653  1.1069
  998MOL0     H31696   3.349   3.385   2.933  1.8545 -1.3772  1.2003
  998MOL0     H31697   3.257   3.519   3.011  0.9141  1.6426  1.7965
  998MOL0     H31698   3.298   3.290   3.359  0.4245  0.5108 -0.8220
  998MOL0     H31699   3.074   3.215   3.456 -2.0685 -0.0778 -0.4668
  998MOL0     H31700   2.624   3.337   3.431 -1.9759 -1.5168 -3.2703
  998MOL0     H31701   2.401   3.312   3.544  1.2146  2.2010 -0.0725
  998MOL0     H31702   2.213   3.144   3.507  2.5625  0.3611  0.6063
  998MOL0     H31703   2.234   3.262   3.644 -4.1524  1.7102 -1.7422
  998MOL0     H31704   2.116   3.107   3.798  0.5773 -1.6322  0.7713
  998MOL0     H31705   2.096   2.993   3.665  0.9095 -0.7786  3.3974
  998MOL0     H31706   1.979   3.164   3.534  2.2773 -1.6471 -0.4218
  998MOL0     H31707   1.947   3.251   3.693 -1.5997 -1.0765  1.0909
  998MOL0     H31708   1.858   2.994   3.588  0.2847 -0.2315  0.0281
  998MOL0     H31709   1.853   3.017   3.763  0.2020  0.2277 -0.8332
  998MOL0     H31710   1.717   3.164   3.524 -2.4701 -2.3745 -1.5152
  998MOL0     H31711   1.698   3.215   3.707  1.7847  0.6169 -0.1025
  998MOL0     H31712   1.617   2.985   3.742 -2.9559  2.3910  2.0776
  998MOL0     H31713   1.576   2.981   3.569 -1.1370  2.9300 -2.7402
  998MOL0     H31714   1.462   3.148   3.806 -1.5593 -0.5683  0.3184
  998MOL0     H31715   1.481   3.231   3.649 -1.5567 -0.1736 -1.6588
  998MOL0     H31716   1.341   3.071   3.539 -0.3511  1.7647  0.8135
  998MOL0     H31717   1.260   3.143   3.677  1.6782  3.3429 -0.2325
  998MOL0     H31718   2.539   2.939   3.703 -1.9906 -0.3005 -1.1107
  998MOL0     H31719   2.767   2.972   3.600 -1.4274 -0.4248 -2.6668
  998MOL0     H31720   2.902   3.277   3.069 -1.1548 -2.8947  1.2596
  998MOL0     H31721   3.119   3.349   2.978 -0.1271  0.4161  0.6369
  998MOL0     H31722   4.553   3.369   3.800  1.0132  0.3409  1.2238
  998MOL0     H31723   4.513   3.294   4.033  1.9579  0.9747 -0.3902
  998MOL0     H31724   4.515   3.109   4.364  3.5615 -0.8691  0.9360
  998MOL0     H31725   4.524   3.016   4.613 -4.3634 -0.3442  2.1937
  998MOL0     H31726   4.634   2.792   4.765 -1.0091  0.1586 -1.3109
  998MOL0     H31727   4.607   2.681   4.625 -4.1493  2.4969 -3.6631
  998MOL0     H31728   4.465   2.656   4.892  0.3430  0.9921 -0.4760
  998MOL0     H31729   4.432   2.557   4.765  0.5085  1.2573 -1.7951
  998MOL0     H31730   4.675   2.580   4.938 -0.8973  0.2369 -0.2973
  998MOL0     H31731   4.693   2.495   4.786  1.0553 -1.9127  0.6925
  998MOL0     H31732   4.500   2.330   4.865  0.2755  1.1540  0.6913
  998MOL0     H31733   4.644   2.326   4.951 -0.5959 -1.2557 -1.6065
  998MOL0     H31734   4.343   2.483   5.215 -1.7457 -1.4519 -1.1789
  998MOL0     H31735   4.334   2.656   4.489  2.8693  0.1449  2.3327
  998MOL0     H31736   4.296   2.746   4.264  0.3657  0.1631 -1.3020
  999MOL0     O31737   5.426   6.550  10.552  0.1758  0.0454  0.5953
  999MOL0     C31738   5.408   6.633  10.641 -0.0531  0.3386 -0.3935
  999MOL0     O31739   5.300   6.678  10.686  0.8554 -0.2677 -0.2282
  999MOL0     C31740   5.166   6.621  10.678 -0.4300  0.4048  0.3268
  999MOL0     C31741   5.072   6.682  10.752 -0.7764 -0.2111 -0.1840
  999MOL0     C31742   4.943   6.644  10.744 -0.6321 -0.4017 -0.1389
  999MOL0     C31743   4.898   6.553  10.648 -0.4846  0.9627  0.8353
  999MOL0     O31744   4.772   6.514  10.619 -1.0019  0.0538 -0.1468
  999MOL0     C31745   4.668   6.579  10.692 -0.4467  0.3994  0.7103
  999MOL0     C31746   4.623   6.502  10.818  0.3267 -0.6997  0.3950
  999MOL0     C31747   4.487   6.565  10.862  0.3169 -0.5462 -0.6879
  999MOL0     C31748   4.402   6.479  10.971 -0.6114  0.1229  0.3628
  999MOL0     C31749   4.302   6.572  11.053 -0.9677  0.1885  0.2598
  999MOL0     C31750   4.240   6.478  11.160 -0.1454  0.5341  0.6159
  999MOL0     C31751   4.141   6.535  11.265 -0.4262  0.0945 -0.2415
  999MOL0     C31752   4.047   6.649  11.217  0.5084 -0.1206  0.8077
  999MOL0     N31753   3.955   6.602  11.119  0.9034 -0.1481  0.2851
  999MOL0     C31754   3.832   6.550  11.145 -0.0197 -0.8869  0.7064
  999MOL0     C31755   3.763   6.571  11.027  1.3773 -0.9716  0.0308
  999MOL0     C31756   3.611   6.542  11.001 -1.2979 -0.1952 -0.2290
  999MOL0     C31757   3.536   6.669  11.025 -0.5310  0.0118  1.2339
  999MOL0     C31758   3.585   6.767  10.910  0.7192  0.3623 -0.5613
  999MOL0     C31759   3.483   6.882  10.892  1.0601 -0.0444  0.1087
  999MOL0     O31760   3.357   6.842  10.854  0.2451  0.0382 -0.7755
  999MOL0     C31761   3.270   6.936  10.804 -0.3965  0.2281 -1.1265
  999MOL0     C31762   3.295   7.081  10.796 -0.6612  0.8656  0.3325
  999MOL0     C31763   3.195   7.174  10.767  0.4902  0.1555  0.3666
  999MOL0     C31764   3.064   7.135  10.742  0.6648  0.0647  0.6673
  999MOL0     C31765   2.945   7.225  10.711 -0.0428 -0.0169 -0.7208
  999MOL0     O31766   2.972   7.350  10.682 -0.5519  0.0004  0.0312
  999MOL0     C31767   2.873   7.429  10.652 -0.6535  0.2390 -0.5691
  999MOL0     C31768   2.847   7.539  10.734 -0.1427  0.6678 -1.1577
  999MOL0     C31769   2.739   7.625  10.703  0.5884  0.5440  0.4426
  999MOL0     C31770   2.659   7.599  10.594 -0.4893  0.3655 -0.2208
  999MOL0     O31771   2.559   7.696  10.568  0.6671 -0.7126 -0.4604
  999MOL0     C31772   2.443   7.671  10.494 -0.3800 -0.1821  0.0152
  999MOL0     C31773   2.329   7.598  10.574 -0.9806  0.1864  0.4232
  999MOL0     C31774   2.191   7.625  10.517 -0.0728 -0.3183 -0.0481
  999MOL0     C31775   2.079   7.588  10.605  0.5660  0.8226 -0.9114
  999MOL0     C31776   1.936   7.633  10.569 -0.6674 -0.2720  0.0311
  999MOL0     C31777   1.878   7.565  10.445  0.0361 -0.2222  0.6966
  999MOL0     C31778   1.721   7.564  10.436  0.0262  0.0109 -0.7308
  999MOL0     C31779   1.691   7.655  10.325  0.0744 -0.0168  1.4136
  999MOL0    Cl31780   1.518   7.682  10.319  0.1360  0.2707  0.2811
  999MOL0     C31781   2.685   7.488  10.513  0.3353  0.3858 -0.4369
  999MOL0     C31782   2.797   7.405  10.535 -0.2321 -0.2966  0.1167
  999MOL0     O31783   2.833   7.181  10.742 -0.0620  0.6754 -0.0960
  999MOL0     C31784   3.038   7.000  10.753 -0.5158  0.0772  1.3305
  999MOL0     C31785   3.134   6.902  10.796 -0.5240 -1.3321 -0.6121
  999MOL0     N31786   3.858   6.617  10.937 -0.6654  0.8096  1.2400
  999MOL0     N31787   3.970   6.626  10.986 -0.6150 -0.8258  0.6907
  999MOL0     C31788   4.994   6.498  10.567  0.0464 -0.6537 -0.8134
  999MOL0     C31789   5.137   6.515  10.590 -0.1319 -0.8662 -0.1342
  999MOL0     C31790   5.524   6.720  10.690  0.0714  1.0555 -0.4941
  999MOL0     C31791   5.510   6.798  10.809 -0.4502 -0.5569 -0.6598
  999MOL0     C31792   5.621   6.858  10.874 -0.1358 -0.3856  0.9066
  999MOL0     C31793   5.738   6.876  10.806 -0.8660  0.1718 -0.3498
  999MOL0     O31794   5.846   6.941  10.858  0.9980 -0.4935 -0.4216
  999MOL0     C31795   5.897   6.916  10.987 -0.3933 -0.1929 -0.1177
  999MOL0     C31796   5.974   6.788  10.980 -0.4789  0.9524  0.6553
  999MOL0     C31797   6.036   6.767  11.115  0.0890 -0.5936 -0.8610
  999MOL0     C31798   6.164   6.847  11.131 -0.4701 -1.2015  0.2490
  999MOL0     C31799   6.283   6.768  11.085  0.6310  0.0694  0.6121
  999MOL0     C31800   6.380   6.713  11.035  0.1544 -0.3591 -0.8230
  999MOL0     C31801   5.755   6.817  10.676 -0.3349 -0.6465  0.1271
  999MOL0     C31802   5.646   6.737  10.629  0.4918 -0.7376  1.1971
  999MOL0     H31803   5.110   6.764  10.812  2.4207 -0.0319 -2.1820
  999MOL0     H31804   4.874   6.706  10.800 -0.6319 -1.7946  1.4889
  999MOL0     H31805   4.592   6.581  10.614  0.2341  0.9952  0.0472
  999MOL0     H31806   4.686   6.684  10.717 -1.0398  0.6907 -0.0692
  999MOL0     H31807   4.704   6.497  10.891  0.5509 -1.1819  0.1175
  999MOL0     H31808   4.597   6.403  10.780  0.0752 -0.0265 -1.2883
  999MOL0     H31809   4.433   6.620  10.784 -0.0452  1.7623  1.0542
  999MOL0     H31810   4.507   6.653  10.924 -0.5276 -0.8621  0.0664
  999MOL0     H31811   4.346   6.395  10.929  0.0647  0.0180 -0.3554
  999MOL0     H31812   4.480   6.439  11.036 -0.1911 -3.8398 -2.2297
  999MOL0     H31813   4.230   6.629  10.993  1.1815 -0.1094 -2.8557
  999MOL0     H31814   4.368   6.638  11.111  0.9361  0.8114 -2.4202
  999MOL0     H31815   4.321   6.421  11.206  0.0174 -0.2549 -0.5901
  999MOL0     H31816   4.176   6.415  11.098 -0.4110 -1.0481  2.4351
  999MOL0     H31817   4.074   6.457  11.303  0.5667 -0.9181 -0.5326
  999MOL0     H31818   4.208   6.565  11.346  0.9834  1.7700 -1.9374
  999MOL0     H31819   4.109   6.727  11.174  0.8341 -1.0474 -0.4426
  999MOL0     H31820   3.981   6.686  11.296 -1.9713 -1.0010 -0.7233
  999MOL0     H31821   3.797   6.504  11.238  2.5345 -2.6481  0.9194
  999MOL0     H31822   3.574   6.460  11.064 -2.5105  0.9051  0.5543
  999MOL0     H31823   3.599   6.518  10.895 -2.0093  3.2504 -1.0505
  999MOL0     H31824   3.545   6.722  11.120 -0.4859  3.9558 -0.7703
  999MOL0     H31825   3.430   6.650  11.010 -0.2129  0.5012 -2.5030
  999MOL0     H31826   3.685   6.810  10.919  0.9139  0.0373 -1.1611
  999MOL0     H31827   3.592   6.728  10.809  0.8767  1.7092 -1.1008
  999MOL0     H31828   3.532   6.942  10.814  1.7465  1.1165  1.3907
  999MOL0     H31829   3.474   6.949  10.977 -0.2083  1.3395 -1.0713
  999MOL0     H31830   3.397   7.114  10.812  0.0343 -0.3699 -1.1982
  999MOL0     H31831   3.220   7.280  10.769  0.8990  0.0597  0.3876
  999MOL0     H31832   2.902   7.556  10.826 -2.9824 -1.6536  1.1569
  999MOL0     H31833   2.704   7.710  10.760 -2.6271 -1.2376  1.3880
  999MOL0     H31834   2.470   7.605  10.412 -1.1263 -0.6903  0.1678
  999MOL0     H31835   2.409   7.770  10.462  1.5805 -0.0903 -2.0136
  999MOL0     H31836   2.333   7.619  10.682  1.4260 -2.0258  0.8688
  999MOL0     H31837   2.343   7.490  10.562  0.1469  0.4610 -0.9207
  999MOL0     H31838   2.190   7.557  10.431  0.0394 -0.9087  0.4086
  999MOL0     H31839   2.162   7.723  10.479  1.9058  0.9224  1.4601
  999MOL0     H31840   2.077   7.479  10.596 -1.2712  0.7324  0.1397
  999MOL0     H31841   2.084   7.624  10.709  0.9802  0.1397 -0.6869
  999MOL0     H31842   1.932   7.742  10.556 -1.6417 -0.5190 -2.1324
  999MOL0     H31843   1.877   7.603  10.656 -1.6553  3.4830  0.8528
  999MOL0     H31844   1.910   7.461  10.445  0.8011 -0.2015 -3.9171
  999MOL0     H31845   1.918   7.598  10.348 -3.1493 -0.6432 -0.8889
  999MOL0     H31846   1.684   7.462  10.427  0.8749 -0.3321 -0.4081
  999MOL0     H31847   1.672   7.604  10.525 -0.5113 -0.1424 -0.9560
  999MOL0     H31848   1.716   7.605  10.231 -0.7819 -0.1226  1.2249
  999MOL0     H31849   1.744   7.749  10.338  0.7928 -0.4816  1.8852
  999MOL0     H31850   2.626   7.473  10.424 -0.2342  0.8399 -0.1396
  999MOL0     H31851   2.825   7.315  10.481  1.5618 -1.2205  2.3950
  999MOL0     H31852   2.936   6.969  10.735 -1.4084  3.3142  0.1235
  999MOL0     H31853   3.089   6.805  10.810 -1.2501 -0.9298 -0.0385
  999MOL0     H31854   4.956   6.426  10.496 -0.9005 -1.1443  0.1630
  999MOL0     H31855   5.204   6.445  10.542 -1.0643 -0.3977 -2.1958
  999MOL0     H31856   5.417   6.795  10.865  0.9610 -1.5784  1.7771
  999MOL0     H31857   5.597   6.911  10.965 -3.7977  1.9149 -1.1223
  999MOL0     H31858   5.820   6.910  11.064 -1.0807 -1.0125 -0.8564
  999MOL0     H31859   5.962   6.996  11.022 -1.4820  0.2483  0.9589
  999MOL0     H31860   5.904   6.710  10.949  0.9628 -1.7111  3.5356
  999MOL0     H31861   6.051   6.806  10.904 -0.4713  2.8823  1.0657
  999MOL0     H31862   6.064   6.662  11.126  2.5082 -0.0876 -1.5195
  999MOL0     H31863   5.960   6.778  11.193 -0.5617 -3.1542 -1.0311
  999MOL0     H31864   6.171   6.931  11.061  1.2625 -1.3919  0.1423
  999MOL0     H31865   6.183   6.887  11.232  0.6268  0.6688 -0.6265
  999MOL0     H31866   6.475   6.665  11.020  1.0769  0.6880  1.2486
  999MOL0     H31867   5.847   6.840  10.624 -1.1210 -0.8111 -1.4163
  999MOL0     H31868   5.665   6.703  10.528 -0.2188  0.1768  0.7327
 1000MOL0     O31869  10.566   2.616   3.832  0.1687 -0.2577 -0.1662
 1000MOL0     C31870  10.571   2.668   3.943 -0.2464  0.1994  0.8429
 1000MOL0     O31871  10.545   2.802   3.979  0.0519 -0.2524  0.3459
 1000MOL0     C31872  10.512   2.890   3.887  0.0854  0.3211  0.8274
 1000MOL0     C31873  10.413   2.975   3.917  0.3473 -0.3869  0.4463
 1000MOL0     C31874  10.358   3.067   3.821 -0.9199  0.2235 -0.4605
 1000MOL0     C31875  10.422   3.081   3.695  0.6122  0.8657  0.8135
 1000MOL0     O31876  10.359   3.155   3.596 -0.7319 -0.3691  0.5021
 1000MOL0     C31877  10.269   3.268   3.617  0.1865 -0.4776  0.3161
 1000MOL0     C31878  10.253   3.355   3.492 -0.1992 -0.8481  0.2108
 1000MOL0     C31879  10.390   3.405   3.431  0.6473  0.1488  0.0802
 1000MOL0     C31880  10.390   3.466   3.289 -0.2551  0.2252  0.4879
 1000MOL0     C31881  10.531   3.501   3.246  0.5038  0.4355  0.3065
 1000MOL0     C31882  10.538   3.608   3.132 -0.1565 -0.6514  0.2073
 1000MOL0     C31883  10.664   3.693   3.120 -1.5377  0.0669 -0.5231
 1000MOL0     C31884  10.706   3.771   3.248 -0.5796 -0.3423  1.0605
 1000MOL0     N31885  10.592   3.833   3.320  0.0493  0.0529  0.8199
 1000MOL0     C31886  10.499   3.773   3.403  0.0429  0.1449  0.0322
 1000MOL0     C31887  10.409   3.864   3.431  0.4136  0.2266  0.2985
 1000MOL0     C31888  10.288   3.854   3.522 -0.0365 -1.0556 -0.7535
 1000MOL0     C31889  10.174   3.803   3.442 -0.2694 -0.1077  0.8553
 1000MOL0     C31890  10.041   3.774   3.510 -0.6915 -0.3847 -0.2398
 1000MOL0     C31891   9.971   3.905   3.533  1.1177 -1.0990 -0.0497
 1000MOL0     O31892   9.829   3.907   3.561 -0.1077 -0.5259  0.6368
 1000MOL0     C31893   9.762   3.874   3.674 -0.1233 -1.2181  0.5177
 1000MOL0     C31894   9.812   3.784   3.766  1.3393  0.3521 -1.0798
 1000MOL0     C31895   9.742   3.761   3.884 -0.0399 -0.2538 -0.2476
 1000MOL0     C31896   9.616   3.820   3.908 -0.1735 -0.3878 -2.2583
 1000MOL0     C31897   9.536   3.788   4.028  0.0029  0.2401  0.5190
 1000MOL0     O31898   9.418   3.849   4.036  1.1026  0.1226 -0.7974
 1000MOL0     C31899   9.331   3.815   4.139  0.4116 -0.1236  0.7191
 1000MOL0     C31900   9.296   3.684   4.177 -0.0277 -0.7740  0.6480
 1000MOL0     C31901   9.221   3.672   4.298 -0.1438  0.1250  0.5626
 1000MOL0     C31902   9.166   3.781   4.367  0.3572  0.6795 -0.0072
 1000MOL0     O31903   9.103   3.753   4.488 -0.4793  0.3274 -0.6363
 1000MOL0     C31904   9.094   3.848   4.594 -0.0410  0.2640 -0.1109
 1000MOL0     C31905   9.055   3.787   4.728  0.6349 -0.4655 -0.6190
 1000MOL0     C31906   9.148   3.673   4.774  0.6288 -0.5263  0.4911
 1000MOL0     C31907   9.292   3.708   4.826 -0.6808  0.5196 -0.6827
 1000MOL0     C31908   9.304   3.799   4.955  0.0403 -0.6697 -0.1545
 1000MOL0     C31909   9.452   3.841   4.988 -0.0747  0.6481  0.9273
 1000MOL0     C31910   9.473   3.914   5.123  0.4369  0.2490  0.4550
 1000MOL0     C31911   9.579   3.849   5.220  0.4076 -0.0400 -0.6719
 1000MOL0    Cl31912   9.511   3.705   5.305  0.4404 -0.2538  0.1481
 1000MOL0     C31913   9.190   3.908   4.318  0.2600 -0.4811 -0.6748
 1000MOL0     C31914   9.269   3.924   4.201  0.1357 -0.4077  0.4592
 1000MOL0     O31915   9.573   3.692   4.095 -0.2389  0.6286 -0.9651
 1000MOL0     C31916   9.575   3.917   3.820 -0.2813  0.5247 -0.3240
 1000MOL0     C31917   9.641   3.932   3.700 -0.1303  0.1429 -0.1453
 1000MOL0     N31918  10.438   3.979   3.360  0.5716 -0.9117 -0.2330
 1000MOL0     N31919  10.543   3.961   3.297 -0.1394  0.4554 -0.0780
 1000MOL0     C31920  10.541   3.006   3.666  0.2812  0.0351  0.0506
 1000MOL0     C31921  10.581   2.910   3.761 -0.6849 -0.0451 -0.7455
 1000MOL0     C31922  10.623   2.590   4.056  0.5584  0.2075 -0.3734
 1000MOL0     C31923  10.679   2.461   4.029 -0.7450  0.7671 -0.2328
 1000MOL0     C31924  10.713   2.374   4.133 -0.6196 -0.2159 -0.4442
 1000MOL0     C31925  10.711   2.415   4.264 -0.5134 -0.2869 -0.4847
 1000MOL0     O31926  10.744   2.321   4.363  0.1451 -0.7385  0.1684
 1000MOL0     C31927  10.667   2.334   4.485  0.0665  1.2308  0.2397
 1000MOL0     C31928  10.669   2.191   4.553  0.2415 -0.0732 -0.2823
 1000MOL0     C31929  10.603   2.087   4.458 -0.6918  0.1287 -0.6587
 1000MOL0     C31930  10.692   1.963   4.432 -0.0333 -0.2296  0.9776
 1000MOL0     C31931  10.669   1.869   4.540 -0.2273 -0.9264  0.1110
 1000MOL0     C31932  10.649   1.798   4.634  0.1934  0.4655 -0.4913
 1000MOL0     C31933  10.664   2.544   4.295 -0.0615  0.1607  0.9756
 1000MOL0     C31934  10.632   2.636   4.189  0.4915 -0.0872 -0.3411
 1000MOL0     H31935  10.367   2.985   4.015  0.7984 -1.6639  0.8053
 1000MOL0     H31936  10.269   3.125   3.843  0.5366  2.5581 -0.3734
 1000MOL0     H31937  10.310   3.327   3.699  0.8077 -1.6659  0.8938
 1000MOL0     H31938  10.167   3.238   3.642  0.1401  0.6286  1.5100
 1000MOL0     H31939  10.184   3.436   3.519 -1.3162 -1.9908  0.8748
 1000MOL0     H31940  10.202   3.295   3.417 -1.3912 -1.2437  1.2860
 1000MOL0     H31941  10.471   3.331   3.440  2.5641  1.9771 -1.1882
 1000MOL0     H31942  10.408   3.489   3.499 -0.5829 -0.4681  1.2044
 1000MOL0     H31943  10.343   3.391   3.225 -0.3030  0.6836 -0.0227
 1000MOL0     H31944  10.338   3.562   3.293  0.3048  0.7466 -2.6652
 1000MOL0     H31945  10.586   3.409   3.223 -1.8123 -0.4223 -2.4986
 1000MOL0     H31946  10.572   3.531   3.343 -0.7261 -0.8361  1.2693
 1000MOL0     H31947  10.447   3.669   3.141 -0.1606 -0.6098 -0.0726
 1000MOL0     H31948  10.532   3.551   3.038  4.1036 -0.6828 -0.2628
 1000MOL0     H31949  10.740   3.624   3.085 -2.1526  0.5118 -2.8791
 1000MOL0     H31950  10.652   3.770   3.044  0.7885  1.5903  0.5348
 1000MOL0     H31951  10.782   3.848   3.232  0.7184 -1.6712  0.6374
 1000MOL0     H31952  10.755   3.697   3.312  4.5147 -1.5887 -3.5662
 1000MOL0     H31953  10.503   3.683   3.463  1.1716  0.7570  0.9154
 1000MOL0     H31954  10.288   3.954   3.567  1.3805 -1.7757  0.9550
 1000MOL0     H31955  10.316   3.786   3.603 -1.2270  0.3546  0.9175
 1000MOL0     H31956  10.192   3.700   3.410 -1.4603 -0.8010  2.2752
 1000MOL0     H31957  10.162   3.849   3.344 -4.1318 -2.7830 -0.1570
 1000MOL0     H31958   9.986   3.697   3.454 -2.0368 -0.3894  1.0204
 1000MOL0     H31959  10.064   3.730   3.607 -1.0480 -2.8591 -1.1869
 1000MOL0     H31960   9.967   3.968   3.443 -2.4812  1.2242  1.4998
 1000MOL0     H31961  10.017   3.969   3.609 -0.7642 -0.2883  0.4668
 1000MOL0     H31962   9.910   3.737   3.763  1.1524 -0.2094  0.7554
 1000MOL0     H31963   9.779   3.690   3.957  0.9487 -2.8234 -2.9998
 1000MOL0     H31964   9.362   3.611   4.131  2.5144  1.1178  1.0548
 1000MOL0     H31965   9.187   3.577   4.337 -0.6908 -0.8253 -1.9882
 1000MOL0     H31966   9.013   3.915   4.562  0.7893  1.3960  0.1058
 1000MOL0     H31967   9.191   3.899   4.598  1.6804 -2.7981  3.8269
 1000MOL0     H31968   8.954   3.750   4.711 -0.0361  1.2928 -0.7126
 1000MOL0     H31969   9.049   3.875   4.793 -0.0884  0.0107 -1.3121
 1000MOL0     H31970   9.154   3.616   4.680 -0.0344  0.8447 -0.4168
 1000MOL0     H31971   9.097   3.606   4.844 -2.1735  1.0076  0.0870
 1000MOL0     H31972   9.339   3.611   4.848 -0.8042  0.2340 -1.6241
 1000MOL0     H31973   9.346   3.749   4.741 -0.9376 -0.7820 -1.5167
 1000MOL0     H31974   9.262   3.755   5.046  2.4000  0.4848  1.5792
 1000MOL0     H31975   9.259   3.898   4.937  1.5692 -0.1772 -1.5528
 1000MOL0     H31976   9.493   3.894   4.901 -1.7202 -3.0171 -2.3511
 1000MOL0     H31977   9.506   3.747   4.995 -0.3007  0.3213 -1.0365
 1000MOL0     H31978   9.476   4.022   5.109 -2.7373  0.6974  2.2519
 1000MOL0     H31979   9.374   3.912   5.168 -0.2058  0.7828 -0.8914
 1000MOL0     H31980   9.596   3.906   5.312 -1.2708 -1.4727  0.6057
 1000MOL0     H31981   9.679   3.840   5.177  0.0577 -1.0633 -1.3094
 1000MOL0     H31982   9.151   3.999   4.361  1.7017  1.1584 -2.6215
 1000MOL0     H31983   9.282   4.027   4.171  1.8861 -0.8441 -0.4032
 1000MOL0     H31984   9.482   3.972   3.832  0.8723  2.1862  1.7796
 1000MOL0     H31985   9.611   4.011   3.632  2.0517  1.7660  0.6952
 1000MOL0     H31986  10.579   3.010   3.564 -1.6747  0.3137 -0.7119
 1000MOL0     H31987  10.653   2.836   3.728 -1.4052 -0.3713 -1.6530
 1000MOL0     H31988  10.683   2.424   3.927  0.3626 -1.6676  0.6166
 1000MOL0     H31989  10.735   2.271   4.105  0.5894  0.0973 -0.6872
 1000MOL0     H31990  10.564   2.368   4.473  0.2526  0.9909 -2.5900
 1000MOL0     H31991  10.709   2.406   4.556 -0.9694 -1.5257  3.9765
 1000MOL0     H31992  10.764   2.151   4.591  1.0799  1.0558 -1.1513
 1000MOL0     H31993  10.606   2.214   4.639 -0.0401 -0.8397 -0.2729
 1000MOL0     H31994  10.579   2.129   4.360 -2.2278 -0.8394 -0.7325
 1000MOL0     H31995  10.511   2.051   4.506 -0.1781  0.6827  0.8060
 1000MOL0     H31996  10.660   1.915   4.339  2.6968 -1.5143  0.6044
 1000MOL0     H31997  10.797   1.993   4.427 -0.3849  1.0090  0.8690
 1000MOL0     H31998  10.645   1.741   4.724  0.3457  2.0523  0.5528
 1000MOL0     H31999  10.667   2.569   4.401 -1.7639 -0.0676  1.0963
 1000MOL0     H32000  10.604   2.740   4.206 -0.4082 -0.7115  2.3314
 1001MOL0     O32001   6.199   4.350   2.728 -0.1215  0.1578  0.0990
 1001MOL0     C32002   6.297   4.319   2.656 -0.0015 -0.0430 -1.1081
 1001MOL0     O32003   6.322   4.356   2.522 -0.6512 -0.1422 -0.1817
 1001MOL0     C32004   6.247   4.445   2.451 -0.2900  0.5426 -0.2359
 1001MOL0     C32005   6.190   4.558   2.517 -0.3259  0.3101 -0.2111
 1001MOL0     C32006   6.120   4.654   2.444  1.2746  0.8529 -0.2395
 1001MOL0     C32007   6.111   4.632   2.304  0.0417 -0.5150 -0.4970
 1001MOL0     O32008   6.037   4.728   2.232  0.0769 -0.1687 -0.2572
 1001MOL0     C32009   5.992   4.695   2.099  0.4513  0.8846  0.7016
 1001MOL0     C32010   5.895   4.804   2.063 -1.0240 -0.2983 -0.4881
 1001MOL0     C32011   5.774   4.821   2.155  0.3358  0.8089 -0.5464
 1001MOL0     C32012   5.698   4.937   2.105  0.4093  0.7349 -0.1735
 1001MOL0     C32013   5.551   4.924   2.163 -0.1954 -0.4884  0.8485
 1001MOL0     C32014   5.471   5.058   2.153  0.1436 -0.1568 -1.0381
 1001MOL0     C32015   5.440   5.132   2.019  0.3787 -0.5946 -0.1975
 1001MOL0     C32016   5.540   5.242   1.981 -0.8882  0.2829 -0.9066
 1001MOL0     N32017   5.477   5.328   1.882 -0.7936  0.3638 -0.4711
 1001MOL0     C32018   5.530   5.442   1.840  0.3560 -0.3813  0.1369
 1001MOL0     C32019   5.446   5.494   1.742 -1.4145  0.2081  0.6970
 1001MOL0     C32020   5.462   5.634   1.695  1.0018  0.7682  0.1037
 1001MOL0     C32021   5.342   5.718   1.731  0.3774  0.2580  0.5688
 1001MOL0     C32022   5.219   5.684   1.631 -0.1765 -0.4561 -0.1479
 1001MOL0     C32023   5.091   5.635   1.705  0.1591 -0.8579  0.2503
 1001MOL0     O32024   5.043   5.742   1.789 -0.3192  0.7210 -0.3129
 1001MOL0     C32025   4.953   5.836   1.737  0.6005 -0.1141  1.2906
 1001MOL0     C32026   4.934   5.950   1.818 -0.1647 -0.3194  0.6067
 1001MOL0     C32027   4.842   6.047   1.786 -0.8450  0.2441 -0.3709
 1001MOL0     C32028   4.759   6.033   1.668  0.3150  0.4730  0.2357
 1001MOL0     C32029   4.650   6.125   1.629 -0.0405  0.6173 -0.2761
 1001MOL0     O32030   4.554   6.090   1.539 -0.3353 -0.6015 -0.3665
 1001MOL0     C32031   4.446   6.173   1.505 -0.5669 -0.1970 -0.3011
 1001MOL0     C32032   4.375   6.262   1.589 -0.7810  1.4348  0.1470
 1001MOL0     C32033   4.250   6.316   1.557 -0.8398  0.0399  1.0687
 1001MOL0     C32034   4.208   6.304   1.427  0.3090 -0.6701 -0.0620
 1001MOL0     O32035   4.086   6.360   1.397  0.4135 -0.7602 -0.2572
 1001MOL0     C32036   4.043   6.361   1.256 -0.0948  0.3193 -0.4737
 1001MOL0     C32037   3.921   6.456   1.237 -0.8434 -0.1627 -0.1369
 1001MOL0     C32038   3.806   6.410   1.322  0.7183  0.4695 -0.1560
 1001MOL0     C32039   3.688   6.503   1.287 -1.2909 -1.2204 -0.4110
 1001MOL0     C32040   3.567   6.474   1.371 -0.3244 -0.9225 -0.1448
 1001MOL0     C32041   3.441   6.519   1.304  0.1062 -1.6350  0.3632
 1001MOL0     C32042   3.313   6.489   1.392 -0.9087  0.3590 -0.7052
 1001MOL0     C32043   3.195   6.538   1.322  0.1706 -0.3209 -0.6431
 1001MOL0    Cl32044   3.192   6.723   1.324  0.1409 -0.1094 -0.0235
 1001MOL0     C32045   4.275   6.220   1.334  0.6266  0.8572  0.6446
 1001MOL0     C32046   4.389   6.156   1.380 -0.0139 -0.0119  0.1793
 1001MOL0     O32047   4.662   6.238   1.680  0.4427  0.5827  0.3514
 1001MOL0     C32048   4.768   5.910   1.594 -0.6998  0.4014 -0.9396
 1001MOL0     C32049   4.863   5.815   1.630 -0.8394  0.3762  0.1335
 1001MOL0     N32050   5.352   5.399   1.722 -0.0560 -0.3382  0.1683
 1001MOL0     N32051   5.376   5.300   1.799 -0.0105  0.2584  0.1746
 1001MOL0     C32052   6.179   4.522   2.245 -0.5366 -0.5111  0.0123
 1001MOL0     C32053   6.259   4.433   2.316  0.3336 -0.0535  0.9063
 1001MOL0     C32054   6.401   4.240   2.731  0.5429  0.0358 -0.1377
 1001MOL0     C32055   6.502   4.169   2.664  0.5103  0.2902  0.2249
 1001MOL0     C32056   6.601   4.104   2.737 -1.2243 -0.3556  0.1012
 1001MOL0     C32057   6.611   4.114   2.873 -0.1008 -0.0731 -0.4831
 1001MOL0     O32058   6.703   4.055   2.947 -0.0484  0.1853 -0.3620
 1001MOL0     C32059   6.838   4.071   2.896  0.1407 -0.0851 -0.5746
 1001MOL0     C32060   6.940   4.015   2.993  0.1778 -0.2619 -0.1624
 1001MOL0     C32061   7.070   4.039   2.923  0.7273  0.2417  0.4937
 1001MOL0     C32062   7.186   4.019   3.023  0.3969  0.7399  0.3049
 1001MOL0     C32063   7.309   4.031   2.945 -0.4181  0.7793  0.1582
 1001MOL0     C32064   7.399   4.048   2.868 -0.4261  0.7289  0.9057
 1001MOL0     C32065   6.510   4.181   2.933 -1.1257  0.1321 -1.0725
 1001MOL0     C32066   6.403   4.240   2.868 -0.3046  0.5668 -0.1678
 1001MOL0     H32067   6.197   4.576   2.624 -2.5070  3.4644 -0.4621
 1001MOL0     H32068   6.057   4.728   2.492  1.5417  1.0565 -0.2006
 1001MOL0     H32069   5.933   4.605   2.079 -1.4017  2.2743 -0.3574
 1001MOL0     H32070   6.070   4.695   2.022 -0.3041  1.4968 -0.0796
 1001MOL0     H32071   5.867   4.807   1.957 -2.2550  2.7169 -0.1756
 1001MOL0     H32072   5.950   4.898   2.056  2.9410 -1.9962  3.1076
 1001MOL0     H32073   5.811   4.822   2.258 -0.1122 -0.3708 -0.3567
 1001MOL0     H32074   5.707   4.734   2.152  0.2283  0.8624  0.1695
 1001MOL0     H32075   5.738   5.036   2.126  3.9386 -0.6561  0.4010
 1001MOL0     H32076   5.702   4.944   1.995 -1.0065 -0.7038 -0.3603
 1001MOL0     H32077   5.542   4.896   2.268 -4.6382  0.9906  1.0825
 1001MOL0     H32078   5.502   4.841   2.111 -0.7361  1.5072 -2.0988
 1001MOL0     H32079   5.544   5.125   2.200  1.6513 -2.2192 -0.2590
 1001MOL0     H32080   5.384   5.043   2.217  0.2370  2.3008 -0.2151
 1001MOL0     H32081   5.419   5.062   1.938 -2.2592 -1.7581  1.3614
 1001MOL0     H32082   5.342   5.180   2.027 -0.5278 -1.5288 -3.7201
 1001MOL0     H32083   5.637   5.202   1.950 -0.3184  1.1973 -0.3510
 1001MOL0     H32084   5.569   5.300   2.069  0.2976  0.3611 -1.3234
 1001MOL0     H32085   5.612   5.485   1.896 -1.2072  0.0473  2.2565
 1001MOL0     H32086   5.470   5.650   1.587 -4.9953 -1.8842 -1.1303
 1001MOL0     H32087   5.552   5.682   1.735  4.0306 -3.8433 -0.4703
 1001MOL0     H32088   5.352   5.826   1.743 -3.4868  0.5383  2.8324
 1001MOL0     H32089   5.304   5.692   1.830 -1.2120 -0.0195 -0.0789
 1001MOL0     H32090   5.189   5.774   1.577 -2.8515 -0.8565  0.5093
 1001MOL0     H32091   5.252   5.611   1.556  0.7375  1.8759 -2.1719
 1001MOL0     H32092   5.134   5.556   1.767  2.0359 -0.0245  0.0910
 1001MOL0     H32093   5.021   5.591   1.634  1.4348 -0.4798 -1.2862
 1001MOL0     H32094   4.996   5.962   1.907  0.5866  0.2434  0.0141
 1001MOL0     H32095   4.837   6.127   1.859 -1.9985 -1.1748  1.1677
 1001MOL0     H32096   4.414   6.278   1.690 -0.0020 -3.3572  0.8300
 1001MOL0     H32097   4.195   6.375   1.630  0.6478  1.5320  1.0448
 1001MOL0     H32098   4.013   6.260   1.227  1.5625 -0.8748  1.6625
 1001MOL0     H32099   4.125   6.394   1.192 -0.0192  1.0142 -0.0353
 1001MOL0     H32100   3.888   6.463   1.133 -0.9451  3.0490  0.0283
 1001MOL0     H32101   3.960   6.555   1.262 -1.4670  0.2182 -0.6629
 1001MOL0     H32102   3.833   6.421   1.428  0.9290 -1.0755 -0.0313
 1001MOL0     H32103   3.785   6.304   1.306 -0.3883  0.8817 -1.6252
 1001MOL0     H32104   3.706   6.610   1.285 -3.4290 -0.8002 -2.3283
 1001MOL0     H32105   3.665   6.477   1.183 -1.3207 -2.2112 -0.1690
 1001MOL0     H32106   3.579   6.525   1.467 -0.0994 -3.7694  1.4444
 1001MOL0     H32107   3.569   6.367   1.392  1.4453 -0.8854  0.0130
 1001MOL0     H32108   3.439   6.458   1.213 -0.4851 -0.1466 -0.6594
 1001MOL0     H32109   3.464   6.624   1.288 -1.0520 -1.1644  1.5576
 1001MOL0     H32110   3.324   6.381   1.400  1.9168  0.3763 -2.6497
 1001MOL0     H32111   3.327   6.534   1.491 -0.3317 -0.9857 -0.1547
 1001MOL0     H32112   3.109   6.514   1.385 -0.6138  1.4589 -0.9694
 1001MOL0     H32113   3.170   6.502   1.222 -3.6772 -0.6998  0.2789
 1001MOL0     H32114   4.235   6.201   1.235  0.4832 -1.0741  1.0199
 1001MOL0     H32115   4.436   6.084   1.314  3.7338  3.2411 -1.0330
 1001MOL0     H32116   4.697   5.886   1.516 -2.1449  1.6128 -0.0478
 1001MOL0     H32117   4.863   5.724   1.571  0.2966  0.4636 -0.0274
 1001MOL0     H32118   6.191   4.518   2.137  1.5973 -1.8701  0.2248
 1001MOL0     H32119   6.309   4.356   2.257 -4.7175 -0.2405 -3.9580
 1001MOL0     H32120   6.509   4.165   2.556  2.4782 -4.8853  0.2680
 1001MOL0     H32121   6.680   4.053   2.683  1.8632  2.1482  1.9515
 1001MOL0     H32122   6.870   4.172   2.872  1.3258 -0.6796 -1.6006
 1001MOL0     H32123   6.847   4.017   2.801  3.5934 -0.3677 -0.1932
 1001MOL0     H32124   6.942   4.073   3.086  0.4143 -1.4187  0.5770
 1001MOL0     H32125   6.925   3.911   3.025  3.2851 -0.8725 -0.3953
 1001MOL0     H32126   7.087   4.136   2.875 -4.1438  1.2263  0.2643
 1001MOL0     H32127   7.074   3.963   2.845 -2.0327  0.1892  0.3131
 1001MOL0     H32128   7.177   4.100   3.096  0.2698  0.7601  0.2675
 1001MOL0     H32129   7.184   3.921   3.071 -3.1390 -0.4178 -1.7801
 1001MOL0     H32130   7.490   4.056   2.811 -1.3744  0.0549 -0.7616
 1001MOL0     H32131   6.525   4.166   3.040  0.1661 -2.1558 -1.5024
 1001MOL0     H32132   6.332   4.303   2.920 -3.2455 -1.3131 -1.6094
 1002MOL0     O32133   7.589   5.428   4.408  0.5840 -0.6181  0.9546
 1002MOL0     C32134   7.686   5.426   4.331 -0.7556 -0.6342 -0.1047
 1002MOL0     O32135   7.716   5.511   4.238  1.2359 -0.2465 -0.6741
 1002MOL0     C32136   7.616   5.593   4.192  0.5961  0.1423  0.0191
 1002MOL0     C32137   7.595   5.580   4.063 -1.0707 -0.5997  0.6496
 1002MOL0     C32138   7.501   5.665   4.000 -0.9566 -0.6763  0.3252
 1002MOL0     C32139   7.441   5.772   4.074  0.3941 -0.6415  0.1922
 1002MOL0     O32140   7.339   5.843   4.018 -0.3758 -0.4477 -0.0913
 1002MOL0     C32141   7.237   5.908   4.092  0.2008 -0.0899  0.1633
 1002MOL0     C32142   7.124   5.975   4.003 -0.2479 -0.3240  0.2627
 1002MOL0     C32143   7.024   6.057   4.091  0.5907 -1.0040 -0.3563
 1002MOL0     C32144   6.948   5.969   4.198  0.6711 -0.3736 -0.5354
 1002MOL0     C32145   6.860   5.860   4.150  0.3489  0.4991 -0.5285
 1002MOL0     C32146   6.877   5.726   4.222  0.2051  0.1442  0.0737
 1002MOL0     C32147   6.766   5.628   4.174 -0.7483 -0.0367  0.0316
 1002MOL0     C32148   6.766   5.490   4.246 -0.2467  0.9352  0.7656
 1002MOL0     N32149   6.649   5.410   4.204  0.6674  0.8670  0.4909
 1002MOL0     C32150   6.610   5.291   4.260  0.6551 -1.2601 -0.5235
 1002MOL0     C32151   6.488   5.272   4.213 -0.1340  0.0741 -0.4410
 1002MOL0     C32152   6.404   5.149   4.241  0.2315 -0.1179  0.2589
 1002MOL0     C32153   6.442   5.044   4.139 -0.1629 -0.1935 -0.6114
 1002MOL0     C32154   6.356   4.916   4.152  0.2395  1.0308  0.5400
 1002MOL0     C32155   6.257   4.891   4.034 -0.1904 -0.2983  0.5874
 1002MOL0     O32156   6.158   4.993   4.037 -0.4252 -0.0361 -0.5635
 1002MOL0     C32157   6.069   5.005   3.934 -0.5158 -0.2606  0.3190
 1002MOL0     C32158   6.040   4.894   3.857 -0.2591  0.2361  0.0768
 1002MOL0     C32159   5.944   4.908   3.756 -0.3597  0.6700 -0.5452
 1002MOL0     C32160   5.893   5.032   3.723 -0.5567 -0.7347  0.3743
 1002MOL0     C32161   5.799   5.040   3.607 -0.0743  0.5402 -0.4616
 1002MOL0     O32162   5.756   5.161   3.561 -0.6514 -0.0154  0.1344
 1002MOL0     C32163   5.671   5.154   3.448 -0.1284 -0.3429 -0.1755
 1002MOL0     C32164   5.533   5.182   3.458  0.3193  0.3490  0.4347
 1002MOL0     C32165   5.460   5.194   3.327  0.2794  0.1119 -1.5420
 1002MOL0     C32166   5.522   5.163   3.209 -0.0229  0.1320 -0.4540
 1002MOL0     O32167   5.435   5.158   3.092  0.4534  0.7684  0.1028
 1002MOL0     C32168   5.475   5.088   2.974  0.4335 -0.1478  1.0010
 1002MOL0     C32169   5.358   5.092   2.878 -0.7380  0.5668 -0.7914
 1002MOL0     C32170   5.384   4.987   2.771  0.2424  0.8117 -0.3561
 1002MOL0     C32171   5.373   4.839   2.820  0.0970 -0.1513 -0.2478
 1002MOL0     C32172   5.393   4.744   2.697  1.0291 -0.0818 -0.4734
 1002MOL0     C32173   5.525   4.748   2.629 -0.5956  0.1556  0.3526
 1002MOL0     C32174   5.537   4.636   2.530 -0.3587 -0.2036 -0.3333
 1002MOL0     C32175   5.678   4.630   2.477  0.3643  0.3572  0.6157
 1002MOL0    Cl32176   5.684   4.485   2.375  0.1779 -0.5171  0.0548
 1002MOL0     C32177   5.664   5.135   3.207 -0.0756 -0.3334  0.2152
 1002MOL0     C32178   5.731   5.121   3.327 -0.1514 -1.3555 -0.2191
 1002MOL0     O32179   5.755   4.933   3.568 -0.0375  0.1466 -0.3228
 1002MOL0     C32180   5.928   5.142   3.798 -0.2578 -0.6247 -0.3117
 1002MOL0     C32181   6.011   5.130   3.912  0.6462  0.1322  0.6262
 1002MOL0     N32182   6.448   5.368   4.126  0.3776 -0.7087  0.3867
 1002MOL0     N32183   6.548   5.458   4.121 -0.2156 -0.0364  0.2675
 1002MOL0     C32184   7.467   5.780   4.212  0.9902  0.7228 -0.4280
 1002MOL0     C32185   7.549   5.687   4.270 -0.5333 -0.6048 -0.6706
 1002MOL0     C32186   7.784   5.325   4.365 -0.2400 -0.1343  0.3665
 1002MOL0     C32187   7.914   5.341   4.316  1.4169  0.2236 -0.4473
 1002MOL0     C32188   8.017   5.247   4.336 -0.0368 -0.5859 -0.8476
 1002MOL0     C32189   7.987   5.127   4.397 -0.0538 -0.0265 -0.0465
 1002MOL0     O32190   8.095   5.042   4.411 -0.0752  0.3279 -0.1432
 1002MOL0     C32191   8.154   4.978   4.294 -1.0454  0.9123 -0.3832
 1002MOL0     C32192   8.081   4.862   4.254  0.6626  0.7319 -0.7402
 1002MOL0     C32193   8.076   4.738   4.342  1.0227  0.4103 -0.7862
 1002MOL0     C32194   7.962   4.733   4.449 -0.2282 -0.6123 -0.1699
 1002MOL0     C32195   7.931   4.600   4.508 -0.0552 -0.2601 -0.9151
 1002MOL0     C32196   7.920   4.494   4.553  0.0078  0.5385 -0.5609
 1002MOL0     C32197   7.857   5.112   4.449 -0.3498  0.2356  0.7788
 1002MOL0     C32198   7.750   5.212   4.436 -0.3215  1.0896 -0.9597
 1002MOL0     H32199   7.643   5.504   4.002  1.3309  0.4561  1.1024
 1002MOL0     H32200   7.467   5.646   3.899 -5.0345  0.4900  1.2994
 1002MOL0     H32201   7.285   5.986   4.151  2.8765  1.0834 -3.2340
 1002MOL0     H32202   7.189   5.844   4.167 -0.5909  3.4145  2.8574
 1002MOL0     H32203   7.072   5.904   3.937 -0.5954  2.3586 -2.6156
 1002MOL0     H32204   7.170   6.050   3.939  1.5877  1.9145  3.8903
 1002MOL0     H32205   6.950   6.103   4.025  0.5463 -0.2766  0.1964
 1002MOL0     H32206   7.065   6.144   4.142 -1.7076 -0.7434  1.1889
 1002MOL0     H32207   7.000   5.920   4.281  0.8675 -1.6064 -1.3629
 1002MOL0     H32208   6.892   6.050   4.246  4.0869  3.0126 -1.8149
 1002MOL0     H32209   6.884   5.839   4.045  1.4185  0.4489 -0.2908
 1002MOL0     H32210   6.755   5.890   4.155  0.6264  1.6023 -1.0837
 1002MOL0     H32211   6.853   5.738   4.328  1.0685  2.1711  0.0906
 1002MOL0     H32212   6.975   5.678   4.215  0.5076  0.9279 -1.4500
 1002MOL0     H32213   6.670   5.676   4.194 -0.2602  0.1628  2.1468
 1002MOL0     H32214   6.780   5.615   4.066  0.2088  0.8765  0.0282
 1002MOL0     H32215   6.762   5.519   4.351  2.1566  3.1146  0.3503
 1002MOL0     H32216   6.857   5.432   4.234 -0.9758 -0.2690  0.9374
 1002MOL0     H32217   6.665   5.233   4.333  0.1804 -2.3457 -1.0148
 1002MOL0     H32218   6.303   5.179   4.212  0.7264 -0.5462 -2.1307
 1002MOL0     H32219   6.414   5.116   4.345  1.1868 -0.2809  0.1219
 1002MOL0     H32220   6.548   5.018   4.133  0.2395  0.4118  2.2219
 1002MOL0     H32221   6.423   5.090   4.042 -0.7315  2.6438  0.7516
 1002MOL0     H32222   6.409   4.820   4.157 -3.2560 -1.3009 -2.3573
 1002MOL0     H32223   6.299   4.932   4.243  1.1799 -1.1798  1.5970
 1002MOL0     H32224   6.220   4.788   4.047  2.1946 -1.3058  0.0456
 1002MOL0     H32225   6.307   4.889   3.937  2.7878 -0.7973  2.0137
 1002MOL0     H32226   6.063   4.790   3.875 -1.2411 -0.1670 -0.8413
 1002MOL0     H32227   5.916   4.822   3.697  3.6294  0.3405 -2.2408
 1002MOL0     H32228   5.470   5.205   3.543 -2.2640  0.6989 -1.4694
 1002MOL0     H32229   5.353   5.203   3.314  0.2372 -1.1657 -2.2764
 1002MOL0     H32230   5.509   4.989   3.004  1.9096 -0.1459 -0.5548
 1002MOL0     H32231   5.562   5.139   2.933 -0.5196 -0.1834 -1.2024
 1002MOL0     H32232   5.345   5.194   2.842 -1.5860  0.4953 -0.7160
 1002MOL0     H32233   5.273   5.060   2.939 -0.0542  3.3379  1.8746
 1002MOL0     H32234   5.482   5.006   2.726 -0.0283 -0.6883 -1.6581
 1002MOL0     H32235   5.304   5.016   2.702 -3.0942  0.3239  2.9862
 1002MOL0     H32236   5.453   4.812   2.890 -1.0404 -3.3791 -0.0274
 1002MOL0     H32237   5.274   4.830   2.866  1.2305  0.2012  2.3933
 1002MOL0     H32238   5.316   4.772   2.625  0.5312  2.0123  0.7929
 1002MOL0     H32239   5.392   4.639   2.729  2.9120 -0.4653 -1.5092
 1002MOL0     H32240   5.602   4.730   2.704  1.7619  2.0561 -1.4499
 1002MOL0     H32241   5.558   4.842   2.583  0.7828 -1.2653 -1.7275
 1002MOL0     H32242   5.519   4.540   2.579 -4.9382  0.7738  0.3655
 1002MOL0     H32243   5.470   4.655   2.445 -1.0756 -2.4071 -0.3339
 1002MOL0     H32244   5.757   4.619   2.552 -1.4510  1.3511  2.7761
 1002MOL0     H32245   5.699   4.712   2.408 -1.6362  0.1209 -0.3462
 1002MOL0     H32246   5.696   5.106   3.107 -3.3673 -3.0617 -0.2478
 1002MOL0     H32247   5.839   5.115   3.326 -0.1134 -0.9433 -2.1999
 1002MOL0     H32248   5.878   5.236   3.775 -0.0151 -0.9236 -2.2189
 1002MOL0     H32249   6.030   5.220   3.970 -2.3679 -0.5920  3.0014
 1002MOL0     H32250   7.418   5.859   4.268 -2.2201  1.4184 -3.8012
 1002MOL0     H32251   7.561   5.687   4.377  0.2299  2.4521 -0.6617
 1002MOL0     H32252   7.950   5.424   4.256 -1.2058  2.3956  0.7881
 1002MOL0     H32253   8.118   5.254   4.295  0.0192  0.3944 -0.5694
 1002MOL0     H32254   8.257   4.949   4.316 -1.1055  2.8372  3.0136
 1002MOL0     H32255   8.158   5.046   4.208 -0.6469  1.6474  0.2015
 1002MOL0     H32256   7.978   4.892   4.233 -0.0945 -0.9604  0.2882
 1002MOL0     H32257   8.126   4.820   4.163  3.1507 -1.7378  1.4298
 1002MOL0     H32258   8.172   4.707   4.384  0.8121 -1.9162 -1.8419
 1002MOL0     H32259   8.064   4.645   4.285 -1.0246  0.3704 -0.3763
 1002MOL0     H32260   7.977   4.808   4.526 -3.2223  0.5619 -0.5689
 1002MOL0     H32261   7.870   4.772   4.405  0.0420  1.2498  0.8068
 1002MOL0     H32262   7.922   4.396   4.595 -2.2832  0.9153  0.5797
 1002MOL0     H32263   7.840   5.022   4.506 -3.4789 -2.5805 -3.8434
 1002MOL0     H32264   7.648   5.201   4.472 -0.5896  3.2914 -0.8733
 1003MOL0     O32265   9.778   9.948   8.507  0.0791  0.5106 -0.2961
 1003MOL0     C32266   9.904   9.932   8.529  0.5956  0.1755  0.9362
 1003MOL0     O32267   9.953   9.895   8.648 -0.2997  0.3742  0.6189
 1003MOL0     C32268   9.867   9.863   8.745  0.8522 -0.4397 -0.1180
 1003MOL0     C32269   9.765   9.954   8.795  1.0502  0.1143  0.2171
 1003MOL0     C32270   9.670   9.913   8.890 -0.8092  0.2858  0.1531
 1003MOL0     C32271   9.687   9.787   8.959 -0.2919  0.4299  0.3464
 1003MOL0     O32272   9.612   9.762   9.068 -0.2136 -0.5939 -0.0723
 1003MOL0     C32273   9.617   9.628   9.129  0.1434  0.1734  0.5348
 1003MOL0     C32274   9.508   9.616   9.229 -0.0446  0.2600  0.3330
 1003MOL0     C32275   9.370   9.672   9.189  0.4562 -0.7959  0.0345
 1003MOL0     C32276   9.262   9.670   9.303  0.8201  0.0855 -0.3467
 1003MOL0     C32277   9.182   9.540   9.323 -0.7592 -0.6724  0.0355
 1003MOL0     C32278   9.070   9.512   9.220  0.5557 -0.8802  0.7580
 1003MOL0     C32279   9.016   9.373   9.245 -0.4932 -0.9769  0.9371
 1003MOL0     C32280   8.891   9.338   9.152  0.3141  0.8208 -0.6797
 1003MOL0     N32281   8.767   9.411   9.184 -0.0265  0.7917 -0.1485
 1003MOL0     C32282   8.699   9.390   9.301  0.5828  0.1106  0.5198
 1003MOL0     C32283   8.591   9.463   9.295  1.1208 -0.4984 -0.3104
 1003MOL0     C32284   8.479   9.472   9.406  0.2147  0.4086 -0.0315
 1003MOL0     C32285   8.445   9.328   9.449  0.1189  0.0936  0.1159
 1003MOL0     C32286   8.310   9.306   9.513  0.2855  0.0417  0.8209
 1003MOL0     C32287   8.183   9.299   9.422 -0.6526 -0.4481  0.0316
 1003MOL0     O32288   8.123   9.435   9.396 -0.3110  0.4586  0.0042
 1003MOL0     C32289   7.999   9.441   9.359 -0.4995  0.8970  0.8794
 1003MOL0     C32290   7.921   9.556   9.381 -0.2447  0.3070 -0.3205
 1003MOL0     C32291   7.775   9.552   9.366 -0.4620  0.0570 -0.4594
 1003MOL0     C32292   7.709   9.448   9.311  0.3842 -0.1827  1.7049
 1003MOL0     C32293   7.573   9.459   9.265 -0.5049  0.2308  0.5872
 1003MOL0     O32294   7.539   9.366   9.171 -0.5499 -0.6439 -0.0402
 1003MOL0     C32295   7.411   9.377   9.119 -0.6073  0.5352 -0.6412
 1003MOL0     C32296   7.405   9.445   9.000  0.6757  0.7772 -0.2963
 1003MOL0     C32297   7.273   9.486   8.946  0.5378 -0.1827  0.1176
 1003MOL0     C32298   7.156   9.431   9.003 -0.8274 -0.9305 -0.1355
 1003MOL0     O32299   7.035   9.455   8.952 -1.0164  0.8579  0.4617
 1003MOL0     C32300   6.960   9.334   8.933 -0.2222 -0.5874  0.0180
 1003MOL0     C32301   6.861   9.328   8.811  0.3896 -0.7322 -0.7862
 1003MOL0     C32302   6.783   9.210   8.786  0.3176  0.0160 -0.5581
 1003MOL0     C32303   6.693   9.230   8.666  0.4038  1.2688 -0.5777
 1003MOL0     C32304   6.600   9.105   8.651 -0.2151 -0.0999 -0.1950
 1003MOL0     C32305   6.520   9.120   8.517 -0.5885  0.1835 -0.5794
 1003MOL0     C32306   6.371   9.084   8.520 -0.2020 -0.1802  0.0959
 1003MOL0     C32307   6.328   9.067   8.374  0.3170 -0.1789 -0.3131
 1003MOL0    Cl32308   6.165   9.003   8.360  0.0537  0.2592  0.3248
 1003MOL0     C32309   7.170   9.353   9.123  0.3860  0.1642 -0.7867
 1003MOL0     C32310   7.294   9.323   9.180  0.3907 -0.0602  0.1650
 1003MOL0     O32311   7.496   9.550   9.305 -1.1983  0.8778  0.7822
 1003MOL0     C32312   7.783   9.333   9.275 -0.2976  0.5635 -0.5295
 1003MOL0     C32313   7.922   9.325   9.311 -0.8445  0.2096 -0.8731
 1003MOL0     N32314   8.587   9.529   9.173 -0.8557  0.4119 -0.1138
 1003MOL0     N32315   8.693   9.495   9.112  0.1300  0.5149  0.7602
 1003MOL0     C32316   9.796   9.701   8.909  1.1655 -0.2487 -0.1697
 1003MOL0     C32317   9.886   9.744   8.809  0.3330  0.2291 -0.3928
 1003MOL0     C32318  10.002   9.981   8.423 -0.2200 -0.0807 -0.0084
 1003MOL0     C32319  10.141   9.966   8.427  1.1250 -0.4786 -0.5889
 1003MOL0     C32320  10.216  10.021   8.319 -1.0344 -0.7696  0.5007
 1003MOL0     C32321  10.158  10.059   8.201 -0.0539 -0.5584  1.3112
 1003MOL0     O32322  10.225  10.101   8.088 -0.2494  0.0780 -0.0717
 1003MOL0     C32323  10.327  10.010   8.045  0.0964 -0.2043 -0.1894
 1003MOL0     C32324  10.310   9.985   7.890 -0.6619 -0.4914  0.0840
 1003MOL0     C32325  10.334  10.111   7.806 -0.2764 -0.2659  0.2091
 1003MOL0     C32326  10.331  10.078   7.653  0.5595 -0.5307  0.7644
 1003MOL0     C32327  10.453  10.000   7.629 -0.0950 -0.0966 -0.6449
 1003MOL0     C32328  10.546   9.929   7.607  0.3397  0.4242  0.2489
 1003MOL0     C32329  10.019  10.063   8.195 -1.2706  0.3843 -0.2662
 1003MOL0     C32330   9.946  10.024   8.304  0.0723  0.6553  0.3738
 1003MOL0     H32331   9.762  10.055   8.757 -1.0786 -0.0764 -0.2336
 1003MOL0     H32332   9.589   9.979   8.917 -1.2074  0.7011 -1.9143
 1003MOL0     H32333   9.709   9.606   9.184 -1.1311 -3.3983  1.4772
 1003MOL0     H32334   9.608   9.551   9.052  1.5154 -0.3324  0.8520
 1003MOL0     H32335   9.548   9.663   9.320  0.1883 -0.8473  0.8185
 1003MOL0     H32336   9.493   9.508   9.237 -3.0626  0.6066  0.6503
 1003MOL0     H32337   9.324   9.620   9.104  1.0864 -0.5680 -0.4528
 1003MOL0     H32338   9.390   9.773   9.151  1.7718 -0.3818  1.7307
 1003MOL0     H32339   9.311   9.701   9.396 -0.3782  1.9417 -0.2811
 1003MOL0     H32340   9.191   9.751   9.281  0.3543 -0.0115  0.6954
 1003MOL0     H32341   9.126   9.547   9.416  0.3162  0.6543  0.6143
 1003MOL0     H32342   9.262   9.465   9.316  1.9886  2.0637 -0.2977
 1003MOL0     H32343   9.094   9.539   9.117 -3.2288  1.0775  0.2052
 1003MOL0     H32344   8.991   9.586   9.239  1.7868  1.8604 -3.4462
 1003MOL0     H32345   9.100   9.304   9.233 -0.9892 -1.0941 -3.2710
 1003MOL0     H32346   8.974   9.379   9.346 -0.5851 -3.0387  1.0733
 1003MOL0     H32347   8.873   9.232   9.174  1.0048  1.3170  2.7208
 1003MOL0     H32348   8.908   9.366   9.048 -1.0949  0.8985 -0.9068
 1003MOL0     H32349   8.720   9.321   9.382  0.9013  2.0972  2.2195
 1003MOL0     H32350   8.386   9.512   9.364 -0.6879  1.4519  2.6925
 1003MOL0     H32351   8.511   9.524   9.497 -0.0682 -0.3433  0.5085
 1003MOL0     H32352   8.527   9.301   9.516 -0.0678 -1.8725 -0.3709
 1003MOL0     H32353   8.437   9.258   9.364  0.6282  1.2611 -0.9274
 1003MOL0     H32354   8.307   9.210   9.565  0.6657 -0.5554 -0.2236
 1003MOL0     H32355   8.292   9.387   9.585  0.5971  0.0269  0.9154
 1003MOL0     H32356   8.107   9.237   9.471 -2.2577  0.3765 -1.2921
 1003MOL0     H32357   8.202   9.240   9.332 -0.9375 -3.5863  1.8836
 1003MOL0     H32358   7.971   9.650   9.401 -2.1480  1.1147  0.9623
 1003MOL0     H32359   7.714   9.633   9.404  0.0651  1.1044 -1.7568
 1003MOL0     H32360   7.493   9.475   8.943  1.5168 -1.9347 -0.5598
 1003MOL0     H32361   7.271   9.543   8.854 -2.1580 -2.5456 -1.4750
 1003MOL0     H32362   6.898   9.318   9.022 -0.2578  3.0975  0.8129
 1003MOL0     H32363   7.033   9.254   8.922  1.7067  1.2134 -0.9976
 1003MOL0     H32364   6.915   9.337   8.716  1.6862 -1.1738 -0.1224
 1003MOL0     H32365   6.792   9.413   8.809 -2.1108 -2.6661 -0.5869
 1003MOL0     H32366   6.731   9.198   8.882  1.8365 -1.7839  0.1174
 1003MOL0     H32367   6.842   9.120   8.763  1.0416  0.0370  1.0198
 1003MOL0     H32368   6.625   9.315   8.676 -1.3566  0.0913 -1.8836
 1003MOL0     H32369   6.762   9.230   8.581  1.6938 -4.4715  0.0476
 1003MOL0     H32370   6.534   9.099   8.738  1.1081 -0.4496  0.8264
 1003MOL0     H32371   6.657   9.012   8.646 -2.1981 -1.3291 -3.4562
 1003MOL0     H32372   6.572   9.058   8.443 -0.5620 -0.0140 -0.3963
 1003MOL0     H32373   6.526   9.224   8.484  0.5826 -0.3286 -2.1205
 1003MOL0     H32374   6.352   8.995   8.581 -1.6685  1.2490  1.8241
 1003MOL0     H32375   6.317   9.166   8.568  2.4462  0.3312  2.5225
 1003MOL0     H32376   6.394   8.986   8.342 -0.1705 -1.0837  0.8917
 1003MOL0     H32377   6.324   9.163   8.321 -2.7856 -1.1431 -2.1217
 1003MOL0     H32378   7.083   9.319   9.178  0.4009  0.5399 -0.5280
 1003MOL0     H32379   7.307   9.275   9.276 -0.7451  2.3778  1.6180
 1003MOL0     H32380   7.743   9.250   9.218  0.7654 -1.7590  1.9063
 1003MOL0     H32381   7.980   9.237   9.285 -1.0180 -0.9729  2.2198
 1003MOL0     H32382   9.795   9.611   8.969  0.5222  1.5906  2.7827
 1003MOL0     H32383   9.965   9.674   8.785  0.0191 -0.6878  1.1385
 1003MOL0     H32384  10.190   9.927   8.515 -0.5322  2.2670  1.6991
 1003MOL0     H32385  10.325  10.016   8.326 -0.9190 -1.5085 -1.2706
 1003MOL0     H32386  10.332   9.913   8.095  1.0918 -0.2069 -0.2723
 1003MOL0     H32387  10.423  10.053   8.075 -0.8746  0.5825  2.0096
 1003MOL0     H32388  10.383   9.908   7.866  1.3791  1.0892  0.9863
 1003MOL0     H32389  10.213   9.938   7.869 -0.3861 -0.1780 -2.2148
 1003MOL0     H32390  10.434  10.151   7.829  0.5583 -2.9578  1.6749
 1003MOL0     H32391  10.256  10.182   7.835 -0.7813  0.0074 -1.7171
 1003MOL0     H32392  10.236  10.031   7.625  0.3477  0.8916 -1.0959
 1003MOL0     H32393  10.333  10.171   7.596  0.0301  1.7084  4.1254
 1003MOL0     H32394  10.633   9.869   7.590  0.1718  0.8244 -2.3523
 1003MOL0     H32395   9.976  10.101   8.102  1.0527  0.0452 -1.5560
 1003MOL0     H32396   9.839  10.014   8.291  0.1563 -1.0133  0.7796
 1004MOL0     O32397   4.742  10.645  10.817 -0.3183  0.0323  0.8810
 1004MOL0     C32398   4.758  10.640  10.938 -0.6930 -0.0979  0.0788
 1004MOL0     O32399   4.719  10.734  11.032 -0.3077 -0.3811 -0.4049
 1004MOL0     C32400   4.641  10.833  11.001 -0.2638 -1.2246  0.4819
 1004MOL0     C32401   4.676  10.954  11.059 -0.3466  1.0253  0.4622
 1004MOL0     C32402   4.600  11.059  11.038  0.2078 -0.7974 -0.4841
 1004MOL0     C32403   4.476  11.061  10.977  0.0022  1.6548 -1.1444
 1004MOL0     O32404   4.405  11.179  10.956  0.5000 -0.2593 -0.4741
 1004MOL0     C32405   4.285  11.182  10.885 -0.4647 -0.8918  0.6342
 1004MOL0     C32406   4.251  11.331  10.879  0.0090 -0.9378  0.3273
 1004MOL0     C32407   4.105  11.351  10.832  0.8917 -0.5994 -0.0569
 1004MOL0     C32408   4.091  11.394  10.681  0.5498  0.1028 -0.0925
 1004MOL0     C32409   3.940  11.423  10.633  0.2218  0.0457  0.4970
 1004MOL0     C32410   3.931  11.522  10.522 -0.3817  0.2732  0.4580
 1004MOL0     C32411   3.778  11.550  10.489  0.3803 -0.1963  0.2790
 1004MOL0     C32412   3.759  11.641  10.370  1.0346 -0.3163  0.4270
 1004MOL0     N32413   3.812  11.572  10.244 -0.0834 -0.5711  1.0824
 1004MOL0     C32414   3.737  11.486  10.167  0.4723 -1.0487  0.1904
 1004MOL0     C32415   3.812  11.462  10.060  0.5085  0.5227  0.6662
 1004MOL0     C32416   3.768  11.381   9.941  0.3181 -0.6385  1.0027
 1004MOL0     C32417   3.869  11.272   9.905 -0.6709  0.7771  0.3082
 1004MOL0     C32418   3.851  11.226   9.759  0.7648 -0.6524  0.4213
 1004MOL0     C32419   3.907  11.084   9.754  1.0749  0.3385 -0.5872
 1004MOL0     O32420   3.943  11.040   9.630  0.3345  0.1433 -0.2502
 1004MOL0     C32421   4.078  11.010   9.600  0.4955  0.0945  0.6096
 1004MOL0     C32422   4.100  10.947   9.477  0.5137 -0.8490  0.1589
 1004MOL0     C32423   4.231  10.913   9.438  0.1500 -0.6424  0.4317
 1004MOL0     C32424   4.343  10.929   9.524  0.2390  0.9265 -0.3169
 1004MOL0     C32425   4.475  10.880   9.497  0.0713  0.0577  0.0517
 1004MOL0     O32426   4.575  10.931   9.577  0.6281 -0.4436  0.2018
 1004MOL0     C32427   4.706  10.894   9.554  0.8264 -0.2318 -0.6311
 1004MOL0     C32428   4.746  10.757   9.562  0.5025  0.4021 -0.9754
 1004MOL0     C32429   4.874  10.717   9.530  0.3584 -0.1188 -0.4036
 1004MOL0     C32430   4.966  10.806   9.502 -0.1645 -0.9433  0.0782
 1004MOL0     O32431   5.095  10.777   9.472 -0.0618 -0.5197  0.1151
 1004MOL0     C32432   5.176  10.799   9.590 -0.2400 -0.2260 -0.5860
 1004MOL0     C32433   5.296  10.893   9.583 -0.0437 -0.6753  0.6037
 1004MOL0     C32434   5.417  10.837   9.501 -0.2624  0.0674  0.7296
 1004MOL0     C32435   5.502  10.735   9.579  0.1780 -0.5465  0.0787
 1004MOL0     C32436   5.648  10.776   9.577 -0.3438 -0.0893  0.2695
 1004MOL0     C32437   5.692  10.775   9.427  0.2937 -0.4488  0.3204
 1004MOL0     C32438   5.832  10.834   9.411  0.0260 -0.5456  0.4757
 1004MOL0     C32439   5.878  10.864   9.268 -0.0313 -1.1198 -0.5746
 1004MOL0    Cl32440   5.991  10.996   9.263 -0.1399  0.1869 -0.4181
 1004MOL0     C32441   4.927  10.950   9.495 -1.3283 -0.4393  0.5133
 1004MOL0     C32442   4.799  10.989   9.518  1.0552  0.5316 -0.5538
 1004MOL0     O32443   4.491  10.808   9.403  0.1427  0.1679  0.4107
 1004MOL0     C32444   4.325  11.010   9.642 -0.6069 -0.0527  0.3125
 1004MOL0     C32445   4.195  11.044   9.673 -0.1291  0.3230 -0.8879
 1004MOL0     N32446   3.938  11.525  10.062 -0.3518 -0.0723 -0.7152
 1004MOL0     N32447   3.936  11.586  10.180  0.0590 -0.1935 -0.0577
 1004MOL0     C32448   4.438  10.931  10.927 -0.9823 -0.2155  0.0250
 1004MOL0     C32449   4.530  10.822  10.925  0.0865  0.1602 -0.2286
 1004MOL0     C32450   4.818  10.521  10.991 -0.9834 -0.0658 -0.6715
 1004MOL0     C32451   4.823  10.404  10.919 -0.5526  0.5739 -0.4952
 1004MOL0     C32452   4.870  10.289  10.970  0.3862  0.1061 -0.2764
 1004MOL0     C32453   4.924  10.280  11.099  0.2922 -0.7569  0.0790
 1004MOL0     O32454   4.965  10.160  11.151  0.2749 -0.3024  0.4470
 1004MOL0     C32455   5.045  10.166  11.270 -0.3218 -0.4377  0.2172
 1004MOL0     C32456   5.189  10.184  11.229  0.4056 -0.5282 -0.6240
 1004MOL0     C32457   5.228  10.087  11.114  0.0777  0.5472  1.0710
 1004MOL0     C32458   5.374  10.053  11.108  0.1103 -0.4192  0.6131
 1004MOL0     C32459   5.469  10.158  11.108  1.1432 -0.5486 -1.1871
 1004MOL0     C32460   5.542  10.252  11.111 -0.7194 -0.2643 -0.2326
 1004MOL0     C32461   4.920  10.394  11.171  0.0483 -1.0854  0.2080
 1004MOL0     C32462   4.868  10.511  11.120  0.7643 -0.6363  0.1436
 1004MOL0     H32463   4.767  10.968  11.117 -1.1288  0.2296  1.9392
 1004MOL0     H32464   4.642  11.155  11.066  1.7652 -1.3134 -0.9512
 1004MOL0     H32465   4.210  11.131  10.946 -2.6617 -1.3907 -2.2578
 1004MOL0     H32466   4.285  11.153  10.779  1.9270  0.9391  0.0416
 1004MOL0     H32467   4.309  11.376  10.798 -1.3722  1.5496  0.6123
 1004MOL0     H32468   4.264  11.377  10.978 -0.4782 -1.2066  0.5172
 1004MOL0     H32469   4.048  11.423  10.892  4.1510  0.9691  1.3914
 1004MOL0     H32470   4.056  11.258  10.862  1.4092  0.0736  3.2748
 1004MOL0     H32471   4.142  11.491  10.680 -0.5531  0.7058 -1.0837
 1004MOL0     H32472   4.135  11.321  10.613 -0.9967 -1.8855  0.9097
 1004MOL0     H32473   3.870  11.457  10.709 -0.8692  1.1127 -0.9575
 1004MOL0     H32474   3.893  11.325  10.618  1.3714 -0.4297 -0.1667
 1004MOL0     H32475   3.991  11.485  10.438  0.3999  0.4007  0.9521
 1004MOL0     H32476   3.971  11.618  10.556 -1.9442  1.2935 -0.4506
 1004MOL0     H32477   3.718  11.460  10.469 -4.4462  2.3723  1.6516
 1004MOL0     H32478   3.726  11.584  10.579 -0.2317 -1.7773  0.5612
 1004MOL0     H32479   3.819  11.732  10.381 -0.4570  1.1507 -2.5054
 1004MOL0     H32480   3.655  11.673  10.363  1.0943  1.5663  4.7742
 1004MOL0     H32481   3.631  11.468  10.185  0.5770 -0.2106  1.9392
 1004MOL0     H32482   3.759  11.448   9.855 -0.7290 -0.8977  0.9031
 1004MOL0     H32483   3.669  11.335   9.948  1.4169 -3.1693  1.0030
 1004MOL0     H32484   3.864  11.190   9.978 -0.2778 -0.3572 -0.9063
 1004MOL0     H32485   3.973  11.307   9.905 -0.5511  0.4927 -1.4331
 1004MOL0     H32486   3.743  11.228   9.743  0.2761 -5.2194  1.6213
 1004MOL0     H32487   3.904  11.280   9.680  0.5579 -2.3678 -0.9613
 1004MOL0     H32488   3.830  11.010   9.780  2.5725 -1.3299 -0.7403
 1004MOL0     H32489   3.984  11.061   9.827 -0.7229  1.8996  1.9660
 1004MOL0     H32490   4.024  10.924   9.403  0.9820  2.0390 -1.3597
 1004MOL0     H32491   4.261  10.859   9.349  2.0615 -0.6848  1.0627
 1004MOL0     H32492   4.679  10.678   9.592  1.7744 -1.1256 -1.9858
 1004MOL0     H32493   4.911  10.615   9.535 -1.3449 -0.7735 -0.5250
 1004MOL0     H32494   5.210  10.703   9.628  0.3542 -0.4077 -1.5579
 1004MOL0     H32495   5.125  10.845   9.676  3.2940  1.3387  0.8901
 1004MOL0     H32496   5.335  10.894   9.685  1.4428  0.0909  0.0568
 1004MOL0     H32497   5.251  10.991   9.561  2.9962  0.3598 -1.8230
 1004MOL0     H32498   5.480  10.924   9.479  2.3568 -1.1895  2.8413
 1004MOL0     H32499   5.388  10.789   9.407  2.1541  1.0877 -0.6364
 1004MOL0     H32500   5.474  10.739   9.685 -0.8465  2.1225 -0.2282
 1004MOL0     H32501   5.504  10.631   9.547  2.0599 -0.1617 -1.2383
 1004MOL0     H32502   5.703  10.711   9.645  0.3984  0.5332  0.2768
 1004MOL0     H32503   5.655  10.879   9.611 -2.2656  1.1545 -2.7098
 1004MOL0     H32504   5.624  10.827   9.358  0.3434 -0.8312 -0.0261
 1004MOL0     H32505   5.683  10.671   9.394  1.6002  0.0265 -1.6787
 1004MOL0     H32506   5.831  10.930   9.463 -1.6075  2.0231 -3.7809
 1004MOL0     H32507   5.902  10.761   9.452  3.7584  2.7630  0.6546
 1004MOL0     H32508   5.797  10.905   9.207 -1.1218  1.5112  2.3847
 1004MOL0     H32509   5.940  10.785   9.226  3.5735  1.4670 -0.5793
 1004MOL0     H32510   5.004  11.023   9.471 -0.4642 -1.0033  1.4666
 1004MOL0     H32511   4.754  11.087   9.504 -1.8160 -0.1303  2.7118
 1004MOL0     H32512   4.403  11.051   9.705 -0.7428  2.3412 -0.9948
 1004MOL0     H32513   4.186  11.121   9.748  0.2520  3.1651 -3.5721
 1004MOL0     H32514   4.347  10.930  10.868 -0.7379 -1.0857 -0.3583
 1004MOL0     H32515   4.508  10.731  10.871  0.6046 -0.5942  0.8014
 1004MOL0     H32516   4.780  10.405  10.820  3.5260 -0.3472 -2.4708
 1004MOL0     H32517   4.874  10.195  10.915  0.0654  0.3806 -0.7725
 1004MOL0     H32518   5.037  10.068  11.317 -0.2361 -1.2054 -1.3228
 1004MOL0     H32519   5.020  10.231  11.355 -0.9125 -0.3009 -0.0523
 1004MOL0     H32520   5.205  10.289  11.203 -2.8862  0.6072  1.3261
 1004MOL0     H32521   5.247  10.161  11.319  0.0239  1.1491  0.0842
 1004MOL0     H32522   5.184  10.128  11.024 -0.1187  0.9897  1.3664
 1004MOL0     H32523   5.168   9.996  11.121 -0.0174  0.4580 -0.5929
 1004MOL0     H32524   5.384   9.986  11.194  1.4136 -1.0788 -0.0256
 1004MOL0     H32525   5.391   9.993  11.018 -1.1893  0.9571 -0.5914
 1004MOL0     H32526   5.611  10.333  11.103 -0.2137 -0.8187 -2.2623
 1004MOL0     H32527   4.938  10.397  11.277 -4.3054 -0.3335  1.1464
 1004MOL0     H32528   4.856  10.591  11.192 -2.5588  1.3270 -2.2767
 1005MOL0     O32529   1.409   4.719   0.927 -0.1143  0.4012  0.2257
 1005MOL0     C32530   1.509   4.718   1.000  0.2885 -0.8206  1.3551
 1005MOL0     O32531   1.539   4.631   1.108 -0.5372 -0.3424  0.0944
 1005MOL0     C32532   1.445   4.549   1.159 -0.1490  0.9765 -0.9479
 1005MOL0     C32533   1.303   4.569   1.172 -0.7314 -0.4778 -0.1083
 1005MOL0     C32534   1.221   4.466   1.210  0.4320 -0.2429  0.5961
 1005MOL0     C32535   1.276   4.338   1.241  0.5433 -1.2271 -0.6517
 1005MOL0     O32536   1.201   4.239   1.287  0.5989  0.5219  0.5216
 1005MOL0     C32537   1.103   4.180   1.196 -1.2624  0.3361  0.4245
 1005MOL0     C32538   1.065   4.050   1.268 -0.5701  0.4799 -0.4165
 1005MOL0     C32539   0.950   3.981   1.185 -0.3632  0.1712  0.0300
 1005MOL0     C32540   0.912   3.855   1.260  0.7381  0.0744 -0.4025
 1005MOL0     C32541   0.789   3.774   1.195  0.0847 -0.2265 -0.5781
 1005MOL0     C32542   0.660   3.857   1.203  0.1228  0.6184 -0.7296
 1005MOL0     C32543   0.539   3.783   1.146  0.8640  0.3756  1.2347
 1005MOL0     C32544   0.565   3.750   0.992  0.4713 -0.1939 -0.5004
 1005MOL0     N32545   0.437   3.739   0.926  0.1778 -0.6101 -0.3629
 1005MOL0     C32546   0.322   3.679   0.972  0.0791 -0.5157  0.1628
 1005MOL0     C32547   0.234   3.705   0.875  0.0547 -0.7653  0.3779
 1005MOL0     C32548   0.089   3.667   0.859  0.6831 -0.0812 -0.1763
 1005MOL0     C32549   0.052   3.534   0.934  0.4997 -0.3227 -0.1802
 1005MOL0     C32550  -0.080   3.472   0.881  0.1086  0.0904  0.2563
 1005MOL0     C32551  -0.095   3.333   0.912  0.9760  0.5446 -0.5214
 1005MOL0     O32552   0.020   3.247   0.901 -0.5697 -0.1344 -0.3541
 1005MOL0     C32553   0.004   3.110   0.891  0.1807  0.3957  0.1481
 1005MOL0     C32554   0.111   3.028   0.892  0.3921 -0.0461  0.1839
 1005MOL0     C32555   0.095   2.886   0.897 -1.1751 -0.6603  0.5613
 1005MOL0     C32556  -0.027   2.834   0.879 -0.6347  0.0663 -0.4136
 1005MOL0     C32557  -0.043   2.691   0.874 -0.0934 -0.2708  0.0295
 1005MOL0     O32558  -0.155   2.647   0.800 -0.3891 -0.2389 -0.0473
 1005MOL0     C32559  -0.152   2.517   0.778 -0.1795  0.7673  0.4763
 1005MOL0     C32560  -0.076   2.465   0.671  0.1580  0.7100  0.8616
 1005MOL0     C32561  -0.057   2.328   0.641  0.4960 -0.5110  0.6554
 1005MOL0     C32562  -0.114   2.241   0.742 -0.3263 -0.4459  0.1795
 1005MOL0     O32563  -0.102   2.104   0.762 -0.1367  0.4387  0.3937
 1005MOL0     C32564  -0.066   2.018   0.656  1.0149  0.0418  0.4755
 1005MOL0     C32565   0.053   1.936   0.707 -0.4068 -0.1134 -0.4594
 1005MOL0     C32566   0.070   1.805   0.628 -0.0526 -0.2114  0.2158
 1005MOL0     C32567  -0.058   1.713   0.594  1.6196  0.1550 -0.7452
 1005MOL0     C32568  -0.150   1.673   0.709 -0.1206  0.6491  0.7274
 1005MOL0     C32569  -0.100   1.588   0.817  1.4754  1.0131 -0.4682
 1005MOL0     C32570  -0.196   1.490   0.873  0.2983 -0.0584  0.0628
 1005MOL0     C32571  -0.234   1.377   0.773  0.5151 -0.3681 -0.5047
 1005MOL0    Cl32572  -0.361   1.277   0.849 -0.1565 -0.2745  0.2479
 1005MOL0     C32573  -0.201   2.297   0.837 -0.3404  0.2145  0.1044
 1005MOL0     C32574  -0.218   2.432   0.856  0.6105 -1.3502 -0.6015
 1005MOL0     O32575   0.047   2.619   0.916 -0.8822  0.0140 -0.0413
 1005MOL0     C32576  -0.138   2.916   0.866 -0.1023 -0.5233 -0.0534
 1005MOL0     C32577  -0.125   3.047   0.898 -0.3429  0.3814 -0.6385
 1005MOL0     N32578   0.306   3.754   0.766  0.6121  0.0313 -0.0327
 1005MOL0     N32579   0.427   3.775   0.797  0.7789 -0.2407  0.3411
 1005MOL0     C32580   1.422   4.317   1.237 -0.4987  0.5199 -0.6164
 1005MOL0     C32581   1.497   4.423   1.193  0.4408  0.2765  0.1432
 1005MOL0     C32582   1.616   4.818   0.964  0.0556 -0.0879 -1.1667
 1005MOL0     C32583   1.652   4.850   0.834  0.7624  0.2964 -0.2196
 1005MOL0     C32584   1.768   4.927   0.807  0.0303 -0.4348  0.0958
 1005MOL0     C32585   1.841   4.978   0.912 -0.5706 -0.2117 -0.3774
 1005MOL0     O32586   1.957   5.046   0.902  0.3347 -1.0724  0.2773
 1005MOL0     C32587   1.991   5.095   0.773 -0.5704 -0.9800  0.0965
 1005MOL0     C32588   2.119   5.157   0.773 -0.0601 -0.8005 -0.0495
 1005MOL0     C32589   2.190   5.204   0.640  0.6982  0.0622  0.0406
 1005MOL0     C32590   2.160   5.351   0.598  0.5501  0.5835 -0.3748
 1005MOL0     C32591   2.031   5.355   0.529 -0.5812  1.1016 -0.1533
 1005MOL0     C32592   1.917   5.369   0.485 -0.3679 -0.2210  0.5778
 1005MOL0     C32593   1.811   4.945   1.046 -0.0949 -0.3535  0.8776
 1005MOL0     C32594   1.698   4.865   1.072  0.6354  0.5700  0.3347
 1005MOL0     H32595   1.265   4.664   1.137 -0.0830  1.3451  3.6662
 1005MOL0     H32596   1.113   4.476   1.214  0.3637  1.5319 -2.6406
 1005MOL0     H32597   1.155   4.160   1.102 -0.8210 -0.0128  0.7390
 1005MOL0     H32598   1.011   4.237   1.179 -2.2913 -0.5606  2.5871
 1005MOL0     H32599   1.029   4.063   1.371 -0.4027  1.5553 -0.4808
 1005MOL0     H32600   1.153   3.985   1.266 -1.2237 -0.7545  3.1324
 1005MOL0     H32601   0.992   3.956   1.087 -0.6716 -0.3153  0.0157
 1005MOL0     H32602   0.859   4.039   1.169  0.2632  1.3169  0.4850
 1005MOL0     H32603   1.001   3.793   1.259  1.9154  1.6751  0.7123
 1005MOL0     H32604   0.884   3.889   1.360  2.8748 -0.7912  0.5234
 1005MOL0     H32605   0.767   3.686   1.256  1.0510 -0.1846 -0.1447
 1005MOL0     H32606   0.818   3.746   1.093  2.5836  0.8062 -0.2458
 1005MOL0     H32607   0.677   3.944   1.138 -0.3509  0.3044 -1.2828
 1005MOL0     H32608   0.634   3.893   1.303  1.6856 -0.1299 -0.0298
 1005MOL0     H32609   0.526   3.694   1.208 -1.8355  1.4965  2.4358
 1005MOL0     H32610   0.446   3.840   1.144  2.4513  3.3415 -3.1883
 1005MOL0     H32611   0.630   3.664   0.976  2.7043  1.0486  1.2435
 1005MOL0     H32612   0.622   3.835   0.953 -1.3639  0.9773 -0.7278
 1005MOL0     H32613   0.300   3.636   1.069 -0.4612 -0.7071 -0.0453
 1005MOL0     H32614   0.073   3.656   0.751  0.5983 -3.5198  0.0830
 1005MOL0     H32615   0.025   3.743   0.905 -1.0186 -0.4343 -1.8163
 1005MOL0     H32616   0.029   3.556   1.039 -4.7397 -2.7829 -0.5025
 1005MOL0     H32617   0.139   3.470   0.920 -0.9964 -2.6923  0.7479
 1005MOL0     H32618  -0.155   3.532   0.933  2.1716  2.2804  0.8817
 1005MOL0     H32619  -0.096   3.493   0.775 -0.2877  1.7043  0.6200
 1005MOL0     H32620  -0.160   3.292   0.835  1.5958  2.4207 -2.1451
 1005MOL0     H32621  -0.151   3.330   1.006 -2.7836 -1.1748 -2.5827
 1005MOL0     H32622   0.204   3.083   0.899  0.2925  0.1473  0.0144
 1005MOL0     H32623   0.184   2.825   0.907  0.6417  1.5186 -1.3639
 1005MOL0     H32624  -0.027   2.542   0.612  1.8765 -0.9519  0.0184
 1005MOL0     H32625   0.009   2.294   0.562  2.0687  3.9698 -0.2613
 1005MOL0     H32626  -0.037   2.073   0.566 -0.0033 -0.8268 -0.4085
 1005MOL0     H32627  -0.158   1.963   0.638  0.5811  1.1165 -0.7357
 1005MOL0     H32628   0.029   1.907   0.810  2.7190  0.0265  0.4067
 1005MOL0     H32629   0.141   2.001   0.716 -0.0047 -0.8458  1.2031
 1005MOL0     H32630   0.141   1.742   0.682 -1.4112 -0.1539  2.2026
 1005MOL0     H32631   0.112   1.833   0.531  0.5302  0.7569  0.7344
 1005MOL0     H32632  -0.118   1.777   0.528  0.8682 -0.0938 -0.3217
 1005MOL0     H32633  -0.031   1.624   0.536  1.5131 -0.8610  0.6974
 1005MOL0     H32634  -0.233   1.620   0.661 -0.3574  0.8437  0.9149
 1005MOL0     H32635  -0.197   1.761   0.756  1.2135  1.6419  0.2408
 1005MOL0     H32636  -0.058   1.646   0.900  0.7680 -0.4284  0.9657
 1005MOL0     H32637  -0.027   1.518   0.776  0.6071 -0.2569  0.0912
 1005MOL0     H32638  -0.152   1.448   0.964  0.3961  0.1704  0.1218
 1005MOL0     H32639  -0.291   1.537   0.900 -0.6865 -1.2455 -1.1692
 1005MOL0     H32640  -0.148   1.311   0.758  0.1282 -1.1700  0.6173
 1005MOL0     H32641  -0.280   1.401   0.676  0.2336 -0.1397 -0.3143
 1005MOL0     H32642  -0.254   2.226   0.899 -1.7355  0.4793 -0.7259
 1005MOL0     H32643  -0.286   2.461   0.936  0.1233  0.2299 -1.5282
 1005MOL0     H32644  -0.234   2.865   0.871  2.4640 -6.3574 -1.9881
 1005MOL0     H32645  -0.217   3.101   0.919 -0.3670 -0.1160  0.6564
 1005MOL0     H32646   1.457   4.219   1.267  0.6999  1.9414  3.3218
 1005MOL0     H32647   1.601   4.394   1.180  0.0405 -1.2679  0.1944
 1005MOL0     H32648   1.595   4.819   0.747 -0.0108 -0.8826  0.6754
 1005MOL0     H32649   1.798   4.958   0.707 -0.2665 -0.1770  0.0873
 1005MOL0     H32650   1.915   5.167   0.742 -0.5665 -1.4400 -1.0394
 1005MOL0     H32651   1.993   5.014   0.699 -2.2145 -0.9840  0.0146
 1005MOL0     H32652   2.112   5.237   0.848 -1.0978 -0.6889 -0.2601
 1005MOL0     H32653   2.193   5.088   0.815  3.0763  0.6534 -2.6922
 1005MOL0     H32654   2.184   5.132   0.558  1.1414 -0.0544  0.1083
 1005MOL0     H32655   2.296   5.214   0.664  0.4160  2.5923  0.5267
 1005MOL0     H32656   2.155   5.418   0.684 -2.5568  1.6896 -1.2785
 1005MOL0     H32657   2.238   5.392   0.533  0.6071  3.3806  1.3049
 1005MOL0     H32658   1.828   5.409   0.440  0.3778  0.0107 -0.7602
 1005MOL0     H32659   1.866   4.988   1.129 -2.4410  1.4401  1.6157
 1005MOL0     H32660   1.659   4.841   1.170  1.1869  1.6978  0.8441
 1006MOL0     O32661   6.802   0.233   6.349  0.6397  0.5267  0.0291
 1006MOL0     C32662   6.698   0.192   6.293  0.2886  0.7934  0.0111
 1006MOL0     O32663   6.616   0.273   6.220  0.2360  0.4855 -1.0628
 1006MOL0     C32664   6.660   0.405   6.217  0.0466 -0.1316  1.6300
 1006MOL0     C32665   6.765   0.438   6.128  0.9833 -0.9245  0.6611
 1006MOL0     C32666   6.814   0.569   6.135 -0.7653  1.0031  0.0168
 1006MOL0     C32667   6.748   0.672   6.196  0.0158 -0.0840  0.2187
 1006MOL0     O32668   6.801   0.797   6.204  0.4961  0.0437  0.8102
 1006MOL0     C32669   6.758   0.882   6.313 -0.1834  0.4193 -0.8055
 1006MOL0     C32670   6.851   0.996   6.334  0.9918 -0.2809 -0.5318
 1006MOL0     C32671   7.001   0.972   6.324  0.1053  0.3063  0.0838
 1006MOL0     C32672   7.080   1.113   6.326 -0.7348 -1.0228  0.2897
 1006MOL0     C32673   7.222   1.073   6.345 -0.5275  0.1698  1.1197
 1006MOL0     C32674   7.279   1.005   6.222  0.0862  0.6386 -0.1025
 1006MOL0     C32675   7.407   1.076   6.185  0.2991 -0.5899  0.0575
 1006MOL0     C32676   7.521   0.980   6.148  0.2554  0.0562  0.1856
 1006MOL0     N32677   7.640   1.041   6.096 -0.2547 -0.0364 -0.2698
 1006MOL0     C32678   7.655   1.130   5.993 -0.6121 -0.6522  0.2590
 1006MOL0     C32679   7.778   1.178   6.004  1.3624 -0.0452 -1.1798
 1006MOL0     C32680   7.853   1.239   5.894 -1.0176  0.1408 -0.3446
 1006MOL0     C32681   7.943   1.132   5.824  0.0626 -0.3437  0.1773
 1006MOL0     C32682   8.042   1.195   5.725 -0.4577  0.1626  0.4326
 1006MOL0     C32683   8.088   1.088   5.621  1.3814 -1.0853  0.3520
 1006MOL0     O32684   8.130   0.957   5.668  0.0679 -0.6856 -0.9881
 1006MOL0     C32685   8.213   0.880   5.598 -0.3404 -0.3014 -0.1500
 1006MOL0     C32686   8.302   0.785   5.669 -0.1954  0.4376 -1.7408
 1006MOL0     C32687   8.398   0.715   5.596  0.4003  0.3957  0.1825
 1006MOL0     C32688   8.411   0.731   5.456  0.5848  0.2899  0.1034
 1006MOL0     C32689   8.511   0.663   5.376 -1.1216  0.7339  0.3294
 1006MOL0     O32690   8.521   0.699   5.245  0.2526  0.2603  0.0313
 1006MOL0     C32691   8.594   0.625   5.152  0.2969 -0.5020 -0.7193
 1006MOL0     C32692   8.577   0.486   5.139 -0.1263  0.2684  0.5237
 1006MOL0     C32693   8.634   0.415   5.027  0.4118  0.9165 -0.7621
 1006MOL0     C32694   8.715   0.489   4.943  0.5539 -0.3556 -1.5482
 1006MOL0     O32695   8.778   0.413   4.851  0.0654 -0.0824  0.5455
 1006MOL0     C32696   8.923   0.422   4.849  0.0647  0.5314 -0.3355
 1006MOL0     C32697   8.974   0.347   4.721 -0.0298 -0.7971 -0.4008
 1006MOL0     C32698   8.912   0.415   4.598 -0.4188 -0.3200  0.2466
 1006MOL0     C32699   8.991   0.377   4.470  0.4141 -0.2065  0.4356
 1006MOL0     C32700   8.891   0.359   4.361  0.3995 -0.7425 -0.2922
 1006MOL0     C32701   8.952   0.342   4.221  0.6069 -0.1566 -0.7066
 1006MOL0     C32702   8.854   0.340   4.101  0.2623  0.5274 -0.6797
 1006MOL0     C32703   8.741   0.246   4.119  0.1038  0.2321 -0.1891
 1006MOL0    Cl32704   8.644   0.244   3.959  0.0581  0.1788  0.2604
 1006MOL0     C32705   8.747   0.627   4.964  0.1820 -0.2552  0.7637
 1006MOL0     C32706   8.674   0.699   5.052  0.4371 -0.0529  0.0641
 1006MOL0     O32707   8.583   0.575   5.430 -0.3635 -0.4668  0.3727
 1006MOL0     C32708   8.325   0.823   5.384 -0.2009  0.0470  0.0947
 1006MOL0     C32709   8.228   0.889   5.458 -0.0873 -0.4578  0.0296
 1006MOL0     N32710   7.836   1.119   6.114 -0.9573  0.8946  0.0265
 1006MOL0     N32711   7.748   1.038   6.173 -0.7857 -0.6604 -0.7111
 1006MOL0     C32712   6.635   0.629   6.276 -0.2670  0.8773 -0.8258
 1006MOL0     C32713   6.592   0.501   6.287 -0.9906  0.1533  0.0618
 1006MOL0     C32714   6.678   0.052   6.277 -1.3513  0.2935  0.6616
 1006MOL0     C32715   6.795  -0.024   6.250  1.2777 -0.6643 -0.5434
 1006MOL0     C32716   6.795  -0.156   6.210  0.4631 -0.7078  0.1434
 1006MOL0     C32717   6.667  -0.212   6.204  0.1297  0.5477  0.6858
 1006MOL0     O32718   6.661  -0.346   6.159  0.3004  0.2643 -0.1184
 1006MOL0     C32719   6.545  -0.420   6.144  0.1394 -0.8222 -0.1196
 1006MOL0     C32720   6.487  -0.389   6.007  0.9358 -0.1345 -0.2103
 1006MOL0     C32721   6.386  -0.492   5.948 -0.3010  0.4670 -0.0782
 1006MOL0     C32722   6.295  -0.537   6.066  0.4332  0.1268  0.7332
 1006MOL0     C32723   6.338  -0.657   6.142  0.2489 -0.3334  0.4006
 1006MOL0     C32724   6.351  -0.763   6.200 -0.2795  0.1063 -0.5832
 1006MOL0     C32725   6.552  -0.132   6.221 -0.8845  0.0657  0.2340
 1006MOL0     C32726   6.553  -0.001   6.249  0.4291 -0.0142 -0.2078
 1006MOL0     H32727   6.809   0.362   6.064  1.9644  0.0539  0.1377
 1006MOL0     H32728   6.902   0.605   6.083  1.1219  0.0236  2.3394
 1006MOL0     H32729   6.786   0.825   6.403  0.8482 -0.2049 -1.4961
 1006MOL0     H32730   6.655   0.918   6.322  0.3167  1.6439  0.4737
 1006MOL0     H32731   6.830   1.041   6.432  1.6570 -1.7445  0.3236
 1006MOL0     H32732   6.821   1.061   6.252  1.2526 -2.7144 -2.6680
 1006MOL0     H32733   7.021   0.915   6.233 -0.4104  0.7733 -0.3312
 1006MOL0     H32734   7.028   0.904   6.405 -0.7629 -0.8767 -0.5832
 1006MOL0     H32735   7.063   1.157   6.228 -1.7107 -1.3049  0.3238
 1006MOL0     H32736   7.054   1.190   6.399  1.2946  2.7311 -2.6080
 1006MOL0     H32737   7.232   1.017   6.439 -1.9093 -1.9999  0.0653
 1006MOL0     H32738   7.281   1.162   6.368  2.0804 -1.5314  1.4617
 1006MOL0     H32739   7.213   1.014   6.136  0.5666  2.4352 -0.3062
 1006MOL0     H32740   7.284   0.896   6.237 -3.0986  0.3035 -0.6644
 1006MOL0     H32741   7.388   1.155   6.111 -0.3677  2.3351  3.0976
 1006MOL0     H32742   7.447   1.128   6.273 -3.3440  1.0195  0.9548
 1006MOL0     H32743   7.475   0.914   6.074 -2.8751 -0.7622  2.6706
 1006MOL0     H32744   7.542   0.913   6.231  3.2400 -4.0708 -3.4407
 1006MOL0     H32745   7.588   1.161   5.913 -0.5274  2.0935  1.1301
 1006MOL0     H32746   7.913   1.320   5.938 -0.7345  0.3465 -1.0771
 1006MOL0     H32747   7.783   1.276   5.819  0.0888  0.8302 -1.0840
 1006MOL0     H32748   7.875   1.057   5.782  0.3234 -2.1182  2.6806
 1006MOL0     H32749   7.998   1.086   5.907 -1.2997 -1.0325  0.7337
 1006MOL0     H32750   7.991   1.276   5.672  1.1881  2.2338  1.8418
 1006MOL0     H32751   8.129   1.241   5.773 -1.7940  2.2294  1.0154
 1006MOL0     H32752   8.168   1.131   5.559 -0.2604 -1.1955 -1.9821
 1006MOL0     H32753   8.020   1.070   5.537  0.8726  0.6693  0.3489
 1006MOL0     H32754   8.301   0.783   5.777 -1.7752  3.7548 -1.5714
 1006MOL0     H32755   8.466   0.645   5.642  2.6451  1.9059 -0.6724
 1006MOL0     H32756   8.504   0.433   5.200  0.9214 -2.4328 -0.3931
 1006MOL0     H32757   8.594   0.322   4.989  1.3702  0.1449  0.0663
 1006MOL0     H32758   8.957   0.375   4.942 -1.2740 -2.3545 -1.2069
 1006MOL0     H32759   8.952   0.528   4.844  1.4048  0.2451  0.6708
 1006MOL0     H32760   8.968   0.238   4.731  1.3699 -0.7335  1.7098
 1006MOL0     H32761   9.080   0.373   4.730  0.2529 -2.2783  1.0795
 1006MOL0     H32762   8.913   0.524   4.610 -1.4250 -0.1955 -0.7840
 1006MOL0     H32763   8.807   0.386   4.593 -0.2223 -0.8822 -0.7212
 1006MOL0     H32764   9.068   0.450   4.442 -0.1684  0.1326 -0.3277
 1006MOL0     H32765   9.055   0.291   4.491  0.4936  0.0274  1.1669
 1006MOL0     H32766   8.829   0.449   4.367 -1.6443 -2.1273  0.5282
 1006MOL0     H32767   8.824   0.279   4.393  0.5339 -1.2657 -1.2852
 1006MOL0     H32768   9.005   0.247   4.217  2.6570  0.9707 -2.7949
 1006MOL0     H32769   9.016   0.428   4.198 -0.7992  1.0458 -0.3159
 1006MOL0     H32770   8.816   0.437   4.068 -2.0788 -0.1949 -0.2559
 1006MOL0     H32771   8.915   0.295   4.021  0.9376  2.1086 -1.0929
 1006MOL0     H32772   8.670   0.293   4.188  2.1629  3.7579 -0.2072
 1006MOL0     H32773   8.766   0.140   4.133  1.8524  0.5171 -0.8151
 1006MOL0     H32774   8.821   0.676   4.901  3.1793 -2.0595  2.6184
 1006MOL0     H32775   8.677   0.808   5.055  0.2164 -0.0588  1.4437
 1006MOL0     H32776   8.325   0.815   5.276  1.1243 -3.0031  0.2079
 1006MOL0     H32777   8.153   0.947   5.406 -0.9086 -0.8598  0.7320
 1006MOL0     H32778   6.571   0.699   6.329 -1.5708 -0.9710  0.1076
 1006MOL0     H32779   6.503   0.484   6.345 -0.1097 -0.6117  1.2383
 1006MOL0     H32780   6.886   0.035   6.261  0.7162 -0.0050  0.7067
 1006MOL0     H32781   6.888  -0.207   6.187  2.3485  2.6902 -0.4250
 1006MOL0     H32782   6.470  -0.401   6.221 -1.2715  0.6663 -1.7830
 1006MOL0     H32783   6.575  -0.525   6.146  0.4203 -0.7390  0.0773
 1006MOL0     H32784   6.432  -0.295   6.015  1.0380 -0.2523  3.8756
 1006MOL0     H32785   6.574  -0.367   5.945  1.0798  0.1128  0.0769
 1006MOL0     H32786   6.444  -0.573   5.904 -3.8038 -1.7878 -0.9455
 1006MOL0     H32787   6.325  -0.455   5.865 -2.5421 -2.4008  0.1478
 1006MOL0     H32788   6.271  -0.455   6.134  0.8198 -1.1304  2.4469
 1006MOL0     H32789   6.203  -0.576   6.020  1.1594 -1.1407  0.2972
 1006MOL0     H32790   6.354  -0.868   6.222 -1.0319 -0.1208 -1.5165
 1006MOL0     H32791   6.453  -0.175   6.209 -0.4974 -0.7252 -0.1770
 1006MOL0     H32792   6.463   0.060   6.253 -0.3203 -1.0880  3.4714
 1007MOL0     O32793   3.976   8.843   9.608  1.0806  0.0871  0.1944
 1007MOL0     C32794   3.934   8.726   9.571 -0.3916 -0.3917 -0.8304
 1007MOL0     O32795   4.006   8.606   9.583  0.5146  0.8955  0.2910
 1007MOL0     C32796   4.135   8.604   9.639 -0.4198  0.0038 -0.4909
 1007MOL0     C32797   4.234   8.704   9.653  1.2632  0.3591 -0.1451
 1007MOL0     C32798   4.365   8.669   9.699  0.4186 -0.3035  0.7088
 1007MOL0     C32799   4.397   8.536   9.739  1.1443  0.0096 -1.0046
 1007MOL0     O32800   4.520   8.508   9.792  0.1547 -0.2515  0.0881
 1007MOL0     C32801   4.561   8.373   9.811  0.3682  0.4019  0.5189
 1007MOL0     C32802   4.714   8.374   9.812 -0.2434  0.4798 -0.3914
 1007MOL0     C32803   4.785   8.434   9.937  0.4072 -0.1276 -0.3796
 1007MOL0     C32804   4.930   8.391   9.932 -0.8226 -0.1559 -0.2578
 1007MOL0     C32805   5.018   8.508   9.970  0.2761  0.0616 -0.0588
 1007MOL0     C32806   5.169   8.486  10.016  0.9638 -0.6123 -0.7100
 1007MOL0     C32807   5.262   8.394   9.936  0.2311  0.4063  0.3989
 1007MOL0     C32808   5.362   8.318  10.022  0.1878  0.9944 -0.9397
 1007MOL0     N32809   5.489   8.390  10.044  1.2614 -0.7161  0.1214
 1007MOL0     C32810   5.603   8.326  10.016 -0.4130  0.8250 -0.3382
 1007MOL0     C32811   5.691   8.408  10.078 -0.5154  1.3176 -0.3107
 1007MOL0     C32812   5.840   8.385  10.077  0.2901  0.1361  0.2945
 1007MOL0     C32813   5.866   8.233  10.083 -0.1576  0.2899 -0.5681
 1007MOL0     C32814   5.792   8.149  10.194  0.4634 -0.4345 -0.0583
 1007MOL0     C32815   5.831   8.183  10.337  0.5156  0.1675 -0.8080
 1007MOL0     O32816   5.727   8.134  10.428 -0.3321 -0.4804 -0.4575
 1007MOL0     C32817   5.600   8.192  10.416 -0.4153 -1.4879 -0.2340
 1007MOL0     C32818   5.488   8.112  10.392 -0.7103  0.2953 -0.4472
 1007MOL0     C32819   5.358   8.157  10.388 -0.8854 -0.9748  0.0042
 1007MOL0     C32820   5.328   8.293  10.411 -0.0915  0.4542  0.6665
 1007MOL0     C32821   5.188   8.340  10.391  0.6778 -0.7268  0.0751
 1007MOL0     O32822   5.168   8.474  10.391 -0.9327 -0.5133 -0.0330
 1007MOL0     C32823   5.044   8.539  10.377  0.3988  0.7178 -0.4307
 1007MOL0     C32824   4.941   8.476  10.298  0.0631 -0.8729  0.0201
 1007MOL0     C32825   4.817   8.537  10.271  0.3057 -0.3935 -1.0072
 1007MOL0     C32826   4.787   8.663  10.334  0.2303 -0.1926  0.0187
 1007MOL0     O32827   4.669   8.732  10.318 -0.5109 -0.0273  0.7442
 1007MOL0     C32828   4.555   8.646  10.288 -0.7453  0.6712  0.5721
 1007MOL0     C32829   4.423   8.720  10.301 -0.5810 -0.1977 -0.0674
 1007MOL0     C32830   4.392   8.833  10.201  0.8809  0.8619  0.1602
 1007MOL0     C32831   4.249   8.881  10.237 -0.1275  1.1815 -0.4976
 1007MOL0     C32832   4.212   9.019  10.179 -0.6770  0.3896  0.4976
 1007MOL0     C32833   4.093   9.067  10.243  0.4721 -0.3644  0.1524
 1007MOL0     C32834   4.018   9.161  10.146  0.3266 -0.7331  0.2986
 1007MOL0     C32835   3.892   9.228  10.205 -0.1388 -0.4545 -0.4963
 1007MOL0    Cl32836   3.797   9.304  10.065  0.4469 -0.1385  0.4792
 1007MOL0     C32837   4.883   8.714  10.421 -0.2630 -0.7322  0.7367
 1007MOL0     C32838   5.011   8.656  10.440  0.6762 -0.6777 -0.3142
 1007MOL0     O32839   5.096   8.254  10.398 -0.3948  0.4630 -0.6452
 1007MOL0     C32840   5.438   8.378  10.434 -0.2299 -0.6303  0.3935
 1007MOL0     C32841   5.569   8.328  10.434 -0.3920 -0.4147 -0.3482
 1007MOL0     N32842   5.629   8.518  10.132 -0.0827 -0.5480  0.1601
 1007MOL0     N32843   5.504   8.505  10.116 -0.5244  0.2792 -0.1182
 1007MOL0     C32844   4.300   8.438   9.711  0.4908  0.4102  0.2747
 1007MOL0     C32845   4.173   8.472   9.676  0.8511 -0.4050 -0.7901
 1007MOL0     C32846   3.796   8.719   9.527  0.0158 -0.2785 -1.0088
 1007MOL0     C32847   3.715   8.831   9.507 -0.4851 -0.1860 -0.0285
 1007MOL0     C32848   3.586   8.819   9.449 -0.4976  0.7263 -0.3190
 1007MOL0     C32849   3.536   8.695   9.418  0.5294  0.3194 -0.0947
 1007MOL0     O32850   3.407   8.663   9.373  0.2842  0.3671  1.3104
 1007MOL0     C32851   3.315   8.771   9.346  0.4403  0.4010 -0.3852
 1007MOL0     C32852   3.243   8.792   9.482 -0.4585  0.0175  0.1049
 1007MOL0     C32853   3.169   8.921   9.499  0.1162  0.3576  1.0015
 1007MOL0     C32854   3.065   8.931   9.377 -0.0014  0.0719  0.5179
 1007MOL0     C32855   2.971   9.050   9.368  0.6367  0.6015  0.0372
 1007MOL0     C32856   2.906   9.154   9.366  0.0348  0.6230 -0.7665
 1007MOL0     C32857   3.619   8.582   9.425  0.0107  0.9779 -0.3623
 1007MOL0     C32858   3.744   8.595   9.481 -0.6056  1.1419  0.2353
 1007MOL0     H32859   4.209   8.806   9.624  0.4263 -0.1401 -1.2747
 1007MOL0     H32860   4.446   8.740   9.714 -1.0725  1.5778  0.1552
 1007MOL0     H32861   4.523   8.300   9.739  2.9065  0.2654 -0.8132
 1007MOL0     H32862   4.521   8.344   9.908 -1.6092 -2.5147 -1.0454
 1007MOL0     H32863   4.752   8.444   9.735  0.4631 -1.4496 -1.8827
 1007MOL0     H32864   4.758   8.277   9.790 -4.2182 -0.6403 -5.2453
 1007MOL0     H32865   4.739   8.386  10.024  1.9876 -2.2877 -0.6472
 1007MOL0     H32866   4.773   8.542   9.932  0.7059 -0.0961 -0.4480
 1007MOL0     H32867   4.948   8.319  10.012  0.8228  2.2878  1.6883
 1007MOL0     H32868   4.958   8.349   9.835 -0.7362 -2.0726  0.5475
 1007MOL0     H32869   4.963   8.573  10.039  3.8881  2.4543  0.8887
 1007MOL0     H32870   5.027   8.571   9.881 -2.1128 -0.4206 -0.6876
 1007MOL0     H32871   5.147   8.430  10.107 -2.3367 -1.2217 -1.7344
 1007MOL0     H32872   5.214   8.584  10.029 -2.0465  1.2006 -2.5566
 1007MOL0     H32873   5.203   8.326   9.873  3.2741  1.1141 -3.6140
 1007MOL0     H32874   5.327   8.463   9.882  1.0176  2.3978  3.6339
 1007MOL0     H32875   5.391   8.222   9.980  1.5509 -0.1443  2.3010
 1007MOL0     H32876   5.315   8.280  10.114  1.0960 -3.3903 -2.1049
 1007MOL0     H32877   5.628   8.235   9.962 -0.2640  1.4787 -1.3878
 1007MOL0     H32878   5.877   8.444  10.161 -0.9720  5.3123 -2.3940
 1007MOL0     H32879   5.893   8.436   9.996 -1.2796  2.3990  0.6100
 1007MOL0     H32880   5.970   8.214  10.111 -0.1324  2.2716  0.8610
 1007MOL0     H32881   5.853   8.188   9.983  1.4953 -3.5554  0.7601
 1007MOL0     H32882   5.686   8.151  10.170  0.8558  2.5524 -2.1574
 1007MOL0     H32883   5.818   8.044  10.176 -1.7696 -1.2728  1.2627
 1007MOL0     H32884   5.854   8.289  10.350  1.7430 -0.1911  0.1469
 1007MOL0     H32885   5.919   8.126  10.368 -1.1166 -1.5317  0.9766
 1007MOL0     H32886   5.507   8.007  10.374 -0.7962 -0.2195  2.0623
 1007MOL0     H32887   5.276   8.088  10.375 -2.8575  0.6848  2.5623
 1007MOL0     H32888   4.975   8.390  10.241  1.5208  0.8466 -1.8688
 1007MOL0     H32889   4.740   8.499  10.204 -0.4791  0.9885 -0.9256
 1007MOL0     H32890   4.572   8.563  10.356  1.2179  1.5437  1.2320
 1007MOL0     H32891   4.558   8.604  10.187 -1.7574 -3.5073  2.0840
 1007MOL0     H32892   4.420   8.759  10.403 -2.6825 -0.3739 -0.0183
 1007MOL0     H32893   4.335   8.656  10.287 -0.3765 -0.2677 -1.1534
 1007MOL0     H32894   4.389   8.782  10.105  0.8198  0.8573  0.1647
 1007MOL0     H32895   4.473   8.905  10.192  2.4113 -0.9972 -1.8219
 1007MOL0     H32896   4.167   8.821  10.198 -2.3842  2.1970  2.3136
 1007MOL0     H32897   4.241   8.876  10.346 -0.7651  0.2423 -0.5789
 1007MOL0     H32898   4.203   9.011  10.071 -0.0011  1.0736  0.3808
 1007MOL0     H32899   4.297   9.088  10.192 -0.0321 -0.3782  0.4603
 1007MOL0     H32900   4.117   9.121  10.334  0.3322  2.0699 -1.1726
 1007MOL0     H32901   4.033   8.978  10.265  0.4645 -0.7645 -1.3297
 1007MOL0     H32902   4.076   9.244  10.104 -2.7569  1.3372 -0.1674
 1007MOL0     H32903   3.976   9.102  10.064 -0.0406  0.3668 -0.3333
 1007MOL0     H32904   3.929   9.296  10.282 -0.7993 -1.7459  1.0079
 1007MOL0     H32905   3.825   9.155  10.253 -3.5998  3.0623  0.5238
 1007MOL0     H32906   4.861   8.801  10.481  0.7042  0.3956 -0.4691
 1007MOL0     H32907   5.083   8.706  10.503 -1.6430  1.0276  1.1430
 1007MOL0     H32908   5.426   8.485  10.445  1.3142 -0.0676 -2.3818
 1007MOL0     H32909   5.657   8.388  10.454  0.8331 -2.6804  1.6366
 1007MOL0     H32910   4.317   8.331   9.718  0.0088  0.0065 -3.0579
 1007MOL0     H32911   4.106   8.387   9.666 -1.3096  1.4774 -4.0551
 1007MOL0     H32912   3.747   8.932   9.532 -1.6703  0.5139 -1.2064
 1007MOL0     H32913   3.536   8.914   9.438  0.9012  1.9944  3.0428
 1007MOL0     H32914   3.245   8.742   9.268 -0.4060 -0.5509  0.7007
 1007MOL0     H32915   3.362   8.868   9.324 -0.8876  0.9152 -1.0502
 1007MOL0     H32916   3.181   8.704   9.505  1.9642 -1.4982  1.3080
 1007MOL0     H32917   3.321   8.785   9.559 -0.0442  1.4721 -0.1614
 1007MOL0     H32918   3.234   9.008   9.486  0.6542 -0.1012  0.5927
 1007MOL0     H32919   3.115   8.929   9.594 -0.4852  4.4103  0.5335
 1007MOL0     H32920   3.127   8.936   9.287 -0.8034  0.4165 -0.0269
 1007MOL0     H32921   3.011   8.835   9.381  2.7889 -1.5664  2.2309
 1007MOL0     H32922   2.850   9.244   9.362 -2.6578 -0.9744 -1.7411
 1007MOL0     H32923   3.582   8.484   9.395  2.5263 -0.1161 -0.1298
 1007MOL0     H32924   3.810   8.510   9.484 -0.9296  0.8025 -1.4313
 1008MOL0     O32925   4.561   3.316   6.316  0.4663  0.1510 -0.5241
 1008MOL0     C32926   4.497   3.314   6.210 -0.1470  1.4174  0.1990
 1008MOL0     O32927   4.474   3.198   6.132  0.6076 -0.0861  0.3775
 1008MOL0     C32928   4.500   3.080   6.191  0.4206 -0.2363  0.9434
 1008MOL0     C32929   4.619   3.043   6.252  0.9963  0.3837 -0.9688
 1008MOL0     C32930   4.645   2.914   6.295 -0.8910 -0.5865  1.0732
 1008MOL0     C32931   4.538   2.823   6.291 -0.3470  1.2501 -0.4539
 1008MOL0     O32932   4.548   2.693   6.344  0.6930 -0.5696  0.4030
 1008MOL0     C32933   4.626   2.678   6.459 -0.6972 -0.4104  0.5261
 1008MOL0     C32934   4.579   2.562   6.546  0.0154 -0.3197 -1.1243
 1008MOL0     C32935   4.594   2.582   6.697 -0.2262 -0.0968 -0.9591
 1008MOL0     C32936   4.741   2.599   6.748 -0.6498 -0.2784  0.8603
 1008MOL0     C32937   4.750   2.604   6.905  0.6855 -1.2167  0.0474
 1008MOL0     C32938   4.888   2.651   6.952 -0.3956  0.4420 -1.2244
 1008MOL0     C32939   4.917   2.628   7.099  0.8549  0.0337 -0.6460
 1008MOL0     C32940   5.047   2.689   7.156 -0.0933 -0.4923  0.3332
 1008MOL0     N32941   5.076   2.648   7.296  1.1083  0.1879 -0.0145
 1008MOL0     C32942   5.112   2.527   7.353 -1.0470 -0.3448  0.1587
 1008MOL0     C32943   5.156   2.561   7.480 -0.5812 -0.1908  0.1896
 1008MOL0     C32944   5.214   2.460   7.577 -0.5137 -0.1887  0.1482
 1008MOL0     C32945   5.288   2.534   7.687  0.5675  0.3815 -0.0550
 1008MOL0     C32946   5.335   2.421   7.784 -0.7544  0.2509  0.0520
 1008MOL0     C32947   5.392   2.481   7.914  0.0112  0.2036  0.1151
 1008MOL0     O32948   5.285   2.563   7.975 -0.0884  0.3824  0.1692
 1008MOL0     C32949   5.307   2.696   7.987 -0.1682  0.4716 -0.1370
 1008MOL0     C32950   5.195   2.786   7.998  0.9847 -0.4483  0.5400
 1008MOL0     C32951   5.215   2.920   8.044  1.1603 -0.0241 -0.3807
 1008MOL0     C32952   5.343   2.971   8.071 -0.2219  1.4348 -0.0015
 1008MOL0     C32953   5.376   3.106   8.112  0.0970  0.0502 -1.1948
 1008MOL0     O32954   5.279   3.161   8.190 -0.0921  0.2944  0.6190
 1008MOL0     C32955   5.277   3.287   8.244  0.0104  0.3956  0.3422
 1008MOL0     C32956   5.390   3.365   8.272 -0.6014  1.5016 -0.1426
 1008MOL0     C32957   5.380   3.493   8.327  0.2036 -0.6764 -0.8784
 1008MOL0     C32958   5.249   3.541   8.373 -0.6372  0.3453 -0.7903
 1008MOL0     O32959   5.236   3.667   8.433  0.0026  1.3693 -0.8776
 1008MOL0     C32960   5.328   3.770   8.374 -0.5070 -0.3388  0.1297
 1008MOL0     C32961   5.251   3.901   8.374 -0.6696 -0.0277 -0.2738
 1008MOL0     C32962   5.359   4.004   8.349  0.2590  0.6153 -0.1834
 1008MOL0     C32963   5.291   4.139   8.333 -0.3603  0.8061  0.4588
 1008MOL0     C32964   5.385   4.252   8.371 -0.7148 -0.0708 -0.1117
 1008MOL0     C32965   5.521   4.239   8.320  0.6668 -0.7278  0.4530
 1008MOL0     C32966   5.602   4.374   8.357  0.1937 -0.2759 -0.6285
 1008MOL0     C32967   5.722   4.404   8.263  0.0015  0.8558 -0.3194
 1008MOL0    Cl32968   5.823   4.268   8.220  0.5596  0.2993  0.1077
 1008MOL0     C32969   5.142   3.453   8.345 -0.5177 -0.1084 -0.3811
 1008MOL0     C32970   5.155   3.329   8.285  0.2474 -0.6074 -1.1872
 1008MOL0     O32971   5.482   3.163   8.072 -0.3864 -0.0055 -0.0446
 1008MOL0     C32972   5.452   2.879   8.065  0.0326 -0.2840  0.3827
 1008MOL0     C32973   5.432   2.742   8.040  0.9328 -0.4434 -0.6286
 1008MOL0     N32974   5.123   2.694   7.503 -0.4985  0.5521 -1.0072
 1008MOL0     N32975   5.083   2.745   7.393  0.6726  0.2465  0.1472
 1008MOL0     C32976   4.416   2.858   6.225  0.0372  0.7455  0.4846
 1008MOL0     C32977   4.403   2.981   6.169  0.0802  1.2719 -0.0653
 1008MOL0     C32978   4.428   3.437   6.177 -0.4356 -0.5462  0.2168
 1008MOL0     C32979   4.348   3.444   6.063 -0.5188 -0.3480 -0.3514
 1008MOL0     C32980   4.263   3.555   6.048  0.2093  0.7318  0.0210
 1008MOL0     C32981   4.264   3.656   6.144 -0.9317 -0.6781  0.1574
 1008MOL0     O32982   4.208   3.778   6.140  0.3890 -0.0930 -0.2564
 1008MOL0     C32983   4.069   3.787   6.120  0.1587  0.3106  0.0169
 1008MOL0     C32984   3.979   3.698   6.199 -0.4704 -0.0522  0.4336
 1008MOL0     C32985   3.831   3.706   6.153 -0.0018  1.3128  0.4614
 1008MOL0     C32986   3.724   3.638   6.247 -0.4779  0.3113 -0.7217
 1008MOL0     C32987   3.724   3.496   6.225 -0.1652 -0.0182 -0.3305
 1008MOL0     C32988   3.715   3.379   6.215 -0.0526  0.6781 -0.1869
 1008MOL0     C32989   4.345   3.651   6.258  0.2661  0.2048  0.7831
 1008MOL0     C32990   4.425   3.543   6.270  0.1143 -0.2021 -1.2161
 1008MOL0     H32991   4.693   3.122   6.250  1.6650 -0.2341 -0.9994
 1008MOL0     H32992   4.741   2.880   6.334  1.0465  0.8106 -2.0767
 1008MOL0     H32993   4.611   2.768   6.518 -0.5060  0.3480 -0.5531
 1008MOL0     H32994   4.732   2.663   6.437 -0.6818 -0.2693  0.5062
 1008MOL0     H32995   4.642   2.478   6.516 -0.1429 -1.2868  1.1023
 1008MOL0     H32996   4.473   2.535   6.535 -0.8753  1.2783  2.2184
 1008MOL0     H32997   4.545   2.497   6.746 -1.5213  2.3464  2.3226
 1008MOL0     H32998   4.534   2.668   6.729 -2.9430 -2.3713  0.5758
 1008MOL0     H32999   4.797   2.506   6.732  0.4169 -0.3145  4.0682
 1008MOL0     H33000   4.788   2.684   6.700  0.4692 -0.4514  1.6165
 1008MOL0     H33001   4.728   2.502   6.936  1.0671 -1.5703 -0.7967
 1008MOL0     H33002   4.674   2.668   6.951  0.1759 -1.5725 -0.2961
 1008MOL0     H33003   4.908   2.756   6.925  0.1976 -0.2084 -3.5646
 1008MOL0     H33004   4.966   2.600   6.895  0.5627 -1.6365  1.7444
 1008MOL0     H33005   4.826   2.661   7.151  0.6170 -1.8254  0.1850
 1008MOL0     H33006   4.912   2.519   7.111 -2.2754  0.1889  0.4197
 1008MOL0     H33007   5.018   2.795   7.160 -0.2748 -0.5324  0.1240
 1008MOL0     H33008   5.135   2.673   7.094  1.6535  0.0948  2.5121
 1008MOL0     H33009   5.107   2.435   7.295  0.4162  0.1478 -0.7942
 1008MOL0     H33010   5.296   2.409   7.524  0.3954 -0.1298  1.4579
 1008MOL0     H33011   5.144   2.380   7.606 -0.0291 -1.2786 -1.5047
 1008MOL0     H33012   5.218   2.601   7.739  3.2331  1.0057  3.0611
 1008MOL0     H33013   5.366   2.593   7.640 -0.5307  2.2717  0.3936
 1008MOL0     H33014   5.261   2.347   7.816 -0.6279  0.9220  2.0086
 1008MOL0     H33015   5.408   2.357   7.732 -0.6252 -2.4123  3.1450
 1008MOL0     H33016   5.479   2.541   7.885 -1.9962  2.2507 -2.0811
 1008MOL0     H33017   5.432   2.405   7.982  0.5821 -0.4896 -0.9563
 1008MOL0     H33018   5.092   2.767   7.970  1.1452 -1.9099  0.8816
 1008MOL0     H33019   5.127   2.983   8.054  1.6612  0.6338  0.0118
 1008MOL0     H33020   5.488   3.324   8.249 -1.5484 -1.2936  0.4331
 1008MOL0     H33021   5.471   3.551   8.344 -0.3851  1.5704 -4.4498
 1008MOL0     H33022   5.369   3.735   8.279  2.0394  0.2884  0.8945
 1008MOL0     H33023   5.416   3.786   8.437  0.4364 -1.9564 -0.7128
 1008MOL0     H33024   5.206   3.926   8.470  0.7726  1.9338 -0.0580
 1008MOL0     H33025   5.179   3.899   8.292 -0.4667  1.0999 -0.4922
 1008MOL0     H33026   5.426   3.975   8.267  1.0550 -2.8748  1.5243
 1008MOL0     H33027   5.418   4.003   8.440 -1.2925 -3.0770  0.9810
 1008MOL0     H33028   5.257   4.160   8.231  1.7924  2.2520 -0.0468
 1008MOL0     H33029   5.208   4.135   8.404  0.2139  0.4094  1.1267
 1008MOL0     H33030   5.384   4.265   8.479 -2.4631 -0.4198 -0.0660
 1008MOL0     H33031   5.335   4.344   8.341  1.3073  0.7032 -1.3240
 1008MOL0     H33032   5.504   4.220   8.214  0.4850  0.7153  0.2080
 1008MOL0     H33033   5.573   4.151   8.360 -2.5758 -3.3346 -0.6022
 1008MOL0     H33034   5.534   4.460   8.362  0.5545  0.0839 -1.5853
 1008MOL0     H33035   5.642   4.357   8.457  2.1036 -2.8029 -1.7296
 1008MOL0     H33036   5.775   4.482   8.318 -1.7441  2.2283 -0.4657
 1008MOL0     H33037   5.676   4.449   8.174 -1.6181 -0.6545 -0.3062
 1008MOL0     H33038   5.039   3.484   8.357 -0.3978  0.3452 -0.4911
 1008MOL0     H33039   5.066   3.290   8.236 -1.3196  1.2685  0.0149
 1008MOL0     H33040   5.559   2.891   8.079  0.8074 -0.2611 -4.1163
 1008MOL0     H33041   5.514   2.673   8.057  2.0519 -0.0666 -3.8142
 1008MOL0     H33042   4.329   2.795   6.213  0.3722  0.6123 -1.5633
 1008MOL0     H33043   4.318   2.996   6.103 -0.8351 -0.9783  0.5230
 1008MOL0     H33044   4.346   3.371   5.982  2.0884  0.3291 -1.1317
 1008MOL0     H33045   4.195   3.567   5.965  0.1043 -2.8416 -0.5699
 1008MOL0     H33046   4.044   3.770   6.015  0.7554  1.6294 -0.3563
 1008MOL0     H33047   4.033   3.883   6.157 -1.3369 -0.0002 -0.5844
 1008MOL0     H33048   4.014   3.595   6.191  0.1748  0.2665 -1.0806
 1008MOL0     H33049   3.992   3.722   6.305  0.1455 -1.2772  0.6525
 1008MOL0     H33050   3.809   3.669   6.053 -2.9909  1.9361  0.7717
 1008MOL0     H33051   3.804   3.812   6.151 -0.6187  1.2061  1.8263
 1008MOL0     H33052   3.746   3.657   6.353  1.5781 -1.9193 -0.6711
 1008MOL0     H33053   3.622   3.670   6.222 -0.8455  0.3728  0.7206
 1008MOL0     H33054   3.689   3.275   6.213  2.1158  0.0672  0.6206
 1008MOL0     H33055   4.338   3.733   6.329 -0.4109 -0.4747  1.5169
 1008MOL0     H33056   4.494   3.536   6.354  0.0876  2.1516 -0.9424
 1009MOL0     O33057   9.092   0.335   1.922  0.8353  0.7323 -0.3081
 1009MOL0     C33058   9.059   0.437   1.872  0.2937  0.5792  0.2938
 1009MOL0     O33059   9.143   0.541   1.848  0.3431  0.6151  0.0911
 1009MOL0     C33060   9.265   0.535   1.900 -0.2424 -0.7032  1.0296
 1009MOL0     C33061   9.281   0.581   2.036 -0.1281  0.5386 -0.8905
 1009MOL0     C33062   9.400   0.582   2.111 -0.4620  0.4461  0.0538
 1009MOL0     C33063   9.504   0.523   2.039 -0.3026  1.2861  0.5398
 1009MOL0     O33064   9.631   0.497   2.092 -0.6040  0.1580  0.0178
 1009MOL0     C33065   9.671   0.571   2.202  0.7568 -0.2711 -0.6020
 1009MOL0     C33066   9.712   0.715   2.164  0.2492  0.9430 -0.8452
 1009MOL0     C33067   9.774   0.788   2.280  0.0312  0.1642  0.2693
 1009MOL0     C33068   9.808   0.931   2.245  0.4964 -0.5692 -0.7814
 1009MOL0     C33069   9.917   0.949   2.135  0.5310 -0.3185  0.2849
 1009MOL0     C33070  10.047   1.000   2.191  0.0546  0.4643  0.3236
 1009MOL0     C33071  10.169   1.032   2.093 -0.4114 -0.1608  0.8754
 1009MOL0     C33072  10.296   1.064   2.159  0.2721  0.4057  0.5697
 1009MOL0     N33073  10.361   0.940   2.207  0.5840  1.1676 -0.5080
 1009MOL0     C33074  10.350   0.809   2.164 -0.0590  0.2220  0.4149
 1009MOL0     C33075  10.444   0.741   2.220 -0.0150 -0.4495 -0.3098
 1009MOL0     C33076  10.454   0.593   2.200  1.1064 -0.5517  0.3519
 1009MOL0     C33077  10.527   0.522   2.313  0.2582  1.0877  0.8392
 1009MOL0     C33078  10.440   0.478   2.430 -0.9561  0.6306  0.7361
 1009MOL0     C33079  10.379   0.584   2.530  0.2765 -0.4116 -0.3054
 1009MOL0     O33080  10.277   0.518   2.611  0.9593 -0.1438 -0.0710
 1009MOL0     C33081  10.174   0.604   2.651 -0.4611 -0.7607 -0.7343
 1009MOL0     C33082  10.065   0.622   2.574  0.4404  0.1897  0.0264
 1009MOL0     C33083   9.961   0.710   2.609 -0.3876  0.1332 -0.7122
 1009MOL0     C33084   9.968   0.778   2.735  0.2288 -0.7822  0.3291
 1009MOL0     C33085   9.860   0.873   2.770  0.4847  0.4747 -0.0484
 1009MOL0     O33086   9.753   0.868   2.698 -0.8084  0.0306  0.3988
 1009MOL0     C33087   9.639   0.928   2.735  0.9149 -0.7467  0.3111
 1009MOL0     C33088   9.577   0.950   2.857 -0.3311  0.3615  0.0925
 1009MOL0     C33089   9.446   0.982   2.875 -0.2282  0.1326  0.3329
 1009MOL0     C33090   9.357   1.007   2.769  0.5340  0.2474 -0.3697
 1009MOL0     O33091   9.224   1.047   2.790 -0.1352 -0.8427 -0.3905
 1009MOL0     C33092   9.166   1.134   2.690 -1.0314  0.1956  0.0593
 1009MOL0     C33093   9.051   1.203   2.751  0.6590 -0.0523 -0.4935
 1009MOL0     C33094   8.970   1.299   2.660  0.5531 -0.7724  0.3313
 1009MOL0     C33095   8.912   1.242   2.528  1.1289  0.5140  0.5659
 1009MOL0     C33096   8.834   1.352   2.458  0.4183 -0.0610 -0.4016
 1009MOL0     C33097   8.808   1.317   2.311 -0.5039 -0.9717  0.0945
 1009MOL0     C33098   8.759   1.441   2.242  0.5699  0.1231  0.2354
 1009MOL0     C33099   8.695   1.407   2.109  0.1940  0.0316  0.1066
 1009MOL0    Cl33100   8.816   1.323   2.010  0.3326 -0.1187  0.0576
 1009MOL0     C33101   9.416   0.991   2.650  0.6279  0.4925 -0.0726
 1009MOL0     C33102   9.547   0.951   2.624 -0.2421  0.6027  0.8105
 1009MOL0     O33103   9.877   0.943   2.871 -0.0398 -0.5267 -0.0268
 1009MOL0     C33104  10.072   0.746   2.819  0.8230  0.7962 -1.1174
 1009MOL0     C33105  10.173   0.654   2.782  0.8085 -1.1643 -0.7119
 1009MOL0     N33106  10.497   0.824   2.317 -0.3201  1.1684  0.7618
 1009MOL0     N33107  10.456   0.942   2.298  0.4457 -0.4660  0.1949
 1009MOL0     C33108   9.498   0.483   1.906 -0.8012  0.2433  0.4621
 1009MOL0     C33109   9.378   0.495   1.832 -0.3988  0.1369 -0.6080
 1009MOL0     C33110   8.926   0.469   1.831  0.3101 -0.2638 -0.5573
 1009MOL0     C33111   8.819   0.367   1.854 -0.7497 -0.8156  0.5397
 1009MOL0     C33112   8.685   0.387   1.815 -0.4488  0.2854  0.1340
 1009MOL0     C33113   8.659   0.498   1.730  0.2004  0.2126 -0.2650
 1009MOL0     O33114   8.531   0.513   1.695 -0.4387  0.3007 -0.2308
 1009MOL0     C33115   8.443   0.592   1.777 -0.8171  0.9195 -0.2111
 1009MOL0     C33116   8.303   0.536   1.754 -0.7869  0.0822 -0.1986
 1009MOL0     C33117   8.253   0.557   1.610 -0.0703 -0.3593 -0.0808
 1009MOL0     C33118   8.110   0.500   1.561 -0.3118 -0.2840 -0.0528
 1009MOL0     C33119   8.001   0.553   1.648 -0.8226 -0.4480  0.5082
 1009MOL0     C33120   7.925   0.619   1.711 -0.2916 -0.2875 -0.2679
 1009MOL0     C33121   8.751   0.597   1.702 -0.0316 -0.3685 -0.2619
 1009MOL0     C33122   8.881   0.583   1.761 -0.0129 -0.0561 -0.5510
 1009MOL0     H33123   9.189   0.624   2.075  0.7942  1.8291 -0.0675
 1009MOL0     H33124   9.383   0.606   2.216 -0.2198 -2.0608  0.7340
 1009MOL0     H33125   9.755   0.522   2.254 -2.0612 -2.3418  2.3991
 1009MOL0     H33126   9.600   0.561   2.285  1.8104  0.0399  0.3753
 1009MOL0     H33127   9.622   0.763   2.125 -1.0070 -1.1256 -0.6002
 1009MOL0     H33128   9.787   0.711   2.084  1.0777 -4.6085 -0.1521
 1009MOL0     H33129   9.861   0.745   2.329 -0.8150  1.9631  3.6722
 1009MOL0     H33130   9.691   0.781   2.351  0.2478 -1.2369  0.4108
 1009MOL0     H33131   9.711   0.970   2.214  1.0929  0.2536 -1.6374
 1009MOL0     H33132   9.828   0.993   2.333 -0.2190 -1.5199  0.0765
 1009MOL0     H33133   9.889   1.020   2.057  2.8764 -1.3383 -1.6036
 1009MOL0     H33134   9.941   0.858   2.079 -1.1495 -2.3610  2.6761
 1009MOL0     H33135  10.064   0.928   2.271 -3.1300  3.2106  3.8997
 1009MOL0     H33136  10.020   1.091   2.247  0.8152  2.2038 -1.9650
 1009MOL0     H33137  10.174   0.943   2.029 -0.5740 -0.4364  1.2439
 1009MOL0     H33138  10.138   1.121   2.036  0.1785 -0.0100  0.7846
 1009MOL0     H33139  10.285   1.119   2.253  0.3427 -1.6160  1.8440
 1009MOL0     H33140  10.373   1.120   2.107 -0.4846  1.1200  0.2098
 1009MOL0     H33141  10.281   0.763   2.094  0.7858 -2.8075  1.4261
 1009MOL0     H33142  10.509   0.581   2.106 -2.6169 -0.5407 -2.0094
 1009MOL0     H33143  10.362   0.538   2.175  0.8397  0.0728 -0.0520
 1009MOL0     H33144  10.603   0.591   2.350  0.5027  1.5731 -0.4941
 1009MOL0     H33145  10.578   0.440   2.262  1.1847  1.0765  1.7634
 1009MOL0     H33146  10.355   0.414   2.401  1.8345 -2.0675 -2.4425
 1009MOL0     H33147  10.503   0.405   2.482 -1.0780 -0.2002 -0.2478
 1009MOL0     H33148  10.334   0.672   2.482 -0.7787  2.2613  4.8547
 1009MOL0     H33149  10.459   0.617   2.596 -1.4943  0.5983  1.4144
 1009MOL0     H33150  10.063   0.577   2.475  2.6116  2.0195 -0.9335
 1009MOL0     H33151   9.876   0.722   2.543 -0.6719  3.1508  0.0734
 1009MOL0     H33152   9.640   0.930   2.943  2.0530  0.4442 -1.5628
 1009MOL0     H33153   9.402   0.995   2.974 -0.1300 -1.5217  0.6247
 1009MOL0     H33154   9.133   1.085   2.598 -1.6571 -2.1151  1.4451
 1009MOL0     H33155   9.245   1.207   2.667 -1.5360  1.9176  3.1867
 1009MOL0     H33156   9.090   1.250   2.842  1.7924 -2.5032  0.3830
 1009MOL0     H33157   8.985   1.124   2.787  3.6988 -1.6333  2.1326
 1009MOL0     H33158   9.037   1.384   2.642  0.5464 -0.5512  1.2575
 1009MOL0     H33159   8.883   1.331   2.719 -0.3946  2.2911 -2.4383
 1009MOL0     H33160   8.993   1.214   2.460  0.6429  6.8781 -3.5348
 1009MOL0     H33161   8.853   1.153   2.549  3.1351 -1.3303 -1.2448
 1009MOL0     H33162   8.890   1.446   2.460 -1.2799  1.0140 -1.0367
 1009MOL0     H33163   8.737   1.361   2.506  0.1194 -2.7545 -0.3445
 1009MOL0     H33164   8.732   1.239   2.299  0.3294 -1.6488 -1.0577
 1009MOL0     H33165   8.900   1.290   2.258 -0.5202  0.9902 -1.0346
 1009MOL0     H33166   8.689   1.496   2.306  0.9339  0.2750  0.5071
 1009MOL0     H33167   8.836   1.517   2.226 -0.3602  0.8481 -0.9721
 1009MOL0     H33168   8.654   1.489   2.050 -1.1256 -1.2500 -0.8329
 1009MOL0     H33169   8.613   1.336   2.120 -0.3057  0.6142  0.1792
 1009MOL0     H33170   9.352   1.005   2.563  0.0235 -0.4173  0.2135
 1009MOL0     H33171   9.597   0.946   2.528  1.3415  1.6102  1.5345
 1009MOL0     H33172  10.066   0.781   2.921 -2.8984  0.5591 -1.1166
 1009MOL0     H33173  10.261   0.651   2.845 -0.4577  1.3479  1.4337
 1009MOL0     H33174   9.586   0.444   1.857 -1.3245 -0.0788 -0.2398
 1009MOL0     H33175   9.370   0.469   1.727 -2.9824  0.8672 -0.6463
 1009MOL0     H33176   8.852   0.278   1.907  2.2784 -1.1099 -1.5854
 1009MOL0     H33177   8.603   0.316   1.823 -0.2330 -0.0165 -0.2953
 1009MOL0     H33178   8.445   0.699   1.751  0.1498  0.1811 -3.7897
 1009MOL0     H33179   8.458   0.574   1.883 -3.5536 -0.3990  0.0147
 1009MOL0     H33180   8.323   0.431   1.777  2.6382  0.8200  0.8715
 1009MOL0     H33181   8.232   0.582   1.823 -2.0490 -0.4251 -1.1363
 1009MOL0     H33182   8.328   0.526   1.537  1.4497 -0.8406  1.6218
 1009MOL0     H33183   8.260   0.665   1.597  2.4040 -0.1307  2.3970
 1009MOL0     H33184   8.100   0.513   1.453  1.8382  0.4855 -0.1986
 1009MOL0     H33185   8.116   0.393   1.582 -2.9526 -0.9462 -2.0118
 1009MOL0     H33186   7.863   0.691   1.760  0.4922 -0.7863  1.5644
 1009MOL0     H33187   8.726   0.678   1.635  0.9818 -0.5860 -0.9229
 1009MOL0     H33188   8.953   0.663   1.746  0.8335 -1.2517 -3.8495
 1010MOL0     O33189   1.942   2.169   4.864 -0.9466  0.2832 -0.3634
 1010MOL0     C33190   1.938   2.140   4.983 -0.0065 -0.8643  1.1843
 1010MOL0     O33191   1.821   2.150   5.059  0.2169 -0.4543 -0.8384
 1010MOL0     C33192   1.702   2.200   5.013 -0.1645  0.6205  0.3171
 1010MOL0     C33193   1.600   2.112   4.975  0.8773 -0.1869 -0.3023
 1010MOL0     C33194   1.483   2.167   4.916 -0.2233  0.2309 -0.0585
 1010MOL0     C33195   1.483   2.305   4.891  0.7601 -0.5626  0.0766
 1010MOL0     O33196   1.372   2.366   4.820  0.3305 -0.5454  0.1348
 1010MOL0     C33197   1.307   2.468   4.913 -0.4981 -0.1615  0.0687
 1010MOL0     C33198   1.160   2.469   4.877 -0.0541 -0.1475 -0.1199
 1010MOL0     C33199   1.079   2.348   4.937  0.5393  0.8097 -0.4094
 1010MOL0     C33200   0.931   2.378   4.929  0.3650 -1.3558  0.5113
 1010MOL0     C33201   0.866   2.385   4.788  0.3839 -0.4587 -0.3302
 1010MOL0     C33202   0.905   2.269   4.689 -0.0165 -0.2492 -0.1397
 1010MOL0     C33203   0.810   2.149   4.684 -0.2584  0.0277 -0.1925
 1010MOL0     C33204   0.650   2.170   4.693  0.5507 -0.4511  0.3652
 1010MOL0     N33205   0.560   2.063   4.652  0.1993  0.2236 -0.3085
 1010MOL0     C33206   0.577   1.965   4.552 -0.4144 -0.9580 -0.5325
 1010MOL0     C33207   0.482   1.872   4.564 -0.5195 -0.4352  0.1656
 1010MOL0     C33208   0.465   1.746   4.482 -0.7113 -0.0105 -0.2755
 1010MOL0     C33209   0.602   1.691   4.414  0.0007 -0.3484 -0.4156
 1010MOL0     C33210   0.581   1.575   4.312  0.8802  0.4432 -0.2691
 1010MOL0     C33211   0.475   1.472   4.351 -0.5052  0.1720  0.1689
 1010MOL0     O33212   0.352   1.505   4.292  0.2733 -0.2375  0.7152
 1010MOL0     C33213   0.237   1.456   4.351  1.7272 -0.8803  0.1804
 1010MOL0     C33214   0.245   1.378   4.467  0.7488 -0.2121  0.2757
 1010MOL0     C33215   0.117   1.338   4.532  0.3001  0.3224 -0.0903
 1010MOL0     C33216  -0.009   1.373   4.482 -0.6226 -0.3363 -0.6254
 1010MOL0     C33217  -0.135   1.315   4.524  0.7022  0.1678  1.1556
 1010MOL0     O33218  -0.128   1.188   4.569 -0.2941 -0.3660 -0.2181
 1010MOL0     C33219  -0.244   1.122   4.592  1.1303  0.6609 -0.5147
 1010MOL0     C33220  -0.334   1.154   4.699 -0.0772  0.0901  0.5233
 1010MOL0     C33221  -0.465   1.090   4.711 -1.2262  0.3284  0.4103
 1010MOL0     C33222  -0.496   0.983   4.629  0.8153  0.1278  0.4444
 1010MOL0     O33223  -0.617   0.916   4.655 -0.1315  0.7745  0.5074
 1010MOL0     C33224  -0.619   0.771   4.667 -0.5028  0.1692 -0.0406
 1010MOL0     C33225  -0.764   0.724   4.673 -0.3810  0.7194 -0.3280
 1010MOL0     C33226  -0.775   0.609   4.574  0.2228  0.9415  0.6685
 1010MOL0     C33227  -0.902   0.505   4.575 -1.0549 -0.6451 -0.0413
 1010MOL0     C33228  -1.035   0.570   4.562 -0.1333 -0.2860 -0.0313
 1010MOL0     C33229  -1.139   0.453   4.546 -0.4233  0.2478  0.0923
 1010MOL0     C33230  -1.272   0.518   4.483 -0.2134  0.9812 -0.4407
 1010MOL0     C33231  -1.399   0.427   4.471 -0.6694 -0.3952 -0.0416
 1010MOL0    Cl33232  -1.453   0.376   4.641 -0.2590 -0.4386 -0.0672
 1010MOL0     C33233  -0.403   0.956   4.526  0.9054  0.4576  0.8833
 1010MOL0     C33234  -0.287   1.020   4.507  0.6553  0.5117  0.0941
 1010MOL0     O33235  -0.245   1.373   4.499 -0.6549  0.3864  0.1720
 1010MOL0     C33236  -0.012   1.454   4.372  0.3187  0.6080  0.3040
 1010MOL0     C33237   0.107   1.489   4.295 -0.4010  0.5852 -1.1027
 1010MOL0     N33238   0.407   1.914   4.674  0.3128  0.3123  0.3876
 1010MOL0     N33239   0.448   2.027   4.724  0.8196  0.4180  0.0738
 1010MOL0     C33240   1.588   2.395   4.936  0.0851 -0.6706  0.5292
 1010MOL0     C33241   1.690   2.338   5.004 -0.6501  0.1926  0.5890
 1010MOL0     C33242   2.055   2.091   5.040 -0.2736  0.6883  0.1543
 1010MOL0     C33243   2.178   2.113   4.974  0.2643 -0.0635  0.3827
 1010MOL0     C33244   2.307   2.086   5.027  1.5893  0.0753  0.0692
 1010MOL0     C33245   2.311   2.037   5.158  0.2355  1.3241 -0.3901
 1010MOL0     O33246   2.427   2.008   5.227  0.4227  1.3278  0.0276
 1010MOL0     C33247   2.524   1.926   5.155  0.2449  0.1971 -0.6907
 1010MOL0     C33248   2.577   1.814   5.244 -0.8997  0.9402  0.0072
 1010MOL0     C33249   2.469   1.724   5.311  0.1042 -0.6052 -0.4665
 1010MOL0     C33250   2.410   1.629   5.213 -0.1249  0.4366  0.1109
 1010MOL0     C33251   2.482   1.510   5.214  0.3062  0.2288 -0.3995
 1010MOL0     C33252   2.538   1.414   5.185  0.1265 -0.4732 -0.0524
 1010MOL0     C33253   2.189   2.010   5.226 -0.0153  0.7226  0.4123
 1010MOL0     C33254   2.065   2.042   5.175  0.3437  0.1389 -0.1099
 1010MOL0     H33255   1.615   2.006   4.992 -2.7189 -0.7494 -0.0125
 1010MOL0     H33256   1.398   2.108   4.884 -0.4324  1.4936 -2.0155
 1010MOL0     H33257   1.358   2.565   4.918  2.2134 -1.5098  0.6252
 1010MOL0     H33258   1.310   2.434   5.017 -2.5857  0.1897  0.2801
 1010MOL0     H33259   1.140   2.463   4.769 -1.7043  1.4954  0.0381
 1010MOL0     H33260   1.114   2.565   4.903  1.9394  0.8946 -0.2504
 1010MOL0     H33261   1.106   2.328   5.041 -4.0952 -1.8328  0.5827
 1010MOL0     H33262   1.090   2.249   4.891  0.4859 -0.7507  2.7068
 1010MOL0     H33263   0.876   2.300   4.983 -3.3763  2.0832  2.1936
 1010MOL0     H33264   0.919   2.473   4.980  0.7996 -0.8513 -0.3054
 1010MOL0     H33265   0.890   2.482   4.744 -0.8750  0.2328  0.4436
 1010MOL0     H33266   0.760   2.384   4.812  0.1907  2.6852 -0.6698
 1010MOL0     H33267   1.008   2.238   4.710 -0.6876 -0.9240  2.5202
 1010MOL0     H33268   0.920   2.301   4.585  2.8000 -0.3188  0.1657
 1010MOL0     H33269   0.831   2.100   4.588  1.2137  0.5408 -0.1575
 1010MOL0     H33270   0.834   2.067   4.753  0.5639  0.6557  0.2887
 1010MOL0     H33271   0.637   2.250   4.619  4.5704 -0.2452 -0.3797
 1010MOL0     H33272   0.634   2.206   4.795  4.2073  1.1205  0.5491
 1010MOL0     H33273   0.672   1.952   4.500 -0.6348 -2.2292 -0.6296
 1010MOL0     H33274   0.405   1.770   4.393 -0.0303  0.1311 -0.7077
 1010MOL0     H33275   0.416   1.673   4.547 -0.5191  0.7410  0.7198
 1010MOL0     H33276   0.652   1.653   4.504 -3.9732 -0.1319  2.0982
 1010MOL0     H33277   0.680   1.755   4.372  1.3674  0.3338  2.8560
 1010MOL0     H33278   0.559   1.621   4.215 -1.7209  2.5565  1.1882
 1010MOL0     H33279   0.676   1.520   4.308 -0.1430 -1.3998 -0.2232
 1010MOL0     H33280   0.482   1.466   4.460  0.2579  0.2567  0.1327
 1010MOL0     H33281   0.511   1.377   4.309  1.1786  0.5660  0.6601
 1010MOL0     H33282   0.342   1.342   4.501  1.1535 -0.1466 -0.7820
 1010MOL0     H33283   0.122   1.280   4.624  2.8255  1.4329  0.5743
 1010MOL0     H33284  -0.299   1.230   4.768  0.0534  0.6974 -0.1938
 1010MOL0     H33285  -0.536   1.117   4.788 -1.2098 -0.2571  0.6343
 1010MOL0     H33286  -0.575   0.741   4.763  0.8198 -4.2574 -1.7705
 1010MOL0     H33287  -0.571   0.708   4.591 -2.4429 -2.4853  0.7750
 1010MOL0     H33288  -0.829   0.806   4.640 -0.8099 -0.0804 -1.5686
 1010MOL0     H33289  -0.779   0.691   4.776  1.8199  0.5063 -0.0145
 1010MOL0     H33290  -0.681   0.556   4.590  0.7305  1.4253 -0.5604
 1010MOL0     H33291  -0.778   0.654   4.474  4.0847 -1.2813 -0.6160
 1010MOL0     H33292  -0.883   0.426   4.501  0.3121  0.4289 -0.9009
 1010MOL0     H33293  -0.902   0.465   4.677 -5.8016 -0.9793  0.0561
 1010MOL0     H33294  -1.040   0.620   4.465 -3.3957 -0.3506 -0.0067
 1010MOL0     H33295  -1.049   0.647   4.639  4.1262  1.2591 -0.5678
 1010MOL0     H33296  -1.165   0.433   4.650  0.1841  1.5144  0.5139
 1010MOL0     H33297  -1.107   0.363   4.492 -0.5477  0.2286  0.0493
 1010MOL0     H33298  -1.298   0.609   4.538 -0.5791  1.1628 -0.9190
 1010MOL0     H33299  -1.255   0.547   4.379  1.8260 -0.2900 -0.5262
 1010MOL0     H33300  -1.374   0.336   4.414 -1.7845 -0.5298 -0.3283
 1010MOL0     H33301  -1.479   0.477   4.416  1.9283  3.0494 -1.0628
 1010MOL0     H33302  -0.420   0.877   4.454  0.0025 -1.4439  3.0435
 1010MOL0     H33303  -0.228   0.991   4.421 -3.2785 -3.5109 -1.6025
 1010MOL0     H33304  -0.105   1.496   4.334 -1.0706 -2.8545 -0.4827
 1010MOL0     H33305   0.094   1.539   4.199 -4.1752 -1.2239 -1.7352
 1010MOL0     H33306   1.585   2.502   4.915 -0.1461 -0.7733  0.0435
 1010MOL0     H33307   1.769   2.405   5.035 -2.0883  1.8001  0.9198
 1010MOL0     H33308   2.184   2.163   4.877  3.1371  1.1501  1.0573
 1010MOL0     H33309   2.401   2.089   4.973 -0.0659  0.2938 -3.0477
 1010MOL0     H33310   2.610   1.986   5.124  1.2803 -0.9299 -0.0909
 1010MOL0     H33311   2.476   1.889   5.063  0.3916  1.8433 -1.4559
 1010MOL0     H33312   2.639   1.751   5.180 -0.3115  0.1990  1.2533
 1010MOL0     H33313   2.641   1.850   5.326 -1.3458  2.3151 -0.2279
 1010MOL0     H33314   2.390   1.782   5.359 -0.1151 -0.4445 -1.0145
 1010MOL0     H33315   2.514   1.675   5.398 -1.8776  0.6462  1.3373
 1010MOL0     H33316   2.307   1.608   5.246 -1.0039  1.1950 -1.9814
 1010MOL0     H33317   2.393   1.671   5.113 -3.5069 -1.1411 -0.1261
 1010MOL0     H33318   2.595   1.331   5.149  0.6104 -0.2757  0.2432
 1010MOL0     H33319   2.183   1.964   5.324  0.3276  0.2856  0.2296
 1010MOL0     H33320   1.978   2.016   5.235  1.4596 -1.7912  0.7442
 1011MOL0     O33321   7.359   0.430  11.237  0.1454  0.8937  0.2542
 1011MOL0     C33322   7.331   0.321  11.299  0.3816  0.6984  1.2878
 1011MOL0     O33323   7.200   0.294  11.348 -0.4371 -0.7418  0.2046
 1011MOL0     C33324   7.091   0.376  11.326 -0.0825 -0.0976 -0.3799
 1011MOL0     C33325   7.070   0.443  11.198 -1.0250  0.4044 -0.4166
 1011MOL0     C33326   6.958   0.523  11.181 -0.8931  0.6797 -0.1097
 1011MOL0     C33327   6.855   0.537  11.277 -0.4898  0.4264  0.4622
 1011MOL0     O33328   6.740   0.611  11.247  1.5841 -0.2245  0.2597
 1011MOL0     C33329   6.753   0.745  11.202 -0.1492  0.7465 -0.1635
 1011MOL0     C33330   6.683   0.850  11.287  0.1317  0.5174  1.3077
 1011MOL0     C33331   6.532   0.808  11.316  0.9997 -0.2353  0.4683
 1011MOL0     C33332   6.453   0.919  11.388  0.5409 -1.0410 -0.0850
 1011MOL0     C33333   6.389   1.021  11.296 -0.3728 -0.4641  0.2391
 1011MOL0     C33334   6.264   0.970  11.213 -0.7088 -0.0139 -0.8812
 1011MOL0     C33335   6.248   1.032  11.072  1.3095 -0.6714 -0.2932
 1011MOL0     C33336   6.346   0.971  10.970 -0.2344 -0.0983  0.1883
 1011MOL0     N33337   6.328   1.012  10.830  0.6236  0.1581 -0.1959
 1011MOL0     C33338   6.204   1.071  10.793 -1.0341  0.0041 -0.3298
 1011MOL0     C33339   6.236   1.159  10.695  0.1158  0.4768  0.1182
 1011MOL0     C33340   6.134   1.255  10.636  0.2182 -0.1957  0.8404
 1011MOL0     C33341   6.061   1.350  10.732  0.0246 -0.0718 -0.6180
 1011MOL0     C33342   6.119   1.485  10.764  0.0601 -0.1283 -0.8433
 1011MOL0     C33343   6.261   1.469  10.810  0.7385  0.2841  0.6772
 1011MOL0     O33344   6.263   1.389  10.928  0.8578 -0.2927 -0.4860
 1011MOL0     C33345   6.375   1.367  10.991 -0.9421 -0.2579 -1.6076
 1011MOL0     C33346   6.501   1.350  10.935  0.0588  1.3958 -0.6570
 1011MOL0     C33347   6.619   1.325  11.010  0.4168 -0.9509  0.0022
 1011MOL0     C33348   6.607   1.317  11.152  0.3056 -0.7096 -0.1867
 1011MOL0     C33349   6.731   1.308  11.234  0.0055  0.4464 -0.7224
 1011MOL0     O33350   6.726   1.359  11.364  0.4875  0.2386 -0.5690
 1011MOL0     C33351   6.828   1.312  11.443  0.0929  0.4034  0.5475
 1011MOL0     C33352   6.884   1.409  11.525  0.3038  0.2464  0.0275
 1011MOL0     C33353   6.991   1.372  11.616 -1.0053 -0.2892 -0.7317
 1011MOL0     C33354   7.045   1.243  11.615 -0.0977  0.3347 -0.2079
 1011MOL0     O33355   7.139   1.220  11.709  0.3843 -1.3847 -0.0161
 1011MOL0     C33356   7.233   1.118  11.689 -0.0383 -0.6065  1.1652
 1011MOL0     C33357   7.365   1.135  11.758 -0.5948 -0.1508 -0.6616
 1011MOL0     C33358   7.347   1.126  11.910  0.5386 -0.5241 -0.4280
 1011MOL0     C33359   7.480   1.118  11.980 -0.1565 -0.4208  0.2102
 1011MOL0     C33360   7.451   1.110  12.130 -0.3788 -0.0016 -0.0484
 1011MOL0     C33361   7.587   1.137  12.214 -0.1250 -0.1416 -0.3403
 1011MOL0     C33362   7.561   1.130  12.370 -0.2591  0.5217 -0.1085
 1011MOL0     C33363   7.674   1.159  12.473  0.3145 -0.0488  0.3446
 1011MOL0    Cl33364   7.784   1.028  12.495 -0.4502  0.2334 -0.2650
 1011MOL0     C33365   6.983   1.141  11.538  0.1218  0.0354  0.2391
 1011MOL0     C33366   6.866   1.171  11.451  0.8574  0.6806 -0.1465
 1011MOL0     O33367   6.828   1.261  11.178 -0.5843  0.4934 -0.2654
 1011MOL0     C33368   6.485   1.349  11.216 -0.2397  0.7191  0.2500
 1011MOL0     C33369   6.371   1.365  11.133  0.0302  0.1396 -0.2965
 1011MOL0     N33370   6.369   1.171  10.688 -0.2900  0.3457 -0.8369
 1011MOL0     N33371   6.430   1.079  10.762 -0.4424 -0.3285  0.1323
 1011MOL0     C33372   6.875   0.474  11.397 -0.0632  0.9635  0.3834
 1011MOL0     C33373   6.988   0.398  11.421  0.4119 -0.2556 -0.2910
 1011MOL0     C33374   7.446   0.232  11.328 -0.7297  0.2950 -0.9906
 1011MOL0     C33375   7.572   0.257  11.275  0.4045 -0.5527 -0.4216
 1011MOL0     C33376   7.679   0.177  11.288  0.5830 -0.1251  0.4454
 1011MOL0     C33377   7.660   0.051  11.354  0.5078 -0.8310 -0.1873
 1011MOL0     O33378   7.765  -0.031  11.391 -0.3537 -0.0369 -0.0011
 1011MOL0     C33379   7.896  -0.005  11.350 -0.5038  0.8261 -0.8849
 1011MOL0     C33380   7.974  -0.130  11.389  0.0947  0.0476  0.2300
 1011MOL0     C33381   7.948  -0.245  11.293  0.3880  0.4375  0.5286
 1011MOL0     C33382   7.964  -0.223  11.140  0.0764  0.0494  0.1599
 1011MOL0     C33383   8.063  -0.128  11.095  0.6183 -0.1336 -0.4895
 1011MOL0     C33384   8.144  -0.045  11.048  0.8630  0.3702 -0.7600
 1011MOL0     C33385   7.523   0.018  11.394  0.2295 -1.3247  0.2657
 1011MOL0     C33386   7.419   0.106  11.384 -0.3167  0.0351 -0.6159
 1011MOL0     H33387   7.148   0.417  11.126 -1.2719  1.7544 -1.1995
 1011MOL0     H33388   6.936   0.551  11.079 -1.9828 -0.3440 -0.1872
 1011MOL0     H33389   6.695   0.742  11.109 -5.3048 -0.8029  2.6645
 1011MOL0     H33390   6.856   0.759  11.169  0.2594  0.9678  1.1307
 1011MOL0     H33391   6.695   0.942  11.229 -2.5573  0.6670  0.8826
 1011MOL0     H33392   6.736   0.869  11.380  2.4671  0.6765  0.0320
 1011MOL0     H33393   6.553   0.717  11.374  2.6523 -0.6329 -0.6696
 1011MOL0     H33394   6.485   0.775  11.223  1.5132 -0.7078  0.3689
 1011MOL0     H33395   6.387   0.877  11.464  0.3507 -0.9967 -0.2260
 1011MOL0     H33396   6.531   0.980  11.436  2.2826 -1.3020 -2.3884
 1011MOL0     H33397   6.468   1.054  11.228 -0.5090 -2.7463 -1.1436
 1011MOL0     H33398   6.363   1.117  11.341 -0.2998  0.3988 -1.4795
 1011MOL0     H33399   6.175   0.976  11.276  0.8706  0.4597  1.4256
 1011MOL0     H33400   6.290   0.864  11.205 -0.9898 -0.1147 -0.5240
 1011MOL0     H33401   6.145   1.004  11.049  1.2568  0.1513 -1.1267
 1011MOL0     H33402   6.248   1.140  11.088 -1.2002 -0.5656 -0.5295
 1011MOL0     H33403   6.350   0.863  10.986  1.6216  0.0177  0.7623
 1011MOL0     H33404   6.451   0.994  10.990  0.2542 -3.6913  2.6597
 1011MOL0     H33405   6.105   1.047  10.833 -1.1851 -0.3410 -0.9058
 1011MOL0     H33406   6.064   1.187  10.586  0.4068  0.6654 -0.6507
 1011MOL0     H33407   6.192   1.310  10.561  1.6331 -3.1635 -0.3976
 1011MOL0     H33408   6.049   1.290  10.822  1.6697  0.0359 -0.2998
 1011MOL0     H33409   5.963   1.378  10.691 -0.3914 -1.1400 -0.3783
 1011MOL0     H33410   6.112   1.543  10.672  0.1903  1.2546 -0.0096
 1011MOL0     H33411   6.067   1.538  10.844  1.8931  0.8755 -0.2561
 1011MOL0     H33412   6.299   1.566  10.842  0.4078  0.9665 -0.9064
 1011MOL0     H33413   6.328   1.434  10.731  3.6511 -2.1921  3.9197
 1011MOL0     H33414   6.509   1.366  10.827  2.7275  3.3967 -0.2572
 1011MOL0     H33415   6.719   1.326  10.968  2.0450 -0.2400  3.5283
 1011MOL0     H33416   6.852   1.513  11.524  0.6899  0.3808  0.7286
 1011MOL0     H33417   7.048   1.442  11.677  0.2819 -0.4292 -1.7269
 1011MOL0     H33418   7.255   1.125  11.582  1.4461  1.3112  1.5324
 1011MOL0     H33419   7.198   1.017  11.712  1.5179 -2.1503 -2.5912
 1011MOL0     H33420   7.404   1.232  11.726 -2.3476 -0.0458 -2.7142
 1011MOL0     H33421   7.441   1.060  11.735  1.9241  1.9421  0.3410
 1011MOL0     H33422   7.282   1.041  11.929 -2.0378  1.6485  1.2002
 1011MOL0     H33423   7.302   1.223  11.933  3.0581  0.4026  0.9794
 1011MOL0     H33424   7.541   1.034  11.944 -0.5233  0.2656 -2.1413
 1011MOL0     H33425   7.538   1.207  11.955 -0.2115 -0.2129  0.8050
 1011MOL0     H33426   7.403   1.016  12.159  0.1453  0.0386  0.9948
 1011MOL0     H33427   7.379   1.188  12.157  1.8074  2.2623 -0.4189
 1011MOL0     H33428   7.625   1.234  12.182 -1.3731 -0.2865 -2.4584
 1011MOL0     H33429   7.659   1.059  12.190 -0.0835  0.2892 -1.6494
 1011MOL0     H33430   7.474   1.192  12.395 -1.9307 -0.7443 -2.4013
 1011MOL0     H33431   7.531   1.029  12.400 -0.0458  1.1632  2.5362
 1011MOL0     H33432   7.629   1.181  12.570 -0.7065  3.0200 -0.7060
 1011MOL0     H33433   7.740   1.243  12.450  0.9739 -0.8632 -0.8164
 1011MOL0     H33434   7.004   1.037  11.559  0.7706  0.7488  3.6832
 1011MOL0     H33435   6.798   1.095  11.414 -0.5071  1.4268  0.7205
 1011MOL0     H33436   6.480   1.344  11.324  0.6055 -1.5988  0.2450
 1011MOL0     H33437   6.277   1.378  11.186  0.3784 -0.0639  0.3741
 1011MOL0     H33438   6.812   0.468  11.485  0.8546  1.6121  1.1077
 1011MOL0     H33439   6.986   0.362  11.523  1.5545 -0.9242 -0.4925
 1011MOL0     H33440   7.579   0.351  11.220  0.6391 -1.6201 -2.3097
 1011MOL0     H33441   7.779   0.210  11.262  0.1182  0.3876 -0.7505
 1011MOL0     H33442   7.934   0.073  11.417  0.4906 -0.2768 -0.1320
 1011MOL0     H33443   7.915   0.027  11.247  1.3389  0.0427 -0.8337
 1011MOL0     H33444   8.079  -0.099  11.395  0.0912 -0.1534  2.0306
 1011MOL0     H33445   7.950  -0.166  11.490 -0.3738 -5.1768 -1.4965
 1011MOL0     H33446   7.847  -0.287  11.300  0.5562  0.1641  1.6060
 1011MOL0     H33447   8.012  -0.329  11.320  0.9072  1.0205  1.1715
 1011MOL0     H33448   7.973  -0.321  11.092 -0.7061 -1.7731  3.4530
 1011MOL0     H33449   7.873  -0.181  11.096 -0.2767  1.0451  1.7545
 1011MOL0     H33450   8.204   0.031  11.004 -0.6884  1.9514 -0.2693
 1011MOL0     H33451   7.514  -0.084  11.428  1.8853 -1.1391  1.3518
 1011MOL0     H33452   7.324   0.077  11.428  1.8707 -2.3888  3.0187
 1012MOL0     O33453   6.535   3.792   0.312 -1.1014  0.0500 -0.0110
 1012MOL0     C33454   6.582   3.811   0.426 -0.4998  0.7102 -0.3988
 1012MOL0     O33455   6.657   3.916   0.459  0.4624 -0.5025 -0.1502
 1012MOL0     C33456   6.690   4.027   0.385 -0.6630  0.0812  0.2824
 1012MOL0     C33457   6.650   4.066   0.262  0.1970  0.2663 -0.6907
 1012MOL0     C33458   6.681   4.192   0.209  0.2584  0.1124  0.2033
 1012MOL0     C33459   6.756   4.286   0.276 -0.3733 -0.1886 -1.6239
 1012MOL0     O33460   6.796   4.412   0.245  0.2255  0.4287 -0.2032
 1012MOL0     C33461   6.719   4.490   0.155 -1.5758  0.6423 -0.1443
 1012MOL0     C33462   6.589   4.553   0.218 -1.4689  0.7540  0.3647
 1012MOL0     C33463   6.507   4.642   0.123 -0.9026  0.8415 -0.4667
 1012MOL0     C33464   6.443   4.571   0.009 -0.0267  0.6650  0.6673
 1012MOL0     C33465   6.338   4.659  -0.062 -0.7352 -0.1017 -0.2453
 1012MOL0     C33466   6.384   4.765  -0.155 -0.6626  0.1331 -0.1708
 1012MOL0     C33467   6.275   4.810  -0.252  0.3401  0.0699 -1.2081
 1012MOL0     C33468   6.163   4.874  -0.170  0.1953  0.4569  0.3596
 1012MOL0     N33469   6.118   4.992  -0.247  0.3066 -0.4056 -0.5689
 1012MOL0     C33470   6.146   5.119  -0.202  0.4932  0.6486 -0.3726
 1012MOL0     C33471   6.089   5.192  -0.301  0.1862 -0.1338  0.5657
 1012MOL0     C33472   6.107   5.341  -0.315  0.1520  1.5686  0.0401
 1012MOL0     C33473   5.992   5.426  -0.285  0.4391 -0.0577 -0.9104
 1012MOL0     C33474   6.025   5.564  -0.336  1.0013 -0.9680  0.3006
 1012MOL0     C33475   5.942   5.672  -0.267 -0.2604 -0.2448 -0.8432
 1012MOL0     O33476   5.940   5.657  -0.126  0.1857 -0.3932 -0.2169
 1012MOL0     C33477   5.869   5.741  -0.049 -0.0569 -0.1660 -1.0805
 1012MOL0     C33478   5.926   5.863  -0.027  0.2619  0.1237  0.8366
 1012MOL0     C33479   5.870   5.958   0.062  0.9520  1.0771  0.8167
 1012MOL0     C33480   5.757   5.926   0.134 -0.1354  0.2455 -0.2437
 1012MOL0     C33481   5.699   6.026   0.215  0.2937  0.3412  0.2944
 1012MOL0     O33482   5.754   6.151   0.203  0.0721  0.0636 -0.4187
 1012MOL0     C33483   5.700   6.264   0.255 -0.0852  1.0080  0.3261
 1012MOL0     C33484   5.775   6.358   0.328 -0.1571  0.3008  0.6286
 1012MOL0     C33485   5.716   6.479   0.355  0.1369  0.6619 -0.7085
 1012MOL0     C33486   5.594   6.517   0.301  0.7262 -0.7431  0.6105
 1012MOL0     O33487   5.571   6.650   0.319 -0.5244  0.0265  0.2649
 1012MOL0     C33488   5.483   6.731   0.236 -0.1971 -0.4282  0.6279
 1012MOL0     C33489   5.527   6.879   0.238  0.6040  0.2253 -0.4258
 1012MOL0     C33490   5.410   6.984   0.187 -0.6957 -0.1909  0.2507
 1012MOL0     C33491   5.376   7.009   0.042  0.3170  0.5140  0.0094
 1012MOL0     C33492   5.235   7.039   0.020  0.7134 -0.2462  0.5255
 1012MOL0     C33493   5.185   7.031  -0.127 -0.5799 -0.2501 -0.7908
 1012MOL0     C33494   5.284   7.092  -0.236 -0.0758  0.2642 -0.3507
 1012MOL0     C33495   5.245   7.058  -0.378 -0.7150  0.4345  0.6521
 1012MOL0    Cl33496   5.135   7.183  -0.440  0.3017 -0.3295 -0.1421
 1012MOL0     C33497   5.523   6.432   0.225  0.3217  0.4901  0.1342
 1012MOL0     C33498   5.570   6.301   0.207  0.2519 -0.0894  0.2648
 1012MOL0     O33499   5.611   5.998   0.293 -0.3354  1.0252  0.2419
 1012MOL0     C33500   5.703   5.797   0.120  0.2150  0.1788 -0.0404
 1012MOL0     C33501   5.751   5.713   0.019  1.1456 -0.2740  1.4446
 1012MOL0     N33502   6.029   5.111  -0.398  0.1972 -0.3708  0.5159
 1012MOL0     N33503   6.052   4.993  -0.364 -0.1642 -0.2693  0.3051
 1012MOL0     C33504   6.818   4.241   0.398 -0.3606  0.5701  0.2615
 1012MOL0     C33505   6.784   4.113   0.451 -0.4613  0.1570  0.8687
 1012MOL0     C33506   6.547   3.715   0.529 -0.3955  0.1617  0.1115
 1012MOL0     C33507   6.585   3.744   0.659 -0.1487  0.1800  0.7732
 1012MOL0     C33508   6.556   3.648   0.762  0.3158  0.5987 -0.5802
 1012MOL0     C33509   6.490   3.531   0.735  0.4068  0.5465 -0.2386
 1012MOL0     O33510   6.450   3.441   0.830  0.0482 -0.4412  1.1898
 1012MOL0     C33511   6.509   3.438   0.966 -0.3777  0.4379 -0.2698
 1012MOL0     C33512   6.661   3.395   0.967  0.7264 -0.0972  1.2034
 1012MOL0     C33513   6.673   3.254   0.896 -0.3136  0.2290 -0.1722
 1012MOL0     C33514   6.822   3.203   0.911  0.1050 -0.0044 -0.6021
 1012MOL0     C33515   6.846   3.100   0.816  0.5234 -0.3594  0.1095
 1012MOL0     C33516   6.856   3.015   0.725  1.0158  0.8716 -0.1740
 1012MOL0     C33517   6.442   3.510   0.607  0.9217 -0.7331 -0.0867
 1012MOL0     C33518   6.474   3.601   0.510 -0.8517  0.3174 -0.0411
 1012MOL0     H33519   6.599   3.993   0.199  2.7297 -3.3605  1.0765
 1012MOL0     H33520   6.646   4.205   0.108 -3.1054 -1.4391  1.0219
 1012MOL0     H33521   6.685   4.427   0.072 -3.4668  2.1964 -0.6368
 1012MOL0     H33522   6.788   4.564   0.115 -0.6931  0.3222  0.7444
 1012MOL0     H33523   6.637   4.619   0.290  0.1158  1.4566 -1.2406
 1012MOL0     H33524   6.525   4.473   0.256  1.3343 -1.8979 -0.0744
 1012MOL0     H33525   6.579   4.714   0.083 -0.0292 -0.0523 -0.5198
 1012MOL0     H33526   6.445   4.714   0.178 -2.8850  1.3277 -3.1683
 1012MOL0     H33527   6.522   4.547  -0.062 -0.3961  2.1529 -0.2929
 1012MOL0     H33528   6.388   4.483   0.045 -2.3855  1.0295 -1.6967
 1012MOL0     H33529   6.294   4.700   0.029 -0.8926 -2.0943  0.6473
 1012MOL0     H33530   6.267   4.592  -0.113 -1.9059 -0.6644  1.9812
 1012MOL0     H33531   6.460   4.743  -0.230 -1.8701 -1.0048 -1.1009
 1012MOL0     H33532   6.428   4.843  -0.092 -0.6602 -2.1769  2.9517
 1012MOL0     H33533   6.322   4.885  -0.317 -0.7097  1.1684 -0.7184
 1012MOL0     H33534   6.231   4.731  -0.313 -1.0769  1.8791 -2.6345
 1012MOL0     H33535   6.183   4.899  -0.065 -0.6489 -0.5083  0.7691
 1012MOL0     H33536   6.078   4.805  -0.163  1.1818 -0.7285  0.8941
 1012MOL0     H33537   6.206   5.155  -0.119  0.2504  2.6192 -1.0052
 1012MOL0     H33538   6.124   5.348  -0.423  0.1386  1.5689  0.0383
 1012MOL0     H33539   6.203   5.369  -0.271  1.8195  0.8498 -2.8563
 1012MOL0     H33540   5.972   5.429  -0.177  1.1588  0.3323 -0.7813
 1012MOL0     H33541   5.903   5.393  -0.340  2.1555 -2.4145 -2.4812
 1012MOL0     H33542   6.130   5.591  -0.325  1.2147 -1.0560 -1.2442
 1012MOL0     H33543   5.991   5.571  -0.440  0.2514  1.0658  0.6332
 1012MOL0     H33544   5.840   5.678  -0.305 -0.0004 -0.6605 -1.6379
 1012MOL0     H33545   5.980   5.773  -0.287  2.1081 -0.0348  3.5458
 1012MOL0     H33546   6.023   5.884  -0.071 -0.6926  3.3205  0.0389
 1012MOL0     H33547   5.914   6.056   0.077 -2.1752  2.6284  0.5582
 1012MOL0     H33548   5.879   6.339   0.353 -0.2506  0.7951  1.4281
 1012MOL0     H33549   5.774   6.550   0.413  2.4383  0.2261 -2.3628
 1012MOL0     H33550   5.386   6.715   0.284  0.4372  0.9386  2.4921
 1012MOL0     H33551   5.479   6.698   0.132 -2.6336  0.0957  0.4952
 1012MOL0     H33552   5.620   6.896   0.182 -1.1930  3.3834 -2.7438
 1012MOL0     H33553   5.547   6.893   0.345 -2.2705  0.4484  0.1621
 1012MOL0     H33554   5.422   7.077   0.243 -0.7613 -0.3143  0.4679
 1012MOL0     H33555   5.318   6.945   0.231 -0.6234 -2.7000 -1.5495
 1012MOL0     H33556   5.436   7.093   0.006  1.7103 -0.8276 -0.9110
 1012MOL0     H33557   5.405   6.928  -0.026  2.3142  1.9333 -0.9193
 1012MOL0     H33558   5.207   7.136   0.061 -2.2292 -0.8301  0.1132
 1012MOL0     H33559   5.179   6.964   0.076  0.2425  1.5404  2.5444
 1012MOL0     H33560   5.090   7.084  -0.126 -0.7342 -0.5099  0.9031
 1012MOL0     H33561   5.160   6.931  -0.163  0.3358 -0.4967 -0.7822
 1012MOL0     H33562   5.305   7.197  -0.214 -0.0719 -0.1715  1.8804
 1012MOL0     H33563   5.378   7.037  -0.231 -0.6838 -1.1092 -2.4459
 1012MOL0     H33564   5.195   6.961  -0.375 -1.8945  0.6231 -4.0591
 1012MOL0     H33565   5.337   7.061  -0.437 -1.8950 -0.6458 -1.3374
 1012MOL0     H33566   5.448   6.467   0.155  0.1777 -2.4206 -1.3100
 1012MOL0     H33567   5.507   6.247   0.138 -0.8346  0.8966  0.4498
 1012MOL0     H33568   5.622   5.765   0.185  1.6361 -0.5303  1.4505
 1012MOL0     H33569   5.703   5.616   0.010 -1.9644  0.9473  3.2702
 1012MOL0     H33570   6.887   4.310   0.446 -1.4329  1.0263  1.1822
 1012MOL0     H33571   6.822   4.085   0.549 -0.4843  3.9852  2.1367
 1012MOL0     H33572   6.653   3.826   0.676 -1.2617  0.9914  1.5301
 1012MOL0     H33573   6.586   3.670   0.864  3.1568 -2.5494 -0.5793
 1012MOL0     H33574   6.460   3.365   1.030  1.0242  4.2201  5.9857
 1012MOL0     H33575   6.503   3.531   1.023 -1.9539 -0.2517  0.7301
 1012MOL0     H33576   6.716   3.470   0.910  1.7399 -0.2710  1.9277
 1012MOL0     H33577   6.707   3.400   1.066  1.2327 -1.0292  1.0308
 1012MOL0     H33578   6.669   3.263   0.787  0.3752 -2.8686 -0.5690
 1012MOL0     H33579   6.605   3.179   0.939  0.9894  0.9613  3.5907
 1012MOL0     H33580   6.898   3.281   0.906 -0.2402  0.6327  2.1628
 1012MOL0     H33581   6.833   3.154   1.009  1.7832 -0.4139 -0.9715
 1012MOL0     H33582   6.865   2.938   0.652  0.5344 -0.5502  1.2198
 1012MOL0     H33583   6.374   3.427   0.591  0.8751 -0.4082 -1.7400
 1012MOL0     H33584   6.445   3.565   0.411 -2.6548 -3.2986  1.6166
 1013MOL0     O33585   1.031   0.680   8.164  0.1300 -0.1680 -0.3405
 1013MOL0     C33586   1.067   0.687   8.047  0.1902 -0.3619  0.2163
 1013MOL0     O33587   0.977   0.699   7.938  0.5317  0.2496 -0.0187
 1013MOL0     C33588   0.842   0.685   7.947  0.0903 -0.5132 -1.1376
 1013MOL0     C33589   0.775   0.728   8.062 -0.3999 -0.0779 -1.1410
 1013MOL0     C33590   0.633   0.739   8.066 -0.2947  0.8970  0.6054
 1013MOL0     C33591   0.559   0.697   7.950  0.3542 -0.8249  0.2939
 1013MOL0     O33592   0.418   0.705   7.961  0.0921  0.5089 -0.6232
 1013MOL0     C33593   0.332   0.706   7.842 -1.0114  0.4520 -0.1449
 1013MOL0     C33594   0.354   0.832   7.765  0.3792  0.2866  0.5677
 1013MOL0     C33595   0.256   0.860   7.654 -0.5558 -0.0671  0.4566
 1013MOL0     C33596   0.154   0.748   7.604  0.3528  0.1271 -0.1473
 1013MOL0     C33597   0.045   0.781   7.500  0.2978 -0.0019  0.0478
 1013MOL0     C33598  -0.081   0.857   7.554  0.1689  0.2736 -0.5884
 1013MOL0     C33599  -0.193   0.847   7.455  0.1547  0.6705 -0.9382
 1013MOL0     C33600  -0.301   0.950   7.490 -0.3230 -0.2991  0.2108
 1013MOL0     N33601  -0.384   0.954   7.374  0.0489  0.0004  0.0707
 1013MOL0     C33602  -0.460   0.852   7.315 -0.4356  0.7269  0.0625
 1013MOL0     C33603  -0.530   0.914   7.218 -0.6612  0.9223  0.9312
 1013MOL0     C33604  -0.602   0.836   7.108 -0.0375 -1.0281  0.8781
 1013MOL0     C33605  -0.698   0.919   7.024  0.6183 -1.1052  0.7083
 1013MOL0     C33606  -0.695   0.886   6.870 -0.3798 -0.1567  0.2493
 1013MOL0     C33607  -0.630   1.008   6.799  0.2146  1.6958  0.3246
 1013MOL0     O33608  -0.712   1.121   6.805 -0.3180 -0.0842  0.4884
 1013MOL0     C33609  -0.808   1.146   6.715  0.5005 -0.1427 -0.2314
 1013MOL0     C33610  -0.866   1.048   6.635 -1.0618 -0.3052 -0.1643
 1013MOL0     C33611  -0.970   1.077   6.543 -0.8255 -0.9338 -0.7655
 1013MOL0     C33612  -1.015   1.206   6.519 -0.1407  0.1504 -0.3804
 1013MOL0     C33613  -1.130   1.222   6.425  0.1242 -1.1858  0.1587
 1013MOL0     O33614  -1.202   1.120   6.385 -0.3232  0.2394  0.5313
 1013MOL0     C33615  -1.322   1.146   6.313 -1.0152 -0.1343  0.4589
 1013MOL0     C33616  -1.434   1.103   6.386  0.2441 -0.4538 -0.7197
 1013MOL0     C33617  -1.558   1.109   6.337  0.2371  0.1099  0.5638
 1013MOL0     C33618  -1.578   1.151   6.202 -0.0723  0.7193 -0.2388
 1013MOL0     O33619  -1.709   1.155   6.166 -0.3595  0.0360  0.2463
 1013MOL0     C33620  -1.754   1.201   6.031  0.2916  0.0195 -0.9520
 1013MOL0     C33621  -1.906   1.239   6.050 -0.2292  0.0122  0.3894
 1013MOL0     C33622  -1.997   1.108   6.049 -0.0436 -0.1157  0.8128
 1013MOL0     C33623  -2.146   1.136   6.063 -0.0707  0.9974 -0.1218
 1013MOL0     C33624  -2.201   1.253   5.989 -0.3170  0.0172 -0.0710
 1013MOL0     C33625  -2.357   1.244   5.995 -0.7681  0.0921  0.1234
 1013MOL0     C33626  -2.416   1.359   5.905  0.2196  0.2600 -0.3416
 1013MOL0     C33627  -2.566   1.329   5.870  0.5049 -0.2888  0.8250
 1013MOL0    Cl33628  -2.676   1.312   6.013 -0.2770 -0.1062  0.1143
 1013MOL0     C33629  -1.464   1.183   6.128 -0.2923 -0.8304 -0.2307
 1013MOL0     C33630  -1.336   1.179   6.181 -0.6742 -0.3699  0.0106
 1013MOL0     O33631  -1.147   1.336   6.384 -0.7771  0.3669  0.3180
 1013MOL0     C33632  -0.956   1.310   6.594  0.0201 -0.7796  0.5692
 1013MOL0     C33633  -0.846   1.275   6.683 -0.6908  0.4524  0.4597
 1013MOL0     N33634  -0.476   1.049   7.207 -0.3641 -0.5412 -0.8767
 1013MOL0     N33635  -0.395   1.069   7.302  0.6579  0.1547 -0.8247
 1013MOL0     C33636   0.626   0.651   7.837 -0.5211 -0.2111 -0.3821
 1013MOL0     C33637   0.769   0.644   7.835  0.6099 -0.9182 -0.4030
 1013MOL0     C33638   1.205   0.691   8.010 -0.0097  0.4524 -0.2827
 1013MOL0     C33639   1.302   0.659   8.108  0.4032  0.5250  0.0818
 1013MOL0     C33640   1.439   0.673   8.090 -0.0949 -1.2292  0.9029
 1013MOL0     C33641   1.479   0.717   7.968 -0.2558  0.1452  0.4585
 1013MOL0     O33642   1.609   0.718   7.926 -0.5840  0.9073  0.3479
 1013MOL0     C33643   1.724   0.706   8.007  0.3601  0.5843 -0.6433
 1013MOL0     C33644   1.849   0.695   7.929  0.2840  0.3166  0.4704
 1013MOL0     C33645   1.962   0.698   8.028  0.5171  0.0891  0.0749
 1013MOL0     C33646   2.104   0.688   7.957  0.6986 -0.3318  0.1093
 1013MOL0     C33647   2.231   0.667   8.033  0.5038 -0.3158 -0.1625
 1013MOL0     C33648   2.335   0.660   8.096  0.5361 -0.5958 -0.0547
 1013MOL0     C33649   1.388   0.753   7.864  1.0691 -0.8011  0.6015
 1013MOL0     C33650   1.253   0.733   7.894 -0.4757  0.7501 -0.2447
 1013MOL0     H33651   0.819   0.750   8.159 -1.4494  1.1534 -0.9249
 1013MOL0     H33652   0.587   0.775   8.158  0.8742 -0.1306  1.6215
 1013MOL0     H33653   0.225   0.706   7.866 -0.5046  2.9111  2.6247
 1013MOL0     H33654   0.338   0.616   7.779 -0.4268  1.1372 -1.0818
 1013MOL0     H33655   0.449   0.820   7.711 -0.2931 -2.1681 -0.1909
 1013MOL0     H33656   0.360   0.923   7.825  0.4768  0.3803  0.4158
 1013MOL0     H33657   0.309   0.895   7.565  0.2535 -3.4924 -0.5654
 1013MOL0     H33658   0.196   0.943   7.691 -0.7440 -0.7100  1.6274
 1013MOL0     H33659   0.213   0.667   7.561 -0.2117 -0.0007 -0.7022
 1013MOL0     H33660   0.103   0.710   7.693  0.3935  1.2774  0.3855
 1013MOL0     H33661   0.006   0.690   7.453  1.1338 -0.5588  0.4042
 1013MOL0     H33662   0.100   0.838   7.424 -0.4883  3.2905  1.8055
 1013MOL0     H33663  -0.040   0.957   7.565  0.5055  0.1642 -0.8352
 1013MOL0     H33664  -0.115   0.810   7.647 -1.2532  4.1472  1.0324
 1013MOL0     H33665  -0.148   0.858   7.356  2.0268  1.0625 -0.0930
 1013MOL0     H33666  -0.232   0.746   7.466 -0.5718  0.9989 -0.3837
 1013MOL0     H33667  -0.253   1.046   7.510  0.1745 -0.5740  0.3575
 1013MOL0     H33668  -0.352   0.906   7.576 -0.0315 -2.6790 -0.7358
 1013MOL0     H33669  -0.448   0.747   7.342  3.5564  0.7732 -0.9191
 1013MOL0     H33670  -0.664   0.759   7.155 -1.6359  1.4751  3.2243
 1013MOL0     H33671  -0.530   0.800   7.034 -0.2271 -2.9505  1.5941
 1013MOL0     H33672  -0.671   1.023   7.045  2.9055 -2.0423  2.8562
 1013MOL0     H33673  -0.801   0.912   7.061 -0.2485  0.7340 -1.1530
 1013MOL0     H33674  -0.633   0.797   6.856  3.6369  2.2670  0.9653
 1013MOL0     H33675  -0.788   0.877   6.813  0.5520  3.1186 -2.0965
 1013MOL0     H33676  -0.615   0.974   6.696  1.6509 -0.0281  1.0454
 1013MOL0     H33677  -0.527   1.017   6.834  0.9372  2.5786 -1.9045
 1013MOL0     H33678  -0.840   0.943   6.635 -1.5424 -0.4359 -1.1137
 1013MOL0     H33679  -1.025   0.994   6.501 -2.0065 -0.4584 -0.1796
 1013MOL0     H33680  -1.426   1.043   6.476  0.6231 -1.3055 -1.3021
 1013MOL0     H33681  -1.637   1.078   6.405 -0.1398 -2.7472 -1.0053
 1013MOL0     H33682  -1.746   1.108   5.974 -0.3647 -2.1200  2.1654
 1013MOL0     H33683  -1.702   1.286   5.986  1.1339 -1.2839 -2.5485
 1013MOL0     H33684  -1.932   1.302   5.965  1.9798 -0.9277 -1.0758
 1013MOL0     H33685  -1.920   1.300   6.140 -3.0491 -0.9366  0.6774
 1013MOL0     H33686  -1.958   1.044   6.128  3.8304  0.7705 -0.1584
 1013MOL0     H33687  -1.983   1.056   5.954  0.9294 -2.7616  2.2881
 1013MOL0     H33688  -2.192   1.040   6.038  2.2181  0.1871 -1.5758
 1013MOL0     H33689  -2.157   1.151   6.170  2.7207  2.4657  0.0562
 1013MOL0     H33690  -2.174   1.247   5.883 -0.0269 -0.0231  0.0055
 1013MOL0     H33691  -2.165   1.349   6.028 -0.1676  0.0687 -0.3339
 1013MOL0     H33692  -2.391   1.262   6.097 -0.2958 -2.4160  0.7898
 1013MOL0     H33693  -2.391   1.144   5.968 -0.0194 -0.0199 -0.4449
 1013MOL0     H33694  -2.409   1.460   5.946  1.9244 -0.2050  0.5949
 1013MOL0     H33695  -2.367   1.360   5.808 -0.5892  1.5493 -0.7641
 1013MOL0     H33696  -2.571   1.232   5.821  2.8026  0.1311 -0.4050
 1013MOL0     H33697  -2.607   1.408   5.806  2.6649  2.1973  2.3267
 1013MOL0     H33698  -1.471   1.217   6.025  1.6572 -0.3332 -0.2522
 1013MOL0     H33699  -1.247   1.212   6.130  0.8203 -0.7527  2.2222
 1013MOL0     H33700  -0.971   1.417   6.583 -0.6211 -1.0729 -1.7998
 1013MOL0     H33701  -0.797   1.352   6.742  0.5978  1.3823 -1.7002
 1013MOL0     H33702   0.577   0.619   7.746 -3.0156 -0.4763  0.9682
 1013MOL0     H33703   0.813   0.611   7.742 -0.6631  2.8077 -2.5683
 1013MOL0     H33704   1.278   0.612   8.204 -0.1058 -2.9924 -1.6010
 1013MOL0     H33705   1.510   0.644   8.167  0.3714 -1.2989  0.4527
 1013MOL0     H33706   1.726   0.619   8.074  0.4533  0.4277 -0.8462
 1013MOL0     H33707   1.732   0.783   8.084  0.1397 -2.1009  2.3195
 1013MOL0     H33708   1.863   0.601   7.873  2.6636  0.2485  1.0829
 1013MOL0     H33709   1.861   0.780   7.861  1.0704 -0.2739 -0.1554
 1013MOL0     H33710   1.958   0.623   8.107  2.0644  1.8452  1.9383
 1013MOL0     H33711   1.965   0.794   8.081  0.2551  0.3289 -0.3380
 1013MOL0     H33712   2.096   0.607   7.884  1.1471  0.8382 -1.2828
 1013MOL0     H33713   2.116   0.783   7.903 -0.5989  0.9923  1.9901
 1013MOL0     H33714   2.423   0.659   8.158  0.0245 -0.2556  0.6847
 1013MOL0     H33715   1.422   0.770   7.762 -0.2377 -4.0688 -0.5207
 1013MOL0     H33716   1.179   0.770   7.823 -0.7349  0.7819  0.0366
 1014MOL0     O33717   8.711   7.134   1.833 -1.0182  0.5847  0.3790
 1014MOL0     C33718   8.833   7.098   1.845 -0.0089 -0.3362  0.6382
 1014MOL0     O33719   8.907   7.118   1.954 -0.0153 -0.1419 -0.5389
 1014MOL0     C33720   8.846   7.164   2.071  0.3804 -0.3123  1.2600
 1014MOL0     C33721   8.881   7.283   2.127 -0.9988 -0.0291  0.0428
 1014MOL0     C33722   8.821   7.325   2.238 -0.3999  0.4330 -0.9777
 1014MOL0     C33723   8.730   7.242   2.313 -0.6660 -0.1262 -0.3513
 1014MOL0     O33724   8.670   7.286   2.430 -0.1580 -0.6686 -0.4266
 1014MOL0     C33725   8.720   7.215   2.546  0.3089  0.1299  0.2348
 1014MOL0     C33726   8.616   7.218   2.655  0.3564  0.5957 -0.3601
 1014MOL0     C33727   8.592   7.359   2.702  0.1995  0.0178  0.6466
 1014MOL0     C33728   8.500   7.361   2.824 -0.1565  0.3723  0.4863
 1014MOL0     C33729   8.376   7.454   2.802  0.2355  0.4986  0.0987
 1014MOL0     C33730   8.261   7.412   2.911  0.8078 -0.0086 -0.1629
 1014MOL0     C33731   8.186   7.283   2.867  0.0690 -0.0491 -0.6495
 1014MOL0     C33732   8.066   7.307   2.766  0.4242 -1.0025  0.0560
 1014MOL0     N33733   7.950   7.365   2.842 -0.0030 -0.9903  1.2005
 1014MOL0     C33734   7.858   7.290   2.906  0.5128  0.1477 -0.7892
 1014MOL0     C33735   7.759   7.378   2.937  0.5954 -0.2857  0.3315
 1014MOL0     C33736   7.623   7.358   2.991  0.4274 -0.1656 -0.2500
 1014MOL0     C33737   7.621   7.276   3.120  0.6321 -0.1058 -0.1905
 1014MOL0     C33738   7.522   7.320   3.224 -0.2369 -0.8454 -0.9872
 1014MOL0     C33739   7.590   7.388   3.340 -0.4707 -0.7040 -0.8715
 1014MOL0     O33740   7.653   7.287   3.424  0.0570  0.0955 -0.0176
 1014MOL0     C33741   7.779   7.310   3.478  0.8865 -0.6275 -0.4761
 1014MOL0     C33742   7.838   7.204   3.549 -0.1527 -0.4799 -0.8529
 1014MOL0     C33743   7.956   7.217   3.622 -0.5122  0.0413 -1.1835
 1014MOL0     C33744   8.019   7.347   3.635 -0.6621  0.1996 -0.6751
 1014MOL0     C33745   8.151   7.371   3.707  0.8840  0.3773  0.2955
 1014MOL0     O33746   8.179   7.506   3.741 -0.2818  0.1019  0.6080
 1014MOL0     C33747   8.303   7.520   3.793 -0.5235  0.7605  0.9281
 1014MOL0     C33748   8.417   7.518   3.715 -0.5251 -0.0153  0.6889
 1014MOL0     C33749   8.539   7.569   3.773  0.0027  1.3364  0.2695
 1014MOL0     C33750   8.540   7.617   3.905  0.2952 -0.4821  0.0668
 1014MOL0     O33751   8.666   7.650   3.950 -0.1782 -0.2689 -0.2419
 1014MOL0     C33752   8.667   7.765   4.045  0.7340 -1.0091 -0.0876
 1014MOL0     C33753   8.809   7.823   4.052  1.0376 -0.0947 -0.4580
 1014MOL0     C33754   8.872   7.789   4.189  0.1360 -0.7948  0.3742
 1014MOL0     C33755   9.021   7.807   4.175 -0.5881  0.3512 -0.1238
 1014MOL0     C33756   9.077   7.945   4.213 -0.3388  0.1074  0.9274
 1014MOL0     C33757   9.209   7.983   4.143  0.7815 -0.0668  0.4500
 1014MOL0     C33758   9.324   7.903   4.192  0.8100 -0.1321 -0.1280
 1014MOL0     C33759   9.389   7.946   4.318 -0.3776 -0.4540  0.1938
 1014MOL0    Cl33760   9.521   7.832   4.347 -0.3833  0.0369 -0.3895
 1014MOL0     C33761   8.419   7.611   3.987  0.1821  0.0668 -0.1194
 1014MOL0     C33762   8.306   7.555   3.929 -0.1395  0.1307  0.4069
 1014MOL0     O33763   8.229   7.283   3.714 -0.3218  0.7155 -0.3675
 1014MOL0     C33764   7.964   7.455   3.563  0.9949  0.2611  0.3353
 1014MOL0     C33765   7.843   7.441   3.489  0.1257 -0.6541  0.5054
 1014MOL0     N33766   7.804   7.504   2.894 -0.0235  0.5674 -0.8391
 1014MOL0     N33767   7.924   7.500   2.854 -0.1353  1.0913 -0.6634
 1014MOL0     C33768   8.689   7.125   2.261  0.1095  1.1082  1.2997
 1014MOL0     C33769   8.743   7.090   2.135 -0.3502 -0.2717  0.6672
 1014MOL0     C33770   8.890   7.023   1.727  0.3250 -0.1290 -0.7770
 1014MOL0     C33771   9.013   6.967   1.735  1.2119 -0.0186  0.6690
 1014MOL0     C33772   9.059   6.884   1.625  0.8566 -0.1495 -0.5741
 1014MOL0     C33773   8.978   6.867   1.506  0.5484 -0.4060 -0.3110
 1014MOL0     O33774   9.041   6.793   1.412 -0.8278  0.6887 -0.5007
 1014MOL0     C33775   9.029   6.804   1.271  0.5580  0.4390  0.9494
 1014MOL0     C33776   8.932   6.700   1.206  0.0054  0.1838 -0.3151
 1014MOL0     C33777   8.952   6.555   1.232 -0.1057  0.1565 -0.9500
 1014MOL0     C33778   8.825   6.493   1.215  0.8902 -0.1248  0.7444
 1014MOL0     C33779   8.836   6.351   1.253  0.0636  0.1972  0.7168
 1014MOL0     C33780   8.827   6.237   1.306 -0.6421 -0.4340 -0.6920
 1014MOL0     C33781   8.870   6.952   1.489  0.5989  0.9794 -0.7058
 1014MOL0     C33782   8.823   7.024   1.604 -0.4148  0.5502 -0.6281
 1014MOL0     H33783   8.958   7.333   2.070 -1.3347  0.8360  0.3194
 1014MOL0     H33784   8.856   7.423   2.268 -0.0107 -0.1356  0.5252
 1014MOL0     H33785   8.817   7.255   2.578  1.2275 -0.4035 -1.7186
 1014MOL0     H33786   8.747   7.114   2.512 -2.1273 -0.6248  0.3250
 1014MOL0     H33787   8.644   7.149   2.735  1.3871  2.0104  0.5342
 1014MOL0     H33788   8.523   7.177   2.614  0.0296 -0.7701  1.6137
 1014MOL0     H33789   8.557   7.424   2.621 -0.7722 -2.4177 -1.0111
 1014MOL0     H33790   8.685   7.405   2.738 -0.4734 -0.0820  2.6798
 1014MOL0     H33791   8.465   7.260   2.847  1.8633 -1.0454 -2.0587
 1014MOL0     H33792   8.552   7.408   2.908  0.0733  0.2333  0.4226
 1014MOL0     H33793   8.327   7.439   2.705 -0.5076  1.4320  0.3163
 1014MOL0     H33794   8.401   7.559   2.816  1.0100  0.0665  2.3010
 1014MOL0     H33795   8.197   7.498   2.932 -1.8332 -2.0407  0.6344
 1014MOL0     H33796   8.325   7.396   2.998  1.4417  0.3975 -0.5410
 1014MOL0     H33797   8.251   7.214   2.813  3.6526 -0.8799  4.0792
 1014MOL0     H33798   8.152   7.225   2.953  2.1633  0.4947  0.6160
 1014MOL0     H33799   8.024   7.212   2.732 -3.1747 -1.3360  4.5303
 1014MOL0     H33800   8.099   7.375   2.687  0.1894  1.1496  1.7164
 1014MOL0     H33801   7.856   7.182   2.915 -1.1538 -0.1933 -3.9734
 1014MOL0     H33802   7.547   7.321   2.922 -1.4531  1.4945  0.8243
 1014MOL0     H33803   7.583   7.453   3.027  0.7655 -0.6844  1.5880
 1014MOL0     H33804   7.720   7.284   3.166  0.8365 -1.9115 -0.2613
 1014MOL0     H33805   7.593   7.180   3.076 -0.0284  0.4378 -0.9952
 1014MOL0     H33806   7.432   7.371   3.187 -0.5659 -0.2837  0.5457
 1014MOL0     H33807   7.472   7.233   3.267 -1.9456 -0.6239 -2.3774
 1014MOL0     H33808   7.518   7.446   3.399  0.0372 -0.1040 -0.8219
 1014MOL0     H33809   7.664   7.455   3.295 -1.5400  2.9571  2.2734
 1014MOL0     H33810   7.787   7.108   3.544 -1.4067  0.1687 -0.9096
 1014MOL0     H33811   7.993   7.135   3.682  0.0287 -0.3315 -2.0123
 1014MOL0     H33812   8.415   7.488   3.610  0.2010  3.5134 -0.4870
 1014MOL0     H33813   8.620   7.580   3.701  0.1966 -0.0088  0.2567
 1014MOL0     H33814   8.615   7.755   4.141  2.0177 -0.5075  0.6784
 1014MOL0     H33815   8.612   7.845   3.993  1.6094  0.1725  0.7600
 1014MOL0     H33816   8.810   7.931   4.033  0.9085 -0.3437 -1.9957
 1014MOL0     H33817   8.871   7.782   3.971 -1.1366 -3.6161 -0.5615
 1014MOL0     H33818   8.854   7.685   4.220  3.8742 -1.9911 -0.9353
 1014MOL0     H33819   8.845   7.845   4.279  2.9891 -0.6777  1.2468
 1014MOL0     H33820   9.066   7.734   4.244  0.2597 -0.4379 -1.4771
 1014MOL0     H33821   9.058   7.786   4.074 -2.0508 -1.8251 -0.2788
 1014MOL0     H33822   9.072   7.967   4.320  2.5039  0.6126  1.0243
 1014MOL0     H33823   9.003   8.016   4.172 -1.8670 -1.2092  1.3182
 1014MOL0     H33824   9.232   8.089   4.154  3.9613 -0.8349  2.5896
 1014MOL0     H33825   9.199   7.965   4.036 -2.8822  1.0885  0.4835
 1014MOL0     H33826   9.310   7.795   4.191  4.2556 -0.7349  1.5510
 1014MOL0     H33827   9.406   7.927   4.124  0.8254 -0.3411 -0.1814
 1014MOL0     H33828   9.322   7.945   4.405 -0.1681  3.3869  0.5582
 1014MOL0     H33829   9.434   8.045   4.314  2.0352 -1.5247 -1.4882
 1014MOL0     H33830   8.427   7.634   4.093  0.1039 -2.9293  0.6033
 1014MOL0     H33831   8.212   7.548   3.985 -0.5864  2.6416  0.0895
 1014MOL0     H33832   8.010   7.551   3.582  2.7699 -0.5061  0.1425
 1014MOL0     H33833   7.811   7.533   3.442 -4.0339 -0.8220  2.4771
 1014MOL0     H33834   8.624   7.055   2.312 -2.0991  0.0468 -2.5516
 1014MOL0     H33835   8.720   7.001   2.077 -0.7346 -0.0587  0.4940
 1014MOL0     H33836   9.086   6.981   1.814  2.1132  2.9300 -0.5503
 1014MOL0     H33837   9.152   6.830   1.635  0.4573 -0.5415  1.3039
 1014MOL0     H33838   9.123   6.782   1.219  0.1851  2.4035 -0.7001
 1014MOL0     H33839   8.995   6.904   1.242  1.6919  0.8207  0.9094
 1014MOL0     H33840   8.833   6.732   1.239  1.5295  4.8959  0.5728
 1014MOL0     H33841   8.941   6.710   1.098  2.2614 -1.5394 -0.3697
 1014MOL0     H33842   8.969   6.543   1.339  0.4194  0.2477 -1.0187
 1014MOL0     H33843   9.029   6.508   1.171  3.3146 -0.9647  3.6824
 1014MOL0     H33844   8.747   6.522   1.287 -1.4923 -1.1265 -1.2541
 1014MOL0     H33845   8.780   6.511   1.116  1.2797  0.6089  0.6944
 1014MOL0     H33846   8.826   6.142   1.357  3.0382 -0.2480 -0.0267
 1014MOL0     H33847   8.819   6.969   1.394  2.3229 -0.4333 -1.9659
 1014MOL0     H33848   8.728   7.074   1.591 -1.2265 -1.3561 -2.6740
 1015MOL0     O33849   8.417   7.354   8.530  0.1292 -0.0770  0.4452
 1015MOL0     C33850   8.512   7.415   8.580  0.1673 -0.5929  0.6519
 1015MOL0     O33851   8.520   7.477   8.701 -0.7258  0.1079  0.1615
 1015MOL0     C33852   8.419   7.462   8.797  0.8975 -0.1683  0.0779
 1015MOL0     C33853   8.330   7.359   8.823  0.5892  0.9248  1.1223
 1015MOL0     C33854   8.234   7.364   8.925 -0.1331  0.8291 -1.2832
 1015MOL0     C33855   8.249   7.463   9.018 -0.1616  0.4985  0.1084
 1015MOL0     O33856   8.172   7.472   9.131  0.1290 -0.0320  0.7094
 1015MOL0     C33857   8.026   7.463   9.112  0.4074 -0.1271 -0.1555
 1015MOL0     C33858   7.943   7.547   9.229 -0.0088 -0.7789  0.0584
 1015MOL0     C33859   7.795   7.551   9.198  0.3720  0.0634 -0.2142
 1015MOL0     C33860   7.734   7.646   9.303 -0.2350 -0.0491 -0.4077
 1015MOL0     C33861   7.577   7.633   9.304 -0.3193 -0.3905  0.8226
 1015MOL0     C33862   7.544   7.505   9.378  0.2409  0.6934  0.6075
 1015MOL0     C33863   7.391   7.501   9.428  0.2977  0.6443 -0.0322
 1015MOL0     C33864   7.363   7.589   9.546  0.2503  0.0513 -0.6384
 1015MOL0     N33865   7.415   7.561   9.677 -0.5446  0.4426  0.4429
 1015MOL0     C33866   7.379   7.447   9.748 -0.2125 -0.0529  0.9167
 1015MOL0     C33867   7.469   7.424   9.844  0.6768 -0.2362 -1.5262
 1015MOL0     C33868   7.458   7.320   9.944 -0.3326  0.8201 -0.5666
 1015MOL0     C33869   7.443   7.376  10.094 -0.1246 -0.1922  0.1328
 1015MOL0     C33870   7.456   7.277  10.202  0.3304  0.1518 -0.5331
 1015MOL0     C33871   7.347   7.161  10.193  0.1557 -0.8886  0.2047
 1015MOL0     O33872   7.211   7.210  10.197  0.0585  0.4606 -1.5184
 1015MOL0     C33873   7.122   7.115  10.233  0.6378 -0.4921 -0.3946
 1015MOL0     C33874   7.010   7.148  10.307  0.5025 -0.2790 -0.9969
 1015MOL0     C33875   6.907   7.061  10.337 -0.7502 -0.6640  0.0123
 1015MOL0     C33876   6.910   6.928  10.289 -0.2200 -0.4045  1.4263
 1015MOL0     C33877   6.813   6.836  10.340  0.4856 -0.3624  0.6989
 1015MOL0     O33878   6.842   6.704  10.357 -0.2565 -0.6949 -0.4936
 1015MOL0     C33879   6.754   6.635  10.442  0.2190 -0.8500 -0.3701
 1015MOL0     C33880   6.780   6.627  10.582 -0.4804 -0.4891  0.3475
 1015MOL0     C33881   6.703   6.536  10.653  0.2543  0.6751 -0.1328
 1015MOL0     C33882   6.608   6.451  10.588 -0.6343  0.7967 -0.8426
 1015MOL0     O33883   6.528   6.348  10.645 -0.6118  1.5353  0.3225
 1015MOL0     C33884   6.498   6.344  10.786 -0.0428 -0.3093  0.4556
 1015MOL0     C33885   6.383   6.245  10.812  0.6051 -0.0216  0.6006
 1015MOL0     C33886   6.241   6.281  10.749 -1.2122 -0.1237 -0.6136
 1015MOL0     C33887   6.193   6.407  10.817  0.1362 -0.3521  0.6307
 1015MOL0     C33888   6.059   6.404  10.882  0.3735 -0.5039  0.1049
 1015MOL0     C33889   5.939   6.374  10.789  0.7655  0.3042 -0.6509
 1015MOL0     C33890   5.815   6.386  10.878 -0.1874  0.8457 -0.0788
 1015MOL0     C33891   5.693   6.365  10.792 -0.0805 -0.0471 -0.0174
 1015MOL0    Cl33892   5.551   6.415  10.899 -0.0172  0.2950 -0.2649
 1015MOL0     C33893   6.594   6.462  10.447 -0.2148  0.0039 -0.5696
 1015MOL0     C33894   6.664   6.560  10.375  0.0444  0.2779  0.6811
 1015MOL0     O33895   6.701   6.889  10.370  0.5451  0.1140 -0.4522
 1015MOL0     C33896   7.011   6.897  10.197  0.0080  0.3552 -0.1428
 1015MOL0     C33897   7.120   6.985  10.174 -1.2485 -0.6170 -0.0281
 1015MOL0     N33898   7.563   7.519   9.826  0.3548 -0.2113 -0.6590
 1015MOL0     N33899   7.543   7.595   9.723  0.2853 -0.0779 -0.2775
 1015MOL0     C33900   8.340   7.570   9.014  0.3878  0.8222 -0.5623
 1015MOL0     C33901   8.420   7.568   8.899 -0.1168 -0.8204 -0.1952
 1015MOL0     C33902   8.633   7.432   8.502 -0.1840  0.6077  0.5057
 1015MOL0     C33903   8.637   7.369   8.372  0.2685 -0.2920 -0.8483
 1015MOL0     C33904   8.740   7.397   8.281  0.0007  0.3890 -0.5486
 1015MOL0     C33905   8.851   7.473   8.317  0.4598 -0.0877  0.1464
 1015MOL0     O33906   8.962   7.498   8.243 -0.5795 -0.8917  0.7085
 1015MOL0     C33907   8.969   7.447   8.103  0.6492 -0.0156 -0.4838
 1015MOL0     C33908   8.888   7.545   8.011  0.7012  0.3043 -0.2931
 1015MOL0     C33909   8.887   7.499   7.872  0.6938  0.7506 -0.4468
 1015MOL0     C33910   8.825   7.361   7.845 -1.2162 -0.1707  0.1832
 1015MOL0     C33911   8.680   7.357   7.866 -0.1253 -0.1200  0.0688
 1015MOL0     C33912   8.563   7.344   7.883 -0.0871  0.2163  0.0023
 1015MOL0     C33913   8.859   7.516   8.447  0.1558  0.1491  1.0472
 1015MOL0     C33914   8.745   7.505   8.538 -0.5463 -0.4155 -0.3132
 1015MOL0     H33915   8.324   7.274   8.755 -0.2545  0.2754  1.9733
 1015MOL0     H33916   8.166   7.281   8.939  2.2983 -0.7074  3.7166
 1015MOL0     H33917   8.004   7.358   9.131  0.3394  0.2719  2.3638
 1015MOL0     H33918   7.999   7.490   9.009  0.3965 -1.4946 -0.5185
 1015MOL0     H33919   7.975   7.652   9.236 -3.3531  0.2897  1.2863
 1015MOL0     H33920   7.959   7.511   9.331 -1.5429  2.7875  1.7315
 1015MOL0     H33921   7.749   7.452   9.203 -0.8497  0.6564  2.0596
 1015MOL0     H33922   7.780   7.595   9.099  1.7873  0.5081 -0.2543
 1015MOL0     H33923   7.770   7.622   9.403 -0.9139 -1.8464 -0.5619
 1015MOL0     H33924   7.755   7.750   9.277 -1.3451  0.0534 -0.9990
 1015MOL0     H33925   7.536   7.629   9.203 -1.0348 -0.8307  1.1134
 1015MOL0     H33926   7.528   7.720   9.349  0.1151  0.3406 -0.1080
 1015MOL0     H33927   7.600   7.484   9.469 -0.3234  3.2982  1.6315
 1015MOL0     H33928   7.570   7.431   9.302 -2.6236  1.8265 -1.6895
 1015MOL0     H33929   7.322   7.531   9.349 -0.6258  1.1244  0.9445
 1015MOL0     H33930   7.365   7.396   9.447  2.2050 -1.0628 -5.0505
 1015MOL0     H33931   7.254   7.601   9.550  0.5529  4.1590  1.4783
 1015MOL0     H33932   7.402   7.690   9.526  0.6216  0.0200 -0.0837
 1015MOL0     H33933   7.293   7.385   9.724  2.1390 -3.4091  0.5269
 1015MOL0     H33934   7.553   7.266   9.941 -0.4119  0.4310  1.7228
 1015MOL0     H33935   7.377   7.246   9.936  2.0672 -2.4320  2.1337
 1015MOL0     H33936   7.345   7.424  10.099  0.6901  1.5628  0.0383
 1015MOL0     H33937   7.517   7.454  10.113 -0.8834  0.5160  0.2416
 1015MOL0     H33938   7.553   7.226  10.202 -0.5828 -1.9828 -4.5201
 1015MOL0     H33939   7.437   7.324  10.299 -0.9124 -0.5950 -0.3973
 1015MOL0     H33940   7.368   7.095  10.277 -2.5556 -0.2729  1.4547
 1015MOL0     H33941   7.343   7.101  10.102 -1.5089 -2.8743  1.5200
 1015MOL0     H33942   7.003   7.253  10.334  1.4093 -0.5269  0.3040
 1015MOL0     H33943   6.826   7.105  10.395 -0.2271  1.5864 -0.8516
 1015MOL0     H33944   6.847   6.696  10.632 -2.5425  3.1989 -1.5251
 1015MOL0     H33945   6.722   6.532  10.760  2.4106  0.0247 -0.5010
 1015MOL0     H33946   6.484   6.448  10.817 -1.0771 -0.5323  0.7646
 1015MOL0     H33947   6.587   6.308  10.838  0.7601 -3.4046 -2.6629
 1015MOL0     H33948   6.385   6.226  10.920  3.4408 -1.8903  0.3446
 1015MOL0     H33949   6.401   6.139  10.791 -2.8462 -1.3855  3.5750
 1015MOL0     H33950   6.170   6.203  10.775  0.1570 -1.3250 -0.3239
 1015MOL0     H33951   6.238   6.292  10.640 -0.6218 -1.8084 -0.8281
 1015MOL0     H33952   6.267   6.446  10.887 -0.4778  3.6175 -0.6791
 1015MOL0     H33953   6.194   6.489  10.746 -1.7260  2.3357  3.4730
 1015MOL0     H33954   6.044   6.503  10.927 -0.1848  0.4947 -2.1021
 1015MOL0     H33955   6.066   6.328  10.960 -0.0523 -1.2760 -0.5980
 1015MOL0     H33956   5.952   6.279  10.736  2.2198  0.3020 -0.3362
 1015MOL0     H33957   5.920   6.453  10.716 -3.1187 -1.5253 -1.9098
 1015MOL0     H33958   5.818   6.315  10.961 -1.4126 -0.3413 -1.0117
 1015MOL0     H33959   5.809   6.482  10.930 -1.7603 -0.9069  3.2284
 1015MOL0     H33960   5.683   6.260  10.763  0.9461 -0.3128  0.5295
 1015MOL0     H33961   5.695   6.419  10.697 -3.4702  0.6498  0.1921
 1015MOL0     H33962   6.528   6.390  10.400  0.0374  1.6567 -3.7462
 1015MOL0     H33963   6.661   6.570  10.267  5.4752  1.4598  0.3037
 1015MOL0     H33964   7.010   6.803  10.142  2.1716  0.9405 -1.2922
 1015MOL0     H33965   7.189   6.946  10.101 -3.2541  1.1771 -3.1068
 1015MOL0     H33966   8.356   7.647   9.088  2.0565 -0.1355  0.1102
 1015MOL0     H33967   8.500   7.641   8.899  0.0417 -0.9066  2.4182
 1015MOL0     H33968   8.560   7.299   8.343 -0.0098 -0.5877  0.5825
 1015MOL0     H33969   8.722   7.365   8.178 -0.6273 -4.2652  0.7685
 1015MOL0     H33970   8.941   7.341   8.107  1.2052 -0.1261  2.8218
 1015MOL0     H33971   9.076   7.449   8.079  0.6065  0.9135 -0.6202
 1015MOL0     H33972   8.786   7.552   8.051 -1.0887 -2.2343 -3.8606
 1015MOL0     H33973   8.934   7.643   8.027  3.4757 -0.6561 -1.6663
 1015MOL0     H33974   8.992   7.488   7.844  0.6561 -1.6321  0.1279
 1015MOL0     H33975   8.833   7.564   7.802 -0.9535 -1.3270 -1.2137
 1015MOL0     H33976   8.840   7.332   7.740 -0.3525  0.7271  0.0457
 1015MOL0     H33977   8.875   7.277   7.894 -3.4295  0.0107  3.0050
 1015MOL0     H33978   8.458   7.345   7.906  0.4005 -3.5345  3.6205
 1015MOL0     H33979   8.937   7.578   8.490  2.9106 -2.2671 -0.0989
 1015MOL0     H33980   8.758   7.546   8.637  0.9898  2.4842 -1.5784
 1016MOL0     O33981   5.282  11.356   4.052  0.5464 -0.9801 -0.0017
 1016MOL0     C33982   5.157  11.341   4.035 -1.1287 -0.3382  0.3318
 1016MOL0     O33983   5.073  11.418   3.965  0.1201  0.1845  0.4617
 1016MOL0     C33984   5.112  11.527   3.891  0.3835  0.5021  0.4962
 1016MOL0     C33985   5.209  11.619   3.931 -1.0800 -0.3747  0.5997
 1016MOL0     C33986   5.257  11.714   3.848 -0.2517  1.1809  0.8511
 1016MOL0     C33987   5.214  11.708   3.713  1.2796  0.2931  0.3496
 1016MOL0     O33988   5.270  11.800   3.623 -0.1852  0.1838  0.0542
 1016MOL0     C33989   5.204  11.927   3.616 -0.2231 -0.0951  0.4786
 1016MOL0     C33990   5.263  11.998   3.488 -0.3184 -0.4198  0.3732
 1016MOL0     C33991   5.200  11.948   3.356 -0.4395 -0.1089 -0.7418
 1016MOL0     C33992   5.241  12.036   3.240 -0.7963 -0.7813 -0.7768
 1016MOL0     C33993   5.225  11.982   3.098  0.0871  0.3969 -0.5699
 1016MOL0     C33994   5.082  11.957   3.054 -0.6658  0.4133  0.1980
 1016MOL0     C33995   5.071  11.941   2.895 -0.6652 -0.2721 -0.3192
 1016MOL0     C33996   5.159  11.815   2.850 -0.3890 -0.7377 -0.4395
 1016MOL0     N33997   5.084  11.741   2.752 -0.1600 -0.3561 -0.1319
 1016MOL0     C33998   4.997  11.643   2.778  1.1518  0.3635 -0.1642
 1016MOL0     C33999   4.964  11.599   2.651 -0.5287  0.1803  0.0910
 1016MOL0     C34000   4.865  11.477   2.621 -0.3467  0.0493  0.4092
 1016MOL0     C34001   4.946  11.346   2.604  0.3090  0.6467  0.7346
 1016MOL0     C34002   4.884  11.247   2.508 -0.5719  0.5406 -0.2484
 1016MOL0     C34003   4.970  11.123   2.512 -0.1145  0.1396 -0.8865
 1016MOL0     O34004   4.913  11.012   2.448 -0.1265 -0.0134  0.5732
 1016MOL0     C34005   4.821  10.932   2.516 -0.1836 -0.2407 -0.6919
 1016MOL0     C34006   4.766  10.963   2.641  0.6416 -1.0925  0.5711
 1016MOL0     C34007   4.669  10.888   2.701 -0.2878  0.6836 -0.4620
 1016MOL0     C34008   4.631  10.766   2.633  0.6886 -0.0695 -0.2486
 1016MOL0     C34009   4.535  10.681   2.694 -0.6593  0.2384  0.6289
 1016MOL0     O34010   4.453  10.726   2.794 -0.2969  0.3832 -0.5017
 1016MOL0     C34011   4.334  10.662   2.818  0.3535 -0.3927 -0.6744
 1016MOL0     C34012   4.307  10.618   2.947  0.5299  0.7989 -0.2536
 1016MOL0     C34013   4.189  10.563   2.982  0.9325  0.1451 -0.1672
 1016MOL0     C34014   4.083  10.541   2.885 -0.5095 -0.1105 -0.0944
 1016MOL0     O34015   3.976  10.477   2.943 -0.3974 -0.1018 -0.6290
 1016MOL0     C34016   3.863  10.460   2.851  1.1112 -0.4766  0.0130
 1016MOL0     C34017   3.738  10.401   2.912  0.4942  0.9033  0.0341
 1016MOL0     C34018   3.671  10.503   3.012 -0.4977 -0.9637 -0.3378
 1016MOL0     C34019   3.544  10.454   3.087 -0.6711 -0.4204 -1.0315
 1016MOL0     C34020   3.427  10.427   2.992 -0.4914 -0.1467  0.3101
 1016MOL0     C34021   3.293  10.380   3.063  0.6509 -0.1646 -0.4076
 1016MOL0     C34022   3.226  10.501   3.142  0.6268  0.7612  0.8377
 1016MOL0     C34023   3.076  10.510   3.105 -0.1967  0.8688  0.1415
 1016MOL0    Cl34024   2.995  10.363   3.184  0.1365 -0.4731  0.4931
 1016MOL0     C34025   4.103  10.574   2.751 -0.1126 -0.2208  0.0549
 1016MOL0     C34026   4.233  10.640   2.717 -0.3611  0.2156  0.1146
 1016MOL0     O34027   4.532  10.570   2.647  0.0764 -0.0682  0.5318
 1016MOL0     C34028   4.682  10.728   2.507  0.0690  0.3105  0.0827
 1016MOL0     C34029   4.782  10.810   2.450  0.4770  0.2388 -0.3679
 1016MOL0     N34030   5.027  11.675   2.556  0.7499  0.0855  0.2175
 1016MOL0     N34031   5.110  11.751   2.622 -0.0308  0.8629  0.3711
 1016MOL0     C34032   5.128  11.613   3.667  0.0064  0.9229 -0.2138
 1016MOL0     C34033   5.063  11.533   3.762  0.6233 -0.1137  0.1045
 1016MOL0     C34034   5.094  11.234   4.108  0.1229  0.0374  0.0240
 1016MOL0     C34035   4.970  11.256   4.174 -0.0705 -0.2181 -0.3354
 1016MOL0     C34036   4.915  11.168   4.263  0.2898  0.9393  0.1828
 1016MOL0     C34037   4.970  11.042   4.267  0.7701 -0.2062 -0.6218
 1016MOL0     O34038   4.911  10.957   4.350  0.4672  0.5977 -0.3517
 1016MOL0     C34039   4.880  10.826   4.294  0.1346  0.6009 -0.5045
 1016MOL0     C34040   4.783  10.753   4.393 -0.8324 -0.7976  0.6473
 1016MOL0     C34041   4.867  10.677   4.495 -0.1811  0.1806  0.1258
 1016MOL0     C34042   4.813  10.652   4.628  0.0989 -0.4098 -0.7897
 1016MOL0     C34043   4.910  10.622   4.733  0.3533  0.1560 -0.4838
 1016MOL0     C34044   4.989  10.627   4.821 -0.2527 -0.0687  0.3558
 1016MOL0     C34045   5.098  11.015   4.212  0.9957 -0.4234 -0.0476
 1016MOL0     C34046   5.158  11.108   4.137  0.7767 -0.9908  0.8401
 1016MOL0     H34047   5.258  11.609   4.028 -0.4215 -0.6606  0.2434
 1016MOL0     H34048   5.324  11.793   3.877  1.6478  0.2481 -0.7527
 1016MOL0     H34049   5.218  11.981   3.710  0.1549  2.4688 -0.9721
 1016MOL0     H34050   5.098  11.907   3.603 -0.4881  0.9397  0.9487
 1016MOL0     H34051   5.371  11.994   3.470 -0.2698  1.5766 -0.0118
 1016MOL0     H34052   5.250  12.107   3.483  1.7002 -0.1332  0.3027
 1016MOL0     H34053   5.092  11.953   3.370 -0.4347 -3.3411  1.7912
 1016MOL0     H34054   5.223  11.844   3.329  5.0581  0.0591  1.8118
 1016MOL0     H34055   5.183  12.129   3.237 -0.9289 -0.8594 -0.6034
 1016MOL0     H34056   5.346  12.066   3.246 -1.0425  0.4490 -1.9750
 1016MOL0     H34057   5.292  11.897   3.087 -0.7324 -0.6702  2.0084
 1016MOL0     H34058   5.249  12.068   3.034  3.4649  1.5263  1.9366
 1016MOL0     H34059   5.024  12.045   3.084  2.2380  2.9874 -1.0947
 1016MOL0     H34060   5.043  11.867   3.102  1.5254 -1.1267 -0.7709
 1016MOL0     H34061   4.966  11.916   2.881 -0.7079 -0.6068  0.5401
 1016MOL0     H34062   5.108  12.027   2.839 -1.2090 -1.1716 -2.1457
 1016MOL0     H34063   5.184  11.758   2.940 -0.1040 -0.4387 -0.3269
 1016MOL0     H34064   5.255  11.846   2.809  0.3319 -1.7775  0.4242
 1016MOL0     H34065   4.965  11.599   2.871  1.8774 -5.0575 -2.1397
 1016MOL0     H34066   4.807  11.498   2.530 -3.8883  2.8469  2.9801
 1016MOL0     H34067   4.784  11.457   2.691 -1.2897 -1.3425 -0.9962
 1016MOL0     H34068   4.945  11.294   2.701 -1.3073 -0.8509 -0.0152
 1016MOL0     H34069   5.048  11.372   2.575  0.8368 -1.5837  0.4178
 1016MOL0     H34070   4.782  11.223   2.540 -0.6540 -1.2210 -1.6276
 1016MOL0     H34071   4.879  11.288   2.406 -0.8632  0.2488 -0.3555
 1016MOL0     H34072   4.992  11.094   2.615 -2.3525 -2.2888 -0.9697
 1016MOL0     H34073   5.055  11.144   2.448 -1.6275 -1.3426 -3.5631
 1016MOL0     H34074   4.788  11.056   2.693  3.0545 -0.8032 -0.7944
 1016MOL0     H34075   4.635  10.915   2.800  0.4692  1.5042 -0.4135
 1016MOL0     H34076   4.376  10.625   3.030 -1.3149 -1.8327  1.6873
 1016MOL0     H34077   4.160  10.533   3.083 -2.8173  0.3008 -1.0510
 1016MOL0     H34078   3.886  10.411   2.755  1.3667 -1.1657  0.4185
 1016MOL0     H34079   3.825  10.560   2.828  0.4369 -0.8068 -0.3512
 1016MOL0     H34080   3.759  10.315   2.977 -2.2971 -0.9182 -1.2793
 1016MOL0     H34081   3.658  10.370   2.845 -1.2390  1.0957  1.9082
 1016MOL0     H34082   3.655  10.597   2.959 -2.3698 -1.1645 -0.2105
 1016MOL0     H34083   3.747  10.513   3.091 -0.7767  1.4949 -0.2959
 1016MOL0     H34084   3.582  10.362   3.131  0.8328  0.2329 -0.9144
 1016MOL0     H34085   3.522  10.530   3.162  0.3894 -0.8081 -0.3065
 1016MOL0     H34086   3.451  10.342   2.927 -3.2851  0.6630 -2.0167
 1016MOL0     H34087   3.414  10.515   2.928  0.4978  1.8233  2.6735
 1016MOL0     H34088   3.307  10.296   3.132 -2.2799 -2.5931 -2.4832
 1016MOL0     H34089   3.229  10.337   2.985  1.0895 -0.5262 -0.5748
 1016MOL0     H34090   3.225  10.472   3.248 -2.2902  0.0071  0.6755
 1016MOL0     H34091   3.277  10.598   3.136  0.3931  0.9218  1.3800
 1016MOL0     H34092   3.065  10.498   2.996 -3.2885  2.3481  0.1918
 1016MOL0     H34093   3.022  10.600   3.133 -0.5587  1.2029 -1.4938
 1016MOL0     H34094   4.040  10.552   2.665  1.4295  0.6541 -1.3789
 1016MOL0     H34095   4.251  10.675   2.616  0.4471  2.0973  0.8777
 1016MOL0     H34096   4.652  10.638   2.454 -3.0297  1.3356 -0.0584
 1016MOL0     H34097   4.810  10.780   2.349  1.9675 -1.1977  0.4390
 1016MOL0     H34098   5.095  11.610   3.564  0.7040 -1.7190 -0.4159
 1016MOL0     H34099   4.989  11.458   3.739  0.2173  0.2007  0.3565
 1016MOL0     H34100   4.923  11.352   4.154 -2.2399 -0.9973  0.6834
 1016MOL0     H34101   4.827  11.196   4.319  1.6117  2.4277  1.6154
 1016MOL0     H34102   4.977  10.779   4.279  0.4305  0.8006  0.6949
 1016MOL0     H34103   4.826  10.842   4.200  2.7228  0.5932 -2.0761
 1016MOL0     H34104   4.711  10.815   4.447 -1.7858 -2.2947  1.1398
 1016MOL0     H34105   4.730  10.676   4.336 -1.9035  3.3476 -4.8180
 1016MOL0     H34106   4.956  10.733   4.525  0.1297  0.8887 -1.9510
 1016MOL0     H34107   4.894  10.588   4.437 -1.3583 -0.7191  0.9222
 1016MOL0     H34108   4.766  10.748   4.653  0.2095 -0.6749  0.5251
 1016MOL0     H34109   4.738  10.572   4.626 -0.0879 -0.2183 -2.7034
 1016MOL0     H34110   5.082  10.616   4.873  2.0019  1.7463 -2.9154
 1016MOL0     H34111   5.150  10.920   4.208  4.2520  1.1440  1.2738
 1016MOL0     H34112   5.256  11.097   4.093  0.6724  1.1668 -0.1075
 1017MOL0     O34113   1.480   8.864   6.774 -0.4465 -0.9242  0.3309
 1017MOL0     C34114   1.533   8.960   6.713 -0.2941  0.7412  0.0403
 1017MOL0     O34115   1.664   8.962   6.665 -0.3531 -0.0634  0.0870
 1017MOL0     C34116   1.731   8.852   6.715 -0.4411 -0.9354  0.0162
 1017MOL0     C34117   1.834   8.888   6.795 -0.7806 -0.3582 -0.8820
 1017MOL0     C34118   1.906   8.782   6.844  0.4075  1.3821 -1.0883
 1017MOL0     C34119   1.891   8.649   6.802 -0.4022  1.0012 -0.9772
 1017MOL0     O34120   1.993   8.565   6.849  0.2876  0.1026 -0.3173
 1017MOL0     C34121   1.979   8.431   6.805  0.8357  0.7500 -1.3856
 1017MOL0     C34122   2.096   8.348   6.855  0.3114  0.4137  0.8149
 1017MOL0     C34123   2.100   8.205   6.798 -0.2343 -0.4437 -0.5687
 1017MOL0     C34124   2.125   8.200   6.644  0.4373  0.1639  0.7875
 1017MOL0     C34125   2.150   8.056   6.597  0.4749 -0.1109  0.0705
 1017MOL0     C34126   2.023   7.978   6.554  0.7059  0.1822 -0.1789
 1017MOL0     C34127   2.049   7.825   6.533  0.2625  0.8382 -0.3331
 1017MOL0     C34128   2.128   7.788   6.408 -0.2758 -0.2767  0.2596
 1017MOL0     N34129   2.177   7.648   6.412  0.8168  0.6137  0.5490
 1017MOL0     C34130   2.285   7.607   6.334 -0.3524  0.7084  0.1395
 1017MOL0     C34131   2.267   7.472   6.341 -0.3452 -0.5165 -0.1826
 1017MOL0     C34132   2.340   7.368   6.269  0.0106 -0.1554  1.3709
 1017MOL0     C34133   2.434   7.299   6.372 -0.8457 -0.3158 -0.1261
 1017MOL0     C34134   2.349   7.199   6.456  0.8504  0.4190 -0.5366
 1017MOL0     C34135   2.436   7.120   6.552  0.9825  0.0540 -0.0540
 1017MOL0     O34136   2.511   7.010   6.479 -0.3240 -0.3201 -0.2831
 1017MOL0     C34137   2.608   6.940   6.542  0.2520  0.1650  0.4146
 1017MOL0     C34138   2.640   6.969   6.680  0.1546 -0.2859 -0.4488
 1017MOL0     C34139   2.747   6.906   6.741  1.1322  0.5715 -0.4054
 1017MOL0     C34140   2.824   6.809   6.673  0.3866 -0.1146  0.1319
 1017MOL0     C34141   2.940   6.746   6.727  0.1185  0.7259 -0.2529
 1017MOL0     O34142   2.968   6.624   6.670 -0.3380 -0.8387 -0.1977
 1017MOL0     C34143   3.073   6.554   6.714  0.0785  0.1894  0.0888
 1017MOL0     C34144   3.207   6.601   6.718  0.2142 -0.5695 -0.0268
 1017MOL0     C34145   3.310   6.500   6.750  0.3892 -0.0642  0.7787
 1017MOL0     C34146   3.280   6.368   6.794  0.5263  0.8158  0.5737
 1017MOL0     O34147   3.391   6.281   6.816 -1.0980 -0.4846 -0.6321
 1017MOL0     C34148   3.371   6.148   6.872  1.2184 -0.3086  0.0558
 1017MOL0     C34149   3.498   6.076   6.893  0.0685 -0.2853 -0.6447
 1017MOL0     C34150   3.550   6.127   7.026  0.3886 -0.2655  0.1943
 1017MOL0     C34151   3.694   6.099   7.068  0.5711 -0.2734  0.4220
 1017MOL0     C34152   3.709   5.948   7.106 -0.7686 -0.7950 -0.0154
 1017MOL0     C34153   3.856   5.909   7.085 -0.3562  0.3956 -0.6012
 1017MOL0     C34154   3.897   5.766   7.091 -0.3888 -0.6520 -0.0486
 1017MOL0     C34155   4.046   5.754   7.090  0.4069 -0.0607  0.5698
 1017MOL0    Cl34156   4.087   5.752   6.917 -0.0056 -0.1042 -0.0241
 1017MOL0     C34157   3.136   6.344   6.805 -0.4765  0.8479 -0.5939
 1017MOL0     C34158   3.034   6.422   6.749  0.0716 -0.3513  0.1687
 1017MOL0     O34159   3.012   6.818   6.797  0.1653  0.0921  0.0662
 1017MOL0     C34160   2.800   6.794   6.535  0.2862 -0.7385 -0.6911
 1017MOL0     C34161   2.698   6.857   6.466  1.2135 -0.6636  0.0228
 1017MOL0     N34162   2.152   7.441   6.409  0.6164  0.1407 -0.3419
 1017MOL0     N34163   2.103   7.547   6.460 -0.4096  1.0206 -0.0543
 1017MOL0     C34164   1.783   8.614   6.723 -0.3864 -0.1235  0.1081
 1017MOL0     C34165   1.698   8.717   6.683 -0.3355 -0.9098  0.4359
 1017MOL0     C34166   1.448   9.079   6.701  1.0119 -0.6209 -0.0912
 1017MOL0     C34167   1.507   9.206   6.697 -0.0988 -0.2377  0.9180
 1017MOL0     C34168   1.437   9.327   6.723 -0.5999 -0.0088  0.8468
 1017MOL0     C34169   1.303   9.326   6.737  0.4092  0.1807 -0.2980
 1017MOL0     O34170   1.224   9.438   6.739  0.4318 -0.2007  0.5276
 1017MOL0     C34171   1.098   9.431   6.673  0.2342  0.0484  0.3405
 1017MOL0     C34172   1.053   9.573   6.620 -0.3201  0.7093 -0.7903
 1017MOL0     C34173   1.037   9.659   6.748  0.7816  0.0709 -0.1665
 1017MOL0     C34174   0.878   9.652   6.783  1.0030 -0.3972  0.3684
 1017MOL0     C34175   0.857   9.734   6.910  0.2570  0.3778 -0.8758
 1017MOL0     C34176   0.843   9.802   7.004  0.0413  0.5087  0.2782
 1017MOL0     C34177   1.242   9.197   6.744  0.6056 -0.1421 -1.1173
 1017MOL0     C34178   1.312   9.079   6.739  1.3692 -0.1873  0.8504
 1017MOL0     H34179   1.835   8.993   6.824  2.1967 -0.5200  0.0138
 1017MOL0     H34180   1.990   8.797   6.912 -1.8647  1.2583  1.9752
 1017MOL0     H34181   1.979   8.432   6.695 -0.0855 -1.6685 -1.4702
 1017MOL0     H34182   1.892   8.377   6.845  3.5990 -3.0413  0.1013
 1017MOL0     H34183   2.084   8.340   6.964 -0.6749  0.7244  0.7404
 1017MOL0     H34184   2.186   8.408   6.840 -1.2899  3.0168  1.1498
 1017MOL0     H34185   1.998   8.169   6.817 -1.1039  0.2844 -3.3129
 1017MOL0     H34186   2.170   8.140   6.851 -0.5972 -0.1195  0.3310
 1017MOL0     H34187   2.047   8.240   6.578  0.6621 -0.7744 -0.0760
 1017MOL0     H34188   2.210   8.265   6.619  1.0728 -0.8502  0.2593
 1017MOL0     H34189   2.193   8.001   6.681  2.3809  0.4949 -0.4512
 1017MOL0     H34190   2.230   8.054   6.523  1.5436 -0.7435  1.2204
 1017MOL0     H34191   1.969   8.015   6.467 -2.1302 -0.6971  1.0960
 1017MOL0     H34192   1.947   7.988   6.632 -2.0677 -2.2620 -2.3030
 1017MOL0     H34193   2.095   7.775   6.619  1.6773  0.9944 -0.9814
 1017MOL0     H34194   1.946   7.787   6.533  0.1588  1.0607  1.0595
 1017MOL0     H34195   2.211   7.859   6.398  0.1640 -0.4089  2.4598
 1017MOL0     H34196   2.067   7.804   6.319  1.1138  0.1780 -0.6438
 1017MOL0     H34197   2.367   7.668   6.296 -0.3080  0.3117 -0.4066
 1017MOL0     H34198   2.383   7.418   6.181 -2.7002  2.0888  1.1942
 1017MOL0     H34199   2.277   7.299   6.214  1.0923  0.6412 -1.0458
 1017MOL0     H34200   2.490   7.369   6.435  0.2470 -1.8841  0.7062
 1017MOL0     H34201   2.508   7.239   6.319  1.5396 -1.0501  3.6624
 1017MOL0     H34202   2.274   7.247   6.520 -1.3239 -1.9880 -1.0970
 1017MOL0     H34203   2.306   7.121   6.392  0.7568 -2.6844  2.9691
 1017MOL0     H34204   2.381   7.052   6.617  1.3526 -2.9256 -2.5909
 1017MOL0     H34205   2.490   7.189   6.618  1.7739  1.4493 -2.0487
 1017MOL0     H34206   2.584   7.036   6.744  1.3470 -1.0708  1.5096
 1017MOL0     H34207   2.765   6.928   6.846 -1.6533 -1.7490  0.6858
 1017MOL0     H34208   3.240   6.703   6.704 -2.8482  0.4589 -0.4855
 1017MOL0     H34209   3.408   6.544   6.735  0.8769 -2.0445 -3.0654
 1017MOL0     H34210   3.302   6.108   6.797  1.0309  1.7133 -0.9292
 1017MOL0     H34211   3.310   6.166   6.962 -1.1062  0.5465 -1.5754
 1017MOL0     H34212   3.571   6.108   6.819 -1.6279 -1.7034 -3.0535
 1017MOL0     H34213   3.492   5.966   6.891  3.5289 -0.5915 -1.1387
 1017MOL0     H34214   3.479   6.113   7.108  0.0404  2.2188  0.4104
 1017MOL0     H34215   3.553   6.235   7.009  0.0326 -0.7906 -4.2060
 1017MOL0     H34216   3.766   6.117   6.988  2.3995  1.5818  2.3683
 1017MOL0     H34217   3.714   6.151   7.162 -2.4153  0.6318  0.6703
 1017MOL0     H34218   3.645   5.888   7.041  0.6206 -1.8633 -0.4378
 1017MOL0     H34219   3.687   5.931   7.212  0.8539  0.3740  0.5477
 1017MOL0     H34220   3.906   5.969   7.162  1.0354  1.0756 -1.9975
 1017MOL0     H34221   3.892   5.948   6.990  2.1396 -1.5396 -0.5447
 1017MOL0     H34222   3.861   5.723   7.185  0.5770  0.0220  0.6398
 1017MOL0     H34223   3.851   5.705   7.013 -0.4910  0.6714 -1.0605
 1017MOL0     H34224   4.067   5.660   7.143  2.5991 -0.2551 -0.5401
 1017MOL0     H34225   4.091   5.837   7.145  0.7234  0.3723 -0.3320
 1017MOL0     H34226   3.111   6.247   6.848 -0.8016  1.3942  0.4664
 1017MOL0     H34227   2.936   6.377   6.762  1.0948 -1.9888  3.1318
 1017MOL0     H34228   2.856   6.733   6.465 -0.8661 -0.3700 -1.9849
 1017MOL0     H34229   2.681   6.835   6.361  0.1498 -2.4596  0.5324
 1017MOL0     H34230   1.757   8.511   6.700 -2.6717  0.4374 -0.0689
 1017MOL0     H34231   1.609   8.683   6.632 -0.1726 -2.4210  1.0947
 1017MOL0     H34232   1.609   9.200   6.660 -0.1289  4.8681 -0.6719
 1017MOL0     H34233   1.495   9.417   6.706  0.2194 -0.8094 -0.8102
 1017MOL0     H34234   1.021   9.381   6.732  0.7240  1.3753  2.1671
 1017MOL0     H34235   1.124   9.379   6.580 -1.4259 -1.3435  0.6045
 1017MOL0     H34236   1.132   9.609   6.554 -0.9482  0.8239 -1.4931
 1017MOL0     H34237   0.968   9.558   6.553  0.2267 -0.7542 -1.1819
 1017MOL0     H34238   1.063   9.758   6.709 -0.7339  1.6537  2.5274
 1017MOL0     H34239   1.092   9.632   6.838 -1.5899  0.9637  1.6343
 1017MOL0     H34240   0.837   9.693   6.690  2.3147 -2.9330 -1.4388
 1017MOL0     H34241   0.835   9.552   6.794  2.9991 -1.1516  2.2093
 1017MOL0     H34242   0.831   9.863   7.091  0.4445  0.8310  0.1106
 1017MOL0     H34243   1.139   9.190   6.776  1.3167  2.4951  2.2785
 1017MOL0     H34244   1.249   8.995   6.767 -0.1654  0.1718 -1.2446
 1018MOL0     O34245  11.396   2.555   0.287 -0.7048 -0.6578  0.5510
 1018MOL0     C34246  11.343   2.663   0.316 -0.0015 -0.5178  1.7126
 1018MOL0     O34247  11.212   2.678   0.316 -0.3625 -0.5999  0.5575
 1018MOL0     C34248  11.131   2.578   0.273  1.2478 -0.7422 -0.5359
 1018MOL0     C34249  11.120   2.562   0.137  0.7581 -0.2377  0.1994
 1018MOL0     C34250  11.047   2.456   0.082  0.5366  0.0990 -1.1994
 1018MOL0     C34251  10.956   2.381   0.163  0.0327  0.1699 -0.0301
 1018MOL0     O34252  10.853   2.307   0.117  0.1237  0.9740  0.0274
 1018MOL0     C34253  10.868   2.194   0.017  0.2827  0.4515 -0.5478
 1018MOL0     C34254  10.861   2.069   0.112  0.5617  0.2563 -0.5959
 1018MOL0     C34255  10.730   2.048   0.190 -0.9450 -0.1576 -0.0179
 1018MOL0     C34256  10.624   1.973   0.117 -0.3561 -0.2691  0.0017
 1018MOL0     C34257  10.490   1.978   0.192 -0.4567  0.4908  0.3247
 1018MOL0     C34258  10.473   1.913   0.327 -0.5220 -0.4113  0.4952
 1018MOL0     C34259  10.503   1.757   0.325 -0.4618 -0.4583  1.3178
 1018MOL0     C34260  10.380   1.692   0.271  0.7523  0.7280 -0.3371
 1018MOL0     N34261  10.281   1.674   0.380  0.8897  0.6487 -0.4755
 1018MOL0     C34262  10.307   1.673   0.519  0.0824  0.4644 -0.1342
 1018MOL0     C34263  10.192   1.617   0.579 -0.1165  0.0489 -0.3977
 1018MOL0     C34264  10.157   1.612   0.720 -0.0685  0.5136 -0.2490
 1018MOL0     C34265  10.225   1.493   0.782 -0.1789 -0.6589 -0.0062
 1018MOL0     C34266  10.188   1.475   0.923  0.1290 -0.6807  0.1082
 1018MOL0     C34267  10.226   1.332   0.955  0.3448 -0.9575  0.4519
 1018MOL0     O34268  10.220   1.325   1.098  1.7733 -0.2264 -0.2865
 1018MOL0     C34269  10.103   1.315   1.162 -0.0875 -0.7115 -0.1264
 1018MOL0     C34270  10.100   1.355   1.294  0.4078  0.5501 -0.2863
 1018MOL0     C34271   9.989   1.347   1.366 -0.2458  0.5367 -1.1154
 1018MOL0     C34272   9.866   1.277   1.316 -0.2955 -1.0505  0.2006
 1018MOL0     C34273   9.736   1.267   1.387  0.4422  0.1901 -0.1186
 1018MOL0     O34274   9.655   1.176   1.341  0.3550 -0.5442  0.1224
 1018MOL0     C34275   9.525   1.139   1.383  0.1352  0.0167 -1.2442
 1018MOL0     C34276   9.455   1.196   1.490  0.4847  0.5908 -0.8216
 1018MOL0     C34277   9.335   1.143   1.541  0.5832 -0.2095  0.0167
 1018MOL0     C34278   9.281   1.030   1.483 -0.0298 -0.7309  0.5361
 1018MOL0     O34279   9.175   0.969   1.529 -0.3453  0.3806 -0.2149
 1018MOL0     C34280   9.055   0.983   1.449  0.1532  0.6174  0.2758
 1018MOL0     C34281   8.932   0.940   1.524 -0.5052 -0.7498  0.1885
 1018MOL0     C34282   8.794   0.988   1.449 -1.3986 -0.4694  0.2373
 1018MOL0     C34283   8.666   0.952   1.525 -0.2808  0.1291  0.1438
 1018MOL0     C34284   8.544   0.994   1.447  0.0231  0.8462 -0.8144
 1018MOL0     C34285   8.421   0.941   1.527  0.3478 -0.3376  0.1259
 1018MOL0     C34286   8.291   0.994   1.463 -0.3236 -0.0148 -0.4687
 1018MOL0     C34287   8.166   0.916   1.496 -0.1046  0.4887 -0.6132
 1018MOL0    Cl34288   8.031   0.981   1.412  0.1533  0.4158 -0.0035
 1018MOL0     C34289   9.349   0.971   1.377 -0.0179  0.0109 -0.9776
 1018MOL0     C34290   9.471   1.021   1.329  0.6949 -0.7106 -0.2512
 1018MOL0     O34291   9.721   1.341   1.484  0.0807  0.4640  0.0834
 1018MOL0     C34292   9.882   1.212   1.186 -0.3246  0.2986 -0.1531
 1018MOL0     C34293   9.999   1.235   1.115 -0.6510  0.0257  0.1639
 1018MOL0     N34294  10.107   1.579   0.483  0.4710 -0.2223 -0.4102
 1018MOL0     N34295  10.157   1.623   0.370 -0.5701  0.0944 -0.0300
 1018MOL0     C34296  10.970   2.393   0.296 -0.4812  0.9554  0.9636
 1018MOL0     C34297  11.054   2.493   0.357  0.1364 -0.9700  1.1914
 1018MOL0     C34298  11.427   2.760   0.380  0.0498 -0.1442 -0.1217
 1018MOL0     C34299  11.375   2.843   0.483 -0.1633 -0.8288  0.4908
 1018MOL0     C34300  11.463   2.926   0.558  0.7852  0.2913 -0.0420
 1018MOL0     C34301  11.600   2.926   0.529 -0.3027  0.1586 -0.0287
 1018MOL0     O34302  11.671   3.012   0.604  0.5252  0.3239  0.5454
 1018MOL0     C34303  11.814   3.034   0.595  1.5043  0.4475  0.8142
 1018MOL0     C34304  11.868   3.133   0.705 -0.0949  0.1146  0.8795
 1018MOL0     C34305  11.775   3.262   0.710  0.3198  0.0138 -0.1943
 1018MOL0     C34306  11.824   3.375   0.803 -0.1963 -0.5214  0.5097
 1018MOL0     C34307  11.955   3.417   0.780  0.0349  0.3230  0.3277
 1018MOL0     C34308  12.075   3.439   0.776  1.4605  0.4285  0.7870
 1018MOL0     C34309  11.652   2.853   0.434  1.1897  0.1893  0.7091
 1018MOL0     C34310  11.566   2.762   0.358 -0.1735  0.6596  0.3443
 1018MOL0     H34311  11.180   2.621   0.068  0.4864 -0.4971 -0.2663
 1018MOL0     H34312  11.041   2.448  -0.026  1.3965  1.0580 -1.3268
 1018MOL0     H34313  10.959   2.210  -0.042  1.7951  0.1511  1.5947
 1018MOL0     H34314  10.793   2.176  -0.061  1.5119 -0.2152 -1.6044
 1018MOL0     H34315  10.939   2.069   0.189 -0.5431  0.9814  0.5481
 1018MOL0     H34316  10.873   1.988   0.039 -1.4202  0.1148 -0.8084
 1018MOL0     H34317  10.692   2.147   0.217 -0.9307 -0.0089 -0.5490
 1018MOL0     H34318  10.765   1.988   0.275  0.6446  1.1197  0.2679
 1018MOL0     H34319  10.607   2.016   0.018 -1.3959  2.5516  1.3149
 1018MOL0     H34320  10.660   1.871   0.099  0.3667  0.0001 -0.1023
 1018MOL0     H34321  10.408   1.942   0.130  0.0253  1.6011 -0.9968
 1018MOL0     H34322  10.461   2.082   0.212  2.1318  1.7093 -1.6609
 1018MOL0     H34323  10.374   1.955   0.346 -1.8000 -2.2324 -1.7332
 1018MOL0     H34324  10.532   1.956   0.409 -0.4352  0.8155 -0.1917
 1018MOL0     H34325  10.595   1.738   0.268 -1.7267  0.1461 -1.0421
 1018MOL0     H34326  10.525   1.712   0.423  1.5848 -2.1919  0.1334
 1018MOL0     H34327  10.416   1.598   0.227 -0.6544  0.2281 -0.4508
 1018MOL0     H34328  10.332   1.749   0.191 -2.4608  0.5130  1.2747
 1018MOL0     H34329  10.389   1.723   0.570  2.0858  0.1751 -2.8260
 1018MOL0     H34330  10.053   1.581   0.731  0.9030 -2.7339  0.7691
 1018MOL0     H34331  10.178   1.710   0.764 -3.1054  1.4522 -0.6029
 1018MOL0     H34332  10.334   1.498   0.777 -0.2210 -0.0937 -0.6481
 1018MOL0     H34333  10.188   1.405   0.730  0.0064 -0.1683 -0.9910
 1018MOL0     H34334  10.249   1.544   0.982 -1.2630 -0.9592  1.9959
 1018MOL0     H34335  10.086   1.508   0.944  0.3663  4.3403 -4.6014
 1018MOL0     H34336  10.326   1.311   0.917  0.3291 -0.4453  0.1160
 1018MOL0     H34337  10.161   1.266   0.896 -2.4396  0.6123  1.6005
 1018MOL0     H34338  10.184   1.418   1.319 -0.5925  1.3235  1.2627
 1018MOL0     H34339   9.996   1.381   1.469 -1.0188 -0.7437 -0.6066
 1018MOL0     H34340   9.503   1.277   1.544  0.9650  1.2800 -2.2332
 1018MOL0     H34341   9.305   1.189   1.635  1.3710  0.9124 -0.2495
 1018MOL0     H34342   9.071   0.934   1.353  0.7525  3.7922 -1.4178
 1018MOL0     H34343   9.036   1.086   1.415 -1.0663  0.0044 -0.9868
 1018MOL0     H34344   8.931   0.998   1.617  0.4530  1.0322 -0.8434
 1018MOL0     H34345   8.942   0.833   1.544  1.5251 -1.6521 -4.4682
 1018MOL0     H34346   8.791   0.930   1.356  1.4652 -1.8599  0.9060
 1018MOL0     H34347   8.803   1.097   1.442 -1.7157 -0.4937 -0.7428
 1018MOL0     H34348   8.664   0.843   1.527  0.3785  0.1198  1.7812
 1018MOL0     H34349   8.660   0.983   1.629 -2.3057  1.1509 -0.2211
 1018MOL0     H34350   8.544   0.937   1.354  0.8454  0.0674 -0.3560
 1018MOL0     H34351   8.555   1.101   1.428  1.2775  1.1082  1.0772
 1018MOL0     H34352   8.423   0.992   1.624 -0.4220  2.4249 -1.2012
 1018MOL0     H34353   8.411   0.832   1.526  1.7159 -0.5215 -2.3301
 1018MOL0     H34354   8.271   1.096   1.496  2.4588 -0.0822  1.8351
 1018MOL0     H34355   8.300   0.993   1.354  1.6908 -0.2618 -0.3272
 1018MOL0     H34356   8.156   0.938   1.603  2.1920  1.2116 -0.5017
 1018MOL0     H34357   8.157   0.807   1.492  1.0623  0.3327  0.4653
 1018MOL0     H34358   9.337   0.868   1.345  0.1864  0.4545 -2.5686
 1018MOL0     H34359   9.521   0.972   1.246  0.6878  2.6417 -2.4510
 1018MOL0     H34360   9.811   1.148   1.136  2.4756 -3.6998  0.4828
 1018MOL0     H34361  10.016   1.209   1.011  1.9064  1.7131  0.0593
 1018MOL0     H34362  10.901   2.340   0.361 -1.9457  2.3773  0.6168
 1018MOL0     H34363  11.057   2.513   0.463 -1.7916  1.0716  0.9300
 1018MOL0     H34364  11.269   2.846   0.507  0.0673 -4.9578  2.7529
 1018MOL0     H34365  11.426   2.996   0.631  1.4398  1.3503 -0.6936
 1018MOL0     H34366  11.849   3.068   0.497  0.6916 -2.9264 -0.8068
 1018MOL0     H34367  11.871   2.942   0.613 -0.7209 -1.5502 -1.5512
 1018MOL0     H34368  11.866   3.082   0.802  2.2139 -2.5759 -0.3511
 1018MOL0     H34369  11.972   3.161   0.686  0.4834 -3.7036 -3.3452
 1018MOL0     H34370  11.680   3.229   0.752  0.7021 -0.8593 -0.0025
 1018MOL0     H34371  11.755   3.307   0.612  3.0962 -1.6972 -1.6769
 1018MOL0     H34372  11.757   3.460   0.790  0.6399 -0.0651 -1.1000
 1018MOL0     H34373  11.829   3.334   0.904  2.7181 -2.3564 -0.2427
 1018MOL0     H34374  12.181   3.452   0.760  1.0478 -0.4719 -4.0076
 1018MOL0     H34375  11.757   2.853   0.408  1.7680  0.8188  2.8984
 1018MOL0     H34376  11.623   2.702   0.287  1.3858  0.3084  1.8294
 1019MOL0     O34377   1.697   2.703   0.532 -0.3388 -0.6787  0.0078
 1019MOL0     C34378   1.723   2.823   0.570  0.2934  0.2465 -0.0773
 1019MOL0     O34379   1.637   2.931   0.583 -0.1407 -0.4014 -0.1599
 1019MOL0     C34380   1.505   2.917   0.614  0.5012 -0.1998  0.2538
 1019MOL0     C34381   1.437   2.801   0.650 -0.1537 -0.6109 -0.0550
 1019MOL0     C34382   1.300   2.810   0.690  0.0436 -0.0217  0.0232
 1019MOL0     C34383   1.230   2.933   0.686 -1.6642 -0.5137 -1.0044
 1019MOL0     O34384   1.116   2.953   0.744  0.8100  0.5255 -1.1978
 1019MOL0     C34385   1.020   2.848   0.771 -0.2807  0.5960  0.6614
 1019MOL0     C34386   0.926   2.882   0.897 -0.6786 -0.0805  0.3307
 1019MOL0     C34387   0.816   2.785   0.924  0.1001  0.5453  1.2121
 1019MOL0     C34388   0.749   2.781   1.068 -0.0089 -0.4145  0.5585
 1019MOL0     C34389   0.651   2.667   1.073  1.0855  0.1322 -0.6315
 1019MOL0     C34390   0.641   2.591   1.204  0.4873  0.2501 -0.6325
 1019MOL0     C34391   0.776   2.509   1.219 -0.0906 -0.1567  0.1647
 1019MOL0     C34392   0.780   2.421   1.340  0.9615  0.7999 -0.2526
 1019MOL0     N34393   0.673   2.315   1.348  0.3246  0.1900 -0.3038
 1019MOL0     C34394   0.642   2.236   1.245 -1.0209  0.8126  0.7239
 1019MOL0     C34395   0.551   2.149   1.294 -0.8473 -0.6249 -0.6842
 1019MOL0     C34396   0.465   2.054   1.211  0.7942 -0.6716 -0.5921
 1019MOL0     C34397   0.523   1.910   1.233 -0.9500 -0.3814 -0.5894
 1019MOL0     C34398   0.670   1.907   1.207 -0.6867  0.1049  0.3800
 1019MOL0     C34399   0.719   1.762   1.194  0.2268  0.7059 -0.6395
 1019MOL0     O34400   0.704   1.695   1.319  0.8767 -0.2357  0.2864
 1019MOL0     C34401   0.659   1.565   1.303 -0.4512  1.2818  0.2561
 1019MOL0     C34402   0.545   1.520   1.366  0.8390  0.8359  0.4569
 1019MOL0     C34403   0.511   1.380   1.347  0.9759 -0.3156  0.6280
 1019MOL0     C34404   0.575   1.290   1.259  0.0256 -0.0465 -0.0711
 1019MOL0     C34405   0.552   1.139   1.247 -0.1209 -0.4568  0.1754
 1019MOL0     O34406   0.466   1.094   1.333  0.0416  0.3284 -0.2109
 1019MOL0     C34407   0.450   0.958   1.344 -0.0322  0.2585  0.7206
 1019MOL0     C34408   0.520   0.877   1.434  0.1144 -0.2096 -0.2112
 1019MOL0     C34409   0.495   0.741   1.450  0.1556 -0.3585  0.0397
 1019MOL0     C34410   0.411   0.677   1.363 -0.8787  0.6567  0.5196
 1019MOL0     O34411   0.392   0.545   1.358 -0.1779 -0.4386 -0.2564
 1019MOL0     C34412   0.379   0.455   1.470 -0.0841  0.5945  0.4102
 1019MOL0     C34413   0.269   0.357   1.439  1.0443  0.8586  0.5041
 1019MOL0     C34414   0.282   0.286   1.298 -0.0238 -1.1201  0.3473
 1019MOL0     C34415   0.187   0.163   1.287  0.8329 -0.0703 -0.0670
 1019MOL0     C34416   0.236   0.072   1.183 -0.8907 -0.3212 -0.4749
 1019MOL0     C34417   0.154  -0.058   1.161  0.2035 -0.1009  0.2956
 1019MOL0     C34418   0.236  -0.175   1.114 -0.0976  0.2128  0.1164
 1019MOL0     C34419   0.254  -0.180   0.962 -0.3224  0.5593 -0.1234
 1019MOL0    Cl34420   0.333  -0.019   0.892 -0.0264  0.0661 -0.7063
 1019MOL0     C34421   0.332   0.747   1.277 -0.7379 -0.1192  0.2094
 1019MOL0     C34422   0.351   0.890   1.268  0.2362 -0.4760  0.3302
 1019MOL0     O34423   0.620   1.069   1.168  0.5738  0.1839 -0.7283
 1019MOL0     C34424   0.693   1.339   1.204  0.7991 -0.2820  0.1682
 1019MOL0     C34425   0.742   1.476   1.225  0.9590 -0.3009 -0.3263
 1019MOL0     N34426   0.551   2.173   1.430 -0.1802 -0.4796  0.0528
 1019MOL0     N34427   0.627   2.265   1.463  0.4965 -0.1304 -1.1175
 1019MOL0     C34428   1.313   3.045   0.660 -0.4496 -0.1691  0.4149
 1019MOL0     C34429   1.448   3.032   0.617  0.5220 -0.7561 -0.0726
 1019MOL0     C34430   1.857   2.853   0.625 -0.0016  0.4432 -0.5390
 1019MOL0     C34431   1.970   2.771   0.599  0.8572  0.0394 -0.7787
 1019MOL0     C34432   2.096   2.805   0.647  1.1464 -0.7540  0.4401
 1019MOL0     C34433   2.111   2.915   0.737  0.5859  0.8556 -0.1509
 1019MOL0     O34434   2.240   2.913   0.782 -0.2334 -0.1712 -0.6031
 1019MOL0     C34435   2.294   3.033   0.848  0.5521 -0.3832  1.0852
 1019MOL0     C34436   2.443   3.022   0.872  0.5819 -1.1178  0.3823
 1019MOL0     C34437   2.515   3.153   0.906 -0.2345 -0.4265  0.8776
 1019MOL0     C34438   2.661   3.145   0.961  0.1172  0.3448  1.1277
 1019MOL0     C34439   2.656   3.129   1.106  0.1068  0.6864  0.5337
 1019MOL0     C34440   2.662   3.122   1.225 -0.2391  1.0365 -0.4434
 1019MOL0     C34441   1.996   2.982   0.781 -0.6459  1.3150 -0.3530
 1019MOL0     C34442   1.871   2.957   0.716 -0.0820  0.7497  0.0529
 1019MOL0     H34443   1.491   2.708   0.637 -1.1899 -0.9996 -1.9072
 1019MOL0     H34444   1.259   2.720   0.734  4.3083 -2.3849 -0.2786
 1019MOL0     H34445   1.070   2.753   0.788  2.2130  1.7575  0.1799
 1019MOL0     H34446   0.962   2.859   0.679 -0.6855  0.9956  0.9584
 1019MOL0     H34447   0.878   2.981   0.891  0.9090  0.7949  1.3343
 1019MOL0     H34448   1.005   2.892   0.972 -0.7520  0.3845  0.3533
 1019MOL0     H34449   0.857   2.683   0.920 -2.1099 -0.3531 -0.5221
 1019MOL0     H34450   0.732   2.793   0.855  0.5327  0.1949  0.6390
 1019MOL0     H34451   0.823   2.783   1.149 -0.4917 -1.0022  1.0220
 1019MOL0     H34452   0.702   2.877   1.090  0.0061 -1.0183  3.7614
 1019MOL0     H34453   0.677   2.594   0.996  1.3292  2.0642 -2.4808
 1019MOL0     H34454   0.554   2.710   1.049 -0.5881 -3.0570 -0.1891
 1019MOL0     H34455   0.552   2.530   1.221  0.5529  0.4824  0.6560
 1019MOL0     H34456   0.632   2.675   1.274 -0.8583  0.5462 -1.1240
 1019MOL0     H34457   0.797   2.456   1.126 -2.7290 -0.7583 -0.1639
 1019MOL0     H34458   0.859   2.579   1.230  0.5700 -0.4674 -2.2845
 1019MOL0     H34459   0.763   2.477   1.432  0.6170 -0.7069  0.6404
 1019MOL0     H34460   0.882   2.381   1.340  1.8109  2.8479  0.3690
 1019MOL0     H34461   0.672   2.243   1.141 -0.4290  0.4120  0.8587
 1019MOL0     H34462   0.469   2.089   1.107 -1.1550  3.1672  0.4186
 1019MOL0     H34463   0.358   2.048   1.232  0.1420 -3.9389 -3.8482
 1019MOL0     H34464   0.474   1.826   1.183  1.5432 -0.5451 -2.9631
 1019MOL0     H34465   0.514   1.889   1.340  0.8941 -1.1072 -0.5456
 1019MOL0     H34466   0.698   1.970   1.122  1.6754 -0.6196  0.5472
 1019MOL0     H34467   0.715   1.956   1.294  2.0745 -0.9889 -0.3212
 1019MOL0     H34468   0.823   1.757   1.160  0.0237 -1.5297 -1.0715
 1019MOL0     H34469   0.651   1.718   1.121 -3.1440  0.0331  2.6260
 1019MOL0     H34470   0.483   1.577   1.436 -0.4240 -2.2512  2.0204
 1019MOL0     H34471   0.431   1.353   1.415 -0.9521  3.4999  0.1554
 1019MOL0     H34472   0.607   0.906   1.493  0.6512 -4.8887  1.7626
 1019MOL0     H34473   0.545   0.679   1.524 -0.4900 -2.3585 -1.1298
 1019MOL0     H34474   0.357   0.504   1.565 -0.6482 -2.5497  2.0265
 1019MOL0     H34475   0.474   0.402   1.485 -0.2969  0.3402  0.8423
 1019MOL0     H34476   0.174   0.411   1.439 -0.6378 -1.8693 -0.9557
 1019MOL0     H34477   0.264   0.288   1.524 -0.3739  1.1271  0.6645
 1019MOL0     H34478   0.378   0.236   1.284  1.0288  0.6036  1.0946
 1019MOL0     H34479   0.271   0.363   1.221 -0.9683 -2.2128 -0.6474
 1019MOL0     H34480   0.202   0.109   1.381  3.1178 -1.4032 -1.0993
 1019MOL0     H34481   0.082   0.194   1.291  0.2820 -1.8167 -0.2794
 1019MOL0     H34482   0.338   0.046   1.213 -0.3894  0.7925 -1.1559
 1019MOL0     H34483   0.245   0.134   1.093 -0.5908  3.2506  1.8437
 1019MOL0     H34484   0.064  -0.031   1.106 -1.2035 -1.0923  2.0102
 1019MOL0     H34485   0.112  -0.097   1.254  1.6147  0.5820  1.2623
 1019MOL0     H34486   0.324  -0.186   1.178 -1.6066 -0.7375  2.1610
 1019MOL0     H34487   0.180  -0.261   1.152 -0.4976  0.9184  1.1882
 1019MOL0     H34488   0.156  -0.200   0.917  0.6060 -3.0423 -0.8505
 1019MOL0     H34489   0.322  -0.264   0.943  1.0416  1.5644  0.1349
 1019MOL0     H34490   0.255   0.697   1.219 -3.2689  1.6752  1.8190
 1019MOL0     H34491   0.301   0.946   1.190 -2.3242 -1.9082  0.8399
 1019MOL0     H34492   0.747   1.267   1.143 -0.2580 -2.3307  1.5434
 1019MOL0     H34493   0.837   1.498   1.177 -0.3724  0.3886 -2.8243
 1019MOL0     H34494   1.271   3.145   0.661 -1.6648 -0.6616  0.4775
 1019MOL0     H34495   1.525   3.106   0.598 -2.2086  2.3793  0.2191
 1019MOL0     H34496   1.981   2.683   0.537  5.5860  0.6207 -1.1586
 1019MOL0     H34497   2.179   2.744   0.613 -0.8624 -2.3764 -1.8601
 1019MOL0     H34498   2.241   3.043   0.943 -2.4238  4.6508 -0.6996
 1019MOL0     H34499   2.271   3.117   0.782  2.9531 -0.0011  0.6469
 1019MOL0     H34500   2.462   2.953   0.955 -0.3181  0.8249  2.2947
 1019MOL0     H34501   2.477   2.981   0.776  1.7320  2.4842 -0.8878
 1019MOL0     H34502   2.455   3.223   0.966 -1.2146 -0.5164  0.0214
 1019MOL0     H34503   2.520   3.208   0.812 -4.0394  2.1026  1.9097
 1019MOL0     H34504   2.708   3.055   0.920  3.5096  1.7671  1.5880
 1019MOL0     H34505   2.721   3.232   0.933  0.7135 -0.5790 -0.5939
 1019MOL0     H34506   2.665   3.112   1.332  1.3305  0.0178 -0.5436
 1019MOL0     H34507   1.993   3.054   0.862  0.9611  0.0547  0.9188
 1019MOL0     H34508   1.784   3.014   0.747 -1.2527 -1.4905  1.0992
 1020MOL0     O34509   6.212   0.850   7.317 -0.3594  0.2579 -0.5011
 1020MOL0     C34510   6.238   0.738   7.284 -0.2610 -1.1765  0.0912
 1020MOL0     O34511   6.162   0.626   7.289 -0.3999  0.6415 -0.1506
 1020MOL0     C34512   6.042   0.614   7.358  0.0720 -0.2910  0.1138
 1020MOL0     C34513   5.998   0.698   7.465  0.3782 -0.0797 -0.0579
 1020MOL0     C34514   5.878   0.674   7.530 -0.2210 -0.5824 -0.6350
 1020MOL0     C34515   5.786   0.573   7.487 -0.9789 -0.1546  0.1902
 1020MOL0     O34516   5.655   0.551   7.525 -0.8111  0.0661  0.3704
 1020MOL0     C34517   5.628   0.622   7.646 -0.3539 -0.5658  0.0439
 1020MOL0     C34518   5.485   0.558   7.663 -0.6555  0.2111 -0.3248
 1020MOL0     C34519   5.378   0.608   7.562  0.1203 -0.0852 -0.3301
 1020MOL0     C34520   5.234   0.544   7.560 -0.4350 -0.1114 -0.9200
 1020MOL0     C34521   5.135   0.585   7.446 -0.3231 -0.3521  0.2257
 1020MOL0     C34522   5.112   0.734   7.432  0.2522 -0.3022 -0.3091
 1020MOL0     C34523   5.006   0.749   7.313  0.3432 -0.7879  0.8062
 1020MOL0     C34524   5.081   0.831   7.198 -0.3110 -1.7832  0.1372
 1020MOL0     N34525   4.993   0.903   7.107  0.1879  0.0341  0.3153
 1020MOL0     C34526   4.883   0.846   7.049  0.3437 -0.4249 -0.3999
 1020MOL0     C34527   4.827   0.941   6.972  0.2740 -0.7481  0.2392
 1020MOL0     C34528   4.700   0.933   6.905 -0.4626  1.0427  0.7589
 1020MOL0     C34529   4.687   0.813   6.812  0.3127  0.3528 -0.3555
 1020MOL0     C34530   4.796   0.832   6.709 -0.3147 -0.1861  0.3671
 1020MOL0     C34531   4.777   0.757   6.570 -0.0453  0.5757  0.0290
 1020MOL0     O34532   4.696   0.851   6.502  0.3932  0.5555 -0.2479
 1020MOL0     C34533   4.662   0.796   6.380  0.6969 -0.2243 -0.4854
 1020MOL0     C34534   4.529   0.762   6.373  0.8270 -0.2729  0.7041
 1020MOL0     C34535   4.474   0.712   6.249 -0.1854 -0.1399  0.0488
 1020MOL0     C34536   4.552   0.694   6.140 -0.8943 -0.5809  0.0099
 1020MOL0     C34537   4.486   0.655   6.019 -0.1394  0.1723 -0.0107
 1020MOL0     O34538   4.549   0.677   5.898 -0.3040 -0.0595 -0.0191
 1020MOL0     C34539   4.467   0.678   5.785  0.7695  0.5185 -0.1208
 1020MOL0     C34540   4.347   0.760   5.779  0.4392 -0.4897  0.1399
 1020MOL0     C34541   4.272   0.758   5.663  0.4683 -0.0174  0.2355
 1020MOL0     C34542   4.301   0.671   5.560  0.1838 -0.3941  0.2567
 1020MOL0     O34543   4.230   0.647   5.447  0.1805 -0.3471 -0.0056
 1020MOL0     C34544   4.098   0.698   5.446 -0.5033  0.0829  0.2015
 1020MOL0     C34545   4.004   0.609   5.525  0.0824  0.2323 -0.9973
 1020MOL0     C34546   3.991   0.470   5.461 -0.2385 -0.3491  0.5262
 1020MOL0     C34547   3.921   0.465   5.329 -0.1182  0.9903 -0.6076
 1020MOL0     C34548   3.864   0.325   5.278  0.4626 -0.3624 -0.3394
 1020MOL0     C34549   3.971   0.218   5.275  0.3120  0.3342  0.4063
 1020MOL0     C34550   3.917   0.091   5.197  0.5947  0.8976 -1.5940
 1020MOL0     C34551   3.850   0.002   5.301 -0.8898  0.0912 -0.1508
 1020MOL0    Cl34552   3.743  -0.108   5.214  0.2852  0.4873  0.0329
 1020MOL0     C34553   4.417   0.596   5.563  0.5980 -0.2904  0.1997
 1020MOL0     C34554   4.499   0.600   5.672 -0.4047  0.3519  1.0900
 1020MOL0     O34555   4.376   0.601   6.033  0.3188  0.5634 -0.8199
 1020MOL0     C34556   4.687   0.735   6.150  0.8057 -0.3804  0.8000
 1020MOL0     C34557   4.745   0.781   6.270  0.7077 -1.2009  0.7684
 1020MOL0     N34558   4.911   1.044   6.970  0.6458 -0.5432 -0.2847
 1020MOL0     N34559   5.000   1.028   7.050 -0.9413  0.1298 -1.2039
 1020MOL0     C34560   5.822   0.500   7.371  1.2068  0.0818 -0.4797
 1020MOL0     C34561   5.949   0.516   7.317 -0.6378  0.4009 -0.3279
 1020MOL0     C34562   6.360   0.729   7.191 -0.7225 -0.1520  0.6905
 1020MOL0     C34563   6.380   0.610   7.120  0.2137  0.1735  0.1856
 1020MOL0     C34564   6.497   0.603   7.028  1.4688 -0.5026  0.6642
 1020MOL0     C34565   6.584   0.709   7.004 -0.5524  0.2609  0.3012
 1020MOL0     O34566   6.696   0.684   6.920  0.7638  0.0753 -0.8302
 1020MOL0     C34567   6.767   0.797   6.877 -1.2340 -0.4211 -0.1662
 1020MOL0     C34568   6.882   0.787   6.782  0.4358  0.3272 -0.7560
 1020MOL0     C34569   6.970   0.665   6.826  0.2284  0.3915 -0.0217
 1020MOL0     C34570   7.103   0.661   6.742 -0.8213 -0.5546  0.7810
 1020MOL0     C34571   7.085   0.634   6.599 -0.3236  0.3393  0.1972
 1020MOL0     C34572   7.071   0.629   6.478 -0.4771  0.9249  0.1884
 1020MOL0     C34573   6.558   0.829   7.071 -0.0991  0.9454 -0.4845
 1020MOL0     C34574   6.453   0.832   7.162 -0.1970 -0.2453 -0.7887
 1020MOL0     H34575   6.053   0.787   7.496 -0.3196  0.5078 -0.4755
 1020MOL0     H34576   5.855   0.743   7.611 -0.9788 -1.0583 -0.4347
 1020MOL0     H34577   5.613   0.728   7.623  3.0566 -0.0303 -0.2342
 1020MOL0     H34578   5.696   0.600   7.729 -0.7161  2.1542  1.1476
 1020MOL0     H34579   5.428   0.579   7.754 -1.6072 -0.4512 -0.7464
 1020MOL0     H34580   5.507   0.451   7.658  0.4318  0.4949 -3.3097
 1020MOL0     H34581   5.415   0.603   7.459 -1.4844 -3.4683 -0.9121
 1020MOL0     H34582   5.363   0.714   7.582 -2.0511 -0.4337  0.1915
 1020MOL0     H34583   5.231   0.437   7.538 -1.2349 -0.8303  2.1316
 1020MOL0     H34584   5.178   0.540   7.654 -2.3083 -2.7924 -2.0081
 1020MOL0     H34585   5.041   0.534   7.465  0.5952 -2.2238  0.0041
 1020MOL0     H34586   5.175   0.543   7.353  1.2902 -0.1070  0.7718
 1020MOL0     H34587   5.208   0.786   7.426 -1.1055  2.7181  1.4572
 1020MOL0     H34588   5.068   0.779   7.521 -5.2900  0.4179 -3.0028
 1020MOL0     H34589   4.978   0.650   7.277 -0.9148 -0.1468 -0.0754
 1020MOL0     H34590   4.912   0.799   7.339 -0.4591 -0.7083 -1.9758
 1020MOL0     H34591   5.147   0.762   7.144  0.7098  1.4717 -3.1951
 1020MOL0     H34592   5.147   0.909   7.236  0.6728 -2.6332  0.2349
 1020MOL0     H34593   4.827   0.759   7.080  1.3720 -1.6888 -1.9618
 1020MOL0     H34594   4.679   1.026   6.851 -2.4907 -0.4806 -1.2836
 1020MOL0     H34595   4.620   0.932   6.980 -0.3377 -0.2142  0.8847
 1020MOL0     H34596   4.588   0.815   6.765 -0.2969  0.9705  0.9094
 1020MOL0     H34597   4.720   0.728   6.872  0.8410  2.3363  2.3785
 1020MOL0     H34598   4.803   0.940   6.692  1.9670 -0.1334  1.3233
 1020MOL0     H34599   4.897   0.804   6.740 -0.2951 -0.7789 -0.1966
 1020MOL0     H34600   4.725   0.663   6.589  1.4050 -0.2116  0.2514
 1020MOL0     H34601   4.870   0.744   6.514  0.0818 -0.0915  0.3875
 1020MOL0     H34602   4.462   0.773   6.458  0.1136 -3.6942  0.7281
 1020MOL0     H34603   4.369   0.685   6.260 -0.3571  0.5682  0.1626
 1020MOL0     H34604   4.331   0.823   5.867  0.0124 -2.1713  1.3087
 1020MOL0     H34605   4.180   0.816   5.669  0.8130  1.0368 -2.8239
 1020MOL0     H34606   4.072   0.707   5.340  3.2179 -1.5826 -1.0655
 1020MOL0     H34607   4.096   0.801   5.481  2.7156  1.9307 -4.0986
 1020MOL0     H34608   3.906   0.656   5.523 -1.2965 -1.8018  3.9655
 1020MOL0     H34609   4.030   0.597   5.630 -1.9030  0.9369 -0.3820
 1020MOL0     H34610   3.943   0.404   5.533  1.9868  0.5990  3.0430
 1020MOL0     H34611   4.092   0.431   5.446  1.2493  2.5449  1.9971
 1020MOL0     H34612   3.838   0.536   5.327  0.6410  1.9270 -2.7899
 1020MOL0     H34613   4.007   0.490   5.266  0.8972  0.6280  0.5895
 1020MOL0     H34614   3.805   0.332   5.187 -0.7763 -2.7573  0.1984
 1020MOL0     H34615   3.791   0.283   5.348  3.0474  0.4938  3.1677
 1020MOL0     H34616   3.991   0.193   5.379  0.7094 -1.2556 -0.0239
 1020MOL0     H34617   4.058   0.252   5.219 -0.8899 -2.6628 -3.8220
 1020MOL0     H34618   3.844   0.111   5.117 -1.7494  1.5793  0.5917
 1020MOL0     H34619   4.006   0.035   5.167  2.3088  0.9415  2.7811
 1020MOL0     H34620   3.806   0.057   5.385  0.2771 -2.8022  2.6038
 1020MOL0     H34621   3.908  -0.060   5.370 -2.1614 -1.0728 -0.0586
 1020MOL0     H34622   4.449   0.539   5.476 -2.5106 -4.1753  1.2552
 1020MOL0     H34623   4.590   0.544   5.656 -1.4036 -1.2452  0.8605
 1020MOL0     H34624   4.759   0.739   6.069 -1.0089  3.3909 -0.8489
 1020MOL0     H34625   4.852   0.798   6.270  0.6826 -0.2820 -2.5796
 1020MOL0     H34626   5.755   0.425   7.331  1.5293  0.8391 -2.5556
 1020MOL0     H34627   5.979   0.445   7.241 -2.1460 -1.7313  0.9716
 1020MOL0     H34628   6.317   0.522   7.127 -1.1113  1.1972  2.0363
 1020MOL0     H34629   6.509   0.509   6.975 -4.9697  0.1739 -2.9922
 1020MOL0     H34630   6.810   0.849   6.963 -2.1823 -0.5153  0.3850
 1020MOL0     H34631   6.708   0.869   6.820 -2.2049 -1.8207 -0.9808
 1020MOL0     H34632   6.831   0.773   6.687 -1.7081 -2.6369  0.6791
 1020MOL0     H34633   6.940   0.879   6.771 -0.4691  0.7699 -2.1188
 1020MOL0     H34634   6.915   0.571   6.819  1.7686 -0.7780  2.1329
 1020MOL0     H34635   7.006   0.682   6.928  1.7821  4.0140 -0.9856
 1020MOL0     H34636   7.153   0.758   6.741 -1.5316 -0.1529  2.1743
 1020MOL0     H34637   7.166   0.581   6.782 -0.3892  0.2748  1.7842
 1020MOL0     H34638   7.056   0.621   6.372 -3.8870  1.6258  0.5053
 1020MOL0     H34639   6.618   0.918   7.084 -0.6872  1.0694  1.8545
 1020MOL0     H34640   6.460   0.924   7.218  1.6232 -0.3979 -0.7124
 1021MOL0     O34641  10.830  10.764   9.486 -0.4381  0.0116  0.1154
 1021MOL0     C34642  10.757  10.842   9.427  0.0285 -0.5005  0.1825
 1021MOL0     O34643  10.796  10.969   9.396  0.8566  0.1291  0.2931
 1021MOL0     C34644  10.913  11.013   9.450 -0.0433  0.5085 -0.8052
 1021MOL0     C34645  11.018  11.034   9.369 -0.0474 -0.7443  0.4725
 1021MOL0     C34646  11.131  11.111   9.406 -0.4645 -0.6879 -0.2687
 1021MOL0     C34647  11.138  11.162   9.540 -0.1175 -0.2401  0.0938
 1021MOL0     O34648  11.248  11.246   9.565  0.3741  0.1107 -0.0599
 1021MOL0     C34649  11.322  11.209   9.684  0.5145 -0.7161 -0.4194
 1021MOL0     C34650  11.461  11.249   9.673  0.5971  1.6818  0.0033
 1021MOL0     C34651  11.545  11.153   9.587 -0.3047 -0.1507  0.7230
 1021MOL0     C34652  11.690  11.193   9.582  0.2398 -0.1891 -0.8649
 1021MOL0     C34653  11.746  11.216   9.724  0.7806 -0.9056  0.1750
 1021MOL0     C34654  11.759  11.094   9.817  0.1969 -0.2368  0.4405
 1021MOL0     C34655  11.817  11.126   9.960  0.2603  0.4866  0.4759
 1021MOL0     C34656  11.962  11.074   9.974  0.6403 -0.7407 -0.1223
 1021MOL0     N34657  12.050  11.122   9.875 -0.5045 -0.7620  0.5757
 1021MOL0     C34658  12.076  11.252   9.858 -0.8679  0.6410  1.0692
 1021MOL0     C34659  12.149  11.250   9.742 -0.7621  0.2649 -1.2483
 1021MOL0     C34660  12.216  11.370   9.689 -0.5169 -0.1883  0.3174
 1021MOL0     C34661  12.377  11.379   9.690 -1.2025 -0.3595 -0.1095
 1021MOL0     C34662  12.449  11.272   9.618 -0.6286  0.5388  0.1322
 1021MOL0     C34663  12.603  11.291   9.604  1.1366 -0.3570  0.1223
 1021MOL0     O34664  12.668  11.213   9.707  0.2934  0.7030  0.7495
 1021MOL0     C34665  12.691  11.260   9.835 -0.2144  0.6216  0.2407
 1021MOL0     C34666  12.675  11.395   9.884  0.1664 -0.4327  0.4928
 1021MOL0     C34667  12.698  11.422  10.020 -0.8111 -0.7983  0.0913
 1021MOL0     C34668  12.755  11.327  10.107  0.2704 -0.6304  0.6453
 1021MOL0     C34669  12.792  11.353  10.246 -0.5279 -0.8343 -1.1992
 1021MOL0     O34670  12.736  11.461  10.307  0.8400 -0.2824  0.0827
 1021MOL0     C34671  12.759  11.538  10.419 -0.7449 -0.3689 -0.4843
 1021MOL0     C34672  12.690  11.661  10.432 -0.5795  0.3214  0.0743
 1021MOL0     C34673  12.711  11.743  10.543 -0.3381  0.4649  1.2682
 1021MOL0     C34674  12.787  11.703  10.649  0.0433 -0.4747  0.1672
 1021MOL0     O34675  12.810  11.784  10.761 -0.1522  0.3347 -0.6888
 1021MOL0     C34676  12.947  11.799  10.819  0.7175  0.7929  0.2157
 1021MOL0     C34677  12.954  11.773  10.969 -0.0511 -0.2837 -0.7338
 1021MOL0     C34678  12.972  11.621  11.016 -0.1651  0.1960  0.0424
 1021MOL0     C34679  13.106  11.547  10.967 -0.0562 -0.3940  0.7067
 1021MOL0     C34680  13.074  11.397  10.979  0.2556 -0.1235  0.6910
 1021MOL0     C34681  13.192  11.309  10.952 -0.3917  0.3110  0.2924
 1021MOL0     C34682  13.326  11.350  11.023 -0.1018 -0.0128 -0.5874
 1021MOL0     C34683  13.429  11.249  10.997 -0.6890 -0.9405  0.4717
 1021MOL0    Cl34684  13.394  11.116  11.113 -0.0064 -0.2079 -0.2702
 1021MOL0     C34685  12.849  11.583  10.641  0.6288 -0.1394 -1.1818
 1021MOL0     C34686  12.846  11.500  10.528  0.4228 -0.8200 -0.1961
 1021MOL0     O34687  12.891  11.285  10.286  0.1319  0.2452  0.1518
 1021MOL0     C34688  12.768  11.201  10.052  0.1812 -0.0749  0.3956
 1021MOL0     C34689  12.731  11.162   9.929 -0.1217 -1.6501  0.0895
 1021MOL0     N34690  12.159  11.124   9.694  0.8154  0.6005  0.5439
 1021MOL0     N34691  12.101  11.046   9.777  0.2674  0.9057  0.1224
 1021MOL0     C34692  11.037  11.133   9.631 -0.1076  0.5300  0.7578
 1021MOL0     C34693  10.922  11.064   9.584 -0.4204 -0.5658  0.4726
 1021MOL0     C34694  10.621  10.787   9.403  0.5751 -0.3785  1.3868
 1021MOL0     C34695  10.607  10.643   9.384  0.0276 -0.0964  1.0310
 1021MOL0     C34696  10.479  10.594   9.366 -0.7666 -0.4523 -0.4681
 1021MOL0     C34697  10.362  10.666   9.350  0.0486  0.3279  0.0909
 1021MOL0     O34698  10.241  10.610   9.326  0.1333  0.7877 -0.2875
 1021MOL0     C34699  10.196  10.532   9.438 -0.6755  0.2964 -0.1140
 1021MOL0     C34700  10.044  10.534   9.420  0.2834 -0.5661 -0.3273
 1021MOL0     C34701   9.987  10.673   9.429  0.3569  1.0047 -0.1154
 1021MOL0     C34702   9.830  10.696   9.406 -0.7133  0.3493  0.5292
 1021MOL0     C34703   9.737  10.662   9.515 -0.7135  0.8638 -0.7448
 1021MOL0     C34704   9.669  10.630   9.604  0.5043 -0.9023 -0.7858
 1021MOL0     C34705  10.374  10.807   9.359  0.3276  0.5345  1.1446
 1021MOL0     C34706  10.500  10.866   9.386  0.1792 -0.1202  0.3036
 1021MOL0     H34707  11.015  11.013   9.262 -0.0707 -2.9567  0.8696
 1021MOL0     H34708  11.201  11.146   9.330 -0.8585 -1.6877 -1.1080
 1021MOL0     H34709  11.314  11.102   9.704 -1.5456 -0.1631  2.4341
 1021MOL0     H34710  11.282  11.261   9.772 -0.3863  0.1993 -1.3426
 1021MOL0     H34711  11.494  11.266   9.775  1.6053 -3.9117  0.9462
 1021MOL0     H34712  11.467  11.348   9.629  1.6933  1.4430 -0.3966
 1021MOL0     H34713  11.513  11.154   9.482 -0.4822  0.4866  0.7789
 1021MOL0     H34714  11.535  11.047   9.614  3.4873 -1.0438 -0.6901
 1021MOL0     H34715  11.746  11.113   9.534  0.1720 -1.1801  0.6311
 1021MOL0     H34716  11.694  11.283   9.520 -1.3756  0.3078 -0.3187
 1021MOL0     H34717  11.691  11.296   9.774 -1.6684 -4.0250  2.9237
 1021MOL0     H34718  11.849  11.253   9.721  1.0002 -0.9513  3.7447
 1021MOL0     H34719  11.818  11.016   9.767 -1.3801  1.0298 -3.8685
 1021MOL0     H34720  11.663  11.043   9.819  1.8307 -3.9111 -2.2861
 1021MOL0     H34721  11.800  11.233   9.977 -1.0778  0.2973  0.4498
 1021MOL0     H34722  11.747  11.074  10.026 -1.1689 -0.1773 -1.4561
 1021MOL0     H34723  11.971  10.969   9.947 -0.2607 -0.1634 -2.9379
 1021MOL0     H34724  12.001  11.090  10.076  0.3691 -0.7311 -0.0184
 1021MOL0     H34725  12.068  11.336   9.927 -1.8420  1.0483  0.4698
 1021MOL0     H34726  12.178  11.450   9.753 -0.7484  1.3402 -1.6303
 1021MOL0     H34727  12.170  11.404   9.595 -2.0725  1.9481  1.7644
 1021MOL0     H34728  12.416  11.372   9.792 -0.0290  3.9446 -0.0949
 1021MOL0     H34729  12.406  11.478   9.654 -2.0471 -1.1687 -3.3506
 1021MOL0     H34730  12.425  11.183   9.678  0.1810  0.5904  0.5531
 1021MOL0     H34731  12.410  11.250   9.519  0.0401 -1.1066  0.2031
 1021MOL0     H34732  12.635  11.395   9.596  1.6132 -0.4887  0.3057
 1021MOL0     H34733  12.639  11.250   9.509 -0.2169  0.7186 -0.8941
 1021MOL0     H34734  12.632  11.482   9.834  2.1452 -0.0671 -0.6854
 1021MOL0     H34735  12.684  11.526  10.050  3.2145 -1.0396  3.7495
 1021MOL0     H34736  12.633  11.696  10.347 -0.4988  0.8672  0.2400
 1021MOL0     H34737  12.667  11.842  10.540 -1.5606 -0.0905  0.2843
 1021MOL0     H34738  12.979  11.900  10.793 -2.8943  1.6416 -1.5911
 1021MOL0     H34739  13.011  11.731  10.763  3.6306  1.8208  2.0597
 1021MOL0     H34740  12.874  11.810  11.034  0.8840 -1.4801  1.1836
 1021MOL0     H34741  13.049  11.817  11.002  0.3703 -1.1027 -0.8346
 1021MOL0     H34742  12.887  11.576  10.964  0.1809  2.1730 -2.4147
 1021MOL0     H34743  12.953  11.613  11.124 -2.7978 -1.1324 -0.4223
 1021MOL0     H34744  13.123  11.567  10.861  1.2445  1.1998  1.1695
 1021MOL0     H34745  13.192  11.577  11.028  0.4092 -0.0258 -0.1115
 1021MOL0     H34746  12.993  11.368  10.911 -0.3212  0.7154  1.0012
 1021MOL0     H34747  13.022  11.372  11.073  2.7222 -2.0647  1.6530
 1021MOL0     H34748  13.207  11.322  10.845 -0.9567 -0.6553  0.0847
 1021MOL0     H34749  13.162  11.209  10.985  0.3192 -0.5219 -1.4989
 1021MOL0     H34750  13.345  11.448  10.978 -2.4417  0.6187 -0.3497
 1021MOL0     H34751  13.318  11.369  11.131  1.9861 -1.3239 -0.1453
 1021MOL0     H34752  13.531  11.288  11.009  0.0704 -1.9288 -2.0402
 1021MOL0     H34753  13.415  11.219  10.893  0.8622  1.8382 -0.6554
 1021MOL0     H34754  12.904  11.558  10.731 -1.3025  0.8336  0.3461
 1021MOL0     H34755  12.881  11.397  10.531 -0.1747 -1.0520 -0.7635
 1021MOL0     H34756  12.822  11.131  10.116  3.3680  2.3782  0.6370
 1021MOL0     H34757  12.742  11.055   9.913  1.1564 -1.4206 -0.7136
 1021MOL0     H34758  11.047  11.167   9.734  2.5808 -0.6607  0.9787
 1021MOL0     H34759  10.835  11.060   9.648 -0.9731 -2.7953 -0.3069
 1021MOL0     H34760  10.696  10.583   9.366 -0.9902 -0.6556 -3.3888
 1021MOL0     H34761  10.489  10.486   9.353  2.3299 -0.2359 -0.7339
 1021MOL0     H34762  10.238  10.573   9.530  2.6670 -1.2496 -0.8029
 1021MOL0     H34763  10.229  10.428   9.436  2.7783  1.2774 -0.5382
 1021MOL0     H34764  10.019  10.478   9.329 -0.4955 -0.8882  0.0769
 1021MOL0     H34765  10.001  10.475   9.501 -1.6779  1.0860 -0.0698
 1021MOL0     H34766  10.034  10.740   9.357  1.5357  1.2880  0.8748
 1021MOL0     H34767  10.005  10.711   9.530  0.3496 -1.3134  0.8288
 1021MOL0     H34768   9.804  10.801   9.386 -2.2723 -0.2942 -1.0056
 1021MOL0     H34769   9.798  10.634   9.322 -3.2637  0.3630  1.3905
 1021MOL0     H34770   9.615  10.595   9.689  1.4974  2.3890  1.3946
 1021MOL0     H34771  10.280  10.859   9.343 -1.4281 -2.6175  0.3424
 1021MOL0     H34772  10.498  10.975   9.392  2.7840  0.5450 -4.8996
 1022MOL0     O34773  11.022  10.068   2.135 -0.0533  1.3021  0.0325
 1022MOL0     C34774  11.086   9.962   2.159 -0.6349  1.2495  0.0684
 1022MOL0     O34775  11.038   9.853   2.213 -0.0052  0.2057 -0.3488
 1022MOL0     C34776  10.896   9.848   2.231 -0.0803  0.7438 -0.2112
 1022MOL0     C34777  10.848   9.810   2.357 -0.8437 -0.4336  0.1534
 1022MOL0     C34778  10.717   9.790   2.379 -0.4559  0.0575  1.3161
 1022MOL0     C34779  10.621   9.799   2.271 -0.2392  1.0397 -0.5830
 1022MOL0     O34780  10.483   9.760   2.280 -0.0062 -0.1570 -0.2367
 1022MOL0     C34781  10.454   9.654   2.377  1.0813  0.1661 -0.2835
 1022MOL0     C34782  10.303   9.650   2.399  0.0267  0.4694 -0.3191
 1022MOL0     C34783  10.243   9.526   2.327 -0.2972  0.0398 -0.4414
 1022MOL0     C34784  10.086   9.531   2.302 -0.4198 -0.3554 -0.1576
 1022MOL0     C34785   9.986   9.527   2.425  0.1929  0.3983  0.5358
 1022MOL0     C34786   9.848   9.487   2.377 -0.5190  0.3110  0.8512
 1022MOL0     C34787   9.745   9.501   2.493 -0.1895 -0.2593 -0.4847
 1022MOL0     C34788   9.699   9.644   2.504  1.1266 -0.2307  0.8595
 1022MOL0     N34789   9.650   9.673   2.638 -0.7083  0.5319  0.3899
 1022MOL0     C34790   9.515   9.671   2.667  0.9167  0.2365  0.6214
 1022MOL0     C34791   9.513   9.722   2.800 -0.7478  0.2306 -0.0529
 1022MOL0     C34792   9.386   9.742   2.883  0.7051 -0.1104 -0.7028
 1022MOL0     C34793   9.351   9.619   2.970  0.3035 -1.0715 -0.2745
 1022MOL0     C34794   9.278   9.686   3.087  0.5561  0.7607  0.0635
 1022MOL0     C34795   9.236   9.567   3.181  0.4829 -0.0171  0.3801
 1022MOL0     O34796   9.146   9.481   3.109  0.1726 -0.3705  0.3771
 1022MOL0     C34797   9.010   9.517   3.107  0.0361  0.4935  0.3974
 1022MOL0     C34798   8.930   9.442   3.019  0.2367 -1.1850 -0.9728
 1022MOL0     C34799   8.793   9.452   3.012 -0.1611 -0.5049 -0.0926
 1022MOL0     C34800   8.720   9.552   3.082 -0.5285 -1.1143 -0.2496
 1022MOL0     C34801   8.573   9.569   3.059 -0.3968  0.9409  0.5671
 1022MOL0     O34802   8.516   9.687   3.094  0.5765 -0.1666 -0.1874
 1022MOL0     C34803   8.381   9.678   3.079 -0.2759  0.5493  0.0024
 1022MOL0     C34804   8.323   9.727   2.965 -0.0887  0.2875 -0.7536
 1022MOL0     C34805   8.185   9.721   2.947 -0.3416 -0.2104  0.1738
 1022MOL0     C34806   8.104   9.705   3.065  0.0984  1.0589 -0.8983
 1022MOL0     O34807   7.966   9.718   3.070 -0.1292  0.2381  0.0864
 1022MOL0     C34808   7.933   9.850   3.112 -0.3650  0.2432 -0.2595
 1022MOL0     C34809   7.795   9.850   3.165  0.5651  0.0139  0.1972
 1022MOL0     C34810   7.751   9.988   3.217  0.2485 -0.1733 -0.3093
 1022MOL0     C34811   7.782  10.093   3.103  0.4822  0.3487 -0.2496
 1022MOL0     C34812   7.745  10.238   3.129 -0.2198  0.0143  0.6975
 1022MOL0     C34813   7.806  10.335   3.019 -0.2391  1.1448 -0.8027
 1022MOL0     C34814   7.748  10.477   3.029  0.7248  1.0391 -0.5419
 1022MOL0     C34815   7.766  10.538   2.892  0.7856 -0.3860 -1.5697
 1022MOL0    Cl34816   7.688  10.703   2.884 -0.1095 -0.0931  0.4808
 1022MOL0     C34817   8.163   9.662   3.179 -0.1076  1.0947 -0.1247
 1022MOL0     C34818   8.307   9.645   3.184 -0.1247 -0.3379  0.3562
 1022MOL0     O34819   8.525   9.476   2.996  0.5548 -0.2968  0.3854
 1022MOL0     C34820   8.797   9.636   3.157  0.2848 -0.3804  0.0722
 1022MOL0     C34821   8.938   9.616   3.169 -0.6101 -0.3782  0.0627
 1022MOL0     N34822   9.644   9.752   2.839  0.0645  0.4464 -0.2818
 1022MOL0     N34823   9.728   9.721   2.745  0.6890  0.8874 -0.3218
 1022MOL0     C34824  10.674   9.834   2.149 -0.1473  0.3651  0.7985
 1022MOL0     C34825  10.811   9.860   2.128 -0.6980 -0.1599  0.3494
 1022MOL0     C34826  11.226   9.960   2.128  1.7808  0.2772  0.5263
 1022MOL0     C34827  11.303  10.066   2.113 -1.1860 -0.3331  0.7000
 1022MOL0     C34828  11.442  10.060   2.075  0.1929 -1.2870  0.0518
 1022MOL0     C34829  11.499   9.942   2.055 -0.9841  1.0422  0.9875
 1022MOL0     O34830  11.640   9.932   2.041  0.4267 -0.1896  0.9611
 1022MOL0     C34831  11.707   9.832   1.965 -0.2772 -0.9144  0.1116
 1022MOL0     C34832  11.699   9.869   1.813 -0.7941  0.0546  1.0844
 1022MOL0     C34833  11.776   9.988   1.755 -1.2849 -0.7019 -0.8983
 1022MOL0     C34834  11.717  10.040   1.631 -0.9175 -0.7771  0.4697
 1022MOL0     C34835  11.761  10.178   1.613 -0.1570  0.0100  0.9171
 1022MOL0     C34836  11.809  10.292   1.602  0.7802  0.5762 -0.4332
 1022MOL0     C34837  11.425   9.822   2.081 -0.0533 -0.3096  0.1491
 1022MOL0     C34838  11.290   9.837   2.111  0.1846 -0.1998  0.5463
 1022MOL0     H34839  10.912   9.786   2.442  3.4394 -0.6004 -2.7803
 1022MOL0     H34840  10.684   9.759   2.478 -0.9954  0.6025  1.3134
 1022MOL0     H34841  10.489   9.680   2.477 -2.3842  0.4237  0.9683
 1022MOL0     H34842  10.495   9.561   2.335 -1.1830 -0.3388 -1.5553
 1022MOL0     H34843  10.251   9.746   2.393  3.5670  2.5812 -0.5065
 1022MOL0     H34844  10.283   9.639   2.506  2.8475 -1.5540  0.1378
 1022MOL0     H34845  10.268   9.444   2.395  1.7822 -0.1396 -1.3540
 1022MOL0     H34846  10.294   9.506   2.233 -0.0421  1.2107 -0.5647
 1022MOL0     H34847  10.054   9.622   2.250  2.6177  0.7861 -0.2106
 1022MOL0     H34848  10.069   9.439   2.246  0.9246  0.8558 -2.7036
 1022MOL0     H34849   9.978   9.630   2.461 -0.9301  0.0713  1.2494
 1022MOL0     H34850  10.014   9.459   2.506 -2.7839 -1.1594  0.3686
 1022MOL0     H34851   9.854   9.385   2.338  2.9639  1.3317 -1.8495
 1022MOL0     H34852   9.821   9.564   2.304  0.7743  3.2954  3.3181
 1022MOL0     H34853   9.656   9.437   2.487 -0.5554 -0.8043  5.2624
 1022MOL0     H34854   9.794   9.461   2.582 -0.4277 -5.1084 -2.2413
 1022MOL0     H34855   9.625   9.661   2.426  3.4364 -0.5797 -1.5568
 1022MOL0     H34856   9.771   9.725   2.489 -1.2799  2.2269  1.8638
 1022MOL0     H34857   9.431   9.631   2.612  0.4765  2.3259 -0.2823
 1022MOL0     H34858   9.307   9.765   2.811 -2.8002 -3.1931  1.7809
 1022MOL0     H34859   9.416   9.827   2.945  1.9628  1.0601 -2.7901
 1022MOL0     H34860   9.441   9.561   2.995  1.6087  1.4271  1.3266
 1022MOL0     H34861   9.284   9.555   2.912 -0.8618  1.2127 -1.6019
 1022MOL0     H34862   9.321   9.769   3.144 -0.2470  1.9290 -0.9780
 1022MOL0     H34863   9.180   9.725   3.056 -0.9617  0.0357  3.5243
 1022MOL0     H34864   9.185   9.612   3.267  0.3548 -0.5136  0.5691
 1022MOL0     H34865   9.319   9.501   3.208  2.5260  1.4413 -1.9775
 1022MOL0     H34866   8.981   9.361   2.970  0.9125 -0.8302 -0.8633
 1022MOL0     H34867   8.733   9.389   2.947 -1.8130  0.5461  0.3517
 1022MOL0     H34868   8.373   9.749   2.871  0.6511 -0.3937 -0.5339
 1022MOL0     H34869   8.135   9.740   2.853 -0.3556  0.7082  0.3580
 1022MOL0     H34870   7.935   9.906   3.019  0.0459  2.0594  0.8047
 1022MOL0     H34871   7.995   9.895   3.190 -0.8728  2.8454 -1.2764
 1022MOL0     H34872   7.794   9.778   3.247  0.2557  0.7959  0.8940
 1022MOL0     H34873   7.732   9.824   3.080 -0.1642  0.5473  0.5693
 1022MOL0     H34874   7.802  10.028   3.306  1.4762  4.6188 -2.8550
 1022MOL0     H34875   7.643   9.985   3.230  0.2072  0.7278 -0.4240
 1022MOL0     H34876   7.889  10.098   3.081  0.7809 -2.5949  0.1629
 1022MOL0     H34877   7.726  10.055   3.018 -0.8295 -0.5711  0.9859
 1022MOL0     H34878   7.785  10.266   3.227  0.2271 -0.1551  0.5689
 1022MOL0     H34879   7.637  10.250   3.129 -0.8146 -3.8965  0.2879
 1022MOL0     H34880   7.791  10.292   2.920 -2.4090  1.1925 -0.5335
 1022MOL0     H34881   7.914  10.339   3.039 -0.3010  1.9191 -0.5946
 1022MOL0     H34882   7.641  10.464   3.043  0.9813 -2.0273 -0.6136
 1022MOL0     H34883   7.774  10.540   3.114  0.6681 -2.7913  2.5965
 1022MOL0     H34884   7.720  10.477   2.814 -1.6551 -0.3121 -0.2847
 1022MOL0     H34885   7.871  10.560   2.868  1.4227  1.8071  2.2320
 1022MOL0     H34886   8.106   9.623   3.263  0.3650  0.5634 -0.0473
 1022MOL0     H34887   8.350   9.604   3.275 -1.2380 -3.0865 -0.2480
 1022MOL0     H34888   8.748   9.714   3.214  0.8652 -1.1578  1.6877
 1022MOL0     H34889   8.986   9.680   3.242 -0.1357  0.3044 -0.8310
 1022MOL0     H34890  10.604   9.847   2.067  0.3472  4.7784  0.8461
 1022MOL0     H34891  10.859   9.876   2.032  1.4124  2.1263  1.6427
 1022MOL0     H34892  11.266  10.168   2.118 -0.2492  0.3003 -2.8614
 1022MOL0     H34893  11.509  10.144   2.065  1.1725 -2.1923 -1.3529
 1022MOL0     H34894  11.655   9.736   1.968 -0.4327 -0.8541 -0.4719
 1022MOL0     H34895  11.810   9.834   2.000 -0.6920  2.6332  1.5895
 1022MOL0     H34896  11.725   9.776   1.763  2.3000  0.0063  2.5558
 1022MOL0     H34897  11.592   9.891   1.800 -0.8626  0.6295  2.4637
 1022MOL0     H34898  11.882   9.962   1.766 -1.4614 -0.3542  3.8956
 1022MOL0     H34899  11.770  10.071   1.826  0.7097 -0.4645 -0.9486
 1022MOL0     H34900  11.748   9.978   1.546 -0.1233 -1.0176  0.9201
 1022MOL0     H34901  11.609  10.054   1.634 -0.9801 -1.0876 -0.2283
 1022MOL0     H34902  11.844  10.389   1.576 -0.9319  1.6547  1.0540
 1022MOL0     H34903  11.473   9.726   2.062  1.5061  0.6458 -1.0625
 1022MOL0     H34904  11.240   9.743   2.133  1.1364 -0.1508  3.2039
 1023MOL0     O34905   8.095   7.286   7.318 -0.2361  0.4764 -0.2812
 1023MOL0     C34906   8.063   7.389   7.253 -0.6750  0.0468  0.5838
 1023MOL0     O34907   8.137   7.506   7.246  0.8067  0.7624 -0.2066
 1023MOL0     C34908   8.228   7.532   7.344  0.0187  0.0077 -0.7744
 1023MOL0     C34909   8.184   7.557   7.476 -0.3669 -0.2612 -0.8527
 1023MOL0     C34910   8.286   7.594   7.564  0.1656  0.6689  0.9657
 1023MOL0     C34911   8.422   7.610   7.530  0.5765  0.1359 -0.1862
 1023MOL0     O34912   8.530   7.645   7.615  0.0849 -0.2615 -0.0839
 1023MOL0     C34913   8.488   7.682   7.745 -0.3727  0.8008 -1.1235
 1023MOL0     C34914   8.598   7.777   7.797 -0.3241  0.7525  1.0558
 1023MOL0     C34915   8.591   7.789   7.953 -0.6345  1.1727 -0.0631
 1023MOL0     C34916   8.694   7.883   8.011 -0.6976  0.5412 -0.1989
 1023MOL0     C34917   8.675   7.902   8.158  0.6589  0.0653 -0.1323
 1023MOL0     C34918   8.814   7.948   8.221  0.1164  0.4090  0.0817
 1023MOL0     C34919   8.811   7.915   8.376 -1.2105 -0.2573 -0.0540
 1023MOL0     C34920   8.747   8.021   8.455 -0.0830 -0.0573  0.0495
 1023MOL0     N34921   8.740   7.991   8.604 -1.2081  0.6920  0.8137
 1023MOL0     C34922   8.801   8.050   8.710 -0.1161 -0.9424  0.0563
 1023MOL0     C34923   8.767   7.977   8.820  0.8645  0.7609  0.0066
 1023MOL0     C34924   8.818   7.989   8.957  1.0167 -0.1531 -0.7323
 1023MOL0     C34925   8.958   8.054   8.976 -0.0177 -0.4187  0.0358
 1023MOL0     C34926   8.987   8.087   9.118  0.1257 -1.1609 -0.1155
 1023MOL0     C34927   9.114   8.187   9.138 -0.4918  0.2411 -0.1305
 1023MOL0     O34928   9.142   8.216   9.275 -0.2905 -0.1244  0.4350
 1023MOL0     C34929   9.112   8.344   9.321 -0.0549  0.6017 -0.1878
 1023MOL0     C34930   9.182   8.374   9.437  0.0454  0.0082  0.3903
 1023MOL0     C34931   9.157   8.494   9.505  0.9295 -0.1359  0.2528
 1023MOL0     C34932   9.066   8.591   9.447  0.8297 -0.6419 -0.3395
 1023MOL0     C34933   9.048   8.723   9.505  0.1209  0.2855  0.4525
 1023MOL0     O34934   8.949   8.795   9.447 -0.2041  1.1809  0.2015
 1023MOL0     C34935   8.940   8.923   9.489  0.2201  0.9470 -0.7955
 1023MOL0     C34936   9.043   9.020   9.481 -0.6744 -0.1296 -0.5541
 1023MOL0     C34937   9.014   9.155   9.529 -0.4146  0.7232  0.3789
 1023MOL0     C34938   8.879   9.191   9.576 -1.0808 -0.3500 -0.2666
 1023MOL0     O34939   8.852   9.318   9.604  0.3313  0.3143 -0.2233
 1023MOL0     C34940   8.809   9.362   9.740 -0.7188 -0.4430 -0.4504
 1023MOL0     C34941   8.728   9.487   9.729  0.6583 -1.1278  0.4558
 1023MOL0     C34942   8.826   9.597   9.685  0.9712  1.1279 -0.4156
 1023MOL0     C34943   8.764   9.734   9.660  0.0945 -0.2727 -1.2512
 1023MOL0     C34944   8.861   9.840   9.620  0.2221  0.3329  0.0974
 1023MOL0     C34945   8.892   9.874   9.472 -0.5033 -0.0171  0.4451
 1023MOL0     C34946   8.757   9.936   9.403 -0.3022  0.5698 -1.4205
 1023MOL0     C34947   8.781   9.949   9.249  0.6176  0.0701 -0.8427
 1023MOL0    Cl34948   8.934  10.020   9.220 -0.4396  0.3751 -0.0216
 1023MOL0     C34949   8.781   9.094   9.566  0.3567  0.5498  1.2446
 1023MOL0     C34950   8.812   8.962   9.525  0.0490  0.8105  0.5843
 1023MOL0     O34951   9.110   8.751   9.603 -0.4372 -0.8658 -0.0624
 1023MOL0     C34952   8.995   8.553   9.338  0.8773  0.1503 -0.4834
 1023MOL0     C34953   9.014   8.435   9.273  0.9666 -0.0350  0.1397
 1023MOL0     N34954   8.691   7.868   8.783  0.2593 -0.0574 -0.2054
 1023MOL0     N34955   8.684   7.878   8.652  0.4120  0.8920 -0.2187
 1023MOL0     C34956   8.462   7.584   7.403  0.3527 -0.0302  0.0234
 1023MOL0     C34957   8.366   7.544   7.315 -0.3237  0.3705  0.1949
 1023MOL0     C34958   7.944   7.365   7.157 -0.6543 -0.3768  0.1362
 1023MOL0     C34959   7.921   7.472   7.073  0.2690 -0.9334 -0.2199
 1023MOL0     C34960   7.825   7.458   6.973 -0.3566  0.0531 -0.6019
 1023MOL0     C34961   7.741   7.349   6.958  0.9128 -0.4945  0.8021
 1023MOL0     O34962   7.659   7.359   6.846 -0.5667  0.6461  0.3292
 1023MOL0     C34963   7.578   7.237   6.816  0.2440 -1.0318  0.1187
 1023MOL0     C34964   7.483   7.270   6.702  0.2840  0.1516 -0.5923
 1023MOL0     C34965   7.392   7.154   6.655  0.0715  0.6751  0.9565
 1023MOL0     C34966   7.280   7.206   6.563  0.0999 -0.6496 -0.6324
 1023MOL0     C34967   7.171   7.118   6.539 -0.9102  0.2017 -0.4852
 1023MOL0     C34968   7.079   7.041   6.528 -0.7485  0.1149  0.3799
 1023MOL0     C34969   7.768   7.239   7.038 -1.0542 -0.1708 -0.0029
 1023MOL0     C34970   7.868   7.250   7.140  0.5638  0.7493 -0.2352
 1023MOL0     H34971   8.081   7.537   7.505 -0.6598  2.7893  0.5929
 1023MOL0     H34972   8.244   7.602   7.664 -0.1269 -2.2739  1.1608
 1023MOL0     H34973   8.464   7.612   7.825  0.3903  1.9898  0.1804
 1023MOL0     H34974   8.399   7.745   7.741  0.4597  2.2456  1.1212
 1023MOL0     H34975   8.587   7.874   7.748  0.2076  1.4866  2.3278
 1023MOL0     H34976   8.697   7.734   7.777 -0.6173  0.6252 -0.1811
 1023MOL0     H34977   8.619   7.689   7.986 -0.9045  0.7351 -1.1438
 1023MOL0     H34978   8.487   7.810   7.980 -1.7735 -3.3169 -0.1842
 1023MOL0     H34979   8.796   7.850   7.989 -1.0035 -0.3673 -0.2962
 1023MOL0     H34980   8.676   7.985   7.974 -0.1204  0.9671  0.6585
 1023MOL0     H34981   8.632   7.812   8.203 -1.5305  2.0473  2.0706
 1023MOL0     H34982   8.597   7.976   8.180  0.9587  0.2673  0.2546
 1023MOL0     H34983   8.838   8.050   8.192 -2.1078  0.5101 -1.6444
 1023MOL0     H34984   8.885   7.882   8.170 -0.5934 -1.4295  1.3173
 1023MOL0     H34985   8.760   7.820   8.397 -2.3578 -0.1702 -2.1992
 1023MOL0     H34986   8.916   7.901   8.402 -0.9244 -0.9865 -1.5214
 1023MOL0     H34987   8.647   8.038   8.415  0.3179  0.2288 -0.8496
 1023MOL0     H34988   8.796   8.117   8.435  0.1150  0.6104  3.2133
 1023MOL0     H34989   8.867   8.136   8.715  0.6164 -1.2384 -2.8060
 1023MOL0     H34990   8.829   7.886   8.992 -1.0707  0.1299  0.9809
 1023MOL0     H34991   8.755   8.053   9.020  3.7889  0.7548  1.3316
 1023MOL0     H34992   8.972   8.147   8.920 -2.8113 -0.3366 -0.6444
 1023MOL0     H34993   9.031   7.981   8.940 -0.1150  0.3422 -1.7802
 1023MOL0     H34994   8.903   8.135   9.168  1.3437  0.1258  0.7657
 1023MOL0     H34995   9.012   7.991   9.165  2.8625 -0.4240  0.1043
 1023MOL0     H34996   9.113   8.281   9.081  0.8701 -0.0696 -0.7078
 1023MOL0     H34997   9.203   8.142   9.094 -1.5593 -0.5512 -1.5736
 1023MOL0     H34998   9.257   8.310   9.482  1.6611  1.4495 -0.1270
 1023MOL0     H34999   9.199   8.513   9.604  0.3604  1.8384  0.1654
 1023MOL0     H35000   9.147   8.994   9.464 -0.1190 -0.2513  2.4656
 1023MOL0     H35001   9.097   9.224   9.538  1.1100 -1.1401  1.3384
 1023MOL0     H35002   8.904   9.372   9.794 -1.0982  0.7483  0.0294
 1023MOL0     H35003   8.746   9.293   9.797 -3.0953  2.3840  0.6111
 1023MOL0     H35004   8.677   9.521   9.819 -0.2937  1.4208 -0.9643
 1023MOL0     H35005   8.658   9.460   9.650 -1.1090  0.9177  1.2465
 1023MOL0     H35006   8.876   9.565   9.594  0.0969  0.9156 -0.8338
 1023MOL0     H35007   8.898   9.615   9.766  5.7780 -6.3595 -2.0645
 1023MOL0     H35008   8.683   9.721   9.588 -1.2708 -0.8730  0.3312
 1023MOL0     H35009   8.718   9.774   9.750 -0.9562  2.7351 -2.9718
 1023MOL0     H35010   8.957   9.803   9.657  0.2404 -0.8479 -1.0345
 1023MOL0     H35011   8.825   9.926   9.677 -1.9190 -2.1995  2.8559
 1023MOL0     H35012   8.909   9.780   9.418  0.7265  1.0210 -1.0398
 1023MOL0     H35013   8.978   9.941   9.473 -0.5845  0.1575 -1.2797
 1023MOL0     H35014   8.679   9.862   9.422  0.3218  0.5796  1.6463
 1023MOL0     H35015   8.713  10.020   9.457 -2.6998 -0.0440 -2.2853
 1023MOL0     H35016   8.703  10.000   9.192 -0.7965  0.6886  1.4732
 1023MOL0     H35017   8.787   9.846   9.214  2.7174  0.4357 -1.7094
 1023MOL0     H35018   8.692   9.137   9.611 -0.6375 -1.2057  1.0487
 1023MOL0     H35019   8.725   8.899   9.513  0.9221 -0.1316 -1.3025
 1023MOL0     H35020   8.919   8.611   9.287  0.7110 -0.9387 -1.5273
 1023MOL0     H35021   8.941   8.431   9.193 -1.5258  3.0220  2.0202
 1023MOL0     H35022   8.562   7.616   7.377  0.8508 -0.1588  1.6789
 1023MOL0     H35023   8.402   7.519   7.216  1.8548 -1.3637  1.3457
 1023MOL0     H35024   7.973   7.566   7.085 -2.4838  0.7705 -0.8392
 1023MOL0     H35025   7.806   7.540   6.906  0.0692  0.6171 -0.0443
 1023MOL0     H35026   7.512   7.204   6.897  0.1338 -3.3171 -0.8198
 1023MOL0     H35027   7.633   7.145   6.797  1.0578 -0.0963 -2.4597
 1023MOL0     H35028   7.430   7.359   6.737  2.6116  0.9894  1.0409
 1023MOL0     H35029   7.545   7.297   6.616 -0.7477 -0.0558 -1.4344
 1023MOL0     H35030   7.342   7.108   6.740 -1.2842 -2.7641 -1.4743
 1023MOL0     H35031   7.455   7.074   6.614 -0.8095 -0.5823  1.9831
 1023MOL0     H35032   7.246   7.298   6.611  0.7599 -1.7085  2.0187
 1023MOL0     H35033   7.317   7.236   6.464  0.4068  0.1947 -0.2718
 1023MOL0     H35034   6.999   6.980   6.493  1.6756 -2.3922 -1.2340
 1023MOL0     H35035   7.729   7.140   7.014 -1.3287 -0.0584 -0.0255
 1023MOL0     H35036   7.905   7.175   7.209 -2.8467 -1.0321 -0.1473
 1024MOL0     O35037   9.721   3.057   8.815  0.3598 -0.2298 -0.1699
 1024MOL0     C35038   9.768   2.994   8.722 -0.3394  0.5040  0.4157
 1024MOL0     O35039   9.893   2.993   8.665 -0.2134 -0.4790  0.3896
 1024MOL0     C35040   9.991   3.090   8.681 -0.4313  1.0838  0.3661
 1024MOL0     C35041  10.101   3.076   8.605 -0.3328  0.8696 -0.2278
 1024MOL0     C35042  10.224   3.147   8.628  0.3318  0.3248 -0.5400
 1024MOL0     C35043  10.225   3.243   8.732  0.4155 -0.1627  0.3520
 1024MOL0     O35044  10.349   3.296   8.776  0.1597 -0.2569 -0.2528
 1024MOL0     C35045  10.363   3.425   8.840  0.1670  0.4168 -0.1659
 1024MOL0     C35046  10.368   3.404   8.987  0.1756 -0.0600  0.2300
 1024MOL0     C35047  10.487   3.315   9.029  0.6729  0.0208  0.6052
 1024MOL0     C35048  10.623   3.392   9.024 -0.9767 -0.3911  0.0678
 1024MOL0     C35049  10.743   3.320   9.087  0.6966 -0.3151  0.0428
 1024MOL0     C35050  10.757   3.341   9.229 -0.0096  0.1060  0.0966
 1024MOL0     C35051  10.769   3.484   9.276  0.2041  0.7836  0.6728
 1024MOL0     C35052  10.855   3.477   9.408  1.1846  0.7901  1.5543
 1024MOL0     N35053  10.882   3.603   9.468  0.0482 -0.1920  0.2518
 1024MOL0     C35054  10.967   3.699   9.410  0.2556  0.1551 -0.2742
 1024MOL0     C35055  10.932   3.820   9.453  0.1728 -0.4815  0.2149
 1024MOL0     C35056  10.986   3.955   9.413  0.4708 -0.3773  1.1029
 1024MOL0     C35057  11.012   4.042   9.538 -0.3145  0.2519  0.6420
 1024MOL0     C35058  10.886   4.094   9.616 -0.5587 -0.9448 -0.8358
 1024MOL0     C35059  10.780   4.160   9.531 -0.7166 -0.8379 -0.4178
 1024MOL0     O35060  10.678   4.203   9.629 -0.1051 -0.7065 -0.8155
 1024MOL0     C35061  10.556   4.134   9.624  0.2498  0.2002  0.4642
 1024MOL0     C35062  10.535   4.015   9.692 -0.3458  0.5781 -0.2993
 1024MOL0     C35063  10.414   3.949   9.702  0.2248 -0.2541 -0.7047
 1024MOL0     C35064  10.310   3.984   9.612 -0.3220  0.5796 -0.5670
 1024MOL0     C35065  10.181   3.909   9.627 -0.2683 -0.3529  0.1791
 1024MOL0     O35066  10.159   3.840   9.742 -0.6286  0.0990 -0.5008
 1024MOL0     C35067  10.048   3.754   9.740 -0.1941 -0.6556 -0.5781
 1024MOL0     C35068  10.076   3.616   9.715 -1.1076 -0.3333 -0.3720
 1024MOL0     C35069   9.977   3.524   9.707 -0.2215  0.4082  0.1196
 1024MOL0     C35070   9.845   3.556   9.741 -0.0053  0.7769  0.0482
 1024MOL0     O35071   9.735   3.470   9.717 -0.0141 -0.1948 -0.3268
 1024MOL0     C35072   9.767   3.321   9.704 -0.4447  0.1661  0.4658
 1024MOL0     C35073   9.637   3.252   9.724 -0.4193 -0.0503 -0.3544
 1024MOL0     C35074   9.575   3.273   9.866 -0.8935  0.4845  0.2843
 1024MOL0     C35075   9.443   3.203   9.878  0.1716 -0.6371  0.5936
 1024MOL0     C35076   9.448   3.055   9.859 -0.1267  0.1679 -0.6614
 1024MOL0     C35077   9.314   2.994   9.897  0.1069  0.0585 -0.5015
 1024MOL0     C35078   9.219   2.998   9.778 -0.3871 -0.2482  0.2859
 1024MOL0     C35079   9.093   2.929   9.808  0.9912  0.5325 -1.0433
 1024MOL0    Cl35080   8.985   3.028   9.916 -0.4154 -0.1038  0.0547
 1024MOL0     C35081   9.818   3.689   9.778  0.2769 -0.9696 -0.4725
 1024MOL0     C35082   9.919   3.784   9.782  0.0644 -0.5217  0.4067
 1024MOL0     O35083  10.098   3.915   9.536  0.0466  0.2313 -0.2416
 1024MOL0     C35084  10.324   4.099   9.532 -0.2415 -0.5383  0.2138
 1024MOL0     C35085  10.449   4.178   9.545 -0.3560  0.3195 -0.0418
 1024MOL0     N35086  10.822   3.790   9.538  0.0019 -0.4137  0.5670
 1024MOL0     N35087  10.791   3.665   9.557 -0.1604  0.0981  0.0694
 1024MOL0     C35088  10.099   3.270   8.792  0.0950  0.4779 -0.7115
 1024MOL0     C35089   9.984   3.196   8.775  0.5066 -0.3020 -0.4022
 1024MOL0     C35090   9.690   2.879   8.680 -0.8154 -0.1421  0.2005
 1024MOL0     C35091   9.737   2.781   8.589 -0.3377  0.2550 -1.0470
 1024MOL0     C35092   9.670   2.660   8.568  0.0478  0.1283 -0.1038
 1024MOL0     C35093   9.536   2.643   8.616  0.1756 -0.6031 -0.4742
 1024MOL0     O35094   9.472   2.526   8.579  0.2034 -0.5677  0.6447
 1024MOL0     C35095   9.355   2.472   8.637  0.2244 -0.9203 -0.0220
 1024MOL0     C35096   9.333   2.323   8.606  0.0301  0.0999  0.6193
 1024MOL0     C35097   9.243   2.247   8.708 -0.4320 -0.0732  0.3109
 1024MOL0     C35098   9.200   2.119   8.634 -0.5396  0.2460  0.1587
 1024MOL0     C35099   9.097   2.051   8.717 -0.2445 -0.7912  0.6436
 1024MOL0     C35100   9.016   2.002   8.793  0.7243  0.1098  0.0268
 1024MOL0     C35101   9.491   2.737   8.710  0.6973 -0.1239  0.6651
 1024MOL0     C35102   9.566   2.851   8.740  0.9384 -0.2231 -1.6579
 1024MOL0     H35103  10.093   3.008   8.521  2.3871 -0.1076  0.1783
 1024MOL0     H35104  10.312   3.122   8.570  1.0683  0.2768  0.5746
 1024MOL0     H35105  10.287   3.491   8.795 -1.0897 -1.2228 -0.5685
 1024MOL0     H35106  10.454   3.480   8.815 -0.6104  1.3896 -0.9863
 1024MOL0     H35107  10.275   3.358   9.023  0.3251 -0.3129  0.2987
 1024MOL0     H35108  10.381   3.503   9.030 -1.4903 -0.6789  2.3797
 1024MOL0     H35109  10.490   3.229   8.961 -2.2523  0.4384 -0.1956
 1024MOL0     H35110  10.482   3.277   9.131  3.8461  0.4867  1.0374
 1024MOL0     H35111  10.639   3.408   8.917 -1.4207  0.9649  0.1785
 1024MOL0     H35112  10.604   3.491   9.067 -1.7844 -0.4445 -0.1316
 1024MOL0     H35113  10.833   3.355   9.035  0.8453 -1.3551 -0.4256
 1024MOL0     H35114  10.744   3.213   9.063 -0.4642 -0.4925  0.7196
 1024MOL0     H35115  10.846   3.284   9.259  1.1313  1.0254 -1.3932
 1024MOL0     H35116  10.669   3.306   9.284  1.2198 -1.1867  1.3223
 1024MOL0     H35117  10.832   3.548   9.214 -0.0701  1.7616  1.3728
 1024MOL0     H35118  10.671   3.529   9.291 -1.0751 -1.8889  0.7790
 1024MOL0     H35119  10.950   3.422   9.412  1.3806  1.1776  2.9664
 1024MOL0     H35120  10.786   3.415   9.467  1.3427  1.1857  2.1574
 1024MOL0     H35121  11.046   3.667   9.342 -0.0473 -2.1980  0.3775
 1024MOL0     H35122  10.909   4.005   9.352  0.4360  0.8699  2.1205
 1024MOL0     H35123  11.080   3.954   9.357 -0.6928  0.8332 -1.0104
 1024MOL0     H35124  11.079   4.119   9.497  3.0882 -2.5290  0.5317
 1024MOL0     H35125  11.077   3.985   9.605 -3.2023 -1.7959  1.8760
 1024MOL0     H35126  10.844   4.013   9.676 -2.7514 -0.4480 -1.5701
 1024MOL0     H35127  10.916   4.173   9.685 -1.5894 -0.5372 -0.8365
 1024MOL0     H35128  10.737   4.108   9.445 -1.6509 -1.1802  0.2392
 1024MOL0     H35129  10.814   4.255   9.490 -1.1142 -0.5133 -0.0044
 1024MOL0     H35130  10.606   3.968   9.759  0.7215  0.5690 -1.3829
 1024MOL0     H35131  10.403   3.870   9.775 -0.9721  1.1036  0.6789
 1024MOL0     H35132  10.173   3.582   9.682 -1.2217 -1.2722  0.2240
 1024MOL0     H35133   9.981   3.425   9.663 -0.6632 -0.8238  2.6382
 1024MOL0     H35134   9.840   3.295   9.781 -0.2072  3.6856  1.6053
 1024MOL0     H35135   9.826   3.292   9.616 -1.1328  0.5069 -0.1248
 1024MOL0     H35136   9.650   3.145   9.707 -4.4113 -0.3087 -2.9631
 1024MOL0     H35137   9.579   3.297   9.643  0.2400 -0.8099 -1.2732
 1024MOL0     H35138   9.558   3.379   9.885  0.7189  1.2023 -1.9633
 1024MOL0     H35139   9.637   3.228   9.944 -2.0198 -1.6422  0.0195
 1024MOL0     H35140   9.406   3.232   9.976 -2.7289 -1.0542 -0.2790
 1024MOL0     H35141   9.379   3.252   9.804  1.9596 -0.3591 -0.8407
 1024MOL0     H35142   9.518   3.002   9.923 -0.3633  0.1289 -0.4319
 1024MOL0     H35143   9.485   3.032   9.759 -0.0147  1.2857 -0.8961
 1024MOL0     H35144   9.267   3.042   9.983 -1.3710  2.3508 -2.4565
 1024MOL0     H35145   9.331   2.891   9.931  2.4806  0.2083 -1.0920
 1024MOL0     H35146   9.198   3.100   9.744  0.5933 -0.0221  0.3503
 1024MOL0     H35147   9.264   2.946   9.693 -0.5425 -0.5881  0.4089
 1024MOL0     H35148   9.098   2.827   9.847  1.2459  0.9349  0.0112
 1024MOL0     H35149   9.040   2.915   9.713 -1.1144 -3.2238  0.4973
 1024MOL0     H35150   9.715   3.719   9.798  0.3157  0.6393 -2.3868
 1024MOL0     H35151   9.885   3.881   9.816 -2.0025 -1.2791  0.6015
 1024MOL0     H35152  10.242   4.129   9.468  0.1379 -0.5964 -0.3031
 1024MOL0     H35153  10.465   4.267   9.486 -2.6390 -0.2669 -1.6925
 1024MOL0     H35154  10.085   3.347   8.868 -1.3689 -3.3715  3.3522
 1024MOL0     H35155   9.904   3.207   8.847 -1.6679 -3.9302 -1.9912
 1024MOL0     H35156   9.828   2.801   8.533  0.6344 -1.5450 -0.2039
 1024MOL0     H35157   9.706   2.588   8.495 -0.9135 -0.7862  0.2990
 1024MOL0     H35158   9.264   2.522   8.601 -1.4122 -2.9848  1.0703
 1024MOL0     H35159   9.375   2.488   8.743  3.4924 -2.8502 -0.2178
 1024MOL0     H35160   9.295   2.312   8.504  1.8605  4.8229 -0.8187
 1024MOL0     H35161   9.435   2.283   8.608  0.3582  0.7870 -1.1050
 1024MOL0     H35162   9.148   2.300   8.719 -0.6834 -0.0801 -1.5307
 1024MOL0     H35163   9.292   2.220   8.802  0.1650  0.5174  0.1743
 1024MOL0     H35164   9.156   2.149   8.539 -1.6359  0.8591  0.8268
 1024MOL0     H35165   9.289   2.059   8.617 -2.7483 -3.4650  0.5995
 1024MOL0     H35166   8.947   1.967   8.867  1.6200 -0.3098  0.6766
 1024MOL0     H35167   9.394   2.727   8.756  1.4670  1.2321  2.6967
 1024MOL0     H35168   9.526   2.915   8.818  0.0012  0.7032 -2.8513
  11.42327  11.42327  11.42327
